Protein in INSANE! Membrane UpperLeaflet>POPC=1.0 LowerLeaflet>POPC=1.0
10365
    1AU     AUC    1   5.265   5.510   5.759
    1AU     AUC    2   5.446   4.841   5.664
    1AU     AUC    3   5.534   5.443   5.814
    1AU     AUC    4   4.516   5.243   5.836
    1AU     AUC    5   4.946   5.707   5.996
    1AU     AUC    6   4.995   5.485   5.850
    1AU     AUC    7   5.411   5.293   5.791
    1AU     AUC    8   4.784   5.262   6.116
    1AU     AUC    9   5.473   4.900   6.021
    1AU     AUC   10   5.443   5.657   6.002
    1AU     AUC   11   5.310   5.568   5.949
    1AU     AUC   12   5.017   4.818   5.488
    1AU     AUC   13   5.004   4.857   5.554
    1AU     AUC   14   5.631   4.741   5.578
    1AU     AUC   15   5.765   5.008   5.624
    1AU     AUC   16   5.865   5.207   5.870
    1AU     AUC   17   4.289   5.251   5.796
    1AU     AUC   18   4.543   5.662   5.912
    1AU     AUC   19   4.818   5.813   6.127
    1AU     AUC   20   4.856   5.400   5.728
    1AU     AUC   21   4.976   5.232   5.776
    1AU     AUC   22   5.199   5.118   5.812
    1AU     AUC   23   4.763   5.310   6.161
    1AU     AUC   24   5.406   4.889   6.090
    1AU     AUC   25   5.711   4.768   5.978
    1AU     AUC   26   5.554   5.775   6.248
    1AU     AUC   27   5.560   5.657   6.239
    1AU     AUC   28   5.436   5.404   6.365
    1AU     AUC   29   4.854   4.470   5.515
    1AU     AUC   30   4.801   4.484   5.726
    1AU     AUC   31   4.852   4.738   5.861
    1AU     AUC   32   5.813   5.558   6.139
    1AU     AUC   33   5.693   5.341   6.139
    1AU     AUC   34   5.271   4.433   5.663
    1AU     AUC   35   5.220   4.659   5.793
    1AU     AUC   36   5.162   5.851   6.271
    1AU     AUC   37   5.122   5.688   6.256
    1AU     AUC   38   4.425   4.852   5.649
    1AU     AUC   39   4.426   5.090   5.765
    1AU     AUC   40   5.438   4.929   5.627
    1AU     AUC   41   5.578   5.230   5.758
    1AU     AUC   42   4.500   5.229   5.758
    1AU     AUC   43   4.830   5.619   5.924
    1AU     AUC   44   5.747   4.675   5.716
    1AU     AUC   45   6.039   5.019   5.866
    1AU     AUC   46   4.418   5.584   5.878
    1AU     AUC   47   4.693   5.804   6.252
    1AU     AUC   48   5.168   5.391   6.145
    1AU     AUC   49   5.300   5.290   6.125
    1AU     AUC   50   5.057   5.431   6.549
    1AU     AUC   51   5.592   5.031   6.355
    1AU     AUC   52   4.800   5.164   5.575
    1AU     AUC   53   5.056   4.945   5.852
    1AU     AUC   54   4.587   4.794   5.576
    1AU     AUC   55   5.271   4.527   5.436
    1AU    AUSL   56   5.991   4.928   6.269
    1AU    AUSL   57   5.926   5.588   6.448
    1AU     AUL   58   6.322   5.247   6.586
    1AU       S   59   6.263   5.704   6.450
    1AU     LIG   60   6.289   5.382   7.022
    1AU     LIG   61   6.004   4.992   7.343
    1AU     LIG   62   5.605   4.944   7.679
    1AU       S   63   6.482   5.012   6.156
    1AU     LIG   64   6.692   5.551   5.879
    1AU     LIG   65   6.614   5.888   5.614
    1AU     LIG   66   6.542   6.306   5.390
    1AU    AUSL   67   5.860   5.814   6.090
    1AU    AUSL   68   5.558   5.800   6.639
    1AU     AUL   69   5.891   6.044   6.460
    1AU       S   70   6.500   5.139   6.003
    1AU     LIG   71   6.429   4.723   5.144
    1AU     LIG   72   6.169   4.560   4.696
    1AU     LIG   73   5.846   4.510   4.289
    1AU       S   74   5.082   5.230   7.043
    1AU     LIG   75   4.380   4.973   6.781
    1AU     LIG   76   3.900   5.269   7.206
    1AU     LIG   77   3.800   5.747   7.237
    1AU    AUSL   78   5.879   5.205   6.564
    1AU    AUSL   79   5.738   5.192   6.028
    1AU     AUL   80   6.015   4.931   6.487
    1AU       S   81   6.417   4.783   6.310
    1AU     LIG   82   6.323   4.288   5.944
    1AU     LIG   83   6.028   4.002   5.541
    1AU     LIG   84   5.735   4.036   5.103
    1AU       S   85   4.297   4.836   5.162
    1AU     LIG   86   4.459   5.339   4.750
    1AU     LIG   87   4.777   5.759   4.619
    1AU     LIG   88   5.275   5.877   4.710
    1AU    AUSL   89   5.436   4.414   5.852
    1AU    AUSL   90   5.094   4.662   5.948
    1AU     AUL   91   5.512   4.396   6.033
    1AU       S   92   5.946   4.456   6.195
    1AU     LIG   93   6.122   5.227   5.260
    1AU     LIG   94   6.075   5.840   5.532
    1AU     LIG   95   5.748   6.195   5.844
    1AU       S   96   4.704   5.257   6.834
    1AU     LIG   97   4.309   5.967   6.840
    1AU     LIG   98   3.831   6.166   6.925
    1AU     LIG   99   3.433   6.202   6.596
    1AU    AUSL  100   5.081   4.224   5.698
    1AU    AUSL  101   5.855   4.407   5.764
    1AU     AUL  102   5.551   4.039   5.755
    1AU       S  103   5.303   4.020   6.124
    1AU     LIG  104   5.623   4.083   6.797
    1AU     LIG  105   6.018   4.395   6.782
    1AU     LIG  106   6.259   4.805   6.905
    1AU       S  107   5.794   4.074   6.136
    1AU     LIG  108   5.650   3.613   5.962
    1AU     LIG  109   5.327   3.258   5.971
    1AU     LIG  110   5.157   3.027   6.343
    1AU    AUSL  111   4.812   4.349   5.971
    1AU    AUSL  112   4.491   4.348   5.643
    1AU     AUL  113   4.606   4.109   5.881
    1AU       S  114   4.032   4.542   6.241
    1AU     LIG  115   3.389   4.503   6.191
    1AU     LIG  116   3.179   5.039   6.308
    1AU     LIG  117   3.203   5.555   6.491
    1AU       S  118   5.677   4.315   6.418
    1AU     LIG  119   5.747   4.807   6.878
    1AU     LIG  120   5.840   5.403   7.164
    1AU     LIG  121   5.682   5.900   7.263
    1AU    AUSL  122   5.141   5.781   6.368
    1AU    AUSL  123   5.498   5.388   6.556
    1AU     AUL  124   5.571   5.866   6.788
    1AU       S  125   5.110   5.172   6.970
    1AU     LIG  126   5.285   4.326   7.035
    1AU     LIG  127   5.408   3.903   7.215
    1AU     LIG  128   5.106   3.539   7.260
    1AU       S  129   5.244   4.751   6.956
    1AU     LIG  130   4.946   4.001   7.105
    1AU     LIG  131   4.866   3.564   6.780
    1AU     LIG  132   4.720   3.321   6.339
    1AU    AUSL  133   5.474   6.017   6.270
    1AU    AUSL  134   4.900   6.129   6.254
    1AU     AUL  135   5.243   6.280   6.277
    1AU       S  136   4.848   6.349   6.545
    1AU     LIG  137   4.609   6.538   6.127
    1AU     LIG  138   4.442   6.433   5.685
    1AU     LIG  139   4.230   6.498   5.262
    1AU       S  140   5.113   5.210   6.973
    1AU     LIG  141   4.848   4.375   6.856
    1AU     LIG  142   4.603   3.961   6.664
    1AU     LIG  143   4.325   3.624   6.420
    1AU    AUSL  144   4.196   4.876   5.853
    1AU    AUSL  145   4.507   4.740   5.514
    1AU     AUL  146   4.125   4.575   5.478
    1AU       S  147   4.138   4.625   6.310
    1AU     LIG  148   4.002   4.430   7.058
    1AU     LIG  149   4.493   4.575   7.358
    1AU     LIG  150   4.947   4.374   7.431
    1AU       S  151   4.044   5.088   6.291
    1AU     LIG  152   4.345   5.314   7.091
    1AU     LIG  153   4.778   5.274   7.399
    1AU     LIG  154   5.137   5.285   7.743
    1AU    AUSL  155   4.453   4.585   5.979
    1AU    AUSL  156   4.042   5.091   5.547
    1AU     AUL  157   3.999   4.816   5.875
    1AU       S  158   3.899   4.996   5.445
    1AU     LIG  159   3.646   4.907   6.215
    1AU     LIG  160   3.635   4.929   6.972
    1AU     LIG  161   3.728   4.753   7.415
    1AU       S  162   4.283   4.673   6.442
    1AU     LIG  163   4.153   4.861   7.157
    1AU     LIG  164   4.344   5.112   7.577
    1AU     LIG  165   4.645   5.428   7.861
    1AU    AUSL  166   5.520   5.459   5.392
    1AU    AUSL  167   5.508   5.001   5.278
    1AU     AUL  168   5.711   5.353   5.030
    1AU       S  169   5.493   5.026   5.235
    1AU     LIG  170   5.927   4.967   4.874
    1AU     LIG  171   5.972   5.299   4.579
    1AU     LIG  172   5.728   5.363   4.187
    1AU       S  173   5.353   5.571   5.271
    1AU     LIG  174   5.440   5.411   4.653
    1AU     LIG  175   5.244   5.584   4.290
    1AU     LIG  176   5.243   6.042   4.239
    1AU    AUSL  177   5.731   4.658   5.167
    1AU    AUSL  178   6.193   5.086   5.661
    1AU     AUL  179   6.214   4.449   5.481
    1AU       S  180   5.230   5.414   5.074
    1AU     LIG  181   5.400   4.913   4.785
    1AU     LIG  182   5.665   4.450   4.738
    1AU     LIG  183   5.923   4.047   4.622
    1AU       S  184   6.473   4.952   5.547
    1AU     LIG  185   6.584   5.161   5.055
    1AU     LIG  186   6.418   5.008   4.629
    1AU     LIG  187   6.104   4.940   4.254
    1AU    AUSL  188   5.781   5.194   5.572
    1AU    AUSL  189   5.207   5.213   5.465
    1AU     AUL  190   5.777   5.467   5.462
    1AU       S  191   4.292   4.812   5.119
    1AU     LIG  192   4.790   4.477   4.799
    1AU     LIG  193   4.866   4.087   4.970
    1AU     LIG  194   4.474   3.872   5.090
    1AU       S  195   4.469   4.969   6.167
    1AU     LIG  196   4.117   4.276   6.624
    1AU     LIG  197   3.577   4.320   6.826
    1AU     LIG  198   3.305   4.561   7.106
    1AU    AUSL  199   4.357   5.360   6.195
    1AU    AUSL  200   4.627   5.487   6.495
    1AU     AUL  201   4.334   5.362   6.545
    1AU       S  202   4.748   4.844   7.021
    1AU     LIG  203   4.479   4.154   7.124
    1AU     LIG  204   4.264   3.717   6.925
    1AU     LIG  205   3.852   3.596   6.604
    1AU       S  206   3.680   5.363   5.645
    1AU     LIG  207   3.568   4.705   5.805
    1AU     LIG  208   3.716   4.197   6.340
    1AU     LIG  209   3.853   3.965   6.915
    1AU    AUSL  210   4.139   5.539   5.557
    1AU    AUSL  211   4.369   5.227   5.340
    1AU     AUL  212   4.118   5.418   5.462
    1AU       S  213   3.682   5.509   5.370
    1AU     LIG  214   3.517   4.985   5.162
    1AU     LIG  215   3.839   4.694   4.868
    1AU     LIG  216   3.856   4.323   4.521
    1AU       S  217   3.954   5.176   5.089
    1AU     LIG  218   3.540   5.378   4.870
    1AU     LIG  219   3.413   5.801   5.059
    1AU     LIG  220   3.429   6.010   5.493
    1AU    AUSL  221   4.707   5.896   5.687
    1AU    AUSL  222   4.287   5.680   5.908
    1AU     AUL  223   4.327   5.948   5.620
    1AU       S  224   3.815   5.805   5.743
    1AU     LIG  225   3.891   5.690   4.960
    1AU     LIG  226   4.214   5.751   4.585
    1AU     LIG  227   4.507   5.538   4.260
    1AU       S  228   3.999   5.897   5.332
    1AU     LIG  229   4.181   6.126   4.926
    1AU     LIG  230   4.637   6.229   4.770
    1AU     LIG  231   5.077   6.299   4.954
    1AU    AUSL  232   6.108   4.755   5.887
    1AU    AUSL  233   6.030   5.478   5.837
    1AU     AUL  234   6.279   5.346   5.680
    1AU       S  235   6.495   4.711   5.777
    1AU     LIG  236   7.005   4.932   5.629
    1AU     LIG  237   7.445   5.215   5.878
    1AU     LIG  238   7.345   5.369   6.336
    1AU       S  239   6.310   5.695   6.072
    1AU     LIG  240   6.765   5.470   6.348
    1AU     LIG  241   6.996   5.211   6.017
    1AU     LIG  242   7.255   5.333   5.460
    1AU    AUSL  243   5.891   4.775   5.527
    1AU    AUSL  244   5.354   4.614   5.306
    1AU     AUL  245   6.041   4.803   5.378
    1AU       S  246   6.532   4.793   5.585
    1AU     LIG  247   6.770   5.330   5.476
    1AU     LIG  248   7.148   5.673   5.804
    1AU     LIG  249   7.202   5.845   6.267
    1AU       S  250   5.186   4.082   6.078
    1AU     LIG  251   4.201   4.092   6.210
    1AU     LIG  252   3.450   4.701   6.605
    1AU     LIG  253   3.264   5.045   7.220
    1AU    AUSL  254   4.366   5.764   6.321
    1AU    AUSL  255   4.054   5.305   5.915
    1AU     AUL  256   4.053   5.650   6.285
    1AU       S  257   3.901   5.306   6.044
    1AU     LIG  258   3.376   5.403   6.011
    1AU     LIG  259   3.050   5.481   5.674
    1AU     LIG  260   2.685   5.334   5.421
    1AU       S  261   3.699   5.786   6.046
    1AU     LIG  262   3.661   6.248   6.024
    1AU     LIG  263   4.034   6.577   5.945
    1AU     LIG  264   3.978   6.828   5.543
    1AU    AUSL  265   4.535   6.034   6.045
    1AU    AUSL  266   4.771   5.848   6.573
    1AU     AUL  267   4.459   6.145   6.389
    1AU       S  268   4.721   6.100   6.764
    1AU     LIG  269   4.070   5.599   6.851
    1AU     LIG  270   3.541   5.421   6.902
    1AU     LIG  271   3.106   5.168   6.785
    1AU       S  272   3.808   5.739   5.889
    1AU     LIG  273   3.645   5.331   6.424
    1AU     LIG  274   3.901   4.706   6.684
    1AU     LIG  275   4.414   4.534   6.866
    1AU    AUSL  276   5.277   5.267   6.231
    1AU    AUSL  277   4.717   5.077   6.477
    1AU     AUL  278   5.489   5.244   6.762
    1AU       S  279   4.958   4.754   7.071
    1AU     LIG  280   5.492   4.602   7.346
    1AU     LIG  281   5.822   4.234   7.236
    1AU     LIG  282   6.071   3.899   6.925
    1AU       S  283   4.902   4.263   6.397
    1AU     LIG  284   5.539   3.809   6.438
    1AU     LIG  285   6.017   3.737   6.410
    1AU     LIG  286   6.339   4.071   6.408
    1AU    AUSL  287   4.972   5.542   5.463
    1AU    AUSL  288   5.096   5.077   5.854
    1AU     AUL  289   5.044   5.043   5.124
    1AU       S  290   4.748   4.068   5.460
    1AU     LIG  291   4.137   4.096   5.419
    1AU     LIG  292   3.740   4.327   5.195
    1AU     LIG  293   3.471   4.160   4.856
    1AU       S  294   4.495   4.406   5.150
    1AU     LIG  295   4.103   4.140   4.925
    1AU     LIG  296   3.785   3.822   5.180
    1AU     LIG  297   3.516   3.766   5.583
    1AU    AUSL  298   5.018   4.960   6.241
    1AU    AUSL  299   5.250   4.992   6.558
    1AU     AUL  300   5.081   4.989   6.298
    1AU       S  301   4.116   4.368   5.846
    1AU     LIG  302   3.694   4.250   5.672
    1AU     LIG  303   3.339   4.570   5.414
    1AU     LIG  304   3.140   4.956   5.744
    1AU       S  305   4.560   4.313   6.355
    1AU     LIG  306   3.969   5.150   6.725
    1AU     LIG  307   3.718   5.776   6.600
    1AU     LIG  308   3.937   6.213   6.453
    1AU    AUSL  309   5.239   5.593   6.774
    1AU    AUSL  310   6.127   5.289   6.207
    1AU     AUL  311   5.910   5.578   6.742
    1AU       S  312   5.262   5.618   7.200
    1AU     LIG  313   4.654   5.711   7.196
    1AU     LIG  314   4.497   6.174   7.241
    1AU     LIG  315   4.521   6.526   6.927
    1AU       S  316   6.323   5.567   6.207
    1AU     LIG  317   6.243   6.152   6.119
    1AU     LIG  318   6.172   6.437   5.753
    1AU     LIG  319   5.776   6.649   5.600
    1AU    AUSL  320   5.020   5.329   6.547
    1AU    AUSL  321   5.182   6.020   6.679
    1AU     AUL  322   4.957   5.718   6.853
    1AU       S  323   5.400   5.508   7.193
    1AU     LIG  324   5.484   5.622   7.640
    1AU     LIG  325   5.816   5.396   7.698
    1AU     LIG  326   6.198   5.490   7.515
    1AU       S  327   5.033   6.214   6.772
    1AU     LIG  328   5.001   6.066   7.250
    1AU     LIG  329   4.673   5.908   7.640
    1AU     LIG  330   4.259   5.644   7.526
    1AU    AUSL  331   5.596   4.804   6.426
    1AU    AUSL  332   4.744   4.675   6.245
    1AU     AUL  333   4.927   4.729   6.611
    1AU       S  334   4.814   3.854   6.180
    1AU     LIG  335   5.152   3.558   6.320
    1AU     LIG  336   5.620   3.334   6.380
    1AU     LIG  337   5.933   3.379   6.753
    1AU       S  338   5.514   5.081   7.189
    1AU     LIG  339   5.097   4.858   7.514
    1AU     LIG  340   4.713   4.603   7.807
    1AU     LIG  341   4.388   4.216   7.683
    1AU    AUSL  342   4.761   4.886   5.903
    1AU    AUSL  343   5.250   4.592   6.304
    1AU     AUL  344   5.127   4.550   6.170
    1AU       S  345   4.466   4.380   5.205
    1AU     LIG  346   4.434   3.753   5.559
    1AU     LIG  347   4.674   3.347   5.608
    1AU     LIG  348   4.838   2.896   5.609
    1AU       S  349   5.299   4.521   6.553
    1AU     LIG  350   5.160   3.986   6.669
    1AU     LIG  351   5.374   3.549   6.819
    1AU     LIG  352   5.489   3.080   6.784
    1AU    AUSL  353   4.770   5.401   5.144
    1AU    AUSL  354   4.743   5.133   5.433
    1AU     AUL  355   4.565   5.176   5.233
    1AU       S  356   4.625   4.907   4.805
    1AU     LIG  357   4.946   5.312   4.705
    1AU     LIG  358   4.961   5.824   5.072
    1AU     LIG  359   5.181   5.970   5.540
    1AU       S  360   4.087   5.242   5.010
    1AU     LIG  361   4.375   5.688   5.084
    1AU     LIG  362   4.586   6.101   5.246
    1AU     LIG  363   4.746   6.538   5.276
    1AU    AUSL  364   4.909   4.468   5.285
    1AU    AUSL  365   4.555   5.539   5.503
    1AU     AUL  366   4.727   4.773   5.209
    1AU       S  367   4.092   6.032   6.042
    1AU     LIG  368   3.896   6.279   5.588
    1AU     LIG  369   3.713   6.224   5.122
    1AU     LIG  370   3.645   6.063   4.687
    1AU       S  371   4.946   3.789   5.746
    1AU     LIG  372   4.891   3.638   5.239
    1AU     LIG  373   4.744   3.662   4.740
    1AU     LIG  374   4.508   4.073   4.614
    1AU    AUSL  375   5.610   4.337   5.457
    1AU    AUSL  376   5.221   4.183   5.312
    1AU     AUL  377   5.311   4.343   5.046
    1AU       S  378   5.172   3.734   5.777
    1AU     LIG  379   5.229   3.379   5.503
    1AU     LIG  380   5.574   3.074   5.503
    1AU     LIG  381   5.686   2.680   5.285
    1AU       S  382   5.283   3.957   5.406
    1AU     LIG  383   5.656   3.646   5.413
    1AU     LIG  384   5.920   3.553   5.010
    1AU     LIG  385   5.945   3.328   4.587
    2POPC   NC3  386   3.510   1.395   8.111
    2POPC   PO4  387   3.087   0.803   8.207
    2POPC   GL1  388   3.269   0.828   7.774
    2POPC   GL2  389   3.553   1.041   7.719
    2POPC   C1A  390   3.120   0.870   7.327
    2POPC   D2A  391   3.082   0.910   6.867
    2POPC   C3A  392   3.373   0.957   6.495
    2POPC   C4A  393   3.314   0.889   6.035
    2POPC   C1B  394   3.459   1.260   7.328
    2POPC   C2B  395   3.405   1.332   6.874
    2POPC   C3B  396   3.669   1.364   6.512
    2POPC   C4B  397   3.749   1.121   6.155
    3POPC   NC3  398   7.283   0.328   8.120
    3POPC   PO4  399   7.861   9.946   8.004
    3POPC   GL1  400   7.570   0.190   7.720
    3POPC   GL2  401   7.397   0.544   7.678
    3POPC   C1A  402   7.409   0.166   7.315
    3POPC   D2A  403   7.551   0.416   6.958
    3POPC   C3A  404   7.379   0.377   6.546
    3POPC   C4A  405   7.404   0.095   6.177
    3POPC   C1B  406   7.184   0.635   7.294
    3POPC   C2B  407   7.243   0.791   6.893
    3POPC   C3B  408   7.132   0.859   6.463
    3POPC   C4B  409   7.286   0.735   6.067
    4POPC   NC3  410   1.110   1.424   8.137
    4POPC   PO4  411   0.727   0.814   8.070
    4POPC   GL1  412   0.866   1.126   7.774
    4POPC   GL2  413   1.203   1.027   7.820
    4POPC   C1A  414   1.128   1.306   7.400
    4POPC   D2A  415   1.374   1.419   7.003
    4POPC   C3A  416   1.212   1.316   6.575
    4POPC   C4A  417   0.999   1.446   6.169
    4POPC   C1B  418   1.325   0.826   7.464
    4POPC   C2B  419   1.274   0.908   7.051
    4POPC   C3B  420   1.469   0.794   6.676
    4POPC   C4B  421   1.368   0.938   6.285
    5POPC   NC3  422   0.675   5.122   8.057
    5POPC   PO4  423   0.113   4.638   7.931
    5POPC   GL1  424   0.492   4.779   7.640
    5POPC   GL2  425   0.632   5.127   7.570
    5POPC   C1A  426   0.636   4.850   7.166
    5POPC   D2A  427   0.494   5.029   6.751
    5POPC   C3A  428   0.730   4.963   6.361
    5POPC   C4A  429   0.742   4.857   5.923
    5POPC   C1B  430   0.368   5.286   7.243
    5POPC   C2B  431   0.049   5.370   6.980
    5POPC   C3B  432   0.052   5.356   6.557
    5POPC   C4B  433   0.231   5.061   6.262
    6POPC   NC3  434   6.276   7.535   8.605
    6POPC   PO4  435   5.737   7.722   8.154
    6POPC   GL1  436   5.640   8.003   7.726
    6POPC   GL2  437   5.663   8.374   7.765
    6POPC   C1A  438   5.712   8.015   7.240
    6POPC   D2A  439   5.556   7.956   6.792
    6POPC   C3A  440   5.898   7.859   6.474
    6POPC   C4A  441   6.322   7.615   6.439
    6POPC   C1B  442   5.457   8.446   7.365
    6POPC   C2B  443   5.635   8.423   6.932
    6POPC   C3B  444   5.682   8.329   6.451
    6POPC   C4B  445   5.666   8.394   5.969
    7POPC   NC3  446   0.331   8.145   8.213
    7POPC   PO4  447   0.867   7.698   8.111
    7POPC   GL1  448   0.488   7.891   7.807
    7POPC   GL2  449   0.393   8.292   7.731
    7POPC   C1A  450   0.224   7.919   7.417
    7POPC   D2A  451   0.404   7.877   6.993
    7POPC   C3A  452   0.142   7.948   6.617
    7POPC   C4A  453   0.164   7.769   6.190
    7POPC   C1B  454   0.544   8.298   7.276
    7POPC   C2B  455   0.460   8.341   6.803
    7POPC   C3B  456   0.576   8.162   6.403
    7POPC   C4B  457   0.866   8.307   6.050
    8POPC   NC3  458   8.556   6.415   8.134
    8POPC   PO4  459   9.236   6.304   8.322
    8POPC   GL1  460   9.044   6.399   7.902
    8POPC   GL2  461   8.969   6.715   7.768
    8POPC   C1A  462   8.936   6.334   7.439
    8POPC   D2A  463   8.661   6.494   7.087
    8POPC   C3A  464   8.736   6.552   6.643
    8POPC   C4A  465   9.011   6.393   6.325
    8POPC   C1B  466   8.931   6.871   7.309
    8POPC   C2B  467   9.103   6.901   6.857
    8POPC   C3B  468   8.930   6.985   6.451
    8POPC   C4B  469   8.713   6.810   6.106
    9POPC   NC3  470   2.576   6.266   8.095
    9POPC   PO4  471   2.697   6.895   8.218
    9POPC   GL1  472   2.583   6.691   7.802
    9POPC   GL2  473   2.844   6.464   7.698
    9POPC   C1A  474   2.436   6.656   7.357
    9POPC   D2A  475   2.528   6.520   6.934
    9POPC   C3A  476   2.421   6.759   6.593
    9POPC   C4A  477   2.594   6.907   6.202
    9POPC   C1B  478   2.950   6.654   7.287
    9POPC   C2B  479   3.048   6.747   6.863
    9POPC   C3B  480   2.897   6.629   6.481
    9POPC   C4B  481   2.784   6.443   6.059
   10POPC   NC3  482   7.541   9.602   7.976
   10POPC   PO4  483   6.957   9.905   8.125
   10POPC   GL1  484   7.153   9.843   7.698
   10POPC   GL2  485   7.193   9.473   7.626
   10POPC   C1A  486   7.032   9.801   7.252
   10POPC   D2A  487   7.131   0.073   6.891
   10POPC   C3A  488   7.065   9.921   6.512
   10POPC   C4A  489   6.849   9.963   6.137
   10POPC   C1B  490   7.492   9.600   7.290
   10POPC   C2B  491   7.345   9.592   6.855
   10POPC   C3B  492   7.448   9.561   6.419
   10POPC   C4B  493   7.674   9.669   6.008
   11POPC   NC3  494   7.951   4.820   8.112
   11POPC   PO4  495   8.021   4.182   8.362
   11POPC   GL1  496   8.160   4.321   7.892
   11POPC   GL2  497   8.484   4.367   7.773
   11POPC   C1A  498   8.154   4.207   7.404
   11POPC   D2A  499   8.199   3.973   6.982
   11POPC   C3A  500   8.131   4.187   6.561
   11POPC   C4A  501   7.857   4.228   6.155
   11POPC   C1B  502   8.557   4.538   7.348
   11POPC   C2B  503   8.571   4.356   6.919
   11POPC   C3B  504   8.585   4.499   6.481
   11POPC   C4B  505   8.320   4.515   6.125
   12POPC   NC3  506   3.348   2.066   8.117
   12POPC   PO4  507   3.794   2.535   8.125
   12POPC   GL1  508   3.696   2.241   7.792
   12POPC   GL2  509   3.600   1.882   7.679
   12POPC   C1A  510   3.525   2.331   7.403
   12POPC   D2A  511   3.380   2.463   7.020
   12POPC   C3A  512   3.215   2.159   6.769
   12POPC   C4A  513   3.332   2.198   6.347
   12POPC   C1B  514   3.756   1.700   7.245
   12POPC   C2B  515   3.958   1.689   6.802
   12POPC   C3B  516   3.698   1.858   6.455
   12POPC   C4B  517   3.263   1.720   6.487
   13POPC   NC3  518   9.230   5.941   8.046
   13POPC   PO4  519   9.506   5.358   8.143
   13POPC   GL1  520   9.222   5.460   7.834
   13POPC   GL2  521   9.442   5.686   7.654
   13POPC   C1A  522   8.959   5.509   7.463
   13POPC   D2A  523   9.000   5.334   7.042
   13POPC   C3A  524   9.072   5.628   6.698
   13POPC   C4A  525   9.062   5.853   6.302
   13POPC   C1B  526   9.266   5.852   7.248
   13POPC   C2B  527   8.860   5.964   7.067
   13POPC   C3B  528   8.724   6.039   6.646
   13POPC   C4B  529   8.552   6.015   6.256
   14POPC   NC3  530   2.000   4.408   8.304
   14POPC   PO4  531   1.419   4.248   8.015
   14POPC   GL1  532   1.724   4.321   7.740
   14POPC   GL2  533   1.915   4.608   7.817
   14POPC   C1A  534   1.721   4.363   7.291
   14POPC   D2A  535   1.689   4.123   6.889
   14POPC   C3A  536   1.740   4.373   6.521
   14POPC   C4A  537   1.765   4.214   6.092
   14POPC   C1B  538   2.183   4.347   7.529
   14POPC   C2B  539   2.158   4.117   7.107
   14POPC   C3B  540   2.156   4.093   6.621
   14POPC   C4B  541   2.202   4.410   6.264
   15POPC   NC3  542   4.354   9.059   8.091
   15POPC   PO4  543   3.887   8.558   8.204
   15POPC   GL1  544   3.891   8.765   7.736
   15POPC   GL2  545   4.013   9.115   7.675
   15POPC   C1A  546   3.760   8.912   7.268
   15POPC   D2A  547   3.975   8.794   6.855
   15POPC   C3A  548   4.117   9.041   6.494
   15POPC   C4A  549   4.191   9.215   6.034
   15POPC   C1B  550   4.246   8.848   7.332
   15POPC   C2B  551   4.509   8.635   7.057
   15POPC   C3B  552   4.546   8.851   6.677
   15POPC   C4B  553   4.470   8.791   6.213
   16POPC   NC3  554   0.345   1.156   7.927
   16POPC   PO4  555   0.690   1.660   8.066
   16POPC   GL1  556   0.458   1.611   7.668
   16POPC   GL2  557   0.160   1.411   7.543
   16POPC   C1A  558   0.623   1.387   7.292
   16POPC   D2A  559   0.884   1.224   6.950
   16POPC   C3A  560   0.711   1.168   6.523
   16POPC   C4A  561   0.445   1.465   6.306
   16POPC   C1B  562   0.247   1.013   7.298
   16POPC   C2B  563   0.371   1.119   6.904
   16POPC   C3B  564   0.183   1.090   6.518
   16POPC   C4B  565   0.199   0.994   6.079
   17POPC   NC3  566   7.945   5.757   8.060
   17POPC   PO4  567   8.623   5.885   8.043
   17POPC   GL1  568   8.342   5.789   7.729
   17POPC   GL2  569   8.186   6.150   7.811
   17POPC   C1A  570   8.487   5.652   7.288
   17POPC   D2A  571   8.584   5.576   6.845
   17POPC   C3A  572   8.277   5.708   6.552
   17POPC   C4A  573   8.179   5.652   6.108
   17POPC   C1B  574   8.442   6.159   7.407
   17POPC   C2B  575   8.342   6.060   6.972
   17POPC   C3B  576   8.189   6.211   6.562
   17POPC   C4B  577   7.975   6.114   6.158
   18POPC   NC3  578   5.756   0.427   8.300
   18POPC   PO4  579   6.232   9.935   8.321
   18POPC   GL1  580   6.061   0.311   7.905
   18POPC   GL2  581   5.758   0.547   7.818
   18POPC   C1A  582   5.884   0.273   7.423
   18POPC   D2A  583   6.009   0.009   7.067
   18POPC   C3A  584   6.083   0.104   6.636
   18POPC   C4A  585   5.896   0.031   6.265
   18POPC   C1B  586   5.557   0.670   7.411
   18POPC   C2B  587   5.763   0.739   7.010
   18POPC   C3B  588   5.762   0.515   6.604
   18POPC   C4B  589   5.964   0.539   6.212
   19POPC   NC3  590   9.539   6.588   8.092
   19POPC   PO4  591   0.222   6.254   8.161
   19POPC   GL1  592   9.959   6.482   7.796
   19POPC   GL2  593   9.837   6.783   7.720
   19POPC   C1A  594   9.817   6.528   7.282
   19POPC   D2A  595   9.891   6.424   6.817
   19POPC   C3A  596   9.868   6.567   6.350
   19POPC   C4A  597   9.940   6.371   5.866
   19POPC   C1B  598   9.420   6.780   7.473
   19POPC   C2B  599   9.308   6.506   7.107
   19POPC   C3B  600   9.403   6.533   6.646
   19POPC   C4B  601   9.386   6.840   6.313
   20POPC   NC3  602   9.628   0.915   8.491
   20POPC   PO4  603   9.964   1.398   8.063
   20POPC   GL1  604   9.682   1.326   7.714
   20POPC   GL2  605   9.345   1.300   7.839
   20POPC   C1A  606   9.753   1.204   7.281
   20POPC   D2A  607   9.851   0.955   6.909
   20POPC   C3A  608   9.688   1.100   6.485
   20POPC   C4A  609   9.731   0.803   6.151
   20POPC   C1B  610   9.251   1.166   7.410
   20POPC   C2B  611   9.345   1.145   6.937
   20POPC   C3B  612   9.389   1.492   6.604
   20POPC   C4B  613   9.456   1.573   6.149
   21POPC   NC3  614   1.946   8.071   8.038
   21POPC   PO4  615   2.392   7.541   8.034
   21POPC   GL1  616   2.226   7.777   7.644
   21POPC   GL2  617   1.900   8.029   7.539
   21POPC   C1A  618   2.284   7.935   7.231
   21POPC   D2A  619   2.092   7.878   6.846
   21POPC   C3A  620   2.365   7.980   6.509
   21POPC   C4A  621   2.465   8.059   6.067
   21POPC   C1B  622   1.543   8.310   7.366
   21POPC   C2B  623   1.412   8.307   6.915
   21POPC   C3B  624   1.714   8.147   6.594
   21POPC   C4B  625   1.994   8.197   6.243
   22POPC   NC3  626   4.167   1.496   8.177
   22POPC   PO4  627   4.718   1.099   8.378
   22POPC   GL1  628   4.607   1.353   7.946
   22POPC   GL2  629   4.291   1.192   7.797
   22POPC   C1A  630   4.614   1.309   7.419
   22POPC   D2A  631   4.398   1.196   6.968
   22POPC   C3A  632   4.563   0.993   6.541
   22POPC   C4A  633   4.574   1.129   6.062
   22POPC   C1B  634   3.977   1.285   7.481
   22POPC   C2B  635   3.883   1.221   7.030
   22POPC   C3B  636   3.977   0.979   6.647
   22POPC   C4B  637   4.178   1.275   6.351
   23POPC   NC3  638   7.702   6.994   8.048
   23POPC   PO4  639   8.295   7.480   8.101
   23POPC   GL1  640   8.011   7.304   7.802
   23POPC   GL2  641   8.230   7.345   7.603
   23POPC   C1A  642   7.891   7.107   7.349
   23POPC   D2A  643   8.108   7.153   6.921
   23POPC   C3A  644   7.934   7.149   6.489
   23POPC   C4A  645   7.708   7.021   6.130
   23POPC   C1B  646   8.208   7.582   7.253
   23POPC   C2B  647   8.424   7.625   6.876
   23POPC   C3B  648   8.312   7.656   6.438
   23POPC   C4B  649   8.235   7.437   6.043
   24POPC   NC3  650   9.224   3.512   8.022
   24POPC   PO4  651   8.741   3.967   8.011
   24POPC   GL1  652   8.894   3.691   7.685
   24POPC   GL2  653   8.838   3.292   7.765
   24POPC   C1A  654   9.135   3.785   7.326
   24POPC   D2A  655   9.331   3.605   6.961
   24POPC   C3A  656   9.079   3.739   6.619
   24POPC   C4A  657   8.859   3.584   6.279
   24POPC   C1B  658   9.063   3.295   7.368
   24POPC   C2B  659   8.894   3.333   6.941
   24POPC   C3B  660   9.008   3.171   6.530
   24POPC   C4B  661   8.782   3.088   6.110
   25POPC   NC3  662   0.202   1.791   8.138
   25POPC   PO4  663   0.470   2.234   8.444
   25POPC   GL1  664   0.410   2.137   7.860
   25POPC   GL2  665   0.698   2.070   7.653
   25POPC   C1A  666   0.205   2.093   7.434
   25POPC   D2A  667   9.960   2.178   7.032
   25POPC   C3A  668   0.129   1.997   6.647
   25POPC   C4A  669   0.186   2.009   6.192
   25POPC   C1B  670   0.643   1.937   7.227
   25POPC   C2B  671   0.616   2.101   6.805
   25POPC   C3B  672   0.663   1.960   6.384
   25POPC   C4B  673   0.584   1.783   5.950
   26POPC   NC3  674   9.865   4.350   8.191
   26POPC   PO4  675   9.366   4.724   7.875
   26POPC   GL1  676   9.703   4.520   7.664
   26POPC   GL2  677   9.797   4.143   7.727
   26POPC   C1A  678   9.690   4.630   7.232
   26POPC   D2A  679   9.432   4.613   6.854
   26POPC   C3A  680   9.581   4.497   6.448
   26POPC   C4A  681   9.557   4.673   6.033
   26POPC   C1B  682   9.904   4.184   7.296
   26POPC   C2B  683   9.928   4.365   6.865
   26POPC   C3B  684   0.024   4.171   6.485
   26POPC   C4B  685   9.909   3.800   6.235
   27POPC   NC3  686   7.306   0.968   8.097
   27POPC   PO4  687   7.716   1.422   7.784
   27POPC   GL1  688   7.274   1.358   7.646
   27POPC   GL2  689   7.119   1.028   7.636
   27POPC   C1A  690   7.157   1.285   7.197
   27POPC   D2A  691   7.353   1.270   6.774
   27POPC   C3A  692   7.053   1.358   6.439
   27POPC   C4A  693   7.034   1.176   5.995
   27POPC   C1B  694   7.535   0.976   7.372
   27POPC   C2B  695   7.745   0.938   6.970
   27POPC   C3B  696   7.632   0.874   6.543
   27POPC   C4B  697   7.498   1.209   6.254
   28POPC   NC3  698   9.283   4.964   8.256
   28POPC   PO4  699   8.610   4.926   8.045
   28POPC   GL1  700   8.889   4.755   7.681
   28POPC   GL2  701   9.104   5.027   7.557
   28POPC   C1A  702   9.060   4.615   7.243
   28POPC   D2A  703   8.922   4.736   6.811
   28POPC   C3A  704   9.117   4.779   6.373
   28POPC   C4A  705   9.103   4.789   5.887
   28POPC   C1B  706   8.680   5.072   7.370
   28POPC   C2B  707   8.538   5.057   6.975
   28POPC   C3B  708   8.764   5.164   6.586
   28POPC   C4B  709   8.676   5.496   6.299
   29POPC   NC3  710   6.010   8.861   8.390
   29POPC   PO4  711   5.484   9.278   8.233
   29POPC   GL1  712   5.707   9.239   7.834
   29POPC   GL2  713   5.857   8.898   7.804
   29POPC   C1A  714   5.778   9.210   7.393
   29POPC   D2A  715   5.974   9.127   6.996
   29POPC   C3A  716   5.734   9.187   6.613
   29POPC   C4A  717   5.410   9.146   6.297
   29POPC   C1B  718   5.922   8.692   7.393
   29POPC   C2B  719   6.145   8.640   7.016
   29POPC   C3B  720   5.940   8.718   6.656
   29POPC   C4B  721   5.767   8.793   6.268
   30POPC   NC3  722   5.036   8.889   8.167
   30POPC   PO4  723   4.447   8.662   7.889
   30POPC   GL1  724   4.851   8.748   7.687
   30POPC   GL2  725   4.918   9.130   7.693
   30POPC   C1A  726   4.955   8.825   7.247
   30POPC   D2A  727   4.818   9.231   7.101
   30POPC   C3A  728   4.856   9.267   6.680
   30POPC   C4A  729   4.949   8.935   6.403
   30POPC   C1B  730   5.348   8.963   7.534
   30POPC   C2B  731   5.514   8.881   7.085
   30POPC   C3B  732   5.389   8.760   6.645
   30POPC   C4B  733   5.280   8.612   6.221
   31POPC   NC3  734   5.889   9.666   8.088
   31POPC   PO4  735   5.384   0.079   8.283
   31POPC   GL1  736   5.623   0.031   7.827
   31POPC   GL2  737   5.767   9.731   7.577
   31POPC   C1A  738   5.410   0.061   7.396
   31POPC   D2A  739   5.542   0.241   6.990
   31POPC   C3A  740   5.493   9.988   6.590
   31POPC   C4A  741   5.579   9.633   6.289
   31POPC   C1B  742   6.123   9.553   7.257
   31POPC   C2B  743   6.262   9.569   6.831
   31POPC   C3B  744   6.050   9.553   6.428
   31POPC   C4B  745   5.894   9.263   6.101
   32POPC   NC3  746   7.168   2.436   8.157
   32POPC   PO4  747   7.246   3.103   8.149
   32POPC   GL1  748   7.257   2.782   7.810
   32POPC   GL2  749   7.513   2.831   7.604
   32POPC   C1A  750   7.091   2.554   7.451
   32POPC   D2A  751   7.266   2.680   7.070
   32POPC   C3A  752   7.137   2.675   6.644
   32POPC   C4A  753   7.200   2.993   6.317
   32POPC   C1B  754   7.795   2.724   7.288
   32POPC   C2B  755   7.740   2.566   6.899
   32POPC   C3B  756   7.623   2.720   6.490
   32POPC   C4B  757   7.645   2.895   6.073
   33POPC   NC3  758   8.984   9.262   8.354
   33POPC   PO4  759   9.217   8.565   8.255
   33POPC   GL1  760   9.070   8.803   7.863
   33POPC   GL2  761   8.718   8.815   7.995
   33POPC   C1A  762   9.106   8.948   7.370
   33POPC   D2A  763   9.169   8.754   6.966
   33POPC   C3A  764   9.149   9.011   6.616
   33POPC   C4A  765   8.959   8.979   6.252
   33POPC   C1B  766   8.618   8.871   7.550
   33POPC   C2B  767   8.682   8.894   7.080
   33POPC   C3B  768   8.696   8.740   6.640
   33POPC   C4B  769   8.457   8.667   6.242
   34POPC   NC3  770   5.049   0.393   8.168
   34POPC   PO4  771   4.653   0.864   7.897
   34POPC   GL1  772   4.901   0.564   7.671
   34POPC   GL2  773   4.796   0.209   7.633
   34POPC   C1A  774   5.082   0.492   7.255
   34POPC   D2A  775   5.267   0.657   6.875
   34POPC   C3A  776   5.045   0.585   6.482
   34POPC   C4A  777   5.085   0.545   6.012
   34POPC   C1B  778   4.739   0.110   7.177
   34POPC   C2B  779   5.044   0.183   6.803
   34POPC   C3B  780   5.059   0.096   6.312
   34POPC   C4B  781   4.873   0.106   5.845
   35POPC   NC3  782   0.314   6.764   8.217
   35POPC   PO4  783   0.864   6.614   8.108
   35POPC   GL1  784   0.783   6.450   7.718
   35POPC   GL2  785   0.466   6.499   7.784
   35POPC   C1A  786   0.745   6.652   7.327
   35POPC   D2A  787   0.753   6.931   6.970
   35POPC   C3A  788   0.789   6.695   6.597
   35POPC   C4A  789   0.630   6.748   6.179
   35POPC   C1B  790   0.289   6.462   7.409
   35POPC   C2B  791   0.432   6.429   6.969
   35POPC   C3B  792   0.332   6.473   6.543
   35POPC   C4B  793   0.204   6.171   6.248
   36POPC   NC3  794   7.601   8.616   7.946
   36POPC   PO4  795   7.831   9.244   8.054
   36POPC   GL1  796   7.542   9.095   7.742
   36POPC   GL2  797   7.205   8.978   7.871
   36POPC   C1A  798   7.600   9.086   7.288
   36POPC   D2A  799   7.835   9.113   6.894
   36POPC   C3A  800   7.638   9.020   6.499
   36POPC   C4A  801   7.528   9.177   6.067
   36POPC   C1B  802   7.210   8.790   7.458
   36POPC   C2B  803   7.296   8.706   7.033
   36POPC   C3B  804   7.032   8.684   6.672
   36POPC   C4B  805   7.209   8.824   6.295
   37POPC   NC3  806   1.984   8.719   8.118
   37POPC   PO4  807   2.309   8.241   7.808
   37POPC   GL1  808   1.993   8.536   7.648
   37POPC   GL2  809   2.045   8.933   7.662
   37POPC   C1A  810   1.917   8.652   7.238
   37POPC   D2A  811   2.036   8.966   6.970
   37POPC   C3A  812   2.037   8.777   6.577
   37POPC   C4A  813   1.703   8.638   6.298
   37POPC   C1B  814   2.198   9.293   7.367
   37POPC   C2B  815   2.409   9.315   6.939
   37POPC   C3B  816   2.229   9.266   6.526
   37POPC   C4B  817   1.930   9.114   6.210
   38POPC   NC3  818   0.705   6.192   8.150
   38POPC   PO4  819   0.472   5.569   7.989
   38POPC   GL1  820   0.500   5.967   7.755
   38POPC   GL2  821   0.845   5.918   7.715
   38POPC   C1A  822   0.565   6.062   7.319
   38POPC   D2A  823   0.436   5.761   6.982
   38POPC   C3A  824   0.511   5.962   6.594
   38POPC   C4A  825   0.727   6.240   6.288
   38POPC   C1B  826   0.727   5.601   7.384
   38POPC   C2B  827   0.796   5.391   6.984
   38POPC   C3B  828   0.672   5.460   6.536
   38POPC   C4B  829   0.356   5.618   6.232
   39POPC   NC3  830   2.133   7.162   8.130
   39POPC   PO4  831   1.553   7.662   8.115
   39POPC   GL1  832   1.751   7.572   7.695
   39POPC   GL2  833   1.998   7.320   7.669
   39POPC   C1A  834   1.905   7.582   7.230
   39POPC   D2A  835   1.788   7.437   6.780
   39POPC   C3A  836   1.982   7.655   6.409
   39POPC   C4A  837   2.033   7.627   5.961
   39POPC   C1B  838   2.242   7.188   7.323
   39POPC   C2B  839   2.156   7.087   6.895
   39POPC   C3B  840   2.249   7.222   6.474
   39POPC   C4B  841   2.225   7.164   6.004
   40POPC   NC3  842   6.533   0.120   7.994
   40POPC   PO4  843   6.976   0.657   7.977
   40POPC   GL1  844   6.925   0.316   7.705
   40POPC   GL2  845   6.612   0.485   7.641
   40POPC   C1A  846   6.858   0.269   7.263
   40POPC   D2A  847   6.780   0.546   6.904
   40POPC   C3A  848   6.874   0.422   6.452
   40POPC   C4A  849   6.749   0.684   6.107
   40POPC   C1B  850   6.365   0.345   7.329
   40POPC   C2B  851   6.218   0.480   6.950
   40POPC   C3B  852   6.380   0.562   6.553
   40POPC   C4B  853   6.407   0.285   6.238
   41POPC   NC3  854   8.897   7.355   8.120
   41POPC   PO4  855   8.450   6.861   8.167
   41POPC   GL1  856   8.644   7.098   7.750
   41POPC   GL2  857   9.037   7.253   7.640
   41POPC   C1A  858   8.659   7.339   7.329
   41POPC   D2A  859   8.956   7.354   7.020
   41POPC   C3A  860   8.828   7.442   6.638
   41POPC   C4A  861   8.745   7.493   6.211
   41POPC   C1B  862   9.208   7.627   7.352
   41POPC   C2B  863   9.369   7.672   6.886
   41POPC   C3B  864   9.199   7.718   6.424
   41POPC   C4B  865   9.246   7.713   5.940
   42POPC   NC3  866   2.424   3.715   8.150
   42POPC   PO4  867   1.820   3.991   8.352
   42POPC   GL1  868   1.799   3.833   7.903
   42POPC   GL2  869   1.950   3.490   7.787
   42POPC   C1A  870   1.768   3.862   7.449
   42POPC   D2A  871   2.036   3.623   7.165
   42POPC   C3A  872   1.912   3.646   6.728
   42POPC   C4A  873   1.654   3.827   6.406
   42POPC   C1B  874   1.707   3.318   7.414
   42POPC   C2B  875   1.574   3.180   6.984
   42POPC   C3B  876   1.733   3.179   6.537
   42POPC   C4B  877   2.016   3.415   6.260
   43POPC   NC3  878   1.022   3.077   8.071
   43POPC   PO4  879   0.742   2.501   7.942
   43POPC   GL1  880   0.968   2.752   7.665
   43POPC   GL2  881   1.329   2.774   7.752
   43POPC   C1A  882   0.896   2.750   7.246
   43POPC   D2A  883   0.793   2.575   6.873
   43POPC   C3A  884   0.951   2.789   6.551
   43POPC   C4A  885   1.068   2.674   6.123
   43POPC   C1B  886   1.535   2.754   7.338
   43POPC   C2B  887   1.328   2.713   6.936
   43POPC   C3B  888   1.465   2.690   6.521
   43POPC   C4B  889   1.468   2.957   6.172
   44POPC   NC3  890   9.412   1.870   7.907
   44POPC   PO4  891   9.967   2.256   8.051
   44POPC   GL1  892   9.764   2.168   7.671
   44POPC   GL2  893   9.888   1.815   7.712
   44POPC   C1A  894   9.515   2.263   7.275
   44POPC   D2A  895   9.520   2.485   6.852
   44POPC   C3A  896   9.852   2.416   6.494
   44POPC   C4A  897   9.777   2.279   5.997
   44POPC   C1B  898   9.834   1.723   7.261
   44POPC   C2B  899   9.885   1.471   6.846
   44POPC   C3B  900   9.917   1.568   6.402
   44POPC   C4B  901   9.693   1.955   6.365
   45POPC   NC3  902   0.327   2.552   8.156
   45POPC   PO4  903   0.498   3.178   8.101
   45POPC   GL1  904   0.363   2.921   7.729
   45POPC   GL2  905   0.131   2.611   7.687
   45POPC   C1A  906   0.245   3.031   7.295
   45POPC   D2A  907   0.527   2.998   6.947
   45POPC   C3A  908   0.519   3.065   6.516
   45POPC   C4A  909   0.588   2.805   6.172
   45POPC   C1B  910   0.397   2.547   7.296
   45POPC   C2B  911   0.281   2.536   6.851
   45POPC   C3B  912   0.384   2.425   6.437
   45POPC   C4B  913   0.217   2.510   6.012
   46POPC   NC3  914   8.142   7.134   8.348
   46POPC   PO4  915   7.891   6.565   8.069
   46POPC   GL1  916   8.150   6.822   7.758
   46POPC   GL2  917   8.436   6.606   7.687
   46POPC   C1A  918   8.371   6.920   7.309
   46POPC   D2A  919   8.599   6.999   6.891
   46POPC   C3A  920   8.442   7.149   6.460
   46POPC   C4A  921   8.225   6.945   6.086
   46POPC   C1B  922   8.068   6.507   7.392
   46POPC   C2B  923   8.173   6.565   6.978
   46POPC   C3B  924   8.241   6.716   6.592
   46POPC   C4B  925   7.933   6.604   6.328
   47POPC   NC3  926   5.010   1.459   8.382
   47POPC   PO4  927   4.505   1.832   8.147
   47POPC   GL1  928   4.766   1.825   7.809
   47POPC   GL2  929   5.069   1.825   8.000
   47POPC   C1A  930   4.773   1.804   7.346
   47POPC   D2A  931   5.000   1.934   6.947
   47POPC   C3A  932   4.773   2.097   6.582
   47POPC   C4A  933   4.911   2.417   6.296
   47POPC   C1B  934   5.230   1.954   7.572
   47POPC   C2B  935   5.455   2.088   7.187
   47POPC   C3B  936   5.441   2.138   6.724
   47POPC   C4B  937   5.219   1.943   6.385
   48POPC   NC3  938   2.650   4.570   7.986
   48POPC   PO4  939   2.753   5.224   8.091
   48POPC   GL1  940   2.658   5.258   7.640
   48POPC   GL2  941   2.640   4.903   7.540
   48POPC   C1A  942   2.727   5.300   7.169
   48POPC   D2A  943   2.579   5.083   6.793
   48POPC   C3A  944   2.653   5.046   6.349
   48POPC   C4A  945   2.633   5.089   5.881
   48POPC   C1B  946   2.837   4.794   7.124
   48POPC   C2B  947   2.933   4.702   6.667
   48POPC   C3B  948   2.914   4.630   6.211
   48POPC   C4B  949   3.047   4.447   5.802
   49POPC   NC3  950   4.315   2.270   8.177
   49POPC   PO4  951   3.768   1.783   8.169
   49POPC   GL1  952   4.084   1.927   7.864
   49POPC   GL2  953   4.271   1.690   7.692
   49POPC   C1A  954   4.037   2.098   7.425
   49POPC   D2A  955   3.875   2.166   6.970
   49POPC   C3A  956   4.116   2.130   6.540
   49POPC   C4A  957   4.424   2.199   6.203
   49POPC   C1B  958   4.270   1.652   7.242
   49POPC   C2B  959   4.460   1.814   6.882
   49POPC   C3B  960   4.432   1.726   6.450
   49POPC   C4B  961   4.345   1.642   6.031
   50POPC   NC3  962   6.367   7.302   7.994
   50POPC   PO4  963   6.852   7.090   8.412
   50POPC   GL1  964   6.806   7.158   7.796
   50POPC   GL2  965   7.023   7.409   7.654
   50POPC   C1A  966   6.639   7.238   7.340
   50POPC   D2A  967   6.403   7.303   6.926
   50POPC   C3A  968   6.574   7.161   6.542
   50POPC   C4A  969   6.700   7.153   6.114
   50POPC   C1B  970   7.029   7.534   7.244
   50POPC   C2B  971   6.931   7.311   6.887
   50POPC   C3B  972   6.972   7.479   6.459
   50POPC   C4B  973   6.801   7.642   6.064
   51POPC   NC3  974   9.713   2.642   8.069
   51POPC   PO4  975   9.166   3.084   8.208
   51POPC   GL1  976   9.362   2.944   7.753
   51POPC   GL2  977   9.603   2.662   7.598
   51POPC   C1A  978   9.314   2.868   7.269
   51POPC   D2A  979   9.431   3.103   6.916
   51POPC   C3A  980   9.510   2.894   6.545
   51POPC   C4A  981   9.289   2.940   6.161
   51POPC   C1B  982   9.866   2.660   7.228
   51POPC   C2B  983   9.944   2.929   6.867
   51POPC   C3B  984   0.044   2.890   6.435
   51POPC   C4B  985   9.774   2.764   6.115
   52POPC   NC3  986   6.694   1.860   8.302
   52POPC   PO4  987   7.100   1.386   8.130
   52POPC   GL1  988   6.824   1.593   7.869
   52POPC   GL2  989   6.796   1.973   7.796
   52POPC   C1A  990   6.804   1.593   7.436
   52POPC   D2A  991   6.571   1.405   7.131
   52POPC   C3A  992   6.625   1.534   6.694
   52POPC   C4A  993   6.817   1.805   6.350
   52POPC   C1B  994   6.493   2.029   7.431
   52POPC   C2B  995   6.341   1.876   7.006
   52POPC   C3B  996   6.354   1.965   6.544
   52POPC   C4B  997   6.511   2.246   6.183
   53POPC   NC3  998   0.217   3.492   7.905
   53POPC   PO4  999   9.878   3.023   8.280
   53POPC   GL1 1000   9.864   3.083   7.808
   53POPC   GL2 1001   9.687   3.417   7.764
   53POPC   C1A 1002   9.756   3.158   7.343
   53POPC   D2A 1003   9.990   3.425   7.026
   53POPC   C3A 1004   9.757   3.451   6.630
   53POPC   C4A 1005   9.678   3.266   6.240
   53POPC   C1B 1006   9.683   3.703   7.363
   53POPC   C2B 1007   9.756   3.882   6.921
   53POPC   C3B 1008   9.541   3.981   6.542
   53POPC   C4B 1009   9.408   3.704   6.230
   54POPC   NC3 1010   7.000   8.754   8.478
   54POPC   PO4 1011   6.436   9.020   8.320
   54POPC   GL1 1012   6.426   8.925   7.845
   54POPC   GL2 1013   6.748   8.715   7.784
   54POPC   C1A 1014   6.329   9.053   7.377
   54POPC   D2A 1015   6.531   9.116   6.939
   54POPC   C3A 1016   6.268   9.104   6.585
   54POPC   C4A 1017   6.274   8.810   6.280
   54POPC   C1B 1018   6.829   9.112   7.544
   54POPC   C2B 1019   7.090   9.242   7.158
   54POPC   C3B 1020   7.092   9.179   6.687
   54POPC   C4B 1021   6.741   8.999   6.403
   55POPC   NC3 1022   9.662   0.348   7.819
   55POPC   PO4 1023   9.267   0.732   8.230
   55POPC   GL1 1024   9.520   0.826   7.780
   55POPC   GL2 1025   9.899   0.821   7.679
   55POPC   C1A 1026   9.510   0.747   7.298
   55POPC   D2A 1027   9.599   0.504   6.912
   55POPC   C3A 1028   9.421   0.685   6.558
   55POPC   C4A 1029   9.246   0.642   6.145
   55POPC   C1B 1030   9.973   0.536   7.282
   55POPC   C2B 1031   0.015   0.206   6.925
   55POPC   C3B 1032   9.956   0.408   6.526
   55POPC   C4B 1033   9.613   0.297   6.290
   56POPC   NC3 1034   0.083   5.807   8.043
   56POPC   PO4 1035   9.549   6.176   7.802
   56POPC   GL1 1036   9.973   6.026   7.589
   56POPC   GL2 1037   0.163   5.693   7.502
   56POPC   C1A 1038   0.073   6.076   7.154
   56POPC   D2A 1039   9.971   5.870   6.772
   56POPC   C3A 1040   9.655   6.068   6.526
   56POPC   C4A 1041   9.757   5.960   6.128
   56POPC   C1B 1042   9.767   5.680   7.265
   56POPC   C2B 1043   9.553   5.572   6.881
   56POPC   C3B 1044   9.587   5.567   6.428
   56POPC   C4B 1045   9.396   5.628   5.994
   57POPC   NC3 1046   8.157   9.574   8.103
   57POPC   PO4 1047   8.650   0.018   7.972
   57POPC   GL1 1048   8.281   9.859   7.663
   57POPC   GL2 1049   8.286   9.459   7.618
   57POPC   C1A 1050   7.906   9.989   7.354
   57POPC   D2A 1051   7.705   9.940   6.920
   57POPC   C3A 1052   7.829   9.934   6.455
   57POPC   C4A 1053   8.153   9.844   6.137
   57POPC   C1B 1054   8.017   9.493   7.232
   57POPC   C2B 1055   8.053   9.574   6.769
   57POPC   C3B 1056   7.945   9.422   6.357
   57POPC   C4B 1057   8.089   9.382   5.902
   58POPC   NC3 1058   3.788   7.527   8.277
   58POPC   PO4 1059   3.680   6.997   8.067
   58POPC   GL1 1060   3.714   7.389   7.768
   58POPC   GL2 1061   3.389   7.543   7.741
   58POPC   C1A 1062   3.709   7.497   7.285
   58POPC   D2A 1063   3.587   7.568   6.828
   58POPC   C3A 1064   3.342   7.237   6.614
   58POPC   C4A 1065   3.414   7.080   6.201
   58POPC   C1B 1066   3.190   7.611   7.326
   58POPC   C2B 1067   3.074   7.616   6.882
   58POPC   C3B 1068   3.236   7.711   6.445
   58POPC   C4B 1069   3.615   7.577   6.208
   59POPC   NC3 1070   8.819   2.244   7.867
   59POPC   PO4 1071   9.002   1.649   7.960
   59POPC   GL1 1072   9.026   1.603   7.541
   59POPC   GL2 1073   8.735   1.800   7.517
   59POPC   C1A 1074   9.331   1.632   7.171
   59POPC   D2A 1075   9.498   1.943   6.852
   59POPC   C3A 1076   9.205   1.969   6.473
   59POPC   C4A 1077   8.977   1.704   6.193
   59POPC   C1B 1078   9.040   2.054   7.275
   59POPC   C2B 1079   9.033   2.237   6.870
   59POPC   C3B 1080   8.706   2.088   6.583
   59POPC   C4B 1081   8.526   1.713   6.415
   60POPC   NC3 1082   6.732   1.067   8.152
   60POPC   PO4 1083   6.097   0.775   8.204
   60POPC   GL1 1084   6.344   0.882   7.821
   60POPC   GL2 1085   6.573   1.152   7.668
   60POPC   C1A 1086   6.246   0.831   7.371
   60POPC   D2A 1087   6.351   0.967   6.953
   60POPC   C3A 1088   6.067   0.952   6.615
   60POPC   C4A 1089   6.245   0.960   6.199
   60POPC   C1B 1090   6.755   0.936   7.291
   60POPC   C2B 1091   6.841   1.070   6.858
   60POPC   C3B 1092   6.643   1.028   6.499
   60POPC   C4B 1093   6.587   1.342   6.205
   61POPC   NC3 1094   1.045   4.050   7.858
   61POPC   PO4 1095   0.921   4.677   7.943
   61POPC   GL1 1096   0.894   4.450   7.574
   61POPC   GL2 1097   1.253   4.369   7.525
   61POPC   C1A 1098   0.907   4.419   7.111
   61POPC   D2A 1099   0.885   4.664   6.756
   61POPC   C3A 1100   0.886   4.478   6.371
   61POPC   C4A 1101   1.032   4.413   5.930
   61POPC   C1B 1102   1.275   4.083   7.181
   61POPC   C2B 1103   1.186   4.178   6.727
   61POPC   C3B 1104   1.315   4.213   6.311
   61POPC   C4B 1105   1.335   3.987   5.929
   62POPC   NC3 1106   7.636   3.315   8.252
   62POPC   PO4 1107   7.166   3.780   8.035
   62POPC   GL1 1108   7.428   3.486   7.820
   62POPC   GL2 1109   7.197   3.268   7.642
   62POPC   C1A 1110   7.698   3.300   7.504
   62POPC   D2A 1111   7.501   3.122   7.134
   62POPC   C3A 1112   7.560   3.191   6.691
   62POPC   C4A 1113   7.589   3.355   6.288
   62POPC   C1B 1114   7.323   3.594   7.321
   62POPC   C2B 1115   7.374   3.635   6.884
   62POPC   C3B 1116   7.125   3.434   6.573
   62POPC   C4B 1117   7.121   3.497   6.134
   63POPC   NC3 1118   1.909   2.865   8.195
   63POPC   PO4 1119   2.475   3.251   8.200
   63POPC   GL1 1120   2.299   3.055   7.792
   63POPC   GL2 1121   2.128   2.732   7.746
   63POPC   C1A 1122   2.150   3.071   7.328
   63POPC   D2A 1123   2.084   3.195   6.897
   63POPC   C3A 1124   2.220   2.973   6.509
   63POPC   C4A 1125   2.142   2.944   6.059
   63POPC   C1B 1126   2.037   2.574   7.329
   63POPC   C2B 1127   1.891   2.723   6.912
   63POPC   C3B 1128   1.970   2.527   6.517
   63POPC   C4B 1129   1.803   2.579   6.100
   64POPC   NC3 1130   8.034   7.811   7.905
   64POPC   PO4 1131   8.246   8.390   8.269
   64POPC   GL1 1132   8.374   8.462   7.810
   64POPC   GL2 1133   8.320   8.129   7.634
   64POPC   C1A 1134   8.371   8.487   7.309
   64POPC   D2A 1135   8.399   8.137   7.012
   64POPC   C3A 1136   8.394   8.317   6.632
   64POPC   C4A 1137   8.389   8.157   6.245
   64POPC   C1B 1138   7.984   8.060   7.287
   64POPC   C2B 1139   7.945   7.833   6.875
   64POPC   C3B 1140   7.936   8.003   6.467
   64POPC   C4B 1141   8.009   7.892   6.055
   65POPC   NC3 1142   4.256   9.786   8.168
   65POPC   PO4 1143   4.766   9.298   8.181
   65POPC   GL1 1144   4.459   9.465   7.810
   65POPC   GL2 1145   4.409   9.859   7.697
   65POPC   C1A 1146   4.401   9.353   7.378
   65POPC   D2A 1147   4.462   9.626   7.003
   65POPC   C3A 1148   4.396   9.464   6.548
   65POPC   C4A 1149   4.648   9.310   6.206
   65POPC   C1B 1150   4.064   9.707   7.492
   65POPC   C2B 1151   3.946   9.808   7.072
   65POPC   C3B 1152   4.175   9.913   6.656
   65POPC   C4B 1153   4.086   9.801   6.203
   66POPC   NC3 1154   2.069   1.245   8.084
   66POPC   PO4 1155   1.565   0.822   8.113
   66POPC   GL1 1156   1.758   0.984   7.758
   66POPC   GL2 1157   2.122   0.982   7.627
   66POPC   C1A 1158   1.665   1.197   7.385
   66POPC   D2A 1159   1.754   1.069   6.981
   66POPC   C3A 1160   1.720   1.221   6.559
   66POPC   C4A 1161   1.984   1.098   6.219
   66POPC   C1B 1162   2.166   1.264   7.253
   66POPC   C2B 1163   2.147   1.346   6.797
   66POPC   C3B 1164   2.051   1.606   6.424
   66POPC   C4B 1165   1.977   1.622   5.971
   67POPC   NC3 1166   7.345   4.203   8.046
   67POPC   PO4 1167   7.482   4.788   8.066
   67POPC   GL1 1168   7.699   4.500   7.769
   67POPC   GL2 1169   7.742   4.087   7.720
   67POPC   C1A 1170   7.713   4.467   7.345
   67POPC   D2A 1171   7.868   4.371   6.956
   67POPC   C3A 1172   7.610   4.264   6.606
   67POPC   C4A 1173   7.352   4.307   6.221
   67POPC   C1B 1174   7.671   3.972   7.267
   67POPC   C2B 1175   7.326   4.140   7.024
   67POPC   C3B 1176   7.137   4.045   6.626
   67POPC   C4B 1177   7.412   3.825   6.396
   68POPC   NC3 1178   2.095   5.389   8.132
   68POPC   PO4 1179   2.273   4.768   8.200
   68POPC   GL1 1180   2.209   5.028   7.803
   68POPC   GL2 1181   1.861   5.134   7.731
   68POPC   C1A 1182   2.235   5.176   7.354
   68POPC   D2A 1183   2.241   5.454   6.987
   68POPC   C3A 1184   2.124   5.230   6.642
   68POPC   C4A 1185   2.159   4.911   6.342
   68POPC   C1B 1186   1.702   4.936   7.343
   68POPC   C2B 1187   1.672   5.082   6.903
   68POPC   C3B 1188   1.663   5.063   6.443
   68POPC   C4B 1189   1.738   4.731   6.123
   69POPC   NC3 1190   7.914   2.818   7.941
   69POPC   PO4 1191   8.466   2.493   7.993
   69POPC   GL1 1192   8.369   2.730   7.664
   69POPC   GL2 1193   8.360   3.065   7.731
   69POPC   C1A 1194   8.305   2.630   7.253
   69POPC   D2A 1195   8.437   2.477   6.854
   69POPC   C3A 1196   8.124   2.582   6.556
   69POPC   C4A 1197   7.952   2.511   6.153
   69POPC   C1B 1198   8.153   3.141   7.320
   69POPC   C2B 1199   7.991   3.031   6.898
   69POPC   C3B 1200   8.014   3.079   6.443
   69POPC   C4B 1201   8.277   2.915   6.147
   70POPC   NC3 1202   1.150   7.321   8.162
   70POPC   PO4 1203   1.705   6.806   8.130
   70POPC   GL1 1204   1.530   7.113   7.729
   70POPC   GL2 1205   1.256   7.395   7.676
   70POPC   C1A 1206   1.496   7.296   7.250
   70POPC   D2A 1207   1.237   7.180   6.882
   70POPC   C3A 1208   1.385   7.285   6.451
   70POPC   C4A 1209   1.766   7.241   6.212
   70POPC   C1B 1210   1.006   7.501   7.268
   70POPC   C2B 1211   0.929   7.554   6.809
   70POPC   C3B 1212   0.858   7.227   6.466
   70POPC   C4B 1213   0.967   7.231   6.006
   71POPC   NC3 1214   0.679   9.662   8.199
   71POPC   PO4 1215   1.273   9.257   8.129
   71POPC   GL1 1216   1.334   9.425   7.712
   71POPC   GL2 1217   1.010   9.602   7.731
   71POPC   C1A 1218   1.247   9.345   7.251
   71POPC   D2A 1219   0.965   9.115   6.940
   71POPC   C3A 1220   0.947   9.247   6.490
   71POPC   C4A 1221   0.928   9.282   6.033
   71POPC   C1B 1222   1.268   9.838   7.435
   71POPC   C2B 1223   1.298   9.920   6.992
   71POPC   C3B 1224   0.982   0.026   6.686
   71POPC   C4B 1225   0.865   9.882   6.308
   72POPC   NC3 1226   6.724   6.793   8.107
   72POPC   PO4 1227   6.208   6.939   7.747
   72POPC   GL1 1228   6.572   6.772   7.523
   72POPC   GL2 1229   6.837   6.558   7.648
   72POPC   C1A 1230   6.546   6.810   7.059
   72POPC   D2A 1231   6.692   6.674   6.663
   72POPC   C3A 1232   6.463   6.680   6.245
   72POPC   C4A 1233   6.487   6.826   5.796
   72POPC   C1B 1234   6.815   6.378   7.183
   72POPC   C2B 1235   6.788   6.159   6.736
   72POPC   C3B 1236   6.726   6.044   6.259
   72POPC   C4B 1237   6.654   6.324   5.887
   73POPC   NC3 1238   7.538   6.315   7.905
   73POPC   PO4 1239   7.178   6.864   7.978
   73POPC   GL1 1240   7.247   6.850   7.587
   73POPC   GL2 1241   7.609   6.755   7.617
   73POPC   C1A 1242   7.039   6.838   7.178
   73POPC   D2A 1243   7.179   6.545   6.835
   73POPC   C3A 1244   7.044   6.442   6.396
   73POPC   C4A 1245   6.943   6.687   6.079
   73POPC   C1B 1246   7.592   6.709   7.187
   73POPC   C2B 1247   7.750   6.771   6.786
   73POPC   C3B 1248   7.475   6.704   6.447
   73POPC   C4B 1249   7.511   6.275   6.278
   74POPC   NC3 1250   6.210   2.671   8.015
   74POPC   PO4 1251   6.712   2.306   8.180
   74POPC   GL1 1252   6.708   2.571   7.808
   74POPC   GL2 1253   6.778   2.912   7.899
   74POPC   C1A 1254   6.532   2.569   7.376
   74POPC   D2A 1255   6.525   2.374   6.930
   74POPC   C3A 1256   6.281   2.523   6.540
   74POPC   C4A 1257   5.986   2.552   6.174
   74POPC   C1B 1258   6.835   2.978   7.427
   74POPC   C2B 1259   6.751   2.841   6.973
   74POPC   C3B 1260   6.679   2.871   6.490
   74POPC   C4B 1261   6.372   2.868   6.123
   75POPC   NC3 1262   3.554   0.530   8.134
   75POPC   PO4 1263   3.906   1.088   8.136
   75POPC   GL1 1264   3.988   0.774   7.775
   75POPC   GL2 1265   3.731   0.539   7.669
   75POPC   C1A 1266   3.958   0.789   7.307
   75POPC   D2A 1267   3.570   0.803   7.045
   75POPC   C3A 1268   3.588   0.543   6.682
   75POPC   C4A 1269   3.734   0.645   6.269
   75POPC   C1B 1270   3.380   0.430   7.415
   75POPC   C2B 1271   3.188   0.419   7.016
   75POPC   C3B 1272   3.202   0.195   6.636
   75POPC   C4B 1273   3.245   0.467   6.291
   76POPC   NC3 1274   2.515   2.071   8.191
   76POPC   PO4 1275   3.076   2.502   8.241
   76POPC   GL1 1276   3.041   2.320   7.769
   76POPC   GL2 1277   2.843   2.019   7.767
   76POPC   C1A 1278   3.014   2.189   7.282
   76POPC   D2A 1279   2.710   2.086   6.900
   76POPC   C3A 1280   2.818   2.116   6.427
   76POPC   C4A 1281   2.893   2.056   5.950
   76POPC   C1B 1282   2.684   1.813   7.388
   76POPC   C2B 1283   2.475   1.645   7.035
   76POPC   C3B 1284   2.548   1.627   6.577
   76POPC   C4B 1285   2.839   1.637   6.212
   77POPC   NC3 1286   1.406   4.696   7.920
   77POPC   PO4 1287   1.449   5.260   8.007
   77POPC   GL1 1288   1.140   5.086   7.720
   77POPC   GL2 1289   1.066   5.422   7.687
   77POPC   C1A 1290   1.146   4.814   7.318
   77POPC   D2A 1291   1.389   4.594   6.969
   77POPC   C3A 1292   1.330   4.695   6.517
   77POPC   C4A 1293   1.228   4.870   6.099
   77POPC   C1B 1294   1.306   5.278   7.287
   77POPC   C2B 1295   1.170   5.070   6.880
   77POPC   C3B 1296   1.151   5.230   6.480
   77POPC   C4B 1297   1.374   5.377   6.134
   78POPC   NC3 1298   8.057   0.886   8.165
   78POPC   PO4 1299   8.036   1.557   8.214
   78POPC   GL1 1300   8.187   1.245   7.831
   78POPC   GL2 1301   8.469   1.399   7.710
   78POPC   C1A 1302   8.097   1.068   7.368
   78POPC   D2A 1303   8.277   1.085   6.937
   78POPC   C3A 1304   8.144   0.882   6.529
   78POPC   C4A 1305   7.912   0.956   6.096
   78POPC   C1B 1306   8.283   1.549   7.324
   78POPC   C2B 1307   7.907   1.457   7.047
   78POPC   C3B 1308   7.864   1.341   6.612
   78POPC   C4B 1309   8.170   1.344   6.275
   79POPC   NC3 1310   1.947   0.572   8.066
   79POPC   PO4 1311   1.962   9.929   8.094
   79POPC   GL1 1312   1.712   0.104   7.741
   79POPC   GL2 1313   1.597   0.473   7.722
   79POPC   C1A 1314   1.903   0.161   7.335
   79POPC   D2A 1315   2.193   0.262   6.985
   79POPC   C3A 1316   1.981   0.212   6.593
   79POPC   C4A 1317   2.059   0.216   6.172
   79POPC   C1B 1318   1.829   0.675   7.350
   79POPC   C2B 1319   2.159   0.790   7.025
   79POPC   C3B 1320   2.013   0.750   6.589
   79POPC   C4B 1321   1.710   0.567   6.267
   80POPC   NC3 1322   5.154   9.622   8.298
   80POPC   PO4 1323   4.644   0.096   8.183
   80POPC   GL1 1324   4.847   9.774   7.922
   80POPC   GL2 1325   5.146   9.876   7.827
   80POPC   C1A 1326   4.823   9.652   7.457
   80POPC   D2A 1327   5.011   9.713   7.031
   80POPC   C3A 1328   4.787   9.780   6.638
   80POPC   C4A 1329   4.614   9.837   6.221
   80POPC   C1B 1330   5.301   9.500   7.590
   80POPC   C2B 1331   5.330   9.342   7.153
   80POPC   C3B 1332   5.315   9.476   6.697
   80POPC   C4B 1333   5.085   9.552   6.289
   81POPC   NC3 1334   1.055   8.828   8.120
   81POPC   PO4 1335   1.591   8.390   8.053
   81POPC   GL1 1336   1.545   8.846   7.831
   81POPC   GL2 1337   1.202   8.947   7.658
   81POPC   C1A 1338   1.627   9.045   7.410
   81POPC   D2A 1339   1.386   8.809   7.080
   81POPC   C3A 1340   1.304   8.818   6.617
   81POPC   C4A 1341   1.378   9.057   6.202
   81POPC   C1B 1342   1.016   8.650   7.400
   81POPC   C2B 1343   0.890   8.585   6.991
   81POPC   C3B 1344   0.739   8.759   6.625
   81POPC   C4B 1345   0.950   8.773   6.248
   82POPC   NC3 1346   9.522   8.910   8.162
   82POPC   PO4 1347   9.971   8.453   8.164
   82POPC   GL1 1348   9.851   8.682   7.810
   82POPC   GL2 1349   9.531   8.519   7.817
   82POPC   C1A 1350   9.987   8.874   7.388
   82POPC   D2A 1351   9.969   9.195   7.017
   82POPC   C3A 1352   9.846   9.007   6.599
   82POPC   C4A 1353   9.849   8.751   6.154
   82POPC   C1B 1354   9.508   8.639   7.384
   82POPC   C2B 1355   9.668   8.688   6.967
   82POPC   C3B 1356   9.485   8.662   6.503
   82POPC   C4B 1357   9.472   9.090   6.204
   83POPC   NC3 1358   2.535   5.617   7.985
   83POPC   PO4 1359   1.941   5.733   8.379
   83POPC   GL1 1360   1.832   5.704   7.846
   83POPC   GL2 1361   2.129   5.575   7.651
   83POPC   C1A 1362   1.872   5.953   7.428
   83POPC   D2A 1363   2.195   6.083   7.080
   83POPC   C3A 1364   2.152   5.865   6.653
   83POPC   C4A 1365   1.780   6.025   6.412
   83POPC   C1B 1366   1.808   5.466   7.290
   83POPC   C2B 1367   1.760   5.583   6.820
   83POPC   C3B 1368   1.859   5.534   6.363
   83POPC   C4B 1369   2.272   5.371   6.152
   84POPC   NC3 1370   7.438   5.241   8.058
   84POPC   PO4 1371   7.528   5.858   7.914
   84POPC   GL1 1372   7.735   5.433   7.644
   84POPC   GL2 1373   7.723   5.034   7.683
   84POPC   C1A 1374   7.735   5.169   7.201
   84POPC   D2A 1375   7.795   5.054   6.748
   84POPC   C3A 1376   7.838   5.446   6.445
   84POPC   C4A 1377   7.658   5.679   6.058
   84POPC   C1B 1378   7.397   4.850   7.400
   84POPC   C2B 1379   7.434   4.669   6.954
   84POPC   C3B 1380   7.437   4.746   6.499
   84POPC   C4B 1381   7.678   5.011   6.246
   85POPC   NC3 1382   1.281   6.658   8.273
   85POPC   PO4 1383   0.761   7.084   8.308
   85POPC   GL1 1384   0.938   7.006   7.812
   85POPC   GL2 1385   1.209   6.736   7.779
   85POPC   C1A 1386   1.124   6.979   7.356
   85POPC   D2A 1387   1.222   6.666   7.009
   85POPC   C3A 1388   1.284   6.783   6.556
   85POPC   C4A 1389   1.112   6.594   6.179
   85POPC   C1B 1390   1.481   6.576   7.482
   85POPC   C2B 1391   1.594   6.318   7.135
   85POPC   C3B 1392   1.619   6.421   6.716
   85POPC   C4B 1393   1.598   6.494   6.274
   86POPC   NC3 1394   0.322   8.736   8.076
   86POPC   PO4 1395   0.315   9.354   8.109
   86POPC   GL1 1396   0.715   9.177   7.888
   86POPC   GL2 1397   0.688   8.828   7.736
   86POPC   C1A 1398   0.787   9.222   7.429
   86POPC   D2A 1399   0.486   9.265   7.065
   86POPC   C3A 1400   0.412   9.170   6.642
   86POPC   C4A 1401   0.536   9.053   6.234
   86POPC   C1B 1402   0.507   8.804   7.304
   86POPC   C2B 1403   0.231   8.771   6.926
   86POPC   C3B 1404   0.251   8.709   6.472
   86POPC   C4B 1405   0.446   8.565   6.115
   87POPC   NC3 1406   0.473   7.420   8.179
   87POPC   PO4 1407   9.920   7.021   8.186
   87POPC   GL1 1408   0.128   7.188   7.816
   87POPC   GL2 1409   0.045   7.536   7.749
   87POPC   C1A 1410   0.249   6.967   7.413
   87POPC   D2A 1411   0.143   6.854   6.976
   87POPC   C3A 1412   0.357   7.000   6.590
   87POPC   C4A 1413   0.373   7.250   6.224
   87POPC   C1B 1414   0.391   7.451   7.411
   87POPC   C2B 1415   0.454   7.365   6.947
   87POPC   C3B 1416   0.512   7.613   6.547
   87POPC   C4B 1417   0.843   7.735   6.253
   88POPC   NC3 1418   8.237   0.284   7.980
   88POPC   PO4 1419   7.661   0.635   8.132
   88POPC   GL1 1420   7.851   0.757   7.729
   88POPC   GL2 1421   8.205   0.680   7.660
   88POPC   C1A 1422   7.837   0.548   7.344
   88POPC   D2A 1423   8.093   0.566   6.961
   88POPC   C3A 1424   7.915   0.414   6.600
   88POPC   C4A 1425   7.731   0.496   6.197
   88POPC   C1B 1426   8.311   0.326   7.353
   88POPC   C2B 1427   8.243   0.033   6.982
   88POPC   C3B 1428   8.340   0.072   6.547
   88POPC   C4B 1429   8.232   0.369   6.203
   89POPC   NC3 1430   5.045   1.044   8.033
   89POPC   PO4 1431   5.463   1.552   8.195
   89POPC   GL1 1432   5.393   1.507   7.722
   89POPC   GL2 1433   5.056   1.411   7.686
   89POPC   C1A 1434   5.226   1.550   7.240
   89POPC   D2A 1435   4.841   1.459   6.966
   89POPC   C3A 1436   4.915   1.555   6.531
   89POPC   C4A 1437   5.333   1.422   6.372
   89POPC   C1B 1438   5.093   1.050   7.398
   89POPC   C2B 1439   4.880   0.956   7.047
   89POPC   C3B 1440   5.048   1.080   6.662
   89POPC   C4B 1441   5.052   1.016   6.223
   90POPC   NC3 1442   5.318   7.923   8.112
   90POPC   PO4 1443   4.881   8.450   8.248
   90POPC   GL1 1444   4.800   8.256   7.840
   90POPC   GL2 1445   5.151   8.264   7.756
   90POPC   C1A 1446   4.836   8.313   7.368
   90POPC   D2A 1447   5.115   8.317   6.998
   90POPC   C3A 1448   4.899   8.475   6.652
   90POPC   C4A 1449   4.719   8.296   6.290
   90POPC   C1B 1450   5.221   7.957   7.416
   90POPC   C2B 1451   5.084   7.796   7.014
   90POPC   C3B 1452   4.937   7.930   6.639
   90POPC   C4B 1453   5.220   8.146   6.423
   91POPC   NC3 1454   9.645   7.467   8.228
   91POPC   PO4 1455   9.219   7.037   8.067
   91POPC   GL1 1456   9.558   7.194   7.804
   91POPC   GL2 1457   9.499   7.520   7.743
   91POPC   C1A 1458   9.762   7.181   7.390
   91POPC   D2A 1459   9.620   6.937   7.010
   91POPC   C3A 1460   9.567   7.189   6.638
   91POPC   C4A 1461   9.842   7.114   6.270
   91POPC   C1B 1462   9.725   7.728   7.385
   91POPC   C2B 1463   9.990   7.580   7.050
   91POPC   C3B 1464   0.017   7.456   6.610
   91POPC   C4B 1465   9.686   7.603   6.301
   92POPC   NC3 1466   7.909   1.829   7.869
   92POPC   PO4 1467   7.639   2.435   7.946
   92POPC   GL1 1468   7.984   2.379   7.626
   92POPC   GL2 1469   8.338   2.199   7.598
   92POPC   C1A 1470   8.004   2.217   7.199
   92POPC   D2A 1471   7.778   1.971   6.911
   92POPC   C3A 1472   7.719   2.209   6.541
   92POPC   C4A 1473   7.605   2.094   6.176
   92POPC   C1B 1474   8.497   2.077   7.173
   92POPC   C2B 1475   8.273   1.800   6.865
   92POPC   C3B 1476   8.036   1.819   6.474
   92POPC   C4B 1477   8.261   2.134   6.260
   93POPC   NC3 1478   1.261   8.029   8.085
   93POPC   PO4 1479   0.708   8.486   8.124
   93POPC   GL1 1480   0.912   8.250   7.726
   93POPC   GL2 1481   1.011   7.873   7.664
   93POPC   C1A 1482   1.042   8.157   7.261
   93POPC   D2A 1483   0.893   8.063   6.852
   93POPC   C3A 1484   1.037   8.339   6.550
   93POPC   C4A 1485   1.343   8.290   6.269
   93POPC   C1B 1486   1.401   7.809   7.400
   93POPC   C2B 1487   1.401   7.757   6.946
   93POPC   C3B 1488   1.322   7.811   6.491
   93POPC   C4B 1489   1.621   7.877   6.137
   94POPC   NC3 1490   0.807   2.104   8.160
   94POPC   PO4 1491   1.402   1.796   8.202
   94POPC   GL1 1492   1.146   1.872   7.824
   94POPC   GL2 1493   1.174   2.244   7.796
   94POPC   C1A 1494   1.131   1.832   7.335
   94POPC   D2A 1495   0.977   1.721   6.876
   94POPC   C3A 1496   1.210   1.822   6.471
   94POPC   C4A 1497   1.047   1.958   6.056
   94POPC   C1B 1498   1.193   2.354   7.358
   94POPC   C2B 1499   1.136   2.207   6.930
   94POPC   C3B 1500   1.072   2.302   6.495
   94POPC   C4B 1501   1.402   2.291   6.181
   95POPC   NC3 1502   8.302   3.884   8.129
   95POPC   PO4 1503   8.071   3.232   8.117
   95POPC   GL1 1504   8.056   3.539   7.811
   95POPC   GL2 1505   8.404   3.580   7.748
   95POPC   C1A 1506   8.067   3.669   7.383
   95POPC   D2A 1507   7.837   3.509   7.050
   95POPC   C3A 1508   7.962   3.554   6.644
   95POPC   C4A 1509   7.904   3.745   6.278
   95POPC   C1B 1510   8.559   3.503   7.344
   95POPC   C2B 1511   8.360   3.480   6.961
   95POPC   C3B 1512   8.458   3.368   6.548
   95POPC   C4B 1513   8.348   3.491   6.142
   96POPC   NC3 1514   8.186   8.860   8.160
   96POPC   PO4 1515   7.880   8.258   7.895
   96POPC   GL1 1516   7.943   8.612   7.580
   96POPC   GL2 1517   8.049   8.948   7.681
   96POPC   C1A 1518   7.811   8.618   7.168
   96POPC   D2A 1519   7.920   8.349   6.843
   96POPC   C3A 1520   7.951   8.530   6.427
   96POPC   C4A 1521   7.654   8.673   6.097
   96POPC   C1B 1522   8.185   8.979   7.269
   96POPC   C2B 1523   8.229   8.768   6.877
   96POPC   C3B 1524   8.235   9.024   6.534
   96POPC   C4B 1525   8.044   8.966   6.170
   97POPC   NC3 1526   3.414   8.199   8.272
   97POPC   PO4 1527   3.354   7.589   8.401
   97POPC   GL1 1528   3.656   7.893   7.976
   97POPC   GL2 1529   3.555   8.254   7.800
   97POPC   C1A 1530   3.823   7.915   7.541
   97POPC   D2A 1531   3.688   7.990   7.106
   97POPC   C3A 1532   3.819   8.025   6.683
   97POPC   C4A 1533   3.598   8.074   6.322
   97POPC   C1B 1534   3.344   8.093   7.444
   97POPC   C2B 1535   3.198   8.099   7.018
   97POPC   C3B 1536   3.259   8.269   6.623
   97POPC   C4B 1537   3.233   8.402   6.186
   98POPC   NC3 1538   2.313   9.641   8.065
   98POPC   PO4 1539   2.936   9.958   8.158
   98POPC   GL1 1540   2.938   9.613   7.802
   98POPC   GL2 1541   2.603   9.530   7.658
   98POPC   C1A 1542   3.103   9.621   7.352
   98POPC   D2A 1543   2.825   9.638   6.970
   98POPC   C3A 1544   2.817   9.826   6.558
   98POPC   C4A 1545   2.485   9.947   6.279
   98POPC   C1B 1546   2.738   9.255   7.326
   98POPC   C2B 1547   2.911   9.122   6.928
   98POPC   C3B 1548   2.917   9.328   6.544
   98POPC   C4B 1549   2.611   9.451   6.230
   99POPC   NC3 1550   3.269   9.627   8.199
   99POPC   PO4 1551   3.955   9.376   8.118
   99POPC   GL1 1552   3.727   9.686   7.884
   99POPC   GL2 1553   3.449   9.510   7.743
   99POPC   C1A 1554   3.606   9.950   7.496
   99POPC   D2A 1555   3.419   9.956   7.069
   99POPC   C3A 1556   3.680   0.030   6.692
   99POPC   C4A 1557   3.646   0.163   6.276
   99POPC   C1B 1558   3.656   9.430   7.375
   99POPC   C2B 1559   3.491   9.451   6.960
   99POPC   C3B 1560   3.317   9.663   6.611
   99POPC   C4B 1561   3.558   9.686   6.236
  100POPC   NC3 1562   8.878   4.448   8.069
  100POPC   PO4 1563   9.477   4.545   8.364
  100POPC   GL1 1564   9.316   4.233   7.902
  100POPC   GL2 1565   8.982   4.230   7.638
  100POPC   C1A 1566   9.403   4.219   7.393
  100POPC   D2A 1567   9.278   4.117   6.963
  100POPC   C3A 1568   9.092   4.293   6.591
  100POPC   C4A 1569   9.182   4.336   6.138
  100POPC   C1B 1570   8.662   4.033   7.361
  100POPC   C2B 1571   8.722   3.841   6.978
  100POPC   C3B 1572   8.555   3.885   6.580
  100POPC   C4B 1573   8.768   4.084   6.247
  101POPC   NC3 1574   7.558   1.525   8.201
  101POPC   PO4 1575   7.158   2.017   8.347
  101POPC   GL1 1576   7.291   1.854   7.889
  101POPC   GL2 1577   7.280   2.167   7.714
  101POPC   C1A 1578   7.286   1.791   7.372
  101POPC   D2A 1579   7.132   1.720   6.904
  101POPC   C3A 1580   7.435   1.724   6.526
  101POPC   C4A 1581   7.277   1.676   6.085
  101POPC   C1B 1582   7.499   2.270   7.305
  101POPC   C2B 1583   7.325   2.205   6.883
  101POPC   C3B 1584   7.183   2.181   6.458
  101POPC   C4B 1585   7.278   2.499   6.156
  102POPC   NC3 1586   1.158   0.607   8.120
  102POPC   PO4 1587   0.967   0.022   8.068
  102POPC   GL1 1588   1.116   0.259   7.725
  102POPC   GL2 1589   0.928   0.567   7.660
  102POPC   C1A 1590   1.328   0.333   7.328
  102POPC   D2A 1591   1.171   0.427   6.944
  102POPC   C3A 1592   1.414   0.297   6.598
  102POPC   C4A 1593   1.321   0.145   6.191
  102POPC   C1B 1594   0.819   0.873   7.338
  102POPC   C2B 1595   0.762   0.743   6.917
  102POPC   C3B 1596   0.984   0.733   6.568
  102POPC   C4B 1597   0.890   0.833   6.164
  103POPC   NC3 1598   1.805   2.066   8.199
  103POPC   PO4 1599   2.310   1.642   8.128
  103POPC   GL1 1600   2.322   1.921   7.737
  103POPC   GL2 1601   2.080   2.192   7.750
  103POPC   C1A 1602   2.234   2.055   7.286
  103POPC   D2A 1603   2.039   1.997   6.882
  103POPC   C3A 1604   2.292   2.085   6.545
  103POPC   C4A 1605   2.409   1.908   6.171
  103POPC   C1B 1606   1.692   2.242   7.508
  103POPC   C2B 1607   1.632   2.307   7.061
  103POPC   C3B 1608   1.606   2.174   6.627
  103POPC   C4B 1609   1.871   2.074   6.239
  104POPC   NC3 1610   7.769   8.050   8.299
  104POPC   PO4 1611   7.207   8.473   8.178
  104POPC   GL1 1612   7.268   8.208   7.796
  104POPC   GL2 1613   7.491   8.359   7.524
  104POPC   C1A 1614   7.317   7.897   7.449
  104POPC   D2A 1615   7.525   8.059   7.051
  104POPC   C3A 1616   7.437   7.933   6.587
  104POPC   C4A 1617   7.258   7.816   6.198
  104POPC   C1B 1618   7.080   8.314   7.309
  104POPC   C2B 1619   7.092   8.225   6.869
  104POPC   C3B 1620   7.452   8.427   6.599
  104POPC   C4B 1621   7.153   8.315   6.305
  105POPC   NC3 1622   3.050   7.268   8.245
  105POPC   PO4 1623   3.132   7.929   8.021
  105POPC   GL1 1624   2.873   7.609   7.753
  105POPC   GL2 1625   2.955   7.258   7.757
  105POPC   C1A 1626   2.620   7.548   7.360
  105POPC   D2A 1627   2.450   7.508   6.938
  105POPC   C3A 1628   2.687   7.615   6.564
  105POPC   C4A 1629   2.489   7.561   6.190
  105POPC   C1B 1630   2.714   7.064   7.475
  105POPC   C2B 1631   2.641   7.018   7.034
  105POPC   C3B 1632   2.778   7.127   6.633
  105POPC   C4B 1633   2.959   7.289   6.261
  106POPC   NC3 1634   3.173   5.416   8.088
  106POPC   PO4 1635   2.866   5.923   8.050
  106POPC   GL1 1636   2.656   5.966   7.667
  106POPC   GL2 1637   2.420   6.183   7.561
  106POPC   C1A 1638   2.495   5.736   7.322
  106POPC   D2A 1639   2.607   5.821   6.885
  106POPC   C3A 1640   2.584   5.543   6.527
  106POPC   C4A 1641   2.862   5.455   6.150
  106POPC   C1B 1642   2.754   6.188   7.241
  106POPC   C2B 1643   2.928   6.235   6.833
  106POPC   C3B 1644   2.618   6.200   6.515
  106POPC   C4B 1645   2.698   5.942   6.189
  107POPC   NC3 1646   0.522   4.501   8.107
  107POPC   PO4 1647   0.218   3.909   8.147
  107POPC   GL1 1648   0.510   4.077   7.817
  107POPC   GL2 1649   0.295   4.259   7.658
  107POPC   C1A 1650   0.650   4.060   7.348
  107POPC   D2A 1651   0.798   3.930   6.955
  107POPC   C3A 1652   0.595   4.075   6.583
  107POPC   C4A 1653   0.385   3.951   6.203
  107POPC   C1B 1654   0.326   4.455   7.284
  107POPC   C2B 1655   0.440   4.451   6.882
  107POPC   C3B 1656   0.362   4.588   6.480
  107POPC   C4B 1657   0.034   4.583   6.163
  108POPC   NC3 1658   7.130   7.312   8.137
  108POPC   PO4 1659   7.720   7.545   8.178
  108POPC   GL1 1660   7.583   7.589   7.755
  108POPC   GL2 1661   7.510   7.276   7.675
  108POPC   C1A 1662   7.694   7.598   7.289
  108POPC   D2A 1663   7.413   7.556   6.905
  108POPC   C3A 1664   7.495   7.415   6.455
  108POPC   C4A 1665   7.664   7.515   6.015
  108POPC   C1B 1666   7.396   7.187   7.255
  108POPC   C2B 1667   7.348   7.049   6.829
  108POPC   C3B 1668   7.066   6.983   6.499
  108POPC   C4B 1669   7.207   7.128   6.117
  109POPC   NC3 1670   6.587   9.635   8.276
  109POPC   PO4 1671   6.206   9.847   7.806
  109POPC   GL1 1672   6.560   9.905   7.540
  109POPC   GL2 1673   6.695   9.619   7.716
  109POPC   C1A 1674   6.524   9.934   7.093
  109POPC   D2A 1675   6.605   0.094   6.728
  109POPC   C3A 1676   6.471   9.827   6.438
  109POPC   C4A 1677   6.296   9.811   6.031
  109POPC   C1B 1678   6.637   9.483   7.265
  109POPC   C2B 1679   6.805   9.589   6.828
  109POPC   C3B 1680   6.834   9.491   6.371
  109POPC   C4B 1681   6.448   9.359   6.188
  110POPC   NC3 1682   3.788   2.974   7.985
  110POPC   PO4 1683   4.325   2.737   8.191
  110POPC   GL1 1684   4.171   2.532   7.766
  110POPC   GL2 1685   3.895   2.660   7.586
  110POPC   C1A 1686   4.310   2.510   7.310
  110POPC   D2A 1687   4.405   2.350   6.880
  110POPC   C3A 1688   4.411   2.625   6.473
  110POPC   C4A 1689   4.669   2.826   6.111
  110POPC   C1B 1690   3.853   2.654   7.115
  110POPC   C2B 1691   3.894   2.601   6.643
  110POPC   C3B 1692   3.940   2.830   6.208
  110POPC   C4B 1693   3.800   3.208   5.928
  111POPC   NC3 1694   1.591   9.639   8.104
  111POPC   PO4 1695   2.194   9.193   8.089
  111POPC   GL1 1696   1.921   9.441   7.765
  111POPC   GL2 1697   2.099   9.747   7.619
  111POPC   C1A 1698   1.721   9.581   7.337
  111POPC   D2A 1699   1.822   9.838   6.931
  111POPC   C3A 1700   1.584   9.824   6.503
  111POPC   C4A 1701   1.711   9.859   6.019
  111POPC   C1B 1702   2.336   9.784   7.216
  111POPC   C2B 1703   2.324   9.802   6.755
  111POPC   C3B 1704   2.060   9.717   6.383
  111POPC   C4B 1705   2.158   9.537   5.977
  112POPC   NC3 1706   9.506   8.184   8.246
  112POPC   PO4 1707   0.029   7.759   8.234
  112POPC   GL1 1708   9.940   8.039   7.870
  112POPC   GL2 1709   9.609   8.006   7.797
  112POPC   C1A 1710   9.890   8.294   7.473
  112POPC   D2A 1711   9.886   8.137   7.040
  112POPC   C3A 1712   9.916   8.392   6.653
  112POPC   C4A 1713   9.891   8.233   6.221
  112POPC   C1B 1714   9.377   8.132   7.440
  112POPC   C2B 1715   9.360   8.241   7.016
  112POPC   C3B 1716   9.503   8.102   6.605
  112POPC   C4B 1717   9.356   8.168   6.188
  113POPC   NC3 1718   0.047   9.690   7.961
  113POPC   PO4 1719   0.461   0.044   8.364
  113POPC   GL1 1720   0.477   9.935   7.833
  113POPC   GL2 1721   0.492   9.603   7.695
  113POPC   C1A 1722   0.747   9.973   7.442
  113POPC   D2A 1723   0.850   9.657   7.120
  113POPC   C3A 1724   0.653   9.621   6.707
  113POPC   C4A 1725   0.467   9.570   6.282
  113POPC   C1B 1726   0.196   9.554   7.354
  113POPC   C2B 1727   0.202   9.698   6.936
  113POPC   C3B 1728   0.028   9.515   6.581
  113POPC   C4B 1729   0.080   9.232   6.221
  114POPC   NC3 1730   3.658   8.985   8.126
  114POPC   PO4 1731   3.124   8.556   8.293
  114POPC   GL1 1732   3.296   8.700   7.843
  114POPC   GL2 1733   3.438   9.004   7.674
  114POPC   C1A 1734   3.387   8.592   7.375
  114POPC   D2A 1735   3.588   8.468   6.956
  114POPC   C3A 1736   3.600   8.651   6.497
  114POPC   C4A 1737   3.459   8.833   6.077
  114POPC   C1B 1738   3.269   9.112   7.297
  114POPC   C2B 1739   3.390   8.948   6.895
  114POPC   C3B 1740   3.400   9.147   6.493
  114POPC   C4B 1741   3.739   9.226   6.234
  115POPC   NC3 1742   3.469   2.706   8.387
  115POPC   PO4 1743   3.459   3.296   8.060
  115POPC   GL1 1744   3.197   2.932   7.830
  115POPC   GL2 1745   3.411   2.670   7.796
  115POPC   C1A 1746   3.070   2.687   7.391
  115POPC   D2A 1747   2.876   2.583   6.959
  115POPC   C3A 1748   3.046   2.594   6.534
  115POPC   C4A 1749   3.060   2.515   6.085
  115POPC   C1B 1750   3.504   2.920   7.383
  115POPC   C2B 1751   3.439   2.950   6.906
  115POPC   C3B 1752   3.471   2.854   6.438
  115POPC   C4B 1753   3.457   2.831   5.961
  116POPC   NC3 1754   3.244   3.701   8.098
  116POPC   PO4 1755   2.686   4.096   8.039
  116POPC   GL1 1756   2.821   3.665   7.797
  116POPC   GL2 1757   2.791   3.274   7.822
  116POPC   C1A 1758   2.963   3.423   7.382
  116POPC   D2A 1759   2.971   3.178   6.983
  116POPC   C3A 1760   2.959   3.446   6.568
  116POPC   C4A 1761   3.050   3.609   6.132
  116POPC   C1B 1762   2.461   3.445   7.506
  116POPC   C2B 1763   2.513   3.434   7.053
  116POPC   C3B 1764   2.428   3.443   6.597
  116POPC   C4B 1765   2.540   3.279   6.180
  117POPC   NC3 1766   5.703   1.971   8.119
  117POPC   PO4 1767   6.278   1.551   8.124
  117POPC   GL1 1768   5.922   1.604   7.808
  117POPC   GL2 1769   6.035   1.945   7.725
  117POPC   C1A 1770   5.729   1.677   7.370
  117POPC   D2A 1771   5.811   1.826   6.930
  117POPC   C3A 1772   5.711   1.711   6.513
  117POPC   C4A 1773   5.864   1.700   6.084
  117POPC   C1B 1774   5.986   2.127   7.318
  117POPC   C2B 1775   6.026   2.277   6.909
  117POPC   C3B 1776   5.903   2.179   6.504
  117POPC   C4B 1777   5.641   2.141   6.183
  118POPC   NC3 1778   2.733   2.849   8.211
  118POPC   PO4 1779   2.165   2.415   8.193
  118POPC   GL1 1780   2.528   2.438   7.834
  118POPC   GL2 1781   2.707   2.736   7.733
  118POPC   C1A 1782   2.561   2.446   7.349
  118POPC   D2A 1783   2.330   2.438   6.932
  118POPC   C3A 1784   2.529   2.541   6.546
  118POPC   C4A 1785   2.623   2.769   6.144
  118POPC   C1B 1786   2.650   2.980   7.366
  118POPC   C2B 1787   2.508   2.927   6.947
  118POPC   C3B 1788   2.734   3.001   6.572
  118POPC   C4B 1789   3.038   3.056   6.206
  119POPC   NC3 1790   2.745   1.109   8.039
  119POPC   PO4 1791   3.120   1.671   8.043
  119POPC   GL1 1792   2.892   1.454   7.689
  119POPC   GL2 1793   2.501   1.398   7.689
  119POPC   C1A 1794   2.953   1.381   7.244
  119POPC   D2A 1795   2.958   1.592   6.867
  119POPC   C3A 1796   2.968   1.275   6.531
  119POPC   C4A 1797   2.893   0.832   6.386
  119POPC   C1B 1798   2.599   1.048   7.390
  119POPC   C2B 1799   2.609   1.133   6.917
  119POPC   C3B 1800   2.470   1.127   6.472
  119POPC   C4B 1801   2.405   1.371   6.108
  120POPC   NC3 1802   1.512   5.640   8.233
  120POPC   PO4 1803   1.220   6.200   8.194
  120POPC   GL1 1804   1.253   6.218   7.771
  120POPC   GL2 1805   1.368   5.884   7.721
  120POPC   C1A 1806   1.090   6.267   7.338
  120POPC   D2A 1807   1.185   6.093   6.912
  120POPC   C3A 1808   1.203   6.221   6.497
  120POPC   C4A 1809   1.379   6.078   6.098
  120POPC   C1B 1810   1.207   5.769   7.314
  120POPC   C2B 1811   1.263   5.584   6.891
  120POPC   C3B 1812   1.356   5.724   6.501
  120POPC   C4B 1813   0.983   5.790   6.277
  121POPC   NC3 1814   4.521   7.327   8.218
  121POPC   PO4 1815   5.124   7.494   8.086
  121POPC   GL1 1816   4.805   7.737   7.835
  121POPC   GL2 1817   4.510   7.537   7.762
  121POPC   C1A 1818   4.714   7.787   7.358
  121POPC   D2A 1819   4.592   7.605   6.911
  121POPC   C3A 1820   4.672   7.513   6.446
  121POPC   C4A 1821   4.697   7.386   5.980
  121POPC   C1B 1822   4.220   7.624   7.432
  121POPC   C2B 1823   4.143   7.798   7.027
  121POPC   C3B 1824   4.069   7.576   6.638
  121POPC   C4B 1825   3.846   7.202   6.463
  122POPC   NC3 1826   1.671   6.296   8.090
  122POPC   PO4 1827   2.227   5.962   8.010
  122POPC   GL1 1828   2.107   6.426   7.860
  122POPC   GL2 1829   2.070   6.808   7.743
  122POPC   C1A 1830   1.989   6.441   7.421
  122POPC   D2A 1831   2.035   6.594   6.998
  122POPC   C3A 1832   2.117   6.362   6.629
  122POPC   C4A 1833   2.258   6.427   6.217
  122POPC   C1B 1834   1.821   6.920   7.339
  122POPC   C2B 1835   1.673   6.923   6.884
  122POPC   C3B 1836   1.910   6.827   6.480
  122POPC   C4B 1837   1.903   6.765   5.983
  123POPC   NC3 1838   4.403   8.320   8.186
  123POPC   PO4 1839   4.223   7.678   8.217
  123POPC   GL1 1840   4.254   7.973   7.833
  123POPC   GL2 1841   4.066   8.282   7.803
  123POPC   C1A 1842   4.346   8.132   7.394
  123POPC   D2A 1843   4.579   8.124   6.960
  123POPC   C3A 1844   4.412   7.948   6.545
  123POPC   C4A 1845   4.522   7.867   6.082
  123POPC   C1B 1846   3.895   8.402   7.386
  123POPC   C2B 1847   4.093   8.321   7.000
  123POPC   C3B 1848   4.283   8.426   6.630
  123POPC   C4B 1849   4.021   8.354   6.338
  124POPC   NC3 1850   0.636   0.344   8.046
  124POPC   PO4 1851   9.996   0.136   8.048
  124POPC   GL1 1852   0.191   0.340   7.706
  124POPC   GL2 1853   0.404   0.661   7.695
  124POPC   C1A 1854   0.254   0.066   7.348
  124POPC   D2A 1855   0.546   0.093   6.972
  124POPC   C3A 1856   0.378   0.041   6.554
  124POPC   C4A 1857   0.021   9.952   6.311
  124POPC   C1B 1858   0.473   0.515   7.279
  124POPC   C2B 1859   0.273   0.630   6.873
  124POPC   C3B 1860   0.446   0.658   6.468
  124POPC   C4B 1861   0.731   0.362   6.341
  125POPC   NC3 1862   5.949   1.213   8.142
  125POPC   PO4 1863   5.403   0.747   8.151
  125POPC   GL1 1864   5.530   1.026   7.788
  125POPC   GL2 1865   5.880   1.031   7.682
  125POPC   C1A 1866   5.583   1.186   7.321
  125POPC   D2A 1867   5.572   1.342   6.882
  125POPC   C3A 1868   5.543   0.992   6.596
  125POPC   C4A 1869   5.509   0.784   6.204
  125POPC   C1B 1870   6.106   1.321   7.387
  125POPC   C2B 1871   6.106   1.417   6.924
  125POPC   C3B 1872   6.150   1.443   6.471
  125POPC   C4B 1873   5.816   1.232   6.248
  126POPC   NC3 1874   4.298   0.785   8.186
  126POPC   PO4 1875   3.841   0.261   8.400
  126POPC   GL1 1876   4.071   0.240   7.953
  126POPC   GL2 1877   4.374   0.425   7.818
  126POPC   C1A 1878   4.064   0.217   7.473
  126POPC   D2A 1879   3.807   0.323   7.112
  126POPC   C3A 1880   4.082   0.435   6.754
  126POPC   C4A 1881   4.140   0.312   6.325
  126POPC   C1B 1882   4.462   0.554   7.352
  126POPC   C2B 1883   4.628   0.535   6.918
  126POPC   C3B 1884   4.581   0.252   6.598
  126POPC   C4B 1885   4.639   0.382   6.215
  127POPC   NC3 1886   9.752   4.932   8.018
  127POPC   PO4 1887   0.375   4.896   8.322
  127POPC   GL1 1888   0.194   5.140   7.870
  127POPC   GL2 1889   9.889   5.376   7.793
  127POPC   C1A 1890   0.013   5.000   7.424
  127POPC   D2A 1891   0.120   4.841   7.024
  127POPC   C3A 1892   9.900   4.849   6.651
  127POPC   C4A 1893   9.691   5.063   6.334
  127POPC   C1B 1894   9.574   5.243   7.457
  127POPC   C2B 1895   9.610   5.089   7.038
  127POPC   C3B 1896   9.329   5.111   6.704
  127POPC   C4B 1897   9.184   5.287   6.334
  128POPC   NC3 1898   9.730   9.928   8.365
  128POPC   PO4 1899   9.378   9.357   8.151
  128POPC   GL1 1900   9.596   9.517   7.821
  128POPC   GL2 1901   9.845   9.232   7.811
  128POPC   C1A 1902   9.712   9.755   7.425
  128POPC   D2A 1903   9.705   9.645   7.004
  128POPC   C3A 1904   9.635   9.921   6.659
  128POPC   C4A 1905   9.312   9.823   6.362
  128POPC   C1B 1906   9.582   9.179   7.430
  128POPC   C2B 1907   9.459   9.180   6.998
  128POPC   C3B 1908   9.496   9.408   6.601
  128POPC   C4B 1909   9.695   9.560   6.196
  129POPC   NC3 1910   2.666   7.997   7.998
  129POPC   PO4 1911   2.353   8.505   8.298
  129POPC   GL1 1912   2.680   8.537   7.778
  129POPC   GL2 1913   2.967   8.323   7.710
  129POPC   C1A 1914   2.599   8.398   7.252
  129POPC   D2A 1915   2.275   8.356   6.874
  129POPC   C3A 1916   2.396   8.473   6.413
  129POPC   C4A 1917   2.740   8.554   6.148
  129POPC   C1B 1918   2.849   7.993   7.386
  129POPC   C2B 1919   2.700   7.972   6.967
  129POPC   C3B 1920   2.760   8.265   6.685
  129POPC   C4B 1921   2.884   8.066   6.334
  130POPC   NC3 1922   9.048   9.721   7.933
  130POPC   PO4 1923   8.544   9.295   8.202
  130POPC   GL1 1924   8.780   9.294   7.806
  130POPC   GL2 1925   9.144   9.290   7.709
  130POPC   C1A 1926   8.756   9.346   7.359
  130POPC   D2A 1927   8.967   9.329   6.961
  130POPC   C3A 1928   8.693   9.259   6.614
  130POPC   C4A 1929   8.442   9.546   6.402
  130POPC   C1B 1930   9.252   9.559   7.324
  130POPC   C2B 1931   9.183   9.832   6.944
  130POPC   C3B 1932   8.877   9.758   6.612
  130POPC   C4B 1933   8.925   9.509   6.208
  131POPC   NC3 1934   8.739   2.845   8.118
  131POPC   PO4 1935   9.267   2.326   7.906
  131POPC   GL1 1936   9.106   2.504   7.549
  131POPC   GL2 1937   8.891   2.776   7.645
  131POPC   C1A 1938   8.817   2.531   7.217
  131POPC   D2A 1939   8.955   2.808   6.907
  131POPC   C3A 1940   9.061   2.632   6.535
  131POPC   C4A 1941   9.383   2.427   6.300
  131POPC   C1B 1942   8.662   3.001   7.329
  131POPC   C2B 1943   8.490   2.999   6.937
  131POPC   C3B 1944   8.581   2.876   6.550
  131POPC   C4B 1945   8.578   2.515   6.348
  132POPC   NC3 1946   2.722   8.763   8.219
  132POPC   PO4 1947   3.220   9.192   8.091
  132POPC   GL1 1948   2.923   9.060   7.763
  132POPC   GL2 1949   2.554   9.028   7.760
  132POPC   C1A 1950   2.911   8.778   7.394
  132POPC   D2A 1951   3.029   8.585   6.989
  132POPC   C3A 1952   3.062   8.747   6.548
  132POPC   C4A 1953   2.995   9.009   6.161
  132POPC   C1B 1954   2.412   8.847   7.340
  132POPC   C2B 1955   2.533   8.787   6.902
  132POPC   C3B 1956   2.595   8.933   6.492
  132POPC   C4B 1957   2.463   8.998   6.063
  133POPC   NC3 1958   2.814   0.408   8.163
  133POPC   PO4 1959   2.331   0.858   8.073
  133POPC   GL1 1960   2.448   0.579   7.803
  133POPC   GL2 1961   2.800   0.631   7.681
  133POPC   C1A 1962   2.389   0.528   7.390
  133POPC   D2A 1963   2.689   0.653   7.085
  133POPC   C3A 1964   2.520   0.651   6.695
  133POPC   C4A 1965   2.421   0.666   6.264
  133POPC   C1B 1966   2.838   0.255   7.363
  133POPC   C2B 1967   2.718   0.189   6.887
  133POPC   C3B 1968   2.775   0.322   6.406
  133POPC   C4B 1969   2.971   0.154   5.999
  134POPC   NC3 1970   5.828   3.069   8.284
  134POPC   PO4 1971   5.812   2.434   8.070
  134POPC   GL1 1972   5.797   2.789   7.762
  134POPC   GL2 1973   6.029   2.568   7.554
  134POPC   C1A 1974   5.921   3.006   7.361
  134POPC   D2A 1975   6.165   2.746   7.074
  134POPC   C3A 1976   6.247   2.966   6.758
  134POPC   C4A 1977   5.973   2.978   6.436
  134POPC   C1B 1978   5.706   2.558   7.196
  134POPC   C2B 1979   5.700   2.613   6.710
  134POPC   C3B 1980   5.473   2.608   6.293
  134POPC   C4B 1981   5.231   2.752   5.915
  135POPC   NC3 1982   8.585   5.403   8.019
  135POPC   PO4 1983   7.901   5.290   8.117
  135POPC   GL1 1984   8.197   5.166   7.794
  135POPC   GL2 1985   8.222   4.810   7.673
  135POPC   C1A 1986   8.204   5.244   7.371
  135POPC   D2A 1987   8.120   5.408   6.950
  135POPC   C3A 1988   8.263   5.194   6.568
  135POPC   C4A 1989   8.178   5.040   6.178
  135POPC   C1B 1990   8.113   4.767   7.219
  135POPC   C2B 1991   8.203   4.713   6.776
  135POPC   C3B 1992   7.943   4.643   6.428
  135POPC   C4B 1993   7.866   4.684   5.923
  136POPC   NC3 1994   6.803   8.250   8.059
  136POPC   PO4 1995   6.728   7.604   8.054
  136POPC   GL1 1996   6.822   7.899   7.660
  136POPC   GL2 1997   6.616   8.230   7.587
  136POPC   C1A 1998   6.734   7.943   7.196
  136POPC   D2A 1999   6.674   7.738   6.814
  136POPC   C3A 2000   6.774   7.966   6.452
  136POPC   C4A 2001   6.444   8.002   6.141
  136POPC   C1B 2002   6.224   8.174   7.301
  136POPC   C2B 2003   6.055   8.147   6.863
  136POPC   C3B 2004   6.195   8.304   6.469
  136POPC   C4B 2005   6.610   8.451   6.480
  137POPC   NC3 2006   8.895   0.423   8.125
  137POPC   PO4 2007   9.431   9.982   8.013
  137POPC   GL1 2008   9.171   0.232   7.700
  137POPC   GL2 2009   8.819   0.366   7.632
  137POPC   C1A 2010   9.270   0.283   7.254
  137POPC   D2A 2011   9.084   0.460   6.869
  137POPC   C3A 2012   9.086   0.265   6.457
  137POPC   C4A 2013   9.225   0.152   6.010
  137POPC   C1B 2014   8.777   0.181   7.220
  137POPC   C2B 2015   8.579   0.403   6.888
  137POPC   C3B 2016   8.620   0.524   6.480
  137POPC   C4B 2017   8.773   0.465   6.063
  138POPC   NC3 2018   5.533   7.307   8.091
  138POPC   PO4 2019   6.082   7.199   8.349
  138POPC   GL1 2020   5.928   7.356   7.811
  138POPC   GL2 2021   6.032   7.684   7.733
  138POPC   C1A 2022   6.098   7.418   7.326
  138POPC   D2A 2023   5.995   7.634   6.929
  138POPC   C3A 2024   5.923   7.335   6.573
  138POPC   C4A 2025   6.187   7.139   6.206
  138POPC   C1B 2026   5.626   7.565   7.445
  138POPC   C2B 2027   5.503   7.488   6.970
  138POPC   C3B 2028   5.437   7.573   6.478
  138POPC   C4B 2029   5.394   7.414   6.020
  139POPC   NC3 2030   0.390   3.523   8.396
  139POPC   PO4 2031   0.977   3.665   8.094
  139POPC   GL1 2032   0.845   3.426   7.754
  139POPC   GL2 2033   0.601   3.632   7.606
  139POPC   C1A 2034   0.711   3.204   7.397
  139POPC   D2A 2035   0.532   3.487   7.086
  139POPC   C3A 2036   0.745   3.487   6.706
  139POPC   C4A 2037   0.654   3.537   6.302
  139POPC   C1B 2038   0.225   3.800   7.359
  139POPC   C2B 2039   0.260   3.961   6.964
  139POPC   C3B 2040   0.245   3.682   6.624
  139POPC   C4B 2041   0.177   3.375   6.295
  140POPC   NC3 2042   8.736   8.299   8.246
  140POPC   PO4 2043   9.246   7.766   8.216
  140POPC   GL1 2044   9.087   7.907   7.812
  140POPC   GL2 2045   9.085   8.265   7.850
  140POPC   C1A 2046   8.825   7.982   7.408
  140POPC   D2A 2047   8.906   7.874   6.964
  140POPC   C3A 2048   8.733   7.940   6.557
  140POPC   C4A 2049   8.858   7.981   6.113
  140POPC   C1B 2050   8.966   8.473   7.459
  140POPC   C2B 2051   8.837   8.386   7.033
  140POPC   C3B 2052   9.037   8.349   6.624
  140POPC   C4B 2053   8.913   8.463   6.224
  141POPC   NC3 2054   6.900   3.394   8.054
  141POPC   PO4 2055   6.247   3.123   8.113
  141POPC   GL1 2056   6.341   3.028   7.660
  141POPC   GL2 2057   6.558   3.325   7.669
  141POPC   C1A 2058   6.409   3.173   7.205
  141POPC   D2A 2059   6.630   3.309   6.803
  141POPC   C3A 2060   6.381   3.317   6.413
  141POPC   C4A 2061   6.098   3.325   6.047
  141POPC   C1B 2062   6.820   3.481   7.316
  141POPC   C2B 2063   6.873   3.737   6.936
  141POPC   C3B 2064   6.725   3.727   6.483
  141POPC   C4B 2065   6.589   3.614   6.057
  142POPC   NC3 2066   1.429   3.758   8.247
  142POPC   PO4 2067   1.490   3.077   8.167
  142POPC   GL1 2068   1.369   3.310   7.787
  142POPC   GL2 2069   1.337   3.655   7.707
  142POPC   C1A 2070   1.220   3.151   7.389
  142POPC   D2A 2071   1.028   3.161   6.981
  142POPC   C3A 2072   1.224   3.217   6.591
  142POPC   C4A 2073   1.008   3.180   6.230
  142POPC   C1B 2074   1.060   3.627   7.313
  142POPC   C2B 2075   1.232   3.645   6.880
  142POPC   C3B 2076   1.124   3.733   6.443
  142POPC   C4B 2077   0.880   4.004   6.181
  143POPC   NC3 2078   8.786   1.268   8.082
  143POPC   PO4 2079   8.481   0.687   8.084
  143POPC   GL1 2080   8.668   0.900   7.719
  143POPC   GL2 2081   9.011   0.856   7.769
  143POPC   C1A 2082   8.729   1.188   7.340
  143POPC   D2A 2083   8.665   1.447   6.957
  143POPC   C3A 2084   8.587   1.225   6.546
  143POPC   C4A 2085   8.660   1.325   6.090
  143POPC   C1B 2086   8.977   0.730   7.314
  143POPC   C2B 2087   8.797   0.886   6.910
  143POPC   C3B 2088   8.959   0.893   6.484
  143POPC   C4B 2089   9.216   1.143   6.233
  144POPC   NC3 2090   2.044   3.842   3.777
  144POPC   PO4 2091   1.988   3.118   3.895
  144POPC   GL1 2092   2.021   3.479   4.158
  144POPC   GL2 2093   1.683   3.657   4.159
  144POPC   C1A 2094   2.240   3.516   4.562
  144POPC   D2A 2095   2.383   3.578   4.993
  144POPC   C3A 2096   2.299   3.312   5.332
  144POPC   C4A 2097   2.225   3.384   5.783
  144POPC   C1B 2098   1.762   3.691   4.623
  144POPC   C2B 2099   1.859   3.434   5.003
  144POPC   C3B 2100   1.845   3.510   5.456
  144POPC   C4B 2101   1.798   3.705   5.892
  145POPC   NC3 2102   2.571   2.064   4.015
  145POPC   PO4 2103   2.553   1.467   3.749
  145POPC   GL1 2104   2.430   1.557   4.186
  145POPC   GL2 2105   2.744   1.727   4.344
  145POPC   C1A 2106   2.362   1.705   4.636
  145POPC   D2A 2107   2.708   1.623   4.933
  145POPC   C3A 2108   2.597   1.507   5.349
  145POPC   C4A 2109   2.482   1.693   5.724
  145POPC   C1B 2110   2.963   1.993   4.652
  145POPC   C2B 2111   3.067   2.020   5.087
  145POPC   C3B 2112   2.847   1.936   5.447
  145POPC   C4B 2113   3.006   1.593   5.721
  146POPC   NC3 2114   7.367   7.037   3.853
  146POPC   PO4 2115   7.707   6.615   4.081
  146POPC   GL1 2116   7.412   6.699   4.370
  146POPC   GL2 2117   7.110   6.905   4.273
  146POPC   C1A 2118   7.453   6.598   4.801
  146POPC   D2A 2119   7.484   6.850   5.167
  146POPC   C3A 2120   7.568   6.618   5.508
  146POPC   C4A 2121   7.430   6.642   5.935
  146POPC   C1B 2122   6.981   6.797   4.705
  146POPC   C2B 2123   7.034   6.592   5.136
  146POPC   C3B 2124   7.063   6.478   5.584
  146POPC   C4B 2125   7.137   6.206   5.931
  147POPC   NC3 2126   5.656   9.232   4.033
  147POPC   PO4 2127   5.395   8.628   3.951
  147POPC   GL1 2128   5.697   8.776   4.271
  147POPC   GL2 2129   6.012   8.845   4.411
  147POPC   C1A 2130   5.652   8.876   4.732
  147POPC   D2A 2131   5.863   9.006   5.097
  147POPC   C3A 2132   5.689   8.769   5.438
  147POPC   C4A 2133   5.499   8.876   5.836
  147POPC   C1B 2134   6.109   8.614   4.732
  147POPC   C2B 2135   6.246   8.673   5.103
  147POPC   C3B 2136   6.275   8.711   5.504
  147POPC   C4B 2137   6.014   8.847   5.826
  148POPC   NC3 2138   0.987   5.091   3.828
  148POPC   PO4 2139   1.602   5.316   3.987
  148POPC   GL1 2140   1.174   5.305   4.258
  148POPC   GL2 2141   1.234   4.982   4.416
  148POPC   C1A 2142   0.918   5.255   4.707
  148POPC   D2A 2143   0.944   5.056   5.144
  148POPC   C3A 2144   0.992   5.166   5.599
  148POPC   C4A 2145   0.870   5.345   6.029
  148POPC   C1B 2146   1.379   5.114   4.841
  148POPC   C2B 2147   1.435   5.076   5.283
  148POPC   C3B 2148   1.487   5.109   5.714
  148POPC   C4B 2149   1.823   5.217   5.968
  149POPC   NC3 2150   6.539   8.126   3.947
  149POPC   PO4 2151   6.162   8.626   4.003
  149POPC   GL1 2152   6.315   8.315   4.371
  149POPC   GL2 2153   6.438   7.928   4.410
  149POPC   C1A 2154   6.488   8.249   4.809
  149POPC   D2A 2155   6.298   8.189   5.222
  149POPC   C3A 2156   6.470   8.225   5.603
  149POPC   C4A 2157   6.319   8.444   5.947
  149POPC   C1B 2158   6.775   7.845   4.751
  149POPC   C2B 2159   6.786   8.004   5.162
  149POPC   C3B 2160   6.832   7.858   5.586
  149POPC   C4B 2161   6.864   8.148   5.930
  150POPC   NC3 2162   8.978   2.439   3.913
  150POPC   PO4 2163   8.959   3.075   3.929
  150POPC   GL1 2164   9.001   2.983   4.336
  150POPC   GL2 2165   9.038   2.627   4.387
  150POPC   C1A 2166   8.830   3.180   4.686
  150POPC   D2A 2167   8.675   2.986   5.063
  150POPC   C3A 2168   8.801   3.083   5.485
  150POPC   C4A 2169   8.416   3.134   5.719
  150POPC   C1B 2170   9.088   2.750   4.831
  150POPC   C2B 2171   8.951   2.522   5.203
  150POPC   C3B 2172   8.890   2.591   5.641
  150POPC   C4B 2173   8.954   2.587   6.042
  151POPC   NC3 2174   8.045   2.185   4.004
  151POPC   PO4 2175   8.666   2.140   4.111
  151POPC   GL1 2176   8.490   1.824   4.384
  151POPC   GL2 2177   8.145   1.922   4.428
  151POPC   C1A 2178   8.474   1.778   4.821
  151POPC   D2A 2179   8.617   1.776   5.224
  151POPC   C3A 2180   8.266   1.807   5.512
  151POPC   C4A 2181   8.284   1.720   5.959
  151POPC   C1B 2182   7.990   2.252   4.707
  151POPC   C2B 2183   8.015   2.134   5.123
  151POPC   C3B 2184   8.101   2.297   5.504
  151POPC   C4B 2185   7.978   2.110   5.845
  152POPC   NC3 2186   8.813   4.151   4.026
  152POPC   PO4 2187   8.971   4.804   3.827
  152POPC   GL1 2188   9.002   4.576   4.267
  152POPC   GL2 2189   9.161   4.288   4.365
  152POPC   C1A 2190   9.129   4.609   4.742
  152POPC   D2A 2191   9.324   4.555   5.153
  152POPC   C3A 2192   8.970   4.551   5.450
  152POPC   C4A 2193   8.746   4.432   5.861
  152POPC   C1B 2194   8.846   4.119   4.690
  152POPC   C2B 2195   8.806   3.970   5.128
  152POPC   C3B 2196   8.907   4.039   5.540
  152POPC   C4B 2197   9.073   3.891   5.901
  153POPC   NC3 2198   7.358   7.776   4.215
  153POPC   PO4 2199   7.667   7.346   3.711
  153POPC   GL1 2200   7.537   7.218   4.271
  153POPC   GL2 2201   7.586   7.517   4.580
  153POPC   C1A 2202   7.401   7.091   4.691
  153POPC   D2A 2203   7.497   7.346   5.048
  153POPC   C3A 2204   7.202   7.266   5.335
  153POPC   C4A 2205   7.446   7.090   5.670
  153POPC   C1B 2206   7.261   7.742   4.833
  153POPC   C2B 2207   7.243   7.791   5.243
  153POPC   C3B 2208   7.521   7.620   5.521
  153POPC   C4B 2209   7.195   7.510   5.790
  154POPC   NC3 2210   1.174   3.505   3.892
  154POPC   PO4 2211   0.585   3.688   4.030
  154POPC   GL1 2212   0.839   3.680   4.397
  154POPC   GL2 2213   1.123   3.442   4.404
  154POPC   C1A 2214   0.899   3.656   4.855
  154POPC   D2A 2215   1.022   3.393   5.195
  154POPC   C3A 2216   0.865   3.578   5.534
  154POPC   C4A 2217   0.968   3.598   5.922
  154POPC   C1B 2218   1.356   3.452   4.810
  154POPC   C2B 2219   1.435   3.710   5.184
  154POPC   C3B 2220   1.378   3.592   5.627
  154POPC   C4B 2221   1.416   3.468   6.114
  155POPC   NC3 2222   0.219   4.946   4.191
  155POPC   PO4 2223   0.759   4.633   3.861
  155POPC   GL1 2224   0.826   4.696   4.277
  155POPC   GL2 2225   0.704   5.021   4.326
  155POPC   C1A 2226   0.828   4.770   4.722
  155POPC   D2A 2227   0.472   4.935   4.998
  155POPC   C3A 2228   0.524   4.964   5.439
  155POPC   C4A 2229   0.292   4.712   5.732
  155POPC   C1B 2230   0.420   5.300   4.655
  155POPC   C2B 2231   0.106   5.373   5.020
  155POPC   C3B 2232   0.218   5.488   5.456
  155POPC   C4B 2233   0.395   5.287   5.826
  156POPC   NC3 2234   9.070   8.139   3.755
  156POPC   PO4 2235   8.605   7.754   3.844
  156POPC   GL1 2236   8.726   7.926   4.223
  156POPC   GL2 2237   9.057   7.874   4.231
  156POPC   C1A 2238   8.543   8.082   4.636
  156POPC   D2A 2239   8.414   8.328   5.031
  156POPC   C3A 2240   8.728   8.343   5.389
  156POPC   C4A 2241   8.581   8.343   5.821
  156POPC   C1B 2242   9.069   8.191   4.542
  156POPC   C2B 2243   9.319   8.312   4.897
  156POPC   C3B 2244   9.298   8.363   5.341
  156POPC   C4B 2245   9.095   8.280   5.751
  157POPC   NC3 2246   7.599   2.648   3.907
  157POPC   PO4 2247   7.022   2.267   3.890
  157POPC   GL1 2248   7.222   2.435   4.253
  157POPC   GL2 2249   7.246   2.781   4.241
  157POPC   C1A 2250   7.128   2.538   4.679
  157POPC   D2A 2251   7.070   2.427   5.093
  157POPC   C3A 2252   7.188   2.648   5.448
  157POPC   C4A 2253   7.201   2.878   5.813
  157POPC   C1B 2254   7.599   2.667   4.553
  157POPC   C2B 2255   7.581   2.626   4.989
  157POPC   C3B 2256   7.616   2.374   5.349
  157POPC   C4B 2257   7.605   2.479   5.772
  158POPC   NC3 2258   5.030   0.543   4.065
  158POPC   PO4 2259   5.113   9.913   4.026
  158POPC   GL1 2260   5.212   0.120   4.441
  158POPC   GL2 2261   5.305   0.494   4.511
  158POPC   C1A 2262   5.110   0.211   4.883
  158POPC   D2A 2263   5.314   0.497   5.195
  158POPC   C3A 2264   5.334   0.259   5.591
  158POPC   C4A 2265   5.549   0.313   5.999
  158POPC   C1B 2266   4.972   0.712   4.728
  158POPC   C2B 2267   4.806   0.582   5.104
  158POPC   C3B 2268   4.902   0.542   5.521
  158POPC   C4B 2269   4.616   0.660   5.808
  159POPC   NC3 2270   1.371   6.705   4.026
  159POPC   PO4 2271   0.875   6.218   3.881
  159POPC   GL1 2272   1.000   6.376   4.251
  159POPC   GL2 2273   1.334   6.372   4.412
  159POPC   C1A 2274   0.908   6.635   4.601
  159POPC   D2A 2275   0.979   6.846   5.003
  159POPC   C3A 2276   1.154   6.627   5.353
  159POPC   C4A 2277   0.949   6.744   5.736
  159POPC   C1B 2278   1.405   6.741   4.697
  159POPC   C2B 2279   1.511   6.938   5.097
  159POPC   C3B 2280   1.649   6.782   5.511
  159POPC   C4B 2281   1.445   6.469   5.768
  160POPC   NC3 2282   0.585   5.821   3.794
  160POPC   PO4 2283   0.515   5.141   3.874
  160POPC   GL1 2284   0.648   5.493   4.183
  160POPC   GL2 2285   0.370   5.679   4.266
  160POPC   C1A 2286   0.724   5.702   4.628
  160POPC   D2A 2287   0.596   5.545   5.064
  160POPC   C3A 2288   0.770   5.609   5.476
  160POPC   C4A 2289   0.670   5.816   5.877
  160POPC   C1B 2290   0.215   5.778   4.693
  160POPC   C2B 2291   0.342   6.020   5.039
  160POPC   C3B 2292   0.422   5.982   5.458
  160POPC   C4B 2293   0.161   5.884   5.815
  161POPC   NC3 2294   0.544   7.535   3.889
  161POPC   PO4 2295   0.033   7.055   3.858
  161POPC   GL1 2296   0.203   7.306   4.193
  161POPC   GL2 2297   0.519   7.113   4.220
  161POPC   C1A 2298   0.279   7.439   4.627
  161POPC   D2A 2299   0.153   7.633   5.045
  161POPC   C3A 2300   0.325   7.469   5.446
  161POPC   C4A 2301   0.551   7.564   5.849
  161POPC   C1B 2302   0.688   7.125   4.645
  161POPC   C2B 2303   0.659   7.358   5.042
  161POPC   C3B 2304   0.788   7.263   5.485
  161POPC   C4B 2305   0.537   7.057   5.777
  162POPC   NC3 2306   4.049   3.627   3.895
  162POPC   PO4 2307   4.278   4.129   3.968
  162POPC   GL1 2308   4.259   3.767   4.321
  162POPC   GL2 2309   4.436   3.431   4.305
  162POPC   C1A 2310   4.216   3.581   4.752
  162POPC   D2A 2311   4.324   3.380   5.159
  162POPC   C3A 2312   4.043   3.439   5.523
  162POPC   C4A 2313   3.985   3.806   5.828
  162POPC   C1B 2314   4.601   3.178   4.695
  162POPC   C2B 2315   4.621   2.970   5.122
  162POPC   C3B 2316   4.342   2.968   5.493
  162POPC   C4B 2317   4.301   3.123   5.915
  163POPC   NC3 2318   8.125   7.050   3.904
  163POPC   PO4 2319   7.785   7.610   4.148
  163POPC   GL1 2320   8.166   7.369   4.295
  163POPC   GL2 2321   8.424   7.568   4.414
  163POPC   C1A 2322   8.347   7.104   4.663
  163POPC   D2A 2323   8.446   6.947   5.098
  163POPC   C3A 2324   8.091   6.873   5.389
  163POPC   C4A 2325   7.938   7.144   5.703
  163POPC   C1B 2326   8.089   7.550   4.754
  163POPC   C2B 2327   8.074   7.309   5.118
  163POPC   C3B 2328   8.337   7.361   5.477
  163POPC   C4B 2329   8.028   7.647   5.621
  164POPC   NC3 2330   8.163   7.780   3.974
  164POPC   PO4 2331   7.548   8.130   3.927
  164POPC   GL1 2332   7.795   8.079   4.302
  164POPC   GL2 2333   8.095   8.265   4.232
  164POPC   C1A 2334   8.021   8.061   4.715
  164POPC   D2A 2335   8.008   7.926   5.158
  164POPC   C3A 2336   8.283   8.076   5.489
  164POPC   C4A 2337   8.463   7.848   5.831
  164POPC   C1B 2338   7.832   8.506   4.549
  164POPC   C2B 2339   7.902   8.495   5.002
  164POPC   C3B 2340   8.012   8.512   5.450
  164POPC   C4B 2341   8.063   8.399   5.924
  165POPC   NC3 2342   6.387   0.522   3.949
  165POPC   PO4 2343   6.083   1.062   4.084
  165POPC   GL1 2344   6.395   0.854   4.353
  165POPC   GL2 2345   6.675   0.595   4.355
  165POPC   C1A 2346   6.520   0.837   4.776
  165POPC   D2A 2347   6.380   0.576   5.075
  165POPC   C3A 2348   6.280   0.759   5.445
  165POPC   C4A 2349   6.312   0.613   5.838
  165POPC   C1B 2350   6.632   0.315   4.696
  165POPC   C2B 2351   6.619   0.111   5.098
  165POPC   C3B 2352   6.675   0.352   5.442
  165POPC   C4B 2353   6.556   0.172   5.784
  166POPC   NC3 2354   3.164   8.729   3.971
  166POPC   PO4 2355   3.794   8.951   4.013
  166POPC   GL1 2356   3.457   8.892   4.372
  166POPC   GL2 2357   3.367   9.213   4.561
  166POPC   C1A 2358   3.308   8.792   4.816
  166POPC   D2A 2359   3.387   9.128   5.116
  166POPC   C3A 2360   3.277   9.105   5.569
  166POPC   C4A 2361   3.362   9.335   5.927
  166POPC   C1B 2362   3.782   9.116   4.719
  166POPC   C2B 2363   3.846   8.893   5.075
  166POPC   C3B 2364   3.674   8.766   5.446
  166POPC   C4B 2365   3.762   9.062   5.737
  167POPC   NC3 2366   7.169   9.317   3.861
  167POPC   PO4 2367   6.936   9.938   3.924
  167POPC   GL1 2368   7.083   9.663   4.286
  167POPC   GL2 2369   7.437   9.543   4.242
  167POPC   C1A 2370   7.117   9.422   4.725
  167POPC   D2A 2371   7.328   9.305   5.127
  167POPC   C3A 2372   7.125   9.446   5.533
  167POPC   C4A 2373   7.174   9.582   5.989
  167POPC   C1B 2374   7.423   9.820   4.622
  167POPC   C2B 2375   7.572   9.783   5.041
  167POPC   C3B 2376   7.589   9.648   5.444
  167POPC   C4B 2377   7.381   9.940   5.696
  168POPC   NC3 2378   9.022   7.492   3.908
  168POPC   PO4 2379   8.574   7.094   4.047
  168POPC   GL1 2380   8.821   7.074   4.384
  168POPC   GL2 2381   8.920   7.395   4.383
  168POPC   C1A 2382   8.829   7.177   4.831
  168POPC   D2A 2383   8.814   7.318   5.240
  168POPC   C3A 2384   8.821   7.011   5.595
  168POPC   C4A 2385   9.071   7.158   5.979
  168POPC   C1B 2386   8.905   7.712   4.696
  168POPC   C2B 2387   8.922   8.008   5.044
  168POPC   C3B 2388   8.949   7.866   5.485
  168POPC   C4B 2389   8.809   7.509   5.714
  169POPC   NC3 2390   3.920   8.055   4.062
  169POPC   PO4 2391   3.265   7.843   3.870
  169POPC   GL1 2392   3.437   8.066   4.258
  169POPC   GL2 2393   3.611   8.413   4.259
  169POPC   C1A 2394   3.404   8.183   4.703
  169POPC   D2A 2395   3.246   8.055   5.112
  169POPC   C3A 2396   3.453   8.126   5.502
  169POPC   C4A 2397   3.351   7.945   5.909
  169POPC   C1B 2398   3.740   8.567   4.681
  169POPC   C2B 2399   3.851   8.378   5.108
  169POPC   C3B 2400   3.940   8.343   5.566
  169POPC   C4B 2401   3.687   8.373   5.924
  170POPC   NC3 2402   7.260   0.932   3.930
  170POPC   PO4 2403   7.394   1.568   3.915
  170POPC   GL1 2404   7.388   1.238   4.300
  170POPC   GL2 2405   7.719   1.245   4.448
  170POPC   C1A 2406   7.410   1.023   4.766
  170POPC   D2A 2407   7.492   1.201   5.204
  170POPC   C3A 2408   7.323   0.921   5.527
  170POPC   C4A 2409   6.938   0.744   5.632
  170POPC   C1B 2410   7.364   1.525   4.701
  170POPC   C2B 2411   7.107   1.522   5.069
  170POPC   C3B 2412   7.235   1.567   5.509
  170POPC   C4B 2413   7.501   1.333   5.756
  171POPC   NC3 2414   2.255   6.237   3.947
  171POPC   PO4 2415   1.616   6.316   4.007
  171POPC   GL1 2416   1.909   6.105   4.303
  171POPC   GL2 2417   1.909   5.745   4.304
  171POPC   C1A 2418   2.132   6.063   4.718
  171POPC   D2A 2419   1.972   5.957   5.173
  171POPC   C3A 2420   2.074   5.869   5.639
  171POPC   C4A 2421   2.181   5.869   6.121
  171POPC   C1B 2422   1.681   5.867   4.706
  171POPC   C2B 2423   1.446   5.982   5.093
  171POPC   C3B 2424   1.569   5.994   5.555
  171POPC   C4B 2425   1.689   5.721   5.921
  172POPC   NC3 2426   0.709   4.132   3.879
  172POPC   PO4 2427   1.350   3.851   3.662
  172POPC   GL1 2428   1.231   3.938   4.148
  172POPC   GL2 2429   0.982   4.185   4.290
  172POPC   C1A 2430   1.276   3.922   4.623
  172POPC   D2A 2431   1.108   4.123   5.015
  172POPC   C3A 2432   1.057   4.062   5.475
  172POPC   C4A 2433   0.656   4.007   5.718
  172POPC   C1B 2434   1.200   4.439   4.600
  172POPC   C2B 2435   1.227   4.634   5.008
  172POPC   C3B 2436   1.193   4.644   5.451
  172POPC   C4B 2437   1.484   4.506   5.758
  173POPC   NC3 2438   2.162   7.293   3.858
  173POPC   PO4 2439   2.433   6.650   3.856
  173POPC   GL1 2440   2.194   6.587   4.331
  173POPC   GL2 2441   1.810   6.606   4.377
  173POPC   C1A 2442   2.022   6.782   4.785
  173POPC   D2A 2443   1.999   7.059   5.179
  173POPC   C3A 2444   2.307   7.026   5.510
  173POPC   C4A 2445   2.376   6.689   5.797
  173POPC   C1B 2446   1.732   6.364   4.741
  173POPC   C2B 2447   1.738   6.424   5.165
  173POPC   C3B 2448   1.985   6.381   5.544
  173POPC   C4B 2449   1.871   6.228   5.941
  174POPC   NC3 2450   7.130   4.591   4.040
  174POPC   PO4 2451   7.462   4.047   3.994
  174POPC   GL1 2452   7.479   4.193   4.381
  174POPC   GL2 2453   7.781   4.062   4.418
  174POPC   C1A 2454   7.378   4.117   4.814
  174POPC   D2A 2455   7.385   4.108   5.266
  174POPC   C3A 2456   7.077   4.077   5.651
  174POPC   C4A 2457   6.973   3.980   6.096
  174POPC   C1B 2458   7.866   4.332   4.741
  174POPC   C2B 2459   8.020   4.328   5.137
  174POPC   C3B 2460   7.727   4.474   5.415
  174POPC   C4B 2461   7.557   4.267   5.750
  175POPC   NC3 2462   4.171   7.349   4.177
  175POPC   PO4 2463   3.975   6.782   4.158
  175POPC   GL1 2464   3.965   7.009   4.584
  175POPC   GL2 2465   3.928   7.383   4.626
  175POPC   C1A 2466   4.122   6.988   5.045
  175POPC   D2A 2467   4.441   6.982   5.398
  175POPC   C3A 2468   4.325   7.023   5.849
  175POPC   C4A 2469   4.235   6.901   6.284
  175POPC   C1B 2470   4.034   7.497   5.013
  175POPC   C2B 2471   4.020   7.353   5.427
  175POPC   C3B 2472   4.222   7.536   5.775
  175POPC   C4B 2473   4.229   7.411   6.188
  176POPC   NC3 2474   8.634   4.891   4.131
  176POPC   PO4 2475   8.284   5.385   3.710
  176POPC   GL1 2476   8.282   5.285   4.120
  176POPC   GL2 2477   8.080   4.975   4.134
  176POPC   C1A 2478   8.350   5.275   4.566
  176POPC   D2A 2479   8.241   5.141   4.976
  176POPC   C3A 2480   8.315   5.251   5.420
  176POPC   C4A 2481   8.454   5.332   5.848
  176POPC   C1B 2482   7.932   4.936   4.574
  176POPC   C2B 2483   7.864   4.801   5.008
  176POPC   C3B 2484   8.139   4.775   5.344
  176POPC   C4B 2485   8.311   4.827   5.729
  177POPC   NC3 2486   0.313   4.752   3.730
  177POPC   PO4 2487   0.222   4.096   3.884
  177POPC   GL1 2488   0.406   4.399   4.198
  177POPC   GL2 2489   0.458   4.077   4.355
  177POPC   C1A 2490   0.406   4.502   4.688
  177POPC   D2A 2491   0.720   4.479   5.103
  177POPC   C3A 2492   0.708   4.488   5.559
  177POPC   C4A 2493   0.536   4.398   6.025
  177POPC   C1B 2494   0.713   4.103   4.714
  177POPC   C2B 2495   0.605   3.988   5.163
  177POPC   C3B 2496   0.293   4.255   5.404
  177POPC   C4B 2497   0.125   4.177   5.839
  178POPC   NC3 2498   8.665   9.715   4.088
  178POPC   PO4 2499   9.279   9.431   3.866
  178POPC   GL1 2500   9.108   9.588   4.266
  178POPC   GL2 2501   9.098   9.953   4.338
  178POPC   C1A 2502   8.986   9.541   4.684
  178POPC   D2A 2503   9.149   9.377   5.050
  178POPC   C3A 2504   8.969   9.491   5.462
  178POPC   C4A 2505   9.046   9.219   5.809
  178POPC   C1B 2506   8.853   0.031   4.747
  178POPC   C2B 2507   8.956   9.946   5.209
  178POPC   C3B 2508   8.900   9.958   5.698
  178POPC   C4B 2509   8.729   9.985   6.176
  179POPC   NC3 2510   3.510   7.442   3.704
  179POPC   PO4 2511   4.076   7.675   3.828
  179POPC   GL1 2512   3.698   7.601   4.156
  179POPC   GL2 2513   3.654   7.259   4.229
  179POPC   C1A 2514   3.502   7.663   4.598
  179POPC   D2A 2515   3.312   7.567   5.010
  179POPC   C3A 2516   3.506   7.619   5.429
  179POPC   C4A 2517   3.312   7.424   5.824
  179POPC   C1B 2518   3.469   7.144   4.634
  179POPC   C2B 2519   3.632   7.180   5.065
  179POPC   C3B 2520   3.565   7.120   5.505
  179POPC   C4B 2521   3.822   7.204   5.900
  180POPC   NC3 2522   9.955   2.632   3.824
  180POPC   PO4 2523   9.955   3.225   4.172
  180POPC   GL1 2524   9.744   3.066   4.440
  180POPC   GL2 2525   9.508   2.813   4.363
  180POPC   C1A 2526   9.735   2.911   4.805
  180POPC   D2A 2527   9.567   3.081   5.099
  180POPC   C3A 2528   9.778   2.907   5.437
  180POPC   C4A 2529   9.605   3.088   5.770
  180POPC   C1B 2530   9.485   2.473   4.680
  180POPC   C2B 2531   9.485   2.549   5.119
  180POPC   C3B 2532   9.286   2.822   5.437
  180POPC   C4B 2533   9.402   2.595   5.803
  181POPC   NC3 2534   1.022   1.236   3.991
  181POPC   PO4 2535   0.878   0.672   3.673
  181POPC   GL1 2536   1.173   0.772   4.133
  181POPC   GL2 2537   1.430   1.027   4.289
  181POPC   C1A 2538   1.040   0.969   4.600
  181POPC   D2A 2539   1.200   1.260   4.926
  181POPC   C3A 2540   1.189   1.178   5.370
  181POPC   C4A 2541   1.171   1.101   5.815
  181POPC   C1B 2542   1.625   1.323   4.665
  181POPC   C2B 2543   1.620   1.507   5.140
  181POPC   C3B 2544   1.602   1.383   5.612
  181POPC   C4B 2545   1.539   1.365   6.090
  182POPC   NC3 2546   2.175   1.637   3.522
  182POPC   PO4 2547   1.928   1.793   4.134
  182POPC   GL1 2548   1.800   2.040   4.473
  182POPC   GL2 2549   1.699   2.359   4.346
  182POPC   C1A 2550   1.905   1.881   4.887
  182POPC   D2A 2551   2.310   1.895   5.112
  182POPC   C3A 2552   2.365   2.145   5.436
  182POPC   C4A 2553   2.131   2.061   5.786
  182POPC   C1B 2554   1.755   2.555   4.747
  182POPC   C2B 2555   1.964   2.348   5.121
  182POPC   C3B 2556   1.822   2.018   5.388
  182POPC   C4B 2557   1.668   2.256   5.732
  183POPC   NC3 2558   7.755   1.235   3.930
  183POPC   PO4 2559   8.364   1.538   3.719
  183POPC   GL1 2560   8.154   1.463   4.191
  183POPC   GL2 2561   8.376   1.244   4.349
  183POPC   C1A 2562   8.120   1.419   4.727
  183POPC   D2A 2563   8.285   1.385   5.206
  183POPC   C3A 2564   8.013   1.377   5.645
  183POPC   C4A 2565   7.796   1.621   6.042
  183POPC   C1B 2566   8.495   1.060   4.782
  183POPC   C2B 2567   8.473   0.909   5.216
  183POPC   C3B 2568   8.462   1.111   5.656
  183POPC   C4B 2569   8.426   0.871   6.095
  184POPC   NC3 2570   8.260   8.923   3.853
  184POPC   PO4 2571   7.603   9.124   3.860
  184POPC   GL1 2572   7.944   9.132   4.192
  184POPC   GL2 2573   8.110   8.836   4.311
  184POPC   C1A 2574   8.077   9.236   4.635
  184POPC   D2A 2575   7.842   9.336   5.011
  184POPC   C3A 2576   8.012   9.256   5.408
  184POPC   C4A 2577   7.832   8.964   5.705
  184POPC   C1B 2578   8.271   8.739   4.697
  184POPC   C2B 2579   8.229   8.904   5.082
  184POPC   C3B 2580   8.447   8.755   5.413
  184POPC   C4B 2581   8.308   8.807   5.780
  185POPC   NC3 2582   8.124   9.469   3.727
  185POPC   PO4 2583   8.353   0.101   3.963
  185POPC   GL1 2584   8.226   9.824   4.290
  185POPC   GL2 2585   7.954   9.635   4.214
  185POPC   C1A 2586   8.430   9.664   4.690
  185POPC   D2A 2587   8.630   9.585   5.066
  185POPC   C3A 2588   8.512   9.768   5.438
  185POPC   C4A 2589   8.534   9.640   5.873
  185POPC   C1B 2590   7.935   9.752   4.691
  185POPC   C2B 2591   8.085   9.754   5.155
  185POPC   C3B 2592   8.035   9.805   5.618
  185POPC   C4B 2593   7.850   0.124   5.880
  186POPC   NC3 2594   5.017   2.135   3.903
  186POPC   PO4 2595   5.160   1.445   4.069
  186POPC   GL1 2596   5.112   1.692   4.407
  186POPC   GL2 2597   5.141   2.037   4.377
  186POPC   C1A 2598   4.959   1.767   4.821
  186POPC   D2A 2599   5.144   1.887   5.224
  186POPC   C3A 2600   4.955   1.964   5.622
  186POPC   C4A 2601   4.817   1.934   6.056
  186POPC   C1B 2602   4.999   2.283   4.747
  186POPC   C2B 2603   4.916   2.348   5.193
  186POPC   C3B 2604   5.204   2.409   5.529
  186POPC   C4B 2605   5.227   2.246   5.942
  187POPC   NC3 2606   3.398   2.874   3.856
  187POPC   PO4 2607   4.056   3.166   3.965
  187POPC   GL1 2608   3.805   2.982   4.310
  187POPC   GL2 2609   3.545   2.720   4.340
  187POPC   C1A 2610   3.597   3.052   4.725
  187POPC   D2A 2611   3.314   2.795   4.953
  187POPC   C3A 2612   3.260   2.940   5.363
  187POPC   C4A 2613   3.003   2.829   5.707
  187POPC   C1B 2614   3.838   2.598   4.710
  187POPC   C2B 2615   3.724   2.565   5.159
  187POPC   C3B 2616   3.448   2.490   5.508
  187POPC   C4B 2617   3.546   2.336   5.907
  188POPC   NC3 2618   2.863   8.072   3.771
  188POPC   PO4 2619   2.265   7.821   3.877
  188POPC   GL1 2620   2.538   8.048   4.219
  188POPC   GL2 2621   2.909   8.190   4.254
  188POPC   C1A 2622   2.437   8.183   4.644
  188POPC   D2A 2623   2.217   8.043   5.028
  188POPC   C3A 2624   2.446   8.084   5.393
  188POPC   C4A 2625   2.489   8.420   5.704
  188POPC   C1B 2626   2.922   8.003   4.655
  188POPC   C2B 2627   2.806   8.284   4.999
  188POPC   C3B 2628   2.909   8.276   5.426
  188POPC   C4B 2629   2.917   8.189   5.837
  189POPC   NC3 2630   9.332   5.080   3.961
  189POPC   PO4 2631   9.992   5.344   4.170
  189POPC   GL1 2632   9.680   5.024   4.340
  189POPC   GL2 2633   9.512   4.681   4.283
  189POPC   C1A 2634   9.520   4.972   4.764
  189POPC   D2A 2635   9.602   5.149   5.141
  189POPC   C3A 2636   9.492   4.920   5.526
  189POPC   C4A 2637   9.442   5.148   5.910
  189POPC   C1B 2638   9.652   4.499   4.696
  189POPC   C2B 2639   9.840   4.662   5.106
  189POPC   C3B 2640   0.004   4.986   5.406
  189POPC   C4B 2641   9.918   5.009   5.851
  190POPC   NC3 2642   8.734   1.241   3.730
  190POPC   PO4 2643   9.331   1.422   3.946
  190POPC   GL1 2644   8.917   1.315   4.202
  190POPC   GL2 2645   8.745   0.954   4.186
  190POPC   C1A 2646   8.814   1.430   4.619
  190POPC   D2A 2647   9.031   1.544   5.002
  190POPC   C3A 2648   8.896   1.372   5.391
  190POPC   C4A 2649   9.125   1.393   5.788
  190POPC   C1B 2650   8.938   0.915   4.558
  190POPC   C2B 2651   8.990   1.013   4.993
  190POPC   C3B 2652   8.942   0.876   5.418
  190POPC   C4B 2653   8.894   0.926   5.877
  191POPC   NC3 2654   0.777   2.742   4.114
  191POPC   PO4 2655   1.383   2.421   3.953
  191POPC   GL1 2656   1.284   2.744   4.262
  191POPC   GL2 2657   1.339   3.054   4.077
  191POPC   C1A 2658   1.080   2.974   4.654
  191POPC   D2A 2659   0.937   2.898   5.102
  191POPC   C3A 2660   1.233   2.683   5.355
  191POPC   C4A 2661   1.523   2.743   5.701
  191POPC   C1B 2662   1.559   3.117   4.484
  191POPC   C2B 2663   1.516   2.990   4.942
  191POPC   C3B 2664   1.469   3.156   5.364
  191POPC   C4B 2665   1.177   3.132   5.736
  192POPC   NC3 2666   1.913   9.662   3.809
  192POPC   PO4 2667   1.350   9.703   4.089
  192POPC   GL1 2668   1.742   9.597   4.273
  192POPC   GL2 2669   2.078   9.793   4.265
  192POPC   C1A 2670   1.811   9.438   4.663
  192POPC   D2A 2671   1.950   9.483   5.073
  192POPC   C3A 2672   1.867   9.553   5.520
  192POPC   C4A 2673   1.642   9.363   5.860
  192POPC   C1B 2674   2.212   9.733   4.672
  192POPC   C2B 2675   2.401   9.920   4.986
  192POPC   C3B 2676   2.256   0.082   5.345
  192POPC   C4B 2677   2.117   9.988   5.729
  193POPC   NC3 2678   7.957   6.236   4.097
  193POPC   PO4 2679   8.364   6.649   3.783
  193POPC   GL1 2680   8.253   6.699   4.256
  193POPC   GL2 2681   7.956   6.919   4.389
  193POPC   C1A 2682   8.268   6.587   4.719
  193POPC   D2A 2683   8.444   6.444   5.160
  193POPC   C3A 2684   8.442   6.596   5.639
  193POPC   C4A 2685   8.358   6.459   6.119
  193POPC   C1B 2686   7.881   6.912   4.835
  193POPC   C2B 2687   7.896   6.518   5.081
  193POPC   C3B 2688   8.021   6.337   5.470
  193POPC   C4B 2689   7.952   6.581   5.834
  194POPC   NC3 2690   7.807   5.375   3.847
  194POPC   PO4 2691   7.518   4.773   3.902
  194POPC   GL1 2692   7.569   4.692   4.325
  194POPC   GL2 2693   7.325   4.960   4.383
  194POPC   C1A 2694   7.442   4.642   4.778
  194POPC   D2A 2695   7.387   4.921   5.166
  194POPC   C3A 2696   7.695   4.978   5.508
  194POPC   C4A 2697   7.942   5.274   5.789
  194POPC   C1B 2698   6.997   4.930   4.735
  194POPC   C2B 2699   6.931   4.715   5.145
  194POPC   C3B 2700   7.223   4.535   5.469
  194POPC   C4B 2701   7.362   4.712   5.904
  195POPC   NC3 2702   3.572   1.879   4.037
  195POPC   PO4 2703   3.699   2.510   3.887
  195POPC   GL1 2704   3.739   2.255   4.327
  195POPC   GL2 2705   3.381   2.185   4.397
  195POPC   C1A 2706   3.763   1.913   4.699
  195POPC   D2A 2707   3.920   1.699   5.117
  195POPC   C3A 2708   3.800   1.771   5.590
  195POPC   C4A 2709   3.838   1.596   6.032
  195POPC   C1B 2710   3.435   2.289   4.826
  195POPC   C2B 2711   3.565   2.073   5.207
  195POPC   C3B 2712   3.333   1.991   5.582
  195POPC   C4B 2713   3.391   1.845   5.986
  196POPC   NC3 2714   4.712   1.390   4.011
  196POPC   PO4 2715   4.013   1.563   3.954
  196POPC   GL1 2716   3.937   1.388   4.385
  196POPC   GL2 2717   4.123   1.095   4.337
  196POPC   C1A 2718   4.041   1.223   4.840
  196POPC   D2A 2719   3.965   1.221   5.311
  196POPC   C3A 2720   4.249   1.559   5.491
  196POPC   C4A 2721   4.649   1.555   5.649
  196POPC   C1B 2722   4.491   1.005   4.635
  196POPC   C2B 2723   4.561   1.029   5.091
  196POPC   C3B 2724   4.468   1.084   5.530
  196POPC   C4B 2725   4.115   1.199   5.815
  197POPC   NC3 2726   7.396   7.715   3.741
  197POPC   PO4 2727   6.918   7.963   4.133
  197POPC   GL1 2728   7.097   8.134   4.465
  197POPC   GL2 2729   7.356   8.372   4.367
  197POPC   C1A 2730   7.022   8.372   4.804
  197POPC   D2A 2731   7.226   8.562   5.135
  197POPC   C3A 2732   7.108   8.282   5.448
  197POPC   C4A 2733   7.295   8.019   5.730
  197POPC   C1B 2734   7.510   8.191   4.786
  197POPC   C2B 2735   7.575   8.178   5.243
  197POPC   C3B 2736   7.771   8.097   5.644
  197POPC   C4B 2737   7.607   8.180   6.103
  198POPC   NC3 2738   8.966   3.471   3.697
  198POPC   PO4 2739   9.298   3.918   4.038
  198POPC   GL1 2740   9.091   3.763   4.366
  198POPC   GL2 2741   8.894   3.492   4.238
  198POPC   C1A 2742   9.067   3.635   4.799
  198POPC   D2A 2743   9.102   3.328   5.112
  198POPC   C3A 2744   9.122   3.541   5.489
  198POPC   C4A 2745   9.200   3.375   5.907
  198POPC   C1B 2746   8.610   3.659   4.567
  198POPC   C2B 2747   8.613   3.527   5.002
  198POPC   C3B 2748   8.587   3.547   5.419
  198POPC   C4B 2749   8.725   3.526   5.807
  199POPC   NC3 2750   1.898   9.028   3.851
  199POPC   PO4 2751   2.351   9.467   3.960
  199POPC   GL1 2752   2.163   9.289   4.307
  199POPC   GL2 2753   2.174   8.943   4.292
  199POPC   C1A 2754   2.280   9.205   4.733
  199POPC   D2A 2755   2.100   8.922   5.021
  199POPC   C3A 2756   1.926   9.048   5.367
  199POPC   C4A 2757   2.091   9.096   5.731
  199POPC   C1B 2758   1.824   8.915   4.597
  199POPC   C2B 2759   1.580   8.839   5.002
  199POPC   C3B 2760   1.532   8.714   5.445
  199POPC   C4B 2761   1.674   8.849   5.830
  200POPC   NC3 2762   7.928   0.373   4.107
  200POPC   PO4 2763   7.666   0.822   3.736
  200POPC   GL1 2764   8.034   0.873   4.132
  200POPC   GL2 2765   8.327   0.630   4.281
  200POPC   C1A 2766   8.047   0.896   4.606
  200POPC   D2A 2767   7.952   1.026   5.033
  200POPC   C3A 2768   7.918   0.682   5.352
  200POPC   C4A 2769   8.047   0.577   5.774
  200POPC   C1B 2770   8.298   0.222   4.607
  200POPC   C2B 2771   8.425   0.119   5.023
  200POPC   C3B 2772   8.227   0.228   5.406
  200POPC   C4B 2773   8.405   0.139   5.797
  201POPC   NC3 2774   8.932   9.239   3.617
  201POPC   PO4 2775   8.410   9.325   4.059
  201POPC   GL1 2776   8.700   9.251   4.350
  201POPC   GL2 2777   8.995   9.103   4.160
  201POPC   C1A 2778   8.607   9.157   4.783
  201POPC   D2A 2779   8.747   9.102   5.211
  201POPC   C3A 2780   8.531   9.228   5.592
  201POPC   C4A 2781   8.527   9.164   6.071
  201POPC   C1B 2782   9.100   9.039   4.622
  201POPC   C2B 2783   9.097   8.783   5.021
  201POPC   C3B 2784   9.086   8.806   5.479
  201POPC   C4B 2785   8.810   8.778   5.814
  202POPC   NC3 2786   7.324   3.612   3.977
  202POPC   PO4 2787   7.631   3.089   3.765
  202POPC   GL1 2788   7.513   3.208   4.203
  202POPC   GL2 2789   7.707   3.514   4.285
  202POPC   C1A 2790   7.313   3.105   4.624
  202POPC   D2A 2791   7.176   2.950   5.020
  202POPC   C3A 2792   7.276   3.167   5.388
  202POPC   C4A 2793   7.466   3.290   5.795
  202POPC   C1B 2794   7.470   3.613   4.652
  202POPC   C2B 2795   7.332   3.575   5.070
  202POPC   C3B 2796   7.330   3.666   5.505
  202POPC   C4B 2797   7.509   3.791   5.907
  203POPC   NC3 2798   5.714   0.092   3.526
  203POPC   PO4 2799   5.501   0.505   4.059
  203POPC   GL1 2800   5.911   0.570   4.272
  203POPC   GL2 2801   5.879   0.852   4.491
  203POPC   C1A 2802   6.146   0.435   4.639
  203POPC   D2A 2803   6.130   0.107   4.980
  203POPC   C3A 2804   6.187   0.238   5.413
  203POPC   C4A 2805   6.032   0.194   5.815
  203POPC   C1B 2806   5.701   0.631   4.797
  203POPC   C2B 2807   5.857   0.511   5.146
  203POPC   C3B 2808   5.760   0.526   5.542
  203POPC   C4B 2809   5.403   0.765   5.675
  204POPC   NC3 2810   4.432   7.918   3.704
  204POPC   PO4 2811   4.143   7.764   4.341
  204POPC   GL1 2812   3.874   7.997   4.576
  204POPC   GL2 2813   4.086   8.264   4.495
  204POPC   C1A 2814   3.722   7.899   5.004
  204POPC   D2A 2815   3.976   7.872   5.375
  204POPC   C3A 2816   3.830   7.865   5.793
  204POPC   C4A 2817   4.034   7.874   6.191
  204POPC   C1B 2818   4.516   8.264   4.651
  204POPC   C2B 2819   4.585   8.332   5.094
  204POPC   C3B 2820   4.446   8.189   5.526
  204POPC   C4B 2821   4.331   8.343   5.941
  205POPC   NC3 2822   5.779   8.354   3.957
  205POPC   PO4 2823   6.172   7.809   3.968
  205POPC   GL1 2824   5.919   7.959   4.346
  205POPC   GL2 2825   5.788   8.309   4.444
  205POPC   C1A 2826   6.019   8.104   4.805
  205POPC   D2A 2827   5.817   8.390   5.101
  205POPC   C3A 2828   5.936   8.319   5.545
  205POPC   C4A 2829   6.015   8.009   5.879
  205POPC   C1B 2830   5.535   7.996   4.703
  205POPC   C2B 2831   5.426   8.072   5.161
  205POPC   C3B 2832   5.520   8.012   5.621
  205POPC   C4B 2833   5.536   7.914   6.085
  206POPC   NC3 2834   9.614   9.166   4.033
  206POPC   PO4 2835   9.991   8.668   3.891
  206POPC   GL1 2836   9.983   8.934   4.264
  206POPC   GL2 2837   9.698   8.748   4.357
  206POPC   C1A 2838   9.973   9.083   4.699
  206POPC   D2A 2839   0.211   9.167   5.068
  206POPC   C3A 2840   0.080   9.338   5.450
  206POPC   C4A 2841   9.813   9.258   5.802
  206POPC   C1B 2842   9.549   8.814   4.776
  206POPC   C2B 2843   9.575   8.816   5.230
  206POPC   C3B 2844   9.573   8.829   5.673
  206POPC   C4B 2845   9.304   8.677   5.993
  207POPC   NC3 2846   2.893   1.333   4.051
  207POPC   PO4 2847   2.329   0.983   3.957
  207POPC   GL1 2848   2.636   0.962   4.306
  207POPC   GL2 2849   2.750   1.249   4.519
  207POPC   C1A 2850   2.582   0.837   4.759
  207POPC   D2A 2851   2.671   1.093   5.061
  207POPC   C3A 2852   2.380   1.038   5.374
  207POPC   C4A 2853   2.483   0.936   5.810
  207POPC   C1B 2854   3.078   1.277   4.797
  207POPC   C2B 2855   3.191   1.123   5.192
  207POPC   C3B 2856   3.090   1.093   5.625
  207POPC   C4B 2857   2.870   1.171   6.014
  208POPC   NC3 2858   6.395   9.032   4.149
  208POPC   PO4 2859   6.937   8.915   3.828
  208POPC   GL1 2860   6.789   8.788   4.326
  208POPC   GL2 2861   6.694   9.137   4.561
  208POPC   C1A 2862   6.642   8.715   4.785
  208POPC   D2A 2863   6.710   8.506   5.203
  208POPC   C3A 2864   6.778   8.645   5.614
  208POPC   C4A 2865   6.791   8.629   6.061
  208POPC   C1B 2866   6.320   9.132   4.822
  208POPC   C2B 2867   6.372   9.151   5.240
  208POPC   C3B 2868   6.661   9.158   5.534
  208POPC   C4B 2869   6.507   8.987   5.876
  209POPC   NC3 2870   2.983   5.732   4.051
  209POPC   PO4 2871   2.315   5.764   3.947
  209POPC   GL1 2872   2.409   5.905   4.312
  209POPC   GL2 2873   2.696   6.092   4.305
  209POPC   C1A 2874   2.540   5.756   4.687
  209POPC   D2A 2875   2.511   6.008   5.044
  209POPC   C3A 2876   2.508   5.816   5.419
  209POPC   C4A 2877   2.549   5.649   5.813
  209POPC   C1B 2878   2.941   6.075   4.742
  209POPC   C2B 2879   2.960   5.888   5.218
  209POPC   C3B 2880   2.929   5.985   5.685
  209POPC   C4B 2881   3.210   5.965   6.070
  210POPC   NC3 2882   1.231   7.454   3.901
  210POPC   PO4 2883   0.933   6.861   3.973
  210POPC   GL1 2884   1.069   7.136   4.282
  210POPC   GL2 2885   0.885   7.474   4.310
  210POPC   C1A 2886   1.193   7.203   4.705
  210POPC   D2A 2887   1.156   7.314   5.144
  210POPC   C3A 2888   1.272   7.112   5.550
  210POPC   C4A 2889   1.414   6.950   5.970
  210POPC   C1B 2890   0.954   7.658   4.735
  210POPC   C2B 2891   1.189   7.824   5.111
  210POPC   C3B 2892   1.228   7.652   5.521
  210POPC   C4B 2893   1.430   7.473   5.894
  211POPC   NC3 2894   2.105   7.666   4.283
  211POPC   PO4 2895   1.680   7.307   3.897
  211POPC   GL1 2896   1.783   7.101   4.250
  211POPC   GL2 2897   2.126   7.088   4.333
  211POPC   C1A 2898   1.701   7.169   4.665
  211POPC   D2A 2899   1.559   7.505   4.908
  211POPC   C3A 2900   1.641   7.411   5.339
  211POPC   C4A 2901   1.834   7.221   5.687
  211POPC   C1B 2902   2.188   7.265   4.748
  211POPC   C2B 2903   2.048   7.558   5.028
  211POPC   C3B 2904   2.133   7.609   5.445
  211POPC   C4B 2905   2.489   7.683   5.695
  212POPC   NC3 2906   9.485   1.860   3.947
  212POPC   PO4 2907   9.593   2.446   4.036
  212POPC   GL1 2908   9.695   2.120   4.366
  212POPC   GL2 2909   9.901   1.804   4.307
  212POPC   C1A 2910   9.736   2.048   4.827
  212POPC   D2A 2911   9.836   2.152   5.247
  212POPC   C3A 2912   9.515   2.148   5.558
  212POPC   C4A 2913   9.302   2.036   5.952
  212POPC   C1B 2914   9.709   1.564   4.668
  212POPC   C2B 2915   9.533   1.636   5.120
  212POPC   C3B 2916   9.556   1.626   5.580
  212POPC   C4B 2917   9.834   1.785   5.897
  213POPC   NC3 2918   2.057   5.361   3.987
  213POPC   PO4 2919   2.522   4.928   4.040
  213POPC   GL1 2920   2.194   5.071   4.389
  213POPC   GL2 2921   1.819   5.016   4.335
  213POPC   C1A 2922   1.926   5.384   4.679
  213POPC   D2A 2923   1.641   5.502   5.052
  213POPC   C3A 2924   1.794   5.466   5.471
  213POPC   C4A 2925   2.193   5.349   5.635
  213POPC   C1B 2926   1.638   4.731   4.650
  213POPC   C2B 2927   1.724   4.675   5.099
  213POPC   C3B 2928   1.839   4.791   5.529
  213POPC   C4B 2929   2.160   4.872   5.834
  214POPC   NC3 2930   1.303   8.449   3.980
  214POPC   PO4 2931   0.920   7.847   3.954
  214POPC   GL1 2932   1.105   8.083   4.318
  214POPC   GL2 2933   1.491   8.144   4.339
  214POPC   C1A 2934   0.999   8.167   4.769
  214POPC   D2A 2935   0.723   8.010   5.155
  214POPC   C3A 2936   0.886   8.062   5.576
  214POPC   C4A 2937   1.181   7.948   5.919
  214POPC   C1B 2938   1.484   8.423   4.697
  214POPC   C2B 2939   1.308   8.374   5.115
  214POPC   C3B 2940   1.391   8.216   5.520
  214POPC   C4B 2941   1.668   8.328   5.864
  215POPC   NC3 2942   5.167   8.542   3.560
  215POPC   PO4 2943   4.794   8.980   3.986
  215POPC   GL1 2944   4.911   8.918   4.373
  215POPC   GL2 2945   5.213   8.800   4.396
  215POPC   C1A 2946   4.858   8.653   4.736
  215POPC   D2A 2947   4.719   8.830   5.114
  215POPC   C3A 2948   4.740   8.614   5.506
  215POPC   C4A 2949   4.854   8.631   5.924
  215POPC   C1B 2950   5.224   9.141   4.713
  215POPC   C2B 2951   5.079   9.215   5.123
  215POPC   C3B 2952   5.084   9.002   5.517
  215POPC   C4B 2953   5.051   9.094   5.950
  216POPC   NC3 2954   2.882   6.600   3.908
  216POPC   PO4 2955   3.346   7.056   3.912
  216POPC   GL1 2956   3.142   6.857   4.315
  216POPC   GL2 2957   2.882   6.559   4.425
  216POPC   C1A 2958   3.019   6.900   4.771
  216POPC   D2A 2959   2.748   6.660   5.076
  216POPC   C3A 2960   2.810   6.774   5.537
  216POPC   C4A 2961   3.046   6.875   5.922
  216POPC   C1B 2962   2.520   6.385   4.675
  216POPC   C2B 2963   2.268   6.445   5.066
  216POPC   C3B 2964   2.507   6.350   5.431
  216POPC   C4B 2965   2.443   6.169   5.808
  217POPC   NC3 2966   2.891   3.802   3.428
  217POPC   PO4 2967   2.879   4.102   4.044
  217POPC   GL1 2968   2.786   4.332   4.467
  217POPC   GL2 2969   2.528   4.645   4.494
  217POPC   C1A 2970   2.944   4.249   4.924
  217POPC   D2A 2971   3.207   4.088   5.303
  217POPC   C3A 2972   3.026   3.935   5.707
  217POPC   C4A 2973   2.826   4.113   6.118
  217POPC   C1B 2974   2.458   4.389   4.867
  217POPC   C2B 2975   2.485   4.092   5.211
  217POPC   C3B 2976   2.582   4.185   5.654
  217POPC   C4B 2977   2.539   4.554   5.908
  218POPC   NC3 2978   3.084   7.513   4.146
  218POPC   PO4 2979   2.480   7.447   4.177
  218POPC   GL1 2980   2.747   7.224   4.409
  218POPC   GL2 2981   2.617   6.937   4.235
  218POPC   C1A 2982   2.873   7.425   4.800
  218POPC   D2A 2983   2.789   7.773   5.121
  218POPC   C3A 2984   3.007   7.770   5.528
  218POPC   C4A 2985   2.916   7.703   5.978
  218POPC   C1B 2986   2.508   6.884   4.673
  218POPC   C2B 2987   2.549   7.127   5.064
  218POPC   C3B 2988   2.768   7.311   5.402
  218POPC   C4B 2989   2.703   7.238   5.825
  219POPC   NC3 2990   2.559   4.464   4.028
  219POPC   PO4 2991   1.977   4.115   4.132
  219POPC   GL1 2992   2.250   4.205   4.419
  219POPC   GL2 2993   2.042   4.443   4.585
  219POPC   C1A 2994   2.154   3.990   4.807
  219POPC   D2A 2995   1.962   3.917   5.184
  219POPC   C3A 2996   2.190   3.865   5.602
  219POPC   C4A 2997   2.194   3.926   6.097
  219POPC   C1B 2998   1.670   4.228   4.817
  219POPC   C2B 2999   1.525   4.227   5.258
  219POPC   C3B 3000   1.731   4.103   5.595
  219POPC   C4B 3001   2.090   4.358   5.743
  220POPC   NC3 3002   5.566   9.976   4.090
  220POPC   PO4 3003   6.238   0.092   3.894
  220POPC   GL1 3004   6.023   0.048   4.327
  220POPC   GL2 3005   5.851   9.742   4.421
  220POPC   C1A 3006   5.704   0.141   4.692
  220POPC   D2A 3007   5.553   0.054   5.105
  220POPC   C3A 3008   5.790   9.913   5.442
  220POPC   C4A 3009   5.827   9.718   5.842
  220POPC   C1B 3010   5.897   9.672   4.845
  220POPC   C2B 3011   6.007   9.495   5.230
  220POPC   C3B 3012   5.755   9.277   5.548
  220POPC   C4B 3013   5.434   9.387   5.836
  221POPC   NC3 3014   9.749   4.055   3.907
  221POPC   PO4 3015   9.924   4.677   3.973
  221POPC   GL1 3016   9.928   4.302   4.304
  221POPC   GL2 3017   9.625   4.091   4.401
  221POPC   C1A 3018   0.052   4.126   4.706
  221POPC   D2A 3019   9.767   4.139   5.039
  221POPC   C3A 3020   9.802   4.121   5.448
  221POPC   C4A 3021   9.824   4.532   5.632
  221POPC   C1B 3022   9.351   4.057   4.775
  221POPC   C2B 3023   9.314   4.027   5.248
  221POPC   C3B 3024   9.363   4.273   5.658
  221POPC   C4B 3025   9.650   4.179   6.029
  222POPC   NC3 3026   9.393   3.211   4.083
  222POPC   PO4 3027   9.894   3.332   3.683
  222POPC   GL1 3028   9.685   3.619   4.147
  222POPC   GL2 3029   9.964   3.715   4.410
  222POPC   C1A 3030   9.524   3.564   4.598
  222POPC   D2A 3031   9.598   3.653   5.021
  222POPC   C3A 3032   9.637   3.483   5.412
  222POPC   C4A 3033   9.532   3.774   5.731
  222POPC   C1B 3034   9.980   3.406   4.772
  222POPC   C2B 3035   0.074   3.195   5.116
  222POPC   C3B 3036   0.115   3.284   5.514
  222POPC   C4B 3037   9.919   3.477   5.851
  223POPC   NC3 3038   1.205   0.146   4.103
  223POPC   PO4 3039   0.713   0.608   4.186
  223POPC   GL1 3040   1.087   0.434   4.508
  223POPC   GL2 3041   1.460   0.443   4.421
  223POPC   C1A 3042   1.374   0.254   4.872
  223POPC   D2A 3043   1.171   0.212   5.242
  223POPC   C3A 3044   1.267   0.126   5.654
  223POPC   C4A 3045   0.907   0.222   5.894
  223POPC   C1B 3046   1.469   0.748   4.723
  223POPC   C2B 3047   1.222   0.732   5.084
  223POPC   C3B 3048   1.301   0.665   5.516
  223POPC   C4B 3049   1.269   0.578   5.945
  224POPC   NC3 3050   8.062   3.052   3.602
  224POPC   PO4 3051   8.541   3.476   3.865
  224POPC   GL1 3052   8.258   3.453   4.269
  224POPC   GL2 3053   8.162   3.767   4.245
  224POPC   C1A 3054   8.288   3.266   4.722
  224POPC   D2A 3055   8.124   3.488   5.126
  224POPC   C3A 3056   7.864   3.374   5.477
  224POPC   C4A 3057   7.955   3.265   5.925
  224POPC   C1B 3058   7.989   3.674   4.666
  224POPC   C2B 3059   7.789   3.871   5.015
  224POPC   C3B 3060   7.804   3.916   5.458
  224POPC   C4B 3061   8.017   3.758   5.788
  225POPC   NC3 3062   6.541   9.694   3.969
  225POPC   PO4 3063   6.047   9.324   4.250
  225POPC   GL1 3064   6.382   9.552   4.436
  225POPC   GL2 3065   6.526   9.918   4.409
  225POPC   C1A 3066   6.430   9.671   4.851
  225POPC   D2A 3067   6.619   9.607   5.225
  225POPC   C3A 3068   6.341   9.761   5.514
  225POPC   C4A 3069   6.217   9.388   5.723
  225POPC   C1B 3070   6.893   9.878   4.709
  225POPC   C2B 3071   7.076   9.819   5.133
  225POPC   C3B 3072   6.897   9.893   5.544
  225POPC   C4B 3073   6.704   9.585   5.817
  226POPC   NC3 3074   9.943   5.802   4.007
  226POPC   PO4 3075   9.388   5.497   3.755
  226POPC   GL1 3076   9.516   5.502   4.192
  226POPC   GL2 3077   9.473   5.803   4.279
  226POPC   C1A 3078   9.616   5.482   4.687
  226POPC   D2A 3079   9.613   5.667   5.149
  226POPC   C3A 3080   9.715   5.422   5.565
  226POPC   C4A 3081   9.899   5.477   6.012
  226POPC   C1B 3082   9.496   5.981   4.690
  226POPC   C2B 3083   9.850   6.102   4.937
  226POPC   C3B 3084   9.920   6.030   5.368
  226POPC   C4B 3085   9.633   5.916   5.645
  227POPC   NC3 3086   9.034   5.754   3.966
  227POPC   PO4 3087   9.271   6.390   3.907
  227POPC   GL1 3088   9.124   6.163   4.321
  227POPC   GL2 3089   8.943   5.858   4.441
  227POPC   C1A 3090   9.044   6.199   4.785
  227POPC   D2A 3091   9.129   5.811   5.032
  227POPC   C3A 3092   9.114   5.885   5.472
  227POPC   C4A 3093   9.193   6.068   5.855
  227POPC   C1B 3094   8.735   5.587   4.718
  227POPC   C2B 3095   8.697   5.410   5.102
  227POPC   C3B 3096   8.718   5.569   5.488
  227POPC   C4B 3097   8.760   5.790   5.868
  228POPC   NC3 3098   8.503   3.071   4.083
  228POPC   PO4 3099   8.072   2.628   3.817
  228POPC   GL1 3100   8.002   2.678   4.236
  228POPC   GL2 3101   7.979   3.026   4.180
  228POPC   C1A 3102   8.126   2.751   4.680
  228POPC   D2A 3103   8.072   2.684   5.140
  228POPC   C3A 3104   8.436   2.675   5.424
  228POPC   C4A 3105   8.420   2.507   5.866
  228POPC   C1B 3106   7.815   3.148   4.607
  228POPC   C2B 3107   7.668   3.144   5.040
  228POPC   C3B 3108   7.685   2.888   5.444
  228POPC   C4B 3109   8.017   2.783   5.712
  229POPC   NC3 3110   5.956   2.886   3.994
  229POPC   PO4 3111   5.337   3.091   4.142
  229POPC   GL1 3112   5.670   2.914   4.429
  229POPC   GL2 3113   5.653   2.589   4.318
  229POPC   C1A 3114   5.930   2.875   4.860
  229POPC   D2A 3115   6.202   2.706   5.233
  229POPC   C3A 3116   6.036   2.879   5.665
  229POPC   C4A 3117   5.725   2.958   5.993
  229POPC   C1B 3118   5.711   2.429   4.721
  229POPC   C2B 3119   6.011   2.292   5.000
  229POPC   C3B 3120   5.979   2.296   5.455
  229POPC   C4B 3121   5.677   2.481   5.772
  230POPC   NC3 3122   1.301   6.035   3.858
  230POPC   PO4 3123   0.986   5.573   3.776
  230POPC   GL1 3124   1.030   5.828   4.224
  230POPC   GL2 3125   1.393   5.838   4.300
  230POPC   C1A 3126   1.080   6.048   4.671
  230POPC   D2A 3127   0.849   6.014   5.057
  230POPC   C3A 3128   1.055   6.053   5.439
  230POPC   C4A 3129   0.980   6.228   5.833
  230POPC   C1B 3130   1.280   5.587   4.654
  230POPC   C2B 3131   1.121   5.559   5.061
  230POPC   C3B 3132   1.292   5.560   5.444
  230POPC   C4B 3133   1.174   5.713   5.811
  231POPC   NC3 3134   4.940   8.539   4.033
  231POPC   PO4 3135   5.452   8.031   3.895
  231POPC   GL1 3136   5.312   8.264   4.294
  231POPC   GL2 3137   4.991   8.230   4.429
  231POPC   C1A 3138   5.360   8.461   4.743
  231POPC   D2A 3139   5.153   8.562   5.156
  231POPC   C3A 3140   5.271   8.478   5.587
  231POPC   C4A 3141   5.141   8.211   5.925
  231POPC   C1B 3142   4.997   8.130   4.880
  231POPC   C2B 3143   4.958   8.114   5.369
  231POPC   C3B 3144   4.891   7.819   5.720
  231POPC   C4B 3145   5.029   7.754   6.158
  232POPC   NC3 3146   7.160   1.887   3.648
  232POPC   PO4 3147   7.595   2.152   4.049
  232POPC   GL1 3148   7.619   2.075   4.409
  232POPC   GL2 3149   7.680   1.727   4.325
  232POPC   C1A 3150   7.449   2.161   4.818
  232POPC   D2A 3151   7.341   1.967   5.206
  232POPC   C3A 3152   7.009   2.135   5.507
  232POPC   C4A 3153   6.975   2.110   5.964
  232POPC   C1B 3154   7.789   1.784   4.778
  232POPC   C2B 3155   7.827   1.614   5.170
  232POPC   C3B 3156   7.731   1.788   5.538
  232POPC   C4B 3157   7.434   2.006   5.722
  233POPC   NC3 3158   0.473   0.893   3.913
  233POPC   PO4 3159   0.703   1.583   3.964
  233POPC   GL1 3160   0.537   1.270   4.262
  233POPC   GL2 3161   0.177   1.204   4.227
  233POPC   C1A 3162   0.514   1.023   4.671
  233POPC   D2A 3163   0.778   1.000   5.072
  233POPC   C3A 3164   0.744   0.896   5.530
  233POPC   C4A 3165   0.649   1.176   5.892
  233POPC   C1B 3166   0.201   1.424   4.628
  233POPC   C2B 3167   0.468   1.413   4.995
  233POPC   C3B 3168   0.425   1.322   5.436
  233POPC   C4B 3169   0.222   1.449   5.839
  234POPC   NC3 3170   3.033   3.664   3.942
  234POPC   PO4 3171   2.480   3.937   3.601
  234POPC   GL1 3172   2.453   3.824   4.107
  234POPC   GL2 3173   2.570   3.472   4.156
  234POPC   C1A 3174   2.609   3.878   4.608
  234POPC   D2A 3175   2.858   3.756   5.028
  234POPC   C3A 3176   2.647   3.671   5.447
  234POPC   C4A 3177   2.597   3.716   5.897
  234POPC   C1B 3178   2.779   3.400   4.589
  234POPC   C2B 3179   3.044   3.271   4.968
  234POPC   C3B 3180   3.098   3.432   5.404
  234POPC   C4B 3181   2.855   3.306   5.767
  235POPC   NC3 3182   0.379   3.198   3.989
  235POPC   PO4 3183   0.433   2.508   3.861
  235POPC   GL1 3184   0.226   2.788   4.229
  235POPC   GL2 3185   9.971   2.589   4.389
  235POPC   C1A 3186   0.232   2.948   4.684
  235POPC   D2A 3187   0.422   2.818   5.094
  235POPC   C3A 3188   0.276   2.769   5.543
  235POPC   C4A 3189   0.177   3.019   5.933
  235POPC   C1B 3190   0.017   2.476   4.845
  235POPC   C2B 3191   0.327   2.299   5.148
  235POPC   C3B 3192   0.706   2.472   5.353
  235POPC   C4B 3193   0.821   2.740   5.678
  236POPC   NC3 3194   1.893   1.323   4.051
  236POPC   PO4 3195   1.682   0.644   4.033
  236POPC   GL1 3196   1.899   0.853   4.364
  236POPC   GL2 3197   2.202   0.743   4.438
  236POPC   C1A 3198   1.924   0.943   4.828
  236POPC   D2A 3199   1.654   1.001   5.152
  236POPC   C3A 3200   1.802   0.797   5.488
  236POPC   C4A 3201   1.645   0.909   5.868
  236POPC   C1B 3202   2.260   1.204   4.585
  236POPC   C2B 3203   2.167   1.404   4.998
  236POPC   C3B 3204   2.077   1.521   5.426
  236POPC   C4B 3205   2.055   1.188   5.732
  237POPC   NC3 3206   2.714   9.791   3.938
  237POPC   PO4 3207   3.103   9.190   4.119
  237POPC   GL1 3208   2.905   9.421   4.487
  237POPC   GL2 3209   2.604   9.594   4.402
  237POPC   C1A 3210   2.698   9.500   4.919
  237POPC   D2A 3211   2.396   9.323   5.226
  237POPC   C3A 3212   2.523   9.316   5.636
  237POPC   C4A 3213   2.879   9.345   5.795
  237POPC   C1B 3214   2.875   9.894   4.643
  237POPC   C2B 3215   2.913   9.961   5.086
  237POPC   C3B 3216   2.673   9.746   5.397
  237POPC   C4B 3217   2.609   9.795   5.823
  238POPC   NC3 3218   7.791   4.382   3.958
  238POPC   PO4 3219   8.456   4.457   4.040
  238POPC   GL1 3220   8.162   4.502   4.357
  238POPC   GL2 3221   8.297   4.194   4.501
  238POPC   C1A 3222   8.302   4.636   4.782
  238POPC   D2A 3223   8.587   4.418   5.034
  238POPC   C3A 3224   8.468   4.401   5.445
  238POPC   C4A 3225   8.103   4.294   5.697
  238POPC   C1B 3226   8.329   3.976   4.892
  238POPC   C2B 3227   8.298   3.941   5.331
  238POPC   C3B 3228   8.475   3.963   5.753
  238POPC   C4B 3229   8.304   4.005   6.127
  239POPC   NC3 3230   9.616   6.688   3.939
  239POPC   PO4 3231   9.949   6.186   4.258
  239POPC   GL1 3232   9.700   6.532   4.426
  239POPC   GL2 3233   9.881   6.878   4.331
  239POPC   C1A 3234   9.505   6.484   4.840
  239POPC   D2A 3235   9.420   6.214   5.207
  239POPC   C3A 3236   9.492   6.408   5.615
  239POPC   C4A 3237   9.480   6.372   6.113
  239POPC   C1B 3238   9.708   6.955   4.729
  239POPC   C2B 3239   9.736   6.839   5.156
  239POPC   C3B 3240   9.822   6.997   5.557
  239POPC   C4B 3241   9.665   6.802   5.904
  240POPC   NC3 3242   5.620   0.975   4.070
  240POPC   PO4 3243   5.894   1.493   3.696
  240POPC   GL1 3244   5.836   1.469   4.207
  240POPC   GL2 3245   5.547   1.388   4.358
  240POPC   C1A 3246   5.911   1.315   4.684
  240POPC   D2A 3247   6.049   0.991   4.994
  240POPC   C3A 3248   5.848   1.028   5.415
  240POPC   C4A 3249   5.872   0.910   5.851
  240POPC   C1B 3250   5.419   1.495   4.768
  240POPC   C2B 3251   5.481   1.495   5.197
  240POPC   C3B 3252   5.667   1.468   5.616
  240POPC   C4B 3253   5.436   1.218   5.915
  241POPC   NC3 3254   2.137   0.561   3.962
  241POPC   PO4 3255   1.724   0.179   3.570
  241POPC   GL1 3256   1.718   0.114   4.076
  241POPC   GL2 3257   1.949   0.298   4.318
  241POPC   C1A 3258   1.705   9.985   4.575
  241POPC   D2A 3259   1.857   9.986   5.004
  241POPC   C3A 3260   1.697   0.290   5.319
  241POPC   C4A 3261   1.708   0.348   5.782
  241POPC   C1B 3262   1.883   0.438   4.745
  241POPC   C2B 3263   2.122   0.559   5.113
  241POPC   C3B 3264   2.273   0.556   5.527
  241POPC   C4B 3265   2.077   0.663   5.913
  242POPC   NC3 3266   6.443   3.225   3.429
  242POPC   PO4 3267   6.280   3.399   4.011
  242POPC   GL1 3268   6.508   3.235   4.404
  242POPC   GL2 3269   6.889   3.197   4.325
  242POPC   C1A 3270   6.365   3.173   4.852
  242POPC   D2A 3271   6.159   3.196   5.277
  242POPC   C3A 3272   6.423   3.353   5.611
  242POPC   C4A 3273   6.639   3.783   5.582
  242POPC   C1B 3274   6.903   3.370   4.782
  242POPC   C2B 3275   6.840   3.401   5.244
  242POPC   C3B 3276   6.930   3.368   5.691
  242POPC   C4B 3277   6.785   3.135   6.052
  243POPC   NC3 3278   3.489   0.404   3.786
  243POPC   PO4 3279   3.200   0.992   3.942
  243POPC   GL1 3280   3.445   0.703   4.235
  243POPC   GL2 3281   3.635   0.370   4.254
  243POPC   C1A 3282   3.442   0.532   4.689
  243POPC   D2A 3283   3.379   0.139   4.948
  243POPC   C3A 3284   3.257   0.225   5.399
  243POPC   C4A 3285   3.375   0.437   5.797
  243POPC   C1B 3286   3.842   0.239   4.637
  243POPC   C2B 3287   3.787   0.436   5.056
  243POPC   C3B 3288   3.783   0.305   5.462
  243POPC   C4B 3289   3.898   0.350   5.875
  244POPC   NC3 3290   8.730   1.722   3.946
  244POPC   PO4 3291   9.189   2.103   3.704
  244POPC   GL1 3292   9.172   2.128   4.250
  244POPC   GL2 3293   9.047   1.807   4.330
  244POPC   C1A 3294   8.928   2.230   4.715
  244POPC   D2A 3295   8.537   2.261   5.056
  244POPC   C3A 3296   8.627   2.177   5.532
  244POPC   C4A 3297   8.733   2.124   6.014
  244POPC   C1B 3298   9.289   1.866   4.688
  244POPC   C2B 3299   9.250   2.063   5.105
  244POPC   C3B 3300   9.078   1.867   5.491
  244POPC   C4B 3301   8.727   1.701   5.733
  245POPC   NC3 3302   0.347   9.836   3.995
  245POPC   PO4 3303   0.739   9.318   3.863
  245POPC   GL1 3304   0.599   9.432   4.267
  245POPC   GL2 3305   0.308   9.321   4.404
  245POPC   C1A 3306   0.647   9.527   4.729
  245POPC   D2A 3307   0.515   9.570   5.149
  245POPC   C3A 3308   0.780   9.383   5.467
  245POPC   C4A 3309   0.479   9.318   5.796
  245POPC   C1B 3310   0.135   9.575   4.768
  245POPC   C2B 3311   0.079   9.841   5.130
  245POPC   C3B 3312   0.288   9.812   5.543
  245POPC   C4B 3313   0.122   9.656   5.913
  246POPC   NC3 3314   7.329   8.738   3.947
  246POPC   PO4 3315   6.781   9.308   4.114
  246POPC   GL1 3316   7.156   9.117   4.323
  246POPC   GL2 3317   7.480   9.023   4.360
  246POPC   C1A 3318   7.136   8.893   4.728
  246POPC   D2A 3319   6.918   8.984   5.122
  246POPC   C3A 3320   7.169   8.944   5.506
  246POPC   C4A 3321   7.010   9.095   5.920
  246POPC   C1B 3322   7.655   8.926   4.777
  246POPC   C2B 3323   7.646   8.876   5.233
  246POPC   C3B 3324   7.529   8.573   5.570
  246POPC   C4B 3325   7.233   8.535   5.860
  247POPC   NC3 3326   5.704   7.639   3.951
  247POPC   PO4 3327   6.139   7.103   3.980
  247POPC   GL1 3328   6.062   7.442   4.306
  247POPC   GL2 3329   5.733   7.354   4.388
  247POPC   C1A 3330   5.923   7.620   4.768
  247POPC   D2A 3331   5.887   7.844   5.228
  247POPC   C3A 3332   5.846   7.593   5.635
  247POPC   C4A 3333   5.881   7.539   6.096
  247POPC   C1B 3334   6.050   7.134   4.708
  247POPC   C2B 3335   6.263   7.261   5.129
  247POPC   C3B 3336   6.188   7.197   5.581
  247POPC   C4B 3337   5.818   7.099   5.851
  248POPC   NC3 3338   2.757   0.890   3.811
  248POPC   PO4 3339   2.590   0.240   3.919
  248POPC   GL1 3340   2.927   0.535   4.158
  248POPC   GL2 3341   3.132   0.283   4.354
  248POPC   C1A 3342   3.046   0.804   4.561
  248POPC   D2A 3343   3.072   0.648   5.025
  248POPC   C3A 3344   2.816   0.730   5.418
  248POPC   C4A 3345   2.889   0.645   5.885
  248POPC   C1B 3346   2.777   0.381   4.657
  248POPC   C2B 3347   2.618   0.386   5.093
  248POPC   C3B 3348   2.721   0.241   5.529
  248POPC   C4B 3349   2.493   0.306   5.913
  249POPC   NC3 3350   8.819   6.714   3.918
  249POPC   PO4 3351   8.653   6.097   4.070
  249POPC   GL1 3352   8.736   6.489   4.363
  249POPC   GL2 3353   9.113   6.662   4.330
  249POPC   C1A 3354   8.767   6.649   4.781
  249POPC   D2A 3355   9.069   6.606   5.121
  249POPC   C3A 3356   8.969   6.415   5.490
  249POPC   C4A 3357   8.772   6.316   5.892
  249POPC   C1B 3358   9.212   6.873   4.696
  249POPC   C2B 3359   9.273   7.067   5.119
  249POPC   C3B 3360   9.315   6.893   5.531
  249POPC   C4B 3361   9.146   6.669   5.889
  250POPC   NC3 3362   4.829   9.527   3.920
  250POPC   PO4 3363   5.532   9.608   3.808
  250POPC   GL1 3364   5.360   9.553   4.285
  250POPC   GL2 3365   5.027   9.428   4.359
  250POPC   C1A 3366   5.369   9.683   4.726
  250POPC   D2A 3367   5.490   9.534   5.149
  250POPC   C3A 3368   5.276   9.746   5.485
  250POPC   C4A 3369   5.315   9.868   5.927
  250POPC   C1B 3370   4.772   9.408   4.732
  250POPC   C2B 3371   4.862   9.699   5.052
  250POPC   C3B 3372   4.736   9.783   5.455
  250POPC   C4B 3373   4.894   9.565   5.816
  251POPC   NC3 3374   7.185   1.919   4.165
  251POPC   PO4 3375   6.514   1.852   3.893
  251POPC   GL1 3376   6.596   1.827   4.285
  251POPC   GL2 3377   6.271   1.713   4.383
  251POPC   C1A 3378   6.802   1.695   4.669
  251POPC   D2A 3379   6.843   1.963   5.033
  251POPC   C3A 3380   6.753   1.710   5.390
  251POPC   C4A 3381   6.822   1.620   5.832
  251POPC   C1B 3382   6.386   1.985   4.758
  251POPC   C2B 3383   6.373   2.023   5.238
  251POPC   C3B 3384   6.519   2.032   5.693
  251POPC   C4B 3385   6.381   1.768   6.056
  252POPC   NC3 3386   1.578   2.013   3.908
  252POPC   PO4 3387   1.443   1.423   3.978
  252POPC   GL1 3388   1.430   1.703   4.342
  252POPC   GL2 3389   1.284   2.037   4.324
  252POPC   C1A 3390   1.335   1.801   4.809
  252POPC   D2A 3391   1.063   1.683   5.202
  252POPC   C3A 3392   1.176   1.662   5.651
  252POPC   C4A 3393   1.511   1.832   5.928
  252POPC   C1B 3394   1.204   2.331   4.631
  252POPC   C2B 3395   1.040   2.204   5.033
  252POPC   C3B 3396   1.271   2.129   5.401
  252POPC   C4B 3397   1.161   2.355   5.747
  253POPC   NC3 3398   0.147   3.616   3.957
  253POPC   PO4 3399   0.831   3.222   4.013
  253POPC   GL1 3400   0.655   3.174   4.409
  253POPC   GL2 3401   0.383   3.414   4.431
  253POPC   C1A 3402   0.630   3.233   4.835
  253POPC   D2A 3403   0.509   3.456   5.177
  253POPC   C3A 3404   0.604   3.156   5.456
  253POPC   C4A 3405   0.672   3.181   5.867
  253POPC   C1B 3406   0.384   3.715   4.739
  253POPC   C2B 3407   0.119   3.781   5.106
  253POPC   C3B 3408   0.199   3.777   5.525
  253POPC   C4B 3409   0.407   3.589   5.852
  254POPC   NC3 3410   3.904   9.730   3.599
  254POPC   PO4 3411   4.370   9.412   3.811
  254POPC   GL1 3412   4.473   9.349   4.251
  254POPC   GL2 3413   4.571   9.700   4.359
  254POPC   C1A 3414   4.235   9.439   4.653
  254POPC   D2A 3415   4.337   9.608   5.092
  254POPC   C3A 3416   4.104   9.365   5.450
  254POPC   C4A 3417   3.851   9.547   5.812
  254POPC   C1B 3418   4.270   9.946   4.661
  254POPC   C2B 3419   4.028   9.999   5.069
  254POPC   C3B 3420   4.103   9.882   5.507
  254POPC   C4B 3421   4.383   9.623   5.797
  255POPC   NC3 3422   2.647   9.142   4.158
  255POPC   PO4 3423   2.706   8.515   3.888
  255POPC   GL1 3424   2.599   8.618   4.298
  255POPC   GL2 3425   2.918   8.775   4.427
  255POPC   C1A 3426   2.464   8.692   4.720
  255POPC   D2A 3427   2.375   8.525   5.142
  255POPC   C3A 3428   2.449   8.845   5.436
  255POPC   C4A 3429   2.811   8.844   5.708
  255POPC   C1B 3430   2.838   9.035   4.795
  255POPC   C2B 3431   2.868   9.083   5.224
  255POPC   C3B 3432   3.108   8.717   5.303
  255POPC   C4B 3433   3.257   8.563   5.695
  256POPC   NC3 3434   0.313   9.051   3.883
  256POPC   PO4 3435   0.911   8.677   4.080
  256POPC   GL1 3436   0.614   8.897   4.263
  256POPC   GL2 3437   0.387   8.643   4.222
  256POPC   C1A 3438   0.509   8.947   4.677
  256POPC   D2A 3439   0.712   9.101   5.020
  256POPC   C3A 3440   0.557   8.938   5.399
  256POPC   C4A 3441   0.728   8.861   5.799
  256POPC   C1B 3442   0.125   8.604   4.610
  256POPC   C2B 3443   0.236   8.665   5.043
  256POPC   C3B 3444   0.054   8.791   5.427
  256POPC   C4B 3445   0.201   8.911   5.823
  257POPC   NC3 3446   6.335   1.362   3.842
  257POPC   PO4 3447   6.780   0.779   3.893
  257POPC   GL1 3448   6.866   1.078   4.231
  257POPC   GL2 3449   6.610   1.313   4.266
  257POPC   C1A 3450   6.929   1.185   4.680
  257POPC   D2A 3451   7.003   1.022   5.118
  257POPC   C3A 3452   6.856   1.220   5.486
  257POPC   C4A 3453   6.563   1.061   5.789
  257POPC   C1B 3454   6.426   1.322   4.655
  257POPC   C2B 3455   6.570   1.338   5.064
  257POPC   C3B 3456   6.343   1.395   5.456
  257POPC   C4B 3457   6.144   1.345   5.860
  258POPC   NC3 3458   5.186   1.422   3.616
  258POPC   PO4 3459   4.794   0.914   3.889
  258POPC   GL1 3460   5.124   0.984   4.259
  258POPC   GL2 3461   4.936   1.189   4.443
  258POPC   C1A 3462   5.387   0.998   4.648
  258POPC   D2A 3463   5.467   0.993   5.073
  258POPC   C3A 3464   5.097   0.974   5.306
  258POPC   C4A 3465   4.954   1.034   5.720
  258POPC   C1B 3466   4.978   1.227   4.858
  258POPC   C2B 3467   4.902   1.437   5.221
  258POPC   C3B 3468   5.143   1.487   5.583
  258POPC   C4B 3469   4.976   1.464   6.017
  259POPC   NC3 3470   6.457   7.440   3.949
  259POPC   PO4 3471   7.095   7.399   3.978
  259POPC   GL1 3472   7.068   7.405   4.413
  259POPC   GL2 3473   6.753   7.510   4.364
  259POPC   C1A 3474   6.954   7.326   4.846
  259POPC   D2A 3475   6.747   7.509   5.202
  259POPC   C3A 3476   6.724   7.336   5.609
  259POPC   C4A 3477   6.960   6.974   5.677
  259POPC   C1B 3478   6.439   7.475   4.671
  259POPC   C2B 3479   6.346   7.747   5.010
  259POPC   C3B 3480   6.339   7.726   5.477
  259POPC   C4B 3481   6.340   7.554   5.903
  260POPC   NC3 3482   6.029   1.850   3.943
  260POPC   PO4 3483   6.076   2.421   4.069
  260POPC   GL1 3484   5.930   2.104   4.389
  260POPC   GL2 3485   5.627   1.903   4.368
  260POPC   C1A 3486   5.914   1.820   4.772
  260POPC   D2A 3487   5.873   1.808   5.221
  260POPC   C3A 3488   6.067   1.810   5.616
  260POPC   C4A 3489   6.068   2.134   5.925
  260POPC   C1B 3490   5.439   2.002   4.791
  260POPC   C2B 3491   5.537   2.194   5.190
  260POPC   C3B 3492   5.561   2.000   5.611
  260POPC   C4B 3493   5.382   1.754   5.944
  261POPC   NC3 3494   0.674   8.243   4.051
  261POPC   PO4 3495   0.167   7.810   3.919
  261POPC   GL1 3496   0.413   7.841   4.278
  261POPC   GL2 3497   0.265   8.170   4.367
  261POPC   C1A 3498   0.484   7.898   4.724
  261POPC   D2A 3499   0.237   8.147   5.039
  261POPC   C3A 3500   0.253   7.988   5.479
  261POPC   C4A 3501   0.458   8.061   5.895
  261POPC   C1B 3502   0.572   8.412   4.682
  261POPC   C2B 3503   0.715   8.515   5.107
  261POPC   C3B 3504   0.507   8.449   5.534
  261POPC   C4B 3505   0.108   8.410   5.781
  262POPC   NC3 3506   9.917   8.218   3.933
  262POPC   PO4 3507   9.386   7.815   3.807
  262POPC   GL1 3508   9.543   7.987   4.194
  262POPC   GL2 3509   9.851   7.846   4.308
  262POPC   C1A 3510   9.441   7.853   4.647
  262POPC   D2A 3511   9.673   7.910   5.049
  262POPC   C3A 3512   9.483   7.904   5.482
  262POPC   C4A 3513   9.750   7.849   5.861
  262POPC   C1B 3514   9.787   8.220   4.590
  262POPC   C2B 3515   9.803   8.418   4.979
  262POPC   C3B 3516   9.822   8.303   5.382
  262POPC   C4B 3517   9.609   8.331   5.776
  263POPC   NC3 3518   9.624   0.604   4.068
  263POPC   PO4 3519   0.051   0.114   3.748
  263POPC   GL1 3520   9.877   0.181   4.216
  263POPC   GL2 3521   9.556   0.191   4.410
  263POPC   C1A 3522   9.973   0.178   4.683
  263POPC   D2A 3523   9.793   0.281   5.113
  263POPC   C3A 3524   9.991   0.250   5.537
  263POPC   C4A 3525   0.047   0.404   5.999
  263POPC   C1B 3526   9.625   0.564   4.705
  263POPC   C2B 3527   9.401   0.686   5.073
  263POPC   C3B 3528   9.662   0.701   5.425
  263POPC   C4B 3529   9.595   0.467   5.794
  264POPC   NC3 3530   4.321   8.956   3.895
  264POPC   PO4 3531   4.565   8.346   3.813
  264POPC   GL1 3532   4.482   8.621   4.260
  264POPC   GL2 3533   4.126   8.747   4.358
  264POPC   C1A 3534   4.486   8.987   4.612
  264POPC   D2A 3535   4.311   9.112   5.027
  264POPC   C3A 3536   4.611   9.268   5.357
  264POPC   C4A 3537   4.600   9.085   5.748
  264POPC   C1B 3538   4.223   8.632   4.835
  264POPC   C2B 3539   4.256   8.665   5.297
  264POPC   C3B 3540   4.194   8.783   5.710
  264POPC   C4B 3541   3.963   8.769   6.091
  265POPC   NC3 3542   8.388   5.815   3.839
  265POPC   PO4 3543   7.797   5.812   3.977
  265POPC   GL1 3544   8.065   5.702   4.359
  265POPC   GL2 3545   8.417   5.752   4.354
  265POPC   C1A 3546   8.223   5.684   4.843
  265POPC   D2A 3547   8.257   5.744   5.316
  265POPC   C3A 3548   7.909   5.816   5.625
  265POPC   C4A 3549   7.626   6.161   5.778
  265POPC   C1B 3550   8.523   6.079   4.692
  265POPC   C2B 3551   8.662   5.975   5.086
  265POPC   C3B 3552   8.598   6.079   5.482
  265POPC   C4B 3553   8.319   6.061   5.795
  266POPC   NC3 3554   8.768   0.435   3.781
  266POPC   PO4 3555   9.339   0.268   3.963
  266POPC   GL1 3556   9.066   0.494   4.216
  266POPC   GL2 3557   8.739   0.333   4.303
  266POPC   C1A 3558   9.143   0.452   4.633
  266POPC   D2A 3559   9.329   0.173   4.916
  266POPC   C3A 3560   9.336   0.254   5.376
  266POPC   C4A 3561   9.113   0.497   5.673
  266POPC   C1B 3562   8.657   0.542   4.725
  266POPC   C2B 3563   8.906   0.467   5.084
  266POPC   C3B 3564   8.717   0.343   5.416
  266POPC   C4B 3565   8.530   0.616   5.652
  267POPC   NC3 3566   6.532   2.339   3.922
  267POPC   PO4 3567   6.254   2.856   3.638
  267POPC   GL1 3568   6.431   2.816   4.121
  267POPC   GL2 3569   6.742   2.683   4.273
  267POPC   C1A 3570   6.328   2.695   4.596
  267POPC   D2A 3571   6.572   2.438   4.922
  267POPC   C3A 3572   6.622   2.447   5.380
  267POPC   C4A 3573   6.359   2.512   5.744
  267POPC   C1B 3574   6.775   2.885   4.704
  267POPC   C2B 3575   6.682   2.911   5.153
  267POPC   C3B 3576   6.722   2.900   5.597
  267POPC   C4B 3577   6.807   2.608   5.960
  268POPC   NC3 3578   1.068   9.157   4.133
  268POPC   PO4 3579   1.578   9.335   3.731
  268POPC   GL1 3580   1.563   9.128   4.214
  268POPC   GL2 3581   1.377   8.799   4.347
  268POPC   C1A 3582   1.386   9.189   4.670
  268POPC   D2A 3583   1.196   9.301   5.036
  268POPC   C3A 3584   1.446   9.228   5.370
  268POPC   C4A 3585   1.219   9.062   5.692
  268POPC   C1B 3586   1.090   8.770   4.749
  268POPC   C2B 3587   1.094   8.837   5.207
  268POPC   C3B 3588   1.026   8.571   5.526
  268POPC   C4B 3589   1.245   8.595   5.886
  269POPC   NC3 3590   1.766   2.704   3.976
  269POPC   PO4 3591   2.377   2.446   3.849
  269POPC   GL1 3592   2.235   2.499   4.287
  269POPC   GL2 3593   2.184   2.842   4.278
  269POPC   C1A 3594   2.264   2.582   4.784
  269POPC   D2A 3595   2.383   2.646   5.267
  269POPC   C3A 3596   2.141   2.552   5.677
  269POPC   C4A 3597   2.277   2.407   6.116
  269POPC   C1B 3598   2.036   3.038   4.664
  269POPC   C2B 3599   1.996   2.930   5.099
  269POPC   C3B 3600   1.956   2.996   5.533
  269POPC   C4B 3601   1.741   3.199   5.840
  270POPC   NC3 3602   0.559   6.585   3.922
  270POPC   PO4 3603   0.203   6.079   3.721
  270POPC   GL1 3604   0.440   6.172   4.166
  270POPC   GL2 3605   0.307   6.533   4.355
  270POPC   C1A 3606   0.585   6.195   4.608
  270POPC   D2A 3607   0.580   6.490   4.972
  270POPC   C3A 3608   0.671   6.419   5.418
  270POPC   C4A 3609   0.481   6.341   5.844
  270POPC   C1B 3610   0.084   6.559   4.777
  270POPC   C2B 3611   0.116   6.473   5.219
  270POPC   C3B 3612   0.234   6.695   5.577
  270POPC   C4B 3613   0.161   6.816   6.012
  271POPC   NC3 3614   9.801   7.466   3.896
  271POPC   PO4 3615   9.275   7.021   3.962
  271POPC   GL1 3616   9.404   7.159   4.325
  271POPC   GL2 3617   9.430   7.496   4.248
  271POPC   C1A 3618   9.292   7.372   4.723
  271POPC   D2A 3619   9.241   7.612   5.104
  271POPC   C3A 3620   9.280   7.411   5.513
  271POPC   C4A 3621   9.541   7.301   5.879
  271POPC   C1B 3622   9.766   7.440   4.584
  271POPC   C2B 3623   9.704   7.372   5.047
  271POPC   C3B 3624   9.808   7.508   5.466
  271POPC   C4B 3625   0.038   7.386   5.864
  272POPC   NC3 3626   7.022   0.383   3.982
  272POPC   PO4 3627   7.564   0.661   4.213
  272POPC   GL1 3628   7.182   0.675   4.377
  272POPC   GL2 3629   7.118   0.284   4.464
  272POPC   C1A 3630   7.008   0.671   4.759
  272POPC   D2A 3631   7.062   0.310   4.992
  272POPC   C3A 3632   7.182   0.312   5.402
  272POPC   C4A 3633   7.059   0.314   5.853
  272POPC   C1B 3634   7.508   0.308   4.737
  272POPC   C2B 3635   7.875   0.203   4.982
  272POPC   C3B 3636   7.720   0.175   5.392
  272POPC   C4B 3637   7.542   0.479   5.709
  273POPC   NC3 3638   9.619   9.919   3.872
  273POPC   PO4 3639   0.015   9.406   4.010
  273POPC   GL1 3640   9.905   9.688   4.344
  273POPC   GL2 3641   9.591   9.666   4.307
  273POPC   C1A 3642   9.669   9.803   4.786
  273POPC   D2A 3643   9.468   9.765   5.195
  273POPC   C3A 3644   9.753   9.748   5.534
  273POPC   C4A 3645   9.721   9.984   5.903
  273POPC   C1B 3646   9.520   9.347   4.649
  273POPC   C2B 3647   9.682   9.303   5.078
  273POPC   C3B 3648   9.447   9.315   5.475
  273POPC   C4B 3649   9.327   9.644   5.826
  274POPC   NC3 3650   0.579   2.048   3.931
  274POPC   PO4 3651   0.559   2.465   4.412
  274POPC   GL1 3652   0.731   2.039   4.427
  274POPC   GL2 3653   0.449   1.793   4.360
  274POPC   C1A 3654   0.749   1.809   4.813
  274POPC   D2A 3655   0.557   1.843   5.249
  274POPC   C3A 3656   0.795   2.037   5.582
  274POPC   C4A 3657   0.688   2.313   5.971
  274POPC   C1B 3658   0.235   1.927   4.737
  274POPC   C2B 3659   0.040   1.684   5.058
  274POPC   C3B 3660   0.083   1.751   5.459
  274POPC   C4B 3661   0.265   2.114   5.677
  275POPC   NC3 3662   9.559   1.065   3.764
  275POPC   PO4 3663   8.975   0.853   3.762
  275POPC   GL1 3664   9.277   0.964   4.183
  275POPC   GL2 3665   9.653   1.084   4.261
  275POPC   C1A 3666   9.320   1.229   4.607
  275POPC   D2A 3667   9.586   1.154   4.973
  275POPC   C3A 3668   9.379   1.167   5.368
  275POPC   C4A 3669   9.385   0.952   5.767
  275POPC   C1B 3670   9.937   0.977   4.619
  275POPC   C2B 3671   0.095   1.059   5.057
  275POPC   C3B 3672   9.902   1.236   5.454
  275POPC   C4B 3673   9.765   1.256   5.911
  276POPC   NC3 3674   3.667   1.168   3.962
  276POPC   PO4 3675   3.168   1.688   4.094
  276POPC   GL1 3676   3.433   1.523   4.410
  276POPC   GL2 3677   3.330   1.209   4.369
  276POPC   C1A 3678   3.558   1.436   4.861
  276POPC   D2A 3679   3.427   1.565   5.297
  276POPC   C3A 3680   3.525   1.340   5.707
  276POPC   C4A 3681   3.314   1.375   6.128
  276POPC   C1B 3682   3.641   1.002   4.594
  276POPC   C2B 3683   3.639   0.919   5.009
  276POPC   C3B 3684   3.488   0.743   5.388
  276POPC   C4B 3685   3.729   0.823   5.752
  277POPC   NC3 3686   2.400   2.907   3.797
  277POPC   PO4 3687   3.041   3.181   3.939
  277POPC   GL1 3688   2.721   2.968   4.178
  277POPC   GL2 3689   2.754   2.613   4.139
  277POPC   C1A 3690   2.567   2.941   4.593
  277POPC   D2A 3691   2.787   2.795   4.956
  277POPC   C3A 3692   2.737   3.034   5.323
  277POPC   C4A 3693   2.485   2.954   5.683
  277POPC   C1B 3694   2.700   2.436   4.555
  277POPC   C2B 3695   2.650   2.290   4.985
  277POPC   C3B 3696   2.860   2.450   5.358
  277POPC   C4B 3697   2.647   2.453   5.746
  278POPC   NC3 3698   0.520   0.388   3.821
  278POPC   PO4 3699   9.972   0.875   3.885
  278POPC   GL1 3700   0.168   0.621   4.260
  278POPC   GL2 3701   0.363   0.262   4.299
  278POPC   C1A 3702   0.255   0.586   4.730
  278POPC   D2A 3703   0.414   0.638   5.165
  278POPC   C3A 3704   0.230   0.745   5.581
  278POPC   C4A 3705   0.505   0.615   5.939
  278POPC   C1B 3706   0.441   0.004   4.679
  278POPC   C2B 3707   0.534   0.105   5.121
  278POPC   C3B 3708   0.502   0.275   5.564
  278POPC   C4B 3709   0.428   0.077   6.006
  279POPC   NC3 3710   4.110   2.717   3.948
  279POPC   PO4 3711   4.587   2.292   3.938
  279POPC   GL1 3712   4.480   2.616   4.281
  279POPC   GL2 3713   4.317   2.932   4.357
  279POPC   C1A 3714   4.483   2.628   4.736
  279POPC   D2A 3715   4.230   2.646   5.102
  279POPC   C3A 3716   4.463   2.459   5.430
  279POPC   C4A 3717   4.747   2.412   5.800
  279POPC   C1B 3718   4.117   3.042   4.778
  279POPC   C2B 3719   3.900   3.038   5.206
  279POPC   C3B 3720   3.889   2.775   5.621
  279POPC   C4B 3721   4.233   2.564   5.878
  280POPC   NC3 3722   4.281   1.950   3.857
  280POPC   PO4 3723   4.865   1.738   3.724
  280POPC   GL1 3724   4.676   1.851   4.184
  280POPC   GL2 3725   4.645   2.154   4.409
  280POPC   C1A 3726   4.473   1.742   4.599
  280POPC   D2A 3727   4.548   2.083   4.918
  280POPC   C3A 3728   4.556   1.945   5.308
  280POPC   C4A 3729   4.412   2.029   5.714
  280POPC   C1B 3730   4.199   2.222   4.580
  280POPC   C2B 3731   4.049   2.185   5.041
  280POPC   C3B 3732   3.968   2.256   5.518
  280POPC   C4B 3733   3.978   2.085   5.982
  281POPC   NC3 3734   3.569   9.335   4.115
  281POPC   PO4 3735   3.529   9.938   3.756
  281POPC   GL1 3736   3.597   9.854   4.220
  281POPC   GL2 3737   3.309   9.728   4.397
  281POPC   C1A 3738   3.771   9.711   4.652
  281POPC   D2A 3739   3.784   9.518   5.064
  281POPC   C3A 3740   3.592   9.800   5.374
  281POPC   C4A 3741   3.567   9.967   5.800
  281POPC   C1B 3742   3.270   9.613   4.861
  281POPC   C2B 3743   3.134   9.539   5.293
  281POPC   C3B 3744   3.117   9.774   5.677
  281POPC   C4B 3745   3.058   9.681   6.141
  282POPC   NC3 3746   8.686   5.013   3.536
  282POPC   PO4 3747   8.905   5.314   4.086
  282POPC   GL1 3748   9.106   5.361   4.436
  282POPC   GL2 3749   9.138   5.027   4.450
  282POPC   C1A 3750   9.163   5.324   4.868
  282POPC   D2A 3751   9.108   5.049   5.187
  282POPC   C3A 3752   9.177   5.337   5.510
  282POPC   C4A 3753   8.969   5.342   5.898
  282POPC   C1B 3754   8.767   5.003   4.766
  282POPC   C2B 3755   8.626   4.892   5.196
  282POPC   C3B 3756   8.756   5.005   5.598
  282POPC   C4B 3757   8.676   4.942   6.100
  283POPC   NC3 3758   3.566   6.644   4.031
  283POPC   PO4 3759   3.099   6.186   4.002
  283POPC   GL1 3760   3.339   6.362   4.416
  283POPC   GL2 3761   3.580   6.640   4.527
  283POPC   C1A 3762   3.278   6.428   4.900
  283POPC   D2A 3763   3.067   6.363   5.325
  283POPC   C3A 3764   3.212   6.404   5.755
  283POPC   C4A 3765   3.277   6.504   6.199
  283POPC   C1B 3766   3.714   6.694   4.956
  283POPC   C2B 3767   3.533   6.614   5.394
  283POPC   C3B 3768   3.571   6.743   5.853
  283POPC   C4B 3769   3.733   6.702   6.319
  284POPC   NC3 3770   1.143   9.520   3.714
  284POPC   PO4 3771   0.791   0.031   3.936
  284POPC   GL1 3772   0.844   9.879   4.356
  284POPC   GL2 3773   1.067   9.574   4.473
  284POPC   C1A 3774   0.941   9.991   4.772
  284POPC   D2A 3775   0.976   9.750   5.121
  284POPC   C3A 3776   0.828   9.894   5.483
  284POPC   C4A 3777   0.759   9.728   5.852
  284POPC   C1B 3778   1.375   9.707   4.804
  284POPC   C2B 3779   1.462   9.755   5.259
  284POPC   C3B 3780   1.237   9.610   5.647
  284POPC   C4B 3781   1.266   9.634   6.112
  285POPC   NC3 3782   4.400   0.802   3.674
  285POPC   PO4 3783   3.812   0.733   3.833
  285POPC   GL1 3784   4.079   0.608   4.225
  285POPC   GL2 3785   4.460   0.678   4.237
  285POPC   C1A 3786   4.071   0.702   4.701
  285POPC   D2A 3787   4.283   0.573   5.110
  285POPC   C3A 3788   4.168   0.665   5.560
  285POPC   C4A 3789   4.184   0.757   6.052
  285POPC   C1B 3790   4.530   0.431   4.654
  285POPC   C2B 3791   4.561   0.135   5.039
  285POPC   C3B 3792   4.484   0.241   5.473
  285POPC   C4B 3793   4.353   0.134   5.883
  286POPC   NC3 3794   2.279   8.281   3.842
  286POPC   PO4 3795   1.717   8.633   3.980
  286POPC   GL1 3796   1.974   8.477   4.306
  286POPC   GL2 3797   2.020   8.153   4.359
  286POPC   C1A 3798   2.008   8.466   4.766
  286POPC   D2A 3799   1.833   8.397   5.167
  286POPC   C3A 3800   2.021   8.566   5.542
  286POPC   C4A 3801   2.118   8.629   5.991
  286POPC   C1B 3802   1.779   7.998   4.759
  286POPC   C2B 3803   1.681   7.909   5.197
  286POPC   C3B 3804   1.719   7.849   5.624
  286POPC   C4B 3805   2.084   8.079   5.744
  287W        W 3806   8.811   1.881   0.245
  288W        W 3807   4.570   0.973  10.757
  289W        W 3808   8.981   1.356   2.275
  290W        W 3809   0.011   7.992   1.685
  291W        W 3810   8.833   3.442   9.137
  292W        W 3811   7.126   7.396   9.523
  293W        W 3812   0.694   0.200   0.945
  294W        W 3813   3.479   7.648  11.177
  295W        W 3814   1.679   8.396   1.938
  296W        W 3815   8.606   1.698   3.306
  297W        W 3816   6.953   2.006  11.723
  298W        W 3817   2.180   0.762   8.932
  299W        W 3818   7.797   3.944   3.636
  300W        W 3819   4.588   3.673   8.915
  301W        W 3820   1.219   0.972   9.535
  302W        W 3821   5.633   6.360   2.461
  303W        W 3822   6.722   9.086  11.842
  304W        W 3823   8.687   2.637   2.447
  305W        W 3824   6.190   8.205   9.238
  306W        W 3825   4.616   6.798   9.495
  307W        W 3826   4.137   6.740   3.629
  308W        W 3827   5.139   4.632   0.954
  309W        W 3828   0.432   8.521   2.618
  310W        W 3829   7.282   6.011   1.957
  311W        W 3830   8.092   6.341  10.502
  312W        W 3831   4.482   1.864   0.436
  313W        W 3832   6.147   2.713  10.918
  314W        W 3833   2.799   3.303   3.511
  315W        W 3834   6.465   3.025  11.847
  316W        W 3835   7.026   6.940   2.764
  317W        W 3836   8.254   2.021   3.542
  318W        W 3837   5.487   0.545   1.677
  319W        W 3838   4.937   5.185  10.486
  320W        W 3839   2.764   4.700   9.486
  321W        W 3840   5.453   2.275  11.433
  322W        W 3841   2.247   9.341  10.387
  323W        W 3842   9.285   8.878   3.749
  324W        W 3843   3.675   0.529   3.295
  325W        W 3844   6.380   8.391   1.260
  326W        W 3845   8.747   4.498  11.077
  327W        W 3846   4.574   4.161  11.802
  328W        W 3847   9.539   0.719   9.523
  329W        W 3848   5.234   6.599  11.819
  330W        W 3849   8.724   2.206   3.344
  331W        W 3850   6.992   9.235   9.971
  332W        W 3851   3.341   4.618   0.942
  333W        W 3852   9.288   5.207   9.599
  334W        W 3853   5.876   7.997   3.604
  335W        W 3854   2.674   7.009   3.321
  336W        W 3855   2.644   6.636   9.570
  337W        W 3856   5.243   1.219   2.323
  338W        W 3857   1.405   2.099  10.570
  339W        W 3858   4.596   5.095   9.497
  340W        W 3859   0.451   5.931   1.683
  341W        W 3860   8.337   8.522   8.770
  342W        W 3861   6.906   2.797   0.127
  343W        W 3862   3.561   9.101   0.323
  344W        W 3863   4.070   1.857   9.449
  345W        W 3864   1.595   5.137   3.486
  346W        W 3865   0.364   3.430   2.206
  347W        W 3866   9.473   6.262   0.290
  348W        W 3867   3.104   4.740   8.670
  349W        W 3868   3.312   4.206   2.854
  350W        W 3869   2.890   0.442  11.520
  351W        W 3870   5.366   9.874   9.687
  352W        W 3871   8.018   2.398   0.497
  353W        W 3872   4.692   7.739   8.500
  354W        W 3873   4.725   0.918   0.692
  355W        W 3874   9.934   3.323  10.433
  356W        W 3875   9.380   0.644  10.020
  357W        W 3876   5.089   3.306   9.515
  358W        W 3877   7.313   3.601   9.713
  359W        W 3878   0.856   7.487   0.188
  360W        W 3879   3.101   4.165   1.792
  361W        W 3880   8.976   7.375  10.027
  362W        W 3881   0.373   0.874   8.848
  363W        W 3882   3.560   2.369  10.917
  364W        W 3883   4.587   5.190   3.093
  365W        W 3884   9.377   8.498   1.305
  366W        W 3885   1.408   3.576  11.547
  367W        W 3886   4.893   7.045   9.129
  368W        W 3887   0.133   1.068   8.432
  369W        W 3888   4.729   7.857   1.880
  370W        W 3889   9.471   9.639  11.225
  371W        W 3890   6.004   3.262   2.432
  372W        W 3891   5.528   1.737  10.782
  373W        W 3892   5.474   9.861   1.450
  374W        W 3893   2.289   3.981  11.482
  375W        W 3894   4.531   5.054   0.049
  376W        W 3895   2.655   2.192   9.269
  377W        W 3896   2.588   1.088   2.438
  378W        W 3897   6.003   8.104   1.042
  379W        W 3898   2.199   7.928  11.591
  380W        W 3899   4.608   6.154   0.287
  381W        W 3900   8.436   0.199   0.209
  382W        W 3901   3.728   3.371   2.686
  383W        W 3902   2.341   8.073   1.319
  384W        W 3903   3.927   6.357   1.320
  385W        W 3904   7.129   4.699  11.044
  386W        W 3905   9.636   2.395   9.693
  387W        W 3906   4.155   9.850   8.676
  388W        W 3907   6.892   1.478   2.729
  389W        W 3908   4.800   2.701   8.402
  390W        W 3909   3.539   8.097   9.842
  391W        W 3910   9.290   7.592   1.309
  392W        W 3911   1.170   7.324   1.496
  393W        W 3912   3.977   2.794   8.552
  394W        W 3913   2.409   1.565  11.299
  395W        W 3914   8.720   4.837   0.493
  396W        W 3915   2.540   2.607   8.787
  397W        W 3916   0.594   9.600  11.546
  398W        W 3917   7.926   9.875  11.394
  399W        W 3918   1.874   2.987   9.923
  400W        W 3919   5.248   2.677  11.204
  401W        W 3920   0.408   8.646  11.159
  402W        W 3921   5.021   5.569   8.839
  403W        W 3922   2.731   8.076   3.016
  404W        W 3923   0.360   3.237   1.117
  405W        W 3924   3.857   4.609  11.073
  406W        W 3925   1.672   0.470  10.591
  407W        W 3926   6.732   4.735   8.716
  408W        W 3927   4.824   2.414   1.095
  409W        W 3928   7.958   5.167   2.499
  410W        W 3929   4.107   6.154   0.175
  411W        W 3930   8.494   2.114   9.237
  412W        W 3931   6.043   7.464   3.592
  413W        W 3932   5.550   7.359  10.212
  414W        W 3933   2.753   6.599   8.984
  415W        W 3934   8.016   2.390  11.983
  416W        W 3935   3.261   3.096   9.515
  417W        W 3936   5.078   4.492   0.359
  418W        W 3937   8.794   1.644   1.248
  419W        W 3938   0.312   4.585   3.180
  420W        W 3939   1.889   5.353   2.710
  421W        W 3940   2.899   2.574   0.720
  422W        W 3941   3.693   3.990   9.022
  423W        W 3942   0.364   5.531   9.481
  424W        W 3943   4.171   2.797   2.665
  425W        W 3944   1.794   2.539   0.147
  426W        W 3945   5.480   0.099   9.233
  427W        W 3946   1.919   4.224   8.797
  428W        W 3947   2.851   7.628   3.279
  429W        W 3948   3.287   8.614   9.167
  430W        W 3949   6.540   5.150   8.462
  431W        W 3950   9.381   2.818   3.732
  432W        W 3951   9.771   7.780   0.705
  433W        W 3952   3.058   2.236   2.009
  434W        W 3953   0.469   7.451  11.837
  435W        W 3954   8.339   0.701   8.950
  436W        W 3955   4.952   3.566   0.314
  437W        W 3956   8.800   8.975  11.200
  438W        W 3957   4.194   9.959   3.227
  439W        W 3958   6.173   7.578   2.588
  440W        W 3959   3.580   3.675   1.201
  441W        W 3960   2.086   7.431   1.977
  442W        W 3961   6.174   1.423   1.857
  443W        W 3962   8.136   7.381   9.713
  444W        W 3963   9.695   2.929   0.932
  445W        W 3964   2.866   0.948   2.829
  446W        W 3965   8.047   5.586  11.468
  447W        W 3966   7.115   6.731   0.860
  448W        W 3967   9.199   7.420  11.488
  449W        W 3968   7.967   1.641   0.839
  450W        W 3969   6.875   9.524   0.169
  451W        W 3970   0.711   6.617   0.015
  452W        W 3971   4.233   2.055   0.894
  453W        W 3972   8.454   1.376   2.917
  454W        W 3973   2.246   8.079   2.297
  455W        W 3974   1.790   4.936   8.213
  456W        W 3975   9.832   3.646   3.083
  457W        W 3976   6.472   8.348  10.762
  458W        W 3977   4.010   6.187   0.824
  459W        W 3978   4.006   5.108   1.578
  460W        W 3979   8.493   4.636  10.094
  461W        W 3980   8.277   3.650   9.155
  462W        W 3981   3.299   1.998   0.883
  463W        W 3982   5.462   7.491  11.622
  464W        W 3983   0.848   4.524   9.191
  465W        W 3984   6.957   1.272  11.907
  466W        W 3985   0.536   4.426   0.912
  467W        W 3986   9.560   1.895   9.554
  468W        W 3987   8.941   7.038  10.440
  469W        W 3988   0.046   1.249   8.918
  470W        W 3989   5.174   3.492  11.868
  471W        W 3990   9.059   9.090   8.969
  472W        W 3991   3.206   7.378  11.506
  473W        W 3992   1.399   1.386  11.404
  474W        W 3993   1.811   5.972   3.293
  475W        W 3994   4.491   4.546   2.781
  476W        W 3995   9.396   7.711   9.967
  477W        W 3996   9.835   6.109   8.948
  478W        W 3997   6.613   2.120  10.374
  479W        W 3998   7.055   7.949  11.322
  480W        W 3999   7.535   2.599  11.909
  481W        W 4000   6.636   4.297   3.690
  482W        W 4001   7.265   5.639   2.622
  483W        W 4002   4.149   5.703   0.993
  484W        W 4003   0.535   2.719  10.754
  485W        W 4004   6.137   3.194   0.730
  486W        W 4005   8.581   1.081   0.076
  487W        W 4006   6.483   6.825   2.074
  488W        W 4007   6.640   9.767   0.928
  489W        W 4008   8.566   0.590  10.513
  490W        W 4009   0.739   8.413   8.926
  491W        W 4010   1.644   1.460   1.766
  492W        W 4011   5.459   6.637  11.332
  493W        W 4012   5.258   2.969   1.677
  494W        W 4013   6.681   9.997   9.979
  495W        W 4014   3.973   7.928   0.231
  496W        W 4015   4.137   1.711  11.626
  497W        W 4016   7.339   0.363   9.168
  498W        W 4017   6.921   4.143   9.351
  499W        W 4018   3.879   1.760   1.411
  500W        W 4019   2.289   4.615   8.698
  501W        W 4020   2.877   4.132  10.545
  502W        W 4021   5.490   5.175  11.814
  503W        W 4022   2.934   1.171   0.011
  504W        W 4023   9.543   5.078   9.174
  505W        W 4024   4.920   4.190  10.506
  506W        W 4025   4.160   1.529  10.758
  507W        W 4026   2.607   3.943   0.892
  508W        W 4027   3.740   8.812  11.952
  509W        W 4028   6.339   6.172   9.810
  510W        W 4029   9.713   4.561   3.119
  511W        W 4030   4.733   4.959   2.639
  512W        W 4031   2.976   0.777   0.396
  513W        W 4032   4.939   3.661   3.563
  514W        W 4033   8.359   3.914   1.821
  515W        W 4034   1.571   5.028   2.975
  516W        W 4035   2.958   1.403   2.273
  517W        W 4036   9.149   0.834   1.574
  518W        W 4037   2.490   5.292   0.700
  519W        W 4038   3.128   7.499   8.846
  520W        W 4039   3.311   2.085  11.920
  521W        W 4040   8.880   6.355   1.579
  522W        W 4041   0.417   5.428   1.658
  523W        W 4042   8.459   9.808  11.143
  524W        W 4043   3.252   0.980  10.885
  525W        W 4044   6.906   2.465   3.032
  526W        W 4045   4.539   5.555  10.546
  527W        W 4046   3.700   5.406   8.914
  528W        W 4047   1.371   1.738   3.524
  529W        W 4048   0.316   9.713  11.989
  530W        W 4049   5.065   2.945  10.214
  531W        W 4050   5.809   2.547   3.620
  532W        W 4051   9.523   9.800   8.867
  533W        W 4052   9.228   3.742   9.336
  534W        W 4053   7.373   7.171  11.921
  535W        W 4054   2.332   7.423   3.379
  536W        W 4055   1.240   6.453  11.404
  537W        W 4056   0.538   0.313   9.903
  538W        W 4057   1.251   5.371  11.699
  539W        W 4058   5.582   8.635   0.219
  540W        W 4059   4.148   3.881   8.339
  541W        W 4060   1.398   3.519   1.518
  542W        W 4061   1.432   8.694   3.546
  543W        W 4062   2.562   5.415   4.213
  544W        W 4063   2.701   2.666  10.786
  545W        W 4064   8.383   2.675   1.622
  546W        W 4065   6.137   6.364   1.362
  547W        W 4066   6.720   5.731   1.371
  548W        W 4067   4.966   9.606   1.748
  549W        W 4068   8.056   0.188  11.862
  550W        W 4069   7.952   9.678   0.979
  551W        W 4070   1.459   3.538  11.002
  552W        W 4071   1.685   3.297   1.918
  553W        W 4072   7.595   2.313   1.300
  554W        W 4073   7.115   5.556   2.142
  555W        W 4074   9.657   5.322   1.956
  556W        W 4075   1.686   2.765  11.695
  557W        W 4076   8.510   1.489  10.001
  558W        W 4077   3.667   8.847   2.124
  559W        W 4078   5.072   8.047   0.084
  560W        W 4079   7.630   4.648   1.303
  561W        W 4080   2.394   7.016   2.070
  562W        W 4081   7.045   0.652   0.788
  563W        W 4082   5.950   9.954  10.451
  564W        W 4083   8.063   5.116   9.052
  565W        W 4084   5.858   7.569   9.838
  566W        W 4085   0.960   9.510   1.897
  567W        W 4086   1.915   3.116   2.840
  568W        W 4087   9.478   3.408   9.723
  569W        W 4088   6.576   8.854   1.209
  570W        W 4089   7.765   6.161   2.040
  571W        W 4090   5.103   6.991   1.383
  572W        W 4091   0.434   0.810   9.844
  573W        W 4092   4.537   3.335   3.805
  574W        W 4093   1.359   6.089   2.541
  575W        W 4094   6.994   4.512   1.820
  576W        W 4095   9.585   2.958  11.056
  577W        W 4096   1.139   4.642   9.621
  578W        W 4097   0.346   9.587  11.078
  579W        W 4098   6.551   4.324   9.033
  580W        W 4099   4.320   1.124   2.441
  581W        W 4100   9.460   2.933   1.471
  582W        W 4101   9.731   9.368   1.267
  583W        W 4102   9.646   6.103  11.047
  584W        W 4103   0.256   0.493  11.752
  585W        W 4104   6.947   5.112  11.254
  586W        W 4105   4.971   2.343   2.114
  587W        W 4106   1.385   6.435   1.479
  588W        W 4107   5.797   0.189   9.934
  589W        W 4108   6.078   0.876   2.804
  590W        W 4109   5.103   3.143  11.479
  591W        W 4110   8.204   7.200  11.464
  592W        W 4111   1.664   4.554   2.715
  593W        W 4112   3.663   6.373   2.220
  594W        W 4113   2.264   2.416  11.062
  595W        W 4114   8.993   4.714   0.922
  596W        W 4115   6.506   5.202   4.156
  597W        W 4116   1.237   5.285   8.505
  598W        W 4117   3.609   7.307  10.358
  599W        W 4118   2.853   0.895   1.765
  600W        W 4119   8.397   2.202   2.493
  601W        W 4120   2.257   8.836   0.745
  602W        W 4121   9.952   6.193   1.912
  603W        W 4122   5.764   5.912   1.299
  604W        W 4123   6.913   3.841   3.277
  605W        W 4124   4.683   3.278   3.309
  606W        W 4125   4.289   2.733   1.915
  607W        W 4126   9.984   4.632  10.484
  608W        W 4127   3.269   5.535   0.879
  609W        W 4128   4.152   0.565   8.645
  610W        W 4129   0.429   4.189   2.882
  611W        W 4130   0.822   4.274  11.730
  612W        W 4131   1.665   2.273  11.445
  613W        W 4132   1.215   8.032  11.233
  614W        W 4133   3.987   0.301  10.928
  615W        W 4134   5.584   7.982   2.923
  616W        W 4135   0.195   0.047   2.201
  617W        W 4136   1.296   1.210   2.025
  618W        W 4137   2.133   3.730  10.417
  619W        W 4138   8.420   2.917   2.101
  620W        W 4139   5.501   5.712   3.196
  621W        W 4140   8.316   8.492  10.624
  622W        W 4141   6.441   2.537   3.292
  623W        W 4142   9.918   5.725   0.999
  624W        W 4143   6.736   1.828  11.065
  625W        W 4144   5.343   2.030   1.974
  626W        W 4145   5.886   6.009   9.949
  627W        W 4146   7.615   8.254   9.388
  628W        W 4147   2.235   5.953   9.245
  629W        W 4148   7.275   0.753  11.793
  630W        W 4149   4.971   4.046   1.969
  631W        W 4150   3.808   5.518   0.130
  632W        W 4151   7.881   4.983   2.957
  633W        W 4152   7.182   0.004  10.981
  634W        W 4153   6.130   6.902   3.095
  635W        W 4154   5.016   7.425  10.270
  636W        W 4155   0.768   7.398   0.693
  637W        W 4156   9.430   9.969  10.816
  638W        W 4157   7.997   1.167  10.123
  639W        W 4158   5.264   6.839   3.704
  640W        W 4159   4.754   3.829   9.879
  641W        W 4160   5.261   5.390   0.765
  642W        W 4161   7.441   1.233  11.023
  643W        W 4162   2.106   7.992   0.471
  644W        W 4163   9.862   1.505  10.506
  645W        W 4164   5.293   0.989   1.870
  646W        W 4165   2.909   8.326  10.863
  647W        W 4166   6.097   8.531  10.422
  648W        W 4167   9.992   9.385   9.533
  649W        W 4168   9.349   6.060   0.744
  650W        W 4169   7.039   0.908   1.229
  651W        W 4170   4.687   4.583   1.225
  652W        W 4171   8.380   2.034   2.991
  653W        W 4172   9.471   8.488   9.740
  654W        W 4173   1.759   3.673   0.248
  655W        W 4174   7.195   3.535  11.973
  656W        W 4175   6.953   0.437   0.335
  657W        W 4176   4.221   3.506  11.957
  658W        W 4177   9.304   3.540   0.312
  659W        W 4178   8.778   6.624   9.175
  660W        W 4179   3.662   5.432   1.270
  661W        W 4180   2.891   9.373   3.251
  662W        W 4181   9.728   1.897   9.036
  663W        W 4182   2.328   7.654  11.045
  664W        W 4183   7.000   5.174   4.002
  665W        W 4184   5.531   9.453   1.145
  666W        W 4185   9.211   3.275   1.787
  667W        W 4186   4.504   6.110   3.128
  668W        W 4187   0.362   7.076   9.754
  669W        W 4188   1.962   6.388   1.711
  670W        W 4189   2.042   0.385  10.964
  671W        W 4190   2.704   0.397   1.167
  672W        W 4191   3.846   2.924  11.251
  673W        W 4192   5.726   9.111   9.237
  674W        W 4193   5.528   7.195   0.428
  675W        W 4194   8.063   6.644  11.880
  676W        W 4195   6.047   7.570  10.329
  677W        W 4196   7.622   6.097   0.289
  678W        W 4197   3.039   1.308   3.578
  679W        W 4198   6.574   1.513   0.908
  680W        W 4199   3.644   3.286   3.704
  681W        W 4200   9.451   5.308   1.446
  682W        W 4201   3.620   0.738   1.324
  683W        W 4202   5.019   2.348   1.587
  684W        W 4203   5.717   7.190   3.154
  685W        W 4204   9.882   0.851  11.763
  686W        W 4205   5.222   7.502   0.086
  687W        W 4206   6.566   5.568   9.263
  688W        W 4207   2.318   9.107   0.289
  689W        W 4208   2.151   5.522  11.654
  690W        W 4209   8.810   9.068   2.810
  691W        W 4210   6.783   4.487  10.036
  692W        W 4211   4.016   9.300   2.796
  693W        W 4212   8.385   8.461   3.289
  694W        W 4213   2.292   7.579   2.420
  695W        W 4214   6.432   2.201  10.935
  696W        W 4215   4.270   1.428  10.243
  697W        W 4216   6.422   1.595   2.916
  698W        W 4217   4.649   0.751   1.177
  699W        W 4218   4.154   9.830   1.421
  700W        W 4219   5.434   7.050  11.927
  701W        W 4220   5.164   2.781  10.699
  702W        W 4221   0.084   9.552  11.543
  703W        W 4222   7.950   5.082   0.008
  704W        W 4223   4.248   5.115   2.688
  705W        W 4224   4.490   6.660   3.130
  706W        W 4225   3.911   3.930  10.346
  707W        W 4226   3.969   4.551   4.028
  708W        W 4227   0.847   9.889   9.734
  709W        W 4228   9.400   1.344   0.295
  710W        W 4229   9.788   3.783   0.668
  711W        W 4230   2.763   0.034  10.502
  712W        W 4231   3.133   4.876   8.175
  713W        W 4232   9.970   6.987   9.012
  714W        W 4233   2.424   8.332   9.039
  715W        W 4234   8.806   7.910   3.396
  716W        W 4235   4.233   3.847  11.584
  717W        W 4236   9.387   6.999  10.700
  718W        W 4237   5.692   6.473   1.115
  719W        W 4238   3.383   5.404   0.392
  720W        W 4239   5.607   7.842  10.406
  721W        W 4240   8.963   7.437   2.361
  722W        W 4241   8.582   4.799   3.074
  723W        W 4242   9.853   1.491   3.071
  724W        W 4243   2.801   1.461  11.619
  725W        W 4244   7.706   3.119   3.221
  726W        W 4245   5.060   5.432   3.118
  727W        W 4246   4.436   0.096   2.417
  728W        W 4247   9.519   0.248   9.727
  729W        W 4248   9.764   2.392  10.858
  730W        W 4249   7.630   5.302  11.666
  731W        W 4250   3.129   6.938   1.199
  732W        W 4251   8.863   6.241   0.816
  733W        W 4252   5.126   2.031   1.187
  734W        W 4253   4.240   5.761   3.388
  735W        W 4254   6.672   1.207   3.138
  736W        W 4255   3.827   4.605   0.054
  737W        W 4256   8.392   3.838   2.342
  738W        W 4257   8.145   5.900   1.156
  739W        W 4258   4.482   2.592   1.442
  740W        W 4259   7.173   7.245   0.809
  741W        W 4260   3.886   3.643   9.865
  742W        W 4261   8.926   4.598   0.061
  743W        W 4262   3.567   7.882  10.319
  744W        W 4263   4.016   8.250   1.529
  745W        W 4264   9.029   8.325   2.122
  746W        W 4265   7.526   8.930  10.507
  747W        W 4266   9.066   4.198   0.871
  748W        W 4267   0.320   2.919   3.585
  749W        W 4268   4.774   2.746  11.391
  750W        W 4269   1.766   0.724   2.266
  751W        W 4270   7.807   1.246  10.627
  752W        W 4271   2.814   3.301   2.992
  753W        W 4272   4.120   0.879  11.028
  754W        W 4273   2.790   8.021   1.644
  755W        W 4274   3.652   4.456   9.329
  756W        W 4275   7.502   4.429   3.081
  757W        W 4276   7.883   4.657   0.309
  758W        W 4277   9.804   7.666   2.022
  759W        W 4278   8.371   4.566  11.465
  760W        W 4279   1.512   0.557   9.388
  761W        W 4280   5.131   2.736   2.694
  762W        W 4281   8.725   6.108  11.949
  763W        W 4282   0.080   5.654   9.057
  764W        W 4283   8.958   7.049   9.463
  765W        W 4284   3.301   9.241   1.400
  766W        W 4285   0.464   6.601   9.910
  767W        W 4286   4.635   5.741   2.220
  768W        W 4287   7.895   1.862   1.339
  769W        W 4288   3.203   3.554  11.940
  770W        W 4289   7.069   6.412   8.233
  771W        W 4290   2.337   2.122  10.113
  772W        W 4291   7.016   6.388   8.746
  773W        W 4292   5.027   9.863   9.220
  774W        W 4293   2.319   1.905  10.900
  775W        W 4294   8.820   6.210  10.587
  776W        W 4295   7.352   3.169   2.697
  777W        W 4296   5.202   3.921  10.143
  778W        W 4297   2.625   7.984  11.289
  779W        W 4298   5.919   2.257  11.025
  780W        W 4299   9.155   9.276  11.535
  781W        W 4300   7.236   6.544   3.915
  782W        W 4301   8.476   7.935  11.044
  783W        W 4302   9.941   1.254  10.077
  784W        W 4303   1.677   3.763   0.755
  785W        W 4304   0.925   8.849   3.601
  786W        W 4305   2.036   3.404   3.247
  787W        W 4306   9.535   8.126   1.991
  788W        W 4307   9.392   4.846  11.824
  789W        W 4308   3.092   3.729   0.913
  790W        W 4309   2.264   3.769   1.868
  791W        W 4310   8.350   8.777   0.227
  792W        W 4311   5.155   8.720  10.942
  793W        W 4312   6.196   9.884   0.313
  794W        W 4313   5.897   1.633   8.455
  795W        W 4314   2.759   4.401   2.126
  796W        W 4315   2.760   2.090   0.932
  797W        W 4316   0.330   6.160   3.219
  798W        W 4317   6.565   9.254   2.365
  799W        W 4318   9.612   7.516  11.780
  800W        W 4319   4.140   8.923   8.870
  801W        W 4320   2.922   0.415   9.339
  802W        W 4321   8.728   6.426  11.229
  803W        W 4322   2.726   3.651  10.599
  804W        W 4323   5.431   0.861  11.064
  805W        W 4324   5.614   1.658   2.299
  806W        W 4325   5.154   8.875  10.452
  807W        W 4326   1.407   0.275   8.945
  808W        W 4327   6.058   7.941   3.137
  809W        W 4328   6.969   2.560   9.806
  810W        W 4329   3.512   4.520   3.801
  811W        W 4330   3.819   1.377   8.743
  812W        W 4331   9.885   6.844   9.959
  813W        W 4332   3.899   8.060   9.051
  814W        W 4333   6.835   2.807  10.215
  815W        W 4334   1.816   5.674   9.587
  816W        W 4335   8.824   0.881   8.907
  817W        W 4336   0.487   1.673   9.826
  818W        W 4337   3.334   8.459  10.601
  819W        W 4338   4.738   7.520   2.327
  820W        W 4339   3.837   9.796  11.854
  821W        W 4340   2.679   3.641   0.055
  822W        W 4341   5.073   6.368   0.235
  823W        W 4342   3.493   0.645   2.249
  824W        W 4343   5.212   5.694   1.182
  825W        W 4344   8.268   4.331   2.362
  826W        W 4345   6.669   8.486   1.780
  827W        W 4346   3.396   9.292   8.565
  828W        W 4347   7.218   1.975   1.461
  829W        W 4348   3.749   9.012   1.635
  830W        W 4349   8.950   9.897  10.939
  831W        W 4350   3.159   8.317   3.131
  832W        W 4351   0.018   1.761   2.665
  833W        W 4352   6.803   5.965   8.950
  834W        W 4353   0.314   0.025  11.576
  835W        W 4354   4.894   1.859   1.785
  836W        W 4355   6.566   8.751  10.455
  837W        W 4356   1.174   0.381  10.731
  838W        W 4357   6.435   2.749  10.512
  839W        W 4358   2.800   9.217  10.644
  840W        W 4359   6.238   3.695   0.803
  841W        W 4360   0.449   1.359  11.270
  842W        W 4361   4.510   9.219   2.774
  843W        W 4362   6.407   9.271   2.841
  844W        W 4363   5.843   4.588  10.464
  845W        W 4364   9.637   1.762   0.109
  846W        W 4365   6.105   9.062  11.163
  847W        W 4366   2.230   3.851   8.982
  848W        W 4367   7.623   2.571  11.393
  849W        W 4368   2.730   6.917   2.811
  850W        W 4369   1.364   3.861   9.277
  851W        W 4370   0.862   2.896  11.512
  852W        W 4371   2.134   0.989   0.837
  853W        W 4372   6.164   5.942   1.671
  854W        W 4373   0.622   2.845   9.524
  855W        W 4374   4.238   2.803   9.497
  856W        W 4375   9.591   0.576   3.573
  857W        W 4376   7.958   7.398   0.408
  858W        W 4377   9.431   8.623  10.259
  859W        W 4378   5.258   5.514   0.175
  860W        W 4379   2.820   3.344   9.632
  861W        W 4380   8.644   3.462   3.306
  862W        W 4381   8.299   1.979   1.695
  863W        W 4382   3.871   8.495   3.790
  864W        W 4383   8.307   3.212  11.453
  865W        W 4384   9.559   3.039   0.257
  866W        W 4385   3.960   2.386  11.271
  867W        W 4386   8.044   5.988   9.556
  868W        W 4387   3.383   4.176   4.205
  869W        W 4388   7.400   4.800   0.412
  870W        W 4389   5.207   2.282   0.176
  871W        W 4390   3.890   7.892   9.536
  872W        W 4391   7.775   1.633  10.279
  873W        W 4392   0.954   9.245   9.533
  874W        W 4393   4.970   6.005   8.287
  875W        W 4394   9.484   1.545   9.949
  876W        W 4395   6.563   2.418   0.922
  877W        W 4396   7.075   6.557   1.362
  878W        W 4397   7.562   3.747   1.958
  879W        W 4398   9.074   9.775  10.408
  880W        W 4399   9.920   4.750   0.891
  881W        W 4400   2.151   9.636   2.159
  882W        W 4401   0.379   4.546   1.769
  883W        W 4402   7.266   2.150   3.226
  884W        W 4403   2.174   3.022  11.445
  885W        W 4404   7.814   3.646   9.553
  886W        W 4405   1.347   9.491   2.650
  887W        W 4406   6.380   6.121   4.115
  888W        W 4407   8.631   5.063  10.375
  889W        W 4408   9.029   4.300  10.641
  890W        W 4409   4.504   7.670  11.367
  891W        W 4410   6.478   1.157   2.666
  892W        W 4411   7.968   0.197   0.976
  893W        W 4412   8.377   3.637  10.214
  894W        W 4413   8.974   4.702  10.283
  895W        W 4414   3.198   6.684  10.872
  896W        W 4415   6.406   7.111   3.483
  897W        W 4416   9.294   2.567  10.825
  898W        W 4417   9.927   9.824   9.231
  899W        W 4418   0.682   4.665  10.899
  900W        W 4419   4.197   4.299  10.596
  901W        W 4420   4.733   2.320   9.021
  902W        W 4421   0.288   3.938   2.221
  903W        W 4422   7.093   2.793  10.674
  904W        W 4423   1.781   6.169   1.255
  905W        W 4424   0.224   5.508   8.452
  906W        W 4425   2.469   3.183   0.210
  907W        W 4426   4.787   6.625   1.985
  908W        W 4427   1.504   8.606   2.832
  909W        W 4428   5.124   0.967   3.328
  910W        W 4429   0.793   7.974   0.014
  911W        W 4430   9.297   7.561   2.743
  912W        W 4431   6.565   7.123   2.948
  913W        W 4432   5.041   3.994  11.976
  914W        W 4433   3.037   7.401   2.863
  915W        W 4434   6.911   2.965   2.845
  916W        W 4435   7.587   1.216   0.507
  917W        W 4436   7.704   9.979   0.374
  918W        W 4437   3.231   7.868   2.853
  919W        W 4438   4.185   6.798   1.418
  920W        W 4439   6.057   3.358   9.160
  921W        W 4440   2.587   8.711   2.409
  922W        W 4441   0.938   7.596  11.675
  923W        W 4442   5.083   8.877   9.096
  924W        W 4443   1.024   5.611  10.862
  925W        W 4444   4.463   4.074   1.960
  926W        W 4445   6.132   5.181   9.329
  927W        W 4446   3.830   9.879   1.015
  928W        W 4447   5.616   0.622   0.753
  929W        W 4448   0.600   7.470  10.883
  930W        W 4449   6.686   9.940   0.451
  931W        W 4450   6.711   0.290   3.611
  932W        W 4451   6.196   4.237   8.244
  933W        W 4452   6.470   4.610   0.483
  934W        W 4453   0.520   3.530  11.763
  935W        W 4454   2.602   0.726   0.778
  936W        W 4455   1.998   2.661   9.551
  937W        W 4456   0.182   0.572  10.755
  938W        W 4457   3.398   2.130   3.530
  939W        W 4458   5.725   2.091  10.449
  940W        W 4459   9.984   2.158  11.481
  941W        W 4460   9.691   1.426   8.599
  942W        W 4461   3.279   3.675  11.084
  943W        W 4462   1.258   3.829   1.922
  944W        W 4463   4.747   2.825   0.814
  945W        W 4464   5.001   9.821   1.270
  946W        W 4465   3.993   3.416  10.408
  947W        W 4466   2.565   3.342  11.614
  948W        W 4467   0.125   6.521   8.864
  949W        W 4468   3.323   1.373   9.969
  950W        W 4469   5.299   6.445   0.733
  951W        W 4470   9.378   2.596  11.353
  952W        W 4471   9.639   7.016   3.546
  953W        W 4472   1.724   2.218   2.396
  954W        W 4473   3.295   3.059   2.368
  955W        W 4474   5.760   1.858   2.735
  956W        W 4475   0.346   0.940   3.384
  957W        W 4476   4.717   5.488   2.698
  958W        W 4477   4.379   7.704   1.099
  959W        W 4478   6.184   7.222  11.409
  960W        W 4479   8.662   2.411   9.638
  961W        W 4480   1.399   9.339   9.794
  962W        W 4481   4.963   9.384  10.511
  963W        W 4482   5.840   0.904   1.749
  964W        W 4483   6.532   3.721   3.614
  965W        W 4484   2.693   0.854  10.622
  966W        W 4485   1.876   7.012   0.872
  967W        W 4486   3.175   7.065   2.524
  968W        W 4487   9.832   4.358   1.271
  969W        W 4488   8.494   4.670   1.437
  970W        W 4489   2.252   1.285  10.911
  971W        W 4490   5.820   5.031   1.339
  972W        W 4491   7.533   6.313   1.606
  973W        W 4492   0.663   5.790   3.149
  974W        W 4493   2.897   0.654  11.045
  975W        W 4494   4.138   1.368   1.627
  976W        W 4495   7.354   6.192   9.551
  977W        W 4496   8.999   6.222   2.681
  978W        W 4497   0.535   7.657   3.181
  979W        W 4498   9.787   0.332   2.178
  980W        W 4499   1.962   9.905  11.992
  981W        W 4500   2.230   5.061   1.872
  982W        W 4501   9.180   7.234   3.522
  983W        W 4502   5.749   6.696   2.819
  984W        W 4503   1.732   2.261   1.431
  985W        W 4504   1.659   5.188   1.097
  986W        W 4505   7.427   3.006  11.572
  987W        W 4506   9.414   5.741   1.143
  988W        W 4507   0.824   7.892   8.856
  989W        W 4508   1.759   5.235  11.782
  990W        W 4509   3.243   8.250   0.459
  991W        W 4510   3.037   7.842  11.018
  992W        W 4511   9.572   5.022  10.440
  993W        W 4512   1.844   8.202   2.934
  994W        W 4513   6.086   1.438   2.369
  995W        W 4514   3.359   3.845  11.544
  996W        W 4515   8.860   3.296  10.486
  997W        W 4516   2.911   2.813   3.140
  998W        W 4517   3.076   9.468   2.330
  999W        W 4518   2.778   1.228  10.981
 1000W        W 4519   1.306   3.323   9.306
 1001W        W 4520   7.014   7.982   0.219
 1002W        W 4521   2.401   8.946  11.341
 1003W        W 4522   3.067   6.596   9.868
 1004W        W 4523   6.673   1.274   1.733
 1005W        W 4524   6.968   4.241   2.265
 1006W        W 4525   9.869   8.271   0.850
 1007W        W 4526   5.056   3.697   8.659
 1008W        W 4527   2.087   1.778   0.391
 1009W        W 4528   4.263   8.432   8.945
 1010W        W 4529   7.873   1.738   3.804
 1011W        W 4530   0.623   0.746   1.178
 1012W        W 4531   6.027   8.514   8.853
 1013W        W 4532   3.094   8.558   2.616
 1014W        W 4533   3.002   1.872   0.485
 1015W        W 4534   9.346   7.921   0.026
 1016W        W 4535   9.948   8.435  11.550
 1017W        W 4536   5.694   8.086   1.849
 1018W        W 4537   1.260   4.054  11.491
 1019W        W 4538   9.108   5.201  10.311
 1020W        W 4539   1.265   0.208   2.597
 1021W        W 4540   2.382   6.687   1.694
 1022W        W 4541   4.138   1.869  11.157
 1023W        W 4542   3.967   8.039   3.473
 1024W        W 4543   8.434   1.194   0.548
 1025W        W 4544   9.837   4.579  11.819
 1026W        W 4545   5.680   0.759  11.921
 1027W        W 4546   3.981   4.963   8.829
 1028W        W 4547   6.495   4.705   2.903
 1029W        W 4548   6.174   5.303   3.775
 1030W        W 4549   8.946   6.472   9.641
 1031W        W 4550   9.055   8.564  10.982
 1032W        W 4551   2.738   2.709   0.217
 1033W        W 4552   9.428   4.744   2.749
 1034W        W 4553   8.629   6.060   1.236
 1035W        W 4554   3.038   6.872  11.439
 1036W        W 4555   7.987   2.764   2.961
 1037W        W 4556   2.171   4.541   1.329
 1038W        W 4557   5.545   3.206   0.065
 1039W        W 4558   5.550   2.276   0.545
 1040W        W 4559   9.824   5.244   0.956
 1041W        W 4560   1.137   5.569   3.215
 1042W        W 4561   6.042   3.514  11.399
 1043W        W 4562   2.229   2.870   9.132
 1044W        W 4563   5.494   4.353  10.764
 1045W        W 4564   4.636   8.229   8.651
 1046W        W 4565   0.776   8.574   1.797
 1047W        W 4566   8.720   9.937   2.015
 1048W        W 4567   1.275   9.990   0.821
 1049W        W 4568   3.556   2.033  11.323
 1050W        W 4569   5.618   5.219   3.126
 1051W        W 4570   4.153   8.601  11.188
 1052W        W 4571   6.787   9.389   1.916
 1053W        W 4572   3.469   2.619   0.606
 1054W        W 4573   0.211   4.301  11.507
 1055W        W 4574   5.171   7.974   2.115
 1056W        W 4575   7.564   7.528   2.369
 1057W        W 4576   7.868   0.633   0.748
 1058W        W 4577   4.158   4.280   2.298
 1059W        W 4578   4.259   3.674   1.706
 1060W        W 4579   4.174   9.847  10.708
 1061W        W 4580   7.886   2.971  10.242
 1062W        W 4581   3.195   9.073   9.785
 1063W        W 4582   6.887   6.948   3.285
 1064W        W 4583   8.257   6.399  11.020
 1065W        W 4584   9.431   4.117   0.537
 1066W        W 4585   5.336   4.401  10.285
 1067W        W 4586   7.029   9.536   0.648
 1068W        W 4587   3.831   9.277   2.332
 1069W        W 4588   3.586   1.846   8.660
 1070W        W 4589   9.819   3.869  11.075
 1071W        W 4590   4.863   5.390  11.866
 1072W        W 4591   6.976   8.605  10.766
 1073W        W 4592   9.679   3.868   0.158
 1074W        W 4593   4.185   2.688  10.890
 1075W        W 4594   1.210   6.717  10.589
 1076W        W 4595   0.958   3.270   0.440
 1077W        W 4596   1.731   8.479  11.801
 1078W        W 4597   1.289   9.743   9.529
 1079W        W 4598   5.627   8.980   0.940
 1080W        W 4599   0.197   7.283  11.161
 1081W        W 4600   0.244   5.905  11.775
 1082W        W 4601   7.582   4.686   1.824
 1083W        W 4602   9.778   5.627  11.794
 1084W        W 4603   4.492   2.257  11.629
 1085W        W 4604   8.269   4.659  11.000
 1086W        W 4605   3.503   5.988   2.964
 1087W        W 4606   4.137   6.885   9.655
 1088W        W 4607   5.207   0.576  11.438
 1089W        W 4608   1.051   1.558   1.739
 1090W        W 4609   5.317   1.197   9.269
 1091W        W 4610   6.782   8.360  11.165
 1092W        W 4611   1.883   2.282   9.920
 1093W        W 4612   8.888   5.698  10.439
 1094W        W 4613   7.119   3.557   0.865
 1095W        W 4614   9.455   8.389  10.719
 1096W        W 4615   8.038   5.003  11.480
 1097W        W 4616   5.560   0.672  10.072
 1098W        W 4617   2.477   3.635   3.183
 1099W        W 4618   7.640   3.899  10.821
 1100W        W 4619   6.124   4.691   9.530
 1101W        W 4620   9.329   9.498   0.898
 1102W        W 4621   4.694   8.657  10.472
 1103W        W 4622   6.994   8.012   2.721
 1104W        W 4623   9.775   7.365   1.064
 1105W        W 4624   6.955   5.330   0.238
 1106W        W 4625   0.669   6.591   2.149
 1107W        W 4626   3.686   2.457   2.699
 1108W        W 4627   7.524   1.569   1.517
 1109W        W 4628   1.829   9.597   3.310
 1110W        W 4629   3.634   8.494   1.752
 1111W        W 4630   3.733   4.196  10.791
 1112W        W 4631   3.735   8.880   2.641
 1113W        W 4632   6.468   6.564   3.280
 1114W        W 4633   8.914   6.491  11.707
 1115W        W 4634   0.403   8.493   9.330
 1116W        W 4635   3.169   9.874   2.657
 1117W        W 4636   0.550   0.446   3.316
 1118W        W 4637   1.160   8.863   0.345
 1119W        W 4638   8.516   5.455  10.746
 1120W        W 4639   6.027   5.579   3.252
 1121W        W 4640   3.695   9.647   8.938
 1122W        W 4641   0.837   8.844  11.437
 1123W        W 4642   4.213   0.636  10.576
 1124W        W 4643   2.081   6.503  11.429
 1125W        W 4644   1.022   4.996  10.508
 1126W        W 4645   6.473   8.186  11.514
 1127W        W 4646   3.772   5.945  10.735
 1128W        W 4647   9.800   4.065  11.689
 1129W        W 4648   0.602   7.596   2.689
 1130W        W 4649   3.185   7.354   0.888
 1131W        W 4650   0.049   5.402   2.910
 1132W        W 4651   1.454   2.953   0.179
 1133W        W 4652   3.690   5.981   0.444
 1134W        W 4653   8.545   8.929   9.014
 1135W        W 4654   9.762   6.531   9.232
 1136W        W 4655   9.113   5.734   2.819
 1137W        W 4656   8.487   2.738  11.472
 1138W        W 4657   6.855   4.973  10.222
 1139W        W 4658   1.648   3.501  10.532
 1140W        W 4659   8.612   3.958   0.910
 1141W        W 4660   7.422   9.453  11.731
 1142W        W 4661   0.350   2.597   9.945
 1143W        W 4662   5.581   7.095   1.153
 1144W        W 4663   8.883   1.275   3.251
 1145W        W 4664   9.926   0.126   8.792
 1146W        W 4665   4.914   3.401   1.531
 1147W        W 4666   4.796   3.025   4.135
 1148W        W 4667   3.073   6.241   2.224
 1149W        W 4668   7.968   3.927   1.433
 1150W        W 4669   3.156   3.330   1.942
 1151W        W 4670   0.628   9.780   2.201
 1152W        W 4671   1.364   9.327   2.176
 1153W        W 4672   1.177   4.607  10.834
 1154W        W 4673   2.180   9.278   3.518
 1155W        W 4674   4.789   3.714  10.378
 1156W        W 4675   2.150   7.112  10.398
 1157W        W 4676   6.238   6.448   2.345
 1158W        W 4677   1.124   7.159  10.344
 1159W        W 4678   6.906   9.513  11.659
 1160W        W 4679   8.570   7.611   9.853
 1161W        W 4680   2.750   7.895   2.148
 1162W        W 4681   6.204   3.207   1.381
 1163W        W 4682   3.022   9.312   1.840
 1164W        W 4683   4.918   2.213  10.802
 1165W        W 4684   8.947   6.681   1.150
 1166W        W 4685   1.199   6.149  10.987
 1167W        W 4686   6.486   2.679   9.548
 1168W        W 4687   1.850   5.272   9.222
 1169W        W 4688   3.195   5.149   2.296
 1170W        W 4689   6.852   7.173  11.884
 1171W        W 4690   7.417   9.865  11.414
 1172W        W 4691   0.614   6.162  10.175
 1173W        W 4692   6.071   0.024   2.613
 1174W        W 4693   9.248   3.666   0.819
 1175W        W 4694   7.572   7.626   0.150
 1176W        W 4695   3.055   2.838   1.376
 1177W        W 4696   0.785   2.608   0.777
 1178W        W 4697   3.760   6.741   8.795
 1179W        W 4698   5.528   4.544   0.613
 1180W        W 4699   3.878   4.016   0.836
 1181W        W 4700   4.638   8.195   0.341
 1182W        W 4701   9.879   9.136   0.294
 1183W        W 4702   1.964   8.714   3.028
 1184W        W 4703   8.847   3.930   3.160
 1185W        W 4704   7.668   1.494   2.910
 1186W        W 4705   4.644   3.986  11.327
 1187W        W 4706   4.876   2.217   2.591
 1188W        W 4707   3.622   3.408   2.169
 1189W        W 4708   3.258   3.107   3.400
 1190W        W 4709   9.782   1.494   3.606
 1191W        W 4710   0.357   9.483   9.181
 1192W        W 4711   2.622   0.592   2.559
 1193W        W 4712   3.119   7.580  11.964
 1194W        W 4713   2.567   6.202   1.657
 1195W        W 4714   7.253   8.956   9.613
 1196W        W 4715   5.609   8.352  10.323
 1197W        W 4716   6.895   4.637  11.501
 1198W        W 4717   8.498   3.497   0.182
 1199W        W 4718   4.486   8.301   2.731
 1200W        W 4719   3.729   8.265  11.913
 1201W        W 4720   7.112   8.693  11.828
 1202W        W 4721   7.776   9.165   8.721
 1203W        W 4722   2.101   6.523  10.040
 1204W        W 4723   3.739   8.111   0.640
 1205W        W 4724   1.642   4.659   1.287
 1206W        W 4725   1.801   1.694   8.578
 1207W        W 4726   5.206   3.208   2.467
 1208W        W 4727   3.733   6.483   7.909
 1209W        W 4728   5.158   8.020  10.163
 1210W        W 4729   9.597   3.325   0.659
 1211W        W 4730   8.190   5.361   1.884
 1212W        W 4731   1.264   0.773  10.379
 1213W        W 4732   8.743   6.474   3.445
 1214W        W 4733   8.786   3.791   9.938
 1215W        W 4734   9.410   8.034   0.996
 1216W        W 4735   6.445   6.010  11.978
 1217W        W 4736   4.141   4.903  11.399
 1218W        W 4737   0.407   6.214   2.706
 1219W        W 4738   3.591   4.067   0.273
 1220W        W 4739   0.832   2.582   9.130
 1221W        W 4740   8.649   7.441  11.906
 1222W        W 4741   8.404   1.380   1.020
 1223W        W 4742   6.044   0.043  11.324
 1224W        W 4743   2.726   9.679  10.854
 1225W        W 4744   9.112   4.174   9.085
 1226W        W 4745   9.278   7.396   8.675
 1227W        W 4746   6.326   1.721   0.298
 1228W        W 4747   6.647   1.662  10.071
 1229W        W 4748   1.038   4.172   0.206
 1230W        W 4749   2.699   0.397   1.684
 1231W        W 4750   1.856   1.292  11.903
 1232W        W 4751   8.533   7.105   2.509
 1233W        W 4752   1.452   1.797   1.461
 1234W        W 4753   8.555   4.979   1.838
 1235W        W 4754   0.482   2.944   2.336
 1236W        W 4755   9.841   8.016  11.290
 1237W        W 4756   3.500   6.312   0.803
 1238W        W 4757   4.993   0.265  11.843
 1239W        W 4758   7.861   4.520  11.366
 1240W        W 4759   4.168   7.004   0.469
 1241W        W 4760   9.040   2.399  10.417
 1242W        W 4761   6.476   9.769   2.373
 1243W        W 4762   7.471   1.921   1.005
 1244W        W 4763   0.122   2.419  10.442
 1245W        W 4764   2.202   2.468   2.557
 1246W        W 4765   5.784   6.513   9.973
 1247W        W 4766   7.444   8.841   1.389
 1248W        W 4767   2.744   1.669  10.693
 1249W        W 4768   0.707   2.581  10.312
 1250W        W 4769   9.060   1.695  10.869
 1251W        W 4770   4.930   7.045   2.300
 1252W        W 4771   5.729   6.463  11.749
 1253W        W 4772   9.065   5.525   0.321
 1254W        W 4773   7.003   7.674   1.621
 1255W        W 4774   4.590   6.808   8.390
 1256W        W 4775   5.516   3.358   8.998
 1257W        W 4776   8.875   4.949   9.387
 1258W        W 4777   7.407   0.305   1.918
 1259W        W 4778   5.629   8.889  11.064
 1260W        W 4779   3.041   6.056   2.724
 1261W        W 4780   1.650   6.769  11.988
 1262W        W 4781   7.599   3.566   2.483
 1263W        W 4782   2.013   7.824   3.264
 1264W        W 4783   9.202   6.725   3.536
 1265W        W 4784   3.196   8.974   2.285
 1266W        W 4785   8.698   8.408   0.300
 1267W        W 4786   2.608   0.881   1.280
 1268W        W 4787   4.751   8.766   2.668
 1269W        W 4788   4.008   8.025  10.956
 1270W        W 4789   2.688   6.199   9.306
 1271W        W 4790   5.394   5.971   9.039
 1272W        W 4791   0.398   9.007   9.457
 1273W        W 4792   9.103   0.906   9.346
 1274W        W 4793   7.641   6.242   3.694
 1275W        W 4794   3.828   3.879   2.160
 1276W        W 4795   0.409   5.142   2.614
 1277W        W 4796   8.965   8.491  10.463
 1278W        W 4797   9.839   0.427  11.476
 1279W        W 4798   2.741   1.309   8.896
 1280W        W 4799   2.711   8.774   9.140
 1281W        W 4800   8.666   9.449  11.439
 1282W        W 4801   8.741   0.395   9.089
 1283W        W 4802   5.580   3.180   0.568
 1284W        W 4803   8.047   7.115  10.935
 1285W        W 4804   6.210   4.536  10.845
 1286W        W 4805   9.703   8.160  10.221
 1287W        W 4806   3.040   9.079   2.767
 1288W        W 4807   1.436   1.766  11.047
 1289W        W 4808   0.402   3.366  11.279
 1290W        W 4809   9.734   1.236   0.939
 1291W        W 4810   6.923   0.420   1.273
 1292W        W 4811   2.018   5.145   3.179
 1293W        W 4812   2.143   2.291   0.443
 1294W        W 4813   4.398   9.388   8.535
 1295W        W 4814   0.270   1.499   3.396
 1296W        W 4815   1.843   5.199   9.764
 1297W        W 4816   9.983   5.089  10.740
 1298W        W 4817   6.956   2.076   1.040
 1299W        W 4818   2.243   6.466   9.146
 1300W        W 4819   3.971   4.219   2.973
 1301W        W 4820   3.821   2.117   9.049
 1302W        W 4821   0.637   7.195  10.446
 1303W        W 4822   7.482   7.177   0.400
 1304W        W 4823   8.100   3.318   9.901
 1305W        W 4824   0.236   2.915  10.362
 1306W        W 4825   5.245   0.709   2.480
 1307W        W 4826   8.971   0.168   0.931
 1308W        W 4827   3.779   8.567   9.048
 1309W        W 4828   7.143   4.003   1.772
 1310W        W 4829   2.816   1.778   1.951
 1311W        W 4830   8.349   7.129   2.996
 1312W        W 4831   7.339   9.832  10.534
 1313W        W 4832   3.781   0.594   2.684
 1314W        W 4833   9.388   0.604  11.689
 1315W        W 4834   3.148   4.903  11.634
 1316W        W 4835   4.670   3.146   8.116
 1317W        W 4836   3.283   4.067   3.720
 1318W        W 4837   6.969   3.682  10.105
 1319W        W 4838   6.446   9.008   9.914
 1320W        W 4839   9.993   6.498  10.901
 1321W        W 4840   5.096   2.719   9.749
 1322W        W 4841   7.885   8.532   3.553
 1323W        W 4842   6.924   3.331   2.437
 1324W        W 4843   3.919   7.160   3.787
 1325W        W 4844   1.760   9.649  10.501
 1326W        W 4845   6.694   1.687   1.404
 1327W        W 4846   2.175   7.459   8.840
 1328W        W 4847   4.937   9.029   0.420
 1329W        W 4848   9.851   0.390   0.581
 1330W        W 4849   8.886   7.673  11.182
 1331W        W 4850   5.627   9.819  11.507
 1332W        W 4851   5.070   3.013  11.982
 1333W        W 4852   7.573   0.680   3.241
 1334W        W 4853   4.007   3.235   1.863
 1335W        W 4854   7.395   3.070   0.083
 1336W        W 4855   0.746   0.564   9.019
 1337W        W 4856   2.546   1.345   9.379
 1338W        W 4857   9.277   1.471   9.470
 1339W        W 4858   0.825   1.804  11.737
 1340W        W 4859   7.035   9.727   9.719
 1341W        W 4860   0.270   9.923   9.596
 1342W        W 4861   6.118   8.051   9.715
 1343W        W 4862   3.268   8.985  10.734
 1344W        W 4863   1.577   0.778   1.356
 1345W        W 4864   8.479   3.544   2.810
 1346W        W 4865   1.419   7.064   9.089
 1347W        W 4866   0.671   7.493   2.187
 1348W        W 4867   8.497   3.619  11.217
 1349W        W 4868   3.496   5.505  11.693
 1350W        W 4869   2.294   3.193  10.123
 1351W        W 4870   0.854   6.355   1.449
 1352W        W 4871   3.490   5.741   9.771
 1353W        W 4872   8.946   1.380   2.772
 1354W        W 4873   2.624   8.483  11.297
 1355W        W 4874   1.824   9.302   2.426
 1356W        W 4875   4.519   2.382  10.094
 1357W        W 4876   7.862   3.191   2.722
 1358W        W 4877   2.254   3.793  10.928
 1359W        W 4878   1.415   9.311  11.921
 1360W        W 4879   7.338   7.957  11.822
 1361W        W 4880   4.707   1.400   0.199
 1362W        W 4881   7.447   8.409   1.639
 1363W        W 4882   4.052   2.899  10.421
 1364W        W 4883   5.646   4.182   1.551
 1365W        W 4884   3.686   0.366   0.734
 1366W        W 4885   1.701   0.014  10.851
 1367W        W 4886   9.004   6.997   8.908
 1368W        W 4887   1.000   4.073   8.997
 1369W        W 4888   9.426   0.401   0.888
 1370W        W 4889   6.516   8.034   2.525
 1371W        W 4890   2.146   0.375  10.449
 1372W        W 4891   5.206   8.961  11.422
 1373W        W 4892   2.899   3.871   8.439
 1374W        W 4893   1.862   5.422  10.780
 1375W        W 4894   2.299   3.542   1.389
 1376W        W 4895   4.364   4.014   0.639
 1377W        W 4896   3.992   6.072   3.080
 1378W        W 4897   9.095   4.989  11.222
 1379W        W 4898   1.954   7.001   9.031
 1380W        W 4899   6.590   5.509   2.297
 1381W        W 4900   8.544   3.777  11.710
 1382W        W 4901   7.004   1.880  10.606
 1383W        W 4902   5.797   2.659  11.321
 1384W        W 4903   7.446   8.180   2.928
 1385W        W 4904   6.273   6.148  10.305
 1386W        W 4905   6.456   5.746  11.072
 1387W        W 4906   3.074   2.164  11.449
 1388W        W 4907   4.337   7.603   3.176
 1389W        W 4908   7.706   4.630   0.793
 1390W        W 4909   6.668   4.141   1.644
 1391W        W 4910   4.031   2.291   1.823
 1392W        W 4911   4.741   9.604   2.484
 1393W        W 4912   0.975   1.225  10.394
 1394W        W 4913   4.450   7.437   1.909
 1395W        W 4914   4.735   7.547   3.940
 1396W        W 4915   9.394   9.689  11.761
 1397W        W 4916   4.686   2.322   0.625
 1398W        W 4917   5.364   3.434   1.826
 1399W        W 4918   1.212   0.962   0.485
 1400W        W 4919   8.278   5.625   2.514
 1401W        W 4920   0.012   0.209   1.721
 1402W        W 4921   3.613   6.822   2.499
 1403W        W 4922   1.340   4.600   0.337
 1404W        W 4923   2.972   4.667  10.531
 1405W        W 4924   8.723   7.245  11.435
 1406W        W 4925   0.743   2.106  11.105
 1407W        W 4926   1.135   2.973   3.107
 1408W        W 4927   1.040   8.385   9.349
 1409W        W 4928   1.869   7.072   2.276
 1410W        W 4929   4.587   4.142   9.142
 1411W        W 4930   6.066   7.137   0.886
 1412W        W 4931   9.219   5.217   2.771
 1413W        W 4932   4.125   6.367   9.549
 1414W        W 4933   2.469   1.676   1.126
 1415W        W 4934   4.308   3.761   9.606
 1416W        W 4935   5.906   9.428   3.009
 1417W        W 4936   8.478   6.571   1.337
 1418W        W 4937   1.398   7.107   9.913
 1419W        W 4938   3.107   9.515  10.012
 1420W        W 4939   4.173   0.418   9.159
 1421W        W 4940   3.270   1.122   1.329
 1422W        W 4941   3.115   6.509   9.367
 1423W        W 4942   8.905   4.629   9.781
 1424W        W 4943   2.198   0.130   0.429
 1425W        W 4944   3.247   1.760   2.694
 1426W        W 4945   0.397   4.003  11.872
 1427W        W 4946   5.468   5.726  10.269
 1428W        W 4947   8.854   7.916   0.203
 1429W        W 4948   2.563   9.955   1.348
 1430W        W 4949   5.525   3.986   3.399
 1431W        W 4950   3.505   0.858   0.797
 1432W        W 4951   0.157   3.266   3.227
 1433W        W 4952   5.537   1.199  10.678
 1434W        W 4953   7.783   7.443   1.281
 1435W        W 4954   4.732   3.923   1.547
 1436W        W 4955   4.047   8.154   9.949
 1437W        W 4956   8.591   5.373   0.635
 1438W        W 4957   5.068   4.650  10.693
 1439W        W 4958   9.763   8.625   2.849
 1440W        W 4959   9.021   5.490  11.347
 1441W        W 4960   9.993   3.081  11.966
 1442W        W 4961   2.277   1.253   1.458
 1443W        W 4962   6.972   6.844  10.188
 1444W        W 4963   7.646   8.845   1.856
 1445W        W 4964   2.051   1.271   0.401
 1446W        W 4965   1.610   2.729   3.106
 1447W        W 4966   5.882   0.493   8.941
 1448W        W 4967   7.879   0.792   1.230
 1449W        W 4968   1.879   5.707   0.460
 1450W        W 4969   1.764   9.867   8.790
 1451W        W 4970   2.282   2.110   1.329
 1452W        W 4971   4.889   2.795   8.896
 1453W        W 4972   2.196   1.688   9.883
 1454W        W 4973   9.305   3.129   2.881
 1455W        W 4974   2.660   9.493   9.777
 1456W        W 4975   6.953   5.978   2.364
 1457W        W 4976   6.372   6.749  11.023
 1458W        W 4977   8.335   2.880  10.019
 1459W        W 4978   0.174   9.140   1.139
 1460W        W 4979   8.193   9.321   9.132
 1461W        W 4980   3.667   1.608   2.432
 1462W        W 4981   3.713   8.993   9.822
 1463W        W 4982   1.996   8.621   3.545
 1464W        W 4983   3.940   9.210   3.596
 1465W        W 4984   6.044   6.014   2.538
 1466W        W 4985   7.467   6.084   2.444
 1467W        W 4986   5.693   7.029   9.805
 1468W        W 4987   1.748   1.811  10.125
 1469W        W 4988   9.781   9.847   2.018
 1470W        W 4989   7.832   1.601  11.887
 1471W        W 4990   8.557   5.555   1.120
 1472W        W 4991   4.909   2.665   0.312
 1473W        W 4992   2.546   1.934   8.826
 1474W        W 4993   6.226   5.932   0.440
 1475W        W 4994   8.426   3.153   9.038
 1476W        W 4995   6.112   5.455   0.279
 1477W        W 4996   9.340   3.756   3.190
 1478W        W 4997   3.042   1.077   0.865
 1479W        W 4998   8.557   8.373   1.923
 1480W        W 4999   8.438   0.050   9.672
 1481W        W 5000   9.436   1.396  11.228
 1482W        W 5001   6.851   0.202   9.541
 1483W        W 5002   7.071   4.836   3.604
 1484W        W 5003   1.402   1.487   1.050
 1485W        W 5004   8.499   0.317  11.667
 1486W        W 5005   2.324   6.027  10.107
 1487W        W 5006   5.785   7.289  10.670
 1488W        W 5007   2.718   8.878   0.542
 1489W        W 5008   6.660   4.139   0.352
 1490W        W 5009   3.774   4.620   1.674
 1491W        W 5010   6.950   3.412   3.604
 1492W        W 5011   3.215   4.167   9.608
 1493W        W 5012   0.901   9.359   2.392
 1494W        W 5013   7.398   6.544   2.066
 1495W        W 5014   9.299   3.193   9.295
 1496W        W 5015   7.153   6.077   3.718
 1497W        W 5016   2.209   4.982  11.535
 1498W        W 5017   6.495   4.871  11.226
 1499W        W 5018   9.471   9.003   0.583
 1500W        W 5019   5.028   6.766   8.660
 1501W        W 5020   1.229   2.870   0.670
 1502W        W 5021   7.094   2.489   1.344
 1503W        W 5022   1.051   7.421   3.040
 1504W        W 5023   8.107   3.816   0.949
 1505W        W 5024   7.546   0.770  10.821
 1506W        W 5025   8.502   9.842   3.029
 1507W        W 5026   7.728   4.712   2.362
 1508W        W 5027   9.403   0.449  10.660
 1509W        W 5028   9.999   3.053   2.153
 1510W        W 5029   8.542   2.301  10.523
 1511W        W 5030   3.000   5.138   3.193
 1512W        W 5031   4.837   6.085   1.430
 1513W        W 5032   4.039   3.911   1.305
 1514W        W 5033   3.638   3.735   8.480
 1515W        W 5034   3.664   0.037   1.505
 1516W        W 5035   8.479   7.060  10.087
 1517W        W 5036   5.115   5.271   1.846
 1518W        W 5037   3.360   0.885   1.780
 1519W        W 5038   9.480   2.429   1.750
 1520W        W 5039   8.294   6.660   9.035
 1521W        W 5040   8.865   3.082   2.654
 1522W        W 5041   1.734   6.325   2.863
 1523W        W 5042   4.973   0.670  10.961
 1524W        W 5043   8.947   7.093   0.799
 1525W        W 5044   4.006   4.333   0.468
 1526W        W 5045   1.554   6.915   3.589
 1527W        W 5046   9.198   6.067   1.866
 1528W        W 5047   1.318   6.691   0.367
 1529W        W 5048   7.464   0.913   0.891
 1530W        W 5049   9.810   3.193   2.854
 1531W        W 5050   4.044   3.217  10.875
 1532W        W 5051   5.452   2.309   9.921
 1533W        W 5052   8.115   8.421   9.426
 1534W        W 5053   7.632   2.332   2.229
 1535W        W 5054   7.549   1.112   8.523
 1536W        W 5055   6.121   6.725   9.650
 1537W        W 5056   7.429   8.527   9.841
 1538W        W 5057   9.248   4.479  11.111
 1539W        W 5058   3.335   7.957   0.894
 1540W        W 5059   4.245   2.581   3.139
 1541W        W 5060   0.220   1.792  10.262
 1542W        W 5061   9.179   3.140   0.821
 1543W        W 5062   3.473   1.228  10.470
 1544W        W 5063   5.931   2.727  10.332
 1545W        W 5064   4.304   4.433   8.538
 1546W        W 5065   7.397   9.565   0.237
 1547W        W 5066   4.987   6.599  10.597
 1548W        W 5067   7.869   6.317   3.230
 1549W        W 5068   1.694   5.776   9.114
 1550W        W 5069   6.389   1.361  11.515
 1551W        W 5070   0.003   5.874   0.193
 1552W        W 5071   1.852   9.209   9.586
 1553W        W 5072   5.410   8.492  11.338
 1554W        W 5073   1.863   4.707  11.263
 1555W        W 5074   4.718   1.431   0.705
 1556W        W 5075   9.587   7.497   3.387
 1557W        W 5076   5.535   2.222   1.540
 1558W        W 5077   6.925   5.530   8.418
 1559W        W 5078   9.645   6.469   8.633
 1560W        W 5079   1.352   8.453   0.112
 1561W        W 5080   6.501   7.802   9.480
 1562W        W 5081   8.489   6.957   1.010
 1563W        W 5082   9.554   4.109   2.863
 1564W        W 5083   5.058   6.419  11.077
 1565W        W 5084   5.860   1.865   1.289
 1566W        W 5085   4.591   3.569   8.427
 1567W        W 5086   8.098   9.437  11.199
 1568W        W 5087   4.091   3.296   9.528
 1569W        W 5088   9.860   1.313  11.470
 1570W        W 5089   0.226   1.036   1.025
 1571W        W 5090   6.364   3.740   0.311
 1572W        W 5091   2.611   1.952  11.575
 1573W        W 5092   7.677   2.121  11.720
 1574W        W 5093   5.208   6.987   9.998
 1575W        W 5094   3.772   1.739   0.910
 1576W        W 5095   4.187   3.179  10.002
 1577W        W 5096   0.306   3.745  10.931
 1578W        W 5097   8.543   6.617   0.079
 1579W        W 5098   1.246   1.590  11.914
 1580W        W 5099   9.493   3.154   2.407
 1581W        W 5100   2.876   0.149  11.056
 1582W        W 5101   7.533   1.179  11.983
 1583W        W 5102   2.918   4.332   0.842
 1584W        W 5103   0.895   0.086   8.905
 1585W        W 5104   7.049   5.476   1.644
 1586W        W 5105   8.853   6.971   3.247
 1587W        W 5106   8.078   0.066  10.906
 1588W        W 5107   7.237   4.637  10.188
 1589W        W 5108   4.757   3.707   9.387
 1590W        W 5109   6.718   5.191   8.947
 1591W        W 5110   5.458   7.617   1.861
 1592W        W 5111   5.734   6.154  10.400
 1593W        W 5112   7.825   6.637  10.870
 1594W        W 5113   7.468   1.866   1.988
 1595W        W 5114   9.127   3.046   9.903
 1596W        W 5115   1.119   5.741   2.225
 1597W        W 5116   2.129   2.582   1.354
 1598W        W 5117   8.758   4.314   0.498
 1599W        W 5118   8.079   2.812   8.878
 1600W        W 5119   3.574   3.647   0.690
 1601W        W 5120   3.403   0.322  11.054
 1602W        W 5121   9.662   8.599   8.548
 1603W        W 5122   0.223   0.007   0.838
 1604W        W 5123   7.024   9.033  10.472
 1605W        W 5124   5.027   4.096   3.277
 1606W        W 5125   7.119   5.959  11.500
 1607W        W 5126   3.285   0.754  11.377
 1608W        W 5127   5.203   0.064  11.346
 1609W        W 5128   3.827   8.294  10.519
 1610W        W 5129   1.790   3.113   9.391
 1611W        W 5130   9.847   8.030  10.711
 1612W        W 5131   7.370   7.502   9.985
 1613W        W 5132   4.927   5.328   1.355
 1614W        W 5133   7.560   5.585  10.240
 1615W        W 5134   4.958   7.520  11.626
 1616W        W 5135   5.167   0.726  11.938
 1617W        W 5136   9.027   3.171   8.724
 1618W        W 5137   3.068   7.870  11.528
 1619W        W 5138   4.023   2.193  10.789
 1620W        W 5139   9.356   9.956   0.661
 1621W        W 5140   9.507   6.488   2.730
 1622W        W 5141   2.294   0.135   1.892
 1623W        W 5142   8.697   1.832  11.706
 1624W        W 5143   3.839   3.632   8.018
 1625W        W 5144   8.495   0.323   0.774
 1626W        W 5145   6.637   3.221  10.450
 1627W        W 5146   7.835   6.100  10.879
 1628W        W 5147   3.202   2.907   0.294
 1629W        W 5148   2.775   6.424  11.042
 1630W        W 5149   3.644   0.978   3.032
 1631W        W 5150   7.746   8.466  11.284
 1632W        W 5151   3.720   8.797  10.548
 1633W        W 5152   9.828   9.986  11.759
 1634W        W 5153   4.634   3.260  10.228
 1635W        W 5154   1.037   9.685   0.482
 1636W        W 5155   6.650   7.504   3.287
 1637W        W 5156   1.068   2.837  10.717
 1638W        W 5157   5.438   2.747   0.290
 1639W        W 5158   3.168   8.282  10.131
 1640W        W 5159   3.575   4.236  11.273
 1641W        W 5160   0.672   4.924   0.935
 1642W        W 5161   3.581   5.902   9.139
 1643W        W 5162   4.178   0.064   1.873
 1644W        W 5163   1.814   5.855   2.727
 1645W        W 5164   0.410   9.310   8.675
 1646W        W 5165   4.167   2.261   2.711
 1647W        W 5166   3.748   6.371  10.436
 1648W        W 5167   3.783   6.107   9.987
 1649W        W 5168   2.049   1.497   0.882
 1650W        W 5169   9.649   1.015   1.410
 1651W        W 5170   4.647   7.190   3.171
 1652W        W 5171   2.681   8.997   9.621
 1653W        W 5172   6.768   9.958   1.384
 1654W        W 5173   5.204   4.979   3.340
 1655W        W 5174   3.362   1.098   0.336
 1656W        W 5175   4.301   9.094  11.255
 1657W        W 5176   3.762   9.198   1.147
 1658W        W 5177   0.484   4.172   9.545
 1659W        W 5178   1.975   2.686   2.157
 1660W        W 5179   2.333   8.815   8.784
 1661W        W 5180   1.301   7.610   9.965
 1662W        W 5181   9.997   8.079   2.229
 1663W        W 5182   8.107   5.455   0.834
 1664W        W 5183   0.924   0.876   9.997
 1665W        W 5184   1.346   4.925  11.951
 1666W        W 5185   4.191   8.579   0.691
 1667W        W 5186   5.206   5.940   0.452
 1668W        W 5187   2.611   6.436  10.056
 1669W        W 5188   0.862   7.206   9.523
 1670W        W 5189   7.933   6.851   2.108
 1671W        W 5190   0.017   2.171   9.400
 1672W        W 5191   1.683   0.010   9.303
 1673W        W 5192   8.861   0.910   2.551
 1674W        W 5193   4.510   5.107   1.774
 1675W        W 5194   7.483   9.435   0.892
 1676W        W 5195   5.565   3.839  11.834
 1677W        W 5196   6.462   6.000   2.255
 1678W        W 5197   7.455   0.314   0.068
 1679W        W 5198   6.399   0.473   9.293
 1680W        W 5199   0.585   9.043   9.973
 1681W        W 5200   7.929   0.185   2.555
 1682W        W 5201   2.664   5.538   3.216
 1683W        W 5202   7.260   1.802   2.853
 1684W        W 5203   6.060   4.543   3.132
 1685W        W 5204   0.885   2.499   9.852
 1686W        W 5205   2.900   9.587   1.428
 1687W        W 5206   5.102   4.966   0.062
 1688W        W 5207   9.444   0.098   3.419
 1689W        W 5208   5.585   2.603   9.537
 1690W        W 5209   7.431   8.856  11.042
 1691W        W 5210   6.322   4.478   4.149
 1692W        W 5211   6.918   8.225  11.756
 1693W        W 5212   6.135   7.634  10.833
 1694W        W 5213   6.388   6.937   8.718
 1695W        W 5214   3.530   7.587   0.575
 1696W        W 5215   8.005   9.522   1.628
 1697W        W 5216   7.218   6.167  10.087
 1698W        W 5217   0.868   3.975   2.985
 1699W        W 5218   4.550   6.631   2.415
 1700W        W 5219   6.682   0.554  10.453
 1701W        W 5220   8.633   9.061   9.840
 1702W        W 5221   4.272   8.744   2.915
 1703W        W 5222   7.886   8.856   0.451
 1704W        W 5223   3.354   9.189   3.193
 1705W        W 5224   9.815   6.704  10.471
 1706W        W 5225   8.661   3.151  11.828
 1707W        W 5226   2.110   1.485   1.929
 1708W        W 5227   7.185   7.056  11.467
 1709W        W 5228   0.095   7.039   3.299
 1710W        W 5229   3.034   6.500   8.483
 1711W        W 5230   0.714   7.956  10.968
 1712W        W 5231   1.212   3.122  11.166
 1713W        W 5232   1.601   1.226   8.757
 1714W        W 5233   9.764   7.487   8.976
 1715W        W 5234   5.920   9.510  11.801
 1716W        W 5235   4.052   7.174  10.614
 1717W        W 5236   3.341   0.424  10.116
 1718W        W 5237   0.857   8.507   1.272
 1719W        W 5238   8.055   0.211   9.990
 1720W        W 5239   9.570   9.238   3.482
 1721W        W 5240   4.913   8.464  11.336
 1722W        W 5241   2.670   8.298  10.365
 1723W        W 5242   5.990   9.275   1.273
 1724W        W 5243   8.162   7.482   2.651
 1725W        W 5244   0.863   4.078   1.189
 1726W        W 5245   2.080   0.789   1.293
 1727W        W 5246   9.809   8.344   3.274
 1728W        W 5247   5.224   8.013   9.575
 1729W        W 5248   8.377   1.733   0.550
 1730W        W 5249   0.466   5.679   0.338
 1731W        W 5250   0.276   7.977   0.745
 1732W        W 5251   6.286   5.904   1.178
 1733W        W 5252   8.689   8.851  10.716
 1734W        W 5253   4.363   9.745   0.610
 1735W        W 5254   5.323   7.500  10.685
 1736W        W 5255   6.539   0.234   2.126
 1737W        W 5256   3.898   5.106  10.955
 1738W        W 5257   1.746   2.648   9.099
 1739W        W 5258   7.585   0.369  10.126
 1740W        W 5259   1.629   8.037  10.484
 1741W        W 5260   4.391   6.477   3.994
 1742W        W 5261   2.133   2.527  11.557
 1743W        W 5262   0.150   7.512   3.496
 1744W        W 5263   1.426   5.355   0.202
 1745W        W 5264   7.100   7.826   3.258
 1746W        W 5265   2.292   7.407  11.545
 1747W        W 5266   5.800   9.570   8.588
 1748W        W 5267   8.666   3.269  10.011
 1749W        W 5268   4.439   7.847  10.011
 1750W        W 5269   4.586   9.532   1.365
 1751W        W 5270   3.019   1.851   9.935
 1752W        W 5271   6.348   5.082   1.505
 1753W        W 5272   4.417   5.123  10.817
 1754W        W 5273   3.408   6.820   0.788
 1755W        W 5274   9.589   1.797  11.525
 1756W        W 5275   4.782   5.528   8.389
 1757W        W 5276   3.153   6.006   1.050
 1758W        W 5277   5.120   0.127   1.710
 1759W        W 5278   1.380   0.191   2.074
 1760W        W 5279   9.082   6.706   2.536
 1761W        W 5280   7.187   0.804   2.147
 1762W        W 5281   7.715   4.548   9.503
 1763W        W 5282   3.785   4.441  10.335
 1764W        W 5283   8.460   2.620   0.482
 1765W        W 5284   1.231   3.370   2.177
 1766W        W 5285   2.784   8.883   1.971
 1767W        W 5286   1.401   9.412  10.873
 1768W        W 5287   3.289   3.192   2.874
 1769W        W 5288   2.812   5.531   8.898
 1770W        W 5289   8.404   4.522   8.299
 1771W        W 5290   1.323   6.167   2.033
 1772W        W 5291   1.995   0.477   9.489
 1773W        W 5292   1.871   9.203  10.695
 1774W        W 5293  10.000   6.507   1.402
 1775W        W 5294   9.106   6.557   3.054
 1776W        W 5295   8.815   3.128  11.333
 1777W        W 5296   5.820   4.243   3.730
 1778W        W 5297   7.274   9.044   8.788
 1779W        W 5298   0.440   5.679   2.677
 1780W        W 5299   7.668   9.867   1.823
 1781W        W 5300   0.667   5.176   2.020
 1782W        W 5301   6.436   9.783   2.890
 1783W        W 5302   7.094   1.418   1.264
 1784W        W 5303   6.860   0.067  10.562
 1785W        W 5304   1.146   3.320  10.655
 1786W        W 5305   5.439   8.936   1.902
 1787W        W 5306   1.347   4.002   1.390
 1788W        W 5307   5.111   1.750   2.362
 1789W        W 5308   7.907   9.813   3.256
 1790W        W 5309   3.240   0.875   9.892
 1791W        W 5310   6.133   0.223   0.685
 1792W        W 5311   9.876   2.738   1.767
 1793W        W 5312   5.921   6.467   3.268
 1794W        W 5313   6.348   9.044   0.186
 1795W        W 5314   4.162   8.029   8.595
 1796W        W 5315   3.147   6.015   9.488
 1797W        W 5316   8.013   1.424   0.354
 1798W        W 5317   7.534   9.842   9.493
 1799W        W 5318   1.691   7.480   0.807
 1800W        W 5319   6.081   3.707  11.870
 1801W        W 5320   5.886   0.604   3.758
 1802W        W 5321   4.651   1.379   9.872
 1803W        W 5322   2.901   1.721  11.193
 1804W        W 5323   8.038   6.979   2.585
 1805W        W 5324   3.016   5.561   9.718
 1806W        W 5325   2.786   3.058   0.578
 1807W        W 5326   4.017   1.805   9.962
 1808W        W 5327   2.715   9.323   8.182
 1809W        W 5328   5.171   6.260   8.686
 1810W        W 5329   8.039   8.884  10.405
 1811W        W 5330   1.330   4.072  10.983
 1812W        W 5331   5.021   4.543   3.577
 1813W        W 5332   8.189   4.279   3.592
 1814W        W 5333   5.637   6.212   8.312
 1815W        W 5334   8.626   0.827  11.650
 1816W        W 5335   1.264   6.517   2.838
 1817W        W 5336   3.579   5.276  10.526
 1818W        W 5337   6.648   8.129   0.537
 1819W        W 5338   6.568   6.497   8.514
 1820W        W 5339   4.492   9.273  10.803
 1821W        W 5340   0.032   8.955   8.564
 1822W        W 5341   8.859   7.387   1.839
 1823W        W 5342   8.427   4.724   9.575
 1824W        W 5343   8.829   5.789  10.962
 1825W        W 5344   3.725   5.530   2.774
 1826W        W 5345   1.246   2.222  11.107
 1827W        W 5346   6.492   2.074   9.151
 1828W        W 5347   0.995   1.721   1.241
 1829W        W 5348   1.468   4.978  11.453
 1830W        W 5349   2.795   3.125   2.500
 1831W        W 5350   9.999   3.876   1.142
 1832W        W 5351   3.405   0.263   1.136
 1833W        W 5352   3.828   1.217   1.238
 1834W        W 5353   9.123   3.709   8.813
 1835W        W 5354   3.721   7.024   1.364
 1836W        W 5355   0.443   1.854   9.356
 1837W        W 5356   4.552   8.703   0.338
 1838W        W 5357   4.697   6.887   9.994
 1839W        W 5358   3.709   0.770  11.818
 1840W        W 5359   0.185   8.033   0.250
 1841W        W 5360   3.987   0.335   2.264
 1842W        W 5361   7.583   9.782   2.730
 1843W        W 5362   4.982   6.079   0.928
 1844W        W 5363   4.784   8.338  10.872
 1845W        W 5364   6.072   1.352  10.775
 1846W        W 5365   5.986   2.311   3.194
 1847W        W 5366   5.986   4.100   8.692
 1848W        W 5367   0.692   3.596  10.616
 1849W        W 5368   4.790   6.907   2.769
 1850W        W 5369   7.558   4.882   9.875
 1851W        W 5370   5.089   6.048  10.292
 1852W        W 5371   7.306   1.166  10.516
 1853W        W 5372   9.834   7.151   1.949
 1854W        W 5373   2.531   5.969  11.685
 1855W        W 5374   6.383   7.880   3.517
 1856W        W 5375   8.659   3.522   8.647
 1857W        W 5376   2.646   4.054   0.386
 1858W        W 5377   8.246   1.469  10.454
 1859W        W 5378   8.869   5.461   9.485
 1860W        W 5379   1.205   3.741   0.482
 1861W        W 5380   8.366   5.205   2.822
 1862W        W 5381   2.721   4.060   8.875
 1863W        W 5382   0.585   0.204   0.046
 1864W        W 5383   6.859   2.870   8.869
 1865W        W 5384   1.293   5.477   9.044
 1866W        W 5385   3.702   4.257   2.520
 1867W        W 5386   0.019   1.966  10.704
 1868W        W 5387   6.014   6.492   8.606
 1869W        W 5388   5.743   8.450   0.685
 1870W        W 5389   9.723   3.260   1.755
 1871W        W 5390   4.038   9.569   1.920
 1872W        W 5391   9.344   5.694  11.001
 1873W        W 5392   2.616   8.568   0.981
 1874W        W 5393   2.427   0.359   9.239
 1875W        W 5394   8.515   6.081   2.490
 1876W        W 5395   6.802   2.007   2.752
 1877W        W 5396   0.661   3.553   0.749
 1878W        W 5397   9.019   5.334  10.814
 1879W        W 5398   5.822   5.187  10.231
 1880W        W 5399   8.903   0.187   0.415
 1881W        W 5400   2.687   3.423   1.038
 1882W        W 5401   1.959   2.606  10.710
 1883W        W 5402   7.479   1.271  10.023
 1884W        W 5403   9.483   3.631   3.668
 1885W        W 5404   6.790   5.631   2.799
 1886W        W 5405   3.284   8.999   0.918
 1887W        W 5406   7.286   5.491  11.323
 1888W        W 5407   3.825   2.476   9.489
 1889W        W 5408   9.878   9.333  11.076
 1890W        W 5409   0.033   3.614  11.861
 1891W        W 5410   6.325   9.686   1.355
 1892W        W 5411   4.707   1.465  10.540
 1893W        W 5412   5.589   4.711   2.921
 1894W        W 5413   1.824   7.819   2.576
 1895W        W 5414   2.385   4.638   2.379
 1896W        W 5415   0.908   6.563  10.993
 1897W        W 5416   9.941   5.232  11.218
 1898W        W 5417   2.220   9.671   9.980
 1899W        W 5418   3.798   2.629   1.037
 1900W        W 5419   2.370   7.037   0.700
 1901W        W 5420   8.538   6.227   0.406
 1902W        W 5421   3.898   6.691   0.916
 1903W        W 5422   0.484   4.093   9.044
 1904W        W 5423   4.236   8.861  10.670
 1905W        W 5424   3.196   0.702   3.218
 1906W        W 5425   0.338   2.084   1.318
 1907W        W 5426   9.451   9.349  10.775
 1908W        W 5427   8.020   2.005   2.196
 1909W        W 5428   6.456   9.311   1.034
 1910W        W 5429   8.510   6.811  11.600
 1911W        W 5430   2.366   8.454   0.431
 1912W        W 5431   6.799   9.773   9.262
 1913W        W 5432   7.448   2.025  10.349
 1914W        W 5433   2.574   6.995  11.308
 1915W        W 5434   4.609   4.707   9.852
 1916W        W 5435   4.600   1.297   2.951
 1917W        W 5436   0.236   0.430   9.093
 1918W        W 5437   9.445   5.857  11.471
 1919W        W 5438   1.359   9.218   1.674
 1920W        W 5439   3.606   9.228  10.273
 1921W        W 5440   4.741   9.486   0.869
 1922W        W 5441   8.573   8.168  11.518
 1923W        W 5442   0.152   3.742   9.794
 1924W        W 5443   8.538   8.552   9.724
 1925W        W 5444   8.770   5.612  11.780
 1926W        W 5445   8.969   2.597   2.007
 1927W        W 5446   4.089   7.591   9.189
 1928W        W 5447   8.468   8.008  10.526
 1929W        W 5448   7.895   5.919   1.608
 1930W        W 5449   3.221   4.216   9.082
 1931W        W 5450   8.161   6.632   8.515
 1932W        W 5451   2.712   5.282   1.187
 1933W        W 5452   5.406   9.764   1.948
 1934W        W 5453   8.035   0.648   2.342
 1935W        W 5454   0.238   6.004   8.635
 1936W        W 5455   4.662   8.530   1.437
 1937W        W 5456   8.584   8.426   9.224
 1938W        W 5457   1.577   6.737   8.714
 1939W        W 5458   2.334   3.247   0.721
 1940W        W 5459   6.661   4.538  11.980
 1941W        W 5460   0.786   2.336   2.492
 1942W        W 5461   5.037   0.864   8.995
 1943W        W 5462   4.728   2.752   3.231
 1944W        W 5463   8.048   7.673   3.124
 1945W        W 5464   8.439   4.166   1.350
 1946W        W 5465   9.980   6.847   0.526
 1947W        W 5466   1.314   6.313   9.516
 1948W        W 5467   6.405   1.007   0.843
 1949W        W 5468   1.581   7.490   2.274
 1950W        W 5469   4.276   3.646   2.235
 1951W        W 5470   1.217   8.514   9.964
 1952W        W 5471   4.770   2.007   9.445
 1953W        W 5472   5.674   9.706  10.070
 1954W        W 5473   1.916   3.940   9.800
 1955W        W 5474   9.129   6.183  10.995
 1956W        W 5475   5.971   4.430   0.378
 1957W        W 5476   8.815   7.756   1.461
 1958W        W 5477   7.370   0.792   9.866
 1959W        W 5478   0.045   9.661   0.459
 1960W        W 5479   5.137   6.560   2.360
 1961W        W 5480   7.134   1.084   1.715
 1962W        W 5481   1.213   7.101   8.613
 1963W        W 5482   4.698   8.001   1.379
 1964W        W 5483   0.681   3.895  11.399
 1965W        W 5484   0.462   2.376  11.443
 1966W        W 5485   5.874   9.406  10.817
 1967W        W 5486   5.573   1.881   0.872
 1968W        W 5487   7.373   7.692   2.809
 1969W        W 5488   4.302   3.112   2.263
 1970W        W 5489   8.879   9.224   0.938
 1971W        W 5490   0.970   5.790   2.747
 1972W        W 5491   1.605   5.007   2.474
 1973W        W 5492   4.975   2.524   4.257
 1974W        W 5493   4.635   6.989   1.211
 1975W        W 5494   2.091   3.516  11.412
 1976W        W 5495   8.327   3.835   3.216
 1977W        W 5496   6.451   8.880   3.611
 1978W        W 5497   1.384   8.115   2.752
 1979W        W 5498   3.575   4.098   8.126
 1980W        W 5499   6.220   5.802   3.684
 1981W        W 5500   8.381   4.535   0.235
 1982W        W 5501   0.015   9.803  10.259
 1983W        W 5502   5.241   3.536   0.765
 1984W        W 5503   5.617   7.922   2.356
 1985W        W 5504   5.784   7.390   0.027
 1986W        W 5505   2.658   8.590   2.911
 1987W        W 5506   2.940   1.819   3.644
 1988W        W 5507   4.473   2.333  10.598
 1989W        W 5508   5.258   9.380   3.062
 1990W        W 5509   6.897   8.971   1.574
 1991W        W 5510   8.472   7.133  10.627
 1992W        W 5511   0.139   4.087   1.742
 1993W        W 5512   9.811   1.008   3.309
 1994W        W 5513   5.015   9.220   2.648
 1995W        W 5514   1.158   8.494  10.489
 1996W        W 5515   9.619   2.385   3.520
 1997W        W 5516   0.880   0.624   0.266
 1998W        W 5517   1.583   9.059   1.248
 1999W        W 5518   5.562   7.259   3.629
 2000W        W 5519   7.501   1.085   1.374
 2001W        W 5520   6.203   0.754   0.024
 2002W        W 5521   7.819   0.386  10.576
 2003W        W 5522   0.496   1.595   1.334
 2004W        W 5523   5.508   5.058  11.307
 2005W        W 5524   2.345   4.403   0.791
 2006W        W 5525   7.630   7.607  10.422
 2007W        W 5526   4.826   9.956   0.615
 2008W        W 5527   7.288   2.134   9.043
 2009W        W 5528   7.298   5.643   4.012
 2010W        W 5529   1.220   2.220   1.302
 2011W        W 5530   4.147   5.248   3.354
 2012W        W 5531   3.397   5.846   7.935
 2013W        W 5532   1.047   7.069   3.524
 2014W        W 5533   0.458   3.500   3.568
 2015W        W 5534   8.914   7.804  11.682
 2016W        W 5535   5.488   4.220  11.487
 2017W        W 5536   2.609   7.941  10.738
 2018W        W 5537   5.614   1.063   3.577
 2019W        W 5538   4.266   4.634   1.837
 2020W        W 5539   5.002   6.831   3.233
 2021W        W 5540   9.412   7.968  11.016
 2022W        W 5541   9.326   8.979  11.158
 2023W        W 5542   5.992   8.820   0.460
 2024W        W 5543   0.389   7.592   0.424
 2025W        W 5544   8.190   2.920   9.541
 2026W        W 5545   6.170   7.933   0.588
 2027W        W 5546   2.759   7.478  11.281
 2028W        W 5547   0.353   2.668   1.934
 2029W        W 5548   6.868   6.276  11.856
 2030W        W 5549   6.840   7.355   9.083
 2031W        W 5550   2.766   9.752   8.966
 2032W        W 5551   6.774   3.528   8.534
 2033W        W 5552   1.763   8.776   9.325
 2034W        W 5553   5.647   3.822   9.903
 2035W        W 5554   5.958   7.540   1.824
 2036W        W 5555   6.259   4.019   3.929
 2037W        W 5556   6.625   7.321   9.537
 2038W        W 5557   2.266   2.785   0.457
 2039W        W 5558   8.026   2.271   9.062
 2040W        W 5559   9.113   8.151   1.665
 2041W        W 5560   0.785   5.186  11.526
 2042W        W 5561   4.965   0.530   2.971
 2043W        W 5562   6.096   7.410   0.433
 2044W        W 5563   6.330   0.845  11.542
 2045W        W 5564   3.033   6.485   0.922
 2046W        W 5565   9.954   2.143   2.135
 2047W        W 5566   8.704   3.832   9.435
 2048W        W 5567   0.858   7.103  11.832
 2049W        W 5568   2.510   3.522   2.283
 2050W        W 5569   0.907   7.005   9.040
 2051W        W 5570   1.342   7.434   9.466
 2052W        W 5571   2.968   7.009   9.227
 2053W        W 5572   2.820   3.846   9.750
 2054W        W 5573   7.202   3.201   3.198
 2055W        W 5574   5.195   7.086  11.453
 2056W        W 5575   7.186   8.698   0.687
 2057W        W 5576   6.556   3.865   2.917
 2058W        W 5577   9.979   9.571   8.791
 2059W        W 5578   0.258   7.209   2.820
 2060W        W 5579   9.728   7.723   2.521
 2061W        W 5580   2.754   3.624   1.831
 2062W        W 5581   9.253   1.810   0.498
 2063W        W 5582   9.349   2.072  10.642
 2064W        W 5583   0.170   6.599   2.128
 2065W        W 5584   3.285   4.229   8.569
 2066W        W 5585   2.878   5.975  11.308
 2067W        W 5586   8.203   5.406   0.309
 2068W        W 5587   4.560   8.515   2.275
 2069W        W 5588   4.189   7.214  11.390
 2070W        W 5589   9.667   9.097   2.999
 2071W        W 5590   5.055   8.326   1.203
 2072W        W 5591   5.325   5.150   8.735
 2073W        W 5592   1.630   8.217   1.029
 2074W        W 5593   2.685   9.080   1.010
 2075W        W 5594   9.359   5.499   2.382
 2076W        W 5595   1.730   1.368   3.550
 2077W        W 5596   0.928   6.761   3.131
 2078W        W 5597   7.076   0.852   3.105
 2079W        W 5598   0.316   2.781   3.087
 2080W        W 5599   7.964   2.137   0.917
 2081W        W 5600   1.558   7.639   1.292
 2082W        W 5601   9.222   0.386   1.357
 2083W        W 5602   6.245   3.625   3.208
 2084W        W 5603   5.187   4.485   2.047
 2085W        W 5604   5.571   3.129   3.187
 2086W        W 5605   4.903   7.383   1.010
 2087W        W 5606   6.467   9.869   3.481
 2088W        W 5607   5.203   7.290   3.267
 2089W        W 5608   3.305   2.971  11.200
 2090W        W 5609   1.166   5.793   8.618
 2091W        W 5610   0.811   1.150   0.806
 2092W        W 5611   5.440   1.387  11.145
 2093W        W 5612   9.275   7.089   1.211
 2094W        W 5613   3.605   3.442   0.235
 2095W        W 5614   2.634   4.329   1.258
 2096W        W 5615   7.771   8.438   2.638
 2097W        W 5616   9.016   2.227  11.503
 2098W        W 5617   0.682   2.575   3.414
 2099W        W 5618   6.443   7.632   1.734
 2100W        W 5619   8.290   1.231   8.540
 2101W        W 5620   0.672   4.132   1.771
 2102W        W 5621   7.453   4.921  11.373
 2103W        W 5622   9.013   1.352  10.112
 2104W        W 5623   3.271   2.485   1.054
 2105W        W 5624   6.011   8.120  10.720
 2106W        W 5625   0.446   1.372   9.209
 2107W        W 5626   2.850   6.436  10.546
 2108W        W 5627   7.147   7.337   3.490
 2109W        W 5628   7.483   1.820   9.897
 2110W        W 5629   4.936   8.401   1.901
 2111W        W 5630   7.907   8.853   2.321
 2112W        W 5631   4.028   3.117   8.978
 2113W        W 5632   9.582   4.836  11.348
 2114W        W 5633   1.800   2.159  10.955
 2115W        W 5634   0.499   1.247  10.102
 2116W        W 5635   0.074   9.315   3.215
 2117W        W 5636   4.094   4.137   0.002
 2118W        W 5637   7.345   2.702   0.428
 2119W        W 5638   9.419   6.917  10.197
 2120W        W 5639   2.193   6.161   3.010
 2121W        W 5640   5.407   7.111   8.534
 2122W        W 5641   7.190   2.103   0.571
 2123W        W 5642   8.280   3.096   0.419
 2124W        W 5643   3.555   4.090   1.535
 2125W        W 5644   9.915   2.221   1.594
 2126W        W 5645   0.768   2.854   1.695
 2127W        W 5646   5.130   3.821  11.496
 2128W        W 5647   2.475   2.785   2.286
 2129W        W 5648   5.121   8.231   0.701
 2130W        W 5649   2.790   1.351   1.374
 2131W        W 5650   6.424   7.524   0.794
 2132W        W 5651   5.722   5.606  11.972
 2133W        W 5652   8.907   2.192  10.886
 2134W        W 5653   1.667   6.586   9.761
 2135W        W 5654   6.475   3.692  10.520
 2136W        W 5655   0.834   5.387   2.447
 2137W        W 5656   0.817   1.266  11.748
 2138W        W 5657   0.374   5.105   3.137
 2139W        W 5658   9.064   5.667   9.065
 2140W        W 5659   5.676   9.867  10.996
 2141W        W 5660   5.224   4.939   0.542
 2142W        W 5661   4.264   7.813   1.604
 2143W        W 5662   2.062   4.845   2.769
 2144W        W 5663   1.800   7.015   2.785
 2145W        W 5664   8.092   8.701   0.908
 2146W        W 5665   8.283   9.176   8.632
 2147W        W 5666   1.872   5.226  11.248
 2148W        W 5667   5.414   8.433   2.117
 2149W        W 5668   3.460   2.410   8.804
 2150W        W 5669   4.762   8.464   9.082
 2151W        W 5670   1.858   9.597  11.103
 2152W        W 5671   8.969   7.144   2.783
 2153W        W 5672   2.772   3.058  10.454
 2154W        W 5673   6.642   4.295   3.172
 2155W        W 5674   9.107   4.878   3.162
 2156W        W 5675   5.866   6.080   4.008
 2157W        W 5676   8.789   7.881   1.954
 2158W        W 5677   0.829   6.093   0.853
 2159W        W 5678   1.232   2.564  10.314
 2160W        W 5679   7.266   9.866   9.025
 2161W        W 5680   0.273   9.273   1.613
 2162W        W 5681   1.577   8.894  10.939
 2163W        W 5682   3.183   5.638   1.398
 2164W        W 5683   3.336   0.425   9.026
 2165W        W 5684   3.291   9.703   3.120
 2166W        W 5685   7.220   1.550   8.608
 2167W        W 5686   2.337   4.848   9.222
 2168W        W 5687   8.525   4.864   9.020
 2169W        W 5688   0.268   8.842   0.165
 2170W        W 5689   9.831   4.146   9.795
 2171W        W 5690   5.899   1.912   0.487
 2172W        W 5691   3.556   0.167   2.459
 2173W        W 5692   4.184   0.231   0.795
 2174W        W 5693   9.342   9.020   1.072
 2175W        W 5694   3.605   9.562   9.880
 2176W        W 5695   1.040   4.738  11.572
 2177W        W 5696   7.995   6.380   1.258
 2178W        W 5697   1.327   4.257  10.504
 2179W        W 5698   9.350   2.682   0.551
 2180W        W 5699   3.856   1.228   0.727
 2181W        W 5700   2.328   5.414   1.537
 2182W        W 5701   0.564   8.121   2.926
 2183W        W 5702   4.131   1.911   8.506
 2184W        W 5703   9.512   0.597   3.080
 2185W        W 5704   0.924   6.373   9.838
 2186W        W 5705   6.164   9.968  11.813
 2187W        W 5706   6.230   6.648  10.163
 2188W        W 5707   9.262   7.141   0.392
 2189W        W 5708   2.248   9.630   0.352
 2190W        W 5709   6.578   3.349   1.694
 2191W        W 5710   8.226   4.788   0.661
 2192W        W 5711   4.536   7.651   9.491
 2193W        W 5712   7.951   1.399   9.200
 2194W        W 5713   7.090   2.619  11.671
 2195W        W 5714   3.450   6.529   3.111
 2196W        W 5715   7.017   5.172   2.767
 2197W        W 5716   7.133   2.667  11.176
 2198W        W 5717   9.848   9.387   8.330
 2199W        W 5718   8.906   4.529   8.750
 2200W        W 5719   6.201   8.296   1.833
 2201W        W 5720   3.527   7.439   2.632
 2202W        W 5721   6.483   3.188   2.215
 2203W        W 5722   6.534   5.013   0.180
 2204W        W 5723   5.951   5.669  10.383
 2205W        W 5724   9.895   0.782   9.882
 2206W        W 5725   2.177   0.641   0.478
 2207W        W 5726   2.601   8.235  11.758
 2208W        W 5727   1.243   6.830   9.518
 2209W        W 5728   2.657   9.113   1.517
 2210W        W 5729   7.548   4.265  10.465
 2211W        W 5730   8.309   1.001   1.388
 2212W        W 5731   6.313   7.404  11.911
 2213W        W 5732   0.946   2.199   0.043
 2214W        W 5733   2.847   4.981   3.650
 2215W        W 5734   5.051   8.529  10.067
 2216W        W 5735   0.268   7.400   8.872
 2217W        W 5736   7.427   2.330   9.948
 2218W        W 5737   9.214   3.778   1.740
 2219W        W 5738   0.086   1.756   1.661
 2220W        W 5739   2.482   7.944   3.441
 2221W        W 5740   9.884   2.148   1.039
 2222W        W 5741   5.498   8.796  10.060
 2223W        W 5742   5.387   4.188   2.909
 2224W        W 5743   1.153   6.958  11.295
 2225W        W 5744   3.760   5.024   0.379
 2226W        W 5745   3.565   3.092  10.350
 2227W        W 5746   8.383   0.924   9.884
 2228W        W 5747   7.599   6.061   1.173
 2229W        W 5748   2.601   6.480  11.511
 2230W        W 5749   8.933   7.948   9.755
 2231W        W 5750   7.161   9.697   1.699
 2232W        W 5751   4.686   9.728  10.828
 2233W        W 5752   4.834   9.865   9.687
 2234W        W 5753   5.502   6.754   3.272
 2235W        W 5754   9.440   7.380   2.211
 2236W        W 5755   0.004   2.986   0.518
 2237W        W 5756   4.564   6.533  10.886
 2238W        W 5757   5.317   6.194  10.705
 2239W        W 5758   3.095   2.208   3.954
 2240W        W 5759   4.509   5.058   1.268
 2241W        W 5760   1.019   5.613   0.897
 2242W        W 5761   9.432   7.031  11.743
 2243W        W 5762   2.267   0.727  11.560
 2244W        W 5763   6.839   7.729   3.695
 2245W        W 5764   4.454   8.204  11.343
 2246W        W 5765   1.666   3.940  10.242
 2247W        W 5766   3.624   9.364  10.775
 2248W        W 5767   0.962   0.884  10.787
 2249W        W 5768   5.868   9.796   9.566
 2250W        W 5769   9.563   8.897   8.952
 2251W        W 5770   7.599   6.753   9.494
 2252W        W 5771   5.512   8.501   1.114
 2253W        W 5772   7.476   2.787   1.112
 2254W        W 5773   7.385   1.845   0.052
 2255W        W 5774   8.863   3.771   0.488
 2256W        W 5775   3.403   5.024   3.804
 2257W        W 5776   0.514   9.473   9.679
 2258W        W 5777   7.382   9.343  10.792
 2259W        W 5778   8.001   3.565   1.819
 2260W        W 5779   8.055   8.194  10.944
 2261W        W 5780   7.855   9.369  10.357
 2262W        W 5781   2.785   0.968  11.437
 2263W        W 5782   0.427   8.844   8.943
 2264W        W 5783   3.630   3.119   0.645
 2265W        W 5784   1.742   5.149   2.020
 2266W        W 5785   6.693   7.105   0.802
 2267W        W 5786   9.887   8.950   2.019
 2268W        W 5787   0.812   9.720   9.264
 2269W        W 5788   2.045   4.236  11.085
 2270W        W 5789   9.492   0.166  10.244
 2271W        W 5790   4.833   4.855   2.104
 2272W        W 5791   5.953   3.253   3.512
 2273W        W 5792   1.090   3.574   8.920
 2274W        W 5793   8.171   8.031   8.643
 2275W        W 5794   2.210   9.144  11.776
 2276W        W 5795   1.297   8.841   2.048
 2277W        W 5796   1.131   8.892   3.095
 2278W        W 5797   9.842   9.297   0.785
 2279W        W 5798   8.627   1.637  11.207
 2280W        W 5799   8.679   5.228   0.153
 2281W        W 5800   5.791   1.545  10.397
 2282W        W 5801   0.985   8.993  10.475
 2283W        W 5802   7.157   4.602   9.668
 2284W        W 5803   1.403   5.309   9.528
 2285W        W 5804   0.996   1.817  10.754
 2286W        W 5805   4.642   4.702   3.260
 2287W        W 5806   2.690   3.766   2.713
 2288W        W 5807   2.350   6.842  11.771
 2289W        W 5808   8.345   8.441   1.314
 2290W        W 5809   4.212   7.613   2.324
 2291W        W 5810   2.823   2.322  11.891
 2292W        W 5811   0.906   3.146   0.939
 2293W        W 5812   6.043   2.308   8.945
 2294W        W 5813   9.265   5.532  11.845
 2295W        W 5814   1.761   0.778  11.752
 2296W        W 5815   0.953   9.290   0.178
 2297W        W 5816   8.934   2.664   3.447
 2298W        W 5817   6.237   1.250   8.561
 2299W        W 5818   5.723   5.532   3.665
 2300W        W 5819   3.853   4.703   8.412
 2301W        W 5820   8.030   9.188   0.826
 2302W        W 5821   2.343   4.436   0.246
 2303W        W 5822   9.083   8.332   2.607
 2304W        W 5823   4.133   6.284  11.133
 2305W        W 5824   5.579   7.982  11.425
 2306W        W 5825   2.691   7.308  10.227
 2307W        W 5826   6.704   0.518   9.917
 2308W        W 5827   7.759   7.862   9.028
 2309W        W 5828   2.466   8.533   9.540
 2310W        W 5829   1.020   6.018   3.434
 2311W        W 5830   7.914   3.773  10.056
 2312W        W 5831   6.784   8.294  10.364
 2313W        W 5832   3.267   7.047  10.051
 2314W        W 5833   0.210   8.980   0.654
 2315W        W 5834   8.298   3.774   9.721
 2316W        W 5835   8.534   4.312   3.207
 2317W        W 5836   8.510   6.623  10.623
 2318W        W 5837   5.355   7.470   9.748
 2319W        W 5838   8.992   7.955   2.920
 2320W        W 5839   4.179   2.518  11.985
 2321W        W 5840   7.858   9.154  10.838
 2322W        W 5841   1.289   4.058   0.892
 2323W        W 5842   3.376   5.845   3.671
 2324W        W 5843   6.057   8.605  10.927
 2325W        W 5844   6.506   2.961   1.047
 2326W        W 5845   8.924   6.719   8.349
 2327W        W 5846   6.680   3.662  11.045
 2328W        W 5847   9.753   3.964   2.357
 2329W        W 5848   8.466   3.145  10.948
 2330W        W 5849   1.386   7.020   2.130
 2331W        W 5850   3.136   3.706   2.975
 2332W        W 5851   2.403   6.195  10.687
 2333W        W 5852   0.270   7.500   0.941
 2334W        W 5853   7.847   6.975   9.880
 2335W        W 5854   9.893   8.563  10.000
 2336W        W 5855   3.242   6.130  10.012
 2337W        W 5856   5.992   8.959  10.163
 2338W        W 5857   3.824   3.799  11.306
 2339W        W 5858   7.421   4.952   9.391
 2340W        W 5859   0.352   0.232   1.339
 2341W        W 5860   3.267   0.346   8.513
 2342W        W 5861   5.382   5.806   8.539
 2343W        W 5862   7.477   1.364   9.008
 2344W        W 5863   5.644   5.529   8.884
 2345W        W 5864   9.437   7.063   2.603
 2346W        W 5865   9.905   3.471   2.431
 2347W        W 5866   7.124   6.917   1.727
 2348W        W 5867   3.709   1.275  10.920
 2349W        W 5868   7.906   6.155  11.875
 2350W        W 5869   4.431   5.363  11.276
 2351W        W 5870   6.925   6.907   9.442
 2352W        W 5871   8.442   7.526   8.842
 2353W        W 5872   4.452   2.293  11.121
 2354W        W 5873   9.546   8.757   0.139
 2355W        W 5874   4.612   9.031   1.413
 2356W        W 5875   2.803   5.335   1.696
 2357W        W 5876   1.537   0.418  11.108
 2358W        W 5877   0.233   4.568   0.518
 2359W        W 5878   3.367   5.823   0.074
 2360W        W 5879   6.065   3.710   2.713
 2361W        W 5880   1.696   8.233   3.419
 2362W        W 5881   1.967   4.888  10.786
 2363W        W 5882   3.277   1.789   2.172
 2364W        W 5883   8.415   9.220  10.458
 2365W        W 5884   4.242   8.506   3.433
 2366W        W 5885   1.895   4.204   1.001
 2367W        W 5886   8.826   1.093   0.895
 2368W        W 5887   1.595   8.893   9.931
 2369W        W 5888   5.883   0.737   3.259
 2370W        W 5889   5.564   5.347  10.638
 2371W        W 5890   7.598   9.723   1.339
 2372W        W 5891   9.415   8.024   9.535
 2373W        W 5892   0.709   5.683  10.449
 2374W        W 5893   2.049   4.216   1.978
 2375W        W 5894   3.799   1.229  10.081
 2376W        W 5895   7.355   5.126  10.301
 2377W        W 5896   7.883   0.710   9.848
 2378W        W 5897   0.615   0.206   9.369
 2379W        W 5898   9.888   8.368   1.344
 2380W        W 5899   9.438   9.884   9.377
 2381W        W 5900   8.120   7.545  11.917
 2382W        W 5901   9.473   4.515   0.923
 2383W        W 5902   0.090   3.508   1.478
 2384W        W 5903   9.865   7.888   9.803
 2385W        W 5904   8.030   5.819   9.073
 2386W        W 5905   0.436   0.181  10.420
 2387W        W 5906   5.616   4.596   9.433
 2388W        W 5907   5.648   3.522  10.793
 2389W        W 5908   9.107   7.549   9.520
 2390W        W 5909   6.652   4.778   3.901
 2391W        W 5910   1.611   1.402   3.061
 2392W        W 5911   2.595   2.305   2.221
 2393W        W 5912   0.113   6.385  10.203
 2394W        W 5913   4.957   3.194   2.017
 2395W        W 5914   8.639   0.738   1.680
 2396W        W 5915   2.052   1.362   9.504
 2397W        W 5916   5.082   4.682   9.660
 2398W        W 5917   7.304   6.576   9.129
 2399W        W 5918   2.980   1.325  10.364
 2400W        W 5919   3.653   4.692  11.570
 2401W        W 5920   3.721   1.531   9.656
 2402W        W 5921   1.969   2.139  11.865
 2403W        W 5922   4.135   4.994   3.810
 2404W        W 5923   8.059   4.102  11.079
 2405W        W 5924   7.535   3.977   2.772
 2406W        W 5925   6.196   2.973  11.401
 2407W        W 5926   9.745   7.520  10.754
 2408W        W 5927   8.759   1.697   1.756
 2409W        W 5928   7.483   5.660   1.457
 2410W        W 5929   3.020   8.284   1.130
 2411W        W 5930   4.525   1.553   8.567
 2412W        W 5931   3.142   9.972   2.154
 2413W        W 5932   0.964   2.878   2.160
 2414W        W 5933   7.002   3.941   3.762
 2415W        W 5934   5.488   1.753   3.878
 2416W        W 5935   6.937   5.575  10.924
 2417W        W 5936   7.174   5.696   3.136
 2418W        W 5937   9.292   4.157   8.619
 2419W        W 5938   7.232   3.733   9.225
 2420W        W 5939   8.581   9.795   9.242
 2421W        W 5940   9.737   5.192   2.546
 2422W        W 5941   5.125   0.995  10.411
 2423W        W 5942   8.983   6.057   3.204
 2424W        W 5943   5.108   9.619   3.501
 2425W        W 5944   1.250   8.359   3.203
 2426W        W 5945   8.571   5.713   9.832
 2427W        W 5946   7.436   7.805   9.545
 2428W        W 5947   9.272   9.331  10.173
 2429W        W 5948   3.703   7.260  11.574
 2430W        W 5949   4.555   3.667   7.935
 2431W        W 5950   4.427   7.964   9.067
 2432W        W 5951   5.855   6.040   2.997
 2433W        W 5952   6.612   9.828   8.763
 2434W        W 5953   1.500   5.773  10.885
 2435W        W 5954   0.899   1.981   9.764
 2436W        W 5955   3.592   5.740  10.298
 2437W        W 5956   2.356   9.345   0.742
 2438W        W 5957   1.135   1.063   2.474
 2439W        W 5958   1.726   3.606   2.801
 2440W        W 5959   1.878   0.817  11.208
 2441W        W 5960   4.661   4.615   9.346
 2442W        W 5961   0.812   9.291   3.368
 2443W        W 5962   6.521   7.145   0.303
 2444W        W 5963   1.398   7.091   0.659
 2445W        W 5964   1.811   7.628  11.773
 2446W        W 5965   2.070   7.001  11.291
 2447W        W 5966   3.785   1.805   1.922
 2448W        W 5967   3.087   7.644   1.852
 2449W        W 5968   2.164   8.405  10.372
 2450W        W 5969   7.453   8.995   8.310
 2451W        W 5970   7.429   9.877  10.024
 2452W        W 5971   1.474   6.657  11.004
 2453W        W 5972   7.712   9.320   2.537
 2454W        W 5973   1.656   9.762   2.268
 2455W        W 5974   8.178   6.609  10.020
 2456W        W 5975   7.625   6.978   0.832
 2457W        W 5976   8.423   5.213   9.438
 2458W        W 5977   6.106   1.021   1.327
 2459W        W 5978   5.900   7.615   0.885
 2460W        W 5979   4.106   4.148   9.338
 2461W        W 5980   7.692   9.366   2.025
 2462W        W 5981   9.357   0.425   0.364
 2463W        W 5982   5.442   3.370   8.491
 2464W        W 5983   1.454   2.195  11.913
 2465W        W 5984   6.906   1.847   0.229
 2466W        W 5985   7.211   4.067   0.702
 2467W        W 5986   6.968   7.894   9.311
 2468W        W 5987   9.388   2.206   1.313
 2469W        W 5988   1.749   3.855  11.247
 2470W        W 5989   3.671   9.728  10.403
 2471W        W 5990   2.212   6.164   2.507
 2472W        W 5991   7.449   8.686   0.226
 2473W        W 5992   1.224   4.618   2.971
 2474W        W 5993   9.344   3.851  11.776
 2475W        W 5994   6.260   0.490   2.476
 2476W        W 5995   4.773   7.628   3.420
 2477W        W 5996   3.699   2.914   0.179
 2478W        W 5997   9.463   1.107  10.277
 2479W        W 5998   7.315   7.079   9.175
 2480W        W 5999   3.576   6.277   9.538
 2481W        W 6000   5.434   6.243   3.266
 2482W        W 6001   1.477   3.924   8.766
 2483W        W 6002   6.461   4.357  11.523
 2484W        W 6003   5.991   0.514   1.490
 2485W        W 6004   6.302   4.365   9.899
 2486W        W 6005   1.905   7.005   9.969
 2487W        W 6006   2.682   5.754   1.405
 2488W        W 6007   3.349   6.929   9.566
 2489W        W 6008   2.684   9.578  10.303
 2490W        W 6009   8.424   8.954   3.126
 2491W        W 6010   9.745   6.989   9.476
 2492W        W 6011   6.211   9.330   3.775
 2493W        W 6012   5.659   8.736   3.527
 2494W        W 6013   4.945   5.902  11.978
 2495W        W 6014   4.592   1.179   1.470
 2496W        W 6015   7.097   4.339   3.440
 2497W        W 6016   3.612   4.249   3.363
 2498W        W 6017   8.817   3.470   1.025
 2499W        W 6018   5.443   8.457   9.691
 2500W        W 6019   2.644   2.239   0.438
 2501W        W 6020   3.181   0.722  11.896
 2502W        W 6021   6.061   6.911   0.413
 2503W        W 6022   8.703   9.129   0.223
 2504W        W 6023   8.488   7.543   2.256
 2505W        W 6024   0.260   6.896  10.301
 2506W        W 6025   1.478   2.856   2.126
 2507W        W 6026   0.002   3.812   3.519
 2508W        W 6027   8.586   1.216   1.906
 2509W        W 6028   9.017   6.031   0.363
 2510W        W 6029   1.129   6.544   9.099
 2511W        W 6030   5.898   3.549   8.686
 2512W        W 6031   4.078   8.922   0.312
 2513W        W 6032   8.363   1.894   1.142
 2514W        W 6033   8.712   8.254  10.093
 2515W        W 6034   8.028   2.320   3.194
 2516W        W 6035   6.889   3.420   9.494
 2517W        W 6036   0.928   6.679   8.637
 2518W        W 6037   7.943   5.001   9.539
 2519W        W 6038   8.138   0.834  11.503
 2520W        W 6039   2.728   3.568   0.555
 2521W        W 6040   0.671   8.872   0.459
 2522W        W 6041   7.445   2.153  10.825
 2523W        W 6042   4.703   3.613   1.951
 2524W        W 6043   7.220   5.974   8.519
 2525W        W 6044   1.175   7.433   0.994
 2526W        W 6045   0.557   0.840  11.964
 2527W        W 6046   1.477   3.392   8.619
 2528W        W 6047   8.950   8.178   1.195
 2529W        W 6048   3.960   3.818   2.634
 2530W        W 6049   7.278   7.551   1.193
 2531W        W 6050   9.488   8.367  11.811
 2532W        W 6051   4.942   7.980   9.020
 2533W        W 6052   4.710   3.672   0.757
 2534W        W 6053   6.322   5.703  10.047
 2535W        W 6054   5.231   1.822  11.373
 2536W        W 6055   0.758   8.105   1.585
 2537W        W 6056   3.443   7.646   9.244
 2538W        W 6057   5.878   2.353   2.724
 2539W        W 6058   8.010   4.413  10.665
 2540W        W 6059   2.702   6.123   0.633
 2541W        W 6060   7.746   9.363   3.055
 2542W        W 6061   4.522   5.250   2.270
 2543W        W 6062   3.104   1.373   1.779
 2544W        W 6063   4.971   0.053   8.631
 2545W        W 6064   7.525   2.931  11.039
 2546W        W 6065   2.334   6.661  10.998
 2547W        W 6066   1.383   7.183  11.691
 2548W        W 6067   9.503   6.931   8.798
 2549W        W 6068   6.492   1.172   2.175
 2550W        W 6069   0.649   7.141  11.348
 2551W        W 6070   2.116   8.808  10.938
 2552W        W 6071   4.462   7.380   2.730
 2553W        W 6072   5.644   4.020  10.399
 2554W        W 6073   8.020   7.324  10.233
 2555W        W 6074   0.617   8.980   0.946
 2556W        W 6075   2.696   3.120   9.188
 2557W        W 6076   5.445   0.682   2.957
 2558W        W 6077   6.038   2.783   1.127
 2559W        W 6078   7.363   3.262   2.167
 2560W        W 6079   9.273   0.955   3.374
 2561W        W 6080   5.473   4.108   9.292
 2562W        W 6081   1.051   4.535   1.012
 2563W        W 6082   6.960   2.076   1.896
 2564W        W 6083   4.215   2.308   0.450
 2565W        W 6084   6.478   5.296   0.595
 2566W        W 6085   6.519   7.976   1.002
 2567W        W 6086   5.986   8.287   0.256
 2568W        W 6087   2.562   1.251   0.863
 2569W        W 6088   6.445   6.716   3.783
 2570W        W 6089   5.883   4.839   9.004
 2571W        W 6090   5.428   0.314   8.756
 2572W        W 6091   8.387   6.329  11.630
 2573W        W 6092   6.471   9.762  10.449
 2574W        W 6093   7.183   5.656   0.554
 2575W        W 6094   0.356   6.940  11.766
 2576W        W 6095   7.078   1.593   1.773
 2577W        W 6096   8.118   1.107   2.147
 2578W        W 6097   5.688   3.098   9.411
 2579W        W 6098   8.848   9.578   2.722
 2580W        W 6099   4.114   3.696   3.104
 2581W        W 6100   9.356   4.007  10.314
 2582W        W 6101   4.133   3.325  11.456
 2583W        W 6102   6.660   7.142   2.447
 2584W        W 6103   1.835   3.098   8.863
 2585W        W 6104   8.174   2.230  10.905
 2586W        W 6105   2.244   7.005   3.045
 2587W        W 6106   7.795   1.243  11.506
 2588W        W 6107   0.424   1.142   2.031
 2589W        W 6108   8.971   1.258  11.125
 2590W        W 6109   3.679   3.184   9.850
 2591W        W 6110   3.558   4.280   2.010
 2592W        W 6111   1.297   6.607  10.107
 2593W        W 6112   2.162   8.938   2.607
 2594W        W 6113   4.356   1.141   0.999
 2595W        W 6114   1.302   2.904   9.003
 2596W        W 6115   7.075   6.532   3.068
 2597W        W 6116   5.488   6.128  11.175
 2598W        W 6117   8.507   5.970   3.375
 2599W        W 6118   7.537   3.418  10.949
 2600W        W 6119   7.064   2.544   0.834
 2601W        W 6120   3.661   2.110   2.309
 2602W        W 6121   5.644   3.628   9.415
 2603W        W 6122   4.331   3.666  10.113
 2604W        W 6123   0.774   7.900   0.521
 2605W        W 6124   6.631   2.134   2.296
 2606W        W 6125   6.532   7.914  11.045
 2607W        W 6126   9.837   4.178  10.300
 2608W        W 6127   9.732   1.214   9.599
 2609W        W 6128   9.422   2.221   0.794
 2610W        W 6129   5.198   9.235   0.817
 2611W        W 6130   1.129   0.202   9.371
 2612W        W 6131   1.173   4.743   1.460
 2613W        W 6132   9.921   8.314   9.498
 2614W        W 6133   9.922   2.626  11.301
 2615W        W 6134   3.848   5.066   2.993
 2616W        W 6135   7.018   5.933   8.041
 2617W        W 6136   9.400   7.921  11.527
 2618W        W 6137   4.664   6.104   3.626
 2619W        W 6138   4.597   2.065   1.383
 2620W        W 6139   7.567   1.744   0.529
 2621W        W 6140   2.999   5.712  11.739
 2622W        W 6141   2.137   7.887   9.148
 2623W        W 6142   6.881   1.499   3.875
 2624W        W 6143   2.554   2.833  11.736
 2625W        W 6144   3.173   3.331   1.233
 2626W        W 6145   1.852   5.917   3.809
 2627W        W 6146   1.598   4.825   9.474
 2628W        W 6147   9.908   1.476   0.463
 2629W        W 6148   1.365   9.788  10.047
 2630W        W 6149   1.328   5.808   9.545
 2631W        W 6150   9.579   3.901   9.001
 2632W        W 6151   0.975   8.463   2.772
 2633W        W 6152   7.872   5.183  10.143
 2634W        W 6153   8.243   6.087   8.366
 2635W        W 6154   7.075   6.551   9.768
 2636W        W 6155   7.399   7.040   3.130
 2637W        W 6156   0.525   7.052   3.703
 2638W        W 6157   9.739   0.663  10.362
 2639W        W 6158   2.620   7.449   1.924
 2640W        W 6159   1.721   6.123   0.195
 2641W        W 6160   2.621   5.516  11.470
 2642W        W 6161   3.206   9.462   9.010
 2643W        W 6162   1.966   5.953  10.879
 2644W        W 6163   9.030   8.374   9.497
 2645W        W 6164   3.035   7.778   0.483
 2646W        W 6165   1.294   8.812   9.525
 2647W        W 6166   9.374   3.972  11.269
 2648W        W 6167   0.267   9.390  10.127
 2649W        W 6168   1.770   3.957  10.741
 2650W        W 6169   0.248   6.580   9.415
 2651W        W 6170   7.643   0.841  10.314
 2652W        W 6171   7.781   5.109   2.039
 2653W        W 6172   5.575   1.140   3.086
 2654W        W 6173   9.929   0.853   9.232
 2655W        W 6174   3.311   2.201   2.995
 2656W        W 6175   7.545   1.685   3.383
 2657W        W 6176   2.686   0.076   2.681
 2658W        W 6177   7.800   5.331   3.347
 2659W        W 6178   8.083   8.059  11.430
 2660W        W 6179   5.317   6.196   1.281
 2661W        W 6180   4.142   7.077   3.241
 2662W        W 6181   0.360   7.703   1.425
 2663W        W 6182   5.049   3.170   3.694
 2664W        W 6183   7.487   3.177   0.736
 2665W        W 6184   2.219   7.398   1.063
 2666W        W 6185   6.747   9.306   9.536
 2667W        W 6186   1.402   1.481   2.568
 2668W        W 6187   3.564   7.802  11.671
 2669W        W 6188   9.892   9.662   3.542
 2670W        W 6189   5.551   8.763   8.892
 2671W        W 6190   4.958   6.478  10.105
 2672W        W 6191   0.528   0.197   1.852
 2673W        W 6192   2.106   8.723   0.048
 2674W        W 6193   9.761   4.983   9.669
 2675W        W 6194   9.889   7.357   9.858
 2676W        W 6195   5.656   2.652   9.042
 2677W        W 6196   7.458   1.629  10.681
 2678W        W 6197   9.271   7.491  10.900
 2679W        W 6198   7.573   5.770   9.360
 2680W        W 6199   7.761   6.516   2.434
 2681W        W 6200   0.839   6.145   1.914
 2682W        W 6201   1.685   1.944   1.026
 2683W        W 6202   2.342   7.561  10.519
 2684W        W 6203   1.021   5.398  10.148
 2685W        W 6204   6.953   7.785  10.315
 2686W        W 6205   0.964   1.764   8.490
 2687W        W 6206   5.898   1.074   0.853
 2688W        W 6207   6.529   9.817   1.817
 2689W        W 6208   2.648   9.813  11.364
 2690W        W 6209   0.921   9.982  10.234
 2691W        W 6210   6.132   6.631   0.896
 2692W        W 6211   9.398   4.387  11.580
 2693W        W 6212   8.082   3.912  10.561
 2694W        W 6213   7.988   3.684   2.808
 2695W        W 6214   0.568   3.762   2.610
 2696W        W 6215   9.305   9.797   9.936
 2697W        W 6216   0.278   1.176  11.706
 2698W        W 6217   6.727   6.982  10.629
 2699W        W 6218   8.946   4.233  10.112
 2700W        W 6219   3.147   2.396  10.569
 2701W        W 6220   4.217   0.641  11.988
 2702W        W 6221   4.380   4.059   2.700
 2703W        W 6222   0.007   9.344  10.564
 2704W        W 6223   2.129   8.584   2.184
 2705W        W 6224   0.538   3.057   9.973
 2706W        W 6225   0.597   4.965   1.547
 2707W        W 6226   5.314   5.262  10.104
 2708W        W 6227   1.171   6.535   3.580
 2709W        W 6228   1.052   5.171   1.683
 2710W        W 6229   3.378   0.279   2.919
 2711W        W 6230   8.865   6.927   1.608
 2712W        W 6231   4.496   9.524  11.788
 2713W        W 6232   0.778   5.338   2.938
 2714W        W 6233   9.653   1.726   0.822
 2715W        W 6234   7.106   7.373   2.511
 2716W        W 6235   8.304   1.917  10.250
 2717W        W 6236   6.095   2.806   2.649
 2718W        W 6237   5.605   9.000   3.064
 2719W        W 6238   6.484   9.442   0.520
 2720W        W 6239   5.642   1.432   1.109
 2721W        W 6240   0.619   2.825   1.207
 2722W        W 6241   2.439   6.965   9.242
 2723W        W 6242   5.456   9.264   8.813
 2724W        W 6243   3.913   1.274  11.791
 2725W        W 6244   7.704   7.128  11.325
 2726W        W 6245   7.300   1.153   9.455
 2727W        W 6246   6.438   5.623  10.552
 2728W        W 6247   6.221   0.854   8.880
 2729W        W 6248   2.766   0.977   3.316
 2730W        W 6249   3.032   8.076  11.996
 2731W        W 6250   2.800   7.447  10.740
 2732W        W 6251   1.119   2.733   1.192
 2733W        W 6252   8.906   4.943   1.381
 2734W        W 6253   2.580   5.986   8.845
 2735W        W 6254   4.074   7.512  10.223
 2736W        W 6255   1.187   8.319   1.908
 2737W        W 6256   6.942   8.486   1.363
 2738W        W 6257   9.577   7.807   8.615
 2739W        W 6258   0.860   0.232   2.281
 2740W        W 6259   6.716   7.219   1.675
 2741W        W 6260   1.069   8.870  10.959
 2742W        W 6261   3.732   0.635   9.279
 2743W        W 6262   5.685   4.480   1.959
 2744W        W 6263   0.078   0.870  11.289
 2745W        W 6264   1.957   3.372  10.933
 2746W        W 6265   0.173   7.760  10.995
 2747W        W 6266   4.468   5.037  10.301
 2748W        W 6267   5.489   9.691  10.537
 2749W        W 6268   9.777   5.446   9.456
 2750W        W 6269   4.684   2.078   8.559
 2751W        W 6270   5.114   0.775   1.422
 2752W        W 6271   3.207   5.576   9.258
 2753W        W 6272   0.618   6.557   0.913
 2754W        W 6273   3.660   1.649   9.164
 2755W        W 6274   9.089   0.481   3.364
 2756W        W 6275   0.772   1.191   0.284
 2757W        W 6276   6.097   5.011  10.635
 2758W        W 6277   0.398   1.441   2.467
 2759W        W 6278   5.511   0.683  10.586
 2760W        W 6279   9.981   6.408   2.943
 2761W        W 6280   9.183   5.556   1.912
 2762W        W 6281   2.820   8.480   0.210
 2763W        W 6282   9.028   6.542   0.217
 2764W        W 6283   0.860   4.130  10.759
 2765W        W 6284   4.949   0.398   0.345
 2766W        W 6285   3.490   5.078   0.799
 2767W        W 6286   4.946   6.926  10.987
 2768W        W 6287   0.253   5.922  10.432
 2769W        W 6288   8.774   2.980   1.713
 2770W        W 6289   7.652   4.283  11.777
 2771W        W 6290   3.087   2.525  11.083
 2772W        W 6291   9.833   7.992  11.835
 2773W        W 6292   6.598   6.504   9.020
 2774W        W 6293   6.161   4.183  10.422
 2775W        W 6294   0.737   8.175  10.484
 2776W        W 6295   2.054   5.549   1.957
 2777W        W 6296   1.494   8.888  10.437
 2778W        W 6297   2.214   7.707   0.059
 2779W        W 6298   9.046   8.762   0.029
 2780W        W 6299   0.857   3.827   3.480
 2781W        W 6300   9.805   7.912   3.549
 2782W        W 6301   1.782   4.230   1.535
 2783W        W 6302   8.368   0.814   0.901
 2784W        W 6303   3.977   5.966   2.600
 2785W        W 6304   4.374   6.015   1.753
 2786W        W 6305   4.565   0.812   8.802
 2787W        W 6306   3.654   5.860   0.984
 2788W        W 6307   0.372   1.357   0.649
 2789W        W 6308   7.536   6.572   1.138
 2790W        W 6309   2.670   6.170   1.131
 2791W        W 6310   0.163   8.960   2.858
 2792W        W 6311   0.562   5.682   8.895
 2793W        W 6312   8.817   1.252   9.641
 2794W        W 6313   2.644   0.208   0.694
 2795W        W 6314   6.754   7.530   1.196
 2796W        W 6315   2.706   6.664   1.302
 2797W        W 6316   6.249   8.753   1.597
 2798W        W 6317   1.794   2.820   1.694
 2799W        W 6318   4.757   2.923   9.395
 2800W        W 6319   0.638   7.534   9.203
 2801W        W 6320   3.385   3.837  10.621
 2802W        W 6321   4.259   5.841  11.398
 2803W        W 6322   6.065   9.357   9.836
 2804W        W 6323   6.235   4.631   1.291
 2805W        W 6324   8.205   5.015   3.349
 2806W        W 6325   7.872   4.369   2.706
 2807W        W 6326   9.289   0.166  11.911
 2808W        W 6327   1.327   5.994   1.067
 2809W        W 6328   4.845   6.117   1.948
 2810W        W 6329   8.864   2.759   0.743
 2811W        W 6330   5.173   6.950   0.858
 2812W        W 6331   8.565   6.938   8.663
 2813W        W 6332   9.919   8.510  10.525
 2814W        W 6333   9.040   6.824  11.347
 2815W        W 6334   6.253   1.947   1.617
 2816W        W 6335   8.142   0.697   1.802
 2817W        W 6336   8.289   0.157  10.440
 2818W        W 6337   8.209   9.255   0.335
 2819W        W 6338   5.757   0.472   2.603
 2820W        W 6339   6.529   6.693   0.577
 2821W        W 6340   4.535   1.875  10.825
 2822W        W 6341   4.496   6.044   0.768
 2823W        W 6342   0.749   4.826   2.925
 2824W        W 6343   2.425   8.874  10.531
 2825W        W 6344   9.802   6.132  10.543
 2826W        W 6345   9.801   4.928   1.361
 2827W        W 6346   9.590   2.745   2.729
 2828W        W 6347   6.890   4.590  10.569
 2829W        W 6348   2.120   2.124   8.615
 2830W        W 6349   1.246   7.733   8.542
 2831W        W 6350   2.180   2.344   9.106
 2832W        W 6351   5.753   6.899  10.330
 2833W        W 6352   9.505   0.517   2.569
 2834W        W 6353   4.164   4.606   9.579
 2835W        W 6354   3.790   1.349   3.423
 2836W        W 6355   2.266   4.874   0.011
 2837W        W 6356   3.734   6.390   2.725
 2838W        W 6357   1.531   4.137   0.434
 2839W        W 6358   2.116   2.692   3.014
 2840W        W 6359   2.335   3.431   3.674
 2841W        W 6360   1.424   8.996   0.762
 2842W        W 6361   2.789   9.290   8.714
 2843W        W 6362   3.402   8.152  11.288
 2844W        W 6363   6.407   9.229   1.582
 2845W        W 6364   2.821   5.860   3.587
 2846W        W 6365   3.785   2.240  11.737
 2847W        W 6366   7.556   2.395   0.782
 2848W        W 6367   5.608   4.490   2.459
 2849W        W 6368   8.599   1.643   9.373
 2850W        W 6369   8.925   2.396   9.186
 2851W        W 6370   8.926   1.338   9.125
 2852W        W 6371   2.230   9.697   1.660
 2853W        W 6372   9.268   1.344   0.785
 2854W        W 6373   5.500   7.503   2.781
 2855W        W 6374   6.614   4.291   2.628
 2856W        W 6375   2.164   0.004   9.559
 2857W        W 6376   2.582   8.015   0.240
 2858W        W 6377   6.463   3.387   2.688
 2859W        W 6378   5.704   5.710   0.482
 2860W        W 6379   3.207   9.477  10.496
 2861W        W 6380   4.681   4.078   8.622
 2862W        W 6381   2.371   4.062   2.353
 2863W        W 6382   0.868   4.534   0.547
 2864W        W 6383   6.417   8.823   2.618
 2865W        W 6384   8.842   8.839   9.427
 2866W        W 6385   0.661   5.598  11.857
 2867W        W 6386   4.033   6.077   8.670
 2868W        W 6387   8.045   7.470   9.180
 2869W        W 6388   6.889   3.362   9.001
 2870W        W 6389   2.876   1.812  11.989
 2871W        W 6390   5.996   6.857   1.334
 2872W        W 6391   6.887   4.105  11.339
 2873W        W 6392   5.397   6.896   8.997
 2874W        W 6393   2.748   9.303  11.197
 2875W        W 6394   5.100   0.533   2.008
 2876W        W 6395   3.777   0.548  11.335
 2877W        W 6396   1.784   8.299   2.434
 2878W        W 6397   7.242   7.646  10.756
 2879W        W 6398   0.875   1.064   1.788
 2880W        W 6399   2.030   4.471   9.543
 2881W        W 6400   3.703   1.044  11.369
 2882W        W 6401   9.554   1.886   2.905
 2883W        W 6402   8.103   1.752   2.661
 2884W        W 6403   0.823   3.464   2.956
 2885W        W 6404   6.877   1.908   8.794
 2886W        W 6405   6.598   1.657  11.869
 2887W        W 6406   2.908   8.724  10.466
 2888W        W 6407   0.650   8.039   9.327
 2889W        W 6408   7.158   4.410  11.878
 2890W        W 6409   8.952   1.438   0.056
 2891W        W 6410   7.572   0.760   0.308
 2892W        W 6411   8.649   7.548   2.781
 2893W        W 6412   5.619   7.866  10.916
 2894W        W 6413   7.852   7.827   3.580
 2895W        W 6414   9.347   5.468   8.654
 2896W        W 6415   9.234   1.152   8.730
 2897W        W 6416   8.902   8.771   2.432
 2898W        W 6417   8.261   9.671  10.221
 2899W        W 6418   8.444   3.160   1.352
 2900W        W 6419   8.587   3.048   3.585
 2901W        W 6420   6.174   6.318   3.674
 2902W        W 6421   1.409   3.161   9.780
 2903W        W 6422   3.970   6.583   3.162
 2904W        W 6423   0.923   3.737   1.568
 2905W        W 6424   1.208   7.906   9.226
 2906W        W 6425   6.936   7.043   1.249
 2907W        W 6426   9.928   5.476   0.502
 2908W        W 6427   6.074   0.916   2.272
 2909W        W 6428   5.256   6.518   2.866
 2910W        W 6429   6.956   9.110   0.944
 2911W        W 6430   5.444   9.360   1.640
 2912W        W 6431   3.813   4.217   8.568
 2913W        W 6432   1.757   1.017   9.221
 2914W        W 6433   6.241   7.556   1.265
 2915W        W 6434   7.065   5.290   9.311
 2916W        W 6435   6.984   1.419  10.828
 2917W        W 6436   9.801   9.912   2.528
 2918W        W 6437   3.958   5.842   1.442
 2919W        W 6438   6.173   3.607  10.922
 2920W        W 6439   1.307   5.918  11.470
 2921W        W 6440   6.490   5.458  11.931
 2922W        W 6441   7.742   8.495  10.265
 2923W        W 6442   3.745   2.369   0.234
 2924W        W 6443   4.885   0.552   3.527
 2925W        W 6444   9.935   6.232   2.452
 2926W        W 6445   3.201   2.218   2.493
 2927W        W 6446   0.283   0.074  10.890
 2928W        W 6447   1.195   2.828   2.604
 2929W        W 6448   0.283   6.937   1.778
 2930W        W 6449   8.572   8.450  11.079
 2931W        W 6450   8.657   4.436   2.703
 2932W        W 6451   9.299   6.048  10.532
 2933W        W 6452   9.742   0.330   9.234
 2934W        W 6453   3.621   3.482   9.410
 2935W        W 6454   8.060   7.231   0.905
 2936W        W 6455   5.551   3.398  11.520
 2937W        W 6456   0.899   5.218   9.668
 2938W        W 6457   4.601   0.050  10.085
 2939W        W 6458   5.728   5.479   9.374
 2940W        W 6459   6.190   6.108   8.325
 2941W        W 6460   6.658   6.605   2.790
 2942W        W 6461   8.562   2.207  11.261
 2943W        W 6462   0.999   0.508   1.878
 2944W        W 6463   0.232   1.247   9.653
 2945W        W 6464   3.077   3.523   2.437
 2946W        W 6465   6.233   6.720   8.210
 2947W        W 6466   3.544   7.625   2.123
 2948W        W 6467   9.404   8.520   0.775
 2949W        W 6468   5.204   4.643   8.647
 2950W        W 6469   8.947   8.886   3.259
 2951W        W 6470   7.978   1.925   0.265
 2952W        W 6471   1.489   5.569   9.995
 2953W        W 6472   6.476   8.129   0.049
 2954W        W 6473   0.905   0.635   0.776
 2955W        W 6474   5.777   9.238   3.502
 2956W        W 6475   6.103   5.709   9.063
 2957W        W 6476   1.846   0.915   9.719
 2958W        W 6477   0.399   6.130   9.687
 2959W        W 6478   5.707   1.222   2.096
 2960W        W 6479   5.409   2.219  10.920
 2961W        W 6480   1.385   2.421   0.862
 2962W        W 6481   5.281   8.981   0.007
 2963W        W 6482   2.700   0.248   2.180
 2964W        W 6483   1.656   5.679   2.264
 2965W        W 6484   9.018   6.494   2.067
 2966W        W 6485   7.029   3.035   0.962
 2967W        W 6486   7.085   9.541  11.184
 2968W        W 6487   6.510   0.218  11.271
 2969W        W 6488   3.746   1.427   0.278
 2970W        W 6489   3.740   5.657   3.280
 2971W        W 6490   8.989   8.618  11.498
 2972W        W 6491   4.447   3.067  11.147
 2973W        W 6492   8.153   5.969   2.990
 2974W        W 6493   0.735   1.153   9.598
 2975W        W 6494   7.028   6.879   2.228
 2976W        W 6495   0.521   9.305   2.058
 2977W        W 6496   2.141   2.038  11.385
 2978W        W 6497   2.632   2.437  11.401
 2979W        W 6498   7.124   4.219  10.851
 2980W        W 6499   7.856   7.102  11.835
 2981W        W 6500   5.998   4.081  11.495
 2982W        W 6501   8.760   1.777   8.893
 2983W        W 6502   1.673   1.839   2.792
 2984W        W 6503   0.241   1.150   0.211
 2985W        W 6504   7.464   3.507   3.512
 2986W        W 6505   1.484   1.241  10.489
 2987W        W 6506   6.658   3.869   8.164
 2988W        W 6507   6.072   8.777   1.080
 2989W        W 6508   8.423   7.674  11.503
 2990W        W 6509   0.251   4.677   1.286
 2991W        W 6510   9.067   1.631   3.567
 2992W        W 6511   4.223   1.128   8.554
 2993W        W 6512   0.453   9.342   2.638
 2994W        W 6513   5.782   1.814   1.821
 2995W        W 6514   7.218   9.454   9.329
 2996W        W 6515   9.771   9.396  10.046
 2997W        W 6516   1.349   5.419  11.210
 2998W        W 6517   2.332   7.178  10.877
 2999W        W 6518   9.661   6.497   0.704
 3000W        W 6519   5.645   9.832   2.847
 3001W        W 6520   4.916   4.308   9.979
 3002W        W 6521   8.417   9.546   9.727
 3003W        W 6522   0.787   3.310   1.925
 3004W        W 6523   0.337   4.826   2.180
 3005W        W 6524   6.604   6.007  11.495
 3006W        W 6525   2.263   7.208   0.119
 3007W        W 6526   3.961   7.675  11.321
 3008W        W 6527   6.045   1.698  11.664
 3009W        W 6528   7.628   6.586  10.382
 3010W        W 6529   7.588   4.210   1.626
 3011W        W 6530   3.293   1.996   9.072
 3012W        W 6531   2.300   5.276   9.503
 3013W        W 6532   0.001   6.256  11.379
 3014W        W 6533   2.152   8.220   0.009
 3015W        W 6534   0.299   9.813   2.623
 3016W        W 6535   9.741   7.368   2.925
 3017W        W 6536   2.669   3.098   8.662
 3018W        W 6537   8.608   6.412   8.681
 3019W        W 6538   0.006   4.878   2.844
 3020W        W 6539   1.297   2.458   0.348
 3021W        W 6540   1.803   4.994   0.230
 3022W        W 6541   3.878   8.028   1.985
 3023W        W 6542   3.231   1.492  10.851
 3024W        W 6543   1.122   4.987   9.237
 3025W        W 6544   7.570   6.722  11.619
 3026W        W 6545   7.346   3.211   9.275
 3027W        W 6546   0.862   5.266   8.876
 3028W        W 6547   2.599   3.660   9.298
 3029W        W 6548   7.267   3.958  11.681
 3030W        W 6549   9.597   1.922   1.858
 3031W        W 6550   0.608   7.160   3.224
 3032W        W 6551   3.070   5.285   0.003
 3033W        W 6552   5.403   7.466   0.862
 3034W        W 6553   4.201   1.814   3.000
 3035W        W 6554   7.447   7.388   1.675
 3036W        W 6555   5.738   2.136   2.282
 3037W        W 6556   1.972   5.268   0.707
 3038W        W 6557   5.735   1.019   9.027
 3039W        W 6558   2.508   2.035   3.463
 3040W        W 6559   5.576   2.751   1.342
 3041W        W 6560   2.260   0.544   2.207
 3042W        W 6561   2.658   7.317   8.955
 3043W        W 6562   4.536   9.958   1.066
 3044W        W 6563   5.197   5.043   2.817
 3045W        W 6564   7.477   5.321   2.955
 3046W        W 6565   2.723   7.807  10.243
 3047W        W 6566   6.360   0.340   8.784
 3048W        W 6567   9.223   9.755   8.444
 3049W        W 6568   0.001   1.728  11.200
 3050W        W 6569   9.932   8.841   3.391
 3051W        W 6570   7.035   4.717   3.104
 3052W        W 6571   5.581   7.873  11.939
 3053W        W 6572   7.748   8.760   9.518
 3054W        W 6573   3.508   9.316   1.955
 3055W        W 6574   8.670   4.971  10.878
 3056W        W 6575   8.729   9.472  10.150
 3057W        W 6576   8.482   4.136  10.281
 3058W        W 6577   0.322   4.617   9.176
 3059W        W 6578   9.089   9.313   0.467
 3060W        W 6579   8.830   5.120   9.883
 3061W        W 6580   1.919   0.378  11.467
 3062W        W 6581   7.561   9.104   9.210
 3063W        W 6582   7.231   0.368  11.345
 3064W        W 6583   2.138   9.926  11.489
 3065W        W 6584   4.659   6.933   0.699
 3066W        W 6585   2.791   6.002  10.298
 3067W        W 6586   6.887   1.750   3.201
 3068W        W 6587   5.269   7.019  10.518
 3069W        W 6588   8.169   9.300   2.310
 3070W        W 6589   0.511   9.966   3.489
 3071W        W 6590   8.373   7.520   1.762
 3072W        W 6591   9.010   9.819  11.451
 3073W        W 6592   4.344   8.264   1.124
 3074W        W 6593   9.143   1.824   2.582
 3075W        W 6594   1.406   7.643  11.479
 3076W        W 6595   8.375   1.165   3.364
 3077W        W 6596   3.229   0.187   3.390
 3078W        W 6597   8.397   9.343   2.760
 3079W        W 6598   7.430   7.829   1.957
 3080W        W 6599   8.194   2.672  10.515
 3081W        W 6600   6.912   1.563  11.462
 3082W        W 6601   2.242   9.902   2.880
 3083W        W 6602   9.332   7.766   9.088
 3084W        W 6603   9.865   3.269   9.385
 3085W        W 6604   7.991   5.485   9.442
 3086W        W 6605   7.926   4.344   2.004
 3087W        W 6606   6.107   2.313   9.469
 3088W        W 6607   9.496   2.268  11.733
 3089W        W 6608   0.971   9.234   0.699
 3090W        W 6609   2.084   2.291   3.324
 3091W        W 6610   2.526   6.344   0.025
 3092W        W 6611   5.541   6.514   9.521
 3093W        W 6612   7.650   0.291  11.591
 3094W        W 6613   8.254   0.215   9.182
 3095W        W 6614   4.182   3.279   8.210
 3096W        W 6615   5.371   9.783   8.798
 3097W        W 6616   0.268   9.115  11.338
 3098W        W 6617   6.358   1.976   1.103
 3099W        W 6618   1.390   4.388   9.216
 3100W        W 6619   2.261   0.346   1.438
 3101W        W 6620   7.039   5.010   8.362
 3102W        W 6621   4.073   9.377  10.515
 3103W        W 6622   3.697   6.104   8.268
 3104W        W 6623   1.353   9.015  11.372
 3105W        W 6624   5.998   1.035   9.877
 3106W        W 6625   1.841   7.894   2.006
 3107W        W 6626   0.192   6.784  11.310
 3108W        W 6627   4.228   7.001  10.169
 3109W        W 6628   7.053   5.216   3.265
 3110W        W 6629   7.118   6.047   1.472
 3111W        W 6630   1.799   8.484  10.710
 3112W        W 6631   7.457   9.413   9.781
 3113W        W 6632   6.137   4.271   1.677
 3114W        W 6633   4.301   9.424   2.339
 3115W        W 6634   7.164   5.908  10.574
 3116W        W 6635   3.371   6.377   1.801
 3117W        W 6636   3.984   2.505   2.281
 3118W        W 6637   0.297   8.143   8.947
 3119W        W 6638   0.738   6.695  10.373
 3120W        W 6639   1.207   4.644   3.518
 3121W        W 6640   0.812   9.982  10.727
 3122W        W 6641   1.072   7.793   1.334
 3123W        W 6642   7.796   0.702  11.863
 3124W        W 6643   9.528   8.970   9.884
 3125W        W 6644   3.302   8.955  11.738
 3126W        W 6645   3.144   2.802  10.194
 3127W        W 6646   9.447   4.525  10.393
 3128W        W 6647   5.230   2.032  10.441
 3129W        W 6648   9.079   5.112   8.947
 3130W        W 6649   4.002   9.830   2.372
 3131W        W 6650   5.731   7.541   1.367
 3132W        W 6651   0.518   5.659   2.142
 3133W        W 6652   4.662   7.870  11.842
 3134W        W 6653   5.095   1.157   9.830
 3135W        W 6654   4.064   9.444  11.550
 3136W        W 6655   7.431   5.198   2.413
 3137W        W 6656   4.560   2.804  10.423
 3138W        W 6657   2.418   6.555   3.232
 3139W        W 6658   0.243   9.741   1.796
 3140W        W 6659   7.826   7.901   2.730
 3141W        W 6660   1.406   2.182  10.032
 3142W        W 6661   8.566   8.568  11.825
 3143W        W 6662   3.541   4.549   0.475
 3144W        W 6663   1.830   6.709   3.187
 3145W        W 6664   8.284   7.957   2.536
 3146W        W 6665   9.229   6.057  11.887
 3147W        W 6666   9.251   0.984   2.883
 3148W        W 6667   0.358   7.799  10.521
 3149W        W 6668   1.897   2.397   0.926
 3150W        W 6669   3.583   2.592  10.336
 3151W        W 6670   6.210   2.694   0.669
 3152W        W 6671   7.582   5.340   9.088
 3153W        W 6672   9.854   7.100   0.058
 3154W        W 6673   7.933   1.640   1.817
 3155W        W 6674   2.923   8.639   9.885
 3156W        W 6675   4.979   1.382  11.365
 3157W        W 6676   4.623   6.535   1.502
 3158W        W 6677   5.669   6.805   0.728
 3159W        W 6678   5.907   0.299   9.425
 3160W        W 6679   2.239   7.930  10.184
 3161W        W 6680   0.026   4.205  10.778
 3162W        W 6681   9.887   3.434   0.292
 3163W        W 6682   8.031   5.776  10.452
 3164W        W 6683   4.704   6.325   9.402
 3165W        W 6684   8.569   0.572  11.226
 3166W        W 6685   8.947   5.726   0.794
 3167W        W 6686   6.120   6.598   9.088
 3168W        W 6687   1.291   3.100  11.680
 3169W        W 6688   4.279   5.538   1.914
 3170W        W 6689   4.115   1.346  11.244
 3171W        W 6690   9.210   4.588   0.482
 3172W        W 6691   4.823   0.909   2.188
 3173W        W 6692   6.964   2.288  10.874
 3174W        W 6693   4.877   1.601   1.347
 3175W        W 6694   5.262   0.235   0.736
 3176W        W 6695   2.163   4.957   3.656
 3177W        W 6696   3.330   6.583  11.743
 3178W        W 6697   4.639   1.765   2.716
 3179W        W 6698   3.585   1.121   9.131
 3180W        W 6699   3.563   4.606   8.002
 3181W        W 6700   2.777   3.781  11.086
 3182W        W 6701   2.617   4.319   9.803
 3183W        W 6702   1.320   2.665  11.352
 3184W        W 6703   3.259   0.799   9.396
 3185W        W 6704   6.155   5.642   4.170
 3186W        W 6705   0.837   6.989   0.366
 3187W        W 6706   1.576   3.043  10.824
 3188W        W 6707   9.235   8.367   0.296
 3189W        W 6708   6.920   5.104   2.281
 3190W        W 6709   5.426   7.119  11.012
 3191W        W 6710   6.020   9.536  11.299
 3192W        W 6711   8.148   2.663   2.467
 3193W        W 6712   5.245   9.970   0.293
 3194W        W 6713   6.929   9.827   2.171
 3195W        W 6714   5.213   5.094  10.906
 3196W        W 6715   3.841   8.944   3.158
 3197W        W 6716   9.382   3.438  11.110
 3198W        W 6717   4.425   7.103   2.297
 3199W        W 6718   0.416   6.436   1.712
 3200W        W 6719   5.499   4.491   3.371
 3201W        W 6720   0.815   1.076   9.073
 3202W        W 6721   5.068   1.448   3.128
 3203W        W 6722   6.591   9.235  11.345
 3204W        W 6723   1.769   4.269  11.535
 3205W        W 6724   8.324   7.076   0.020
 3206W        W 6725   4.522   6.431   9.858
 3207W        W 6726   6.676   3.827   9.700
 3208W        W 6727   8.628   1.074  10.315
 3209W        W 6728   3.381   2.580  11.933
 3210W        W 6729   0.419   9.680  10.562
 3211W        W 6730   1.364   5.990   3.037
 3212W        W 6731   7.338   4.415   9.217
 3213W        W 6732   5.218   1.515  10.414
 3214W        W 6733   3.617   4.965   9.188
 3215W        W 6734   8.575   4.297  11.828
 3216W        W 6735   4.362   4.275   1.466
 3217W        W 6736   9.529   1.881   3.406
 3218W        W 6737   3.080   3.799  10.205
 3219W        W 6738   6.414   6.257  11.084
 3220W        W 6739   5.223   7.659   3.646
 3221W        W 6740   0.427   4.361  10.521
 3222W        W 6741   1.381   0.317   1.580
 3223W        W 6742   1.242   2.406   2.260
 3224W        W 6743   9.965   1.703   9.822
 3225W        W 6744   1.772   7.493   9.774
 3226W        W 6745   2.363   3.345   2.760
 3227W        W 6746   5.248   3.629   3.160
 3228W        W 6747   0.520   2.143  10.055
 3229W        W 6748   1.615   1.035   2.691
 3230W        W 6749   7.541   4.780  11.887
 3231W        W 6750   6.555   7.668   0.319
 3232W        W 6751   6.616   4.749   3.393
 3233W        W 6752   6.844   9.258   3.128
 3234W        W 6753   2.074   9.227   3.019
 3235W        W 6754   0.446   6.393  11.135
 3236W        W 6755   4.200   3.083   3.087
 3237W        W 6756   2.238   5.604  11.127
 3238W        W 6757   5.703   3.591   2.200
 3239W        W 6758   8.999   1.015   0.383
 3240W        W 6759   3.161   7.099  10.540
 3241W        W 6760   4.293   4.625  11.858
 3242W        W 6761   0.699   8.291   0.838
 3243W        W 6762   0.875   7.655  10.482
 3244W        W 6763   0.871   1.554   2.685
 3245W        W 6764   4.268   2.374   8.704
 3246W        W 6765   0.107   0.698   1.427
 3247W        W 6766   0.363   1.841   0.433
 3248W        W 6767   0.238   5.657   3.392
 3249W        W 6768   4.697   1.264   3.485
 3250W        W 6769   9.506   6.636   1.168
 3251W        W 6770   6.932   0.181   1.793
 3252W        W 6771   4.164   1.590   2.547
 3253W        W 6772   5.037   5.897  11.105
 3254W        W 6773   6.662   8.200   9.034
 3255W        W 6774   8.086   9.086   1.864
 3256W        W 6775   4.354   6.213   9.041
 3257W        W 6776   7.111   1.663   9.220
 3258W        W 6777   8.918   3.994  11.052
 3259W        W 6778   2.921   6.547   3.129
 3260W        W 6779   6.042   4.375   9.134
 3261W        W 6780   1.642   3.575   9.598
 3262W        W 6781   9.827   9.529  11.990
 3263W        W 6782   6.919   7.706   0.720
 3264W        W 6783   9.837   6.882   2.877
 3265W        W 6784   2.015   0.838  10.715
 3266W        W 6785   4.157   2.003   2.237
 3267W        W 6786   6.904   7.779   8.804
 3268W        W 6787   9.470   0.757   8.997
 3269W        W 6788   0.627   4.695   9.610
 3270W        W 6789   6.641   6.087   3.687
 3271W        W 6790   8.617   5.775   2.901
 3272W        W 6791   8.489   1.324   2.415
 3273W        W 6792   9.280   2.681   1.058
 3274W        W 6793   5.962   6.125   0.849
 3275W        W 6794   1.971   1.695   1.391
 3276W        W 6795   7.885   9.747   2.302
 3277W        W 6796   7.001   6.988   0.382
 3278W        W 6797   9.348   0.060   2.292
 3279W        W 6798   0.459   0.353   0.513
 3280W        W 6799   3.681   0.763  10.301
 3281W        W 6800   2.375   0.675   3.537
 3282W        W 6801   8.686   4.124   8.481
 3283W        W 6802   6.488   4.621   1.756
 3284W        W 6803   2.474   5.503   8.491
 3285W        W 6804   7.591   2.253   0.281
 3286W        W 6805   0.732   3.984  10.288
 3287W        W 6806   3.676   1.549  11.387
 3288W        W 6807   4.888   7.261   8.581
 3289W        W 6808   1.295   6.308   8.677
 3290W        W 6809   9.558   5.017   0.568
 3291W        W 6810   4.642   2.716  11.885
 3292W        W 6811   8.067   6.503   9.522
 3293W        W 6812   1.832   3.251   1.418
 3294W        W 6813   7.678   9.858  11.869
 3295W        W 6814   7.042   4.876   0.035
 3296W        W 6815   7.574   8.416  11.784
 3297W        W 6816   9.961   0.945   0.584
 3298W        W 6817   6.316   5.341  11.417
 3299W        W 6818   5.165   4.629   9.161
 3300W        W 6819   4.104   4.114   3.467
 3301W        W 6820   4.500   3.177   1.743
 3302W        W 6821   9.939   9.456   2.738
 3303W        W 6822   7.055   8.146   1.792
 3304W        W 6823   7.702   3.084   9.654
 3305W        W 6824   0.835   9.753   0.005
 3306W        W 6825   3.463   3.809   2.546
 3307W        W 6826   5.429   7.829   9.037
 3308W        W 6827   5.890   9.639   1.695
 3309W        W 6828   3.962   2.723   0.561
 3310W        W 6829   5.094   3.326  10.569
 3311W        W 6830   6.598   7.016   4.227
 3312W        W 6831   8.118   8.590   1.783
 3313W        W 6832   3.903   0.290  11.799
 3314W        W 6833   0.334   0.426  11.241
 3315W        W 6834   7.936   1.359   1.261
 3316W        W 6835   0.166   1.729   0.940
 3317W        W 6836   3.514   8.881   3.578
 3318W        W 6837   3.918   6.328   3.894
 3319W        W 6838   6.334   0.124   9.647
 3320W        W 6839   8.063   6.419   0.357
 3321W        W 6840   6.396   4.801   9.102
 3322W        W 6841   0.797   4.846   2.402
 3323W        W 6842   2.937   2.312   3.345
 3324W        W 6843   5.453   1.487   9.686
 3325W        W 6844   6.625   5.636   3.936
 3326W        W 6845   8.476   7.983   3.008
 3327W        W 6846   9.916   9.928  11.261
 3328W        W 6847   2.194   1.038   2.136
 3329W        W 6848   2.415   6.923   9.966
 3330W        W 6849   8.981   3.504   2.928
 3331W        W 6850   7.483   3.739   1.441
 3332W        W 6851   1.071   6.636   1.839
 3333W        W 6852   6.013   2.721   9.792
 3334W        W 6853   8.844   1.482   0.555
 3335W        W 6854   9.051   9.634   2.263
 3336W        W 6855   4.699   7.042  10.492
 3337W        W 6856   3.899   5.865  11.761
 3338W        W 6857   6.109   3.184  10.545
 3339W        W 6858   9.832   8.822   9.457
 3340W        W 6859   9.254   0.861  10.910
 3341W        W 6860   5.609   8.368  11.798
 3342W        W 6861   0.646   8.667  10.692
 3343W        W 6862   7.392   9.127   0.503
 3344W        W 6863   1.164   5.073   1.035
 3345W        W 6864   4.655   1.798   8.997
 3346W        W 6865   2.037   2.642   8.668
 3347W        W 6866   5.632   5.220   0.363
 3348W        W 6867   1.220   6.271   0.090
 3349W        W 6868   5.574   9.358   9.717
 3350W        W 6869   1.748   0.880  10.254
 3351W        W 6870   6.537   2.135   0.052
 3352W        W 6871   2.277   9.910  10.988
 3353W        W 6872   5.801   9.061   0.025
 3354W        W 6873   0.196   1.620   3.909
 3355W        W 6874   3.772   3.756  11.853
 3356W        W 6875   2.188   6.044   2.010
 3357W        W 6876   8.125   7.092   8.849
 3358W        W 6877   4.889   4.042   0.462
 3359W        W 6878   5.133   6.855   0.340
 3360W        W 6879   7.967   5.470   1.353
 3361W        W 6880   6.107   5.612   0.799
 3362W        W 6881   1.013   4.141   9.528
 3363W        W 6882   3.405   0.345   9.553
 3364W        W 6883   6.324   8.673  11.417
 3365W        W 6884   8.448   2.635   9.206
 3366W        W 6885   9.435   0.296   8.781
 3367W        W 6886   7.737   5.108   1.032
 3368W        W 6887   7.967   7.589  11.212
 3369W        W 6888   3.497   6.052   1.438
 3370W        W 6889   0.787   1.682   8.956
 3371W        W 6890   6.824   7.494  11.261
 3372W        W 6891   0.849   9.705   0.962
 3373W        W 6892   4.074   3.064   0.916
 3374W        W 6893   7.856   8.230   9.833
 3375W        W 6894   1.904   7.132  11.755
 3376W        W 6895   0.137   7.844   9.332
 3377W        W 6896   5.387   4.261   9.776
 3378W        W 6897   7.501   5.732   3.539
 3379W        W 6898   8.251   4.211   0.610
 3380W        W 6899   0.961   2.313  11.539
 3381W        W 6900   4.793   6.456   0.658
 3382W        W 6901   4.691   0.863   2.677
 3383W        W 6902   6.368   7.552   9.906
 3384W        W 6903   3.688   0.471   1.796
 3385W        W 6904   9.775   6.742   2.383
 3386W        W 6905   4.760   0.360  11.384
 3387W        W 6906   7.395   8.318  10.931
 3388W        W 6907   3.759   0.026  11.381
 3389W        W 6908   0.519   3.700   1.232
 3390W        W 6909   3.188   5.925   0.555
 3391W        W 6910   7.871   8.163   1.773
 3392W        W 6911   3.923   5.894   9.525
 3393W        W 6912   9.247   5.458   3.245
 3394W        W 6913   8.543   7.450   0.826
 3395W        W 6914   9.608   5.269   0.133
 3396W        W 6915   8.131   0.680  10.289
 3397W        W 6916   2.754   4.407   8.478
 3398W        W 6917   0.475   0.852   0.572
 3399W        W 6918   6.894   6.508   3.555
 3400W        W 6919   9.562   3.383  11.890
 3401W        W 6920   9.219   8.196  10.087
 3402W        W 6921   3.073   4.363   0.370
 3403W        W 6922   4.680   6.639   3.601
 3404W        W 6923   3.685   0.715  10.817
 3405W        W 6924   9.687   1.788   1.327
 3406W        W 6925   9.831   0.251   1.212
 3407W        W 6926   2.655   0.767  11.886
 3408W        W 6927   5.122   6.344   3.719
 3409W        W 6928   8.955   9.935   9.575
 3410W        W 6929   5.732   0.133   1.801
 3411W        W 6930   4.975   9.385  11.922
 3412W        W 6931   0.346   7.970  11.764
 3413W        W 6932   7.790   6.734   9.022
 3414W        W 6933   4.522   7.914  10.890
 3415W        W 6934   8.656   0.323   3.133
 3416W        W 6935   3.053   3.351  11.449
 3417W        W 6936   2.229   6.036   0.908
 3418W        W 6937   9.056   0.755  10.417
 3419W        W 6938   8.394   9.348  11.873
 3420W        W 6939   5.215   1.915   8.529
 3421W        W 6940   0.789   8.068  11.503
 3422W        W 6941   7.923   3.416   1.323
 3423W        W 6942   2.221   4.345   2.794
 3424W        W 6943   8.031   4.657   9.891
 3425W        W 6944   3.776   8.895   0.747
 3426W        W 6945   0.449   4.226  11.062
 3427W        W 6946   4.998   2.077  11.762
 3428W        W 6947   5.003   9.970   2.216
 3429W        W 6948   4.331   8.992   3.351
 3430W        W 6949   0.281   8.780  10.302
 3431W        W 6950   2.567   4.743   2.859
 3432W        W 6951   3.117   2.190   9.516
 3433W        W 6952   6.302   3.004  10.103
 3434W        W 6953   1.454   2.138   3.196
 3435W        W 6954   2.508   2.638   9.511
 3436W        W 6955   6.601   1.733   1.921
 3437W        W 6956   2.832   5.960   0.168
 3438W        W 6957   7.395   2.672   9.572
 3439W        W 6958   3.570   4.589   8.837
 3440W        W 6959   8.459   2.629  10.959
 3441W        W 6960   0.337   5.947   0.759
 3442W        W 6961   1.252   8.064  11.762
 3443W        W 6962   9.265   3.779  10.758
 3444W        W 6963   9.603   1.729  10.893
 3445W        W 6964   1.441   3.059  10.306
 3446W        W 6965   7.211   5.037   8.860
 3447W        W 6966   1.332   9.365  10.334
 3448W        W 6967   6.389   0.980  10.620
 3449W        W 6968   3.103   9.055   9.290
 3450W        W 6969   6.325   1.779   8.719
 3451W        W 6970   3.742   8.537  10.075
 3452W        W 6971   3.762   7.913   2.494
 3453W        W 6972   1.808   1.804   9.591
 3454W        W 6973   8.081   3.065   1.717
 3455W        W 6974   6.049   1.855  10.750
 3456W        W 6975   5.951   3.380  10.039
 3457W        W 6976   6.012   9.525   9.111
 3458W        W 6977   6.016   4.153   1.184
 3459W        W 6978   9.541   5.347  10.024
 3460W        W 6979   6.392   0.186   1.127
 3461W        W 6980   0.444   9.324   0.324
 3462W        W 6981   7.938   3.235   9.220
 3463W        W 6982   1.713   2.715   2.591
 3464W        W 6983   6.886   2.401   9.225
 3465W        W 6984   3.159   9.970   9.210
 3466W        W 6985   3.471   9.429   3.623
 3467W        W 6986   5.327   7.018   2.844
 3468W        W 6987   1.847   3.808  11.749
 3469W        W 6988   8.187   1.451  10.973
 3470W        W 6989   5.050   3.532   8.165
 3471W        W 6990   0.992   2.926   3.649
 3472W        W 6991   8.727   9.327   1.432
 3473W        W 6992   5.289   4.599  11.160
 3474W        W 6993   4.905   7.709   9.843
 3475W        W 6994   7.934   2.237  10.419
 3476W        W 6995   6.009   4.778   1.728
 3477W        W 6996   1.543   4.290   9.701
 3478W        W 6997   6.187   6.415   2.848
 3479W        W 6998   5.502   3.522  10.294
 3480W        W 6999   5.355   2.939   8.753
 3481W        W 7000   7.587   8.432   2.146
 3482W        W 7001   3.653   3.465   8.910
 3483W        W 7002   3.265   4.741   3.397
 3484W        W 7003   4.626   3.681   2.966
 3485W        W 7004   3.471   7.904   0.179
 3486W        W 7005   6.944   4.682   2.622
 3487W        W 7006   2.200   4.621   3.233
 3488W        W 7007   8.464   3.377   1.849
 3489W        W 7008   4.232   7.507   0.271
 3490W        W 7009   0.280   5.413  10.501
 3491W        W 7010   2.319   0.167  10.021
 3492W        W 7011   1.324   2.337   9.055
 3493W        W 7012   7.362   6.159   3.271
 3494W        W 7013   2.715   7.026   0.269
 3495W        W 7014   3.789   5.361   3.708
 3496W        W 7015   2.746   6.902  10.780
 3497W        W 7016   1.738   8.974  11.729
 3498W        W 7017   4.100   8.567  11.705
 3499W        W 7018   5.520   2.898  11.666
 3500W        W 7019   5.460   0.448   0.281
 3501W        W 7020   0.364   4.178   1.312
 3502W        W 7021   9.728   6.124   8.269
 3503W        W 7022   4.458   7.055   8.818
 3504W        W 7023   8.900   9.486  11.907
 3505W        W 7024   6.097   5.115   0.925
 3506W        W 7025   9.019   2.667   2.914
 3507W        W 7026   2.750   3.235   1.505
 3508W        W 7027   5.708   7.092   1.878
 3509W        W 7028   5.163   7.766   3.123
 3510W        W 7029   4.139   7.425   9.720
 3511W        W 7030   3.521   6.840  11.278
 3512W        W 7031   0.886   2.772   0.290
 3513W        W 7032   1.369   1.859   9.310
 3514W        W 7033   4.222   5.583   2.912
 3515W        W 7034   9.367   7.233   9.197
 3516W        W 7035   5.192   9.962   3.124
 3517W        W 7036   6.594   6.728   1.581
 3518W        W 7037   2.141   4.781  10.304
 3519W        W 7038   3.403   0.312  11.631
 3520W        W 7039   3.513   9.439   0.764
 3521W        W 7040   5.543   1.942  11.818
 3522W        W 7041   8.485   6.878  11.093
 3523W        W 7042   8.749   0.074   2.628
 3524W        W 7043   7.305   0.119   1.438
 3525W        W 7044   2.027   8.329   9.374
 3526W        W 7045   1.992   1.416   2.687
 3527W        W 7046   4.430   7.026  10.935
 3528W        W 7047   5.162   1.394   0.437
 3529W        W 7048   9.924   8.450  11.030
 3530W        W 7049   9.994   0.365   2.693
 3531W        W 7050   6.243   6.493  11.933
 3532W        W 7051   2.890   7.770   1.042
 3533W        W 7052   5.624   0.703   2.154
 3534W        W 7053   0.330   6.114   9.153
 3535W        W 7054   1.767   9.509   1.421
 3536W        W 7055   5.045   6.990   8.176
 3537W        W 7056   9.496   8.466   9.232
 3538W        W 7057   6.691   4.459  11.042
 3539W        W 7058   1.003   0.755  11.718
 3540W        W 7059   7.148   6.507   0.392
 3541W        W 7060   8.943   3.589  11.961
 3542W        W 7061   2.354   1.181   9.875
 3543W        W 7062   1.281   8.236   1.418
 3544W        W 7063   9.375   8.586   1.814
 3545W        W 7064   5.524   3.836   8.300
 3546W        W 7065   9.919   0.214  10.518
 3547W        W 7066   8.243   4.746   2.655
 3548W        W 7067   8.965   8.234   0.702
 3549W        W 7068   6.114   0.713   0.519
 3550W        W 7069   5.479   5.061   9.214
 3551W        W 7070   5.863   6.950   8.772
 3552W        W 7071   0.627   7.861  10.082
 3553W        W 7072   6.569   5.642   3.313
 3554W        W 7073   0.347   3.962   0.791
 3555W        W 7074   2.191   1.666  11.760
 3556W        W 7075   5.126   1.591  11.846
 3557W        W 7076   7.852   6.809   3.036
 3558W        W 7077   0.943   1.463   9.940
 3559W        W 7078   0.646   9.824   1.477
 3560W        W 7079   4.322   9.148   9.633
 3561W        W 7080   7.821   3.227  11.330
 3562W        W 7081   6.958   3.777  10.622
 3563W        W 7082   6.936   8.493   0.273
 3564W        W 7083   6.916   1.053   9.903
 3565W        W 7084   1.740   2.630  10.267
 3566W        W 7085   0.937   9.535  11.159
 3567W        W 7086   6.549   8.006  10.006
 3568W        W 7087   6.968   9.682  10.223
 3569W        W 7088   1.800   8.881   1.828
 3570W        W 7089   1.126   5.066   3.234
 3571W        W 7090   9.837   6.036   0.617
 3572W        W 7091   8.656   2.971   3.094
 3573W        W 7092   4.554   7.364  10.024
 3574W        W 7093   4.640   7.018   1.714
 3575W        W 7094   4.544   9.117  10.300
 3576W        W 7095   9.331   7.200   1.715
 3577W        W 7096   8.719   4.445   9.264
 3578W        W 7097   9.790   8.800   1.024
 3579W        W 7098   9.226   0.370   9.300
 3580W        W 7099   1.355   1.170  10.006
 3581W        W 7100   8.075   8.701   9.900
 3582W        W 7101   7.737   6.253   9.217
 3583W        W 7102   4.303   8.372  10.756
 3584W        W 7103   1.756   6.130   0.724
 3585W        W 7104   1.680   0.693   8.837
 3586W        W 7105   4.203   7.876   2.767
 3587W        W 7106   6.716   9.356   3.609
 3588W        W 7107   6.441   0.902  10.122
 3589W        W 7108   4.895   8.128   3.428
 3590W        W 7109   5.243   7.475   2.318
 3591W        W 7110   5.757   7.452   8.757
 3592W        W 7111   1.760   2.041   8.976
 3593W        W 7112   2.777   0.893   9.588
 3594W        W 7113   5.010   7.307   0.523
 3595W        W 7114   9.897   9.771  10.786
 3596W        W 7115   3.237   5.136   9.512
 3597W        W 7116   1.500   9.913   1.271
 3598W        W 7117   0.431   1.702   2.948
 3599W        W 7118   7.195   9.098  11.460
 3600W        W 7119   1.965   0.298   9.002
 3601W        W 7120   7.366   5.246   3.659
 3602W        W 7121   9.562   9.680  10.410
 3603W        W 7122   4.693   0.713   1.700
 3604W        W 7123   6.980   1.303   2.184
 3605W        W 7124   1.785   5.705   1.016
 3606W        W 7125   2.309   1.162   3.425
 3607W        W 7126   6.555   4.892   0.934
 3608W        W 7127   9.545   0.122   2.915
 3609W        W 7128   5.519   8.361   2.609
 3610W        W 7129   1.335   7.624  11.996
 3611W        W 7130   6.646   3.374   0.786
 3612W        W 7131   4.756   1.134   9.371
 3613W        W 7132   2.617   2.182   1.718
 3614W        W 7133   0.671   3.117   3.290
 3615W        W 7134   8.539   8.904   1.167
 3616W        W 7135   6.130   1.256   3.287
 3617W        W 7136   5.201   7.280   4.002
 3618W        W 7137   6.114   4.735  11.516
 3619W        W 7138   2.308   9.853   0.838
 3620W        W 7139   2.406   2.465   0.861
 3621W        W 7140   7.232   2.571   3.521
 3622W        W 7141   5.545   6.607   2.013
 3623W        W 7142   4.774   2.238   3.465
 3624W        W 7143   1.817   0.013   1.692
 3625W        W 7144   6.616   8.281   9.550
 3626W        W 7145   1.322   4.165   2.697
 3627W        W 7146   6.384   3.208   8.757
 3628W        W 7147   3.223   5.562   2.695
 3629W        W 7148   5.417   5.925   3.799
 3630W        W 7149   9.607   5.111   3.090
 3631W        W 7150   5.518   9.073   0.458
 3632W        W 7151   3.619   2.105  10.460
 3633W        W 7152   6.880   7.317   9.979
 3634W        W 7153   3.040   9.445   0.972
 3635W        W 7154   3.321   3.679   9.766
 3636W        W 7155   5.658   9.944   0.984
 3637W        W 7156   8.900   5.978   9.523
 3638W        W 7157   8.600   5.728   0.257
 3639W        W 7158   7.612   3.257   1.721
 3640W        W 7159   5.224   5.860   1.659
 3641W        W 7160   7.764   0.050   9.061
 3642W        W 7161   0.519   9.179  10.503
 3643W        W 7162   1.540   5.079   1.569
 3644W        W 7163   8.349   8.849   2.636
 3645W        W 7164   4.305   0.674   0.522
 3646W        W 7165   5.169   9.364   2.183
 3647W        W 7166   4.695   3.654  11.762
 3648W        W 7167   4.520   1.879   9.878
 3649W        W 7168   8.840   2.206   2.820
 3650W        W 7169   5.345   7.627   8.524
 3651W        W 7170   0.431   1.856  11.433
 3652W        W 7171   1.870   9.051   8.918
 3653W        W 7172   0.418   7.027   0.788
 3654W        W 7173   4.254   3.402   2.691
 3655W        W 7174   8.098   3.719  11.948
 3656W        W 7175   6.786   2.324  11.340
 3657W        W 7176   0.964   2.346  10.703
 3658W        W 7177   2.902   2.764   3.656
 3659W        W 7178   6.096   9.943   2.091
 3660W        W 7179   6.759   4.642   1.334
 3661W        W 7180   6.579   8.803   3.100
 3662W        W 7181   8.165   9.193   9.996
 3663W        W 7182   3.170   7.549  10.189
 3664W        W 7183   9.667   2.808  11.709
 3665W        W 7184   9.650   4.700  10.857
 3666W        W 7185   6.047   9.912   3.178
 3667W        W 7186   1.768   8.068   1.503
 3668W        W 7187   3.582   6.604   9.930
 3669W        W 7188   1.843   1.728   2.305
 3670W        W 7189   0.667   5.983  10.878
 3671W        W 7190   7.109   0.251   3.186
 3672W        W 7191   1.621   7.398   1.768
 3673W        W 7192   4.605   8.752   8.618
 3674W        W 7193   2.284   7.073   2.559
 3675W        W 7194   7.673   7.859  10.889
 3676W        W 7195   1.288   0.433   1.085
 3677W        W 7196   0.566   0.827  11.453
 3678W        W 7197   3.214   4.652   2.042
 3679W        W 7198   7.117   5.289  11.750
 3680W        W 7199   5.123   7.847   1.073
 3681W        W 7200   4.527   0.185  10.574
 3682W        W 7201   4.934   3.108  11.005
 3683W        W 7202   8.411   9.903   1.055
 3684W        W 7203   1.668   4.471  10.837
 3685W        W 7204   8.364   0.409   2.728
 3686W        W 7205   4.017   3.379   1.346
 3687W        W 7206   0.438   1.751  10.921
 3688W        W 7207   5.150   5.697   2.130
 3689W        W 7208   6.779   5.542  11.439
 3690W        W 7209   5.571   2.618   1.858
 3691W        W 7210   0.792   4.349   9.938
 3692W        W 7211   2.994   8.797   1.304
 3693W        W 7212   9.047   9.971   9.018
 3694W        W 7213   2.235   4.453  11.697
 3695W        W 7214   6.254   9.107   9.418
 3696W        W 7215   9.346   5.715   9.543
 3697W        W 7216   8.056   6.252   8.821
 3698W        W 7217   4.252   7.499  10.945
 3699W        W 7218   8.298   6.648   3.248
 3700W        W 7219   7.436   4.041   8.857
 3701W        W 7220   7.814   2.686   9.300
 3702W        W 7221   0.423   4.897  10.532
 3703W        W 7222   3.058   8.410  11.582
 3704W        W 7223   2.248   7.422   9.981
 3705W        W 7224   7.977   7.921   1.311
 3706W        W 7225   2.178   1.964   2.596
 3707W        W 7226   6.181   5.269   9.819
 3708W        W 7227   2.391   0.257   3.229
 3709W        W 7228   0.364   6.406  11.694
 3710W        W 7229   4.783   9.575   3.045
 3711W        W 7230   2.596   0.449   0.257
 3712W        W 7231   3.840   4.660   2.184
 3713W        W 7232   2.286   5.221  10.572
 3714W        W 7233   5.380   1.100   0.832
 3715W        W 7234   9.249   2.010  10.124
 3716W        W 7235   2.270   0.910   9.410
 3717W        W 7236   1.803   8.689   0.891
 3718W        W 7237   7.247   6.830  10.624
 3719W        W 7238   4.074   8.543   2.036
 3720W        W 7239   2.845   4.627  11.038
 3721W        W 7240   4.749   5.641   1.717
 3722W        W 7241   1.702   8.812   2.377
 3723W        W 7242   0.269   8.247  10.234
 3724W        W 7243   6.687   6.686   0.103
 3725W        W 7244   6.624   5.083   9.458
 3726W        W 7245   0.432   2.099  11.896
 3727W        W 7246   7.571   8.907   2.795
 3728W        W 7247   3.674   0.061   9.982
 3729W        W 7248   2.250   6.386   1.295
 3730W        W 7249   5.461   3.642   0.310
 3731W        W 7250   3.582   5.039   1.953
 3732W        W 7251   1.150   4.309   1.737
 3733W        W 7252   5.896   8.419  11.363
 3734W        W 7253   8.725   8.564   2.898
 3735W        W 7254   0.925   7.915   2.065
 3736W        W 7255   3.218   9.940   9.754
 3737W        W 7256   7.506   6.933   2.595
 3738W        W 7257   4.866   5.270   0.396
 3739W        W 7258   2.721   8.415   3.397
 3740W        W 7259   5.475   9.485   0.164
 3741W        W 7260   2.369   4.576   1.838
 3742W        W 7261   3.528   9.297   9.446
 3743W        W 7262   5.664   3.978   2.528
 3744W        W 7263   8.885   9.734   0.660
 3745W        W 7264   3.905   2.618   9.019
 3746W        W 7265   6.009   2.778   1.638
 3747W        W 7266   9.060   0.468   2.822
 3748W        W 7267   1.234   8.219   8.804
 3749W        W 7268   6.775   1.246  10.366
 3750W        W 7269   5.099   8.570   8.695
 3751W        W 7270   9.427   4.626   1.914
 3752W        W 7271   9.772   9.786   0.932
 3753W        W 7272   4.922   0.320   1.262
 3754W        W 7273   0.322   5.538  10.998
 3755W        W 7274   8.115   4.136  11.637
 3756W        W 7275   0.387   4.681  10.080
 3757W        W 7276   2.229   8.430   2.675
 3758W        W 7277   3.968   1.861   0.447
 3759W        W 7278   3.814   2.753  11.719
 3760W        W 7279   1.217   2.096   1.807
 3761W        W 7280   6.361   4.110   9.443
 3762W        W 7281   6.324   6.119   8.820
 3763W        W 7282   5.999   9.425   0.303
 3764W        W 7283   4.896   1.137  11.811
 3765W        W 7284   5.939   5.285   1.830
 3766W        W 7285   2.856   5.978  10.798
 3767W        W 7286   1.360   2.382   2.769
 3768W        W 7287   2.264   0.056   2.399
 3769W        W 7288   7.191   9.138   0.038
 3770W        W 7289   6.901   4.925   0.551
 3771W        W 7290   6.908   5.333   0.854
 3772W        W 7291   9.030   3.879   1.260
 3773W        W 7292   4.183   0.916  11.533
 3774W        W 7293   6.815   8.782  11.420
 3775W        W 7294   6.681   9.036   8.770
 3776W        W 7295   4.540   0.262   8.834
 3777W        W 7296   8.419   8.059   9.655
 3778W        W 7297   8.915   4.407   1.313
 3779W        W 7298   1.814   9.628   2.808
 3780W        W 7299   2.703   9.255  11.711
 3781W        W 7300   2.256   9.503   9.468
 3782W        W 7301   8.014   7.906   0.341
 3783W        W 7302   6.944   4.759   9.195
 3784W        W 7303   0.116   0.123   0.210
 3785W        W 7304   7.615   5.589   1.940
 3786W        W 7305   4.588   0.826   3.188
 3787W        W 7306   4.285   1.849   1.733
 3788W        W 7307   7.199   1.352   3.103
 3789W        W 7308   2.328   9.872   3.580
 3790W        W 7309   6.827   2.882   3.359
 3791W        W 7310   0.063   7.613  11.542
 3792W        W 7311   4.966   1.393   8.916
 3793W        W 7312   7.552   7.094  10.289
 3794W        W 7313   4.798   8.944   0.951
 3795W        W 7314   2.402   0.812  11.071
 3796W        W 7315   5.064   3.108   0.515
 3797W        W 7316   5.618   5.942   9.517
 3798W        W 7317   3.216   9.911  10.768
 3799W        W 7318   1.625   2.393   1.923
 3800W        W 7319   2.234   4.034   1.367
 3801W        W 7320   0.795   8.885   2.216
 3802W        W 7321   2.141   3.151   2.335
 3803W        W 7322   6.073   2.659  11.802
 3804W        W 7323   9.721   4.565   0.425
 3805W        W 7324   1.515   4.495   0.819
 3806W        W 7325   5.191   4.125   2.425
 3807W        W 7326   8.925   7.510   0.485
 3808W        W 7327   3.293   6.612  10.356
 3809W        W 7328   4.548   2.276   1.840
 3810W        W 7329   2.840   1.463   2.768
 3811W        W 7330   5.649   4.348   8.399
 3812W        W 7331   8.349   9.064  11.428
 3813W        W 7332   8.181   1.869  11.273
 3814W        W 7333   0.365   0.707   2.908
 3815W        W 7334   5.786   5.592   2.768
 3816W        W 7335   4.766   4.341  10.979
 3817W        W 7336   1.850   2.290   2.886
 3818W        W 7337   4.426   2.786   0.380
 3819W        W 7338   8.267   3.840   8.658
 3820W        W 7339   1.252   0.618   2.309
 3821W        W 7340   2.041   7.463   2.871
 3822W        W 7341   3.428   4.686   2.516
 3823W        W 7342   7.815   9.512   0.511
 3824W        W 7343   7.613   0.758  11.370
 3825W        W 7344   5.416   8.131   3.392
 3826W        W 7345   1.350   4.424  11.840
 3827W        W 7346   9.531   1.244  10.762
 3828W        W 7347   3.950   7.492   1.876
 3829W        W 7348   6.220   0.365   3.456
 3830W        W 7349   4.694   7.488   1.461
 3831W        W 7350   3.523   3.302  10.838
 3832W        W 7351   7.883   3.970   2.360
 3833W        W 7352   2.417   1.991   0.069
 3834W        W 7353   7.306   7.015   9.823
 3835W        W 7354   3.600   2.028   9.523
 3836W        W 7355   9.272   1.339   1.290
 3837W        W 7356   5.396   9.221  10.735
 3838W        W 7357   3.628   6.400  10.945
 3839W        W 7358   2.254   3.629   0.400
 3840W        W 7359   1.274   0.347  11.528
 3841W        W 7360   3.800   3.258  11.816
 3842W        W 7361   0.401   9.470   0.815
 3843W        W 7362   2.306   3.112   9.606
 3844W        W 7363   4.322   5.967   3.991
 3845W        W 7364   1.388   5.510   2.672
 3846W        W 7365   0.018   1.274  10.961
 3847W        W 7366   6.633   6.648   1.079
 3848W        W 7367   4.566   8.799   1.871
 3849W        W 7368   5.898   4.046  10.849
 3850W        W 7369   1.765   5.713  11.328
 3851W        W 7370   0.877   1.917   2.154
 3852W        W 7371   0.765   7.114   2.749
 3853W        W 7372   6.582   5.190   3.070
 3854W        W 7373   7.714   1.981   3.015
 3855W        W 7374   2.773   5.171   9.267
 3856W        W 7375   7.469   5.234   0.160
 3857W        W 7376   0.385   3.469  10.201
 3858W        W 7377   1.124   7.471   8.979
 3859W        W 7378   0.234   3.875  10.444
 3860W        W 7379   7.423   1.686  11.570
 3861W        W 7380   7.991   2.893   1.232
 3862W        W 7381   8.937   6.991  11.827
 3863W        W 7382   5.459   3.504   3.605
 3864W        W 7383   3.749   4.385   1.176
 3865W        W 7384   2.866   1.725   9.172
 3866W        W 7385   0.184   2.416   3.427
 3867W        W 7386   9.199   5.050   1.786
 3868W        W 7387   3.492   8.745   1.309
 3869W        W 7388   5.599   2.226   3.976
 3870W        W 7389   8.929   8.803   1.944
 3871W        W 7390   1.613   9.101   2.849
 3872W        W 7391   6.662   1.932   0.658
 3873W        W 7392   0.972   2.107  10.266
 3874W        W 7393   3.900   5.465   9.961
 3875W        W 7394   3.203   1.272  11.315
 3876W        W 7395   2.158   5.122   2.353
 3877W        W 7396   3.090   9.267   0.501
 3878W        W 7397   8.277   1.456  11.561
 3879W        W 7398   1.165   8.002   0.859
 3880W        W 7399   6.712   3.810   2.457
 3881W        W 7400   5.621   8.018   9.913
 3882W        W 7401   9.365   1.373  11.739
 3883W        W 7402   4.657   8.151  10.393
 3884W        W 7403   3.674   6.281  11.959
 3885W        W 7404   8.493   7.963   1.089
 3886W        W 7405   0.402   2.843  11.239
 3887W        W 7406   1.841   8.431   0.395
 3888W        W 7407   1.882   3.481  10.048
 3889W        W 7408   8.444   9.486   0.743
 3890W        W 7409   6.988   0.148   0.841
 3891W        W 7410   7.270   8.520   2.581
 3892W        W 7411   8.814   4.091   1.691
 3893W        W 7412   7.890   4.075   3.141
 3894W        W 7413   9.191   3.517  10.158
 3895W        W 7414   4.482   0.420   2.806
 3896W        W 7415   5.559   1.603   3.274
 3897W        W 7416   4.227   4.368   0.961
 3898W        W 7417   2.684   7.611   9.776
 3899W        W 7418   4.407   0.623   2.318
 3900W        W 7419   3.736   3.655   1.709
 3901W        W 7420   4.073   3.648   9.165
 3902W        W 7421   4.743   9.174  11.499
 3903W        W 7422   5.086   8.033  11.568
 3904W        W 7423   3.596   6.953   3.445
 3905W        W 7424   9.875   7.128  11.522
 3906W        W 7425   5.210   9.711   2.629
 3907W        W 7426   9.875   6.397   9.722
 3908W        W 7427   3.276   1.562   0.136
 3909W        W 7428   2.183   7.489   0.554
 3910W        W 7429   1.351   8.443  10.958
 3911W        W 7430   3.742   3.227   8.470
 3912W        W 7431   8.804   8.525   1.517
 3913W        W 7432   7.504   3.083  10.549
 3914W        W 7433   4.335   3.806  10.612
 3915W        W 7434   6.935   8.321   2.262
 3916W        W 7435   2.946   2.283   8.801
 3917W        W 7436   0.463   8.032   2.440
 3918W        W 7437   6.096   8.938   3.197
 3919W        W 7438   7.651   0.752   1.923
 3920W        W 7439   2.791   3.553   8.841
 3921W        W 7440   4.651   9.429   9.894
 3922W        W 7441   8.968   8.667   1.037
 3923W        W 7442   5.160   8.361  10.551
 3924W        W 7443   1.833   7.071   0.366
 3925W        W 7444   9.938   7.858   1.177
 3926W        W 7445   4.103   9.425   9.997
 3927W        W 7446   3.099   5.416   3.644
 3928W        W 7447   4.219   8.949   1.078
 3929W        W 7448   6.274   6.874   2.609
 3930W        W 7449   9.138   3.124  11.992
 3931W        W 7450   3.477   5.966   2.458
 3932W        W 7451   0.143   2.590  11.778
 3933W        W 7452   0.820   6.174   9.361
 3934W        W 7453   3.377   2.624   3.301
 3935W        W 7454   7.158   1.580  10.246
 3936W        W 7455   7.892   9.703   9.878
 3937W        W 7456   5.640   0.352  11.275
 3938W        W 7457   3.775   5.507   1.786
 3939W        W 7458   7.709   3.385  11.828
 3940W        W 7459   4.037   0.169   2.778
 3941W        W 7460   9.602   2.924   9.681
 3942W        W 7461   3.671   7.593   9.903
 3943W        W 7462   2.968   2.671   2.288
 3944W        W 7463   5.628   4.698  11.631
 3945W        W 7464   4.189   4.128  11.076
 3946W        W 7465   7.571   7.994  11.374
 3947W        W 7466   1.985   1.282  10.472
 3948W        W 7467   3.563   9.066   9.006
 3949W        W 7468   5.045   9.316   1.298
 3950W        W 7469   2.912   0.452   9.842
 3951W        W 7470   8.047   4.608  11.841
 3952W        W 7471   2.960   6.998   8.682
 3953W        W 7472   9.526   4.204  10.785
 3954W        W 7473   5.491   0.293  11.770
 3955W        W 7474   9.369   7.024   3.101
 3956W        W 7475   6.521   1.646  10.618
 3957W        W 7476   2.727   4.707   0.570
 3958W        W 7477   3.543   3.185   1.639
 3959W        W 7478   4.738   9.265   3.503
 3960W        W 7479   4.810   5.167   9.952
 3961W        W 7480   1.970   6.196  10.411
 3962W        W 7481   7.283   2.899   1.591
 3963W        W 7482   2.146   6.612   2.736
 3964W        W 7483   0.426   4.127   3.418
 3965W        W 7484   5.384   6.194   9.912
 3966W        W 7485   4.681   9.112   2.272
 3967W        W 7486   0.068   5.089   9.240
 3968W        W 7487   4.464   3.274   9.188
 3969W        W 7488   4.682   7.512   8.991
 3970W        W 7489   5.936   9.129   1.758
 3971W        W 7490   7.619   3.847   0.055
 3972W        W 7491   9.585   5.585   2.848
 3973W        W 7492   6.949   6.411   1.835
 3974W        W 7493   5.422   6.084   0.001
 3975W        W 7494   4.256   9.848   0.115
 3976W        W 7495   9.045   9.978   3.046
 3977W        W 7496   7.745   4.087   0.643
 3978W        W 7497   4.431   1.513   2.092
 3979W        W 7498   6.157   1.245   0.433
 3980W        W 7499   9.277   7.886   0.526
 3981W        W 7500   9.405   8.665   2.330
 3982W        W 7501   0.647   9.353   1.284
 3983W        W 7502   2.813   6.546   0.397
 3984W        W 7503   8.735   4.196   2.214
 3985W        W 7504   3.718   7.829   1.562
 3986W        W 7505   2.541   9.397   1.922
 3987W        W 7506   2.530   2.838   2.801
 3988W        W 7507   6.204   4.577   3.649
 3989W        W 7508   9.763   2.602   2.266
 3990W        W 7509   7.839   5.112   0.526
 3991W        W 7510   5.250   3.851   1.589
 3992W        W 7511   1.370   0.265  10.251
 3993W        W 7512   8.243   8.382   2.800
 3994W        W 7513   4.983   7.397   2.783
 3995W        W 7514   3.849   2.863   3.474
 3996W        W 7515   9.865   5.118  11.724
 3997W        W 7516   6.021   5.485  10.860
 3998W        W 7517   3.980   2.724   9.932
 3999W        W 7518   0.286   2.630   9.189
 4000W        W 7519   6.303   6.069   3.232
 4001W        W 7520   7.041   7.377   3.008
 4002W        W 7521   1.447   6.927   1.634
 4003W        W 7522   2.353   4.609  11.197
 4004W        W 7523   0.373   2.831   0.195
 4005W        W 7524   3.619   3.094   1.152
 4006W        W 7525   8.430   7.563   0.338
 4007W        W 7526   4.972   5.118   9.134
 4008W        W 7527   4.313   4.546   3.629
 4009W        W 7528   1.480   5.639   3.590
 4010W        W 7529   8.523   2.337   1.990
 4011W        W 7530   4.499   7.410   0.694
 4012W        W 7531   5.554   7.990   0.828
 4013W        W 7532   1.950   4.773   0.910
 4014W        W 7533   7.420   8.047   2.431
 4015W        W 7534   4.802   9.078   9.464
 4016W        W 7535   7.617   5.630  10.739
 4017W        W 7536   9.352   4.205   1.500
 4018W        W 7537   4.153   1.711   8.968
 4019W        W 7538   7.009   2.403   8.678
 4020W        W 7539   8.876   2.158   2.305
 4021W        W 7540   7.035   8.007   1.163
 4022W        W 7541   3.105   9.791   0.290
 4023W        W 7542   8.091   4.551   3.134
 4024W        W 7543   3.158   3.382  10.489
 4025W        W 7544   3.166   7.189  11.039
 4026W        W 7545   7.389   6.235  11.823
 4027W        W 7546   0.870   5.653  11.358
 4028W        W 7547   4.276   2.731  11.496
 4029W        W 7548   8.495   8.730  10.212
 4030W        W 7549   6.886   8.836   2.375
 4031W        W 7550   0.258   7.446   1.860
 4032W        W 7551   4.981   9.086   1.771
 4033W        W 7552   3.610   0.245  10.537
 4034W        W 7553   7.040   5.784   9.385
 4035W        W 7554   2.256   6.882   1.187
 4036W        W 7555   7.182   6.506   2.535
 4037W        W 7556   4.365   1.624   1.245
 4038W        W 7557   4.175   8.733   1.545
 4039W        W 7558   1.827   7.474   9.235
 4040W        W 7559   4.159   5.776   0.494
 4041W        W 7560   7.154   0.615   3.546
 4042W        W 7561   5.781   8.579   9.310
 4043W        W 7562   5.082   9.542  11.411
 4044W        W 7563   6.426   6.939  11.758
 4045W        W 7564   1.795   9.388   1.914
 4046W        W 7565   9.430   2.284   9.229
 4047W        W 7566   2.536   4.923   1.497
 4048W        W 7567   8.528   0.443  10.033
 4049W        W 7568   0.834   9.840   2.698
 4050W        W 7569   8.793   2.675  10.071
 4051W        W 7570   5.967   0.033   1.362
 4052W        W 7571   5.443   3.104  11.038
 4053W        W 7572   8.580   5.007   0.983
 4054W        W 7573   5.701   0.033   0.503
 4055W        W 7574   3.073   2.791   8.710
 4056W        W 7575   7.116   9.986   2.721
 4057W        W 7576   0.231   5.075   0.648
 4058W        W 7577   6.552   1.637   2.410
 4059W        W 7578   1.182   3.789  10.516
 4060W        W 7579   2.299   3.347   8.946
 4061W        W 7580   4.099   5.719   9.079
 4062W        W 7581   2.048   8.766   9.738
 4063W        W 7582   6.770   6.505   4.102
 4064W        W 7583   6.669   9.940  11.929
 4065W        W 7584   0.662   0.460  10.820
 4066W        W 7585   7.119   2.338   2.293
 4067W        W 7586   2.645   7.726  11.756
 4068W        W 7587   6.880   0.420  10.945
 4069W        W 7588   6.248   1.726  11.184
 4070W        W 7589   7.058   4.179   2.908
 4071W        W 7590   1.766   4.424  10.336
 4072W        W 7591   7.975   1.129   0.819
 4073W        W 7592   4.100   5.049   9.328
 4074W        W 7593   5.126   1.882   2.868
 4075W        W 7594   0.800   2.153   0.528
 4076W        W 7595   3.936   0.351   1.228
 4077W        W 7596   7.443   3.903  10.105
 4078W        W 7597   6.450   6.242   0.829
 4079W        W 7598   6.426   8.495  10.021
 4080W        W 7599   5.739   5.536   9.877
 4081W        W 7600   0.964   0.242   3.016
 4082W        W 7601   8.642   1.768   2.647
 4083W        W 7602   2.361   6.117  11.204
 4084W        W 7603   4.235   9.921  11.562
 4085W        W 7604   2.398   8.836   3.306
 4086W        W 7605   6.539   4.648   8.252
 4087W        W 7606   6.777   5.908   1.859
 4088W        W 7607   8.000   4.183   0.154
 4089W        W 7608   7.889   6.716   3.582
 4090W        W 7609   9.266   0.865   1.084
 4091W        W 7610   0.868   0.806   3.150
 4092W        W 7611   7.366   8.419   1.099
 4093W        W 7612   9.561   0.912  11.333
 4094W        W 7613   6.946   8.060  10.786
 4095W        W 7614   7.453   2.772   2.048
 4096W        W 7615   6.432   2.592   1.397
 4097W        W 7616   3.295   1.245   2.622
 4098W        W 7617   6.305   2.487  11.344
 4099W        W 7618   7.084   0.509   2.732
 4100W        W 7619   4.218   4.544   9.044
 4101W        W 7620   8.807   9.991  11.911
 4102W        W 7621   3.228   1.770  10.426
 4103W        W 7622   3.703   8.476  10.991
 4104W        W 7623   2.994   5.944   1.785
 4105W        W 7624   3.150   4.977   1.672
 4106W        W 7625   7.501   0.334   3.825
 4107W        W 7626   2.546   3.956  10.183
 4108W        W 7627   6.121   9.724   0.851
 4109W        W 7628   4.090   1.314   3.005
 4110W        W 7629   3.625   3.834   3.028
 4111W        W 7630   9.857   2.887   3.399
 4112W        W 7631   5.383   0.392   9.668
 4113W        W 7632   9.565   5.761   1.621
 4114W        W 7633   7.620   7.500   0.785
 4115W        W 7634   6.670   7.587   2.737
 4116W        W 7635   9.291   6.677   1.632
 4117W        W 7636   1.328   1.197   1.491
 4118W        W 7637   2.349   4.088   8.514
 4119W        W 7638   4.151   0.833   9.517
 4120W        W 7639   3.098   0.273   0.463
 4121W        W 7640   4.455   1.283   8.992
 4122W        W 7641   9.379   6.188   9.716
 4123W        W 7642   8.958   2.306   1.047
 4124W        W 7643   1.286   3.444   0.071
 4125W        W 7644   0.727   3.729   0.258
 4126W        W 7645   4.561   3.347  10.726
 4127W        W 7646   7.235   8.456  11.393
 4128W        W 7647   3.537   3.680   4.004
 4129W        W 7648   6.142   5.731  11.690
 4130W        W 7649   5.410   1.200   0.032
 4131W        W 7650   6.633   4.537   9.526
 4132W        W 7651   0.947   6.953   0.873
 4133W        W 7652   3.638   8.431   3.321
 4134W        W 7653   7.142   3.478   1.728
 4135W        W 7654   6.083   6.712  11.456
 4136W        W 7655   5.206   2.812   3.362
 4137W        W 7656   6.210   6.998  10.569
 4138W        W 7657   8.673   3.948   8.956
 4139W        W 7658   0.717   8.915   2.748
 4140W        W 7659   6.225   4.107   3.407
 4141W        W 7660   5.192   3.714   9.153
 4142W        W 7661   1.148   1.471   0.599
 4143W        W 7662   6.244   1.987   2.639
 4144W        W 7663   8.878   2.920   9.144
 4145W        W 7664   2.818   4.687   0.046
 4146W        W 7665   6.016   4.784  10.020
 4147W        W 7666   1.415   0.376   3.209
 4148W        W 7667   6.022   6.640   1.807
 4149W        W 7668   5.407   6.535  10.316
 4150W        W 7669   8.297   1.297   9.562
 4151W        W 7670   5.682   5.467   1.034
 4152W        W 7671   5.169   6.491   8.227
 4153W        W 7672   7.648   7.318   9.504
 4154W        W 7673   1.648   8.895   0.232
 4155W        W 7674   7.384   6.352  10.804
 4156W        W 7675   8.075   8.423  11.944
 4157W        W 7676   0.753   0.806   2.223
 4158W        W 7677   5.904   6.816   2.284
 4159W        W 7678   8.523   8.925   1.666
 4160W        W 7679   2.197   0.389   2.762
 4161W        W 7680   1.301   7.922   3.603
 4162W        W 7681   5.515   6.617   8.587
 4163W        W 7682   9.340   7.403  10.386
 4164W        W 7683   0.142   6.015  10.917
 4165W        W 7684   2.706   1.521   3.261
 4166W        W 7685   2.915   4.741   2.459
 4167W        W 7686   4.747   5.090   3.589
 4168W        W 7687   4.822   6.019   9.842
 4169W        W 7688   3.160   0.833  10.395
 4170W        W 7689   0.396   3.334   0.228
 4171W        W 7690   9.864   6.999  10.901
 4172W        W 7691   5.348   4.909   2.253
 4173W        W 7692   4.668   1.833  11.342
 4174W        W 7693   5.861   1.307   9.445
 4175W        W 7694   6.391   0.275  10.769
 4176W        W 7695   2.827   1.948   2.975
 4177W        W 7696   7.005   1.001   2.609
 4178W        W 7697   3.857   3.701  10.811
 4179W        W 7698   2.139   8.066   8.658
 4180W        W 7699   5.911   8.343   2.254
 4181W        W 7700   6.961   9.263   8.373
 4182W        W 7701   3.270   6.711   2.157
 4183W        W 7702   9.831   5.599  10.834
 4184W        W 7703   2.846   3.795  11.605
 4185W        W 7704   8.819   1.739  10.392
 4186W        W 7705   9.296   2.586  10.003
 4187W        W 7706   3.734   4.497   9.840
 4188W        W 7707   2.656   5.110   0.267
 4189W        W 7708   6.353   9.628   9.516
 4190W        W 7709   4.532   8.718  11.507
 4191W        W 7710   8.536   8.465   0.828
 4192W        W 7711   5.977   0.428  11.667
 4193W        W 7712   9.731   3.680  10.089
 4194W        W 7713   6.070   1.601   0.854
 4195W        W 7714   9.019   7.864   8.689
 4196W        W 7715   2.289   9.452  11.368
 4197W        W 7716   0.391   4.622   2.635
 4198W        W 7717   0.757   1.947   1.624
 4199W        W 7718   5.904   6.934  11.018
 4200W        W 7719   7.003   2.020  10.019
 4201W        W 7720   8.349   1.497   1.525
 4202W        W 7721   2.112   6.737   9.562
 4203W        W 7722   1.224   0.792   9.043
 4204W        W 7723   2.228   1.790   9.240
 4205W        W 7724   2.538   7.391   2.911
 4206W        W 7725   2.299   6.716   0.312
 4207W        W 7726   0.149   0.454   9.579
 4208W        W 7727   3.613   1.491   2.949
 4209W        W 7728   8.879   9.712   1.154
 4210W        W 7729   4.446   5.943  11.850
 4211W        W 7730   8.785   5.452   2.559
 4212W        W 7731   1.486   2.654   9.828
 4213W        W 7732   9.656   0.572   1.654
 4214W        W 7733   7.950   3.492   3.844
 4215W        W 7734   6.597   8.034   2.012
 4216W        W 7735   0.475   0.207   2.868
 4217W        W 7736   5.591   2.188   9.227
 4218W        W 7737   1.522   3.777   2.350
 4219W        W 7738   5.249   2.403   8.836
 4220W        W 7739   6.456   7.890  10.505
 4221W        W 7740   7.393   7.519  11.212
 4222W        W 7741   3.462   7.093   8.535
 4223W        W 7742   6.752   0.789  11.912
 4224W        W 7743   5.281   5.651  11.657
 4225W        W 7744   3.389   4.136   0.767
 4226W        W 7745   4.244   8.495  10.273
 4227W        W 7746   8.946   0.249  10.509
 4228W        W 7747   4.312   5.480   3.799
 4229W        W 7748   5.996   6.261   9.446
 4230W        W 7749   7.622   5.905   9.859
 4231W        W 7750   1.717   4.705   3.749
 4232W        W 7751   8.206   9.859   1.945
 4233W        W 7752   7.176   4.366   1.359
 4234W        W 7753   5.759   3.371   4.002
 4235W        W 7754   9.934   5.686   2.455
 4236W        W 7755   5.565   3.062  10.506
 4237W        W 7756   6.410   7.679  11.478
 4238W        W 7757   1.068   3.751   2.561
 4239W        W 7758   8.225   8.296  10.160
 4240W        W 7759   0.806   3.325   2.450
 4241W        W 7760   3.898   9.295   8.615
 4242W        W 7761   0.251   2.576   1.444
 4243W        W 7762   8.655   9.298   9.354
 4244W        W 7763   3.137   4.122   1.248
 4245W        W 7764   1.159   1.194   2.949
 4246W        W 7765   9.068   0.970  11.869
 4247W        W 7766   3.224   1.729   3.213
 4248W        W 7767   5.696   0.977   0.385
 4249W        W 7768   8.033   3.556  10.957
 4250W        W 7769   0.813   6.132   8.823
 4251W        W 7770   2.787   7.045   1.637
 4252W        W 7771   4.359   4.761   2.324
 4253W        W 7772   5.948   0.338   0.173
 4254W        W 7773   2.722   5.154   9.776
 4255W        W 7774   0.812   2.405   1.973
 4256W        W 7775   6.191   3.173   9.630
 4257W        W 7776   1.237   1.323  10.913
 4258W        W 7777   3.078   9.533   9.495
 4259W        W 7778   8.972   4.452   3.455
 4260W        W 7779   4.690   7.159  11.374
 4261W        W 7780   8.946   7.744   0.940
 4262W        W 7781   1.237   2.303   9.556
 4263W        W 7782   3.181   3.255   9.996
 4264W        W 7783   1.134   5.779  11.953
 4265W        W 7784   4.156   8.408   0.203
 4266W        W 7785   0.022   9.110   9.069
 4267W        W 7786   6.170   1.711   9.322
 4268W        W 7787   4.672   1.747   3.246
 4269W        W 7788   7.645   0.293  11.060
 4270W        W 7789   0.926   4.335  11.222
 4271W        W 7790   5.017   3.772   1.150
 4272W        W 7791   6.703   6.012   8.451
 4273W        W 7792   4.642   3.099   2.826
 4274W        W 7793   7.841   1.507   2.297
 4275W        W 7794   6.522   4.211   1.170
 4276W        W 7795   2.364   6.657  10.470
 4277W        W 7796   2.154   8.310   0.882
 4278W        W 7797   8.105   8.381   2.252
 4279W        W 7798   1.552   3.269   3.176
 4280W        W 7799   0.887   8.410   0.361
 4281W        W 7800   5.399   1.739   1.469
 4282W        W 7801   8.986   6.097  10.065
 4283W        W 7802   2.974   6.228  11.757
 4284W        W 7803   2.861   9.740  11.815
 4285W        W 7804   4.226   6.715   9.178
 4286W        W 7805   0.897   2.084   9.250
 4287W        W 7806   9.342   0.987   2.394
 4288W        W 7807   8.060   9.991   1.440
 4289W        W 7808   8.375   2.752  11.993
 4290W        W 7809   6.019   8.061   2.653
 4291W        W 7810   4.674   6.610   8.979
 4292W        W 7811   6.008   0.801   9.398
 4293W        W 7812   7.365   9.377  10.282
 4294W        W 7813   1.061   4.185   2.239
 4295W        W 7814   7.367   4.396   2.575
 4296W        W 7815   9.211   9.299   3.027
 4297W        W 7816   1.649   5.523   3.121
 4298W        W 7817   6.917   9.982  11.450
 4299W        W 7818   2.774   9.098  10.127
 4300W        W 7819   4.934   5.899   2.940
 4301W        W 7820   3.761   3.748   3.502
 4302W        W 7821   1.865   0.229   2.153
 4303W        W 7822   5.623   3.089   2.102
 4304W        W 7823   7.837   0.270   9.521
 4305W        W 7824   9.293   1.640   8.917
 4306W        W 7825   1.818   5.205  10.296
 4307W        W 7826   5.233   7.369   8.940
 4308W        W 7827   9.757   7.514   1.550
 4309W        W 7828   3.972   7.419   2.874
 4310W        W 7829   5.495   4.745   9.955
 4311W        W 7830   3.957   0.836   2.219
 4312W        W 7831   7.072   3.985   8.482
 4313W        W 7832   9.977   5.956   9.963
 4314W        W 7833   4.989   9.130   8.626
 4315W        W 7834   3.245   1.671   9.518
 4316W        W 7835   6.780   2.382   0.437
 4317W        W 7836   9.623   9.628   3.112
 4318W        W 7837   5.608   0.883   1.261
 4319W        W 7838   3.469   6.563   1.270
 4320W        W 7839   4.680   0.407   0.803
 4321W        W 7840   1.885   0.522   1.742
 4322W        W 7841   0.752   5.509   8.428
 4323W        W 7842   5.937   7.641  11.623
 4324W        W 7843   1.934   6.930   1.787
 4325W        W 7844   3.688   0.020   3.244
 4326W        W 7845   8.491   6.020  10.243
 4327W        W 7846   9.050   0.264   9.993
 4328W        W 7847   1.723   2.769   0.601
 4329W        W 7848   7.064   7.478   0.243
 4330W        W 7849   4.993   4.013   7.985
 4331W        W 7850   1.394   7.971   2.263
 4332W        W 7851   5.142   6.454   1.673
 4333W        W 7852   9.221   1.770   1.546
 4334W        W 7853   8.458   5.731   9.340
 4335W        W 7854   8.509   4.111  11.321
 4336W        W 7855   2.613   5.588  10.033
 4337W        W 7856   6.539   0.788  11.065
 4338W        W 7857   2.253   9.858   9.068
 4339W        W 7858   6.621   4.165  10.647
 4340W        W 7859   4.723   3.888   2.384
 4341W        W 7860   2.495   1.477   0.136
 4342W        W 7861   0.091   9.488   2.247
 4343W        W 7862   0.550   5.444   0.797
 4344W        W 7863   2.826   0.464   3.508
 4345W        W 7864   8.418   1.568   0.061
 4346W        W 7865   0.329   3.258  10.744
 4347W        W 7866   2.188   4.369   3.687
 4348W        W 7867   9.419   8.845  11.651
 4349W        W 7868   5.455   2.519  10.380
 4350W        W 7869   7.963   0.404   0.309
 4351W        W 7870   2.431   9.555   3.175
 4352W        W 7871   3.737   2.968   9.374
 4353W        W 7872   8.125   9.596  10.720
 4354W        W 7873   9.926   5.744  11.319
 4355W        W 7874   6.893   5.749  11.890
 4356W        W 7875   7.766   4.713  10.317
 4357W        W 7876   1.006   0.194   3.515
 4358W        W 7877   6.622   3.529  11.920
 4359W        W 7878   6.948   5.463  10.378
 4360W        W 7879   8.053   4.693   8.653
 4361W        W 7880   9.914   8.933  11.810
 4362W        W 7881   4.370   1.031   1.937
 4363W        W 7882   3.301   9.728   1.737
 4364W        W 7883   3.327   8.799  10.193
 4365W        W 7884   6.087   3.314   1.901
 4366W        W 7885   7.666   7.272   8.887
 4367W        W 7886   4.312   2.576   0.932
 4368W        W 7887   9.554   3.280   3.300
 4369W        W 7888   7.713   9.554   9.072
 4370W        W 7889   2.131   4.062   3.267
 4371W        W 7890   4.140   4.711   1.307
 4372W        W 7891   6.040   5.640   8.539
 4373W        W 7892   0.707   4.869   3.429
 4374W        W 7893   7.029   4.490   8.347
 4375W        W 7894   0.413   1.118   1.514
 4376W        W 7895   9.746   3.763  10.594
 4377W        W 7896   7.428   7.061   1.282
 4378W        W 7897   3.340   4.680  11.143
 4379W        W 7898   5.465   0.372   1.202
 4380W        W 7899   2.441   4.702  10.708
 4381W        W 7900   4.654   6.678   0.218
 4382W        W 7901   9.500   6.359   2.181
 4383W        W 7902   8.099   0.351  11.346
 4384W        W 7903   7.845   7.976  11.864
 4385W        W 7904   6.597   2.530  11.766
 4386W        W 7905   9.314   7.935   3.326
 4387W        W 7906   9.324   4.697   9.483
 4388W        W 7907   4.710   4.809   0.440
 4389W        W 7908   3.003   5.180   4.098
 4390W        W 7909   2.418   3.077   3.251
 4391W        W 7910   4.416   6.561   1.017
 4392W        W 7911   4.246   1.578   3.471
 4393W        W 7912   7.179   3.769   2.278
 4394W        W 7913   0.029   5.061  10.199
 4395W        W 7914   8.506   7.593   9.361
 4396W        W 7915   5.076   0.769   9.501
 4397W        W 7916   3.618   4.226  11.780
 4398W        W 7917   9.502   4.203   3.412
 4399W        W 7918   2.750   7.216  11.767
 4400W        W 7919   3.251   3.777   8.814
 4401W        W 7920   2.842   3.918   2.226
 4402W        W 7921   1.740   1.249  10.942
 4403W        W 7922   3.088   0.563   0.875
 4404W        W 7923   8.475   1.852  10.766
 4405W        W 7924   0.379   4.531  11.935
 4406W        W 7925   3.046   6.316   1.430
 4407W        W 7926   6.691   0.838   9.106
 4408W        W 7927   8.476   6.229   9.754
 4409W        W 7928   6.120   7.138  10.067
 4410W        W 7929   5.609   5.835   2.350
 4411W        W 7930   5.294   2.995   0.974
 4412W        W 7931   7.863   8.962  11.333
 4413W        W 7932   0.354   8.422   2.121
 4414W        W 7933   0.956   5.504   0.401
 4415W        W 7934   7.592   0.727   9.426
 4416W        W 7935   8.215   3.210   3.134
 4417W        W 7936   0.899   7.029   2.274
 4418W        W 7937   0.333   8.159  11.285
 4419W        W 7938   7.407   3.957   3.280
 4420W        W 7939   8.059   6.866  10.457
 4421W        W 7940   9.779   0.731   1.016
 4422W        W 7941   8.559   6.619   1.869
 4423W        W 7942   8.598   9.742  10.607
 4424W        W 7943   0.363   9.222  11.828
 4425W        W 7944   6.586   6.101   2.748
 4426W        W 7945   3.183   3.281   9.046
 4427W        W 7946   9.071   4.535   2.417
 4428W        W 7947   3.996   4.159   1.780
 4429W        W 7948   2.582   7.348   8.463
 4430W        W 7949   6.430   2.495  10.046
 4431W        W 7950   9.345   0.545   2.078
 4432W        W 7951   4.648   0.705  11.720
 4433W        W 7952   0.846   6.165  11.347
 4434W        W 7953   1.387   3.543  10.105
 4435W        W 7954   6.376   1.368   9.731
 4436W        W 7955   6.476   5.263  10.918
 4437W        W 7956   3.004   7.970   8.540
 4438W        W 7957   7.588   9.382  11.260
 4439W        W 7958   9.408   6.542  11.860
 4440W        W 7959   8.201   6.385   2.153
 4441W        W 7960   7.014   8.322   3.146
 4442W        W 7961   8.225   9.440   3.217
 4443W        W 7962   8.063   6.995   9.378
 4444W        W 7963   4.637   9.975   1.593
 4445W        W 7964   9.782   0.320  10.987
 4446W        W 7965   5.645   6.460   3.699
 4447W        W 7966   5.430   0.555   3.486
 4448W        W 7967   4.605   7.174   0.245
 4449W        W 7968   7.786   1.176   9.640
 4450W        W 7969   4.862   1.318   1.882
 4451W        W 7970   5.458   1.471   8.730
 4452W        W 7971   4.048   5.175   1.046
 4453W        W 7972   9.251   8.784   2.821
 4454W        W 7973   8.089   9.708   0.107
 4455W        W 7974   6.757   7.556  10.751
 4456W        W 7975   2.413   9.487   1.227
 4457W        W 7976   7.434   0.379   0.593
 4458W        W 7977   5.984   2.816   3.201
 4459W        W 7978   8.607   6.581   2.380
 4460W        W 7979   3.967   6.800  11.582
 4461W        W 7980   6.597   0.868   0.392
 4462W        W 7981   3.106   5.148  10.383
 4463W        W 7982   7.354   9.150   3.341
 4464W        W 7983   4.535   5.834  10.986
 4465W        W 7984   4.247   8.113   2.296
 4466W        W 7985   3.068   9.740   3.582
 4467W        W 7986   4.065   7.139  11.963
 4468W        W 7987   0.837   0.639   9.527
 4469W        W 7988   2.558   9.107   2.905
 4470W        W 7989   4.491   7.389  11.802
 4471W        W 7990   7.408   2.822  10.092
 4472W        W 7991   5.216   2.781   2.180
 4473W        W 7992   2.774   9.962   9.983
 4474W        W 7993   8.510   9.773   1.543
 4475W        W 7994   0.946   9.766   3.229
 4476W        W 7995   2.365   9.632  11.850
 4477W        W 7996   1.775   9.702   9.712
 4478W        W 7997   4.532   9.326   1.835
 4479W        W 7998   5.656   4.837  10.867
 4480W        W 7999   2.387   1.199  11.702
 4481W        W 8000   4.744   2.868   2.350
 4482W        W 8001   8.671   6.112   1.999
 4483W        W 8002   0.900   5.173   0.023
 4484W        W 8003   9.040   8.579   9.015
 4485W        W 8004   4.480   2.426   2.317
 4486W        W 8005   2.415   6.922   8.720
 4487W        W 8006   3.980   7.128   9.020
 4488W        W 8007   1.769   0.362   0.349
 4489W        W 8008   3.590   9.813   9.419
 4490W        W 8009   5.162   3.649   2.219
 4491W        W 8010   9.348   4.694   1.416
 4492W        W 8011   6.958   7.785   9.800
 4493W        W 8012   3.723   6.983   2.952
 4494W        W 8013   5.744   3.622   0.756
 4495W        W 8014   4.152   6.373   8.237
 4496W        W 8015   6.070   8.637  11.895
 4497W        W 8016   0.191   9.667   1.257
 4498W        W 8017   7.199   7.328   8.685
 4499W        W 8018   0.482   8.393   0.040
 4500W        W 8019   8.959   3.077   2.168
 4501W        W 8020   2.175   7.838   9.673
 4502W        W 8021   9.163   1.781   2.075
 4503W        W 8022   9.345   4.969   2.297
 4504W        W 8023   9.859   5.616  10.328
 4505W        W 8024   2.416   0.744   3.035
 4506W        W 8025   5.510   6.651  10.813
 4507W        W 8026   7.983   7.559   8.618
 4508W        W 8027   1.818   2.708  11.184
 4509W        W 8028   6.275   3.662   2.239
 4510W        W 8029   1.621   7.954   0.599
 4511W        W 8030   6.049   4.756   2.628
 4512W        W 8031   5.997   2.339   1.361
 4513W        W 8032   2.179   1.989   0.848
 4514W        W 8033   6.188   5.229   8.835
 4515W        W 8034   6.834   6.072   9.738
 4516W        W 8035   4.707   2.673  10.895
 4517W        W 8036   8.369   2.930   0.887
 4518W        W 8037   3.032   7.988   9.085
 4519W        W 8038   9.390   7.207   9.774
 4520W        W 8039   8.579   4.559  10.587
 4521W        W 8040   5.989   6.534  10.614
 4522W        W 8041   1.718   7.982   9.977
 4523W        W 8042   4.619   4.066   1.081
 4524W        W 8043   5.923   1.538   9.909
 4525W        W 8044   8.984   2.294   0.008
 4526W        W 8045   9.345   4.875   9.983
 4527W        W 8046   2.538   6.573   0.827
 4528W        W 8047   3.073   0.106   1.493
 4529W        W 8048   4.199   0.565   1.835
 4530W        W 8049   9.160   9.773   0.224
 4531W        W 8050   2.319   4.020   9.517
 4532W        W 8051   6.646   2.212   9.654
 4533W        W 8052   8.449   2.370   0.931
 4534W        W 8053   0.266   2.338  10.978
 4535W        W 8054   0.514   8.846   1.408
 4536W        W 8055   6.756   8.463   2.723
 4537W        W 8056   8.472   3.350   9.519
 4538W        W 8057   6.705   2.861  11.407
 4539W        W 8058   2.911   7.545   9.322
 4540W        W 8059   9.739   9.032   2.501
 4541W        W 8060   4.398   7.202   9.310
 4542W        W 8061   8.066   9.775   9.398
 4543W        W 8062   3.735   7.272   9.454
 4544W        W 8063   6.456   5.404   1.104
 4545W        W 8064   5.899   3.943   0.290
 4546W        W 8065   9.513   0.876   0.117
 4547W        W 8066   8.431   8.821   2.149
 4548W        W 8067   4.160   9.271   1.491
 4549W        W 8068   9.693   8.153   0.356
 4550W        W 8069   2.130   0.885   2.617
 4551W        W 8070   9.988   6.875   1.038
 4552W        W 8071   6.072   0.469   1.997
 4553W        W 8072   6.290   9.426   8.626
 4554W        W 8073   0.016   4.172   9.291
 4555W        W 8074   0.417   6.185   0.204
 4556W        W 8075   6.170   7.434   3.088
 4557W        W 8076   0.533   1.334   8.671
 4558W        W 8077   3.117   5.636  10.196
 4559W        W 8078   5.527   2.114   3.090
 4560W        W 8079   2.058   9.133   1.104
 4561W        W 8080   0.321   8.261  10.772
 4562W        W 8081   3.370   8.063   1.899
 4563W        W 8082   0.807   0.569   2.668
 4564W        W 8083   4.286   6.500   0.534
 4565W        W 8084   0.696   1.296   3.157
 4566W        W 8085   0.571   0.665   1.672
 4567W        W 8086   7.376   2.739   3.031
 4568W        W 8087   3.434   1.599   3.656
 4569W        W 8088   7.941   2.839  11.694
 4570W        W 8089   7.331   4.393  11.394
 4571W        W 8090   4.256   0.428  11.447
 4572W        W 8091   0.081   2.828   2.636
 4573W        W 8092   3.400   9.930   0.701
 4574W        W 8093   0.033   7.577   0.068
 4575W        W 8094   5.351   6.157   2.058
 4576W        W 8095   3.117   7.216   3.471
 4577W        W 8096   7.143   5.749   1.063
 4578W        W 8097   3.325   5.968  11.035
 4579W        W 8098   4.642   0.293   1.986
 4580W        W 8099   7.596   6.590   0.115
 4581W        W 8100   6.823   0.677   1.751
 4582W        W 8101   2.731   4.922   2.011
 4583W        W 8102   8.299   4.140   9.289
 4584W        W 8103   3.769   0.588   9.824
 4585W        W 8104   3.367   5.086   2.829
 4586W        W 8105   7.022   4.347   8.844
 4587W        W 8106   5.798   6.920   9.301
 4588W        W 8107   5.021   0.365   9.161
 4589W        W 8108   9.941   5.443   1.450
 4590W        W 8109   4.723   8.011   2.375
 4591W        W 8110   6.454   8.915   0.709
 4592W        W 8111   1.973   9.503   8.466
 4593W        W 8112   9.692   0.433   8.337
 4594W        W 8113   3.196   2.891  10.700
 4595W        W 8114   4.464   3.066   1.233
 4596W        W 8115   2.732   4.574   8.981
 4597W        W 8116   2.729   4.212  11.347
 4598W        W 8117   8.855   0.518   0.016
 4599W        W 8118   8.111   4.806   1.154
 4600W        W 8119   1.989   8.883  10.268
 4601W        W 8120   9.757   9.817   1.503
 4602W        W 8121   0.387   6.144   2.182
 4603W        W 8122   0.528   2.119  10.574
 4604W        W 8123   4.505   4.197   3.172
 4605W        W 8124   8.388   7.058   1.498
 4606W        W 8125   4.082   2.279   1.321
 4607W        W 8126   7.587   0.179   3.362
 4608W        W 8127   6.029   2.063   0.022
 4609W        W 8128   3.394   8.742   2.985
 4610W        W 8129   3.696   9.860  10.908
 4611W        W 8130   3.636   6.870  10.669
 4612W        W 8131   7.090   6.505  11.439
 4613W        W 8132   9.049   5.176   0.698
 4614W        W 8133   5.232   7.606  11.183
 4615W        W 8134   1.398   4.506  11.283
 4616W        W 8135   3.718   6.381  11.451
 4617W        W 8136   3.891   5.856   3.729
 4618W        W 8137   6.272   0.900   3.623
 4619W        W 8138   5.698   2.725   0.752
 4620W        W 8139   1.968   1.276  11.411
 4621W        W 8140   3.302   8.529   0.019
 4622W        W 8141   9.506   4.221   9.404
 4623W        W 8142   0.041   5.690   1.899
 4624W        W 8143   2.474   3.366  11.112
 4625W        W 8144   6.892   5.067  10.723
 4626W        W 8145   2.310   7.203   1.572
 4627W        W 8146   4.604   9.143   8.978
 4628W        W 8147   0.428   7.587   9.679
 4629W        W 8148   9.577   6.382  10.150
 4630W        W 8149   6.823   0.250   9.034
 4631W        W 8150   1.680   4.603   3.235
 4632W        W 8151   0.155   6.574   3.533
 4633W        W 8152   5.919   2.474   0.293
 4634W        W 8153   9.551   8.002   1.485
 4635W        W 8154   3.697   2.828  10.780
 4636W        W 8155   4.260   6.167  10.657
 4637W        W 8156   6.837   3.874   8.923
 4638W        W 8157   0.944   7.964   2.587
 4639W        W 8158   1.867   4.139   2.469
 4640W        W 8159   5.972   1.169  11.788
 4641W        W 8160   6.464   3.494  10.028
 4642W        W 8161   3.290   6.558   3.602
 4643W        W 8162   7.554   4.139   1.113
 4644W        W 8163   0.762   6.621   2.654
 4645W        W 8164   8.582   8.388   2.427
 4646W        W 8165   5.774   7.462  11.174
 4647W        W 8166   5.645   9.535   0.652
 4648W        W 8167   0.031   4.919   0.183
 4649W        W 8168   7.913   6.904   0.334
 4650W        W 8169   1.062   1.300   8.672
 4651W        W 8170   3.246   1.694  11.613
 4652W        W 8171   6.530   8.828  10.969
 4653W        W 8172   8.533   4.484   0.949
 4654W        W 8173   3.225   3.337   8.531
 4655W        W 8174   2.072   6.608   2.192
 4656W        W 8175   8.111   2.369  11.476
 4657W        W 8176   5.534   6.749   1.523
 4658W        W 8177   3.203   2.312  10.050
 4659W        W 8178   0.166   0.637   1.971
 4660W        W 8179   5.197   8.116  11.059
 4661W        W 8180   1.837   6.088   9.919
 4662W        W 8181   7.828   9.905  10.386
 4663W        W 8182   6.490   4.869   9.887
 4664W        W 8183   0.877   6.487   0.487
 4665W        W 8184   2.040   7.639   1.500
 4666W        W 8185   4.208   6.261   3.503
 4667W        W 8186   5.922   6.892   3.567
 4668W        W 8187   9.691   6.662  11.283
 4669W        W 8188   6.515   3.105   9.246
 4670W        W 8189   2.009   3.652   2.306
 4671W        W 8190   7.037   0.316   2.275
 4672W        W 8191   4.759   9.896  11.570
 4673W        W 8192   4.476   6.878  11.775
 4674W        W 8193   4.796   7.434  10.930
 4675W        W 8194   0.407   1.949   2.377
 4676W        W 8195   7.451   4.232   2.115
 4677W        W 8196   0.421   6.375  10.621
 4678W        W 8197   9.017   8.155  11.288
 4679W        W 8198   3.865   8.983  10.995
 4680W        W 8199   1.843   4.052   9.288
 4681W        W 8200   0.835   4.037   0.679
 4682W        W 8201   9.223   8.903  10.646
 4683W        W 8202   0.204   7.608   2.355
 4684W        W 8203   0.711   2.966   2.797
 4685W        W 8204   7.628   9.535   3.575
 4686W        W 8205   4.799   2.746   1.833
 4687W        W 8206   8.190   4.895  10.543
 4688W        W 8207   0.370   2.162   1.856
 4689W        W 8208   3.088   6.117   8.973
 4690W        W 8209   4.001   3.763   0.367
 4691W        W 8210   4.017   7.090   8.492
 4692W        W 8211   5.098   9.447   9.595
 4693W        W 8212   0.659   2.585  11.864
 4694W        W 8213   6.080   7.801   0.111
 4695W        W 8214   4.198   4.019   8.835
 4696W        W 8215   0.468   2.001   3.389
 4697W        W 8216   3.351   9.811  11.791
 4698W        W 8217   2.875   5.176   2.708
 4699W        W 8218   3.048   1.252   9.331
 4700W        W 8219   8.909   7.147  10.966
 4701W        W 8220   8.413   0.272   1.750
 4702W        W 8221   4.631   2.468   9.570
 4703W        W 8222   9.392   9.091   2.029
 4704W        W 8223   5.547   2.856   9.997
 4705W        W 8224   9.585   8.218   2.517
 4706W        W 8225   8.963   9.312   1.872
 4707W        W 8226   8.788   1.167   1.416
 4708W        W 8227   9.068   3.140   3.339
 4709W        W 8228   7.539   6.431   2.875
 4710W        W 8229   4.506   9.568  11.269
 4711W        W 8230   9.744   0.422   0.011
 4712W        W 8231   4.708   4.385   2.301
 4713W        W 8232   6.856   3.636   0.386
 4714W        W 8233   4.146   4.670   3.155
 4715W        W 8234   4.667   5.704   1.139
 4716W        W 8235   7.596   7.982   0.954
 4717W        W 8236   7.057   8.873   2.870
 4718W        W 8237   5.866   0.313  10.809
 4719W        W 8238   1.789   0.109   0.810
 4720W        W 8239   3.381   1.504   0.666
 4721W        W 8240   4.031   7.620  11.810
 4722W        W 8241   3.933   8.949   9.359
 4723W        W 8242   2.618   1.651  10.150
 4724W        W 8243   6.232   8.615   9.566
 4725W        W 8244   0.973   3.683  11.029
 4726W        W 8245   1.890   7.471  10.778
 4727W        W 8246   7.929   8.187   3.159
 4728W        W 8247   7.925   1.021   8.855
 4729W        W 8248   8.479   5.907   8.826
 4730W        W 8249   3.406   1.203  11.787
 4731W        W 8250   6.959   1.114   3.544
 4732W        W 8251   6.692   0.710   2.301
 4733W        W 8252   0.973   2.128   3.388
 4734W        W 8253   4.077   4.800  10.580
 4735W        W 8254   8.058   4.900   1.664
 4736W        W 8255   5.478   0.623   9.219
 4737W        W 8256   7.907   0.270   2.033
 4738W        W 8257   2.117   5.119   8.583
 4739W        W 8258   0.740   8.894  11.956
 4740W        W 8259   1.014   5.014  11.108
 4741W        W 8260   3.977   9.366   0.584
 4742W        W 8261   7.109   6.038   0.243
 4743W        W 8262   4.775   9.858   0.099
 4744W        W 8263   3.241   9.889  11.300
 4745W        W 8264   3.323   4.581  11.991
 4746W        W 8265   5.066   2.373   3.059
 4747W        W 8266   6.174   1.899   2.137
 4748W        W 8267   9.991   4.132   3.132
 4749W        W 8268   1.404   7.424   3.428
 4750W        W 8269   9.892   2.028   0.500
 4751W        W 8270   8.077   8.206   0.914
 4752W        W 8271   9.960   3.134  11.431
 4753W        W 8272   4.954   3.187   8.535
 4754W        W 8273   8.312   0.097   3.447
 4755W        W 8274   5.525   3.895   8.813
 4756W        W 8275   0.836   1.707   0.263
 4757W        W 8276   9.454   0.877   0.620
 4758W        W 8277   3.764   6.536   0.422
 4759W        W 8278   4.909   5.602  10.176
 4760W        W 8279   8.463   5.979  11.264
 4761W        W 8280   4.996   4.767  10.187
 4762W        W 8281   9.971   0.240  10.000
 4763W        W 8282   1.298   5.502   1.323
 4764W        W 8283   8.802   7.297   1.256
 4765W        W 8284   1.883   9.358   0.123
 4766W        W 8285   4.813   0.019   2.770
 4767W        W 8286   6.404   2.661   0.210
 4768W        W 8287   0.850   9.070   1.702
 4769W        W 8288   6.300   2.221   0.488
 4770W        W 8289   2.043   9.915   1.249
 4771W        W 8290   9.928   2.157  11.993
 4772W        W 8291   6.656   0.193   2.620
 4773W        W 8292   7.631   5.146   1.545
 4774W        W 8293   1.653   1.159   0.743
 4775W        W 8294   0.982   9.296  11.653
 4776W        W 8295   9.477   5.861  10.090
 4777W        W 8296   1.741   0.648   0.841
 4778W        W 8297   7.047   8.208   3.685
 4779W        W 8298   0.769   3.707   9.331
 4780W        W 8299   5.056   3.436  10.023
 4781W        W 8300   8.498   7.526   3.298
 4782W        W 8301   8.722   0.199   1.359
 4783W        W 8302   5.958   2.302   1.862
 4784W        W 8303   7.243   9.449   2.322
 4785W        W 8304   4.060   6.689   2.304
 4786W        W 8305   0.265   0.930   2.461
 4787W        W 8306   3.137   2.352   0.322
 4788W        W 8307   0.660   3.777   9.827
 4789W        W 8308   6.009   4.612   0.843
 4790W        W 8309   6.798   9.457   1.385
 4791W        W 8310   3.472   7.401   3.143
 4792W        W 8311   8.518   4.845  11.860
 4793W        W 8312   4.075   6.525  10.064
 4794W        W 8313   2.001   2.822   3.481
 4795W        W 8314   0.845   0.480  10.328
 4796W        W 8315   2.287   1.935   2.078
 4797W        W 8316   7.583   3.354  10.068
 4798W        W 8317   8.495   4.109  10.800
 4799W        W 8318   9.892   7.229   2.453
 4800W        W 8319   8.492   8.968   0.672
 4801W        W 8320   7.658   8.988  10.006
 4802W        W 8321   8.505   0.763   2.195
 4803W        W 8322   1.205   1.955   2.553
 4804W        W 8323   9.006   3.606  11.442
 4805W        W 8324   9.881   4.560   1.722
 4806W        W 8325   2.087   4.642   4.111
 4807W        W 8326   0.492   1.642   1.943
 4808W        W 8327   9.070   2.588   1.510
 4809W        W 8328   8.768   1.923   0.794
 4810W        W 8329   6.586   6.301   8.032
 4811W        W 8330   4.708   0.826   0.204
 4812W        W 8331   5.916   0.871  10.882
 4813W        W 8332   3.922   7.959   1.098
 4814W        W 8333   1.636   1.659   0.612
 4815W        W 8334   5.913   7.933   8.889
 4816W        W 8335   0.692   1.067   2.701
 4817W        W 8336   8.986   0.623   0.708
 4818W        W 8337   0.362   9.486   3.590
 4819W        W 8338   6.312   1.201   9.239
 4820W        W 8339   2.524   6.406   2.133
 4821W        W 8340   8.529   4.239   9.756
 4822W        W 8341   2.791   2.411   2.700
 4823W        W 8342   5.238   9.074   3.496
 4824W        W 8343   1.643   6.620   9.229
 4825W        W 8344   5.172   1.580   0.922
 4826W        W 8345   8.419   6.223   9.240
 4827W        W 8346   0.303   3.141   9.122
 4828W        W 8347   7.418   9.956   2.282
 4829W        W 8348   4.887   0.168  10.939
 4830W        W 8349   4.015   7.597   0.732
 4831W        W 8350   5.673   1.965   8.775
 4832W        W 8351   3.575   2.154   1.300
 4833W        W 8352   8.065   6.719   0.801
 4834W        W 8353   5.782   1.934   9.627
 4835W        W 8354   3.671   1.035   9.624
 4836W        W 8355   4.783   8.896  11.929
 4837W        W 8356   3.189   3.358   0.527
 4838W        W 8357   4.758   4.443   1.746
 4839W        W 8358   2.898   4.736   9.978
 4840W        W 8359   5.673   8.820  10.554
 4841W        W 8360   4.925   4.881   1.577
 4842W        W 8361   9.574   1.249   9.112
 4843W        W 8362   2.287   9.466   2.620
 4844W        W 8363   9.361   2.772   8.991
 4845W        W 8364   6.448   3.831  11.518
 4846W        W 8365   9.288   7.696   1.827
 4847W        W 8366   7.473   8.620   3.212
 4848W        W 8367   8.975   2.309   0.517
 4849W        W 8368   6.135   6.211  11.529
 4850W        W 8369   0.687   7.791   1.017
 4851W        W 8370   0.347   7.121   0.249
 4852W        W 8371   6.436   2.027  11.553
 4853W        W 8372   1.254   0.972   1.005
 4854W        W 8373   8.954   0.358   1.802
 4855W        W 8374   5.313   2.914   8.246
 4856W        W 8375   9.353   6.012   8.725
 4857W        W 8376   9.547   8.989   1.549
 4858W        W 8377   1.368   8.789   8.997
 4859W        W 8378   8.034   3.670  11.452
 4860W        W 8379   3.396   5.998  11.574
 4861W        W 8380   3.577   5.504   2.267
 4862W        W 8381   1.018   7.466  11.178
 4863W        W 8382   4.424   9.109   0.650
 4864W        W 8383   0.680   0.001  11.209
 4865W        W 8384   1.637   6.765  11.480
 4866W        W 8385   1.786   0.343   1.260
 4867W        W 8386   3.980   6.781  11.054
 4868W        W 8387   2.284   9.170   9.906
 4869W        W 8388   7.067   7.169  10.965
 4870W        W 8389   1.372   5.821   0.392
 4871W        W 8390   8.182   6.498   2.740
 4872W        W 8391   7.067   2.377  10.368
 4873W        W 8392   1.202   1.710   3.043
 4874W        W 8393   4.028   2.864   1.449
 4875W        W 8394   2.807   2.064  10.373
 4876W        W 8395   2.715   7.282   2.415
 4877W        W 8396   2.807   9.931   3.169
 4878W        W 8397   3.459   1.217   2.147
 4879W        W 8398   5.036   5.281  11.391
 4880W        W 8399   4.968   6.557   1.135
 4881W        W 8400   8.587   9.692   3.579
 4882W        W 8401   0.439   8.938   3.376
 4883W        W 8402   1.676   8.459  10.203
 4884W        W 8403   8.088   1.143  11.920
 4885W        W 8404   0.143   5.292   2.197
 4886W        W 8405   3.716   2.279   9.954
 4887W        W 8406   7.593   4.382  10.963
 4888W        W 8407   6.559   0.509   0.770
 4889W        W 8408   4.052   9.481  11.034
 4890W        W 8409   8.418   2.180   0.232
 4891W        W 8410   4.653   0.945  11.271
 4892W        W 8411   7.711   1.848   9.028
 4893W        W 8412   5.401   6.034   2.784
 4894W        W 8413   5.812   4.320  10.040
 4895W        W 8414   4.396   6.692  11.326
 4896W        W 8415   9.961   7.336   0.561
 4897W        W 8416   6.448   0.364   0.277
 4898W        W 8417   8.986   9.419   9.727
 4899W        W 8418   5.585   1.479  11.627
 4900W        W 8419   9.963   4.401   3.553
 4901W        W 8420   6.994   5.606   3.600
 4902W        W 8421   5.124   2.569  11.728
 4903W        W 8422   1.407   5.519   1.839
 4904W        W 8423   6.928   6.147  11.077
 4905W        W 8424   2.249   4.881   0.512
 4906W        W 8425   5.211   3.784   9.653
 4907W        W 8426   9.794   8.967  10.323
 4908W        W 8427   6.572   6.521  11.497
 4909W        W 8428   2.870   0.247   8.848
 4910W        W 8429   1.838   4.256   0.039
 4911W        W 8430   0.979   0.583  11.197
 4912W        W 8431   3.006   2.669   9.674
 4913W        W 8432   6.882   3.398   1.285
 4914W        W 8433   7.241   8.532  10.332
 4915W        W 8434   8.420   1.951   9.748
 4916W        W 8435   7.324   7.600   9.093
 4917W        W 8436   1.284   8.073   9.703
 4918W        W 8437   1.382   5.051   9.987
 4919W        W 8438   2.181   1.279   9.005
 4920W        W 8439   0.187   2.741   0.952
 4921W        W 8440   0.200   8.033   3.269
 4922W        W 8441   2.004   5.525   3.514
 4923W        W 8442   3.417   9.057  11.242
 4924W        W 8443   9.064   5.581   9.957
 4925W        W 8444   0.921   9.363   2.892
 4926W        W 8445   5.139   6.485   9.144
 4927W        W 8446   9.938   8.570   2.377
 4928W        W 8447   4.381   7.341   3.610
 4929W        W 8448   2.782   8.196   0.675
 4930W        W 8449   5.633   7.658   3.315
 4931W        W 8450   0.745   8.523   3.223
 4932W        W 8451   4.776   1.352   2.456
 4933W        W 8452   3.758   5.085   2.482
 4934W        W 8453   8.983   8.790   0.544
 4935W        W 8454   2.889   5.525   0.433
 4936W        W 8455   8.469   9.419   1.905
 4937W        W 8456   3.723   7.201   0.890
 4938W        W 8457   7.667   8.436   0.677
 4939W        W 8458   4.218   8.088  11.803
 4940W        W 8459   0.464   2.204   8.977
 4941W        W 8460   5.143   6.086   9.465
 4942W        W 8461   1.146   7.444   1.996
 4943W        W 8462   4.112   9.896   9.183
 4944W        W 8463   0.418   6.675   3.081
 4945W        W 8464   7.998   6.109  11.372
 4946W        W 8465   3.522   5.128  11.343
 4947W        W 8466   3.855   0.962   1.745
 4948W        W 8467   8.449   2.542   2.890
 4949W        W 8468   6.323   8.369   2.990
 4950W        W 8469   4.007   8.465   2.546
 4951W        W 8470   2.186   8.655   1.277
 4952W        W 8471   5.650   5.123   2.614
 4953W        W 8472   7.057   7.360   2.017
 4954W        W 8473   1.473   3.311   0.563
 4955W        W 8474   8.474   1.105  11.215
 4956W        W 8475   9.072   3.505   2.429
 4957W        W 8476   9.551   9.513   0.433
 4958W        W 8477   6.615   2.676   2.287
 4959W        W 8478   9.887   8.467   1.867
 4960W        W 8479   4.601   9.767   3.510
 4961W        W 8480   4.656   1.941   2.227
 4962W        W 8481   6.122   7.880   2.162
 4963W        W 8482   3.045   4.278  10.079
 4964W        W 8483   4.650   6.284   8.593
 4965W        W 8484   1.389   5.358  10.550
 4966W        W 8485   1.300   9.768   9.030
 4967W        W 8486   7.155   2.076   9.543
 4968W        W 8487   2.001   5.626  10.064
 4969W        W 8488   4.105   5.582  10.914
 4970W        W 8489   5.361   3.419   1.288
 4971W        W 8490   3.686   8.546   0.383
 4972W        W 8491   7.821   2.157   1.746
 4973W        W 8492   2.357   3.310  10.617
 4974W        W 8493   4.113   3.348   3.489
 4975W        W 8494   2.747   3.812   1.362
 4976W        W 8495   5.096   8.235   2.952
 4977W        W 8496   8.959   2.727  11.684
 4978W        W 8497   6.118   8.956   2.210
 4979W        W 8498   3.253   5.130  10.907
 4980W        W 8499   8.811   4.943   2.647
 4981W        W 8500   5.791   5.444  11.468
 4982W        W 8501   0.782   3.771   2.137
 4983W        W 8502   9.724   1.920  10.263
 4984W        W 8503   6.581   6.532   9.555
 4985W        W 8504   6.346   0.242  10.242
 4986W        W 8505   1.705   7.918   9.464
 4987W        W 8506   1.630   0.270  11.872
 4988W        W 8507   8.971   6.874   9.948
 4989W        W 8508   8.983   8.268  11.858
 4990W        W 8509   3.812   1.146   2.586
 4991W        W 8510   7.435   6.144   4.164
 4992W        W 8511   5.233   4.148   0.813
 4993W        W 8512   0.471   9.630   3.079
 4994W        W 8513   8.669   9.968  10.132
 4995W        W 8514   6.435   7.096   1.243
 4996W        W 8515   1.751   7.565   0.287
 4997W        W 8516   6.271   1.904   9.779
 4998W        W 8517   7.128   2.317   0.083
 4999W        W 8518   0.907   3.405  11.459
 5000W        W 8519   1.398   9.843   3.457
 5001W        W 8520   1.727   5.936   1.787
 5002W        W 8521   1.701   1.760   0.080
 5003W        W 8522   7.611   6.803   1.673
 5004W        W 8523   7.117   0.748  10.293
 5005W        W 8524   8.186   5.866   2.057
 5006W        W 8525   9.813   7.193  10.345
 5007W        W 8526   9.718   6.180   1.095
 5008W        W 8527   6.092   5.187   2.901
 5009W        W 8528   3.777   6.678   1.746
 5010W        W 8529   8.350   3.170  10.436
 5011W        W 8530   5.818   4.465  11.180
 5012W        W 8531   8.053   1.869   9.409
 5013W        W 8532   1.382   7.592  10.470
 5014W        W 8533   1.219   8.730   1.573
 5015W        W 8534   1.458   5.453   0.716
 5016W        W 8535   7.378   8.066  10.496
 5017W        W 8536   3.616   9.526  11.310
 5018W        W 8537   8.763   2.146  10.070
 5019W        W 8538   9.470   5.998   2.556
 5020W        W 8539   0.328   8.411   1.620
 5021W        W 8540   0.780   5.353   1.274
 5022W        W 8541   6.694   1.390   0.410
 5023W        W 8542   5.299   0.230   2.702
 5024W        W 8543   4.641   8.807  11.002
 5025W        W 8544   0.290   2.444   2.385
 5026W        W 8545   2.106   3.548   9.392
 5027W        W 8546   9.384   5.019   1.040
 5028W        W 8547   5.940   6.079   0.037
 5029W        W 8548   0.455   3.671   1.763
 5030W        W 8549   1.832   7.197   1.347
 5031W        W 8550   0.176   7.233   1.374
 5032W        W 8551   1.091   0.212  11.977
 5033W        W 8552   4.188   0.841   2.849
 5034W        W 8553   7.945   7.177   1.707
 5035W        W 8554   6.910   6.005   4.155
 5036W        W 8555   2.503   5.053   3.267
 5037W        W 8556   3.120   4.354   8.106
 5038W        W 8557   9.225   2.272   3.205
 5039W        W 8558   5.176   2.567   0.725
 5040W        W 8559   6.868   6.981   3.792
 5041W        W 8560   0.685   5.254  10.774
 5042W        W 8561   5.126   1.065   2.813
 5043W        W 8562   4.903   6.728   4.051
 5044W        W 8563   0.162   3.450   0.714
 5045W        W 8564   8.005   4.257  10.194
 5046W        W 8565   5.297   7.030   9.472
 5047W        W 8566   8.077   3.451   2.331
 5048W        W 8567   6.465   9.728  11.469
 5049W        W 8568   5.858   9.981   8.902
 5050W        W 8569   9.370   6.875   2.113
 5051W        W 8570   9.259   7.867   2.323
 5052W        W 8571   2.169   6.915   3.521
 5053W        W 8572   4.272   6.526   1.863
 5054W        W 8573   5.378   2.279   2.619
 5055W        W 8574   6.051   5.501   1.394
 5056W        W 8575   7.151   7.530  11.654
 5057W        W 8576   0.994   0.001   1.813
 5058W        W 8577   7.298   6.057   9.034
 5059W        W 8578   8.738   9.408   3.180
 5060W        W 8579   3.866   8.983  11.496
 5061W        W 8580   9.571   7.535   0.295
 5062W        W 8581   1.912   6.453  10.838
 5063W        W 8582   1.290   9.852  10.572
 5064W        W 8583   7.903   9.285   9.557
 5065W        W 8584   8.358   6.328   0.887
 5066W        W 8585   3.187   8.076   2.394
 5067W        W 8586   5.916   1.012  10.385
 5068W        W 8587   1.643   2.748   1.202
 5069W        W 8588   2.679   9.328   9.234
 5070W        W 8589   3.290   4.661   9.672
 5071W        W 8590   5.168   7.875   2.614
 5072W        W 8591   2.315   5.946   3.468
 5073W        W 8592   6.564   9.251  10.390
 5074W        W 8593   6.460   2.452   2.758
 5075W        W 8594   1.311   8.468   2.382
 5076W        W 8595   6.503   5.072   2.565
 5077W        W 8596   0.815   4.411   3.235
 5078W        W 8597   5.843   4.927   2.184
 5079W        W 8598   7.851   2.627   9.860
 5080W        W 8599   6.068   9.446  10.347
 5081W        W 8600   7.909   3.447  10.457
 5082W        W 8601   2.496   2.588   3.366
 5083W        W 8602   9.547   6.758   0.284
 5084W        W 8603   7.743   5.630   2.432
 5085W        W 8604   3.478   0.971   3.522
 5086W        W 8605   9.442   4.331   0.071
 5087W        W 8606   5.690   8.459   3.098
 5088W        W 8607   8.387   7.075   2.014
 5089W        W 8608   8.699   9.241   2.333
 5090W        W 8609   3.546   8.295   2.776
 5091W        W 8610   8.711   2.918   9.622
 5092W        W 8611   3.190   2.967   0.877
 5093W        W 8612   4.821   0.369   9.679
 5094W        W 8613   3.768   7.248  11.044
 5095W        W 8614   4.419   5.505  10.044
 5096W        W 8615   3.541   8.240   1.301
 5097W        W 8616   3.711   5.428   9.429
 5098W        W 8617   1.208   1.938   0.825
 5099W        W 8618   4.268   2.294   9.239
 5100W        W 8619   1.964   1.030   3.081
 5101W        W 8620   9.700   3.592  11.467
 5102W        W 8621   4.570   5.636   0.231
 5103W        W 8622   3.897   8.185  11.421
 5104W        W 8623   8.777   7.062   0.289
 5105W        W 8624   1.112   3.385   3.408
 5106W        W 8625   0.795   0.854   8.578
 5107W        W 8626   9.479   9.419   9.631
 5108W        W 8627   4.024   0.916   3.360
 5109W        W 8628   7.968   8.720   3.060
 5110W        W 8629   7.577   4.371   9.955
 5111W        W 8630   0.507   3.041   0.647
 5112W        W 8631   8.158   6.233   3.630
 5113W        W 8632   0.403   3.342   9.581
 5114W        W 8633   0.925   2.204   8.739
 5115W        W 8634   5.542   8.264   8.768
 5116W        W 8635   1.519   7.437   2.804
 5117W        W 8636   5.833   8.917   9.687
 5118W        W 8637   3.179   4.709   9.184
 5119W        W 8638   8.411   5.711   1.587
 5120W        W 8639   3.988   4.655   2.671
 5121W        W 8640   2.204   6.220   0.428
 5122W        W 8641   6.798   0.583  11.445
 5123W        W 8642   2.930   8.957   0.086
 5124W        W 8643   1.358   0.641   0.079
 5125W        W 8644   9.827   4.857   2.158
 5126W        W 8645   6.292   5.667   2.823
 5127W        W 8646   3.482   0.603   0.310
 5128W        W 8647   2.149   9.206   1.598
 5129W        W 8648   8.636   2.256   1.435
 5130W        W 8649   9.496   5.340  11.433
 5131W        W 8650   4.194   0.846   1.397
 5132W        W 8651   8.450   3.508   0.690
 5133W        W 8652   7.313   0.630   1.548
 5134W        W 8653   9.009   5.869   2.312
 5135W        W 8654   8.574   9.671   0.262
 5136W        W 8655   5.881   3.034   8.799
 5137W        W 8656   0.027   5.449   9.881
 5138W        W 8657   1.050   0.336   9.868
 5139W        W 8658   3.186   6.818   8.064
 5140W        W 8659   8.269   0.689   3.184
 5141W        W 8660   4.498   3.230   0.663
 5142W        W 8661   2.741   5.529  10.995
 5143W        W 8662   1.689   3.185  11.342
 5144W        W 8663   2.127   0.405  11.972
 5145W        W 8664   7.875   3.013   2.186
 5146W        W 8665   5.675   9.796   2.359
 5147W        W 8666   3.532   2.666   1.463
 5148W        W 8667   9.639   9.972   0.240
 5149W        W 8668   8.319   5.107   9.928
 5150W        W 8669   6.160   9.014  10.641
 5151W        W 8670   5.910   6.395  11.094
 5152W        W 8671   0.446   1.561  11.994
 5153W        W 8672   6.170   4.688   0.005
 5154W        W 8673   6.285   4.188   0.709
 5155W        W 8674   9.444   9.317   8.661
 5156W        W 8675   9.443   7.090  11.196
 5157W        W 8676   5.658   1.453   0.584
 5158W        W 8677   4.217   5.053   9.854
 5159W        W 8678   7.657   4.752   8.987
 5160W        W 8679   1.286   7.156   0.175
 5161W        W 8680   2.387   5.249   2.798
 5162W        W 8681   5.424   4.899  10.434
 5163W        W 8682   9.443   5.514   0.692
 5164W        W 8683   2.340   7.872   1.834
 5165W        W 8684   6.712   1.430   8.545
 5166W        W 8685   4.246   6.392   2.751
 5167W        W 8686   6.882   8.752  10.053
 5168W        W 8687   4.231   8.914   2.439
 5169W        W 8688   0.770   6.119  11.841
 5170W        W 8689   9.807   4.624  10.021
 5171W        W 8690   7.646   1.000   2.363
 5172W        W 8691   6.081   2.848   2.135
 5173W        W 8692   7.929   9.416  11.676
 5174W        W 8693   3.741   1.962   2.803
 5175W        W 8694   2.856   5.095  11.271
 5176W        W 8695   3.782   4.098   3.868
 5177W        W 8696   9.021   9.868   1.610
 5178W        W 8697   8.939   8.065  10.779
 5179W        W 8698   8.429   5.179   2.315
 5180W        W 8699   4.514   4.230   9.662
 5181W        W 8700   8.812   3.712   2.041
 5182W        W 8701   5.944   6.920  11.916
 5183W        W 8702   1.042   5.014   0.510
 5184W        W 8703   1.882   7.665  11.264
 5185W        W 8704   3.800   2.972   2.373
 5186W        W 8705   2.953   8.853   3.240
 5187W        W 8706   5.626   6.988   4.045
 5188W        W 8707   5.540   2.617   3.025
 5189W        W 8708   1.775   0.102   2.628
 5190W        W 8709   0.560   3.558   8.893
 5191W        W 8710   8.003   1.211   2.674
 5192W        W 8711   7.664   9.768  10.933
 5193W        W 8712   5.151   3.565   4.025
 5194W        W 8713   3.890   9.900   0.505
 5195W        W 8714   6.973   9.033   9.187
 5196W        W 8715   2.181   3.833   2.793
 5197W        W 8716   7.400   3.623   0.453
 5198W        W 8717   0.002   5.970   1.453
 5199W        W 8718   9.620   1.446   1.686
 5200W        W 8719   6.867   9.775   3.163
 5201W        W 8720   7.883   7.670   1.753
 5202W        W 8721   6.431   7.248  10.968
 5203W        W 8722   1.704   5.423   8.716
 5204W        W 8723   1.814   5.507   1.494
 5205W        W 8724   9.760   8.052   9.063
 5206W        W 8725   1.542   0.183   9.756
 5207W        W 8726   0.696   7.297   1.229
 5208W        W 8727   2.363   4.766   9.823
 5209W        W 8728   2.048   4.072   0.508
 5210W        W 8729   7.135   5.575   8.890
 5211W        W 8730   9.758   0.811  10.873
 5212W        W 8731   8.036   6.120  10.049
 5213W        W 8732   2.178   4.237  10.550
 5214W        W 8733   3.937   5.425  11.417
 5215W        W 8734   1.384   8.430   0.618
 5216W        W 8735   5.517   1.821  10.065
 5217W        W 8736   8.309   2.387  10.055
 5218W        W 8737   9.509   1.418   2.179
 5219W        W 8738   3.765   2.226   0.745
 5220W        W 8739   1.751   1.551   9.126
 5221W        W 8740   3.530   6.239   8.739
 5222W        W 8741   3.040   1.821   8.592
 5223W        W 8742   9.320   6.349  11.416
 5224W        W 8743   0.148   0.644   0.222
 5225W        W 8744   4.577   2.179   3.008
 5226W        W 8745   9.812   9.387   1.788
 5227W        W 8746   8.959   5.120  11.727
 5228W        W 8747   2.164   3.722   0.911
 5229W        W 8748   3.513   1.835  10.012
 5230W        W 8749   4.564   9.541   9.379
 5231W        W 8750   6.281   3.782   1.732
 5232W        W 8751   2.264   8.325   3.189
 5233W        W 8752   7.919   2.275   2.672
 5234W        W 8753   5.313   5.013   1.254
 5235W        W 8754   4.235   5.478   9.560
 5236W        W 8755   4.207   4.588  10.118
 5237W        W 8756   9.354   9.922   1.201
 5238W        W 8757   5.501   2.349   1.052
 5239W        W 8758   2.648   0.472  10.279
 5240W        W 8759   8.515   5.487  11.279
 5241W        W 8760   4.934   7.052  11.886
 5242W        W 8761   6.023   1.785   3.183
 5243W        W 8762   3.958   0.361   0.308
 5244W        W 8763   9.032   5.383   1.164
 5245W        W 8764   1.677   6.216  11.229
 5246W        W 8765   0.415   3.036  11.708
 5247W        W 8766   9.109   9.516   9.240
 5248W        W 8767   3.084   0.370   2.486
 5249W        W 8768   4.932   6.343   3.247
 5250W        W 8769   6.491   3.639   9.244
 5251W        W 8770   1.506   2.946   3.588
 5252W        W 8771   1.688   8.072  10.998
 5253W        W 8772   3.191   5.598  10.698
 5254W        W 8773   8.581   3.365   2.341
 5255W        W 8774   1.403   6.998   1.146
 5256W        W 8775   9.190   4.204   2.013
 5257W        W 8776   1.227   3.096   1.725
 5258W        W 8777   4.177   9.417   9.026
 5259W        W 8778   8.302   7.516   1.268
 5260W        W 8779   3.453   8.154   9.319
 5261W        W 8780   3.208   5.997   8.419
 5262W        W 8781   5.386   6.527   4.130
 5263W        W 8782   6.773   4.040  11.845
 5264W        W 8783   0.781   7.094   1.788
 5265W        W 8784   7.708   5.610   0.446
 5266W        W 8785   2.166   0.906   0.044
 5267W        W 8786   0.058   2.842  10.864
 5268W        W 8787   8.687   9.447   8.857
 5269W        W 8788   5.968   4.047   2.104
 5270W        W 8789   7.622   6.518   0.621
 5271W        W 8790   2.738   7.753   2.635
 5272W        W 8791   5.702   9.335   2.144
 5273W        W 8792   1.332   6.089  10.003
 5274W        W 8793   1.181   6.717  11.830
 5275W        W 8794   3.277   6.658   8.914
 5276W        W 8795   2.693   5.664   2.726
 5277W        W 8796   3.457   7.931   8.795
 5278W        W 8797   8.090   5.663  10.972
 5279W        W 8798   9.375   6.177   9.212
 5280W        W 8799   4.939   1.851   0.244
 5281W        W 8800   7.737   7.316   2.856
 5282W        W 8801   2.676   4.226  11.863
 5283W        W 8802   8.788   3.925   2.655
 5284W        W 8803   4.963   9.229  11.020
 5285W        W 8804   0.250   8.524   3.106
 5286W        W 8805   6.477   4.146   2.123
 5287W        W 8806   4.040   4.343  11.512
 5288W        W 8807   1.420   9.723   1.803
 5289W        W 8808   8.359   3.055   2.674
 5290W        W 8809   3.321   1.857   1.671
 5291W        W 8810   8.431   3.068   8.504
 5292W        W 8811   8.427   4.417   1.864
 5293W        W 8812   7.548   6.384   8.724
 5294W        W 8813   0.737   4.505   1.414
 5295W        W 8814   1.159   8.044  10.204
 5296W        W 8815   2.265   2.927  10.951
 5297W        W 8816   4.302   3.629  11.091
 5298W        W 8817   3.520   0.111   0.171
 5299W        W 8818   5.196   4.084  11.072
 5300W        W 8819   4.511   1.370  11.558
 5301W        W 8820   9.138   2.221   9.673
 5302W        W 8821   1.769   6.236   8.896
 5303W        W 8822   5.501   3.335   9.813
 5304W        W 8823   6.657   2.673  10.953
 5305W        W 8824   6.067   4.951   0.437
 5306W        W 8825   3.195   1.220   3.115
 5307W        W 8826   4.950   8.575   9.548
 5308W        W 8827   0.713   1.678  10.341
 5309W        W 8828   8.853   3.232   0.434
 5310W        W 8829   8.076   9.727   2.778
 5311W        W 8830   9.882   3.373  10.961
 5312W        W 8831   0.017   8.829   1.512
 5313W        W 8832   1.174   8.015  10.724
 5314W        W 8833   0.868   8.420  11.129
 5315W        W 8834   3.681   9.993   1.995
 5316W        W 8835   3.217   2.002  10.903
 5317W        W 8836   4.076   0.913   9.005
 5318W        W 8837   0.060   1.011  10.513
 5319W        W 8838   4.094   5.811  10.334
 5320W        W 8839   9.728   6.995   1.461
 5321W        W 8840   4.322   1.173   0.465
 5322W        W 8841   1.621   7.226  11.241
 5323W        W 8842   8.382   0.243   2.257
 5324W        W 8843   6.120   6.415   0.423
 5325W        W 8844   9.008   2.158   1.780
 5326W        W 8845   8.194   1.949  11.784
 5327W        W 8846   4.988   4.322  11.499
 5328W        W 8847   0.275   2.353   0.318
 5329W        W 8848   2.059   2.076   3.758
 5330W        W 8849   4.790   5.556   9.624
 5331W        W 8850   3.724   9.532   1.524
 5332W        W 8851   9.197   1.856  11.877
 5333W        W 8852   3.973   6.306   4.394
 5334W        W 8853   2.672   7.518   0.211
 5335W        W 8854   1.392   0.854  11.373
 5336W        W 8855   2.722   2.933  11.242
 5337W        W 8856   2.597   7.973   9.390
 5338W        W 8857   2.185   3.472  11.921
 5339W        W 8858   9.145   7.449   0.004
 5340W        W 8859   4.597   3.162  11.643
 5341W        W 8860   3.614   7.430   0.054
 5342W        W 8861   8.109   7.619  10.698
 5343W        W 8862   8.665   6.513  10.140
 5344W        W 8863   3.950   5.611   4.167
 5345W        W 8864   1.005   9.326   8.989
 5346W        W 8865   0.857   2.601  11.122
 5347W        W 8866   4.193   6.331  11.653
 5348W        W 8867   5.077   8.820   2.226
 5349W        W 8868   6.228   4.563   8.674
 5350W        W 8869   1.746   6.666  10.383
 5351W        W 8870   6.754   8.492   0.876
 5352W        W 8871   4.652   8.386  11.869
 5353W        W 8872   8.913   4.602   1.808
 5354W        W 8873   2.349   0.777   1.731
 5355W        W 8874   4.595   5.484   9.144
 5356W        W 8875   8.431   5.853   0.729
 5357W        W 8876   2.437   0.318  11.289
 5358W        W 8877   5.735   6.843   8.193
 5359W        W 8878   7.934   9.068   3.450
 5360W        W 8879   8.982   6.662  10.837
 5361W        W 8880   5.653   2.667  10.827
 5362W        W 8881   6.500   6.526  10.586
 5363W        W 8882   3.319   7.554  10.696
 5364W        W 8883   3.198   4.245   2.362
 5365W        W 8884   7.373   9.743   3.184
 5366W        W 8885   8.548   2.328  11.760
 5367W        W 8886   8.934   1.745   9.783
 5368W        W 8887   3.496   5.070   8.557
 5369W        W 8888   2.276   2.628   9.977
 5370W        W 8889   0.904   7.562   3.516
 5371W        W 8890   8.385   0.903   2.711
 5372W        W 8891   2.971   9.975   1.004
 5373W        W 8892   1.913   0.482   9.996
 5374W        W 8893   1.258   4.623   2.418
 5375W        W 8894   5.979   3.198  11.808
 5376W        W 8895   4.803   6.211   4.115
 5377W        W 8896   5.970   2.264   0.865
 5378W        W 8897   7.538   3.536   3.001
 5379W        W 8898   2.653   2.908   1.037
 5380W        W 8899   1.439   0.763   1.845
 5381W        W 8900   2.528   1.026   0.374
 5382W        W 8901   3.259   1.476   8.909
 5383W        W 8902   1.791   4.722   9.935
 5384W        W 8903   0.039   1.711  11.747
 5385W        W 8904   6.116   6.014  10.752
 5386W        W 8905   8.219   8.567  11.444
 5387W        W 8906   1.462   0.847  10.852
 5388W        W 8907   6.848   9.024   0.400
 5389W        W 8908   0.086   4.784  11.431
 5390W        W 8909   0.420   5.914  11.324
 5391W        W 8910   2.588   1.304   1.915
 5392W        W 8911   6.684   6.427  10.086
 5393W        W 8912   6.720   3.899   0.811
 5394W        W 8913   6.653   5.213   3.607
 5395W        W 8914   6.684   9.838  10.994
 5396W        W 8915   4.500   5.801   8.745
 5397W        W 8916   2.227   5.648   2.444
 5398W        W 8917   7.012   0.705   9.496
 5399W        W 8918   0.320   3.318   2.728
 5400W        W 8919   6.514   2.257   8.657
 5401W        W 8920   6.939   6.226   0.988
 5402W        W 8921   6.175   1.863  10.265
 5403W        W 8922   9.370   9.233   0.024
 5404W        W 8923   6.764   5.913  10.207
 5405W        W 8924   2.155   4.321  10.027
 5406W        W 8925   6.671   5.788   0.845
 5407W        W 8926   8.935   5.998  11.462
 5408W        W 8927   6.624   7.975   3.074
 5409W        W 8928   6.493   0.683   1.286
 5410W        W 8929   2.952   3.286  10.938
 5411W        W 8930   2.342   9.281  10.890
 5412W        W 8931   1.283   6.245   0.617
 5413W        W 8932   7.738   2.665   3.419
 5414W        W 8933   1.656   3.245   2.425
 5415W        W 8934   1.746   1.240   2.239
 5416W        W 8935   5.596   4.473   1.125
 5417W        W 8936   2.042   6.442  11.948
 5418W        W 8937   0.882   8.860   9.179
 5419W        W 8938   8.044   5.616   9.933
 5420W        W 8939   6.925   8.245   8.574
 5421W        W 8940   5.336   1.050  11.546
 5422W        W 8941   5.031   1.701   9.954
 5423W        W 8942   9.451   1.427   2.693
 5424W        W 8943   5.946   0.508  10.349
 5425W        W 8944   8.444   9.723   2.398
 5426W        W 8945   1.218   2.559   3.393
 5427W        W 8946   9.472   6.496  10.775
 5428W        W 8947   6.050   7.956  11.224
 5429W        W 8948   2.281   7.928   2.817
 5430W        W 8949   1.267   1.321   9.147
 5431W        W 8950   5.279   1.964   9.576
 5432W        W 8951   5.697   8.087   9.393
 5433W        W 8952   6.444   2.065   3.104
 5434W        W 8953   1.206   8.963   2.557
 5435W        W 8954   3.483   5.215   3.323
 5436W        W 8955   2.647   6.404   2.679
 5437W        W 8956   9.022   4.184   9.588
 5438W        W 8957   3.368   4.727  10.177
 5439W        W 8958   2.656   9.202   2.391
 5440W        W 8959   2.246   2.174   9.593
 5441W        W 8960   2.704   7.426   0.701
 5442W        W 8961   0.238   1.740   8.885
 5443W        W 8962   5.417   1.481   2.739
 5444W        W 8963   9.211   1.812   1.031
 5445W        W 8964   5.434   1.823   0.307
 5446W        W 8965   6.162   2.322  10.526
 5447W        W 8966   1.527   8.330   9.211
 5448W        W 8967   9.183   6.637   0.695
 5449W        W 8968   9.978   4.805   8.802
 5450W        W 8969   1.880   4.653   9.073
 5451W        W 8970   9.464   2.228   0.271
 5452W        W 8971   0.572   4.645  11.429
 5453W        W 8972   7.767   9.252   1.267
 5454W        W 8973   6.528   1.305  11.026
 5455W        W 8974   0.117   2.878   9.600
 5456W        W 8975   4.668   6.391   8.086
 5457W        W 8976   2.833   6.840  10.254
 5458W        W 8977   3.212   8.757   0.474
 5459W        W 8978   3.611   7.083   2.043
 5460W        W 8979   7.983   4.164   9.702
 5461W        W 8980   2.140   8.326   1.724
 5462W        W 8981   9.471   4.769   3.538
 5463W        W 8982   0.000   3.253   9.915
 5464W        W 8983   2.673   7.170   1.141
 5465W        W 8984   0.018   4.246   0.161
 5466W        W 8985   4.333   5.456  11.781
 5467W        W 8986   8.914   4.625  11.550
 5468W        W 8987   9.613   6.584   3.253
 5469W        W 8988   4.717   3.391   2.425
 5470W        W 8989   2.320   2.787   1.794
 5471W        W 8990   1.887   9.168   0.604
 5472W        W 8991   9.092   1.726  11.389
 5473W        W 8992   5.490   5.961   0.867
 5474W        W 8993   9.835   2.505   0.671
 5475W        W 8994   9.786   5.744   8.590
 5476W        W 8995   9.978   1.097   1.804
 5477W        W 8996   0.351   1.402  10.566
 5478W        W 8997   7.670   7.544  11.644
 5479W        W 8998   2.635   8.479   1.490
 5480W        W 8999   3.956   1.339   2.106
 5481W        W 9000   6.057   8.065  10.213
 5482W        W 9001   1.203   5.152   2.179
 5483W        W 9002   7.094   1.537   9.740
 5484W        W 9003   9.918   4.251   0.775
 5485W        W 9004   1.192   4.032  10.034
 5486W        W 9005   9.866   2.251   2.637
 5487W        W 9006   5.195   5.179   9.618
 5488W        W 9007   6.066   7.940   1.520
 5489W        W 9008   8.123   5.917   0.305
 5490W        W 9009   8.975   0.892   2.044
 5491W        W 9010   4.159   8.706   9.809
 5492W        W 9011   9.506   8.374   3.671
 5493W        W 9012   9.816   1.300  11.984
 5494W        W 9013   2.049   6.528   0.858
 5495W        W 9014   5.582   4.414   8.907
 5496W        W 9015   5.110   0.163  10.045
 5497W        W 9016   9.479   3.593   2.130
 5498W        W 9017   0.882   5.636   1.771
 5499W        W 9018   9.003   7.502   3.153
 5500W        W 9019   5.735   1.822  11.252
 5501W        W 9020   0.758   2.414   1.464
 5502W        W 9021   6.139   5.738   9.571
 5503W        W 9022   5.952   1.468   8.935
 5504W        W 9023   9.857   0.858   2.805
 5505W        W 9024   6.366   3.760   8.758
 5506W        W 9025   9.317   4.402   3.872
 5507W        W 9026   8.852   7.962   9.234
 5508W        W 9027   7.099   0.943   0.301
 5509W        W 9028   3.762   9.484   3.187
 5510W        W 9029   9.933   8.164   8.582
 5511W        W 9030   1.092   7.475   2.507
 5512W        W 9031   5.165   1.902   3.373
 5513W        W 9032   8.458   7.076   3.527
 5514W        W 9033   3.163   4.387  11.539
 5515W        W 9034   4.512   3.830   0.199
 5516W        W 9035   7.488   1.323   1.983
 5517W        W 9036   0.351   5.184   8.821
 5518W        W 9037   7.389   5.703  11.991
 5519W        W 9038   9.033   0.406  11.017
 5520W        W 9039   9.011   5.807   1.469
 5521W        W 9040   3.486   1.954   0.391
 5522W        W 9041   8.347   7.071   0.530
 5523W        W 9042   4.189   7.949  10.464
 5524W        W 9043   0.022   2.204   9.959
 5525W        W 9044   8.174   0.573  10.889
 5526W        W 9045   5.225   8.723   0.743
 5527W        W 9046   7.079   1.645   0.781
 5528W        W 9047   7.895   1.138   1.699
 5529W        W 9048   6.401   4.652  10.362
 5530W        W 9049   6.939   6.297   9.305
 5531W        W 9050   0.190   7.315  10.646
 5532W        W 9051   4.200   7.315   1.449
 5533W        W 9052   9.679   2.859  10.548
 5534W        W 9053   9.788   5.137   3.769
 5535W        W 9054   9.501   5.192  10.934
 5536W        W 9055   5.284   4.444  11.903
 5537W        W 9056   8.368   9.814  11.669
 5538W        W 9057   5.222   9.739   0.833
 5539W        W 9058   0.386   9.948   8.955
 5540W        W 9059   3.720   9.747   8.419
 5541W        W 9060   6.611   4.209   8.549
 5542W        W 9061   1.516   9.388   8.759
 5543W        W 9062   6.038   5.169  11.847
 5544W        W 9063   7.736   1.618  11.155
 5545W        W 9064   7.573   5.382   9.736
 5546W        W 9065   3.479   2.532  11.413
 5547W        W 9066   7.834   8.437   1.309
 5548W        W 9067   6.110   4.231   2.581
 5549W        W 9068   4.128   7.020   1.892
 5550W        W 9069   9.340   3.880   9.818
 5551W        W 9070   5.361   0.265  10.858
 5552W        W 9071   6.657   4.658   2.223
 5553W        W 9072   5.976   8.568   2.694
 5554W        W 9073   2.406   5.741   0.474
 5555W        W 9074   5.788   4.302  11.918
 5556W        W 9075   4.163   0.858  10.065
 5557W        W 9076   3.596   4.618   3.007
 5558W        W 9077   7.372   0.872   8.985
 5559W        W 9078   5.316   8.945   9.557
 5560W        W 9079   1.386   9.889   2.962
 5561W        W 9080   0.134   4.543   9.648
 5562W        W 9081   3.538   6.593   8.369
 5563W        W 9082   2.270   5.214  10.034
 5564W        W 9083   4.361   6.108   1.252
 5565W        W 9084   3.221   7.884   1.420
 5566W        W 9085   6.428   6.333   1.874
 5567W        W 9086   2.440   4.874   0.997
 5568W        W 9087   8.801   5.374   1.636
 5569W        W 9088   7.130   9.736   1.116
 5570W        W 9089   2.387   2.303  10.581
 5571W        W 9090   7.459   8.633   9.079
 5572W        W 9091   2.903   3.142  11.950
 5573W        W 9092   4.389   4.834   0.833
 5574W        W 9093   6.468   0.380  11.764
 5575W        W 9094   3.908   8.535   1.110
 5576W        W 9095   2.508   5.373   3.683
 5577W        W 9096   6.565   8.929   1.977
 5578W        W 9097   1.166   1.276   3.444
 5579W        W 9098   8.713   2.806  10.566
 5580W        W 9099   3.651   4.900   1.260
 5581W        W 9100   7.336   5.190  10.907
 5582W        W 9101   7.421   3.520  11.452
 5583W        W 9102   2.199   3.274   1.833
 5584W        W 9103   3.211   3.702   1.573
 5585W        W 9104   4.373   1.107  11.958
 5586W        W 9105   7.099   7.291  10.435
 5587W        W 9106   0.900   3.467  10.155
 5588W        W 9107   7.981   7.203   3.344
 5589W        W 9108   0.819   2.026   2.907
 5590W        W 9109   4.043   9.387   0.086
 5591W        W 9110   7.661   6.437   9.892
 5592W        W 9111   8.203   5.161  11.014
 5593W        W 9112   4.465   5.355   0.788
 5594W        W 9113   7.910   2.099   9.917
 5595W        W 9114   3.271   5.439   1.855
 5596W        W 9115   4.195   0.465   3.221
 5597W        W 9116   7.681   2.166   3.549
 5598W        W 9117   8.012   0.261   3.064
 5599W        W 9118   7.339   0.298   9.680
 5600W        W 9119   8.835   3.498   1.539
 5601W        W 9120   8.417   1.230   9.054
 5602W        W 9121   4.844   5.675   0.671
 5603W        W 9122   5.771   3.712   1.704
 5604W        W 9123   9.430   3.317  10.611
 5605W        W 9124   6.458   2.606   9.028
 5606W        W 9125   1.444   7.640  10.969
 5607W        W 9126   4.805   4.860  11.105
 5608W        W 9127   4.290   9.039  11.818
 5609W        W 9128   9.422   2.869   1.992
 5610W        W 9129   5.508   5.418   1.523
 5611W        W 9130   2.763   5.697   0.897
 5612W        W 9131   1.133   2.830   9.492
 5613W        W 9132   4.632   4.992  11.569
 5614W        W 9133   5.531   9.309   2.626
 5615W        W 9134   9.013   8.666   9.922
 5616W        W 9135   3.703   1.754  11.894
 5617W        W 9136   6.992   3.900   1.263
 5618W        W 9137   4.707   8.521   3.125
 5619W        W 9138   6.616   1.173   1.263
 5620W        W 9139   5.278   8.382   9.192
 5621W        W 9140   6.074   2.815   9.269
 5622W        W 9141   9.287   6.712   9.248
 5623W        W 9142   3.097   8.488   2.102
 5624W        W 9143   7.063   1.805   2.334
 5625W        W 9144   5.705   7.062  11.487
 5626W        W 9145   5.832   8.645   1.876
 5627W        W 9146   7.609   8.898   0.912
 5628W        W 9147   6.088   8.449   3.458
 5629W        W 9148   5.905   8.474   9.930
 5630W        W 9149   1.725   3.567   9.059
 5631W        W 9150   9.049   1.804   3.081
 5632W        W 9151   1.071   1.944   3.875
 5633W        W 9152   9.037   0.818  11.363
 5634W        W 9153   0.967   3.774  11.815
 5635W        W 9154   7.298   0.363  10.609
 5636W        W 9155   2.338   8.781   1.765
 5637W        W 9156   5.816   6.037   8.763
 5638W        W 9157   1.145   9.797   2.283
 5639W        W 9158   7.277   8.141   8.985
 5640W        W 9159   4.243   7.514   8.704
 5641W        W 9160   9.050   8.951   1.475
 5642W        W 9161   0.284   5.175   1.181
 5643W        W 9162   0.469   9.835  10.057
 5644W        W 9163   5.208   3.547  11.074
 5645W        W 9164   0.857   4.388   2.673
 5646W        W 9165   1.907   2.171  10.443
 5647W        W 9166   7.102   5.130   9.801
 5648W        W 9167   1.389   7.005   3.117
 5649W        W 9168   3.008   4.523   3.787
 5650W        W 9169   5.987   3.673  10.448
 5651W        W 9170   7.401   4.749  10.646
 5652W        W 9171   7.965   3.061  10.783
 5653W        W 9172   1.301   0.869   8.541
 5654W        W 9173   6.745   8.776   9.563
 5655W        W 9174   6.744   7.733  11.852
 5656W        W 9175   3.792   2.343   3.188
 5657W        W 9176   4.031   0.371  10.200
 5658W        W 9177   2.122   2.324   1.797
 5659W        W 9178   1.721   2.264   9.428
 5660W        W 9179   4.697   5.579   3.447
 5661W        W 9180   3.033   0.874   2.280
 5662W        W 9181   6.965   9.083  10.990
 5663W        W 9182   4.924   2.857   1.323
 5664W        W 9183   1.914   6.739   3.911
 5665W        W 9184   3.380   2.611   9.279
 5666W        W 9185   5.031   9.523   0.417
 5667W        W 9186   1.345   1.734   9.806
 5668W        W 9187   4.486   4.989   8.997
 5669W        W 9188   1.623   9.973  11.400
 5670W        W 9189   0.535   4.221   0.312
 5671W        W 9190   7.269   9.305   1.349
 5672W        W 9191   9.777   2.660   9.283
 5673W        W 9192   0.833   5.865   1.310
 5674W        W 9193   1.431   9.369   0.426
 5675W        W 9194   0.135   6.419   0.841
 5676W        W 9195   9.400   8.297   2.986
 5677W        W 9196   3.723   2.891   2.953
 5678W        W 9197   1.110   6.488   1.035
 5679W        W 9198   9.368   8.247   8.770
 5680W        W 9199   3.775   2.773   1.895
 5681W        W 9200   5.438   4.147   0.299
 5682W        W 9201   7.887   8.349   8.957
 5683W        W 9202   9.422   6.689   9.741
 5684W        W 9203   1.719   1.694  10.628
 5685W        W 9204   2.908   4.760   1.168
 5686W        W 9205   0.766   7.593   1.690
 5687W        W 9206   9.562   4.431   2.358
 5688W        W 9207   3.781   4.815   3.475
 5689W        W 9208   8.061   3.737   0.447
 5690W        W 9209   5.192   7.776   0.518
 5691W        W 9210   5.237   7.737   4.252
 5692W        W 9211   5.249   3.818  10.641
 5693W        W 9212   6.196   7.227   2.211
 5694W        W 9213   7.775   0.394   1.545
 5695W        W 9214   0.852   6.165   2.426
 5696W        W 9215   6.831   4.437   0.837
 5697W        W 9216   3.319   4.547   1.460
 5698W        W 9217   9.436   0.130   1.769
 5699W        W 9218   2.742   6.020   9.785
 5700W        W 9219   2.709   4.591   3.352
 5701W        W 9220   9.688   8.869  10.816
 5702W        W 9221   0.893   5.845   9.816
 5703W        W 9222   5.135   5.671  10.652
 5704W        W 9223   5.253   5.697   9.802
 5705W        W 9224   6.676   5.725   0.349
 5706W        W 9225   1.509   4.835  10.467
 5707W        W 9226   6.917   2.587   1.847
 5708W        W 9227   1.107   9.584   1.404
 5709W        W 9228   7.532   0.486   2.389
 5710W        W 9229   1.778   8.550  11.260
 5711W        W 9230   1.396   9.519  11.400
 5712W        W 9231   7.844   0.545   9.029
 5713W        W 9232   1.867   9.579   0.910
 5714W        W 9233   6.080   5.316   2.417
 5715W        W 9234   1.948   0.930   8.470
 5716W        W 9235   1.735   1.747  11.567
 5717W        W 9236   4.286   9.465   3.229
 5718W        W 9237   2.483   1.275  10.448
 5719W        W 9238   3.214   5.162   1.219
 5720W        W 9239   5.964   9.053   2.691
 5721W        W 9240   6.636   6.235   1.413
 5722W        W 9241   1.925   3.085  10.457
 5723W        W 9242   2.252   8.989   9.305
 5724W        W 9243   5.034   9.387   9.083
 5725W        W 9244   6.168   9.825  10.008
 5726W        W 9245   7.122   6.090   2.820
 5727W        W 9246   2.850   4.568   1.651
 5728W        W 9247   6.008   5.057  11.142
 5729W        W 9248   3.257   2.824   1.871
 5730W        W 9249   0.452   6.929   8.711
 5731W        W 9250   7.139   3.996   0.190
 5732W        W 9251   5.127   6.162  11.552
 5733W        W 9252   7.111   8.413   9.417
 5734W        W 9253   9.797   9.817   9.760
 5735W        W 9254   7.550   6.321  11.303
 5736W        W 9255   1.942   0.564   3.295
 5737W        W 9256   8.809   7.560  10.689
 5738W        W 9257   3.231   6.298   0.209
 5739W        W 9258   1.240   6.014   9.091
 5740W        W 9259   5.526   9.392  11.194
 5741W        W 9260   1.553   1.349   9.564
 5742W        W 9261   0.507   6.432   8.545
 5743W        W 9262   9.516   4.016   1.053
 5744W        W 9263   3.300   6.880   1.668
 5745W        W 9264   5.117   3.173   2.975
 5746W        W 9265   5.015   0.455  10.489
 5747W        W 9266   8.355   2.651   3.381
 5748W        W 9267   3.212   6.392  11.295
 5749W        W 9268   3.163   6.141   3.313
 5750W        W 9269   4.957   3.287   9.025
 5751W        W 9270   3.682   3.985   9.550
 5752W        W 9271   7.939   1.014  11.066
 5753W        W 9272   6.975   9.460   8.865
 5754W        W 9273   6.488   0.873   9.608
 5755W        W 9274   8.884   0.813   9.929
 5756W        W 9275   6.122   7.231   9.559
 5757W        W 9276   6.219   1.509   1.341
 5758W        W 9277   8.475   3.991   0.212
 5759W        W 9278   3.507   8.022  10.817
 5760W        W 9279   3.210   6.961   3.033
 5761W        W 9280   1.295   4.184   3.249
 5762W        W 9281   1.741   4.128   2.969
 5763W        W 9282   2.720   5.506  10.502
 5764W        W 9283   1.365   7.849   1.758
 5765W        W 9284   4.638   2.257   0.120
 5766W        W 9285   7.515   1.417   0.971
 5767W        W 9286   3.592   8.365   2.262
 5768W        W 9287   5.452   0.230   2.217
 5769W        W 9288   2.695   8.238   2.522
 5770W        W 9289   7.705   6.872   8.540
 5771W        W 9290   6.770   2.180   3.467
 5772W        W 9291   1.307   8.494  11.468
 5773W        W 9292   2.567   7.612   1.415
 5774W        W 9293   2.741   8.827  10.948
 5775W        W 9294   9.602   5.854   2.103
 5776W        W 9295   5.938   1.391   2.841
 5777W        W 9296   5.893   8.418   1.433
 5778W        W 9297   0.447   6.795   1.315
 5779W        W 9298   3.905   0.192   9.536
 5780W        W 9299   4.321   6.193   2.247
 5781W        W 9300   9.959   6.415   0.243
 5782W        W 9301   4.582   8.331   9.915
 5783W        W 9302   9.030   9.418  11.074
 5784W        W 9303   2.350   3.616   9.831
 5785W        W 9304   3.189   5.641   3.198
 5786W        W 9305   4.735   8.112   9.474
 5787W        W 9306   6.822   5.146   1.316
 5788W        W 9307   4.273   5.978   9.880
 5789W        W 9308   8.344   5.322  11.775
 5790W        W 9309   5.714   8.867  11.568
 5791W        W 9310   2.751   0.940  10.099
 5792W        W 9311   9.147   6.515   8.789
 5793W        W 9312   6.663   6.246   0.370
 5794W        W 9313   6.450   1.646   3.434
 5795W        W 9314   4.208   4.779   0.351
 5796W        W 9315   7.003   8.770   3.366
 5797W        W 9316   6.466   6.073   9.321
 5798W        W 9317   4.844   2.686   3.736
 5799W        W 9318   6.639   8.034   1.499
 5800W        W 9319   0.174   4.656  10.957
 5801W        W 9320   0.300   4.179  10.032
 5802W        W 9321   4.583   1.411  11.040
 5803W        W 9322   3.567   8.576  11.514
 5804W        W 9323   5.612   2.443  11.892
 5805W        W 9324   5.646   6.432   9.036
 5806W        W 9325   5.524   3.897   1.148
 5807W        W 9326   4.864   4.177   2.799
 5808W        W 9327   0.930   0.172   0.476
 5809W        W 9328   4.494   5.946   2.656
 5810W        W 9329   4.497   3.584   1.240
 5811W        W 9330   0.846   9.468  10.119
 5812W        W 9331   9.337   9.705   2.696
 5813W        W 9332   1.429   0.669   9.900
 5814W        W 9333   3.222   9.954  10.266
 5815W        W 9334   9.469   8.440  11.287
 5816W        W 9335   7.052   3.302  10.761
 5817W        W 9336   9.840   6.126   3.378
 5818W        W 9337   8.486   1.799   2.165
 5819W        W 9338   4.212   1.546   0.125
 5820W        W 9339   3.713   7.494   8.793
 5821W        W 9340   1.260   1.669  10.314
 5822W        W 9341   9.248   4.002   2.465
 5823W        W 9342   7.289   5.274   1.194
 5824W        W 9343   5.321   2.639   3.915
 5825W        W 9344   7.143   6.720  11.905
 5826W        W 9345   2.685   9.918   9.458
 5827W        W 9346   4.624   2.606   2.767
 5828W        W 9347   6.959   3.146  11.752
 5829W        W 9348   1.798   3.754   1.277
 5830W        W 9349   0.848   6.243   2.990
 5831W        W 9350   4.126   9.057   1.968
 5832W        W 9351   6.312   9.978   9.153
 5833W        W 9352   9.740   3.762   9.476
 5834W        W 9353   2.588   8.370   2.004
 5835W        W 9354   4.052   8.970  10.209
 5836W        W 9355   4.220   6.915   2.754
 5837W        W 9356   3.138   4.187  10.996
 5838W        W 9357   0.332   3.138   1.726
 5839W        W 9358   1.779   8.112   3.907
 5840W        W 9359   1.024   2.948  10.045
 5841W        W 9360   7.067   3.198  11.249
 5842W        W 9361   0.875   5.998   0.350
 5843W        W 9362   3.138   3.846   0.405
 5844W        W 9363   0.945   1.106  11.270
 5845W        W 9364   0.882   7.048  10.862
 5846W        W 9365   6.702   6.995  11.330
 5847W        W 9366   6.535   3.338  11.430
 5848W        W 9367   3.468   2.584   2.261
 5849W        W 9368   9.104   4.366   2.956
 5850W        W 9369   8.447   7.420  11.045
 5851W        W 9370   8.248   8.856  10.979
 5852W        W 9371   0.185   8.922  10.806
 5853W        W 9372   4.749   3.486  11.284
 5854W        W 9373   3.767   7.085   9.931
 5855W        W 9374   3.786   5.914  11.251
 5856W        W 9375   5.685   5.959  11.600
 5857W        W 9376   1.235   8.855  11.835
 5858W        W 9377   1.269   1.912  11.513
 5859W        W 9378   2.848   7.094   9.739
 5860W        W 9379   4.679   4.167   3.649
 5861W        W 9380   6.065   9.508   2.512
 5862W        W 9381   8.962   4.110  11.559
 5863W        W 9382   3.485   2.715   9.809
 5864W        W 9383   7.928   3.565   3.331
 5865W        W 9384   0.920   7.724   9.626
 5866W        W 9385   4.743   1.957  10.339
 5867W        W 9386   8.652   6.744   2.851
 5868W        W 9387   3.107   0.622   1.403
 5869W        W 9388   4.597   2.857   9.902
 5870W        W 9389   5.046   0.679  10.017
 5871W        W 9390   7.395   6.777  11.107
 5872W        W 9391   4.439   8.267   1.819
 5873W        W 9392   9.906   6.656  11.763
 5874W        W 9393   1.345   1.715   8.823
 5875W        W 9394   4.229   6.583   8.692
 5876W        W 9395   9.089   3.973   3.596
 5877W        W 9396   2.797   2.646   1.797
 5878W        W 9397   0.908   2.526   2.964
 5879W        W 9398   6.022   3.243   2.939
 5880W        W 9399   6.916   6.882   8.895
 5881W        W 9400   9.835   5.965   9.447
 5882W        W 9401   7.418   8.022  10.003
 5883W        W 9402   9.951   2.035   3.710
 5884W        W 9403   0.299   7.428  10.151
 5885W        W 9404   4.635   6.219  11.324
 5886W        W 9405   4.143   3.575   0.850
 5887W        W 9406   3.096   0.396  10.630
 5888W        W 9407   6.799   1.237   9.437
 5889W        W 9408   5.335   2.346   3.513
 5890W        W 9409   5.618   4.756   0.150
 5891W        W 9410   1.839   0.004  10.151
 5892W        W 9411   5.094   4.602   2.556
 5893W        W 9412   7.314   2.668   9.064
 5894W        W 9413   2.850   0.432   2.990
 5895W        W 9414   0.283   8.952   2.366
 5896W        W 9415   7.932   6.905   1.266
 5897W        W 9416   0.852   1.389   2.203
 5898W        W 9417   0.923   8.451  11.806
 5899W        W 9418   7.288   1.189  11.514
 5900W        W 9419   9.133   6.535  10.355
 5901W        W 9420   2.644   9.730   2.307
 5902W        W 9421   2.691   3.125   1.993
 5903W        W 9422   7.158   5.673   9.907
 5904W        W 9423   3.883   4.733   0.810
 5905W        W 9424   2.397   0.627   9.816
 5906W        W 9425   0.417   0.852   9.342
 5907W        W 9426   0.865   1.224   1.298
 5908W        W 9427   3.989   9.500   9.496
 5909W        W 9428   7.532   8.153   0.263
 5910W        W 9429   2.365   5.112  11.071
 5911W        W 9430   0.152   0.635   8.144
 5912W        W 9431   9.863   2.720  10.062
 5913W        W 9432   6.454   5.501   1.781
 5914W        W 9433   5.006   1.564   9.428
 5915W        W 9434   1.336   0.468   0.571
 5916W        W 9435   9.984   1.577   9.328
 5917W        W 9436   0.608   6.552   9.032
 5918W        W 9437   5.122   4.820  11.578
 5919W        W 9438   7.203   4.861   1.501
 5920W        W 9439   6.510   8.574   8.621
 5921W        W 9440   8.158   2.371   9.549
 5922W        W 9441   1.635   7.158  10.378
 5923W        W 9442   6.239   9.441   2.026
 5924W        W 9443   3.123   8.888   8.756
 5925W        W 9444   5.570   8.029   1.335
 5926W        W 9445   5.763   4.126   0.747
 5927W        W 9446   2.784   9.558   2.779
 5928W        W 9447   1.249   5.953   1.582
 5929W        W 9448   1.856   3.309   0.907
 5930W        W 9449   8.576   6.276   2.979
 5931W        W 9450   3.420   5.262   9.991
 5932W        W 9451   8.893   6.143   9.031
 5933W        W 9452   8.107   4.601   9.185
 5934W        W 9453   8.858   2.757   0.208
 5935W        W 9454   6.241   2.129   3.572
 5936W        W 9455   0.539   5.205  10.121
 5937W        W 9456   3.693   8.818   8.598
 5938W        W 9457   5.551   5.367   2.154
 5939W        W 9458   1.716   4.211   3.569
 5940W        W 9459   9.555   6.993   0.781
 5941W        W 9460   1.357   9.479   0.958
 5942W        W 9461   7.625   5.608   0.947
 5943W        W 9462   0.793   3.278   1.412
 5944W        W 9463   9.184   9.642   3.408
 5945W        W 9464   1.271   6.997   2.629
 5946W        W 9465   3.089   4.263   3.300
 5947W        W 9466   3.542   2.948   8.864
 5948W        W 9467   5.267   1.259   1.439
 5949W        W 9468   4.467   0.224   0.365
 5950W        W 9469   2.178   5.648   3.041
 5951W        W 9470   9.007   8.375   3.292
 5952W        W 9471   6.207   9.102  11.680
 5953W        W 9472   7.134   8.679   1.939
 5954W        W 9473   1.399   4.737   1.937
 5955W        W 9474   3.245   7.079  11.900
 5956W        W 9475   5.957   2.261  10.015
 5957W        W 9476   3.051   7.409   1.390
 5958W        W 9477   1.814   6.562   0.417
 5959W        W 9478   4.238   2.133   3.392
 5960W        W 9479   1.073   0.754   1.436
 5961W        W 9480   8.290   0.651  11.984
 5962W        W 9481   4.024   5.066  11.898
 5963W        W 9482   2.678   5.682   9.357
 5964W        W 9483   4.715   4.420   0.746
 5965W        W 9484   5.671   6.273   1.636
 5966W        W 9485   7.486   1.011   2.843
 5967W        W 9486   1.626   7.406   8.753
 5968W        W 9487   1.898   9.120  11.275
 5969W        W 9488   8.495   8.005   0.579
 5970W        W 9489   3.671   6.221   3.449
 5971W        W 9490   6.698   2.854   0.599
 5972W        W 9491   5.675   2.633   2.358
 5973W        W 9492   4.404   2.757   9.023
 5974W        W 9493   6.600   8.373   3.453
 5975W        W 9494   4.145   6.642   0.068
 5976W        W 9495   3.282   5.650   8.769
 5977W        W 9496   2.618   1.800   9.619
 5978W        W 9497   0.347   2.275   2.900
 5979W        W 9498   5.147   1.937   9.059
 5980W        W 9499   1.867   7.597  10.282
 5981W        W 9500   0.002   1.615   2.142
 5982W        W 9501   3.252   9.855   8.684
 5983W        W 9502   5.883   4.151   9.579
 5984W        W 9503   2.016   6.386   3.531
 5985W        W 9504   5.325   1.516   1.908
 5986W        W 9505   4.597   1.781  11.865
 5987W        W 9506   8.592   0.870   9.385
 5988W        W 9507   0.640   9.134  10.995
 5989W        W 9508   2.741   2.171  10.952
 5990W        W 9509   9.159   4.830  10.733
 5991W        W 9510   4.983   7.865  10.653
 5992W        W 9511   9.404   5.540  10.521
 5993W        W 9512   0.718   3.096  10.451
 5994W        W 9513   5.560   1.668   9.215
 5995W        W 9514   3.223   8.612  11.114
 5996W        W 9515   1.502   5.004  10.944
 5997W        W 9516   9.747   6.145  11.825
 5998W        W 9517   4.859   7.141   3.639
 5999W        W 9518   7.973   0.454   3.571
 6000W        W 9519   3.335   4.323  10.502
 6001W        W 9520   4.449   3.079   8.619
 6002W        W 9521   6.405   9.506  11.961
 6003W        W 9522   2.716   2.270   9.819
 6004W        W 9523   3.117   7.572   2.367
 6005W        W 9524   5.138   8.539  11.782
 6006W        W 9525   9.819   8.865  11.308
 6007W        W 9526   7.639   3.986  11.335
 6008W        W 9527   4.488   4.145  10.206
 6009W        W 9528   6.985   8.281   9.902
 6010W        W 9529   9.787   3.415   1.096
 6011W        W 9530   3.698   9.792   2.790
 6012W        W 9531   8.859   3.829  10.456
 6013W        W 9532   9.976   4.909   3.376
 6014W        W 9533   4.855   9.023   3.095
 6015W        W 9534   8.976   0.336  11.528
 6016W        W 9535   2.696   2.952   9.945
 6017W        W 9536   9.087   3.027  10.896
 6018W        W 9537   9.340   2.297   2.705
 6019W        W 9538   1.426   0.985   3.751
 6020W        W 9539   0.370   8.858   1.885
 6021W        W 9540   9.361   2.266   2.201
 6022W        W 9541   3.655   0.722   8.746
 6023W        W 9542   0.322   2.675   8.674
 6024W        W 9543   8.787   0.673   1.191
 6025W        W 9544   6.219   7.114   1.714
 6026W        W 9545   6.474   2.868   1.822
 6027W        W 9546   8.280   0.519   9.590
 6028W        W 9547   7.186   9.982   0.400
 6029W        W 9548   4.945   2.271  11.300
 6030W        W 9549   4.077   5.318  10.460
 6031W        W 9550   4.944   8.023   3.926
 6032W        W 9551   7.989   6.066   2.517
 6033W        W 9552   9.759   6.661   1.844
 6034W        W 9553   7.818   8.613  10.785
 6035W        W 9554   5.651   6.214   0.446
 6036W        W 9555   5.023   1.708  10.906
 6037W        W 9556   7.099   2.836   2.395
 6038W        W 9557   9.781   4.364  11.230
 6039W        W 9558   7.996   5.789   3.474
 6040W        W 9559   6.740   6.439   2.304
 6041W        W 9560   2.645   8.167   9.867
 6042W        W 9561   4.316   5.488   1.423
 6043W        W 9562   4.458   6.982   3.957
 6044W        W 9563   3.792   1.623  10.406
 6045W        W 9564   3.074   7.171   2.036
 6046W        W 9565   2.585   7.824   8.881
 6047W        W 9566   4.687   8.463   0.795
 6048W        W 9567   2.949   1.600   0.937
 6049W        W 9568   4.068   3.233   0.387
 6050W        W 9569   3.530   2.301   1.832
 6051W        W 9570   0.261   8.608   1.025
 6052W        W 9571   1.214   8.019   0.303
 6053W        W 9572   4.526   4.506  11.420
 6054W        W 9573   2.094   2.865   0.939
 6055W        W 9574   9.985   5.907   2.920
 6056W        W 9575   0.890   4.513  10.412
 6057W        W 9576   4.986   4.203   9.457
 6058W        W 9577   3.269   8.869   1.772
 6059W        W 9578   0.370   8.152   1.206
 6060W        W 9579   2.171   5.903   1.487
 6061W        W 9580   0.928   1.592   9.437
 6062W        W 9581   1.443   2.154   8.576
 6063W        W 9582   4.425   8.780   9.298
 6064W        W 9583   5.558   3.004   3.682
 6065W        W 9584   0.813   8.727   9.657
 6066W        W 9585   0.809   8.238   9.798
 6067W        W 9586   8.756   9.023  11.720
 6068W        W 9587   0.381   3.718   3.105
 6069W        W 9588   4.674   3.788   3.996
 6070W        W 9589   5.683   2.595   8.537
 6071W        W 9590   0.537   9.837   0.450
 6072W        W 9591   2.439   1.713   1.624
 6073W        W 9592   6.514   5.616   8.735
 6074W        W 9593   0.050   4.384   2.174
 6075W        W 9594   0.326   8.096   9.734
 6076W        W 9595   6.930   3.078   1.966
 6077W        W 9596   3.087   7.926   9.647
 6078W        W 9597   8.063   0.905   0.364
 6079W        W 9598   7.088   0.250  10.140
 6080W        W 9599   5.565   3.507   2.713
 6081W        W 9600   7.860   2.821   0.731
 6082W        W 9601   2.289   6.262   9.646
 6083W        W 9602   6.689   3.071   9.797
 6084W        W 9603   5.723   3.192   1.573
 6085W        W 9604   0.581   4.367   2.225
 6086W        W 9605   6.523   7.360  10.350
 6087W        W 9606   0.279   5.046   9.709
 6088W        W 9607   9.830   2.619   0.179
 6089W        W 9608   3.726   4.979   9.681
 6090W        W 9609   7.745   2.681   1.623
 6091W        W 9610   3.333   7.852   3.362
 6092W        W 9611   9.118   1.324   1.787
 6093W        W 9612   8.006   7.383   2.173
 6094W        W 9613   9.291   1.083   9.791
 6095W        W 9614   7.935   1.823  10.725
 6096W        W 9615   5.249   2.891   9.254
 6097W        W 9616   3.146   0.438   1.930
 6098W        W 9617   1.498   0.898   3.247
 6099W        W 9618   1.341   9.387   3.212
 6100W        W 9619   5.070   3.688   2.705
 6101W        W 9620   5.703   9.911   0.020
 6102W        W 9621   1.369   1.723   2.115
 6103W        W 9622   6.696   5.495   9.768
 6104W        W 9623   3.777   1.843   3.314
 6105W        W 9624   9.825   5.291   8.805
 6106W        W 9625   2.412   2.243   2.969
 6107W        W 9626   6.559   7.581   2.229
 6108W        W 9627   2.154   8.186  11.163
 6109W        W 9628   5.965   5.856  11.203
 6110W        W 9629   8.084   8.929  11.832
 6111W        W 9630   2.747   9.869   1.825
 6112W        W 9631   0.091   7.347   9.374
 6113W        W 9632   1.912   8.491   8.892
 6114W        W 9633   3.599   1.395   1.669
 6115W        W 9634   0.215   3.810   0.325
 6116W        W 9635   2.613   4.136   3.110
 6117W        W 9636   4.797   4.537   8.342
 6118W        W 9637   1.801   6.686   1.311
 6119W        W 9638   1.507   1.320   0.268
 6120W        W 9639   8.113   2.349   1.354
 6121W        W 9640   6.139   9.023   8.904
 6122W        W 9641   6.753   3.731   1.967
 6123W        W 9642   3.802   5.465   0.682
 6124W        W 9643   5.089   9.646  10.077
 6125W        W 9644   1.483   6.248  10.569
 6126W        W 9645   4.437   8.090   3.216
 6127W        W 9646   0.431   5.060  11.167
 6128W        W 9647   7.896   9.958   3.759
 6129W        W 9648   6.929   3.626  11.519
 6130W        W 9649   6.283   4.169  11.989
 6131W        W 9650   8.029   4.313   1.044
 6132W        W 9651   5.937   1.312  11.272
 6133W        W 9652   4.774   6.377   2.775
 6134W        W 9653   5.649   8.884   1.433
 6135W        W 9654   0.412   6.638   0.435
 6136W        W 9655   1.165   6.567   2.331
 6137W        W 9656   9.607   1.865   2.389
 6138W        W 9657   7.355   6.100   0.726
 6139W        W 9658   4.002   1.094  10.539
 6140W        W 9659   0.875   5.624   9.318
 6141W        W 9660   9.994   1.988   3.166
 6142W        W 9661   0.588   5.087   9.276
 6143W        W 9662   1.727   3.288  11.859
 6144W        W 9663   5.221   5.573   9.302
 6145W        W 9664   5.943   3.738   3.644
 6146W        W 9665   8.795   5.294   3.071
 6147W        W 9666   1.866   4.546   0.456
 6148W        W 9667   2.573   8.748  11.798
 6149W        W 9668   6.602   0.231   3.119
 6150W        W 9669   7.404   3.587  10.489
 6151W        W 9670   9.408   2.758   3.221
 6152W        W 9671   8.899   3.488  10.950
 6153W        W 9672   1.701   8.077  11.508
 6154W        W 9673   7.530   0.291   2.867
 6155W        W 9674   6.479   8.692   9.126
 6156W        W 9675   1.070   9.069   1.199
 6157W        W 9676   9.779   4.333   8.824
 6158W        W 9677   8.029   6.706  11.363
 6159W        W 9678   0.398   5.012  11.797
 6160W        W 9679   1.882   4.639   2.252
 6161W        W 9680   9.898   2.913   8.859
 6162W        W 9681   0.573   0.898  10.463
 6163W        W 9682   4.553   9.773   2.048
 6164W        W 9683   6.267   1.360  10.260
 6165W        W 9684   9.328   2.652   0.035
 6166W        W 9685   1.044   9.879  11.555
 6167W        W 9686   6.441   0.303   1.630
 6168W        W 9687   6.399   5.205  10.272
 6169W        W 9688   9.490   3.604   2.705
 6170W        W 9689   6.438   2.952   2.996
 6171W        W 9690   6.954   1.152   0.783
 6172W        W 9691   6.650   6.051  10.677
 6173W        W 9692   3.068   4.660   2.936
 6174W        W 9693   2.627   9.946   0.222
 6175W        W 9694   1.966   7.845   1.025
 6176W        W 9695   1.213   9.985  11.077
 6177W        W 9696   9.348   7.460   0.801
 6178W        W 9697   3.308   0.751   2.722
 6179W        W 9698   1.881   1.025   1.729
 6180W        W 9699   7.114   3.224  10.254
 6181W        W 9700   8.907   2.626  11.177
 6182W        W 9701   4.408   0.366   1.398
 6183W        W 9702   7.064   4.171  10.336
 6184W        W 9703   5.035   8.381   2.466
 6185W        W 9704   3.482   7.382   1.654
 6186W        W 9705   0.394   6.863  10.828
 6187W        W 9706   4.979   7.403   1.879
 6188W        W 9707   1.813   6.183   9.421
 6189W        W 9708   3.234   6.319   8.025
 6190W        W 9709   0.464   0.946  10.959
 6191W        W 9710   1.932   1.676  11.102
 6192W        W 9711   9.584   9.484   2.312
 6193W        W 9712   9.608   9.386   9.150
 6194W        W 9713   9.308   3.113  11.498
 6195W        W 9714   7.292   5.131   1.922
 6196W        W 9715   3.544   3.577  10.218
 6197W        W 9716   0.782   2.149   1.042
 6198W        W 9717   8.906   5.166   2.166
 6199W        W 9718   7.559   7.225  10.801
 6200W        W 9719   3.440   5.497   4.056
 6201W        W 9720   8.627   5.385   8.999
 6202W        W 9721   4.720   6.370  11.820
 6203W        W 9722   2.043   5.030   1.373
 6204W        W 9723   4.616   9.726   8.905
 6205W        W 9724   7.078   3.656   2.810
 6206W        W 9725   4.603   0.644   9.295
 6207W        W 9726   1.358   1.099  11.835
 6208W        W 9727   7.341   0.624   8.538
 6209W        W 9728   1.843   1.336   9.992
 6210W        W 9729   8.526   9.323  10.945
 6211W        W 9730   2.202   1.741  10.430
 6212W        W 9731   8.536   7.106   9.168
 6213W        W 9732   8.470   3.601  10.703
 6214W        W 9733   2.281   9.359   8.914
 6215W        W 9734   2.668   2.474   1.302
 6216W        W 9735   1.709   3.770   3.314
 6217W        W 9736   4.715   7.833   2.871
 6218W        W 9737   5.153   7.978   1.608
 6219W        W 9738   3.360   3.052  11.743
 6220W        W 9739   5.645   1.025   2.580
 6221W        W 9740   3.733   7.856   3.021
 6222W        W 9741   1.773   6.189   2.266
 6223W        W 9742   7.759   2.123  11.202
 6224W        W 9743   4.561   0.103   9.324
 6225W        W 9744   3.580   3.363  11.371
 6226W        W 9745   8.309   7.996   3.493
 6227W        W 9746   1.513   7.826   3.137
 6228W        W 9747   3.446   7.125   9.056
 6229W        W 9748   0.866   0.296   1.415
 6230W        W 9749   5.739   5.061   9.663
 6231W        W 9750   8.007   8.839   9.061
 6232W        W 9751   5.162   4.166   8.448
 6233W        W 9752   6.144   7.289   9.049
 6234W        W 9753   3.117   2.326   1.513
 6235W        W 9754   7.194   1.447   0.321
 6236W        W 9755   2.890   6.586   1.832
 6237W        W 9756   7.891   0.698   2.820
 6238W        W 9757   4.909   5.747   3.904
 6239W        W 9758   2.298   3.050   1.364
 6240W        W 9759   5.474   4.017   2.018
 6241W        W 9760   8.467   7.539  10.327
 6242W        W 9761   7.550   7.563   3.262
 6243W        W 9762   2.688   6.057   3.105
 6244W        W 9763   4.610   0.852   9.774
 6245W        W 9764   5.229   9.812  11.816
 6246W        W 9765   0.443   7.022   9.230
 6247W        W 9766   6.479   3.702   1.260
 6248W        W 9767   6.176   5.010   3.360
 6249W        W 9768   6.598   4.029  10.157
 6250W        W 9769   5.649   8.824   2.354
 6251W        W 9770   0.717   1.698   0.802
 6252W        W 9771   2.526   0.391  10.783
 6253W        W 9772   4.881   3.282   1.028
 6254W        W 9773   0.893   4.854  10.029
 6255W        W 9774   3.144   8.403   1.600
 6256W        W 9775   0.826   3.172   9.166
 6257W        W 9776   6.160   4.537   2.164
 6258W        W 9777   5.731   0.938   8.527
 6259W        W 9778   9.382   4.378   9.899
 6260W        W 9779   1.918   0.916   3.656
 6261W        W 9780   4.716   8.755   3.557
 6262W        W 9781   9.964   8.457   0.051
 6263W        W 9782   7.610   5.833  11.548
 6264W        W 9783   2.539   1.714   0.608
 6265W        W 9784   6.950   2.882   9.381
 6266W        W 9785   9.443   8.722   3.286
 6267W        W 9786   9.954   4.375   2.684
 6268W        W 9787   0.961   8.313   3.633
 6269W        W 9788   0.442   5.700  10.003
 6270W        W 9789   4.853   7.226   9.635
 6271W        W 9790   9.376   1.422   3.206
 6272W        W 9791   2.537   4.224  10.894
 6273W        W 9792   9.467   6.077   3.048
 6274W        W 9793   4.186   2.257   9.752
 6275W        W 9794   3.521   5.056  11.942
 6276W        W 9795   3.172   6.560   2.658
 6277W        W 9796   3.585   6.010   4.127
 6278W        W 9797   0.363   8.590   9.828
 6279W        W 9798   3.150   9.411  11.511
 6280W        W 9799   4.445   3.738   3.491
 6281W        W 9800   9.239   9.427   1.406
 6282W        W 9801   8.277   1.015  10.679
 6283W        W 9802   0.364   8.713  11.661
 6284W        W 9803   3.288   6.110  10.534
 6285W        W 9804   4.071   5.105   2.079
 6286W        W 9805   7.377   5.910  11.064
 6287W        W 9806   7.878   2.827   0.216
 6288W        W 9807   7.255   9.188   1.855
 6289W        W 9808   1.859   6.959  10.815
 6290W        W 9809   4.234   1.915  10.405
 6291W        W 9810   6.458   3.221   0.320
 6292W        W 9811   8.187   9.920   0.574
 6293W        W 9812   1.734   0.868   0.329
 6294W        W 9813   9.491   0.995   1.903
 6295W        W 9814   5.494   9.579   9.257
 6296W        W 9815   4.539   7.566  10.495
 6297W        W 9816   0.431   7.925   1.944
 6298W        W 9817   5.912   6.187   2.066
 6299W        W 9818   6.602   0.685   2.835
 6300W        W 9819   2.260   9.864  10.468
 6301W        W 9820   3.166   5.526  11.282
 6302W        W 9821   7.654   2.202   9.466
 6303W        W 9822   9.660   4.092   1.882
 6304W        W 9823   3.397   8.426   8.721
 6305W        W 9824   7.267   3.561   8.709
 6306W        W 9825   8.383   5.187   1.411
 6307W        W 9826   8.190   9.767   8.886
 6308W        W 9827   1.391   3.189   1.103
 6309W        W 9828   5.616   7.398   9.287
 6310W        W 9829   7.799   3.316   0.333
 6311W        W 9830   3.153   4.075  11.952
 6312W        W 9831   6.347   5.046   2.056
 6313W        W 9832   8.282   9.376   1.228
 6314W        W 9833   8.287   8.933   9.481
 6315W        W 9834   9.898   1.283   2.517
 6316W        W 9835   7.194   3.113   9.761
 6317W        W 9836   7.888   1.102   3.183
 6318W        W 9837   1.849   9.516  11.639
 6319W        W 9838   2.122   8.301   9.876
 6320W        W 9839   5.082   4.171   8.946
 6321W        W 9840   4.231   1.569   0.761
 6322W        W 9841   2.656   5.110  11.760
 6323W        W 9842   1.675   2.155   0.523
 6324W        W 9843   0.867   4.700   1.912
 6325W        W 9844   7.407   9.497   8.553
 6326W        W 9845   9.345   1.604  10.438
 6327W        W 9846   8.286   0.473   1.293
 6328W        W 9847   1.183   2.641  11.868
 6329W        W 9848   9.054   1.898   9.296
 6330W        W 9849   1.677   2.424   3.555
 6331W        W 9850   2.727   3.452  10.129
 6332W        W 9851   3.469   5.903   1.949
 6333W        W 9852   8.916   7.821  10.269
 6334W        W 9853   6.055   2.160   8.446
 6335W        W 9854   7.237   1.771  11.106
 6336W        W 9855   6.844   9.554   2.671
 6337W        W 9856   5.587   8.397  10.856
 6338W        W 9857   2.907   1.369   0.470
 6339W        W 9858   5.184   9.716  10.942
 6340W        W 9859   0.318   8.517   8.565
 6341W        W 9860   4.334   9.730   2.779
 6342W        W 9861   3.522   9.669   2.330
 6343W        W 9862   0.181   3.804  11.424
 6344W        W 9863   8.872   6.976   2.141
 6345W        W 9864   4.176   1.291   9.758
 6346W        W 9865   7.401   6.647   3.448
 6347W        W 9866   1.280   1.920   0.322
 6348W        W 9867   6.558   9.509   9.964
 6349W        W 9868   4.953   2.212   9.892
 6350W        W 9869   4.862   6.025   9.028
 6351W        W 9870   7.491   0.443   1.095
 6352W        W 9871   8.770   0.824   3.066
 6353W        W 9872   8.094   6.654   1.680
 6354W        W 9873   1.428   9.246   9.276
 6355W        W 9874   1.701   5.770  10.427
 6356W        W 9875   6.829   6.094   3.226
 6357W        W 9876   2.991   5.239   8.531
 6358W        W 9877   6.468   3.158  10.946
 6359W        W 9878   5.504   0.201  10.368
 6360W        W 9879   1.263   3.312   2.731
 6361W        W 9880   5.121   2.049   0.674
 6362W        W 9881   3.249   6.786   0.307
 6363W        W 9882   1.756   3.800   1.822
 6364W        W 9883   0.370   5.684   1.220
 6365W        W 9884   4.626   1.040  10.254
 6366W        W 9885   7.370   5.215   0.687
 6367W        W 9886   1.080   3.618   1.075
 6368W        W 9887   3.443   8.493   0.862
 6369W        W 9888   4.378   2.910   3.563
 6370W        W 9889   2.263   0.844  10.264
 6371W        W 9890   3.092   7.981  10.527
 6372W        W 9891   9.852   8.651   0.520
 6373W        W 9892   2.862   6.715  11.902
 6374W        W 9893   6.155   0.551   9.851
 6375W        W 9894   8.757   0.874  10.863
 6376W        W 9895   8.052   2.537   1.996
 6377W        W 9896   2.525   0.154  11.769
 6378W        W 9897   9.748   2.568   1.273
 6379W        W 9898   2.904   6.944   0.729
 6380W        W 9899   2.296   1.735   3.032
 6381W        W 9900   8.969   3.429   9.631
 6382W        W 9901   0.681   6.431   3.453
 6383W        W 9902   6.038   9.220   0.764
 6384W        W 9903   6.438   9.378  10.879
 6385W        W 9904   5.185   4.060   3.779
 6386W        W 9905   9.958   2.351   8.898
 6387W        W 9906   4.019   8.294   3.015
 6388W        W 9907   0.249   6.713   2.608
 6389W        W 9908   2.170   5.348   0.218
 6390W        W 9909   4.883   6.688  11.463
 6391W        W 9910   0.010   1.381   1.337
 6392W        W 9911   7.996   3.310   0.822
 6393W        W 9912   5.527   1.202  10.113
 6394W        W 9913   8.398   5.988  10.747
 6395W        W 9914   8.587   5.006  11.376
 6396W        W 9915   6.988   6.401  10.495
 6397W        W 9916   8.099   7.720   0.816
 6398W        W 9917   4.792   4.601  11.915
 6399W        W 9918   4.030   1.327   9.286
 6400W        W 9919   7.363   2.358   1.775
 6401W        W 9920   2.436   7.851   0.838
 6402W        W 9921   5.120   2.397   9.351
 6403W        W 9922   8.073   0.900   9.335
 6404W        W 9923   7.148   0.834  11.163
 6405W        W 9924   1.737   0.568   2.831
 6406W        W 9925   0.835   1.657   3.478
 6407W        W 9926   6.586   8.600  11.858
 6408W        W 9927   9.332   8.962   9.407
 6409W        W 9928   3.015   0.215  11.968
 6410W        W 9929   1.587   6.585   1.977
 6411W        W 9930   7.568   1.615   9.459
 6412W        W 9931   1.146   5.059   2.701
 6413W        W 9932   8.668   6.675   0.615
 6414W        W 9933   2.337   2.802  10.449
 6415W        W 9934   9.187   2.895  10.400
 6416W        W 9935   0.968   6.853   1.377
 6417W        W 9936   5.795   0.842  11.422
 6418W        W 9937   3.999   0.761   0.923
 6419W        W 9938   7.399   8.951   2.307
 6420W        W 9939   3.180   9.377   0.013
 6421W        W 9940   1.593   6.297  11.733
 6422W        W 9941   3.108   3.740   9.305
 6423W        W 9942   6.891   6.644  10.975
 6424W        W 9943   2.329   2.483   0.022
 6425W        W 9944   9.797   4.638   9.269
 6426W        W 9945   2.449   8.685  10.049
 6427W        W 9946   4.504   4.357   0.274
 6428W        W 9947   1.288   3.714   3.044
 6429W        W 9948   9.387   2.119  11.157
 6430W        W 9949   5.974   2.959   0.274
 6431W        W 9950   5.642   5.824  10.782
 6432W        W 9951   0.755   3.149  10.984
 6433W        W 9952   2.742   9.680   0.642
 6434W        W 9953   8.421   4.381   8.831
 6435W        W 9954   7.626   6.078  10.394
 6436W        W 9955   0.752   8.599  10.179
 6437W        W 9956   3.233   2.688   2.750
 6438W        W 9957   9.426   0.139  11.361
 6439W        W 9958   2.702   9.425   0.200
 6440W        W 9959   8.246   1.732   8.950
 6441W        W 9960   5.934   3.162  11.023
 6442W        W 9961   9.511   5.765   0.246
 6443W        W 9962   0.008   0.489   3.223
 6444W        W 9963   7.600   1.896   2.499
 6445W        W 9964   8.160   3.213  11.945
 6446W        W 9965   1.646   8.431   9.696
 6447W        W 9966   8.009   1.605   9.839
 6448W        W 9967   1.196   5.825  10.421
 6449W        W 9968   8.416   5.501  10.259
 6450W        W 9969   8.318   5.849  11.806
 6451W        W 9970   9.596   2.400  10.358
 6452W        W 9971   4.663   0.191   3.229
 6453W        W 9972   8.629   5.597   2.074
 6454W        W 9973   8.897   0.439   2.311
 6455W        W 9974   2.888   1.867   1.392
 6456W        W 9975   1.942   3.199   0.369
 6457W        W 9976   3.248   7.422   9.682
 6458W        W 9977   2.095   2.935  11.955
 6459W        W 9978   4.036   4.331   8.095
 6460W        W 9979   5.742   2.016   3.538
 6461W        W 9980   9.560   3.142  10.145
 6462W        W 9981   8.784   1.320  11.596
 6463W        W 9982   0.411   6.203   1.229
 6464W        W 9983   1.255   7.567   0.513
 6465W        W 9984   0.954   6.264  10.547
 6466W        W 9985   8.040   4.426   1.526
 6467W        W 9986   2.417   1.236   2.917
 6468W        W 9987   0.920   1.630  11.249
 6469W        W 9988   0.049   8.200   2.749
 6470W        W 9989   1.534   4.964   0.651
 6471W        W 9990   3.479   9.335   2.720
 6472W        W 9991   7.381   2.304   2.738
 6473W        W 9992   1.547   4.251   2.072
 6474W        W 9993   3.551   7.578   1.164
 6475W        W 9994   9.150   5.033   0.223
 6476W        W 9995   6.907   0.917  10.735
 6477W        W 9996   4.295   9.858   9.709
 6478W        W 9997   3.693   1.792  10.885
 6479W        W 9998   0.754   6.697   9.485
 6480W        W 9999   6.512   9.395   9.083
 6481W        W10000   2.626   4.989  10.294
 6482W        W10001   5.687   5.781   1.829
 6483W        W10002   2.890   8.414   8.811
 6484W        W10003   4.209   7.097   0.976
 6485W        W10004   6.458   2.354   1.876
 6486W        W10005   8.274   8.001   9.143
 6487W        W10006   5.941   2.198  11.545
 6488W        W10007   8.298   4.086   2.793
 6489W        W10008   5.224   7.485   1.415
 6490W        W10009   3.065   5.696   2.239
 6491W        W10010   1.846   7.237   3.284
 6492W        W10011   9.370   9.614   1.863
 6493W        W10012   5.194   6.941   1.880
 6494W        W10013   0.172   5.405   0.032
 6495W        W10014   8.559   0.692   0.421
 6496W        W10015   0.119   5.024   1.747
 6497W        W10016   7.845   1.502   8.680
 6498W        W10017   7.167   8.179   0.676
 6499W        W10018   9.200   6.219   1.210
 6500W        W10019   0.389   8.453   3.628
 6501W        W10020   8.109   7.805  10.038
 6502W        W10021   2.372   7.473   9.361
 6503W        W10022   3.204   5.166   8.974
 6504W        W10023   6.022   7.697   9.347
 6505W        W10024   2.921   8.888  11.427
 6506W        W10025   2.966   5.124   0.769
 6507W        W10026   5.115   0.678   0.923
 6508W        W10027   2.262   3.973   0.016
 6509W        W10028   5.622   4.981   0.849
 6510W        W10029   0.916   9.483  10.645
 6511W        W10030   7.460   1.201   3.499
 6512W        W10031   2.309   4.334   9.125
 6513W        W10032   5.014   9.933  10.494
 6514W        W10033   9.873   7.692  10.290
 6515W        W10034   5.832   1.550   0.108
 6516W        W10035   4.944   2.459  10.353
 6517W        W10036   5.995   3.865   9.138
 6518W        W10037   6.791   1.075  11.445
 6519W        W10038   7.620   3.655   0.934
 6520W        W10039   6.147   0.390   2.958
 6521W        W10040   4.255   8.055   0.660
 6522W        W10041   9.974   3.017   1.359
 6523W        W10042   2.676   0.821   9.096
 6524W        W10043   2.646   5.964   2.329
 6525W        W10044   5.681   7.698   0.425
 6526W        W10045   2.576   5.555  11.999
 6527W        W10046   6.181   9.823  10.887
 6528W        W10047   7.481   8.139   3.423
 6529W        W10048   9.371   4.619   8.962
 6530W        W10049   5.445   7.003   2.348
 6531W        W10050   1.653   7.894   8.944
 6532W        W10051   7.641   5.809   8.756
 6533W        W10052   5.461   9.331  11.686
 6534W        W10053   9.373   7.895  10.510
 6535W        W10054   8.988   4.083   0.090
 6536W        W10055   1.637   8.084   8.468
 6537W        W10056   8.079   8.892   1.382
 6538W        W10057   1.419   3.934  11.973
 6539W        W10058   4.729   4.552   8.848
 6540W        W10059   2.938   8.372   9.436
 6541W        W10060   2.778   4.186   9.348
 6542W        W10061   1.470   2.547  10.798
 6543W        W10062   2.302   5.749   9.687
 6544W        W10063   1.797   4.719  11.787
 6545W        W10064   8.055   2.800  11.203
 6546W        W10065   3.895   0.926   0.288
 6547W        W10066   3.684   3.341   3.197
 6548W        W10067   9.635   7.570   9.471
 6549W        W10068   5.813   6.008   3.493
 6550W        W10069   8.511   6.773   9.617
 6551W        W10070   7.729   6.125   8.340
 6552W        W10071   2.211   0.391   0.931
 6553W        W10072   3.183   9.455  11.002
 6554W        W10073   9.805   0.832   2.272
 6555W        W10074   4.490   0.234  11.860
 6556W        W10075   3.628   9.331  11.796
 6557W        W10076   7.396   3.280   1.244
 6558W        W10077   8.587   3.930   3.627
 6559W        W10078   0.069   9.012   9.870
 6560W        W10079   4.448   5.938   8.250
 6561W        W10080   1.839   9.529   9.170
 6562W        W10081   2.888   2.643   9.170
 6563W        W10082   3.658   7.085   0.416
 6564W        W10083   5.283   5.554   2.669
 6565W        W10084   7.743   5.329  11.161
 6566W        W10085   7.489   7.089   2.096
 6567W        W10086   5.000   6.056   2.450
 6568W        W10087   7.191   3.770  11.082
 6569W        W10088   9.956   3.660   1.952
 6570W        W10089   4.568   0.540  10.194
 6571W        W10090   5.615   3.002   2.692
 6572W        W10091   2.721   2.541  10.256
 6573W        W10092   9.656   9.289  11.553
 6574W        W10093   5.210   5.433   3.609
 6575W        W10094   9.655   7.544  11.254
 6576W        W10095   6.797   5.022   1.802
 6577W        W10096   7.626   2.739   2.561
 6578W        W10097   8.795   0.437   9.588
 6579W        W10098   7.481   7.931   1.462
 6580W        W10099   2.419   8.425  10.807
 6581W        W10100   4.787   3.806  10.876
 6582W        W10101   6.445   1.196   0.001
 6583W        W10102   7.178   9.876  11.895
 6584W        W10103   3.588   5.590   8.373
 6585W        W10104   5.182   0.865   0.430
 6586W        W10105   5.109   8.076   8.550
 6587W        W10106   0.741   0.338  11.585
 6588W        W10107   4.810   6.132  10.705
 6589W        W10108   9.738   5.587   3.342
 6590W        W10109   6.065   0.609   1.010
 6591W        W10110   0.366   7.089   2.277
 6592W        W10111   4.623   3.218   0.158
 6593W        W10112   5.022   5.268   2.354
 6594W        W10113   6.318   9.427   3.297
 6595W        W10114   2.544   5.713   1.900
 6596W        W10115   1.224   2.593   1.686
 6597W        W10116   4.210   3.005  11.943
 6598W        W10117   4.759   5.727  11.494
 6599W        W10118   7.491   4.902   3.299
 6600W        W10119   6.811   2.927   1.450
 6601W        W10120   7.422   4.846   2.778
 6602W        W10121   5.487   8.164   0.344
 6603W        W10122   4.069   4.125   9.895
 6604W        W10123   4.528   9.625  10.361
 6605W        W10124   1.814   9.343  10.096
 6606W        W10125   9.571   6.264   1.575
 6607W        W10126   8.910   7.472   9.053
 6608W        W10127   2.591   4.122   1.740
 6609W        W10128   2.755   4.287   2.641
 6610W        W10129   3.326   3.808   2.058
 6611W        W10130   3.963   0.253   3.635
 6612W        W10131   5.406   5.541  11.131
 6613W        W10132   9.197   2.714   2.436
 6614W        W10133   5.634   3.810  11.225
 6615W        W10134   4.853   0.409   2.448
 6616W        W10135   5.748   1.366   1.589
 6617W        W10136   2.773   5.076  10.770
 6618W        W10137   0.329   8.463   0.527
 6619W        W10138   1.806   1.927   1.836
 6620W        W10139   7.279   2.199  11.374
 6621W        W10140   7.024   4.471   0.367
 6622W        W10141   0.762   6.663  11.495
 6623W        W10142   4.462   5.898   9.419
 6624W        W10143   1.448   9.801  11.860
 6625W        W10144   4.932   1.156   1.083
 6626W        W10145   1.650   5.736  11.857
 6627W        W10146   0.521   2.324   9.534
 6628W        W10147   8.567   0.221  10.863
 6629W        W10148   5.584   9.667   3.311
 6630W        W10149   0.810   7.393  10.004
 6631W        W10150   0.752   1.355  10.843
 6632W        W10151   4.168   2.030   0.015
 6633W        W10152   8.336   5.505   3.225
 6634W        W10153   7.364   1.410   2.509
 6635W        W10154   7.241   4.718   2.211
 6636W        W10155   4.597   4.591  10.495
 6637W        W10156   3.938   7.201   2.409
 6638W        W10157   5.390   8.455   1.612
 6639W        W10158   7.907   8.049  10.467
 6640W        W10159   4.135   3.510   8.678
 6641W        W10160   0.905   6.896   9.935
 6642W        W10161   7.897   6.078   0.743
 6643W        W10162   1.734   9.048   3.347
 6644W        W10163   3.827   7.633  10.692
 6645W        W10164   5.059   6.608   9.640
 6646W        W10165   5.037   1.187  10.883
 6647W        W10166   7.006   7.814   2.245
 6648W        W10167   9.972   8.558   8.992
 6649W        W10168   1.656   3.433   3.685
 6650W        W10169   3.897   7.507   3.386
 6651W        W10170   6.962   8.593   8.954
 6652W        W10171   6.038   8.125  11.744
 6653W        W10172   5.877   4.072   3.024
 6654W        W10173   4.868   5.058   0.898
 6655W        W10174   0.223   3.697   9.272
 6656W        W10175   5.053   8.536   0.285
 6657W        W10176   0.535   7.653  11.357
 6658W        W10177   4.554   9.400   0.267
 6659W        W10178   1.371   7.159  10.811
 6660W        W10179   2.462   9.692   8.555
 6661W        W10180   4.708   1.883   0.921
 6662W        W10181   5.950   3.448   0.306
 6663W        W10182   4.528   4.149   8.147
 6664W        W10183   5.549   0.935   9.639
 6665W        W10184   8.317   6.202   1.647
 6666W        W10185   8.404   3.662   1.336
 6667W        W10186   1.643   6.645   2.481
 6668W        W10187   0.333   2.233   0.808
 6669W        W10188   4.823   5.414  10.957
 6670W        W10189   1.255   0.693   2.832
 6671W        W10190   9.208   9.196   2.507
 6672W        W10191   6.706   2.181   1.468
 6673W        W10192   1.680   8.033   0.072
 6674W        W10193   5.959   3.638   1.240
 6675W        W10194   2.096   7.985  10.688
 6676W        W10195   1.797   1.227   1.250
 6677W        W10196   8.154   8.387   0.457
 6678W        W10197   0.683   5.373   3.442
 6679W        W10198   2.273   5.558   1.064
 6680W        W10199   6.350   4.078  11.084
 6681W        W10200   5.873   7.166   2.677
 6682W        W10201   0.405   0.452   2.392
 6683W        W10202   1.091   9.003   9.990
 6684W        W10203   3.374   9.735   1.210
 6685W        W10204   6.653   0.716   3.352
 6686W        W10205   4.118   9.882  10.201
 6687W        W10206   4.573   6.008  10.281
 6688W        W10207   0.580   7.968   3.594
 6689W        W10208   2.573   4.466  10.283
 6690W        W10209   6.088   5.700   2.115
 6691W        W10210   6.196   2.686   8.553
 6692W        W10211   3.555   4.773  10.667
 6693W        W10212   0.986   7.930   3.150
 6694W        W10213   7.950   5.506   2.891
 6695W        W10214   3.676   6.821  11.995
 6696W        W10215   2.848   1.362   9.800
 6697W        W10216   7.200   4.799   0.978
 6698W        W10217   6.682   1.734   9.523
 6699W        W10218   7.060   3.184   0.455
 6700W        W10219   6.452   6.940   9.255
 6701W        W10220   6.990   0.333  11.834
 6702W        W10221   7.626   5.902   2.912
 6703W        W10222   0.229   0.599  10.245
 6704W        W10223   3.519   4.074  10.049
 6705ION    NA+10224   4.479   0.499  10.988
 6706ION    NA+10225   7.951   4.192   8.841
 6707ION    NA+10226   6.258   8.427   0.735
 6708ION    NA+10227   3.386   1.612   1.226
 6709ION    NA+10228   3.879   6.182   1.805
 6710ION    NA+10229   2.242   5.724  10.515
 6711ION    NA+10230   4.518   6.539  10.366
 6712ION    NA+10231   6.650   5.040  11.688
 6713ION    NA+10232   9.506   3.082   8.554
 6714ION    NA+10233   4.660   8.827   9.878
 6715ION    NA+10234   6.122   3.676   9.616
 6716ION    NA+10235   4.733   7.867   0.735
 6717ION    NA+10236   7.890   5.618  11.961
 6718ION    NA+10237   0.849   3.174  11.951
 6719ION    NA+10238   0.038   9.967   3.053
 6720ION    NA+10239   7.579   8.940  11.765
 6721ION    NA+10240   1.714   7.053   9.502
 6722ION    NA+10241   4.055   2.388  10.314
 6723ION    NA+10242   3.799   0.202   8.862
 6724ION    NA+10243   3.817   8.426   9.544
 6725ION    NA+10244   6.963   1.234   8.951
 6726ION    NA+10245   3.598   5.516  10.997
 6727ION    NA+10246   7.451   4.069   9.577
 6728ION    NA+10247   5.394   9.268  10.203
 6729ION    NA+10248   6.913   9.510  10.687
 6730ION    NA+10249   3.145   0.956   8.932
 6731ION    NA+10250   0.301   5.443  11.517
 6732ION    NA+10251   9.313   3.427   1.314
 6733ION    NA+10252   8.102   1.635   3.173
 6734ION    NA+10253   2.583   5.047   8.805
 6735ION    NA+10254   6.345   0.860   1.773
 6736ION    NA+10255   8.647   1.372  10.752
 6737ION    NA+10256   5.281   8.800   2.703
 6738ION    NA+10257   1.876   4.699   1.744
 6739ION    NA+10258   7.280   9.351   2.841
 6740ION    NA+10259   1.761   9.764   0.440
 6741ION    NA+10260   7.869   7.911   2.222
 6742ION    NA+10261   2.793   6.783   2.320
 6743ION    NA+10262   1.553   6.612   0.849
 6744ION    NA+10263   1.344   8.627   1.102
 6745ION    NA+10264   2.154   5.884   0.032
 6746ION    NA+10265   8.182   4.781   2.140
 6747ION    NA+10266   8.902   9.008  10.276
 6748ION    NA+10267   8.394   7.995  11.977
 6749ION    NA+10268   8.390   8.013   1.592
 6750ION    NA+10269   6.006   6.665   4.033
 6751ION    NA+10270   4.205   9.486   1.025
 6752ION    NA+10271   0.903   3.275   9.664
 6753ION    NA+10272   1.366   0.495   3.718
 6754ION    NA+10273   4.089   5.521   2.392
 6755ION    NA+10274   8.699   2.737   1.221
 6756ION    NA+10275   6.431   8.478   2.254
 6757ION    NA+10276   7.790   4.852  10.969
 6758ION    NA+10277   4.204   5.287   0.356
 6759ION    NA+10278   0.572   4.877   0.295
 6760ION    NA+10279   1.842   0.101   3.124
 6761ION    NA+10280   3.821   4.960  10.179
 6762ION    NA+10281   9.715   7.886   3.011
 6763ION    NA+10282   5.087   5.896   3.425
 6764ION    NA+10283   3.576   9.598   0.256
 6765ION    NA+10284   0.302   0.417   8.599
 6766ION    NA+10285   8.776   7.926   2.452
 6767ION    NA+10286   3.862   6.346   9.110
 6768ION    NA+10287   4.316   0.400   9.753
 6769ION    NA+10288   7.958   7.839   9.523
 6770ION    NA+10289   2.773   1.883   2.457
 6771ION    NA+10290   3.027   2.704  11.585
 6772ION    NA+10291   7.534   2.551  10.490
 6773ION    NA+10292   2.102   5.762   8.817
 6774ION    NA+10293   5.328   4.582   1.557
 6775ION    NA+10294   6.558   6.931   9.870
 6776ION    CL-10295   8.607   4.700   2.252
 6777ION    CL-10296   0.241   1.208   2.919
 6778ION    CL-10297   5.135   8.817   1.334
 6779ION    CL-10298   6.126   0.527  11.187
 6780ION    CL-10299   5.084   4.573   3.057
 6781ION    CL-10300   6.126   3.891  10.005
 6782ION    CL-10301   1.139   3.651   9.683
 6783ION    CL-10302   2.328   5.391   8.981
 6784ION    CL-10303   3.952   5.859   2.115
 6785ION    CL-10304   1.832   1.817   3.295
 6786ION    CL-10305   6.425   8.556   0.342
 6787ION    CL-10306   4.271   8.346   9.500
 6788ION    CL-10307   4.481   1.569   9.427
 6789ION    CL-10308   2.643   5.365   2.278
 6790ION    CL-10309   0.884   4.662   0.058
 6791ION    CL-10310   7.040   1.040   8.522
 6792ION    CL-10311   7.772   4.095   9.250
 6793ION    CL-10312   4.725   7.689   0.322
 6794ION    CL-10313   2.185   8.506  11.569
 6795ION    CL-10314   4.152   6.674  10.581
 6796ION    CL-10315   2.189   9.103   2.130
 6797ION    CL-10316   7.726   9.198   0.098
 6798ION    CL-10317   9.186   2.703   9.501
 6799ION    CL-10318   5.100   4.264   1.325
 6800ION    CL-10319   1.408   0.008   0.323
 6801ION    CL-10320   9.003   3.072   1.280
 6802ION    CL-10321   3.282   3.603   3.536
 6803ION    CL-10322   5.744   7.441   2.276
 6804ION    CL-10323   3.203   4.918   0.371
 6805ION    CL-10324   0.232   0.524   0.929
 6806ION    CL-10325   6.182   2.391   2.319
 6807ION    CL-10326   4.836   5.029   8.621
 6808ION    CL-10327   9.043   1.231  10.607
 6809ION    CL-10328   7.508   4.325   0.264
 6810ION    CL-10329   7.771   5.157  10.644
 6811ION    CL-10330   5.607   6.664   0.224
 6812ION    CL-10331   1.005   8.699   0.809
 6813ION    CL-10332   0.825   8.374   2.285
 6814ION    CL-10333   6.639   1.541   9.057
 6815ION    CL-10334   1.308   4.548  10.091
 6816ION    CL-10335   0.110   7.714   2.877
 6817ION    CL-10336   4.351   4.635  10.968
 6818ION    CL-10337   4.417   0.072  11.108
 6819ION    CL-10338   3.402   8.573   9.671
 6820ION    CL-10339   3.151   7.281   0.381
 6821ION    CL-10340   2.026   6.031  11.630
 6822ION    CL-10341   2.456   1.572   2.394
 6823ION    CL-10342   5.513   4.944   1.763
 6824ION    CL-10343   8.290   7.952   2.037
 6825ION    CL-10344   7.083   4.122   9.834
 6826ION    CL-10345   9.926   0.663   8.740
 6827ION    CL-10346   5.218   8.677   3.133
 6828ION    CL-10347   5.755   3.195   1.060
 6829ION    CL-10348   6.734   3.386   3.120
 6830ION    CL-10349   7.514   9.954   0.862
 6831ION    CL-10350   8.924   9.318  10.595
 6832ION    CL-10351   8.479   9.193   3.562
 6833ION    CL-10352   3.736   6.725   9.314
 6834ION    CL-10353   0.084   3.858   2.706
 6835ION    CL-10354   6.385   7.768   8.979
 6836ION    CL-10355   4.598   3.339   9.711
 6837ION    CL-10356   5.028   9.076   9.998
 6838ION    CL-10357   5.666   0.260   3.103
 6839ION    CL-10358   5.758   3.594   3.181
 6840ION    CL-10359   5.049   7.593   9.348
 6841ION    CL-10360   9.567   5.697   9.081
 6842ION    CL-10361   9.851   2.505   3.072
 6843ION    CL-10362   2.698   4.664  11.546
 6844ION    CL-10363   7.791   2.544  10.852
 6845ION    CL-10364   1.684   8.575   1.405
 6846ION    CL-10365   9.624   3.726   1.470
  10.00000  10.00000  12.00000
