Protein in INSANE! Membrane UpperLeaflet>POPC=1.0 LowerLeaflet>POPC=1.0
12914
    1AU     AUC    1   9.347   1.893   6.048 -0.0150 -0.0377 -0.0321
    1AU     AUC    2   9.217   1.893   5.759 -0.0843 -0.0072  0.0526
    1AU     AUC    3   9.508   1.744   5.833 -0.0708  0.0120  0.0055
    1AU     AUC    4   9.185   2.022   6.317  0.0060  0.0027  0.0234
    1AU     AUC    5   9.511   1.912   6.327  0.0078 -0.0183 -0.0469
    1AU     AUC    6   9.476   2.162   6.173 -0.0394  0.0572 -0.0074
    1AU     AUC    7   9.473   2.067   5.825 -0.0238  0.0198 -0.0832
    1AU     AUC    8   9.257   1.706   6.295 -0.0952 -0.0846 -0.0322
    1AU     AUC    9   9.224   1.601   5.964  0.0206 -0.0790  0.0040
    1AU     AUC   10   9.520   1.611   6.120  0.0294 -0.0556  0.0834
    1AU     AUC   11   9.670   1.948   6.049  0.0241 -0.0250  0.0057
    1AU     AUC   12   9.026   1.869   6.051 -0.0690  0.0694  0.0371
    1AU     AUC   13   9.190   2.142   5.963 -0.0471 -0.0085 -0.0149
    1AU     AUC   14   9.061   1.883   5.402 -0.0877  0.0290  0.0530
    1AU     AUC   15   9.367   1.707   5.484  0.0852  0.0061  0.0000
    1AU     AUC   16   9.671   1.557   5.563  0.0581 -0.0281  0.0508
    1AU     AUC   17   9.056   2.185   6.618 -0.0499  0.0012  0.0393
    1AU     AUC   18   9.377   2.033   6.646 -0.0864  0.0192  0.0377
    1AU     AUC   19   9.698   1.919   6.649  0.0240  0.0119 -0.0902
    1AU     AUC   20   9.592   2.508   6.260  0.0375 -0.0144  0.1090
    1AU     AUC   21   9.579   2.453   5.912  0.1394  0.0276  0.0302
    1AU     AUC   22   9.582   2.284   5.587 -0.0440 -0.1089  0.0440
    1AU     AUC   23   9.089   1.500   6.542  0.0312 -0.0779  0.0256
    1AU     AUC   24   9.086   1.392   6.219  0.0331 -0.1185  0.0640
    1AU     AUC   25   9.069   1.303   5.840 -0.0175 -0.0612  0.1298
    1AU     AUC   26   9.685   1.351   6.211  0.1032 -0.0207 -0.0179
    1AU     AUC   27   9.890   1.629   6.132 -0.0889  0.1206  0.0162
    1AU     AUC   28  10.021   1.966   6.034 -0.0549 -0.0298 -0.0581
    1AU     AUC   29   8.699   1.839   6.023 -0.0032 -0.0682  0.0671
    1AU     AUC   30   8.815   2.136   5.958 -0.0105 -0.0519  0.0117
    1AU     AUC   31   8.972   2.430   5.911 -0.1343 -0.0060  0.0839
    1AU     AUC   32   9.675   1.392   5.898  0.0618 -0.0063 -0.0209
    1AU     AUC   33   9.877   1.752   5.804 -0.0021  0.1101  0.0424
    1AU     AUC   34   8.841   1.891   5.699  0.0037 -0.0209 -0.0713
    1AU     AUC   35   9.041   2.167   5.615  0.0217 -0.0849  0.0446
    1AU     AUC   36   9.749   1.641   6.431 -0.0206 -0.1025  0.0661
    1AU     AUC   37   9.895   1.983   6.340 -0.0778 -0.0083 -0.0574
    1AU     AUC   38   8.861   2.006   6.337 -0.0512 -0.0063  0.0012
    1AU     AUC   39   8.971   2.315   6.305  0.0544  0.0316 -0.1076
    1AU     AUC   40   9.347   2.069   5.463  0.0951  0.0411 -0.0210
    1AU     AUC   41   9.682   1.904   5.564  0.0354 -0.0168  0.0559
    1AU     AUC   42   9.349   2.344   6.474  0.0468 -0.0245 -0.0011
    1AU     AUC   43   9.646   2.239   6.469 -0.0256 -0.0414  0.0276
    1AU     AUC   44   9.083   1.571   5.620  0.0231 -0.0500  0.0006
    1AU     AUC   45   9.373   1.404   5.721 -0.1021 -0.0230  0.0209
    1AU     AUC   46   9.072   1.832   6.629 -0.0419  0.0580  0.0397
    1AU     AUC   47   9.413   1.701   6.580  0.0171 -0.0465 -0.0677
    1AU     AUC   48   9.826   2.287   6.113  0.0631 -0.0737  0.0346
    1AU     AUC   49   9.804   2.160   5.813  0.0220 -0.0562  0.1134
    1AU     AUC   50   9.396   1.414   6.396 -0.0717 -0.0789 -0.0395
    1AU     AUC   51   9.367   1.275   6.059  0.0180 -0.0190 -0.0134
    1AU     AUC   52   9.255   2.430   6.094 -0.0527 -0.0258  0.0113
    1AU     AUC   53   9.289   2.371   5.727  0.0255  0.0195 -0.0307
    1AU     AUC   54   8.885   1.654   6.316  0.0287  0.0402 -0.0146
    1AU     AUC   55   8.885   1.594   5.920 -0.0509  0.0124  0.1403
    1AU    AUSL   56   9.965   1.354   5.670  0.0274 -0.0422  0.0895
    1AU    AUSL   57   9.724   1.054   5.971  0.0580 -0.0591  0.1159
    1AU     AUL   58   9.946   0.990   5.662  0.0206  0.0718 -0.0181
    1AU       S   59   9.604   0.632   5.709 -0.5688  0.3529  0.0512
    1AU     LIG   60   9.924   0.562   5.975 -0.4272  0.3646 -0.2362
    1AU     LIG   61  10.137   0.068   5.906  0.1540 -0.4295 -0.0241
    1AU     LIG   62  10.125  -0.249   6.065 -0.0727  0.0181  0.0688
    1AU     LIG   63   9.814  -0.513   5.999 -0.0767 -0.2774 -0.0165
    1AU     LIG   64   9.612  -0.849   5.902 -0.2629 -0.0068 -0.2127
    1AU       S   65  10.369   1.082   5.801 -0.1139  0.0565 -0.1657
    1AU     LIG   66  10.363   0.611   5.673  0.1738  0.0264 -0.0445
    1AU     LIG   67  10.592   0.200   5.761 -0.0658 -0.4359 -0.1506
    1AU     LIG   68  10.607  -0.250   5.799  0.1847  0.3185 -0.0519
    1AU     LIG   69  10.745  -0.514   5.982 -0.0586  0.1437 -0.0829
    1AU     LIG   70  11.157  -0.878   6.099 -0.0681  0.1610  0.1309
    1AU    AUSL   71  10.070   1.292   6.113 -0.0112 -0.0073  0.0338
    1AU    AUSL   72  10.244   1.711   6.268 -0.0094 -0.0879  0.0461
    1AU     AUL   73  10.407   1.449   6.119  0.0314  0.0857  0.1166
    1AU       S   74  10.139   1.053   6.139 -0.1953  0.1330  0.6646
    1AU     LIG   75  10.425   0.762   6.139  0.0536 -0.2353 -0.3200
    1AU     LIG   76  10.414   0.430   6.143 -0.1514 -0.2966 -0.1571
    1AU     LIG   77  10.543  -0.003   6.240  0.5248  0.1105  0.2130
    1AU     LIG   78  10.455  -0.403   6.412 -0.2160 -0.0085  0.0222
    1AU     LIG   79  10.034  -0.573   6.492 -0.3024  0.1317 -0.0725
    1AU       S   80  10.425   1.465   6.622  0.2546  0.4185  0.1787
    1AU     LIG   81  10.769   1.279   6.496 -0.2550 -0.1186 -0.1184
    1AU     LIG   82  10.860   1.034   6.207  0.3245  0.0013 -0.0045
    1AU     LIG   83  10.801   0.634   5.913 -0.0675 -0.3740  0.0095
    1AU     LIG   84  11.068   0.253   5.796 -0.0608  0.0899 -0.0613
    1AU     LIG   85  11.049  -0.136   5.885 -0.2279  0.1527  0.0593
    1AU    AUSL   86  10.009   1.699   5.911  0.0251 -0.0365 -0.0829
    1AU    AUSL   87  10.070   1.720   5.441 -0.0647 -0.0422  0.0483
    1AU     AUL   88  10.265   1.520   5.658  0.0316  0.0418 -0.0369
    1AU       S   89  10.610   1.860   5.957 -0.0322 -0.3508  0.4096
    1AU     LIG   90  11.043   1.936   5.845  0.0165 -0.3166  0.0933
    1AU     LIG   91  11.423   2.015   5.892 -0.0452  0.0950 -0.1199
    1AU     LIG   92  11.918   1.896   5.879 -0.1318 -0.0080  0.2195
    1AU     LIG   93  12.298   1.970   5.968 -0.2364  0.2802 -0.0175
    1AU     LIG   94  12.705   2.165   6.051  0.1204  0.0224  0.2268
    1AU       S   95  10.404   1.804   5.278 -0.2569  0.0561  0.3280
    1AU     LIG   96  10.929   1.804   5.372 -0.1454 -0.2602  0.3716
    1AU     LIG   97  11.275   1.671   5.411 -0.1746  0.1218  0.1826
    1AU     LIG   98  11.554   1.505   5.739 -0.3137 -0.1526 -0.0711
    1AU     LIG   99  11.547   1.089   6.052 -0.0957 -0.4975 -0.0116
    1AU     LIG  100  11.298   1.177   6.387 -0.1506 -0.3208  0.2261
    1AU    AUSL  101   8.837   2.121   5.443 -0.0040 -0.0179  0.0427
    1AU    AUSL  102   9.026   2.531   5.484 -0.0668  0.0405 -0.0194
    1AU     AUL  103   8.779   2.470   5.222  0.0332  0.0915 -0.0181
    1AU       S  104   8.441   2.504   5.525 -0.3886  0.1681  0.1593
    1AU     LIG  105   8.319   3.045   5.492 -0.0119  0.1365  0.1268
    1AU     LIG  106   8.194   3.351   5.622  0.1434  0.0096  0.0153
    1AU     LIG  107   7.991   3.601   5.883  0.1658 -0.2102 -0.1711
    1AU     LIG  108   7.936   3.971   6.112  0.0068  0.2988  0.1297
    1AU     LIG  109   8.161   4.165   6.502 -0.2131  0.0442  0.1545
    1AU       S  110   9.129   2.723   5.051  0.2571  0.0492  0.0652
    1AU     LIG  111   8.775   2.979   5.346 -0.3239  0.0278 -0.1429
    1AU     LIG  112   8.602   3.401   5.182  0.1601  0.1368  0.1150
    1AU     LIG  113   8.309   3.784   5.324 -0.0302 -0.1082 -0.0770
    1AU     LIG  114   8.388   3.929   5.690  0.1373  0.3149  0.0577
    1AU     LIG  115   8.332   4.217   5.889  0.4143  0.0104  0.0537
    1AU    AUSL  116   8.469   2.035   5.671  0.1555 -0.0441 -0.0791
    1AU    AUSL  117   8.680   1.730   5.376 -0.0452  0.0790 -0.0057
    1AU     AUL  118   8.522   2.035   5.311 -0.0396  0.0329 -0.1352
    1AU       S  119   8.342   1.587   5.272 -0.1531 -0.2330  0.2797
    1AU     LIG  120   7.909   1.493   5.160 -0.0246 -0.0702  0.1337
    1AU     LIG  121   7.774   1.110   5.295 -0.0995 -0.0961 -0.2596
    1AU     LIG  122   7.570   1.049   5.742 -0.0497 -0.3095  0.4784
    1AU     LIG  123   7.648   0.993   6.112 -0.1424  0.0270  0.1626
    1AU     LIG  124   7.897   0.935   6.270  0.2895 -0.0965  0.2242
    1AU       S  125   8.286   2.381   5.469  0.0555 -0.5147  0.2960
    1AU     LIG  126   7.991   2.645   5.746 -0.0374  0.0240 -0.0065
    1AU     LIG  127   7.621   2.764   5.969 -0.4449 -0.2015 -0.2336
    1AU     LIG  128   7.215   2.769   6.020  0.2168  0.0773 -0.1422
    1AU     LIG  129   6.787   3.004   5.930 -0.0333 -0.0256  0.2398
    1AU     LIG  130   6.595   3.328   5.948 -0.0067 -0.1060  0.0023
    1AU    AUSL  131   8.794   2.345   5.809 -0.0257 -0.0361  0.1304
    1AU    AUSL  132   8.523   2.111   6.105 -0.0391 -0.0567  0.0199
    1AU     AUL  133   8.374   2.210   5.873  0.0125  0.0180  0.0743
    1AU       S  134   8.141   2.297   6.260  0.0828 -0.3367  0.1937
    1AU     LIG  135   7.690   2.433   6.300 -0.1257  0.0207  0.1288
    1AU     LIG  136   7.270   2.507   6.447 -0.1092 -0.1895  0.2082
    1AU     LIG  137   6.870   2.580   6.245 -0.0763 -0.3733  0.2480
    1AU     LIG  138   6.492   2.626   5.955 -0.1013  0.0758  0.0976
    1AU     LIG  139   6.289   2.971   5.964  0.1011  0.0518 -0.0254
    1AU       S  140   8.535   2.606   5.656 -0.1653  0.4865  0.2739
    1AU     LIG  141   8.637   2.997   5.911 -0.2857  0.0217 -0.2033
    1AU     LIG  142   8.586   3.041   6.204  0.1195  0.0420 -0.0179
    1AU     LIG  143   8.442   3.054   6.574  0.0862  0.3723 -0.0726
    1AU     LIG  144   8.451   3.184   7.057  0.2659  0.0754 -0.2813
    1AU     LIG  145   8.364   3.238   7.519  0.0547 -0.4130 -0.1675
    1AU    AUSL  146  10.065   1.817   6.648 -0.0861  0.0011  0.0539
    1AU    AUSL  147  10.161   2.133   6.280 -0.0313 -0.1336 -0.0463
    1AU     AUL  148  10.408   1.946   6.412 -0.0759 -0.0331 -0.0008
    1AU       S  149  10.410   1.619   6.714 -0.3765 -0.0556  0.2851
    1AU     LIG  150  10.845   1.769   6.654  0.1095 -0.0907  0.1189
    1AU     LIG  151  11.139   1.740   6.404 -0.1074  0.4299  0.0647
    1AU     LIG  152  11.560   1.613   6.213  0.0306  0.2953  0.3689
    1AU     LIG  153  11.920   1.401   6.191 -0.3907 -0.1477 -0.1415
    1AU     LIG  154  12.192   1.033   6.197 -0.0031  0.5695  0.1508
    1AU       S  155  10.283   2.381   6.585  0.0201  0.0316  0.1320
    1AU     LIG  156  10.693   2.396   6.416  0.2950 -0.0107  0.2020
    1AU     LIG  157  11.077   2.268   6.329  0.2430  0.0441  0.2129
    1AU     LIG  158  11.500   2.182   6.381 -0.1387  0.0811  0.0736
    1AU     LIG  159  11.854   2.270   6.270  0.1088 -0.0145 -0.1986
    1AU     LIG  160  12.201   2.416   6.106  0.0985 -0.0222 -0.0344
    1AU    AUSL  161   9.848   1.536   6.399 -0.0799 -0.0086 -0.0086
    1AU    AUSL  162   9.783   1.532   6.843  0.0569  0.0157  0.0028
    1AU     AUL  163   9.994   1.662   6.907 -0.0481  0.0587  0.0585
    1AU       S  164   9.911   1.169   7.033  0.5146 -0.2010 -0.2510
    1AU     LIG  165  10.321   1.336   7.126  0.1426 -0.0951  0.0819
    1AU     LIG  166  10.730   1.311   7.007 -0.2415  0.3401 -0.1576
    1AU     LIG  167  11.198   1.451   6.808 -0.0698  0.2766 -0.3324
    1AU     LIG  168  11.646   1.289   6.680 -0.2598  0.1392  0.3367
    1AU     LIG  169  12.069   1.231   6.715 -0.0144 -0.2267 -0.2191
    1AU       S  170  10.214   1.350   6.566 -0.0360 -0.1723 -0.6463
    1AU     LIG  171  10.417   0.914   6.617  0.3025 -0.0526  0.4840
    1AU     LIG  172  10.713   0.676   6.560  0.3608  0.0236  0.1548
    1AU     LIG  173  10.855   0.351   6.381 -0.2421  0.0292 -0.0387
    1AU     LIG  174  11.176   0.162   6.263 -0.2431  0.2734  0.2358
    1AU     LIG  175  11.522   0.044   6.408  0.5771 -0.2065  0.0496
    1AU    AUSL  176   8.676   2.263   6.470 -0.0378 -0.0392  0.0045
    1AU    AUSL  177   8.686   1.801   6.387  0.0850 -0.0060  0.0185
    1AU     AUL  178   8.367   1.928   6.385  0.0690 -0.0227  0.0873
    1AU       S  179   8.267   2.383   6.434 -0.1172 -0.1588 -0.3236
    1AU     LIG  180   7.896   2.187   6.713 -0.2492 -0.0009  0.1892
    1AU     LIG  181   7.578   2.497   6.846  0.3743  0.3143 -0.0565
    1AU     LIG  182   7.464   2.841   6.740  0.0689 -0.3732 -0.0507
    1AU     LIG  183   7.531   3.266   6.897  0.0892  0.1736  0.4374
    1AU     LIG  184   7.899   3.257   6.892  0.0187  0.1605  0.4210
    1AU       S  185   8.414   1.957   6.854  0.3928  0.1635  0.3045
    1AU     LIG  186   7.996   1.756   6.886  0.0060 -0.1014 -0.3142
    1AU     LIG  187   7.624   1.656   6.816 -0.2505 -0.0011 -0.1828
    1AU     LIG  188   7.395   2.079   6.718  0.0083  0.0665  0.0544
    1AU     LIG  189   7.052   2.168   6.866 -0.3041 -0.1011 -0.2502
    1AU     LIG  190   6.668   2.351   7.138  0.0302 -0.1551 -0.3416
    1AU    AUSL  191   8.612   2.560   6.122  0.0576  0.0243  0.0023
    1AU    AUSL  192   8.950   2.565   6.641  0.0486  0.0239  0.0599
    1AU     AUL  193   8.646   2.646   6.495 -0.0565 -0.0586 -0.0074
    1AU       S  194   8.868   2.922   6.853 -0.1823 -0.0280 -0.0768
    1AU     LIG  195   9.065   3.348   7.016 -0.1844  0.2923 -0.0335
    1AU     LIG  196   9.188   3.734   7.189  0.2531  0.1588 -0.0530
    1AU     LIG  197   9.271   4.050   6.935  0.2165  0.0695  0.0188
    1AU     LIG  198   9.619   4.317   6.721  0.3492 -0.1873 -0.1275
    1AU     LIG  199   9.739   4.663   6.798 -0.0332 -0.2648  0.1026
    1AU       S  200   8.289   2.587   6.169 -0.2871 -0.5750  0.0680
    1AU     LIG  201   8.120   3.046   6.042 -0.2213  0.0212  0.1851
    1AU     LIG  202   7.753   3.264   6.123 -0.1214  0.1220 -0.2068
    1AU     LIG  203   7.273   3.234   6.177  0.0361 -0.3469 -0.0579
    1AU     LIG  204   7.049   3.038   6.470  0.0950  0.0680  0.3369
    1AU     LIG  205   6.957   2.755   6.768  0.5123  0.4802 -0.1229
    1AU    AUSL  206   9.615   2.129   5.171 -0.0450  0.0095  0.0271
    1AU    AUSL  207   9.154   2.197   5.165 -0.0496 -0.0435 -0.1058
    1AU     AUL  208   9.403   2.227   4.927 -0.0735 -0.0141  0.0390
    1AU       S  209   9.231   2.608   5.062 -0.1712 -0.0785 -0.0820
    1AU     LIG  210   9.422   3.158   5.218 -0.2908 -0.1556  0.2109
    1AU     LIG  211   9.533   3.376   5.440 -0.1321  0.2622  0.0492
    1AU     LIG  212   9.368   3.712   5.676  0.1172 -0.3082 -0.1159
    1AU     LIG  213   9.500   3.836   6.047 -0.0794  0.1598  0.3261
    1AU     LIG  214   9.615   4.354   6.206  0.1114  0.1835 -0.1315
    1AU       S  215   9.752   1.903   4.858  0.0391  0.2469  0.0540
    1AU     LIG  216  10.229   1.938   4.796  0.2042  0.3592  0.1698
    1AU     LIG  217  10.705   1.963   4.730  0.5449 -0.1614 -0.1694
    1AU     LIG  218  11.062   2.070   4.841  0.0182  0.0291 -0.0240
    1AU     LIG  219  11.378   2.066   5.154  0.3160 -0.2500  0.4334
    1AU     LIG  220  11.662   1.996   5.392 -0.0007  0.4187  0.1472
    1AU    AUSL  221   9.320   1.801   5.073  0.0053 -0.0834 -0.0182
    1AU    AUSL  222   9.409   1.369   5.225 -0.0778 -0.0282 -0.0166
    1AU     AUL  223   9.216   1.517   4.913  0.0072 -0.1030 -0.0799
    1AU       S  224   9.640   1.708   4.882  0.2362  0.1365 -0.0419
    1AU     LIG  225   9.991   1.457   4.631 -0.1678  0.0111  0.0530
    1AU     LIG  226  10.170   1.006   4.640 -0.3751 -0.0740  0.1205
    1AU     LIG  227  10.033   0.728   4.479 -0.3014  0.1886 -0.3732
    1AU     LIG  228  10.302   0.368   4.415 -0.2776  0.0565  0.1718
    1AU     LIG  229  10.564   0.158   4.136  0.0391  0.1880 -0.2840
    1AU       S  230   9.165   1.055   5.061  0.3530 -0.2570 -0.2397
    1AU     LIG  231   9.338   0.705   5.146 -0.1642  0.0016  0.0520
    1AU     LIG  232   9.671   0.307   5.145  0.1655  0.0092 -0.2628
    1AU     LIG  233   9.723   0.164   5.586  0.1862  0.2850 -0.1773
    1AU     LIG  234   9.635   0.070   6.016  0.2648  0.2997  0.2065
    1AU     LIG  235   9.669   0.322   6.283  0.1623  0.0573 -0.2109
    1AU    AUSL  236   9.640   1.715   5.385 -0.0738 -0.0407  0.0123
    1AU    AUSL  237   9.835   2.111   5.535 -0.0285  0.0691 -0.0808
    1AU     AUL  238   9.955   2.023   5.236  0.0564  0.0033  0.0157
    1AU       S  239  10.397   2.075   5.280  0.1151 -0.2046  0.2313
    1AU     LIG  240  10.731   2.270   5.180 -0.2269 -0.3545 -0.0836
    1AU     LIG  241  11.071   2.367   5.441 -0.1386  0.0683  0.1775
    1AU     LIG  242  11.489   2.410   5.495  0.1261  0.0114 -0.1609
    1AU     LIG  243  11.872   2.307   5.694  0.1316 -0.1543 -0.4272
    1AU     LIG  244  12.268   2.179   5.551 -0.0354 -0.0115 -0.4238
    1AU       S  245   9.795   1.644   5.031 -0.2038 -0.1366  0.0208
    1AU     LIG  246   9.967   1.329   5.158 -0.1341 -0.2092 -0.0219
    1AU     LIG  247  10.325   1.063   5.254  0.0216  0.1204  0.0723
    1AU     LIG  248  10.706   0.888   5.361 -0.4955 -0.1342  0.2639
    1AU     LIG  249  10.753   0.501   5.390 -0.0264  0.2751 -0.0630
    1AU     LIG  250  10.834  -0.006   5.426 -0.0607 -0.3081  0.3062
    1AU    AUSL  251   9.613   2.560   6.632  0.0303 -0.1376 -0.0877
    1AU    AUSL  252   9.842   2.178   6.589 -0.0326 -0.0329  0.0793
    1AU     AUL  253   9.887   2.578   6.828  0.0429 -0.0379  0.0365
    1AU       S  254  10.195   2.212   6.804 -0.2528  0.0358  0.0259
    1AU     LIG  255  10.644   2.258   6.857  0.0772  0.0888 -0.1394
    1AU     LIG  256  11.123   2.120   6.982  0.1909  0.1286 -0.0622
    1AU     LIG  257  11.505   1.954   6.936  0.4605 -0.0749  0.1915
    1AU     LIG  258  11.789   1.763   6.643  0.0026 -0.1464  0.3921
    1AU     LIG  259  12.063   1.868   6.389  0.0173  0.0229 -0.1479
    1AU       S  260   9.711   2.932   6.561  0.0337 -0.1165  0.4325
    1AU     LIG  261  10.112   3.062   6.742 -0.1243  0.0290  0.1593
    1AU     LIG  262  10.604   3.269   6.849  0.2553 -0.2415 -0.3740
    1AU     LIG  263  11.025   3.223   6.786 -0.4773  0.1515 -0.1321
    1AU     LIG  264  11.409   3.057   6.966 -0.2724 -0.0676 -0.1086
    1AU     LIG  265  11.625   2.771   7.210  0.4305 -0.1011 -0.1405
    1AU    AUSL  266   9.259   2.295   6.693 -0.0762  0.1082 -0.0967
    1AU    AUSL  267   9.284   2.762   6.435  0.0028  0.0493  0.0205
    1AU     AUL  268   9.285   2.688   6.784 -0.0429  0.0341  0.0229
    1AU       S  269   8.840   2.333   7.028 -0.2497  0.0271 -0.5158
    1AU     LIG  270   9.066   2.675   7.299  0.0765  0.0266  0.0562
    1AU     LIG  271   9.491   2.868   7.147  0.0402 -0.0227  0.0361
    1AU     LIG  272   9.639   3.305   6.892  0.1224 -0.2128  0.2558
    1AU     LIG  273   9.638   3.732   6.808 -0.0270  0.3163 -0.2861
    1AU     LIG  274   9.893   3.985   6.910 -0.2131 -0.1169 -0.0961
    1AU       S  275   9.273   3.080   6.533 -0.2020 -0.1000  0.3545
    1AU     LIG  276   9.258   3.564   6.502  0.0445  0.3520  0.2720
    1AU     LIG  277   9.209   4.013   6.431 -0.1443  0.0648 -0.0586
    1AU     LIG  278   9.141   4.317   6.154  0.0745  0.0868 -0.0022
    1AU     LIG  279   9.057   4.754   6.008  0.0344 -0.0006 -0.1427
    1AU     LIG  280   9.036   5.130   6.255 -0.5404 -0.1546  0.2046
    1AU    AUSL  281   9.618   2.229   6.960  0.0067 -0.0021  0.0109
    1AU    AUSL  282   9.189   2.028   7.033  0.0239 -0.0465  0.0340
    1AU     AUL  283   9.338   2.346   7.088  0.0004 -0.0864  0.0082
    1AU       S  284   9.379   1.926   7.282  0.2292 -0.1806  0.5260
    1AU     LIG  285   9.149   2.192   7.518 -0.1564 -0.2805  0.3945
    1AU     LIG  286   9.297   2.327   7.978 -0.0468  0.0576 -0.4233
    1AU     LIG  287   9.403   2.595   8.319  0.0430 -0.0912 -0.0623
    1AU     LIG  288   9.785   2.653   8.454  0.1023 -0.0482  0.1159
    1AU     LIG  289  10.176   2.885   8.357  0.0537  0.2714 -0.0322
    1AU       S  290   9.806   2.199   7.141  0.1128  0.1856 -0.1533
    1AU     LIG  291  10.276   1.993   7.177 -0.1727  0.1517 -0.0085
    1AU     LIG  292  10.672   1.737   7.146  0.0014 -0.2261  0.1118
    1AU     LIG  293  11.068   1.577   7.291  0.0398 -0.2279  0.0215
    1AU     LIG  294  11.415   1.600   7.348 -0.0636 -0.1197  0.3146
    1AU     LIG  295  11.772   1.508   7.067 -0.2459  0.1438  0.1129
    1AU    AUSL  296   9.114   1.214   5.533  0.0111  0.1156  0.0372
    1AU    AUSL  297   9.541   1.313   5.629  0.0329  0.0323 -0.1156
    1AU     AUL  298   9.538   1.170   5.339  0.0716  0.0364 -0.0452
    1AU       S  299   9.062   1.035   5.368 -0.2363  0.3161  0.2036
    1AU     LIG  300   8.874   0.696   5.528 -0.1198  0.1410  0.0152
    1AU     LIG  301   8.778   0.485   5.950 -0.1797  0.2499 -0.0771
    1AU     LIG  302   8.639   0.073   6.171  0.3467  0.3325  0.0424
    1AU     LIG  303   8.326  -0.057   6.474  0.0795  0.1610  0.1260
    1AU     LIG  304   8.070  -0.260   6.675 -0.3355  0.0269 -0.1768
    1AU       S  305   9.505   0.776   5.572 -0.2456 -0.4793 -0.2915
    1AU     LIG  306   9.270   0.333   5.450 -0.0373 -0.2984 -0.1209
    1AU     LIG  307   9.248  -0.018   5.691  0.1978  0.0585  0.0748
    1AU     LIG  308   9.347  -0.395   5.923 -0.1257 -0.0816 -0.0390
    1AU     LIG  309   9.157  -0.799   5.997  0.3837  0.2731  0.0965
    1AU     LIG  310   9.076  -1.188   6.145 -0.5219  0.2744 -0.2688
    1AU    AUSL  311   9.101   1.643   5.403  0.0279  0.1193  0.0550
    1AU    AUSL  312   8.698   1.340   5.562 -0.0467 -0.0290 -0.0547
    1AU     AUL  313   8.845   1.445   5.260 -0.0017  0.0029  0.1024
    1AU       S  314   8.898   1.015   5.164 -0.0210  0.0151  0.3642
    1AU     LIG  315   8.715   0.874   4.752  0.1387 -0.2965  0.1121
    1AU     LIG  316   8.349   0.606   4.770  0.1365 -0.2944  0.1072
    1AU     LIG  317   8.306   0.322   4.978  0.1301  0.2777 -0.0568
    1AU     LIG  318   8.492   0.132   5.343 -0.2283  0.1332 -0.0195
    1AU     LIG  319   8.788   0.169   5.538  0.1130  0.0407 -0.2463
    1AU       S  320   8.297   1.369   5.387  0.0505  0.1273 -0.2223
    1AU     LIG  321   8.060   1.193   5.705  0.0854  0.2032 -0.1132
    1AU     LIG  322   7.998   0.840   5.746  0.0791  0.2057  0.1196
    1AU     LIG  323   7.786   0.497   6.021  0.1599 -0.2945  0.1762
    1AU     LIG  324   7.477   0.219   6.121 -0.0913  0.3904  0.2669
    1AU     LIG  325   7.186  -0.106   6.115 -0.1184 -0.2139 -0.1061
    1AU    AUSL  326   9.152   1.614   6.906 -0.0170 -0.0035 -0.0020
    1AU    AUSL  327   8.891   1.982   6.726 -0.0254  0.0153  0.0542
    1AU     AUL  328   8.925   1.826   7.091 -0.0268 -0.0166 -0.0810
    1AU       S  329   8.539   2.028   6.875 -0.6685  0.1508  0.0479
    1AU     LIG  330   8.344   2.420   7.007  0.2546 -0.1562  0.1614
    1AU     LIG  331   8.545   2.759   7.256  0.1476  0.7469  0.1616
    1AU     LIG  332   8.792   3.069   7.461 -0.1352 -0.1735  0.1896
    1AU     LIG  333   9.200   3.213   7.497 -0.0107  0.1676  0.0591
    1AU     LIG  334   9.532   3.296   7.513  0.0674 -0.2353  0.0521
    1AU       S  335   9.233   1.600   7.355  0.0418 -0.2817 -0.0954
    1AU     LIG  336   9.440   1.818   7.718 -0.1862  0.2567  0.4585
    1AU     LIG  337   9.826   2.121   7.646  0.3048 -0.1587 -0.1290
    1AU     LIG  338  10.306   2.289   7.684 -0.9914  0.1157 -0.0359
    1AU     LIG  339  10.724   2.267   7.917  0.0382  0.2404 -0.1890
    1AU     LIG  340  10.995   2.412   8.203 -0.4020 -0.0800  0.3335
    1AU    AUSL  341   9.505   1.854   6.785 -0.0422  0.0107  0.0548
    1AU    AUSL  342   9.417   1.422   6.607  0.0260  0.1067 -0.0116
    1AU     AUL  343   9.458   1.442   6.961  0.0000 -0.0231 -0.0666
    1AU       S  344   9.812   1.049   7.004  0.0413  0.1451 -0.4935
    1AU     LIG  345  10.067   0.712   7.129  0.2153  0.1118  0.3444
    1AU     LIG  346  10.316   0.488   6.827 -0.3315  0.0919 -0.1206
    1AU     LIG  347  10.600   0.150   6.725  0.3570 -0.0511  0.0479
    1AU     LIG  348  10.951  -0.068   6.660 -0.1869  0.0761  0.1471
    1AU     LIG  349  11.058  -0.372   6.322 -0.2012  0.2019  0.0132
    1AU       S  350   9.565   1.789   7.192  0.5006 -0.3598  0.1414
    1AU     LIG  351   9.824   1.576   7.318  0.2052  0.1824 -0.5960
    1AU     LIG  352  10.167   1.682   7.571  0.4898 -0.0163  0.1851
    1AU     LIG  353  10.604   1.841   7.580 -0.2469 -0.1171  0.4073
    1AU     LIG  354  10.938   2.039   7.495 -0.2840  0.1620  0.2580
    1AU     LIG  355  11.370   2.087   7.436 -0.1085  0.3820  0.0353
    1AU    AUSL  356  10.025   2.348   5.917  0.0325  0.1064 -0.0104
    1AU    AUSL  357   9.902   2.507   6.313 -0.0851 -0.0916 -0.0248
    1AU     AUL  358  10.306   2.383   6.105  0.0295 -0.0040 -0.0544
    1AU       S  359  10.113   2.640   6.410  0.3309 -0.3713  0.0268
    1AU     LIG  360  10.520   2.890   6.407  0.2449  0.0103  0.0154
    1AU     LIG  361  10.894   2.810   6.472 -0.2227 -0.0840  0.0408
    1AU     LIG  362  11.370   2.660   6.496 -0.0719 -0.3398  0.0264
    1AU     LIG  363  11.724   2.805   6.229  0.1757  0.1548  0.4680
    1AU     LIG  364  11.785   2.824   5.865  0.0214  0.0922  0.4132
    1AU       S  365  10.289   2.742   5.801  0.0776 -0.3928 -0.0771
    1AU     LIG  366  10.585   2.815   5.955  0.0261  0.0815 -0.0282
    1AU     LIG  367  10.948   3.108   6.031 -0.2536  0.1529 -0.2729
    1AU     LIG  368  11.382   3.138   6.365 -0.0781 -0.1317  0.0229
    1AU     LIG  369  11.607   3.423   6.689  0.0548  0.0019 -0.3686
    1AU     LIG  370  11.839   3.718   7.053  0.1103  0.1972  0.2490
    1AU    AUSL  371   9.821   2.766   5.960 -0.1335  0.0853  0.0352
    1AU    AUSL  372   9.461   2.758   5.663  0.1077  0.1457 -0.0731
    1AU     AUL  373   9.743   3.025   5.656 -0.0287  0.0147  0.0589
    1AU       S  374  10.082   2.823   5.931 -0.0179  0.3066 -0.1712
    1AU     LIG  375  10.196   3.181   6.129  0.1960  0.0124  0.2031
    1AU     LIG  376  10.464   3.434   6.356  0.0658  0.1230  0.0247
    1AU     LIG  377  10.848   3.528   6.357 -0.2136  0.1547 -0.2282
    1AU     LIG  378  11.208   3.723   6.325  0.3272 -0.3167 -0.0449
    1AU     LIG  379  11.737   3.806   6.380 -0.2290 -0.1377 -0.2070
    1AU       S  380   9.379   3.089   5.905 -0.1305  0.3418  0.0763
    1AU     LIG  381   9.762   3.433   5.872  0.1342  0.3199 -0.5696
    1AU     LIG  382  10.000   3.773   5.996  0.1085  0.1062 -0.1903
    1AU     LIG  383  10.386   3.916   6.208  0.2706 -0.3106 -0.0649
    1AU     LIG  384  10.542   4.328   6.340 -0.2854  0.1729  0.2349
    1AU     LIG  385  10.730   4.751   6.239  0.0990  0.1316  0.0618
    1AU    AUSL  386   9.837   2.546   5.578 -0.0413  0.0670  0.0249
    1AU    AUSL  387  10.241   2.019   5.742 -0.0693  0.0090 -0.0290
    1AU     AUL  388  10.138   2.351   5.585  0.0508 -0.0514 -0.0513
    1AU       S  389  10.427   1.985   5.529 -0.1398  0.3457 -0.1215
    1AU     LIG  390  10.625   2.301   5.732 -0.3669 -0.2466 -0.0428
    1AU     LIG  391  10.978   2.534   5.903 -0.1571 -0.3550 -0.0176
    1AU     LIG  392  11.274   2.712   6.021  0.1285 -0.1365  0.0263
    1AU     LIG  393  11.383   3.096   5.803  0.1192  0.1702  0.0558
    1AU     LIG  394  11.540   3.512   5.899 -0.0774 -0.1264  0.2510
    1AU       S  395  10.145   2.812   5.614  0.0869 -0.0902  0.2060
    1AU     LIG  396  10.257   3.306   5.646 -0.1080 -0.0862 -0.1698
    1AU     LIG  397  10.559   3.640   5.856  0.1708  0.1458  0.2873
    1AU     LIG  398  10.850   3.921   6.040  0.3616 -0.3783 -0.2004
    1AU     LIG  399  11.018   4.166   6.380 -0.2777  0.1076 -0.1341
    1AU     LIG  400  11.506   4.259   6.512  0.2698  0.0772  0.1578
    1AU    AUSL  401   9.436   1.121   6.301 -0.0962  0.0014 -0.0147
    1AU    AUSL  402   9.279   1.022   5.874 -0.0615 -0.0287 -0.0234
    1AU     AUL  403   9.587   0.836   6.154  0.0275  0.0165  0.0458
    1AU       S  404   9.266   0.650   6.481  0.1225  0.0849  0.2030
    1AU     LIG  405   9.616   0.572   6.770 -0.1982 -0.2710 -0.0261
    1AU     LIG  406   9.839   0.280   6.964  0.3458  0.0240  0.0688
    1AU     LIG  407   9.818  -0.067   7.197 -0.1010  0.1348 -0.0972
    1AU     LIG  408   9.731  -0.290   7.637  0.3417 -0.2308  0.0568
    1AU     LIG  409   9.819  -0.366   8.045  0.0473 -0.3482  0.1293
    1AU       S  410   9.357   0.855   5.719  0.1424  0.4118  0.1389
    1AU     LIG  411   9.274   0.457   5.967 -0.3794  0.2464 -0.3286
    1AU     LIG  412   9.181   0.129   6.302  0.0024 -0.1509 -0.0123
    1AU     LIG  413   9.402  -0.220   6.376  0.0906  0.2204  0.2021
    1AU     LIG  414   9.515  -0.693   6.420 -0.1480  0.0685  0.2312
    1AU     LIG  415   9.679  -0.934   6.852  0.1971 -0.0629 -0.0038
    1AU    AUSL  416   9.112   1.139   6.636  0.0317  0.0144 -0.0107
    1AU    AUSL  417   9.774   1.153   6.555 -0.0861 -0.0519 -0.0573
    1AU     AUL  418   9.477   1.050   6.669 -0.0277 -0.0136 -0.0164
    1AU       S  419   9.130   0.733   6.665 -0.0143  0.1279  0.1552
    1AU     LIG  420   9.084   0.388   7.026 -0.0363  0.3741 -0.1408
    1AU     LIG  421   8.802   0.130   7.310 -0.0361  0.1508 -0.3435
    1AU     LIG  422   8.533   0.199   7.615  0.4865  0.0332 -0.3756
    1AU     LIG  423   8.486   0.574   7.706  0.3775 -0.0796 -0.2071
    1AU     LIG  424   8.591   0.752   8.010 -0.0893  0.3386 -0.0801
    1AU       S  425   9.925   1.031   6.769 -0.0329  0.2457  0.0426
    1AU     LIG  426   9.976   0.710   6.466 -0.0570 -0.0212  0.0876
    1AU     LIG  427  10.132   0.243   6.435 -0.3986  0.2256 -0.1372
    1AU     LIG  428   9.870  -0.092   6.475  0.0151 -0.1786 -0.2860
    1AU     LIG  429   9.685  -0.348   6.773  0.0203 -0.0202 -0.1643
    1AU     LIG  430   9.595  -0.517   7.173 -0.0095  0.0120  0.0803
    1AU    AUSL  431   9.028   0.995   6.223 -0.0589  0.1156 -0.0245
    1AU    AUSL  432   8.889   1.402   6.369 -0.0338 -0.1093  0.0542
    1AU     AUL  433   8.804   1.046   6.545 -0.0394 -0.0344  0.0689
    1AU       S  434   8.537   1.022   6.152 -0.0430  0.1790  0.4168
    1AU     LIG  435   8.292   0.553   6.047  0.3221 -0.1272 -0.3974
    1AU     LIG  436   8.193   0.128   6.028  0.0715 -0.2572 -0.3152
    1AU     LIG  437   8.134  -0.397   6.207 -0.2064  0.0586 -0.0750
    1AU     LIG  438   7.923  -0.769   6.073 -0.3237  0.1486  0.1522
    1AU     LIG  439   7.778  -0.972   5.722 -0.0034  0.1202 -0.0327
    1AU       S  440   9.122   0.769   6.279 -0.0848  0.1573 -0.2976
    1AU     LIG  441   8.712   0.561   6.452 -0.1744  0.1731 -0.0136
    1AU     LIG  442   8.303   0.412   6.541  0.4583  0.0491 -0.0214
    1AU     LIG  443   7.892   0.209   6.484 -0.2980 -0.2132 -0.3672
    1AU     LIG  444   7.678  -0.172   6.316  0.2466  0.0481 -0.2289
    1AU     LIG  445   7.694  -0.652   6.488  0.0820 -0.3398 -0.0309
    1AU    AUSL  446   9.049   2.739   5.871 -0.0170 -0.0897 -0.0950
    1AU    AUSL  447   9.430   2.371   5.469 -0.0030 -0.0924  0.0671
    1AU     AUL  448   9.194   2.773   5.513  0.1033  0.0060  0.0396
    1AU       S  449   9.162   3.095   5.818  0.1940  0.0142 -0.2662
    1AU     LIG  450   8.996   3.474   6.039 -0.0832 -0.2140 -0.0733
    1AU     LIG  451   8.988   3.907   5.913 -0.0791  0.0558  0.3618
    1AU     LIG  452   8.809   4.316   5.812  0.1466 -0.0406  0.0759
    1AU     LIG  453   8.541   4.651   6.091 -0.4291  0.1444 -0.0803
    1AU     LIG  454   8.544   5.024   6.008  0.0127 -0.1189 -0.0386
    1AU       S  455   9.463   2.607   5.198  0.2273 -0.0167  0.0105
    1AU     LIG  456   9.758   2.803   5.220 -0.2099 -0.0821  0.3973
    1AU     LIG  457   9.949   3.201   5.254 -0.2788  0.3465 -0.0465
    1AU     LIG  458   9.936   3.617   5.421 -0.1691 -0.3338  0.1000
    1AU     LIG  459  10.121   4.055   5.550  0.2961 -0.0941  0.2206
    1AU     LIG  460  10.452   4.203   5.662  0.0113 -0.2550 -0.2354
    1AU    AUSL  461   9.434   2.607   6.073 -0.0184  0.0355  0.0647
    1AU    AUSL  462   9.016   2.471   6.212 -0.0077  0.0003 -0.0049
    1AU     AUL  463   9.036   2.831   6.190  0.0222 -0.0363 -0.0338
    1AU       S  464   9.482   3.055   6.090  0.0601 -0.1849  0.0020
    1AU     LIG  465   9.801   3.386   6.378  0.0511 -0.0828  0.2425
    1AU     LIG  466  10.068   3.542   6.603 -0.2047  0.0235  0.0253
    1AU     LIG  467  10.086   3.540   7.080 -0.0560  0.0485 -0.0361
    1AU     LIG  468  10.182   3.858   7.302 -0.0682 -0.2577  0.0388
    1AU     LIG  469  10.133   4.115   7.527 -0.1869  0.0802 -0.0076
    1AU       S  470   8.945   3.040   6.600  0.0215 -0.0703  0.2580
    1AU     LIG  471   8.769   3.445   6.485 -0.1841 -0.0268 -0.0114
    1AU     LIG  472   8.777   3.837   6.680 -0.0248  0.0273 -0.2316
    1AU     LIG  473   8.394   4.075   6.901 -0.3986 -0.0259  0.0021
    1AU     LIG  474   8.065   4.102   7.062 -0.1156  0.2458  0.2298
    1AU     LIG  475   7.676   4.291   7.067 -0.2673  0.2154 -0.0177
    1AU    AUSL  476   8.506   1.475   6.150 -0.0090 -0.0872  0.0708
    1AU    AUSL  477   8.747   1.529   6.747 -0.1028 -0.1622  0.0451
    1AU     AUL  478   8.494   1.433   6.515  0.0203  0.0117 -0.0353
    1AU       S  479   8.507   1.715   6.886  0.1018  0.5680  0.1959
    1AU     LIG  480   8.348   1.384   6.993  0.2656 -0.1758 -0.2118
    1AU     LIG  481   7.926   1.218   6.988  0.3421  0.1505  0.0855
    1AU     LIG  482   7.728   0.915   6.732  0.5392 -0.1003  0.2722
    1AU     LIG  483   7.394   0.791   6.528 -0.2198  0.0985 -0.0500
    1AU     LIG  484   7.318   0.647   6.201 -0.0566 -0.1107 -0.0028
    1AU       S  485   8.360   1.109   6.189 -0.1815 -0.1671 -0.0810
    1AU     LIG  486   8.291   0.883   6.542  0.0304 -0.0773 -0.2360
    1AU     LIG  487   8.121   0.736   6.950  0.1208  0.1038 -0.0984
    1AU     LIG  488   7.712   0.842   7.235 -0.2479  0.0412 -0.0525
    1AU     LIG  489   7.832   1.103   7.612  0.3403 -0.0648 -0.1229
    1AU     LIG  490   8.113   1.076   7.908 -0.4279  0.0744 -0.2177
    1AU    AUSL  491   8.864   1.284   5.946  0.0128 -0.0106 -0.0221
    1AU    AUSL  492   8.674   1.701   5.815 -0.0480  0.0792 -0.1116
    1AU     AUL  493   8.485   1.376   5.822  0.0156 -0.0582  0.0154
    1AU       S  494   8.641   0.970   5.984 -0.2445 -0.2554 -0.4785
    1AU     LIG  495   8.457   0.921   5.615  0.0369  0.1951 -0.0216
    1AU     LIG  496   8.365   0.541   5.573  0.3781 -0.0774 -0.1304
    1AU     LIG  497   8.014   0.305   5.575 -0.1101 -0.4675  0.1873
    1AU     LIG  498   7.660   0.130   5.654  0.1982  0.1543 -0.4457
    1AU     LIG  499   7.214   0.256   5.727 -0.1058  0.0513 -0.3035
    1AU       S  500   8.228   1.656   5.520 -0.2586 -0.2522 -0.1745
    1AU     LIG  501   7.759   1.593   5.616  0.5178  0.0162  0.4551
    1AU     LIG  502   7.686   1.504   6.025  0.2336  0.2972 -0.2059
    1AU     LIG  503   7.430   1.306   6.442  0.3125 -0.0339  0.1230
    1AU     LIG  504   7.358   1.264   6.845  0.2605  0.1655  0.0336
    1AU     LIG  505   7.247   1.021   7.151  0.1504  0.1242  0.0330
    2POPC   NC3  506   4.773   7.568   8.075  0.0943 -0.3681  0.0711
    2POPC   PO4  507   4.302   7.607   8.125 -0.1478 -0.0329  0.3393
    2POPC   GL1  508   4.019   7.673   7.804  0.0794  0.1448 -0.3170
    2POPC   GL2  509   3.910   7.425   7.697  0.0102  0.1238 -0.1074
    2POPC   C1A  510   3.934   8.047   7.427  0.2073  0.1172 -0.2652
    2POPC   D2A  511   3.598   8.144   7.043  0.0122  0.1156  0.3311
    2POPC   C3A  512   3.107   7.968   7.079 -0.0675  0.0086  0.0373
    2POPC   C4A  513   2.883   7.630   6.874 -0.0861 -0.0583  0.1446
    2POPC   C1B  514   3.980   7.510   7.290 -0.0121 -0.1331 -0.1914
    2POPC   C2B  515   3.897   7.733   6.976 -0.0851  0.1363 -0.0495
    2POPC   C3B  516   3.854   8.040   6.528 -0.2247  0.1491 -0.3574
    2POPC   C4B  517   3.704   8.130   6.154  0.0589 -0.1013  0.1254
    3POPC   NC3  518   9.836   5.235   8.044 -0.1036 -0.0288  0.1078
    3POPC   PO4  519   9.892   5.554   7.822  0.1103 -0.0338  0.0794
    3POPC   GL1  520  10.049   5.568   7.334  0.2660  0.3082 -0.4101
    3POPC   GL2  521  10.131   5.217   7.332 -0.3172  0.3082  0.1215
    3POPC   C1A  522  10.181   5.454   6.916 -0.3588 -0.1391  0.1957
    3POPC   D2A  523  10.468   5.342   6.611  0.1851 -0.0440  0.0501
    3POPC   C3A  524  10.829   5.007   6.670  0.0939  0.0540 -0.0829
    3POPC   C4A  525  11.251   5.020   6.940 -0.3194 -0.2224  0.0586
    3POPC   C1B  526   9.964   4.908   7.274  0.0634 -0.0515  0.2528
    3POPC   C2B  527   9.756   4.482   7.216 -0.1700  0.1823  0.0898
    3POPC   C3B  528   9.625   4.044   7.328 -0.2953  0.1183  0.1403
    3POPC   C4B  529   9.686   3.694   7.268 -0.0802  0.3872 -0.2838
    4POPC   NC3  530   2.999   2.010   7.942 -0.0228  0.2242  0.1220
    4POPC   PO4  531   3.396   1.793   8.028  0.0807  0.1682 -0.0004
    4POPC   GL1  532   3.359   2.047   7.579 -0.1631 -0.1350  0.0897
    4POPC   GL2  533   3.531   1.926   7.334 -0.1250  0.0191 -0.0831
    4POPC   C1A  534   3.091   1.955   7.214  0.4286  0.0178  0.5053
    4POPC   D2A  535   3.053   1.698   6.844 -0.0077 -0.0860  0.1909
    4POPC   C3A  536   2.844   1.712   6.501  0.0320 -0.0262  0.4190
    4POPC   C4A  537   2.440   1.764   6.291  0.1402 -0.3102 -0.0227
    4POPC   C1B  538   3.449   2.324   7.147  0.2740 -0.0572  0.2251
    4POPC   C2B  539   3.299   2.679   7.139 -0.3475 -0.2077  0.1453
    4POPC   C3B  540   3.137   3.028   6.902  0.4695  0.0444  0.1004
    4POPC   C4B  541   2.901   3.026   6.671  0.5072  0.0890  0.1605
    5POPC   NC3  542   1.590   4.264   8.581  0.3190  0.0916 -0.1526
    5POPC   PO4  543   2.062   4.484   8.486 -0.0572 -0.2469  0.0289
    5POPC   GL1  544   2.157   4.532   8.060 -0.0442 -0.0962  0.1476
    5POPC   GL2  545   2.002   4.224   7.798  0.2737 -0.1843  0.2123
    5POPC   C1A  546   2.266   4.608   7.658  0.0054  0.0378 -0.2144
    5POPC   D2A  547   2.125   4.584   7.233  0.0303  0.2493  0.2519
    5POPC   C3A  548   2.235   4.816   6.930 -0.3397  0.3196 -0.1235
    5POPC   C4A  549   2.257   4.896   6.507  0.1267  0.0284 -0.0639
    5POPC   C1B  550   2.226   4.082   7.430 -0.1679  0.0675 -0.1312
    5POPC   C2B  551   2.103   4.075   6.994 -0.0156 -0.2617 -0.1793
    5POPC   C3B  552   1.966   3.890   6.668  0.0623 -0.0551 -0.1114
    5POPC   C4B  553   1.533   3.636   6.653 -0.1997  0.0806  0.1911
    6POPC   NC3  554   5.052   9.952   7.980  0.2400  0.1631 -0.1243
    6POPC   PO4  555   5.073   9.462   8.007  0.1433 -0.0300  0.1357
    6POPC   GL1  556   4.763   9.386   7.704  0.2719 -0.2847 -0.2174
    6POPC   GL2  557   4.745   9.009   7.672  0.1368 -0.0595 -0.0741
    6POPC   C1A  558   4.905   9.239   7.200  0.1202  0.1046 -0.4929
    6POPC   D2A  559   4.894   8.971   6.706  0.1541  0.0131  0.2963
    6POPC   C3A  560   4.589   9.085   6.380  0.0674  0.0280 -0.1853
    6POPC   C4A  561   4.375   9.521   6.411 -0.0790 -0.0830  0.4766
    6POPC   C1B  562   4.351   9.105   7.500 -0.0518 -0.0061 -0.3078
    6POPC   C2B  563   4.037   9.224   7.286  0.1189 -0.0799 -0.1581
    6POPC   C3B  564   3.908   9.575   7.142  0.1378 -0.2072  0.0772
    6POPC   C4B  565   4.026   9.861   6.773 -0.0754 -0.1653 -0.5323
    7POPC   NC3  566   1.820   3.086   8.687  0.0928 -0.2250  0.6135
    7POPC   PO4  567   1.590   2.672   8.703  0.1020  0.1583  0.1685
    7POPC   GL1  568   1.484   2.754   8.273 -0.2009 -0.1261 -0.2013
    7POPC   GL2  569   1.329   2.528   8.118  0.2060  0.2921  0.3060
    7POPC   C1A  570   1.430   2.924   7.882 -0.0497 -0.0868  0.2291
    7POPC   D2A  571   1.359   2.907   7.350 -0.1776 -0.0934 -0.1289
    7POPC   C3A  572   1.490   2.724   7.043  0.2677  0.1621 -0.1033
    7POPC   C4A  573   1.527   2.640   6.580 -0.2446 -0.2299 -0.0607
    7POPC   C1B  574   1.029   2.656   7.722  0.0707  0.1988  0.1895
    7POPC   C2B  575   0.640   2.565   7.630 -0.1410  0.3239  0.2303
    7POPC   C3B  576   0.412   2.525   7.285 -0.1138 -0.3863 -0.0846
    7POPC   C4B  577   0.327   2.648   6.886 -0.1507  0.0694  0.1996
    8POPC   NC3  578   2.808   0.935   8.592 -0.3463 -0.1609  0.2604
    8POPC   PO4  579   2.532   1.228   8.485 -0.1403 -0.4057 -0.1561
    8POPC   GL1  580   2.253   1.182   8.105  0.0352  0.0645 -0.0320
    8POPC   GL2  581   2.046   1.025   8.053 -0.0968  0.0176  0.2865
    8POPC   C1A  582   2.162   1.434   7.780  0.1166 -0.1485  0.1707
    8POPC   D2A  583   2.229   1.603   7.351 -0.2877  0.2225 -0.1003
    8POPC   C3A  584   2.293   2.161   7.341  0.2100 -0.1633 -0.0335
    8POPC   C4A  585   2.547   2.394   7.133 -0.2177  0.2349 -0.2146
    8POPC   C1B  586   2.056   0.970   7.613 -0.0486  0.0914  0.1480
    8POPC   C2B  587   1.803   1.028   7.247  0.0303  0.2165 -0.0575
    8POPC   C3B  588   1.767   1.427   6.955  0.0925 -0.0900  0.0145
    8POPC   C4B  589   1.484   1.696   6.861 -0.2402  0.0841  0.0121
    9POPC   NC3  590   3.030   9.123   8.159  0.1160 -0.4279  0.1462
    9POPC   PO4  591   2.675   9.214   8.061  0.3339 -0.2574 -0.0833
    9POPC   GL1  592   2.747   9.005   7.731 -0.1539  0.1680  0.2813
    9POPC   GL2  593   2.503   9.025   7.501 -0.0571  0.1060  0.2081
    9POPC   C1A  594   3.046   8.819   7.438  0.0919  0.0787  0.2471
    9POPC   D2A  595   3.410   8.555   7.370  0.0844 -0.0398  0.0220
    9POPC   C3A  596   3.656   8.753   7.054 -0.0491  0.0584  0.1332
    9POPC   C4A  597   3.954   8.996   6.848 -0.1309  0.0068 -0.1996
    9POPC   C1B  598   2.683   8.992   7.125 -0.1787  0.3912 -0.0050
    9POPC   C2B  599   3.070   8.950   6.836  0.1302 -0.0020  0.1114
    9POPC   C3B  600   3.559   8.958   6.549  0.0350  0.4969  0.2130
    9POPC   C4B  601   4.070   9.054   6.326  0.1097  0.0301  0.1928
   10POPC   NC3  602  10.400   6.135   8.166  0.0191  0.0995  0.0120
   10POPC   PO4  603  10.644   6.252   7.879 -0.1998 -0.0307 -0.1537
   10POPC   GL1  604  10.488   6.224   7.462 -0.0896 -0.2796 -0.1254
   10POPC   GL2  605  10.196   6.485   7.344  0.0003 -0.1356 -0.0269
   10POPC   C1A  606  10.496   6.151   6.917  0.0929  0.0603  0.0965
   10POPC   D2A  607  10.447   5.814   6.604  0.0551  0.2377  0.1674
   10POPC   C3A  608  10.480   5.968   6.094 -0.0451 -0.1404  0.2975
   10POPC   C4A  609  10.506   5.846   5.609 -0.1169 -0.0102  0.1037
   10POPC   C1B  610  10.547   6.621   7.110 -0.4563 -0.0141 -0.0505
   10POPC   C2B  611  10.893   6.969   7.127 -0.0133 -0.1243  0.1797
   10POPC   C3B  612  11.110   7.346   6.888  0.1180 -0.1695  0.2067
   10POPC   C4B  613  11.448   7.533   6.691  0.0527  0.0791  0.0463
   11POPC   NC3  614   8.280  10.244   8.339  0.1289  0.1164 -0.0249
   11POPC   PO4  615   8.580  10.052   8.131 -0.2376 -0.0928  0.0561
   11POPC   GL1  616   8.252  10.216   7.826  0.1045  0.0585 -0.0409
   11POPC   GL2  617   7.951  10.016   7.818 -0.0909  0.0143 -0.1717
   11POPC   C1A  618   8.343  10.471   7.472 -0.1034 -0.0340 -0.3259
   11POPC   D2A  619   8.390  10.654   7.047 -0.0351 -0.0159  0.0730
   11POPC   C3A  620   8.446  11.061   7.070 -0.1468  0.0835 -0.1196
   11POPC   C4A  621   8.709  11.494   6.934 -0.2492  0.3854  0.1661
   11POPC   C1B  622   7.815  10.127   7.371  0.0615  0.1145 -0.1312
   11POPC   C2B  623   7.741  10.314   7.015 -0.3962 -0.0873 -0.2799
   11POPC   C3B  624   7.576  10.706   6.809 -0.3701  0.0096  0.0628
   11POPC   C4B  625   7.211  11.007   6.692 -0.5761 -0.1739 -0.1187
   12POPC   NC3  626   4.956   0.686   8.306 -0.0674 -0.1021 -0.2562
   12POPC   PO4  627   5.008   0.235   8.193  0.0609  0.0151 -0.0424
   12POPC   GL1  628   5.109   0.390   7.829  0.1825 -0.4217 -0.2507
   12POPC   GL2  629   5.338   0.751   7.781 -0.0568 -0.1184  0.0875
   12POPC   C1A  630   4.933   0.190   7.422  0.3113 -0.1916  0.1576
   12POPC   D2A  631   4.545   0.447   7.281  0.0518  0.1477  0.2657
   12POPC   C3A  632   4.588   0.774   7.018 -0.2160  0.1981  0.0026
   12POPC   C4A  633   4.429   1.164   6.899  0.1892 -0.0962 -0.0895
   12POPC   C1B  634   5.541   0.680   7.412  0.3847 -0.3501 -0.0847
   12POPC   C2B  635   5.573   0.548   6.991  0.1244  0.2045  0.3045
   12POPC   C3B  636   5.398   0.404   6.657 -0.0376  0.2139  0.0363
   12POPC   C4B  637   5.457   0.421   6.374  0.0519 -0.0733  0.1868
   13POPC   NC3  638   7.733   1.040   8.677 -0.2852 -0.1802 -0.1109
   13POPC   PO4  639   7.786   1.529   8.767 -0.0702  0.2347  0.2845
   13POPC   GL1  640   7.815   1.593   8.292 -0.4669 -0.1913  0.1827
   13POPC   GL2  641   7.756   1.886   8.271 -0.1143  0.1387  0.0961
   13POPC   C1A  642   8.204   1.625   8.088  0.0916  0.2673 -0.1088
   13POPC   D2A  643   8.323   1.674   7.704  0.0028  0.2373 -0.1550
   13POPC   C3A  644   8.206   1.390   7.488  0.0770 -0.0490 -0.0437
   13POPC   C4A  645   8.267   0.999   7.419  0.1844  0.1855 -0.2744
   13POPC   C1B  646   7.364   1.805   7.979 -0.0839 -0.0336  0.2325
   13POPC   C2B  647   7.206   1.765   7.558 -0.0951 -0.1113  0.0813
   13POPC   C3B  648   7.176   1.666   7.126 -0.0205  0.0218 -0.0857
   13POPC   C4B  649   7.099   1.671   6.673 -0.2706  0.1754 -0.0686
   14POPC   NC3  650   6.338   5.109   8.055 -0.2269 -0.1556  0.3432
   14POPC   PO4  651   6.178   4.666   8.172  0.2171  0.2135  0.3755
   14POPC   GL1  652   6.345   4.621   7.825 -0.5619 -0.0575  0.0953
   14POPC   GL2  653   6.541   4.241   7.769  0.2476  0.1846  0.2362
   14POPC   C1A  654   6.310   4.683   7.433 -0.2429  0.1275 -0.0567
   14POPC   D2A  655   6.070   4.603   7.053  0.1665 -0.2421  0.0542
   14POPC   C3A  656   6.188   4.693   6.653 -0.2976 -0.1193 -0.1435
   14POPC   C4A  657   5.993   4.399   6.295  0.0593 -0.0798  0.0644
   14POPC   C1B  658   6.888   3.930   7.578 -0.1419 -0.0996 -0.1396
   14POPC   C2B  659   7.291   3.877   7.251  0.1945  0.0312 -0.2438
   14POPC   C3B  660   7.420   3.992   6.799  0.0018 -0.0228  0.2400
   14POPC   C4B  661   7.665   4.179   6.558 -0.1232 -0.1288  0.3131
   15POPC   NC3  662   9.053   9.260   7.738  0.0077 -0.3428 -0.3263
   15POPC   PO4  663   8.627   9.446   7.812  0.1032 -0.0117  0.3249
   15POPC   GL1  664   8.490   9.775   7.508  0.0181 -0.1499 -0.1773
   15POPC   GL2  665   8.147   9.786   7.419  0.0436  0.2693  0.0467
   15POPC   C1A  666   8.735  10.208   7.518 -0.1906  0.1295 -0.1462
   15POPC   D2A  667   9.110  10.466   7.476 -0.0225  0.1877 -0.2181
   15POPC   C3A  668   9.330  10.613   7.143 -0.1072 -0.3854  0.1702
   15POPC   C4A  669   9.400  10.839   6.746  0.4232  0.1887 -0.1431
   15POPC   C1B  670   8.214  10.092   7.074  0.0061  0.0713  0.4708
   15POPC   C2B  671   8.248  10.023   6.682  0.3997 -0.3646 -0.0789
   15POPC   C3B  672   8.216   9.685   6.528 -0.2040  0.0337  0.3567
   15POPC   C4B  673   8.195   9.536   6.076 -0.2235  0.0560 -0.0499
   16POPC   NC3  674   0.649   4.085   8.970  0.0611 -0.2497  0.1281
   16POPC   PO4  675   1.066   4.211   8.777 -0.4894  0.3133  0.3587
   16POPC   GL1  676   1.039   3.997   8.361  0.1932 -0.0391  0.0158
   16POPC   GL2  677   1.202   3.780   8.427 -0.1194 -0.1328 -0.0481
   16POPC   C1A  678   0.602   3.955   8.125 -0.0127  0.0426  0.0217
   16POPC   D2A  679   0.146   3.833   8.173 -0.0062  0.1909 -0.1563
   16POPC   C3A  680  -0.094   4.104   8.087 -0.0689 -0.0669 -0.1322
   16POPC   C4A  681  -0.461   4.246   7.952 -0.2560  0.1054  0.3737
   16POPC   C1B  682   0.973   3.605   8.024 -0.1070 -0.2028 -0.2051
   16POPC   C2B  683   0.770   3.723   7.581  0.0092  0.1767  0.0162
   16POPC   C3B  684   0.763   4.069   7.304  0.3922  0.1589 -0.0638
   16POPC   C4B  685   0.906   4.329   6.939 -0.0359  0.1477 -0.2594
   17POPC   NC3  686   9.475   8.483   7.720  0.3504 -0.0683 -0.1304
   17POPC   PO4  687   9.199   8.793   8.012  0.1061 -0.3403 -0.2205
   17POPC   GL1  688   9.099   8.777   7.582 -0.2047  0.0807 -0.0580
   17POPC   GL2  689   8.807   8.960   7.378 -0.0034  0.2371  0.3592
   17POPC   C1A  690   9.055   8.611   7.163 -0.0969 -0.1787  0.2397
   17POPC   D2A  691   9.071   8.779   6.736 -0.0170 -0.1567 -0.1977
   17POPC   C3A  692   9.178   8.499   6.399 -0.1622  0.0598 -0.1053
   17POPC   C4A  693   9.435   8.180   6.357 -0.1106  0.0470  0.1999
   17POPC   C1B  694   8.851   9.206   7.002 -0.0402  0.2140  0.0121
   17POPC   C2B  695   8.876   9.200   6.636  0.0464 -0.1734  0.1109
   17POPC   C3B  696   8.641   9.306   6.285  0.3313 -0.2985  0.0701
   17POPC   C4B  697   8.633   9.502   5.870 -0.0566  0.2826  0.1527
   18POPC   NC3  698   0.236   7.840   7.686  0.0967  0.1659  0.2955
   18POPC   PO4  699  -0.036   8.239   7.676  0.0507 -0.1193 -0.0896
   18POPC   GL1  700   0.164   8.432   7.404 -0.0499  0.0806  0.1487
   18POPC   GL2  701   0.486   8.289   7.388 -0.4602 -0.3790  0.1162
   18POPC   C1A  702  -0.024   8.551   7.059 -0.1220  0.0849  0.2679
   18POPC   D2A  703  -0.100   8.923   6.710 -0.1120  0.0666  0.1422
   18POPC   C3A  704   0.092   8.864   6.316  0.1645 -0.1962  0.0263
   18POPC   C4A  705   0.028   8.733   5.916  0.2031  0.3524 -0.0987
   18POPC   C1B  706   0.524   8.358   7.016  0.1571  0.1928 -0.2120
   18POPC   C2B  707   0.765   8.487   6.632 -0.0202 -0.1560 -0.2858
   18POPC   C3B  708   0.722   8.703   6.261 -0.0913 -0.0918 -0.0138
   18POPC   C4B  709   1.011   9.044   6.165  0.0939 -0.1238 -0.1675
   19POPC   NC3  710   5.599   4.265   8.483  0.0793 -0.0490 -0.1457
   19POPC   PO4  711   5.919   4.182   8.253  0.2763 -0.1015 -0.0470
   19POPC   GL1  712   5.966   4.261   7.819  0.1500 -0.0411 -0.1364
   19POPC   GL2  713   6.054   3.985   7.666 -0.0037  0.0512 -0.0076
   19POPC   C1A  714   5.891   4.297   7.369 -0.0216  0.1967 -0.1435
   19POPC   D2A  715   5.852   4.161   6.927 -0.0407  0.1762  0.0986
   19POPC   C3A  716   5.541   4.284   6.623 -0.2656  0.0201  0.0015
   19POPC   C4A  717   5.106   4.355   6.652 -0.1124  0.0382  0.0874
   19POPC   C1B  718   6.301   4.022   7.224 -0.0837 -0.0076  0.0728
   19POPC   C2B  719   6.389   4.280   6.938  0.0620  0.1040 -0.0165
   19POPC   C3B  720   6.688   4.654   6.817 -0.5064 -0.1482 -0.0492
   19POPC   C4B  721   7.005   4.773   6.514  0.2995  0.3477  0.0539
   20POPC   NC3  722   3.245   9.989   8.114 -0.2438  0.0344 -0.1104
   20POPC   PO4  723   3.047  10.327   8.246 -0.1764 -0.0658  0.0084
   20POPC   GL1  724   2.992  10.304   7.749  0.6190  0.0547  0.2348
   20POPC   GL2  725   2.818  10.637   7.609  0.2197  0.0660  0.0522
   20POPC   C1A  726   2.899  10.146   7.339  0.1955  0.0399 -0.2055
   20POPC   D2A  727   3.118   9.952   7.034 -0.4358 -0.1997  0.0284
   20POPC   C3A  728   2.934   9.764   6.606  0.1540  0.1512  0.0737
   20POPC   C4A  729   2.867  10.108   6.264  0.0695  0.1565  0.0191
   20POPC   C1B  730   2.815  10.594   7.167 -0.0719  0.0135  0.1818
   20POPC   C2B  731   2.652  10.754   6.764  0.1349 -0.3502  0.0815
   20POPC   C3B  732   2.377  10.866   6.529 -0.1844 -0.4856  0.2460
   20POPC   C4B  733   2.206  11.200   6.268 -0.1140 -0.0243  0.1091
   21POPC   NC3  734   0.334   0.926   8.862  0.1788  0.1921  0.0611
   21POPC   PO4  735   0.734   1.139   8.764 -0.3551  0.1082  0.4860
   21POPC   GL1  736   0.656   0.992   8.396 -0.1121 -0.3273  0.1521
   21POPC   GL2  737   0.431   0.820   8.364  0.0116 -0.1898  0.2399
   21POPC   C1A  738   0.683   0.899   7.858  0.1841 -0.0296  0.2628
   21POPC   D2A  739   0.384   1.009   7.471 -0.1432  0.1486  0.2694
   21POPC   C3A  740   0.583   1.146   7.157  0.0961  0.2343  0.2536
   21POPC   C4A  741   0.397   0.957   6.766  0.0625  0.1349 -0.2411
   21POPC   C1B  742   0.349   0.540   7.945  0.3144 -0.5044 -0.0759
   21POPC   C2B  743   0.371   0.489   7.586 -0.0161 -0.0199  0.2463
   21POPC   C3B  744   0.382   0.622   7.154 -0.0117  0.3380  0.2816
   21POPC   C4B  745   0.449   0.400   6.733 -0.2256 -0.1545 -0.2159
   22POPC   NC3  746   2.995  10.529   8.722 -0.0332  0.1132  0.0247
   22POPC   PO4  747   2.623  10.570   8.433 -0.2010  0.1279 -0.0900
   22POPC   GL1  748   2.573  10.492   7.984  0.2391 -0.0675 -0.2413
   22POPC   GL2  749   2.261  10.733   7.850  0.0320 -0.0897  0.2336
   22POPC   C1A  750   2.487  10.253   7.557  0.0327 -0.0794  0.2072
   22POPC   D2A  751   2.402  10.397   7.225  0.0314 -0.2148  0.0791
   22POPC   C3A  752   2.588  10.191   6.927  0.4462  0.0811  0.0027
   22POPC   C4A  753   2.479  10.348   6.524  0.0485 -0.0440 -0.2817
   22POPC   C1B  754   2.394  10.863   7.490 -0.2249  0.0284  0.1216
   22POPC   C2B  755   2.725  11.150   7.187 -0.2282 -0.3039  0.2579
   22POPC   C3B  756   3.063  11.373   7.165  0.3072  0.2849  0.2170
   22POPC   C4B  757   3.369  11.566   7.272 -0.0902 -0.2067  0.3073
   23POPC   NC3  758  10.215   6.853   7.643 -0.1807 -0.3470 -0.2819
   23POPC   PO4  759   9.902   7.118   7.329 -0.2765 -0.1247  0.2733
   23POPC   GL1  760  10.045   6.866   7.043 -0.2816 -0.0657  0.1118
   23POPC   GL2  761   9.951   7.018   6.771 -0.0361  0.1855  0.0124
   23POPC   C1A  762  10.016   6.473   6.860 -0.3457 -0.2411  0.2203
   23POPC   D2A  763  10.097   6.161   6.532  0.0669 -0.1413  0.0902
   23POPC   C3A  764  10.147   6.385   6.203  0.0291  0.0546 -0.3713
   23POPC   C4A  765   9.734   6.427   5.973 -0.2237  0.1680  0.1501
   23POPC   C1B  766   9.629   6.701   6.687  0.1927 -0.1955 -0.1562
   23POPC   C2B  767   9.630   6.313   6.455 -0.3312 -0.1557 -0.0953
   23POPC   C3B  768   9.678   5.928   6.248 -0.2582 -0.0410  0.1338
   23POPC   C4B  769   9.999   5.826   5.972  0.0839  0.0576  0.0501
   24POPC   NC3  770   1.276  10.199   8.000  0.2635 -0.1051 -0.3488
   24POPC   PO4  771   1.188   9.726   7.850 -0.1226  0.0172 -0.0719
   24POPC   GL1  772   1.269   9.983   7.574 -0.2195 -0.1675 -0.2923
   24POPC   GL2  773   1.171  10.139   7.477 -0.0994 -0.0273 -0.0824
   24POPC   C1A  774   1.463  10.207   7.113  0.1500 -0.0004  0.1687
   24POPC   D2A  775   1.703  10.349   6.794 -0.0991 -0.3054 -0.3444
   24POPC   C3A  776   2.115  10.520   6.820 -0.0477  0.0145 -0.0627
   24POPC   C4A  777   2.230  10.806   7.029  0.3188 -0.4192  0.0073
   24POPC   C1B  778   0.965  10.103   7.152  0.2489  0.0042 -0.4254
   24POPC   C2B  779   1.097  10.129   6.770 -0.3253 -0.2860  0.0226
   24POPC   C3B  780   1.358  10.016   6.330 -0.1818  0.0570 -0.1130
   24POPC   C4B  781   1.420   9.799   5.865  0.3298 -0.0993 -0.0978
   25POPC   NC3  782   2.629   4.392   8.441 -0.0186  0.2103  0.1646
   25POPC   PO4  783   2.943   4.775   8.255 -0.1446  0.0529 -0.1868
   25POPC   GL1  784   2.681   4.582   7.895 -0.1792  0.1429  0.0020
   25POPC   GL2  785   2.562   4.274   7.915  0.0851 -0.0238  0.4395
   25POPC   C1A  786   2.715   4.654   7.387  0.0012  0.3475  0.1858
   25POPC   D2A  787   2.572   4.284   7.155  0.0274 -0.3490  0.1212
   25POPC   C3A  788   2.361   4.380   6.729 -0.1293 -0.1392  0.1300
   25POPC   C4A  789   2.087   4.349   6.526  0.0394 -0.1767  0.3222
   25POPC   C1B  790   2.722   4.130   7.605  0.0237  0.1840  0.0276
   25POPC   C2B  791   3.030   4.316   7.314  0.1212  0.0994  0.2949
   25POPC   C3B  792   2.964   4.315   6.759  0.0256  0.1375 -0.0692
   25POPC   C4B  793   3.125   4.212   6.414 -0.1766 -0.1032 -0.0071
   26POPC   NC3  794   8.025   5.870   8.071 -0.3323 -0.2591 -0.0859
   26POPC   PO4  795   8.131   6.280   8.047  0.3226 -0.0394 -0.0851
   26POPC   GL1  796   8.155   6.364   7.688 -0.0002  0.2149  0.1826
   26POPC   GL2  797   7.889   6.394   7.472  0.0405 -0.3133 -0.1133
   26POPC   C1A  798   8.466   6.471   7.336  0.3279  0.2111  0.1289
   26POPC   D2A  799   8.254   6.300   7.011  0.2152  0.1913 -0.0743
   26POPC   C3A  800   8.203   6.452   6.621  0.0903  0.2007  0.0408
   26POPC   C4A  801   8.042   6.743   6.328  0.1797 -0.4326  0.0615
   26POPC   C1B  802   7.878   6.635   7.146 -0.1868 -0.1571  0.1454
   26POPC   C2B  803   7.767   7.019   6.752 -0.1733 -0.0032  0.1251
   26POPC   C3B  804   7.693   7.159   6.409  0.1060 -0.0352 -0.1230
   26POPC   C4B  805   7.790   6.962   5.929 -0.0543 -0.0126 -0.0642
   27POPC   NC3  806   7.601   6.394   7.844  0.0712  0.0264 -0.4724
   27POPC   PO4  807   7.327   6.052   7.771 -0.0796 -0.1246  0.0195
   27POPC   GL1  808   7.749   5.933   7.607 -0.0715  0.4247  0.4384
   27POPC   GL2  809   7.625   5.663   7.611 -0.2594  0.2617 -0.1741
   27POPC   C1A  810   8.160   5.974   7.408  0.2886 -0.1637  0.2169
   27POPC   D2A  811   8.623   5.954   7.300  0.0120 -0.2225  0.1151
   27POPC   C3A  812   8.804   5.836   6.821  0.2735  0.0809  0.1469
   27POPC   C4A  813   8.868   5.517   6.471  0.1669 -0.0256  0.1524
   27POPC   C1B  814   7.752   5.676   7.201 -0.2394  0.1413  0.0527
   27POPC   C2B  815   7.412   5.670   6.961  0.2854  0.0441 -0.0128
   27POPC   C3B  816   6.972   5.794   6.658 -0.1616  0.0182  0.0525
   27POPC   C4B  817   6.798   5.983   6.311 -0.3856 -0.1994 -0.1377
   28POPC   NC3  818   3.300   5.978   8.201 -0.0173 -0.0271 -0.0926
   28POPC   PO4  819   3.478   5.617   8.236  0.1566 -0.0740  0.1539
   28POPC   GL1  820   3.647   5.736   7.797 -0.0471  0.1946 -0.2263
   28POPC   GL2  821   3.735   5.503   7.730  0.0528 -0.0822  0.0584
   28POPC   C1A  822   3.754   6.000   7.517 -0.0064  0.0390  0.0851
   28POPC   D2A  823   3.892   6.461   7.417  0.2023 -0.0855 -0.0004
   28POPC   C3A  824   3.569   6.586   7.489  0.3517  0.0977  0.0039
   28POPC   C4A  825   3.297   6.790   7.191 -0.0894  0.1767 -0.3020
   28POPC   C1B  826   3.607   5.407   7.297 -0.1894  0.4863  0.0228
   28POPC   C2B  827   3.340   5.095   7.094 -0.1441  0.0350  0.1687
   28POPC   C3B  828   2.966   5.065   6.924  0.2937 -0.0621  0.1003
   28POPC   C4B  829   2.732   4.743   6.773 -0.1018 -0.1607  0.2036
   29POPC   NC3  830   6.170   3.931   8.593  0.3994 -0.1395 -0.3193
   29POPC   PO4  831   6.551   3.905   8.370 -0.0560 -0.2088  0.2461
   29POPC   GL1  832   6.703   3.575   8.046  0.1359  0.3519 -0.0132
   29POPC   GL2  833   6.527   3.734   7.840 -0.1472  0.2910 -0.0820
   29POPC   C1A  834   7.098   3.570   7.782 -0.0497 -0.0658  0.1950
   29POPC   D2A  835   7.477   3.773   7.792 -0.1747 -0.1877 -0.3438
   29POPC   C3A  836   7.705   4.079   7.545 -0.1872  0.1551 -0.4591
   29POPC   C4A  837   8.239   4.193   7.507 -0.0180 -0.0427 -0.0120
   29POPC   C1B  838   6.256   3.525   7.519  0.0188  0.1052 -0.0193
   29POPC   C2B  839   6.041   3.294   7.223  0.2035  0.1991  0.0711
   29POPC   C3B  840   5.714   3.031   6.985  0.0456 -0.0015  0.2596
   29POPC   C4B  841   5.374   2.882   6.731 -0.1807 -0.0245 -0.1267
   30POPC   NC3  842   1.052   6.102   8.511  0.2641 -0.1803  0.2016
   30POPC   PO4  843   0.876   5.956   8.146 -0.4166  0.0682 -0.1288
   30POPC   GL1  844   1.073   5.724   7.795 -0.2651 -0.3427 -0.3319
   30POPC   GL2  845   1.119   5.840   7.546  0.3027 -0.0317  0.2812
   30POPC   C1A  846   0.982   5.369   7.459  0.0158 -0.1863 -0.1482
   30POPC   D2A  847   0.946   5.228   7.074 -0.2216 -0.0922  0.0915
   30POPC   C3A  848   1.285   5.175   6.787  0.0978  0.0917 -0.0709
   30POPC   C4A  849   1.694   5.032   6.876  0.0909 -0.1858  0.0085
   30POPC   C1B  850   0.743   5.819   7.240  0.1128 -0.2812 -0.2655
   30POPC   C2B  851   0.630   6.092   6.932  0.0455  0.3021  0.0186
   30POPC   C3B  852   0.685   6.215   6.518 -0.0415  0.2757 -0.0929
   30POPC   C4B  853   0.669   6.205   6.084 -0.1412 -0.0197  0.0091
   31POPC   NC3  854   8.988   5.732   8.135 -0.2461  0.2359 -0.1377
   31POPC   PO4  855   8.997   6.105   7.995  0.0481  0.1257  0.2966
   31POPC   GL1  856   9.025   6.030   7.670  0.1343  0.0185 -0.0397
   31POPC   GL2  857   8.838   5.638   7.604 -0.0479 -0.1299 -0.4860
   31POPC   C1A  858   9.101   5.857   7.254  0.0282 -0.2221  0.2323
   31POPC   D2A  859   9.196   5.542   6.996  0.1892  0.1376 -0.2498
   31POPC   C3A  860   9.403   5.515   6.568  0.3151 -0.1826  0.0121
   31POPC   C4A  861   9.499   5.412   6.120 -0.0124 -0.3085 -0.2386
   31POPC   C1B  862   8.725   5.466   7.159  0.0368  0.0453  0.1117
   31POPC   C2B  863   8.825   5.206   6.893 -0.1516 -0.1220  0.1756
   31POPC   C3B  864   9.124   5.102   6.716 -0.2325  0.0957 -0.3005
   31POPC   C4B  865   9.272   4.670   6.506 -0.1162  0.0947  0.1930
   32POPC   NC3  866   7.267   9.842   8.197 -0.1675  0.2525  0.0645
   32POPC   PO4  867   7.630   9.686   7.935  0.1199  0.1098 -0.1135
   32POPC   GL1  868   7.471   9.563   7.532 -0.0992 -0.1393  0.1444
   32POPC   GL2  869   7.487   9.295   7.423  0.0862  0.0558 -0.1790
   32POPC   C1A  870   7.787   9.576   7.177 -0.0488  0.2277  0.0815
   32POPC   D2A  871   7.805   9.514   6.766  0.3879 -0.4913  0.0789
   32POPC   C3A  872   7.768   9.564   6.349 -0.0122  0.0471  0.3264
   32POPC   C4A  873   7.447   9.788   6.122  0.0313 -0.3697  0.0863
   32POPC   C1B  874   7.353   9.496   7.001  0.1994 -0.0135  0.0876
   32POPC   C2B  875   7.344   9.683   6.574  0.1265  0.0325  0.0272
   32POPC   C3B  876   7.044   9.973   6.344  0.1950  0.1885  0.1045
   32POPC   C4B  877   6.792  10.318   6.104 -0.2443  0.2581  0.0466
   33POPC   NC3  878   9.428   5.031   8.498  0.1825 -0.3121  0.1897
   33POPC   PO4  879   9.873   4.953   8.434 -0.0542 -0.0039  0.2647
   33POPC   GL1  880   9.964   4.802   7.905  0.3242  0.3698  0.2155
   33POPC   GL2  881  10.242   4.871   7.680  0.0636  0.3268 -0.0710
   33POPC   C1A  882   9.833   4.493   7.717 -0.0208 -0.0441  0.3193
   33POPC   D2A  883   9.768   4.135   7.831 -0.0463  0.0232 -0.0148
   33POPC   C3A  884   9.870   3.698   7.798  0.0650  0.1853 -0.0899
   33POPC   C4A  885  10.163   3.446   7.560 -0.0567 -0.0773  0.0609
   33POPC   C1B  886  10.304   4.599   7.347 -0.1111 -0.1305 -0.0141
   33POPC   C2B  887  10.254   4.436   6.944  0.1272  0.2991  0.2599
   33POPC   C3B  888  10.107   4.289   6.628 -0.1094  0.0161 -0.0039
   33POPC   C4B  889   9.847   3.986   6.423 -0.0205  0.1758 -0.0829
   34POPC   NC3  890   0.922   2.416   9.476  0.4429  0.1504 -0.1347
   34POPC   PO4  891   0.518   2.614   9.075  0.3117  0.1938 -0.0317
   34POPC   GL1  892   0.671   2.525   8.605  0.3768  0.4001 -0.1224
   34POPC   GL2  893   0.513   2.913   8.435  0.3601  0.0934 -0.2963
   34POPC   C1A  894   0.789   2.620   8.139 -0.0484  0.3216 -0.1127
   34POPC   D2A  895   0.667   3.012   7.957  0.1163 -0.0748  0.0977
   34POPC   C3A  896   0.521   3.073   7.509 -0.1968  0.2116 -0.0346
   34POPC   C4A  897   0.208   2.961   7.230 -0.0055  0.0485  0.2286
   34POPC   C1B  898   0.253   2.856   8.035  0.2525 -0.0559 -0.1218
   34POPC   C2B  899   0.096   2.726   7.695 -0.0075 -0.0889 -0.1058
   34POPC   C3B  900  -0.094   2.477   7.326 -0.0252 -0.1070 -0.2776
   34POPC   C4B  901  -0.248   2.723   6.927 -0.0879 -0.1480  0.0267
   35POPC   NC3  902   8.584   5.124   8.304 -0.1384 -0.3194 -0.2722
   35POPC   PO4  903   9.008   5.229   8.243 -0.2791  0.0797  0.2077
   35POPC   GL1  904   8.856   5.010   7.862  0.0714 -0.1038 -0.1456
   35POPC   GL2  905   8.635   5.185   7.619 -0.2747  0.0081 -0.1112
   35POPC   C1A  906   8.858   4.646   7.579 -0.3720 -0.0223 -0.0890
   35POPC   D2A  907   8.603   4.474   7.348  0.0473 -0.3029  0.3293
   35POPC   C3A  908   8.140   4.594   7.277  0.2852 -0.1186  0.0349
   35POPC   C4A  909   7.884   4.796   6.941 -0.1859  0.0361 -0.1431
   35POPC   C1B  910   8.520   4.995   7.292  0.0414  0.1133 -0.1247
   35POPC   C2B  911   8.499   4.700   6.914 -0.1207 -0.3473 -0.1908
   35POPC   C3B  912   8.233   4.606   6.628  0.1262  0.2518 -0.1067
   35POPC   C4B  913   7.967   4.584   6.285 -0.0324 -0.0394 -0.2001
   36POPC   NC3  914   8.285   4.226   9.093  0.2149 -0.1193  0.0145
   36POPC   PO4  915   8.350   3.766   8.889 -0.0867 -0.1150  0.3574
   36POPC   GL1  916   8.565   3.540   8.593 -0.0234 -0.2136  0.2055
   36POPC   GL2  917   8.511   3.646   8.235  0.0114  0.2879 -0.4455
   36POPC   C1A  918   8.869   3.281   8.429  0.1984 -0.1525  0.0324
   36POPC   D2A  919   9.111   3.107   8.099  0.0845  0.1868 -0.0995
   36POPC   C3A  920   9.384   3.408   8.051  0.2039  0.2733 -0.3601
   36POPC   C4A  921   9.297   3.685   7.689  0.2586  0.0700 -0.1168
   36POPC   C1B  922   8.838   3.842   8.097 -0.4859  0.0499  0.2800
   36POPC   C2B  923   9.215   4.159   8.056  0.1453  0.0808  0.1021
   36POPC   C3B  924   9.243   4.475   7.842  0.2139  0.0023  0.0238
   36POPC   C4B  925   9.400   4.771   7.559  0.0558  0.3380 -0.0369
   37POPC   NC3  926   4.615   9.678   8.165 -0.0095  0.3401  0.3076
   37POPC   PO4  927   4.631  10.194   8.216  0.0011 -0.0963  0.2277
   37POPC   GL1  928   4.478  10.158   7.775  0.0863  0.2940  0.1746
   37POPC   GL2  929   4.655   9.849   7.531  0.0061 -0.0674  0.3062
   37POPC   C1A  930   4.561  10.390   7.409 -0.0532  0.0297  0.2367
   37POPC   D2A  931   4.664  10.706   7.045  0.1074 -0.2409 -0.1259
   37POPC   C3A  932   4.814  10.448   6.897 -0.1132  0.0445  0.1130
   37POPC   C4A  933   4.956  10.093   6.701 -0.0409 -0.3694  0.0924
   37POPC   C1B  934   4.636  10.016   7.060  0.1506 -0.0373  0.1398
   37POPC   C2B  935   4.452  10.106   6.645 -0.1182  0.0452  0.1856
   37POPC   C3B  936   4.613  10.216   6.279 -0.0822 -0.0997  0.0705
   37POPC   C4B  937   5.031  10.227   6.042  0.1863  0.1282  0.0561
   38POPC   NC3  938   7.300   3.330   8.714 -0.2120  0.0363  0.1494
   38POPC   PO4  939   6.863   3.315   8.463  0.1116 -0.1244 -0.0601
   38POPC   GL1  940   6.973   3.169   8.074  0.0983 -0.0150 -0.3989
   38POPC   GL2  941   6.739   3.141   7.794 -0.1155 -0.3409 -0.1843
   38POPC   C1A  942   7.161   2.889   7.869 -0.1813  0.0934 -0.1575
   38POPC   D2A  943   7.601   2.739   7.805 -0.1839  0.2709  0.1424
   38POPC   C3A  944   7.676   2.279   7.774 -0.6573  0.1752  0.0836
   38POPC   C4A  945   7.828   1.873   7.776  0.1118  0.2348 -0.0517
   38POPC   C1B  946   6.745   3.452   7.423 -0.0394 -0.0081 -0.2418
   38POPC   C2B  947   6.501   3.581   7.104 -0.1924  0.3510  0.4631
   38POPC   C3B  948   6.441   3.409   6.631  0.2444  0.0629 -0.2029
   38POPC   C4B  949   6.535   3.079   6.430  0.0725 -0.1031  0.0830
   39POPC   NC3  950   0.046   5.756   7.768 -0.3110  0.2080  0.0562
   39POPC   PO4  951  -0.235   5.385   7.777 -0.2961  0.1446  0.2665
   39POPC   GL1  952  -0.186   5.453   7.362 -0.2124  0.1144 -0.0999
   39POPC   GL2  953  -0.178   5.741   7.279  0.0448 -0.0236  0.0745
   39POPC   C1A  954  -0.215   5.081   7.039  0.1148  0.1860  0.0844
   39POPC   D2A  955  -0.544   4.956   6.711 -0.2380  0.0520  0.1225
   39POPC   C3A  956  -0.598   4.695   6.409 -0.0879  0.1182  0.1840
   39POPC   C4A  957  -0.636   4.373   6.130  0.0281  0.1608 -0.1539
   39POPC   C1B  958   0.114   5.468   6.921 -0.0824  0.1804 -0.2048
   39POPC   C2B  959   0.242   5.477   6.508  0.2697 -0.0110 -0.0691
   39POPC   C3B  960   0.439   5.102   6.224 -0.0717  0.0181  0.0495
   39POPC   C4B  961   0.727   5.276   5.937 -0.0535  0.0637  0.3223
   40POPC   NC3  962   2.351   6.167   8.165 -0.2800  0.0859  0.2012
   40POPC   PO4  963   2.137   5.811   7.927  0.1826  0.0506 -0.0434
   40POPC   GL1  964   1.996   5.682   7.544 -0.1404 -0.0235  0.0430
   40POPC   GL2  965   1.794   5.901   7.517 -0.0281  0.1158 -0.2031
   40POPC   C1A  966   1.983   5.590   7.128  0.1495  0.0586  0.0742
   40POPC   D2A  967   2.117   5.749   6.739  0.1438  0.1632  0.4098
   40POPC   C3A  968   2.066   5.582   6.365  0.2750 -0.2144  0.0803
   40POPC   C4A  969   2.415   5.354   6.302  0.0276  0.4216 -0.0324
   40POPC   C1B  970   1.663   6.004   7.058 -0.2180 -0.0908  0.1825
   40POPC   C2B  971   1.607   6.219   6.690  0.1984 -0.2546 -0.0382
   40POPC   C3B  972   1.752   6.309   6.214 -0.0563 -0.1640 -0.4358
   40POPC   C4B  973   1.551   6.364   5.768  0.1766  0.1090 -0.1795
   41POPC   NC3  974   0.803   6.450   8.197  0.0629 -0.0876  0.1342
   41POPC   PO4  975   0.864   6.816   7.911  0.1558 -0.1498 -0.3160
   41POPC   GL1  976   1.186   6.558   7.684 -0.2372  0.4649 -0.3018
   41POPC   GL2  977   0.881   6.296   7.740  0.1049 -0.0357  0.4214
   41POPC   C1A  978   1.440   6.325   7.423  0.0223 -0.2200  0.1307
   41POPC   D2A  979   1.988   6.362   7.303 -0.0585 -0.2312 -0.0511
   41POPC   C3A  980   2.042   6.268   6.944 -0.2115  0.0573 -0.1651
   41POPC   C4A  981   2.137   6.199   6.515 -0.0347  0.4476  0.2653
   41POPC   C1B  982   0.993   6.278   7.263 -0.0789  0.0709  0.2381
   41POPC   C2B  983   1.127   5.873   6.937 -0.0741 -0.0297 -0.0167
   41POPC   C3B  984   1.134   5.664   6.624  0.2124  0.0390  0.4998
   41POPC   C4B  985   0.925   5.261   6.379 -0.2375 -0.2535  0.0440
   42POPC   NC3  986   1.595   5.743   7.941 -0.4969  0.0869 -0.3254
   42POPC   PO4  987   1.598   5.385   8.036  0.1537 -0.0559  0.1830
   42POPC   GL1  988   1.457   5.202   7.681  0.0180 -0.1800 -0.4311
   42POPC   GL2  989   1.545   5.466   7.555  0.1617 -0.0804 -0.2646
   42POPC   C1A  990   1.421   4.917   7.301 -0.2644  0.1053 -0.0612
   42POPC   D2A  991   1.324   4.692   7.008  0.1244  0.0644 -0.1679
   42POPC   C3A  992   1.070   4.695   6.616 -0.1166  0.0687 -0.2265
   42POPC   C4A  993   0.842   4.851   6.179 -0.1945  0.0037  0.2390
   42POPC   C1B  994   1.451   5.534   7.130 -0.0627  0.3023  0.0473
   42POPC   C2B  995   1.666   5.562   6.765 -0.0298 -0.0720 -0.1598
   42POPC   C3B  996   1.581   5.825   6.423  0.2267 -0.1213  0.3332
   42POPC   C4B  997   1.659   5.877   6.024  0.0405  0.1834  0.1134
   43POPC   NC3  998   0.569   7.642   8.133  0.1297  0.2596 -0.0767
   43POPC   PO4  999   0.408   7.154   8.045 -0.0594  0.1829  0.1714
   43POPC   GL1 1000   0.743   7.284   7.656 -0.1407  0.0133  0.0631
   43POPC   GL2 1001   1.127   7.180   7.517  0.1244 -0.0561  0.0596
   43POPC   C1A 1002   0.606   7.107   7.283  0.1791 -0.0853 -0.1725
   43POPC   D2A 1003   0.603   6.887   6.894 -0.2052  0.0383 -0.1046
   43POPC   C3A 1004   0.740   6.548   6.882  0.1541 -0.0702  0.1864
   43POPC   C4A 1005   1.175   6.383   6.802  0.0208 -0.0038 -0.1811
   43POPC   C1B 1006   1.338   7.599   7.386  0.1074 -0.1882 -0.2824
   43POPC   C2B 1007   1.340   7.793   7.012  0.4091 -0.2113  0.1627
   43POPC   C3B 1008   1.708   8.086   6.796 -0.0818  0.1971  0.0409
   43POPC   C4B 1009   2.008   8.013   6.401  0.4454 -0.1933  0.0110
   44POPC   NC3 1010   0.033   8.680   7.812  0.1017 -0.1320 -0.0634
   44POPC   PO4 1011   0.459   8.479   8.005  0.0994 -0.3709  0.1998
   44POPC   GL1 1012   0.541   8.686   7.673  0.3022  0.1028  0.0703
   44POPC   GL2 1013   0.339   9.015   7.683 -0.0781 -0.0782 -0.1499
   44POPC   C1A 1014   0.673   8.734   7.314 -0.1294  0.2678  0.1712
   44POPC   D2A 1015   0.979   8.924   6.989 -0.2127 -0.3769  0.0825
   44POPC   C3A 1016   0.967   9.269   6.727 -0.2086  0.2154 -0.0907
   44POPC   C4A 1017   0.939   9.695   6.495 -0.1244  0.0324  0.0472
   44POPC   C1B 1018   0.229   8.919   7.243 -0.0399 -0.1811  0.1120
   44POPC   C2B 1019   0.414   8.802   6.889  0.0549 -0.0988 -0.4048
   44POPC   C3B 1020   0.516   9.101   6.515 -0.0775 -0.1641 -0.1926
   44POPC   C4B 1021   0.431   9.559   6.495 -0.2157  0.1329 -0.1212
   45POPC   NC3 1022   7.902   8.145   7.854 -0.2669 -0.2202 -0.1676
   45POPC   PO4 1023   7.719   8.607   7.817  0.2258  0.2932 -0.0178
   45POPC   GL1 1024   7.692   8.824   7.502  0.5395 -0.1960  0.0541
   45POPC   GL2 1025   7.959   9.077   7.509 -0.1047  0.4011  0.1910
   45POPC   C1A 1026   7.689   8.958   7.093 -0.0559  0.2691 -0.0427
   45POPC   D2A 1027   7.514   9.120   6.763 -0.0975  0.0441  0.1203
   45POPC   C3A 1028   7.642   9.049   6.307 -0.1541 -0.1607  0.0263
   45POPC   C4A 1029   7.722   9.222   5.932 -0.1667  0.1433 -0.2418
   45POPC   C1B 1030   8.144   9.193   6.968  0.4422 -0.0057  0.1665
   45POPC   C2B 1031   8.092   9.162   6.490  0.1718 -0.0108  0.1455
   45POPC   C3B 1032   8.254   9.001   6.057  0.2160 -0.0679 -0.1317
   45POPC   C4B 1033   8.402   8.973   5.631  0.0546 -0.4134 -0.0431
   46POPC   NC3 1034   3.487   6.646   8.151  0.0700  0.0518  0.0548
   46POPC   PO4 1035   3.022   6.418   8.133 -0.0379  0.1470 -0.2831
   46POPC   GL1 1036   3.004   6.277   7.802  0.0878 -0.1383 -0.1151
   46POPC   GL2 1037   3.279   6.120   7.737  0.1906  0.0189 -0.0905
   46POPC   C1A 1038   2.843   6.004   7.455  0.2509 -0.1033 -0.2200
   46POPC   D2A 1039   2.423   5.966   7.173 -0.2844 -0.0962 -0.0259
   46POPC   C3A 1040   2.500   6.280   6.847 -0.3433 -0.0838  0.0714
   46POPC   C4A 1041   2.351   6.638   6.777  0.0082  0.1805 -0.0246
   46POPC   C1B 1042   3.316   5.796   7.398 -0.2803 -0.0270 -0.3389
   46POPC   C2B 1043   3.528   5.775   7.028  0.3890  0.2098 -0.0486
   46POPC   C3B 1044   3.997   5.911   6.905  0.2957  0.1937  0.0992
   46POPC   C4B 1045   4.393   5.902   6.979 -0.3184 -0.3665 -0.2237
   47POPC   NC3 1046   2.037   1.014   8.556 -0.1094 -0.2848 -0.3201
   47POPC   PO4 1047   1.615   1.004   8.641  0.1201  0.0320  0.0490
   47POPC   GL1 1048   1.591   1.182   8.228 -0.1062  0.2468  0.0156
   47POPC   GL2 1049   1.540   0.872   8.077  0.0276 -0.1425 -0.1479
   47POPC   C1A 1050   1.655   1.399   7.750 -0.0354 -0.2296  0.0558
   47POPC   D2A 1051   1.456   1.490   7.357 -0.1830 -0.0908 -0.2982
   47POPC   C3A 1052   1.286   1.839   7.412  0.3814 -0.0009  0.0264
   47POPC   C4A 1053   1.080   2.263   7.280  0.1604 -0.0693  0.1149
   47POPC   C1B 1054   1.561   0.862   7.714 -0.1702  0.1213  0.1109
   47POPC   C2B 1055   1.487   0.565   7.353 -0.0116 -0.0031 -0.0751
   47POPC   C3B 1056   1.195   0.393   7.128 -0.0587  0.0384  0.1725
   47POPC   C4B 1057   1.066   0.366   6.646  0.1796 -0.1693  0.0024
   48POPC   NC3 1058   1.969   0.072   8.655  0.2904 -0.0422  0.0454
   48POPC   PO4 1059   2.228   0.257   8.319  0.0514  0.1693 -0.1492
   48POPC   GL1 1060   2.145   0.503   7.858  0.2395  0.2701 -0.1890
   48POPC   GL2 1061   2.524   0.520   7.853  0.1163 -0.3447  0.2013
   48POPC   C1A 1062   1.902   0.269   7.447 -0.3313 -0.2199  0.0181
   48POPC   D2A 1063   1.638   0.072   7.103  0.0524 -0.0561  0.3098
   48POPC   C3A 1064   1.537   0.296   6.679  0.1079  0.6133  0.0542
   48POPC   C4A 1065   1.434   0.474   6.329  0.0415  0.2259 -0.0694
   48POPC   C1B 1066   2.519   0.715   7.546  0.2867 -0.0987  0.1224
   48POPC   C2B 1067   2.206   0.549   7.208 -0.1058 -0.0172  0.0131
   48POPC   C3B 1068   1.923   0.572   7.001 -0.0071  0.0532  0.1680
   48POPC   C4B 1069   1.918   0.592   6.637 -0.1505 -0.1163  0.0456
   49POPC   NC3 1070   0.345   6.695   7.932 -0.0164  0.0221  0.1480
   49POPC   PO4 1071   0.383   6.232   7.973 -0.0325 -0.3109  0.2193
   49POPC   GL1 1072   0.342   6.207   7.562  0.1854 -0.2165  0.0216
   49POPC   GL2 1073   0.313   5.945   7.388  0.1152  0.1280 -0.0221
   49POPC   C1A 1074   0.276   6.403   7.207  0.1235  0.0565  0.1984
   49POPC   D2A 1075   0.257   6.530   6.717  0.1783 -0.0450  0.0943
   49POPC   C3A 1076   0.444   6.587   6.315  0.0134  0.3019  0.0765
   49POPC   C4A 1077   0.287   6.905   6.009  0.0178 -0.2160  0.0796
   49POPC   C1B 1078   0.197   5.969   6.976  0.0683  0.0281 -0.2358
   49POPC   C2B 1079   0.166   5.954   6.496 -0.0499  0.0132 -0.0212
   49POPC   C3B 1080   0.261   5.852   6.132 -0.3343  0.0526 -0.0362
   49POPC   C4B 1081   0.213   5.886   5.683 -0.1035 -0.0504 -0.0883
   50POPC   NC3 1082   6.262   5.971   8.383  0.0022  0.0261  0.1483
   50POPC   PO4 1083   6.193   5.706   8.012 -0.3238  0.1409 -0.0500
   50POPC   GL1 1084   6.160   5.366   7.622  0.0482  0.5858  0.1566
   50POPC   GL2 1085   6.431   5.100   7.556 -0.2455 -0.1014 -0.4271
   50POPC   C1A 1086   6.207   5.416   7.118 -0.1409 -0.2649  0.0077
   50POPC   D2A 1087   6.314   5.522   6.741  0.1241  0.1010  0.0277
   50POPC   C3A 1088   6.644   5.461   6.369  0.0038 -0.1029 -0.0215
   50POPC   C4A 1089   6.807   5.300   6.108 -0.2054 -0.1873 -0.2440
   50POPC   C1B 1090   6.560   4.946   7.135 -0.1026  0.0767  0.1058
   50POPC   C2B 1091   6.530   5.083   6.649  0.0470  0.1048 -0.1044
   50POPC   C3B 1092   6.231   5.205   6.292 -0.2138 -0.1807  0.1008
   50POPC   C4B 1093   5.861   5.538   6.216 -0.1656  0.3453  0.1422
   51POPC   NC3 1094   1.282   7.141   8.002  0.3563 -0.2313  0.0857
   51POPC   PO4 1095   1.522   6.690   7.974 -0.0263 -0.2108 -0.2042
   51POPC   GL1 1096   1.769   6.741   7.612 -0.0010  0.2115  0.4989
   51POPC   GL2 1097   2.110   6.809   7.612 -0.0422 -0.0417  0.1196
   51POPC   C1A 1098   1.633   7.167   7.424 -0.1011  0.1716  0.0681
   51POPC   D2A 1099   1.571   7.248   6.978  0.0240  0.2086  0.1981
   51POPC   C3A 1100   1.343   6.898   6.723 -0.1233  0.0377 -0.0041
   51POPC   C4A 1101   1.389   6.683   6.349 -0.2491 -0.1876  0.0561
   51POPC   C1B 1102   2.367   6.697   7.307 -0.3088  0.1027 -0.0454
   51POPC   C2B 1103   2.674   6.495   7.245 -0.0222 -0.2533 -0.1986
   51POPC   C3B 1104   3.033   6.401   7.249  0.1101 -0.2981 -0.2073
   51POPC   C4B 1105   3.462   6.257   7.120 -0.0286  0.0078  0.0996
   52POPC   NC3 1106   5.538   9.665   8.003 -0.0747  0.1083  0.3428
   52POPC   PO4 1107   5.485  10.027   8.191 -0.1140 -0.1072 -0.0411
   52POPC   GL1 1108   5.512  10.217   7.884 -0.0180  0.4535  0.1599
   52POPC   GL2 1109   5.510  10.020   7.613  0.1529  0.4483  0.0598
   52POPC   C1A 1110   5.710  10.489   7.489  0.3282  0.0499  0.0773
   52POPC   D2A 1111   5.821  10.499   7.092 -0.3972  0.0325 -0.0574
   52POPC   C3A 1112   5.696  10.761   6.724 -0.0339 -0.0153 -0.1245
   52POPC   C4A 1113   5.912  11.157   6.597  0.0324  0.2423  0.0845
   52POPC   C1B 1114   5.603  10.061   7.205 -0.2182  0.0238 -0.0962
   52POPC   C2B 1115   5.818  10.077   6.804 -0.1719 -0.0244 -0.3145
   52POPC   C3B 1116   5.859  10.281   6.510  0.0636 -0.2702 -0.0657
   52POPC   C4B 1117   5.825  10.583   6.222  0.0595 -0.0789  0.1927
   53POPC   NC3 1118   9.633   2.061   9.356  0.2937 -0.0999 -0.0447
   53POPC   PO4 1119   9.660   2.564   9.267  0.2509  0.1830  0.2939
   53POPC   GL1 1120   9.582   2.560   8.912  0.0363  0.0817  0.0843
   53POPC   GL2 1121   9.205   2.623   8.758 -0.0879 -0.1330 -0.0934
   53POPC   C1A 1122   9.452   2.997   8.666 -0.0201 -0.0198  0.0994
   53POPC   D2A 1123   9.353   3.441   8.550 -0.0706 -0.2361  0.1178
   53POPC   C3A 1124   9.694   3.677   8.253 -0.2304 -0.0495  0.1284
   53POPC   C4A 1125   9.964   3.955   8.242 -0.0650 -0.1895  0.0283
   53POPC   C1B 1126   8.974   2.816   8.497 -0.0443 -0.0051  0.1376
   53POPC   C2B 1127   8.979   2.671   7.969  0.1709  0.2873 -0.0552
   53POPC   C3B 1128   9.290   2.781   7.731 -0.0822  0.4996  0.0452
   53POPC   C4B 1129   9.618   2.487   7.451  0.1801 -0.0500 -0.1959
   54POPC   NC3 1130  10.071   8.165   7.627 -0.1524 -0.0341 -0.1250
   54POPC   PO4 1131   9.667   8.067   7.575 -0.2958  0.1508  0.2204
   54POPC   GL1 1132   9.750   7.945   7.091  0.0326 -0.0888  0.0671
   54POPC   GL2 1133  10.040   7.887   6.934 -0.2180 -0.0363  0.1150
   54POPC   C1A 1134   9.554   7.832   6.746 -0.1574  0.0684  0.1494
   54POPC   D2A 1135   9.312   7.684   6.415  0.3153 -0.1558 -0.0539
   54POPC   C3A 1136   9.071   7.872   6.004 -0.0476  0.1528  0.0192
   54POPC   C4A 1137   8.822   7.707   5.679 -0.2479  0.1849 -0.1533
   54POPC   C1B 1138   9.973   7.915   6.519  0.1599 -0.3294 -0.2101
   54POPC   C2B 1139  10.025   7.802   6.031 -0.2422 -0.1146  0.2486
   54POPC   C3B 1140   9.830   7.744   5.623  0.0754 -0.0561  0.5833
   54POPC   C4B 1141   9.684   7.875   5.175  0.5081  0.1575 -0.0350
   55POPC   NC3 1142   6.593   2.834   8.386  0.3410 -0.1004 -0.0706
   55POPC   PO4 1143   6.362   3.174   8.148 -0.0322 -0.1448 -0.0227
   55POPC   GL1 1144   6.140   3.161   7.836  0.2852  0.2755 -0.1197
   55POPC   GL2 1145   5.830   3.301   7.842  0.0714 -0.1437  0.0174
   55POPC   C1A 1146   5.914   2.827   7.500 -0.1534  0.2581  0.0382
   55POPC   D2A 1147   6.014   2.590   7.153 -0.1527 -0.3526 -0.0244
   55POPC   C3A 1148   5.824   2.650   6.680 -0.0051  0.2354  0.0267
   55POPC   C4A 1149   5.639   2.844   6.350  0.0005 -0.1136 -0.0361
   55POPC   C1B 1150   5.553   3.138   7.551 -0.0838 -0.4035 -0.4878
   55POPC   C2B 1151   5.203   2.908   7.373  0.0344 -0.2574  0.0644
   55POPC   C3B 1152   4.937   3.022   7.044  0.2056  0.0364 -0.0936
   55POPC   C4B 1153   4.649   3.163   6.804  0.2861 -0.0989 -0.0580
   56POPC   NC3 1154  10.458   3.100   9.435 -0.1198  0.1820  0.0653
   56POPC   PO4 1155  10.429   2.680   9.116 -0.0875  0.0859  0.0192
   56POPC   GL1 1156  10.532   2.439   8.647  0.0970 -0.1499  0.1839
   56POPC   GL2 1157  10.750   2.660   8.544  0.1900 -0.1075  0.2411
   56POPC   C1A 1158  10.174   2.358   8.269 -0.0990 -0.0764  0.1177
   56POPC   D2A 1159   9.807   2.120   8.115  0.0005  0.1150  0.0111
   56POPC   C3A 1160   9.774   1.772   8.075 -0.2959 -0.1577 -0.1039
   56POPC   C4A 1161   9.607   1.483   8.426  0.1052 -0.1892 -0.0648
   56POPC   C1B 1162  10.524   2.677   8.104  0.0684 -0.1651 -0.0438
   56POPC   C2B 1163  10.217   3.053   7.822 -0.3232  0.2649  0.0695
   56POPC   C3B 1164   9.964   2.961   7.630 -0.0280  0.0999  0.0399
   56POPC   C4B 1165   9.942   3.085   7.201 -0.1345 -0.0886 -0.2151
   57POPC   NC3 1166   9.185  10.430   8.720 -0.2130 -0.2074  0.0733
   57POPC   PO4 1167   9.052  10.806   8.924 -0.0826  0.4320  0.1017
   57POPC   GL1 1168   9.193  10.865   8.463  0.1527  0.0797  0.0072
   57POPC   GL2 1169   9.480  10.638   8.342  0.0016 -0.0922 -0.2411
   57POPC   C1A 1170   9.266  11.109   8.154  0.1982  0.0917  0.1107
   57POPC   D2A 1171   9.271  11.342   7.885 -0.1148  0.1667 -0.0976
   57POPC   C3A 1172   9.222  11.328   7.537  0.2092 -0.3114 -0.0046
   57POPC   C4A 1173   8.795  11.361   7.357  0.1173 -0.2621 -0.2061
   57POPC   C1B 1174   9.608  10.825   7.975  0.0770  0.1284 -0.0992
   57POPC   C2B 1175   9.625  10.923   7.571 -0.2208  0.0679  0.1887
   57POPC   C3B 1176   9.692  11.248   7.380 -0.5978 -0.3610  0.2537
   57POPC   C4B 1177   9.760  11.451   7.762  0.3581  0.1034 -0.1408
   58POPC   NC3 1178   7.165   9.432   7.901  0.0454 -0.1523  0.0823
   58POPC   PO4 1179   7.106   9.049   8.159 -0.0356  0.0579 -0.1926
   58POPC   GL1 1180   7.094   8.932   7.680 -0.1881  0.2038  0.0710
   58POPC   GL2 1181   7.207   8.656   7.545  0.2098  0.2965  0.1357
   58POPC   C1A 1182   6.988   9.136   7.280 -0.1928 -0.1123 -0.1927
   58POPC   D2A 1183   6.775   9.033   6.819  0.3027 -0.0435  0.0159
   58POPC   C3A 1184   7.131   9.184   6.488  0.4246 -0.1423 -0.0621
   58POPC   C4A 1185   7.166   9.361   6.102 -0.1151  0.1602  0.2169
   58POPC   C1B 1186   7.246   8.710   7.138  0.1897 -0.1539 -0.0367
   58POPC   C2B 1187   7.078   8.675   6.750 -0.2540  0.0781  0.2655
   58POPC   C3B 1188   7.224   8.684   6.275  0.1675 -0.1090  0.0463
   58POPC   C4B 1189   7.140   8.839   5.874 -0.1196 -0.0230  0.2759
   59POPC   NC3 1190   8.074   7.680   8.021 -0.4589 -0.1101  0.0565
   59POPC   PO4 1191   7.634   7.728   8.059  0.0302  0.0232  0.0625
   59POPC   GL1 1192   7.606   7.729   7.635 -0.3458  0.0686  0.0260
   59POPC   GL2 1193   7.728   7.498   7.581  0.0508  0.1992  0.0698
   59POPC   C1A 1194   7.442   7.745   7.230 -0.0535 -0.0409  0.0389
   59POPC   D2A 1195   7.495   8.042   6.863 -0.3349  0.1850 -0.0160
   59POPC   C3A 1196   7.866   8.116   6.762  0.3874 -0.0133 -0.0991
   59POPC   C4A 1197   8.142   7.969   6.502 -0.4161 -0.1540 -0.1968
   59POPC   C1B 1198   7.510   7.207   7.255  0.0065  0.3264  0.1504
   59POPC   C2B 1199   7.522   7.420   6.862  0.1065  0.4643  0.3527
   59POPC   C3B 1200   7.652   7.751   6.513  0.1849 -0.0300 -0.2845
   59POPC   C4B 1201   7.457   7.883   6.094  0.1954  0.1121 -0.1195
   60POPC   NC3 1202   5.653   8.874   8.111  0.1080  0.2258 -0.0394
   60POPC   PO4 1203   5.492   8.473   8.121  0.4452  0.3139 -0.0634
   60POPC   GL1 1204   5.378   8.208   7.671 -0.0307  0.0741 -0.2147
   60POPC   GL2 1205   5.639   8.119   7.452 -0.4235 -0.0944 -0.0568
   60POPC   C1A 1206   5.192   8.299   7.213 -0.0903  0.0031 -0.1195
   60POPC   D2A 1207   4.897   8.529   6.973 -0.2081  0.1699  0.1719
   60POPC   C3A 1208   4.744   8.797   7.155  0.0847 -0.1424 -0.0957
   60POPC   C4A 1209   4.433   9.100   6.991 -0.2386  0.1365 -0.1126
   60POPC   C1B 1210   5.613   8.056   7.052  0.0871 -0.0755 -0.0379
   60POPC   C2B 1211   5.226   8.164   6.663 -0.0362  0.0341  0.3689
   60POPC   C3B 1212   4.806   8.298   6.548  0.4811  0.3531  0.0159
   60POPC   C4B 1213   4.640   8.069   6.172  0.0658 -0.2099 -0.1606
   61POPC   NC3 1214   6.758   5.396   7.936  0.3744  0.1211 -0.0528
   61POPC   PO4 1215   6.627   5.673   7.727 -0.1644  0.3433 -0.1214
   61POPC   GL1 1216   6.650   5.693   7.345  0.0319 -0.1549 -0.1577
   61POPC   GL2 1217   6.667   5.417   7.169 -0.3331 -0.3339  0.0610
   61POPC   C1A 1218   6.538   5.995   6.984  0.0164  0.0634 -0.0123
   61POPC   D2A 1219   6.496   6.383   6.673  0.1867  0.0178 -0.1605
   61POPC   C3A 1220   6.275   6.322   6.256  0.1519  0.3216  0.0199
   61POPC   C4A 1221   5.853   6.173   6.105 -0.3804 -0.1235 -0.2020
   61POPC   C1B 1222   7.122   5.191   7.017  0.1321  0.4163  0.0312
   61POPC   C2B 1223   7.365   5.116   6.659 -0.0288  0.0598 -0.2798
   61POPC   C3B 1224   7.786   5.000   6.512  0.1297  0.0179  0.0567
   61POPC   C4B 1225   8.010   5.049   6.115 -0.2328  0.0350  0.2902
   62POPC   NC3 1226   4.061   2.168   8.134 -0.2807  0.1086 -0.2239
   62POPC   PO4 1227   4.555   2.272   7.937 -0.0819  0.0961  0.0243
   62POPC   GL1 1228   4.473   2.108   7.567  0.0392  0.1013 -0.1171
   62POPC   GL2 1229   4.189   1.955   7.450  0.0028 -0.0461  0.1338
   62POPC   C1A 1230   4.648   2.015   7.193 -0.2434 -0.2023  0.0380
   62POPC   D2A 1231   4.623   2.182   6.782 -0.0810 -0.2501  0.4013
   62POPC   C3A 1232   4.195   2.153   6.531 -0.4346 -0.3062 -0.0254
   62POPC   C4A 1233   3.783   2.124   6.419 -0.0162  0.3568  0.1784
   62POPC   C1B 1234   3.930   2.119   7.070 -0.2640  0.1151  0.1815
   62POPC   C2B 1235   3.833   2.471   6.781  0.1546 -0.0449  0.3005
   62POPC   C3B 1236   3.448   2.672   6.608 -0.0099 -0.1785  0.3150
   62POPC   C4B 1237   3.149   2.772   6.318  0.1296  0.2443 -0.4224
   63POPC   NC3 1238   5.487   0.623   8.224  0.3101 -0.0369  0.1534
   63POPC   PO4 1239   5.569   1.033   8.471  0.0775  0.0711 -0.0943
   63POPC   GL1 1240   5.617   1.138   8.136  0.1158 -0.0947 -0.4358
   63POPC   GL2 1241   5.828   0.869   7.998 -0.2030  0.3254  0.3622
   63POPC   C1A 1242   5.671   1.203   7.658  0.1845 -0.1481  0.2381
   63POPC   D2A 1243   5.817   1.171   7.325  0.1189  0.0542  0.3128
   63POPC   C3A 1244   5.644   1.094   6.978 -0.0268 -0.0624 -0.0809
   63POPC   C4A 1245   5.350   0.871   6.613 -0.3694 -0.1420 -0.3560
   63POPC   C1B 1246   6.261   0.907   8.154  0.0442 -0.3923  0.0978
   63POPC   C2B 1247   6.736   0.570   8.130  0.0369 -0.1982  0.1236
   63POPC   C3B 1248   7.002   0.540   7.786  0.1042  0.1361 -0.0643
   63POPC   C4B 1249   7.012   0.106   7.643 -0.0152 -0.0423  0.0326
   64POPC   NC3 1250  10.114   7.349   7.728  0.2081  0.0527  0.1012
   64POPC   PO4 1251  10.402   7.641   7.708  0.1672  0.1300  0.0555
   64POPC   GL1 1252  10.505   7.457   7.398  0.0172 -0.0750 -0.3756
   64POPC   GL2 1253  10.460   7.121   7.310  0.0102 -0.2045  0.1483
   64POPC   C1A 1254  10.656   7.560   6.993  0.0820  0.2861  0.2703
   64POPC   D2A 1255  10.477   7.770   6.616 -0.2591  0.1155 -0.0035
   64POPC   C3A 1256  10.227   7.357   6.526 -0.1114  0.3663 -0.1628
   64POPC   C4A 1257   9.843   7.412   6.410  0.1803 -0.1589 -0.0010
   64POPC   C1B 1258  10.501   7.045   6.854 -0.0471 -0.1289 -0.4725
   64POPC   C2B 1259  10.799   7.021   6.498 -0.2730 -0.0376  0.4085
   64POPC   C3B 1260  11.311   7.062   6.345  0.0884 -0.5170 -0.3652
   64POPC   C4B 1261  11.731   7.050   6.338  0.1070 -0.4879 -0.1219
   65POPC   NC3 1262   0.950  10.382   8.446  0.0764 -0.2112 -0.2773
   65POPC   PO4 1263   1.254  10.649   8.180 -0.0046 -0.0372  0.0322
   65POPC   GL1 1264   1.151  10.593   7.704  0.0854  0.2489 -0.1778
   65POPC   GL2 1265   1.294  10.912   7.556 -0.0933  0.0119  0.0418
   65POPC   C1A 1266   0.778  10.488   7.450 -0.1447  0.1208 -0.1271
   65POPC   D2A 1267   0.354  10.219   7.592 -0.2357  0.2873 -0.1485
   65POPC   C3A 1268   0.051  10.290   7.727 -0.0125 -0.1780  0.1108
   65POPC   C4A 1269  -0.144  10.635   7.523  0.2296 -0.4175  0.0023
   65POPC   C1B 1270   1.178  10.612   7.206 -0.1536 -0.1460  0.1626
   65POPC   C2B 1271   1.232  10.622   6.711  0.2490 -0.0971  0.0665
   65POPC   C3B 1272   1.259  10.750   6.263  0.2421 -0.0862  0.0077
   65POPC   C4B 1273   1.296  10.839   5.754  0.1251 -0.1345 -0.3399
   66POPC   NC3 1274   5.896  10.449   8.199  0.4203  0.2649 -0.0903
   66POPC   PO4 1275   5.963  10.016   7.968 -0.0550 -0.3287  0.1476
   66POPC   GL1 1276   5.966   9.823   7.554  0.1363 -0.2224  0.0121
   66POPC   GL2 1277   5.771   9.549   7.546  0.0309 -0.1374  0.0700
   66POPC   C1A 1278   6.023   9.814   7.155  0.2669  0.1604  0.1655
   66POPC   D2A 1279   5.982   9.537   6.784 -0.1968  0.1196 -0.1285
   66POPC   C3A 1280   6.121   9.110   6.640 -0.3580  0.0868  0.1231
   66POPC   C4A 1281   6.224   8.756   6.508  0.1266  0.3130 -0.0213
   66POPC   C1B 1282   5.586   9.555   7.171  0.0971 -0.1501  0.3549
   66POPC   C2B 1283   5.191   9.783   7.079 -0.0215  0.1344 -0.1071
   66POPC   C3B 1284   5.064  10.112   7.290  0.1063 -0.1832  0.1454
   66POPC   C4B 1285   5.061  10.458   7.447 -0.0883 -0.2291  0.2178
   67POPC   NC3 1286   0.219   8.828   8.293 -0.0125 -0.0730 -0.0607
   67POPC   PO4 1287   0.510   9.123   8.230 -0.2267  0.0712  0.0700
   67POPC   GL1 1288   0.480   9.422   7.895  0.2434 -0.1421  0.0745
   67POPC   GL2 1289   0.171   9.542   7.831  0.2635 -0.0122  0.2673
   67POPC   C1A 1290   0.513   9.712   7.481 -0.0506 -0.1582 -0.1591
   67POPC   D2A 1291   0.439  10.040   7.171 -0.2312  0.0573 -0.1914
   67POPC   C3A 1292   0.297  10.469   7.156  0.0270  0.0137  0.2309
   67POPC   C4A 1293   0.336  10.831   7.260  0.1519  0.0584  0.2584
   67POPC   C1B 1294   0.048   9.726   7.521  0.0682  0.1836  0.1226
   67POPC   C2B 1295  -0.021  10.042   7.228 -0.0020  0.2562  0.0843
   67POPC   C3B 1296  -0.165  10.481   7.083  0.3624  0.1726  0.3839
   67POPC   C4B 1297  -0.534  10.593   6.851  0.3370  0.4074 -0.2764
   68POPC   NC3 1298   8.287   4.936   8.732 -0.1050  0.3558 -0.0143
   68POPC   PO4 1299   8.018   4.899   8.315  0.3456 -0.1213  0.1069
   68POPC   GL1 1300   8.341   4.920   7.883  0.0313 -0.2113 -0.1685
   68POPC   GL2 1301   8.123   4.922   7.628 -0.2913 -0.1041 -0.0088
   68POPC   C1A 1302   8.437   4.579   7.817  0.1163  0.0726 -0.1120
   68POPC   D2A 1303   8.709   4.330   8.010  0.1587 -0.1693 -0.0253
   68POPC   C3A 1304   8.904   4.115   7.662  0.0172 -0.2832  0.0594
   68POPC   C4A 1305   9.194   4.258   7.361 -0.3682 -0.1030 -0.2736
   68POPC   C1B 1306   7.999   5.124   7.347  0.1545 -0.0311  0.0826
   68POPC   C2B 1307   8.216   5.226   6.944 -0.1463 -0.0384 -0.2679
   68POPC   C3B 1308   8.465   5.094   6.573 -0.1505  0.2030 -0.0468
   68POPC   C4B 1309   8.776   4.771   6.474 -0.0248  0.0556 -0.2953
   69POPC   NC3 1310   3.627   1.433   8.594 -0.0575 -0.0859 -0.3310
   69POPC   PO4 1311   3.586   1.334   8.067 -0.0383 -0.0749 -0.2089
   69POPC   GL1 1312   3.469   1.372   7.638 -0.3497  0.0280 -0.0210
   69POPC   GL2 1313   3.709   1.260   7.514 -0.4122 -0.0125 -0.1380
   69POPC   C1A 1314   3.326   1.479   7.236 -0.2452 -0.1359 -0.0344
   69POPC   D2A 1315   3.384   1.373   6.792 -0.1056  0.2007  0.1298
   69POPC   C3A 1316   3.159   1.308   6.477 -0.2399  0.2959 -0.1638
   69POPC   C4A 1317   3.285   0.993   6.417 -0.0817  0.3480  0.0320
   69POPC   C1B 1318   3.866   1.585   7.214  0.2043  0.2694 -0.0503
   69POPC   C2B 1319   3.675   1.820   6.826  0.2439  0.1215 -0.1954
   69POPC   C3B 1320   3.322   2.200   6.668 -0.2264  0.0813  0.1991
   69POPC   C4B 1321   2.970   2.518   6.742  0.0234  0.0775 -0.1689
   70POPC   NC3 1322   6.060   2.732   8.190 -0.0805 -0.2453 -0.1624
   70POPC   PO4 1323   6.255   2.452   8.478  0.0353  0.2450 -0.2053
   70POPC   GL1 1324   6.417   2.320   7.981 -0.0635 -0.0775 -0.1713
   70POPC   GL2 1325   6.308   2.504   7.814 -0.1111 -0.1314 -0.4669
   70POPC   C1A 1326   6.614   2.097   7.677 -0.0078  0.2378  0.1010
   70POPC   D2A 1327   6.865   1.994   7.362  0.0130 -0.1020  0.3735
   70POPC   C3A 1328   6.666   1.787   7.055  0.2268  0.2238 -0.0308
   70POPC   C4A 1329   6.419   1.807   6.688 -0.0085  0.1856 -0.3885
   70POPC   C1B 1330   6.463   2.765   7.489 -0.0307  0.1222  0.0246
   70POPC   C2B 1331   6.495   2.840   6.996  0.1713  0.1670  0.2265
   70POPC   C3B 1332   6.167   3.017   6.764  0.2587  0.0934  0.3322
   70POPC   C4B 1333   5.966   3.314   6.555 -0.2801 -0.2642 -0.1713
   71POPC   NC3 1334   7.258   8.597   8.061 -0.3771  0.0589  0.0626
   71POPC   PO4 1335   7.379   8.184   7.788  0.1829 -0.1072  0.2209
   71POPC   GL1 1336   7.617   8.275   7.382 -0.0942  0.2609  0.1347
   71POPC   GL2 1337   7.957   8.009   7.323 -0.0619  0.0232 -0.0579
   71POPC   C1A 1338   7.675   8.482   7.079  0.5589  0.1792  0.1041
   71POPC   D2A 1339   7.549   8.566   6.681  0.1251  0.0519 -0.0575
   71POPC   C3A 1340   7.595   8.248   6.381  0.1013  0.0354  0.0809
   71POPC   C4A 1341   7.880   8.171   6.062 -0.2431  0.2436 -0.0923
   71POPC   C1B 1342   7.903   7.692   7.107  0.0519 -0.2178  0.0607
   71POPC   C2B 1343   8.087   7.457   6.794 -0.1322  0.0695 -0.1293
   71POPC   C3B 1344   8.143   7.431   6.289  0.1698  0.2444 -0.0259
   71POPC   C4B 1345   7.859   7.566   5.997 -0.1185  0.3526 -0.3025
   72POPC   NC3 1346   2.707   0.192   8.136  0.2481  0.0493  0.0126
   72POPC   PO4 1347   2.949   0.540   8.182 -0.0059 -0.0039  0.2489
   72POPC   GL1 1348   3.028   0.708   7.800  0.3686  0.1119  0.2646
   72POPC   GL2 1349   2.906   0.429   7.642 -0.3189 -0.4267  0.0040
   72POPC   C1A 1350   2.968   1.118   7.451 -0.3866  0.0227  0.1800
   72POPC   D2A 1351   2.974   1.157   7.068  0.5529  0.2104  0.1158
   72POPC   C3A 1352   2.717   0.821   6.805 -0.0000  0.1230 -0.1215
   72POPC   C4A 1353   2.440   0.553   6.790 -0.0337 -0.4798  0.1018
   72POPC   C1B 1354   3.124   0.207   7.359 -0.1522  0.1587  0.0143
   72POPC   C2B 1355   3.209   0.103   6.904  0.0924  0.1776 -0.0069
   72POPC   C3B 1356   3.264   0.016   6.614  0.1531  0.0741 -0.0450
   72POPC   C4B 1357   3.186  -0.381   6.466 -0.1240 -0.1875 -0.0588
   73POPC   NC3 1358   0.527   1.560   8.876  0.1249  0.0203  0.1756
   73POPC   PO4 1359   0.139   1.781   8.903  0.0593  0.4510  0.2008
   73POPC   GL1 1360   0.056   1.506   8.523 -0.0586 -0.0321  0.3192
   73POPC   GL2 1361   0.291   1.309   8.529 -0.1655 -0.2047  0.0707
   73POPC   C1A 1362   0.137   1.665   8.156  0.1422  0.0571 -0.0063
   73POPC   D2A 1363   0.424   1.935   7.938 -0.1128 -0.1078 -0.0573
   73POPC   C3A 1364   0.829   1.790   7.930 -0.0821  0.1135  0.1803
   73POPC   C4A 1365   1.162   2.139   7.809  0.0197  0.0092  0.0469
   73POPC   C1B 1366   0.099   1.147   8.118 -0.1077 -0.1218 -0.4353
   73POPC   C2B 1367   0.027   0.896   7.773  0.1006  0.0810 -0.0269
   73POPC   C3B 1368  -0.061   0.740   7.403  0.5164  0.1573  0.0206
   73POPC   C4B 1369  -0.061   0.823   7.041  0.1860 -0.1802  0.0096
   74POPC   NC3 1370   3.533   0.453   8.160  0.2366  0.3088 -0.0332
   74POPC   PO4 1371   3.899   0.499   7.933  0.0074  0.0666  0.1561
   74POPC   GL1 1372   3.879   0.444   7.519 -0.0197 -0.0966  0.1274
   74POPC   GL2 1373   3.759   0.158   7.386  0.1196  0.1936 -0.2609
   74POPC   C1A 1374   3.820   0.574   7.109 -0.2395  0.4558 -0.3878
   74POPC   D2A 1375   3.574   0.833   6.742 -0.0687  0.2848  0.1687
   74POPC   C3A 1376   3.248   0.583   6.694  0.3608  0.0818  0.3637
   74POPC   C4A 1377   2.883   0.403   6.607  0.3106 -0.0309 -0.5163
   74POPC   C1B 1378   3.684   0.040   7.076  0.1215  0.0970  0.3087
   74POPC   C2B 1379   3.901   0.105   6.640 -0.0223 -0.0075 -0.4053
   74POPC   C3B 1380   4.102   0.145   6.229 -0.1191  0.2183 -0.1496
   74POPC   C4B 1381   4.076   0.200   5.808  0.1629  0.2317  0.2151
   75POPC   NC3 1382   5.213   4.711   8.932  0.1806 -0.1500  0.0513
   75POPC   PO4 1383   5.271   4.688   8.487 -0.1433 -0.0367 -0.0698
   75POPC   GL1 1384   5.477   4.771   8.176  0.2890 -0.2871 -0.2764
   75POPC   GL2 1385   5.703   4.569   8.061  0.0673  0.0398 -0.0345
   75POPC   C1A 1386   5.720   4.994   7.875 -0.3239  0.2056  0.3001
   75POPC   D2A 1387   5.857   4.972   7.529 -0.3224 -0.0014 -0.0844
   75POPC   C3A 1388   5.833   5.130   7.206 -0.1106 -0.0212 -0.1380
   75POPC   C4A 1389   5.435   5.264   6.897  0.0527  0.2766 -0.1112
   75POPC   C1B 1390   5.550   4.618   7.616  0.0635  0.0123  0.2524
   75POPC   C2B 1391   5.567   4.532   7.103  0.2827 -0.3722  0.4407
   75POPC   C3B 1392   5.652   4.831   6.722  0.0531 -0.0199 -0.2969
   75POPC   C4B 1393   5.903   5.175   6.658 -0.1017 -0.4801  0.1055
   76POPC   NC3 1394   4.841   1.826   7.805 -0.3977 -0.1125  0.4604
   76POPC   PO4 1395   4.353   1.725   8.006  0.2171  0.2779 -0.2844
   76POPC   GL1 1396   4.385   1.530   7.648 -0.0183  0.1624  0.3806
   76POPC   GL2 1397   4.226   1.392   7.579 -0.0413  0.0008 -0.0877
   76POPC   C1A 1398   4.358   1.629   7.135 -0.0557  0.0428 -0.0605
   76POPC   D2A 1399   4.165   1.628   6.766 -0.2291 -0.0073 -0.1974
   76POPC   C3A 1400   4.201   1.273   6.456  0.0790  0.1265  0.1795
   76POPC   C4A 1401   4.569   0.891   6.439  0.0537  0.0983 -0.2219
   76POPC   C1B 1402   4.148   1.132   7.324 -0.1368 -0.1669 -0.2423
   76POPC   C2B 1403   3.900   1.175   6.909  0.1881  0.3122  0.2101
   76POPC   C3B 1404   3.701   1.472   6.456 -0.2297  0.2021 -0.1358
   76POPC   C4B 1405   3.520   1.750   6.343  0.1063 -0.0477  0.1175
   77POPC   NC3 1406   5.679   7.968   8.019  0.0247 -0.3402 -0.0507
   77POPC   PO4 1407   5.980   8.352   7.997  0.1363  0.0959 -0.1872
   77POPC   GL1 1408   6.070   8.250   7.637  0.0569  0.0061  0.0304
   77POPC   GL2 1409   6.170   8.509   7.464  0.1091  0.3394  0.1524
   77POPC   C1A 1410   6.051   7.941   7.360  0.0606  0.1442  0.0887
   77POPC   D2A 1411   6.052   7.811   6.922 -0.2205 -0.0784  0.0966
   77POPC   C3A 1412   5.732   7.637   6.673 -0.1291  0.2364  0.1229
   77POPC   C4A 1413   5.367   7.718   6.275  0.2350  0.3217 -0.1928
   77POPC   C1B 1414   5.984   8.389   7.124 -0.3096 -0.1391 -0.2895
   77POPC   C2B 1415   6.261   8.239   6.733 -0.1787  0.1032  0.0984
   77POPC   C3B 1416   6.284   8.368   6.253 -0.0173  0.0870  0.3021
   77POPC   C4B 1417   6.452   8.037   5.948 -0.0010  0.0894  0.2312
   78POPC   NC3 1418   7.046   7.828   7.928  0.3242  0.3363 -0.2528
   78POPC   PO4 1419   6.596   7.644   7.757  0.3079 -0.0238  0.2466
   78POPC   GL1 1420   6.531   7.950   7.339 -0.1199  0.0287 -0.0633
   78POPC   GL2 1421   6.528   8.220   7.290 -0.0673 -0.2280  0.4279
   78POPC   C1A 1422   6.572   7.867   6.900  0.0426  0.1924 -0.3131
   78POPC   D2A 1423   6.570   7.979   6.453  0.0923  0.0845  0.0641
   78POPC   C3A 1424   6.833   7.723   6.303 -0.0027  0.0415 -0.1515
   78POPC   C4A 1425   7.188   7.490   6.516 -0.2249  0.1333  0.2462
   78POPC   C1B 1426   6.799   8.356   7.032 -0.2964  0.1992 -0.0518
   78POPC   C2B 1427   7.043   8.097   6.696 -0.0025 -0.1212 -0.2524
   78POPC   C3B 1428   7.055   8.194   6.290 -0.1608  0.0959  0.0986
   78POPC   C4B 1429   7.282   8.362   5.952  0.1175 -0.0107  0.0730
   79POPC   NC3 1430   0.926   8.398   7.783  0.0645  0.0354 -0.3308
   79POPC   PO4 1431   0.742   7.989   7.812  0.0545  0.0918  0.0484
   79POPC   GL1 1432   0.655   7.732   7.463  0.0345  0.0759 -0.1919
   79POPC   GL2 1433   0.402   7.780   7.169 -0.2695 -0.1510 -0.4556
   79POPC   C1A 1434   0.840   7.512   7.211 -0.0059 -0.0184 -0.0853
   79POPC   D2A 1435   1.045   7.279   6.937 -0.1516  0.0285 -0.0437
   79POPC   C3A 1436   1.274   7.473   6.556  0.3101  0.0923  0.2683
   79POPC   C4A 1437   1.668   7.609   6.461  0.0398 -0.0095  0.0575
   79POPC   C1B 1438   0.065   8.031   7.006  0.3264 -0.0965 -0.1212
   79POPC   C2B 1439  -0.063   8.298   6.632 -0.0254  0.1196 -0.2416
   79POPC   C3B 1440   0.292   8.423   6.368 -0.0683 -0.1129  0.1652
   79POPC   C4B 1441   0.568   8.174   6.135 -0.4510 -0.1237  0.4445
   80POPC   NC3 1442   3.063   6.879   8.291 -0.1857 -0.2665 -0.0106
   80POPC   PO4 1443   3.577   7.065   8.424  0.1163 -0.2501 -0.0004
   80POPC   GL1 1444   3.474   7.195   8.007 -0.2505 -0.0867 -0.0089
   80POPC   GL2 1445   3.462   7.516   7.839  0.0854 -0.2550  0.1221
   80POPC   C1A 1446   3.502   7.098   7.531 -0.1225 -0.2208 -0.0492
   80POPC   D2A 1447   3.614   7.153   7.110 -0.1523 -0.0219 -0.2130
   80POPC   C3A 1448   3.605   7.075   6.740 -0.2095 -0.1891 -0.0040
   80POPC   C4A 1449   3.941   6.811   6.425  0.2133  0.2305  0.0643
   80POPC   C1B 1450   3.519   7.656   7.414  0.1070  0.0147  0.0013
   80POPC   C2B 1451   3.442   7.602   6.894 -0.1317  0.0739 -0.1847
   80POPC   C3B 1452   3.344   7.976   6.615 -0.1033  0.0695  0.0828
   80POPC   C4B 1453   2.919   8.180   6.521  0.2311 -0.1463  0.0527
   81POPC   NC3 1454   6.704   6.773   8.189  0.0947  0.0063  0.1225
   81POPC   PO4 1455   6.986   6.531   7.868 -0.2302 -0.0148 -0.3389
   81POPC   GL1 1456   7.203   6.603   7.541 -0.0430 -0.1468 -0.1243
   81POPC   GL2 1457   7.302   6.339   7.392 -0.1986 -0.1571  0.0417
   81POPC   C1A 1458   7.410   6.641   7.039 -0.0022  0.0609  0.3249
   81POPC   D2A 1459   7.661   6.425   6.750  0.1000  0.1410 -0.1610
   81POPC   C3A 1460   7.579   6.520   6.443  0.1113  0.0394  0.3019
   81POPC   C4A 1461   7.513   6.585   6.055  0.0237 -0.3331 -0.0058
   81POPC   C1B 1462   7.632   6.105   7.161 -0.1041 -0.2700 -0.0651
   81POPC   C2B 1463   7.969   5.981   6.743  0.0983  0.2939 -0.0921
   81POPC   C3B 1464   8.291   5.987   6.411  0.0383 -0.2341  0.0780
   81POPC   C4B 1465   8.697   6.108   6.198 -0.0861 -0.1124  0.0709
   82POPC   NC3 1466   0.447   5.660   8.557 -0.2170 -0.0059 -0.1957
   82POPC   PO4 1467   0.559   5.462   8.223 -0.4354 -0.0856 -0.0448
   82POPC   GL1 1468   0.654   5.247   7.842  0.0074  0.0137 -0.0135
   82POPC   GL2 1469   0.339   5.334   7.732 -0.2306 -0.2407  0.2048
   82POPC   C1A 1470   0.595   5.004   7.490  0.2252 -0.3001  0.0973
   82POPC   D2A 1471   0.677   4.669   7.237  0.1190  0.2254  0.3856
   82POPC   C3A 1472   0.448   4.510   6.864 -0.3853  0.1693  0.0390
   82POPC   C4A 1473   0.463   4.694   6.502  0.0632  0.3802 -0.2771
   82POPC   C1B 1474   0.391   5.468   7.315 -0.2498 -0.3975 -0.1990
   82POPC   C2B 1475   0.606   5.513   6.900 -0.0910 -0.1441  0.0540
   82POPC   C3B 1476   0.643   5.684   6.578 -0.0847  0.2408  0.0368
   82POPC   C4B 1477   0.754   5.759   6.246 -0.5541 -0.2538  0.3974
   83POPC   NC3 1478  10.323   1.306   9.262  0.1578  0.4147  0.1441
   83POPC   PO4 1479   9.949   1.710   9.193  0.0546  0.1104 -0.1629
   83POPC   GL1 1480   9.862   1.995   8.804 -0.2350  0.2736 -0.2656
   83POPC   GL2 1481   9.464   2.055   8.828  0.2918 -0.0185 -0.1158
   83POPC   C1A 1482  10.080   1.740   8.470  0.2339  0.2297  0.1176
   83POPC   D2A 1483  10.340   1.696   8.090 -0.1316 -0.0642  0.0594
   83POPC   C3A 1484  10.350   1.336   7.905 -0.1683 -0.0639 -0.1463
   83POPC   C4A 1485  10.150   1.137   7.603  0.0047  0.3134  0.1058
   83POPC   C1B 1486   9.323   1.965   8.440  0.0093  0.0338  0.0962
   83POPC   C2B 1487   8.982   2.019   8.167  0.1206  0.3967  0.0208
   83POPC   C3B 1488   8.756   1.780   7.780  0.0406 -0.1433  0.1286
   83POPC   C4B 1489   8.683   1.567   7.367  0.1943 -0.2849 -0.1306
   84POPC   NC3 1490   7.713   4.430   8.444 -0.2195  0.1288 -0.0245
   84POPC   PO4 1491   8.150   4.477   8.669 -0.0966 -0.1342  0.2224
   84POPC   GL1 1492   8.139   4.393   8.198  0.1963 -0.0433  0.0892
   84POPC   GL2 1493   8.282   4.104   8.078 -0.2337 -0.2528  0.4447
   84POPC   C1A 1494   7.936   4.448   7.797 -0.0704 -0.4033  0.0735
   84POPC   D2A 1495   7.630   4.579   7.629 -0.1198  0.3807 -0.0946
   84POPC   C3A 1496   7.504   4.748   7.199 -0.1783  0.4206 -0.1907
   84POPC   C4A 1497   7.490   4.648   6.690 -0.2618 -0.4796 -0.0964
   84POPC   C1B 1498   8.379   3.722   7.710 -0.1924  0.2669 -0.0405
   84POPC   C2B 1499   8.399   3.695   7.209 -0.3275  0.0111 -0.1408
   84POPC   C3B 1500   8.350   3.544   6.757 -0.0931 -0.2569  0.0771
   84POPC   C4B 1501   8.109   3.464   6.351  0.1524 -0.0500 -0.1182
   85POPC   NC3 1502   1.719   9.030   8.137 -0.0779 -0.2074 -0.0063
   85POPC   PO4 1503   1.388   8.692   7.996  0.1869 -0.1913  0.1354
   85POPC   GL1 1504   1.055   8.897   7.663  0.2573 -0.0800  0.1025
   85POPC   GL2 1505   0.905   9.091   7.853 -0.1738 -0.3123  0.2459
   85POPC   C1A 1506   1.092   9.228   7.401  0.0238  0.0741 -0.0164
   85POPC   D2A 1507   0.979   9.612   7.343  0.3486 -0.1399  0.1734
   85POPC   C3A 1508   0.780   9.719   7.005  0.1327  0.2435 -0.0892
   85POPC   C4A 1509   0.611   9.959   6.686  0.1400  0.2124  0.0380
   85POPC   C1B 1510   0.622   9.205   7.396 -0.0131 -0.0653 -0.0911
   85POPC   C2B 1511   0.360   9.439   7.065 -0.3050 -0.1059 -0.1178
   85POPC   C3B 1512   0.166   9.728   6.874 -0.0839 -0.2186 -0.1454
   85POPC   C4B 1513   0.107  10.194   6.741  0.0457  0.1284 -0.1436
   86POPC   NC3 1514   1.379   3.317   8.805  0.2640  0.0921 -0.1500
   86POPC   PO4 1515   1.618   3.473   8.482 -0.1747  0.1042  0.3392
   86POPC   GL1 1516   1.424   3.382   8.110  0.0459  0.0024  0.0260
   86POPC   GL2 1517   1.169   3.169   8.192 -0.0972  0.0400 -0.1818
   86POPC   C1A 1518   1.534   3.332   7.619 -0.0594  0.3762 -0.2283
   86POPC   D2A 1519   1.502   3.459   7.308  0.1220  0.0614 -0.2121
   86POPC   C3A 1520   1.400   3.211   6.954  0.1941 -0.0024  0.0556
   86POPC   C4A 1521   1.173   2.980   6.706 -0.0646  0.0411  0.1104
   86POPC   C1B 1522   1.030   3.226   7.710 -0.2180  0.1955  0.0641
   86POPC   C2B 1523   0.977   3.273   7.296 -0.1619  0.0361 -0.0845
   86POPC   C3B 1524   0.679   3.503   7.172 -0.1322  0.2927  0.4559
   86POPC   C4B 1525   0.385   3.622   7.240 -0.0749  0.1556 -0.0047
   87POPC   NC3 1526   2.281   8.969   8.281  0.1615  0.3828 -0.2474
   87POPC   PO4 1527   2.187   9.140   7.927  0.0363 -0.1415 -0.0292
   87POPC   GL1 1528   1.986   9.033   7.640 -0.2213 -0.1796 -0.0478
   87POPC   GL2 1529   1.785   8.716   7.645 -0.0596 -0.0480 -0.2025
   87POPC   C1A 1530   1.951   8.889   7.204  0.0565  0.0127  0.0127
   87POPC   D2A 1531   1.854   8.476   7.042 -0.1631 -0.0133 -0.1081
   87POPC   C3A 1532   2.122   8.098   7.041  0.3044  0.2624 -0.0778
   87POPC   C4A 1533   2.518   7.908   7.111  0.1779 -0.0241 -0.0046
   87POPC   C1B 1534   1.367   8.581   7.365  0.1248 -0.0216 -0.2593
   87POPC   C2B 1535   1.107   8.458   7.076 -0.1364  0.0415  0.1997
   87POPC   C3B 1536   1.259   8.297   6.678  0.3147  0.1969 -0.0724
   87POPC   C4B 1537   1.076   7.957   6.448 -0.1265  0.0237 -0.1089
   88POPC   NC3 1538   3.530   4.471   8.335  0.0428  0.2001  0.0781
   88POPC   PO4 1539   3.116   4.371   8.561  0.4808 -0.1828 -0.1073
   88POPC   GL1 1540   3.094   4.259   8.088 -0.1144 -0.0517  0.0588
   88POPC   GL2 1541   2.919   3.908   8.152  0.3073 -0.1698 -0.0038
   88POPC   C1A 1542   3.248   4.477   7.740 -0.1867  0.3009 -0.3216
   88POPC   D2A 1543   3.396   4.768   7.476  0.0311 -0.3494 -0.2959
   88POPC   C3A 1544   3.723   4.998   7.541 -0.3445  0.3730  0.1338
   88POPC   C4A 1545   4.203   5.121   7.358 -0.3452 -0.1866  0.0880
   88POPC   C1B 1546   3.059   3.738   7.748 -0.0082 -0.0591 -0.1401
   88POPC   C2B 1547   3.107   3.819   7.412  0.0394 -0.0249 -0.0154
   88POPC   C3B 1548   2.905   3.883   6.989  0.0046 -0.4013 -0.2343
   88POPC   C4B 1549   2.542   3.968   6.715 -0.2862  0.1464 -0.0028
   89POPC   NC3 1550  10.030   0.209   8.946 -0.2090  0.4608 -0.1370
   89POPC   PO4 1551   9.899   0.614   8.968 -0.1228 -0.1797 -0.0036
   89POPC   GL1 1552  10.002   0.870   8.667 -0.3175  0.0133 -0.1609
   89POPC   GL2 1553  10.189   1.229   8.558  0.1159  0.2736  0.1083
   89POPC   C1A 1554  10.182   0.830   8.212  0.2245  0.1140 -0.1240
   89POPC   D2A 1555  10.251   0.678   7.842 -0.0671  0.0109 -0.1071
   89POPC   C3A 1556  10.674   0.372   7.823 -0.2483 -0.0500  0.0919
   89POPC   C4A 1557  11.052   0.013   7.797  0.1031  0.0079 -0.2756
   89POPC   C1B 1558   9.911   1.301   8.090 -0.2106  0.0504  0.0027
   89POPC   C2B 1559   9.679   1.376   7.729 -0.1108 -0.1150 -0.0142
   89POPC   C3B 1560   9.517   1.031   7.468  0.1655  0.0827 -0.0729
   89POPC   C4B 1561   9.303   0.894   7.122  0.0357 -0.0253  0.0550
   90POPC   NC3 1562   3.823  10.167   8.623  0.0245  0.0121  0.1806
   90POPC   PO4 1563   3.719   9.909   8.276  0.0218 -0.1039  0.1803
   90POPC   GL1 1564   3.669  10.042   7.809  0.1369  0.0162  0.1824
   90POPC   GL2 1565   3.612  10.332   7.725 -0.2834 -0.2691 -0.1009
   90POPC   C1A 1566   3.807   9.922   7.539 -0.0771  0.0881  0.1174
   90POPC   D2A 1567   4.173  10.010   7.286 -0.0893  0.0643 -0.2689
   90POPC   C3A 1568   4.224  10.451   6.944 -0.3210  0.0102  0.0853
   90POPC   C4A 1569   4.379  10.595   6.621  0.1070 -0.0373 -0.2002
   90POPC   C1B 1570   3.278  10.437   7.371  0.2486  0.0997 -0.1310
   90POPC   C2B 1571   3.330  10.353   6.944 -0.1192  0.0760  0.0251
   90POPC   C3B 1572   3.639  10.357   6.677 -0.1744 -0.2386  0.2748
   90POPC   C4B 1573   4.029  10.295   6.502  0.0492  0.1112  0.0767
   91POPC   NC3 1574   4.750  10.633   7.954  0.2908  0.2335 -0.2589
   91POPC   PO4 1575   4.365  10.710   8.143 -0.3486  0.0723 -0.2194
   91POPC   GL1 1576   4.351  10.761   7.676  0.4946 -0.3334  0.1356
   91POPC   GL2 1577   4.046  10.499   7.544  0.0267 -0.0481 -0.0145
   91POPC   C1A 1578   4.212  10.849   7.178  0.2140 -0.1465 -0.2715
   91POPC   D2A 1579   4.277  11.101   6.859  0.2037  0.0881 -0.0507
   91POPC   C3A 1580   4.052  11.488   6.650  0.0552  0.3657 -0.1993
   91POPC   C4A 1581   3.852  11.741   6.331 -0.1648  0.0285 -0.2546
   91POPC   C1B 1582   3.830  10.308   7.171 -0.1111 -0.1184 -0.1380
   91POPC   C2B 1583   3.654   9.977   7.050  0.2235 -0.0046  0.0829
   91POPC   C3B 1584   3.418   9.723   6.734  0.3018 -0.0542  0.2038
   91POPC   C4B 1585   3.243   9.345   6.513  0.0344 -0.1960 -0.2035
   92POPC   NC3 1586   6.171   8.828   7.844  0.1153 -0.1802  0.0198
   92POPC   PO4 1587   6.463   9.125   8.016  0.1081  0.0460  0.0244
   92POPC   GL1 1588   6.599   9.111   7.618  0.0689 -0.1350  0.2829
   92POPC   GL2 1589   6.779   9.452   7.562 -0.1028  0.1482 -0.1338
   92POPC   C1A 1590   6.448   9.018   7.213  0.4023  0.0160  0.0705
   92POPC   D2A 1591   6.422   8.684   6.974  0.2332 -0.0449 -0.1745
   92POPC   C3A 1592   6.674   8.565   6.545 -0.0164  0.0056  0.1700
   92POPC   C4A 1593   6.766   8.612   6.161  0.0302 -0.0805 -0.1639
   92POPC   C1B 1594   6.923   9.663   7.220  0.2626 -0.0632  0.0176
   92POPC   C2B 1595   6.911  10.076   6.920  0.0762 -0.0690 -0.1434
   92POPC   C3B 1596   6.672  10.213   6.577  0.0601 -0.2768 -0.2179
   92POPC   C4B 1597   6.304  10.361   6.389  0.0113  0.0697  0.0712
   93POPC   NC3 1598   5.035   3.783   8.080  0.2581  0.0164  0.1575
   93POPC   PO4 1599   4.817   4.072   7.879 -0.3448  0.1521  0.1872
   93POPC   GL1 1600   4.532   4.188   7.611 -0.3161 -0.0473  0.0666
   93POPC   GL2 1601   4.566   4.462   7.502 -0.1178 -0.0441  0.3210
   93POPC   C1A 1602   4.072   4.190   7.722  0.1406  0.2292  0.2916
   93POPC   D2A 1603   3.661   4.325   7.461  0.0547  0.0154  0.0240
   93POPC   C3A 1604   3.425   4.054   7.146  0.0308  0.2152  0.1096
   93POPC   C4A 1605   3.310   3.776   6.754 -0.0509 -0.2734  0.0306
   93POPC   C1B 1606   4.220   4.639   7.349  0.1424  0.1107 -0.1390
   93POPC   C2B 1607   3.858   4.456   6.980  0.0978 -0.0754  0.0974
   93POPC   C3B 1608   3.417   4.553   6.873  0.0095  0.0664 -0.2070
   93POPC   C4B 1609   3.255   4.744   6.536  0.3563 -0.2413 -0.0196
   94POPC   NC3 1610   0.977   2.310   8.991 -0.1790  0.0484 -0.0891
   94POPC   PO4 1611   0.937   1.899   8.730  0.0877 -0.2390  0.3422
   94POPC   GL1 1612   0.835   1.547   8.513  0.2918 -0.1947  0.1634
   94POPC   GL2 1613   1.031   1.376   8.351 -0.4294  0.2046 -0.0736
   94POPC   C1A 1614   0.612   1.375   8.118 -0.0201 -0.0759  0.0581
   94POPC   D2A 1615   0.487   1.392   7.792 -0.2053 -0.1801 -0.1467
   94POPC   C3A 1616   0.173   1.446   7.721  0.1898  0.0881 -0.1058
   94POPC   C4A 1617  -0.121   1.279   7.522  0.1285 -0.1935  0.0744
   94POPC   C1B 1618   1.051   1.310   7.920  0.1346  0.2555  0.0283
   94POPC   C2B 1619   1.099   1.212   7.539  0.0150 -0.0886 -0.0122
   94POPC   C3B 1620   1.278   1.060   7.178 -0.0344  0.2613 -0.1188
   94POPC   C4B 1621   1.463   0.750   6.910 -0.1433 -0.2759  0.1090
   95POPC   NC3 1622   8.053   8.838   8.082 -0.3093 -0.0102 -0.0200
   95POPC   PO4 1623   8.263   8.455   7.876  0.0622  0.1629 -0.1029
   95POPC   GL1 1624   8.184   8.547   7.409 -0.2234 -0.3291 -0.2370
   95POPC   GL2 1625   8.394   8.829   7.252  0.4983 -0.0643 -0.2191
   95POPC   C1A 1626   8.229   8.443   6.950  0.1072  0.2625 -0.1670
   95POPC   D2A 1627   8.024   8.695   6.692 -0.0172 -0.1006 -0.1638
   95POPC   C3A 1628   7.922   8.588   6.282 -0.2025 -0.0363  0.0758
   95POPC   C4A 1629   7.699   8.705   5.972 -0.0269 -0.0469 -0.1529
   95POPC   C1B 1630   8.493   8.916   6.806 -0.0486 -0.1951 -0.2324
   95POPC   C2B 1631   8.621   8.786   6.391  0.2170 -0.2216  0.3465
   95POPC   C3B 1632   8.719   8.562   6.049 -0.0437  0.0765 -0.1581
   95POPC   C4B 1633   9.014   8.328   5.885 -0.1948  0.4367  0.1503
   96POPC   NC3 1634   7.018   2.054   8.841  0.0179  0.0954  0.0680
   96POPC   PO4 1635   7.059   1.665   8.696  0.1722 -0.0617 -0.2889
   96POPC   GL1 1636   7.123   1.414   8.338  0.0123 -0.0188 -0.2371
   96POPC   GL2 1637   7.382   1.269   8.400 -0.2475  0.1567  0.0166
   96POPC   C1A 1638   7.012   1.437   8.058  0.0566 -0.2381  0.2727
   96POPC   D2A 1639   6.646   1.635   8.036  0.1663 -0.3107 -0.1062
   96POPC   C3A 1640   6.402   1.675   7.680  0.2193  0.0209  0.0011
   96POPC   C4A 1641   6.223   2.085   7.368 -0.1060 -0.1379 -0.0976
   96POPC   C1B 1642   7.545   1.362   7.944  0.1200  0.6677 -0.2472
   96POPC   C2B 1643   7.227   1.253   7.613 -0.1029  0.0220 -0.1703
   96POPC   C3B 1644   6.826   1.453   7.428  0.3277 -0.2016  0.3489
   96POPC   C4B 1645   6.772   1.292   7.006 -0.0013 -0.0542 -0.2141
   97POPC   NC3 1646   6.466   9.475   8.362 -0.3772 -0.0225  0.2070
   97POPC   PO4 1647   6.824   9.696   8.122 -0.1227 -0.1926  0.0509
   97POPC   GL1 1648   6.729   9.916   7.715 -0.0770  0.0062 -0.1654
   97POPC   GL2 1649   6.460  10.048   7.679 -0.0557 -0.1684  0.1445
   97POPC   C1A 1650   6.913  10.251   7.370  0.1735 -0.0409 -0.0370
   97POPC   D2A 1651   6.784  10.540   7.221  0.3365  0.0843  0.2080
   97POPC   C3A 1652   6.842  10.714   6.729  0.0746  0.0845 -0.2667
   97POPC   C4A 1653   6.762  10.789   6.318 -0.1047 -0.2165  0.5686
   97POPC   C1B 1654   6.475   9.908   7.278  0.0026  0.1173 -0.0316
   97POPC   C2B 1655   6.383   9.921   6.830 -0.1644 -0.1603 -0.1556
   97POPC   C3B 1656   6.160   9.890   6.454 -0.2153 -0.0157  0.1547
   97POPC   C4B 1657   5.887   9.666   6.249 -0.2854 -0.0835 -0.1563
   98POPC   NC3 1658   0.798   0.297   9.096  0.2313  0.2178  0.1449
   98POPC   PO4 1659   0.783   0.593   8.770 -0.0767  0.2653  0.0187
   98POPC   GL1 1660   0.819   0.487   8.345  0.0368 -0.1532  0.1732
   98POPC   GL2 1661   1.137   0.443   8.157  0.1424 -0.1924 -0.0219
   98POPC   C1A 1662   0.851   0.221   7.847 -0.0815  0.0732  0.0115
   98POPC   D2A 1663   0.761   0.264   7.335 -0.1548 -0.6059 -0.0002
   98POPC   C3A 1664   0.770   0.050   6.954 -0.2320  0.0409  0.2189
   98POPC   C4A 1665   0.663  -0.302   6.805 -0.0680 -0.1564 -0.3800
   98POPC   C1B 1666   1.114   0.657   7.742  0.1747 -0.1624  0.1715
   98POPC   C2B 1667   0.934   0.740   7.359 -0.1818  0.0516 -0.1493
   98POPC   C3B 1668   0.864   0.732   6.905 -0.1631  0.0697  0.0313
   98POPC   C4B 1669   0.904   0.830   6.499 -0.1135  0.0221  0.0834
   99POPC   NC3 1670   7.222   7.658   8.437  0.3356  0.2235  0.1863
   99POPC   PO4 1671   7.249   7.353   8.022 -0.1952  0.3123  0.3975
   99POPC   GL1 1672   7.115   7.498   7.578  0.2525 -0.1510 -0.0191
   99POPC   GL2 1673   7.091   7.181   7.496  0.2040  0.0495 -0.2632
   99POPC   C1A 1674   7.019   7.644   7.113 -0.0129 -0.1858  0.1846
   99POPC   D2A 1675   6.771   7.428   6.693  0.1077  0.0904  0.0887
   99POPC   C3A 1676   6.282   7.507   6.630  0.0395 -0.0540  0.1519
   99POPC   C4A 1677   5.989   7.300   6.460  0.0460  0.0033  0.1577
   99POPC   C1B 1678   7.056   7.042   7.113  0.2661 -0.2891  0.1286
   99POPC   C2B 1679   7.193   6.954   6.697  0.2317 -0.2919  0.0411
   99POPC   C3B 1680   7.121   7.055   6.311  0.2497 -0.0311  0.2386
   99POPC   C4B 1681   6.960   7.041   5.920  0.2715  0.1245  0.1664
  100POPC   NC3 1682   7.977   2.755   8.596 -0.2036 -0.1101  0.1914
  100POPC   PO4 1683   8.195   3.069   8.735 -0.3718 -0.0616  0.0810
  100POPC   GL1 1684   8.453   3.112   8.459 -0.1364 -0.2291  0.1441
  100POPC   GL2 1685   8.226   3.252   8.269 -0.1512 -0.4507  0.0437
  100POPC   C1A 1686   8.585   3.146   7.974  0.1169  0.1264 -0.1381
  100POPC   D2A 1687   8.852   3.420   7.854  0.2290 -0.0667  0.0463
  100POPC   C3A 1688   8.823   3.583   7.439 -0.1831  0.1124  0.0098
  100POPC   C4A 1689   8.807   4.077   7.189  0.0185  0.3918  0.0236
  100POPC   C1B 1690   7.956   3.159   7.850  0.1226 -0.1045 -0.0541
  100POPC   C2B 1691   7.987   2.910   7.343  0.1543 -0.0217 -0.1309
  100POPC   C3B 1692   8.001   2.774   6.916  0.2733 -0.2468 -0.4460
  100POPC   C4B 1693   7.958   2.789   6.497  0.3927 -0.1856  0.1197
  101POPC   NC3 1694   5.785   1.494   8.399  0.0291 -0.0539  0.1795
  101POPC   PO4 1695   5.642   1.881   8.155 -0.0578  0.1043  0.0712
  101POPC   GL1 1696   5.902   1.653   7.941  0.1839  0.2794  0.0395
  101POPC   GL2 1697   6.104   1.445   8.002 -0.1647  0.1263  0.0990
  101POPC   C1A 1698   5.909   1.617   7.514 -0.3483 -0.1559  0.0716
  101POPC   D2A 1699   6.174   1.581   7.158  0.1088  0.4102  0.0730
  101POPC   C3A 1700   6.212   1.290   6.821 -0.0984  0.2722  0.0272
  101POPC   C4A 1701   6.442   0.947   6.683  0.0771  0.1725  0.2788
  101POPC   C1B 1702   6.193   1.224   7.713 -0.2841 -0.3086 -0.0905
  101POPC   C2B 1703   6.332   1.112   7.314 -0.3920 -0.2392 -0.0744
  101POPC   C3B 1704   6.578   0.840   7.124  0.1579 -0.1090  0.1893
  101POPC   C4B 1705   6.890   0.692   6.781 -0.1905  0.0668  0.0799
  102POPC   NC3 1706   0.106   2.911   8.990  0.0891  0.1237  0.1697
  102POPC   PO4 1707   0.027   3.352   9.043 -0.1653 -0.2071 -0.0027
  102POPC   GL1 1708   0.250   3.332   8.604  0.0588 -0.0858 -0.1867
  102POPC   GL2 1709   0.057   3.144   8.394  0.5907 -0.1429  0.0475
  102POPC   C1A 1710   0.501   3.446   8.186  0.2430 -0.1563  0.0301
  102POPC   D2A 1711   0.322   3.663   7.748  0.2172  0.0808 -0.2555
  102POPC   C3A 1712   0.404   4.074   7.683 -0.0189 -0.0011  0.1282
  102POPC   C4A 1713   0.434   4.566   7.643  0.3864  0.1342  0.2315
  102POPC   C1B 1714  -0.105   3.348   7.933 -0.1513 -0.0091 -0.2613
  102POPC   C2B 1715  -0.095   3.205   7.538  0.0712 -0.1119 -0.0809
  102POPC   C3B 1716  -0.337   3.014   7.295 -0.3006  0.3229 -0.2246
  102POPC   C4B 1717  -0.661   2.580   7.268 -0.2088  0.2000 -0.1235
  103POPC   NC3 1718   2.236   7.931   7.832  0.1785 -0.1570  0.0187
  103POPC   PO4 1719   2.310   8.358   7.888 -0.1741  0.2174  0.1684
  103POPC   GL1 1720   2.350   8.491   7.412 -0.2197 -0.0904 -0.2258
  103POPC   GL2 1721   2.686   8.516   7.376  0.1032  0.1244  0.0949
  103POPC   C1A 1722   2.345   8.643   6.984 -0.1998 -0.1001 -0.0292
  103POPC   D2A 1723   2.266   8.959   6.666 -0.0010  0.1699  0.1564
  103POPC   C3A 1724   1.870   8.865   6.551 -0.0184 -0.1890  0.0797
  103POPC   C4A 1725   1.527   9.179   6.450 -0.2823  0.0599  0.1328
  103POPC   C1B 1726   2.895   8.397   7.047 -0.1681  0.1314  0.1532
  103POPC   C2B 1727   3.254   8.456   6.824  0.4773  0.0942 -0.1540
  103POPC   C3B 1728   3.369   8.386   6.408 -0.1029 -0.2341 -0.0376
  103POPC   C4B 1729   3.312   8.764   6.169  0.2155 -0.3152  0.0746
  104POPC   NC3 1730   5.912   7.632   8.307  0.1249  0.0057  0.0629
  104POPC   PO4 1731   5.383   7.590   8.185  0.2542 -0.2862  0.3181
  104POPC   GL1 1732   5.391   7.655   7.739  0.3008 -0.0411  0.1879
  104POPC   GL2 1733   5.698   7.701   7.639 -0.2473  0.0799  0.0798
  104POPC   C1A 1734   5.283   7.749   7.309 -0.2838 -0.5274 -0.0480
  104POPC   D2A 1735   5.324   7.651   6.941 -0.4362  0.0256 -0.1150
  104POPC   C3A 1736   5.092   7.393   6.698  0.1724  0.1261 -0.0087
  104POPC   C4A 1737   4.681   7.368   6.606  0.1503  0.0134  0.0112
  104POPC   C1B 1738   5.768   7.536   7.205  0.2669  0.2635 -0.1777
  104POPC   C2B 1739   6.014   7.284   7.053 -0.2034  0.1140 -0.1331
  104POPC   C3B 1740   6.386   6.944   6.941  0.0590 -0.5757 -0.1878
  104POPC   C4B 1741   6.723   6.888   6.714 -0.2573 -0.1418 -0.1776
  105POPC   NC3 1742   3.860   5.326   8.171  0.2956  0.0063  0.1394
  105POPC   PO4 1743   4.046   4.858   8.215  0.1687  0.2731 -0.0153
  105POPC   GL1 1744   4.145   5.076   7.845  0.1484 -0.1425 -0.1158
  105POPC   GL2 1745   4.594   5.132   7.779 -0.2476  0.2079 -0.0713
  105POPC   C1A 1746   4.276   5.491   7.707 -0.2090  0.0177 -0.1626
  105POPC   D2A 1747   4.092   5.574   7.285 -0.0886 -0.1385  0.0632
  105POPC   C3A 1748   3.971   5.250   6.974  0.2197  0.0363  0.1522
  105POPC   C4A 1749   3.790   4.966   6.976 -0.0544 -0.0331  0.0529
  105POPC   C1B 1750   4.708   4.958   7.451  0.0860  0.2206 -0.2681
  105POPC   C2B 1751   4.545   4.882   7.004 -0.1335  0.2189  0.1339
  105POPC   C3B 1752   4.489   4.510   6.854 -0.1693  0.0395 -0.1659
  105POPC   C4B 1753   4.202   4.251   6.622 -0.1508 -0.1381 -0.4487
  106POPC   NC3 1754   6.232   0.486   8.923 -0.0807  0.0343 -0.1589
  106POPC   PO4 1755   6.586   0.140   9.013 -0.1729  0.1999  0.1135
  106POPC   GL1 1756   6.627   0.182   8.552  0.2251 -0.0177 -0.2845
  106POPC   GL2 1757   6.932   0.035   8.307  0.2258 -0.0358 -0.0743
  106POPC   C1A 1758   6.418   0.158   8.219 -0.0236 -0.2177  0.0165
  106POPC   D2A 1759   6.497   0.056   7.723 -0.1641 -0.1213  0.0598
  106POPC   C3A 1760   6.148   0.101   7.411  0.1765  0.2259 -0.2983
  106POPC   C4A 1761   5.922   0.283   7.126  0.2286 -0.1951  0.1580
  106POPC   C1B 1762   7.220   0.450   8.218  0.0577 -0.2535  0.0863
  106POPC   C2B 1763   7.641   0.659   8.146  0.1068 -0.0333 -0.1095
  106POPC   C3B 1764   7.979   0.560   7.797 -0.2384  0.2959 -0.0959
  106POPC   C4B 1765   8.045   0.496   7.409 -0.3343  0.2304 -0.0517
  107POPC   NC3 1766   0.009   4.869   8.436  0.0123 -0.0025  0.2707
  107POPC   PO4 1767   0.403   4.928   8.158 -0.2401  0.0308 -0.1544
  107POPC   GL1 1768   0.031   4.892   7.850  0.4967 -0.2006 -0.1715
  107POPC   GL2 1769  -0.050   4.967   7.591 -0.2985 -0.2713 -0.2414
  107POPC   C1A 1770  -0.098   4.488   7.724 -0.1009 -0.1376  0.3595
  107POPC   D2A 1771  -0.123   4.230   7.360 -0.2899 -0.2862 -0.0825
  107POPC   C3A 1772   0.311   4.095   7.163 -0.0529  0.2341 -0.1255
  107POPC   C4A 1773   0.620   3.901   6.804 -0.4221 -0.0921  0.0692
  107POPC   C1B 1774   0.183   4.769   7.273  0.0408 -0.0512  0.0586
  107POPC   C2B 1775  -0.012   4.625   6.983  0.0786 -0.3122  0.0524
  107POPC   C3B 1776   0.034   4.165   6.789 -0.0049  0.0411  0.0754
  107POPC   C4B 1777   0.148   3.757   6.774 -0.2239 -0.0717 -0.1490
  108POPC   NC3 1778   4.245   3.898   8.675  0.0441  0.0997  0.1124
  108POPC   PO4 1779   3.834   3.799   8.617  0.1226 -0.0908  0.0168
  108POPC   GL1 1780   3.912   3.835   8.234 -0.0516 -0.0895 -0.1904
  108POPC   GL2 1781   3.670   4.014   8.125  0.1661 -0.1966 -0.2106
  108POPC   C1A 1782   4.033   3.650   7.853 -0.0385 -0.1044 -0.1705
  108POPC   D2A 1783   4.294   3.688   7.492  0.2097  0.1640 -0.0496
  108POPC   C3A 1784   4.628   3.318   7.330  0.2728 -0.1430  0.0397
  108POPC   C4A 1785   4.703   2.834   7.394  0.2719  0.0129 -0.0771
  108POPC   C1B 1786   3.514   3.905   7.784  0.1764 -0.0998 -0.2612
  108POPC   C2B 1787   3.642   3.700   7.463  0.1904 -0.1414 -0.0683
  108POPC   C3B 1788   3.933   3.934   7.278  0.0143  0.0249 -0.0171
  108POPC   C4B 1789   4.327   4.138   7.155 -0.0012 -0.1433 -0.1992
  109POPC   NC3 1790   4.309   0.656   8.154 -0.0119 -0.0080  0.1552
  109POPC   PO4 1791   4.551   0.410   8.008  0.0230 -0.0404 -0.0257
  109POPC   GL1 1792   4.724   0.698   7.785  0.1828  0.2566 -0.1175
  109POPC   GL2 1793   4.533   0.916   7.678 -0.0135 -0.1074 -0.2226
  109POPC   C1A 1794   4.958   0.696   7.367 -0.3720 -0.0287  0.0242
  109POPC   D2A 1795   5.057   0.603   7.019 -0.1663 -0.1130 -0.0607
  109POPC   C3A 1796   4.888   0.508   6.698  0.2848 -0.2268 -0.0610
  109POPC   C4A 1797   4.618   0.171   6.362 -0.2449  0.0021 -0.1860
  109POPC   C1B 1798   4.697   1.190   7.431  0.0495  0.1486  0.1603
  109POPC   C2B 1799   4.848   1.468   7.108  0.3605  0.0017 -0.0428
  109POPC   C3B 1800   4.775   1.700   6.706  0.0910  0.0975 -0.1057
  109POPC   C4B 1801   4.465   1.765   6.386  0.0123  0.2558 -0.1148
  110POPC   NC3 1802   8.552   1.504   8.960 -0.3487  0.0584  0.3659
  110POPC   PO4 1803   8.547   1.883   9.016 -0.3438 -0.3116  0.0421
  110POPC   GL1 1804   8.840   1.858   8.597 -0.0583 -0.4642 -0.1835
  110POPC   GL2 1805   8.962   1.578   8.662  0.1229  0.1790 -0.1030
  110POPC   C1A 1806   8.821   1.553   8.193 -0.1013  0.3111 -0.2431
  110POPC   D2A 1807   9.147   1.432   7.883  0.0161  0.3797 -0.2438
  110POPC   C3A 1808   9.431   1.099   8.012 -0.0390 -0.0152  0.1675
  110POPC   C4A 1809   9.620   0.759   8.264  0.0722 -0.3362  0.3076
  110POPC   C1B 1810   9.136   1.238   8.427 -0.0467  0.5785  0.0398
  110POPC   C2B 1811   9.052   0.886   8.191 -0.0009 -0.0408  0.0988
  110POPC   C3B 1812   8.827   0.425   8.286  0.0342 -0.0258  0.1795
  110POPC   C4B 1813   8.393   0.291   8.150  0.0977 -0.0797  0.0515
  111POPC   NC3 1814   7.768   5.722   8.552 -0.2176 -0.4171 -0.0484
  111POPC   PO4 1815   8.115   5.430   8.323  0.1630  0.4356 -0.0731
  111POPC   GL1 1816   8.093   5.419   7.770 -0.1012  0.2045 -0.1560
  111POPC   GL2 1817   7.822   5.248   7.890  0.0370  0.2813 -0.2910
  111POPC   C1A 1818   8.308   5.537   7.449  0.2594  0.3639  0.1622
  111POPC   D2A 1819   8.292   5.714   6.996 -0.2752 -0.0667  0.0366
  111POPC   C3A 1820   8.370   5.582   6.670 -0.0386 -0.2109 -0.1530
  111POPC   C4A 1821   8.275   5.454   6.289 -0.4406 -0.0924 -0.1389
  111POPC   C1B 1822   7.523   5.162   7.524  0.0423 -0.0038  0.0265
  111POPC   C2B 1823   7.598   5.231   7.091  0.0877  0.1647 -0.1852
  111POPC   C3B 1824   7.829   5.442   6.733  0.1695 -0.2458 -0.1351
  111POPC   C4B 1825   7.857   5.717   6.353  0.1900  0.0185 -0.1931
  112POPC   NC3 1826   1.521   5.193   8.956  0.4200  0.1418 -0.0589
  112POPC   PO4 1827   1.366   5.139   8.489 -0.0138 -0.1062 -0.2300
  112POPC   GL1 1828   1.426   4.896   8.156 -0.1256 -0.1386 -0.1788
  112POPC   GL2 1829   1.625   4.542   8.130  0.3489  0.3284  0.1132
  112POPC   C1A 1830   1.111   4.677   7.882  0.0539 -0.0426  0.0599
  112POPC   D2A 1831   0.957   4.485   7.543  0.0051  0.0949 -0.1615
  112POPC   C3A 1832   1.190   4.230   7.326 -0.4080 -0.3213 -0.0420
  112POPC   C4A 1833   1.238   3.845   7.494 -0.0629  0.2538  0.1358
  112POPC   C1B 1834   1.492   4.412   7.701  0.1633  0.0865  0.1058
  112POPC   C2B 1835   1.724   4.337   7.300  0.1998 -0.0391  0.0856
  112POPC   C3B 1836   1.773   4.509   6.835 -0.2125  0.1673 -0.0309
  112POPC   C4B 1837   1.689   4.555   6.389 -0.1166 -0.0197 -0.0572
  113POPC   NC3 1838   0.968   9.374   8.248  0.1319  0.0227 -0.1360
  113POPC   PO4 1839   1.294   9.240   8.130 -0.0648 -0.0311 -0.0146
  113POPC   GL1 1840   1.456   9.218   7.777 -0.0041  0.0689 -0.0027
  113POPC   GL2 1841   1.576   9.504   7.656  0.0208 -0.1595  0.0400
  113POPC   C1A 1842   1.559   9.038   7.394  0.1446 -0.0169  0.2283
  113POPC   D2A 1843   1.500   9.051   6.999 -0.0531 -0.0931 -0.2430
  113POPC   C3A 1844   1.494   8.701   6.869  0.1833  0.1227  0.3087
  113POPC   C4A 1845   1.675   8.399   6.459  0.2222  0.0988  0.2231
  113POPC   C1B 1846   1.441   9.578   7.206  0.1663  0.1287 -0.1420
  113POPC   C2B 1847   1.477   9.770   6.795  0.5015 -0.1247  0.0609
  113POPC   C3B 1848   1.734   9.675   6.441  0.0565 -0.0258  0.0512
  113POPC   C4B 1849   1.817   9.362   6.117  0.1212 -0.1448 -0.0807
  114POPC   NC3 1850   8.627   6.817   8.192  0.0013  0.4632  0.2376
  114POPC   PO4 1851   8.760   6.974   7.822  0.0273  0.3492 -0.0893
  114POPC   GL1 1852   8.703   6.983   7.410  0.1092  0.2850  0.1200
  114POPC   GL2 1853   8.962   6.771   7.377  0.0931  0.0203 -0.2177
  114POPC   C1A 1854   8.682   6.819   6.986 -0.0119 -0.4278  0.2335
  114POPC   D2A 1855   9.045   6.857   6.619  0.0994  0.0064 -0.1169
  114POPC   C3A 1856   8.925   6.967   6.124 -0.0438 -0.1825  0.0825
  114POPC   C4A 1857   8.783   6.596   5.860 -0.2238 -0.1170 -0.2839
  114POPC   C1B 1858   8.939   6.348   7.162 -0.0241  0.0530  0.0241
  114POPC   C2B 1859   8.739   6.400   6.736 -0.1512  0.0302 -0.0258
  114POPC   C3B 1860   8.589   6.569   6.339 -0.2394  0.1876  0.1280
  114POPC   C4B 1861   8.348   6.417   6.026 -0.2147  0.0742  0.2210
  115POPC   NC3 1862   5.680  10.482   8.866  0.0064 -0.3738  0.1341
  115POPC   PO4 1863   5.686  10.907   8.420 -0.0073  0.0846 -0.0129
  115POPC   GL1 1864   5.879  11.097   8.132 -0.1041 -0.4128  0.0545
  115POPC   GL2 1865   5.978  10.844   7.974 -0.1004  0.1938 -0.2166
  115POPC   C1A 1866   5.661  11.031   7.644  0.2616 -0.0109  0.2858
  115POPC   D2A 1867   5.503  10.844   7.207  0.2387 -0.0544 -0.1590
  115POPC   C3A 1868   5.158  10.823   7.003  0.3494  0.2271  0.1685
  115POPC   C4A 1869   5.075  10.713   6.616  0.1228 -0.1678 -0.0941
  115POPC   C1B 1870   6.081  11.257   7.737 -0.1207 -0.2249  0.1824
  115POPC   C2B 1871   6.179  11.398   7.415  0.0526 -0.0430  0.3949
  115POPC   C3B 1872   6.050  11.504   6.976 -0.0182  0.0785 -0.3113
  115POPC   C4B 1873   5.893  11.651   6.490 -0.5302 -0.0267  0.1254
  116POPC   NC3 1874   3.778   9.371   8.428  0.1871  0.0234 -0.0050
  116POPC   PO4 1875   4.134   9.457   8.318 -0.0417 -0.0570  0.0381
  116POPC   GL1 1876   3.948   9.599   7.962  0.0626  0.1142  0.0324
  116POPC   GL2 1877   4.184   9.803   7.895  0.1233  0.0645  0.0064
  116POPC   C1A 1878   3.702   9.407   7.645  0.0070 -0.1076  0.0358
  116POPC   D2A 1879   3.559   9.150   7.313 -0.0766  0.0214 -0.1992
  116POPC   C3A 1880   3.492   9.253   6.920  0.1644  0.4216 -0.1615
  116POPC   C4A 1881   3.781   9.448   6.555  0.1469  0.0049  0.2801
  116POPC   C1B 1882   4.259   9.594   7.557 -0.0170 -0.0261 -0.0061
  116POPC   C2B 1883   4.394   9.569   7.098  0.1662  0.0221 -0.2958
  116POPC   C3B 1884   4.706   9.560   6.783  0.1038 -0.2704  0.0394
  116POPC   C4B 1885   5.073   9.437   6.658  0.0401 -0.1607 -0.3904
  117POPC   NC3 1886   4.405   6.711   8.257  0.2592 -0.0926 -0.1072
  117POPC   PO4 1887   3.936   6.676   8.338 -0.0975 -0.5439  0.1026
  117POPC   GL1 1888   3.928   6.805   7.894 -0.1246  0.1865 -0.3735
  117POPC   GL2 1889   4.143   6.531   7.845  0.0810  0.1399  0.1758
  117POPC   C1A 1890   3.999   7.001   7.502 -0.4143  0.2017 -0.1440
  117POPC   D2A 1891   4.054   6.917   7.121 -0.1401 -0.3484  0.2101
  117POPC   C3A 1892   3.754   6.631   6.960 -0.1549  0.1221 -0.1390
  117POPC   C4A 1893   3.468   6.629   6.731  0.1965  0.0501  0.0205
  117POPC   C1B 1894   4.439   6.728   7.586  0.0234  0.0365  0.1926
  117POPC   C2B 1895   4.551   6.711   7.124 -0.1448  0.1707  0.0451
  117POPC   C3B 1896   4.724   6.573   6.834  0.2056  0.1864  0.3998
  117POPC   C4B 1897   4.727   6.051   6.628 -0.0989 -0.2754  0.3257
  118POPC   NC3 1898  10.410   3.731   9.003 -0.2977 -0.0197  0.3880
  118POPC   PO4 1899  10.815   3.802   8.720 -0.2162  0.1247 -0.0183
  118POPC   GL1 1900  10.462   3.517   8.551 -0.0577  0.1233 -0.1952
  118POPC   GL2 1901  10.409   3.894   8.443 -0.1301  0.2275 -0.1251
  118POPC   C1A 1902  10.159   3.425   8.270  0.0743 -0.3533 -0.1301
  118POPC   D2A 1903   9.762   3.232   8.347 -0.2952 -0.1000 -0.0449
  118POPC   C3A 1904   9.666   2.912   8.069  0.0152 -0.1607  0.1538
  118POPC   C4A 1905   9.876   2.599   7.899  0.1976  0.0652 -0.1847
  118POPC   C1B 1906  10.343   3.752   7.913 -0.1245 -0.0653 -0.1171
  118POPC   C2B 1907  10.615   3.704   7.557  0.0696 -0.0585  0.3272
  118POPC   C3B 1908  10.610   3.670   7.172 -0.1691 -0.0961 -0.0980
  118POPC   C4B 1909  10.405   3.869   6.804  0.2241  0.1582  0.0100
  119POPC   NC3 1910   4.594   4.321   8.352 -0.3320  0.1421  0.2962
  119POPC   PO4 1911   4.743   4.660   8.318 -0.0366  0.1245  0.1336
  119POPC   GL1 1912   4.952   4.688   7.899 -0.0907 -0.2197 -0.3471
  119POPC   GL2 1913   5.158   4.486   7.875  0.0769 -0.0244  0.1809
  119POPC   C1A 1914   5.138   5.026   7.628 -0.2182  0.1813  0.0183
  119POPC   D2A 1915   5.305   4.977   7.311  0.2644 -0.0962  0.0907
  119POPC   C3A 1916   5.116   4.836   6.914  0.4088  0.0949 -0.0714
  119POPC   C4A 1917   4.783   4.819   6.450 -0.3128 -0.2128 -0.0135
  119POPC   C1B 1918   5.039   4.497   7.390 -0.1592 -0.3182  0.2478
  119POPC   C2B 1919   4.883   4.278   7.076  0.0788  0.1585 -0.2843
  119POPC   C3B 1920   4.631   4.050   6.795 -0.1250 -0.0211 -0.1061
  119POPC   C4B 1921   4.396   3.835   6.471  0.0330 -0.0555  0.0302
  120POPC   NC3 1922   7.813   0.472   9.466 -0.0921 -0.3712 -0.1544
  120POPC   PO4 1923   7.860   0.687   9.082  0.0331 -0.0809  0.2303
  120POPC   GL1 1924   7.909   0.578   8.592  0.1894 -0.0679 -0.1937
  120POPC   GL2 1925   8.114   0.317   8.590  0.2602 -0.0422  0.1649
  120POPC   C1A 1926   8.195   0.743   8.285 -0.2673 -0.1266 -0.2116
  120POPC   D2A 1927   8.386   1.131   8.320 -0.1156 -0.0027  0.2025
  120POPC   C3A 1928   8.587   1.240   7.807  0.0173  0.1363  0.1401
  120POPC   C4A 1929   8.882   1.024   7.726 -0.4072 -0.1624  0.1850
  120POPC   C1B 1930   7.934   0.195   8.126 -0.1203 -0.2147  0.2129
  120POPC   C2B 1931   8.001   0.044   7.696 -0.0930 -0.2346  0.1982
  120POPC   C3B 1932   7.888   0.031   7.326  0.1388 -0.3064  0.0831
  120POPC   C4B 1933   8.014   0.203   6.989 -0.2649 -0.0682  0.2502
  121POPC   NC3 1934   8.688   8.822   7.906 -0.1294 -0.0087 -0.0461
  121POPC   PO4 1935   8.368   9.021   7.756 -0.3433 -0.0485 -0.0844
  121POPC   GL1 1936   8.428   9.327   7.361  0.1957  0.1705  0.2303
  121POPC   GL2 1937   8.854   9.485   7.361  0.2126 -0.0791  0.0150
  121POPC   C1A 1938   8.489   9.604   6.961  0.0549  0.0629 -0.2667
  121POPC   D2A 1939   8.772   9.700   6.648  0.0976 -0.0623 -0.0650
  121POPC   C3A 1940   8.679   9.839   6.244  0.2185  0.2063 -0.0472
  121POPC   C4A 1941   8.499  10.001   5.959  0.0865  0.2007  0.0452
  121POPC   C1B 1942   8.769   9.908   7.124 -0.1717 -0.3061  0.0297
  121POPC   C2B 1943   8.712  10.248   6.924 -0.0314  0.0566  0.3092
  121POPC   C3B 1944   8.850  10.581   6.851  0.0715 -0.0118 -0.2369
  121POPC   C4B 1945   8.787  10.898   6.718  0.0584  0.5216 -0.2613
  122POPC   NC3 1946   1.850   9.502   8.048 -0.1356  0.2357  0.5859
  122POPC   PO4 1947   2.268   9.641   8.095 -0.2787  0.0120 -0.1047
  122POPC   GL1 1948   2.242   9.624   7.689  0.0545  0.0957  0.3934
  122POPC   GL2 1949   2.178   9.881   7.583  0.1733 -0.0782  0.3316
  122POPC   C1A 1950   2.013   9.470   7.333 -0.3045  0.1476 -0.1675
  122POPC   D2A 1951   1.862   9.330   6.917  0.1943  0.0436 -0.1098
  122POPC   C3A 1952   2.114   9.424   6.604 -0.1153  0.0601  0.0176
  122POPC   C4A 1953   2.300   9.414   6.225  0.1468 -0.3085  0.0040
  122POPC   C1B 1954   2.111   9.993   7.162 -0.1926 -0.0366  0.1588
  122POPC   C2B 1955   2.050   9.952   6.774  0.0311 -0.2588  0.0470
  122POPC   C3B 1956   1.967  10.237   6.367 -0.0793  0.0818 -0.1087
  122POPC   C4B 1957   1.838  10.719   6.417  0.0811 -0.1152 -0.1199
  123POPC   NC3 1958   5.114   8.342   8.578 -0.1362  0.0993 -0.1264
  123POPC   PO4 1959   4.956   8.453   8.154 -0.0354 -0.0443  0.0762
  123POPC   GL1 1960   4.878   8.411   7.779 -0.0913 -0.3295  0.2709
  123POPC   GL2 1961   4.609   8.544   7.580 -0.3265 -0.0973  0.3912
  123POPC   C1A 1962   4.854   8.021   7.504  0.0659  0.3869  0.2668
  123POPC   D2A 1963   4.847   7.592   7.507 -0.1613 -0.1156 -0.2457
  123POPC   C3A 1964   4.895   7.325   7.144  0.0582  0.0952  0.0040
  123POPC   C4A 1965   4.980   6.986   6.947  0.2793  0.1111  0.4756
  123POPC   C1B 1966   4.468   8.287   7.218 -0.0306  0.2973 -0.1733
  123POPC   C2B 1967   4.217   8.229   6.862 -0.1064  0.0310 -0.0676
  123POPC   C3B 1968   3.962   8.583   6.661  0.0763  0.0832 -0.3264
  123POPC   C4B 1969   3.787   8.650   6.224  0.3452 -0.2294 -0.0722
  124POPC   NC3 1970   7.988   3.467   8.705  0.1193 -0.0567  0.0704
  124POPC   PO4 1971   7.670   3.177   8.426 -0.2158  0.1743 -0.1207
  124POPC   GL1 1972   7.670   3.389   8.109  0.1143  0.0523  0.0841
  124POPC   GL2 1973   7.896   3.693   8.079 -0.1756 -0.0547  0.0370
  124POPC   C1A 1974   7.469   3.230   7.741  0.2478  0.1040  0.0138
  124POPC   D2A 1975   7.263   3.269   7.363 -0.2397  0.2890  0.0732
  124POPC   C3A 1976   7.468   2.961   7.268 -0.1345  0.4188  0.0115
  124POPC   C4A 1977   7.206   2.559   7.129  0.0615 -0.0360 -0.1026
  124POPC   C1B 1978   7.915   3.587   7.603 -0.1004 -0.3570  0.3723
  124POPC   C2B 1979   7.789   3.694   7.201  0.0402 -0.2023 -0.4452
  124POPC   C3B 1980   7.859   3.759   6.744 -0.0161  0.3804  0.1506
  124POPC   C4B 1981   7.619   3.670   6.378 -0.4702  0.2728 -0.1118
  125POPC   NC3 1982   2.375   3.973   8.338 -0.0982 -0.4309 -0.5107
  125POPC   PO4 1983   2.185   3.494   8.290  0.2156  0.3160 -0.2056
  125POPC   GL1 1984   2.208   3.302   7.877 -0.0224  0.0323 -0.0182
  125POPC   GL2 1985   2.451   3.219   7.866 -0.2344  0.3114 -0.0022
  125POPC   C1A 1986   2.025   3.446   7.494 -0.0827 -0.3144 -0.2556
  125POPC   D2A 1987   1.916   3.711   7.243 -0.0523 -0.0047 -0.1734
  125POPC   C3A 1988   1.575   3.929   7.125  0.1933  0.2162  0.2086
  125POPC   C4A 1989   1.327   4.050   6.765 -0.3781  0.1473 -0.1306
  125POPC   C1B 1990   2.689   3.275   7.506  0.0741 -0.2148 -0.0352
  125POPC   C2B 1991   2.781   3.403   6.984 -0.0262 -0.0158 -0.0840
  125POPC   C3B 1992   2.766   3.549   6.537 -0.0043 -0.3664  0.1063
  125POPC   C4B 1993   2.900   3.324   6.132  0.4566 -0.0118  0.0995
  126POPC   NC3 1994   5.343   1.550   8.201  0.2942 -0.1328  0.0401
  126POPC   PO4 1995   5.124   1.186   8.171 -0.0020 -0.3356 -0.2952
  126POPC   GL1 1996   5.086   1.142   7.754 -0.1786  0.0247  0.1231
  126POPC   GL2 1997   5.168   1.470   7.693  0.2247 -0.0255 -0.0939
  126POPC   C1A 1998   5.213   1.107   7.262 -0.0280 -0.2163 -0.0851
  126POPC   D2A 1999   4.958   1.034   6.850  0.0430 -0.1410 -0.3546
  126POPC   C3A 2000   5.006   1.183   6.470 -0.0388 -0.1722 -0.1398
  126POPC   C4A 2001   4.691   1.340   6.298 -0.4769  0.3302 -0.1337
  126POPC   C1B 2002   5.341   1.583   7.353 -0.1242 -0.0415 -0.1044
  126POPC   C2B 2003   5.682   1.660   7.073  0.3581  0.0026 -0.0805
  126POPC   C3B 2004   5.905   1.770   6.661  0.1214  0.1541 -0.1740
  126POPC   C4B 2005   5.905   2.250   6.399  0.0440 -0.2252 -0.1870
  127POPC   NC3 2006   3.156   5.245   8.260  0.4834 -0.2066  0.0497
  127POPC   PO4 2007   3.510   4.972   8.227 -0.1464 -0.3166 -0.1086
  127POPC   GL1 2008   3.388   5.088   7.885 -0.0690 -0.0092 -0.1711
  127POPC   GL2 2009   3.059   4.899   7.785  0.0004  0.0573  0.2236
  127POPC   C1A 2010   3.235   5.243   7.531 -0.0333  0.1861  0.4159
  127POPC   D2A 2011   2.878   5.482   7.298 -0.1149 -0.2710 -0.0152
  127POPC   C3A 2012   2.540   5.513   7.089  0.3870 -0.2225 -0.2183
  127POPC   C4A 2013   2.308   5.294   6.882  0.1641  0.0062 -0.0390
  127POPC   C1B 2014   2.602   5.044   7.696 -0.0814  0.3055 -0.0303
  127POPC   C2B 2015   2.402   5.061   7.282 -0.1146 -0.1151 -0.1848
  127POPC   C3B 2016   1.894   5.034   7.328  0.0660  0.0636  0.0868
  127POPC   C4B 2017   1.753   4.789   7.659  0.2050 -0.2258  0.0309
  128POPC   NC3 2018   6.703   2.046   8.345  0.2730  0.0021  0.2893
  128POPC   PO4 2019   6.883   2.431   8.567 -0.2160 -0.1930 -0.0667
  128POPC   GL1 2020   6.951   2.514   8.134 -0.2831  0.1338  0.3129
  128POPC   GL2 2021   6.763   2.672   7.937  0.0310  0.1084  0.0423
  128POPC   C1A 2022   7.141   2.227   7.808 -0.0030 -0.0704 -0.0540
  128POPC   D2A 2023   7.334   2.241   7.472  0.1913  0.0616  0.1197
  128POPC   C3A 2024   7.594   1.941   7.307  0.1408 -0.1417  0.1010
  128POPC   C4A 2025   7.570   1.444   7.292 -0.1472  0.1803 -0.1790
  128POPC   C1B 2026   6.925   2.564   7.525 -0.2362 -0.0048 -0.1884
  128POPC   C2B 2027   6.906   2.897   7.293  0.4335 -0.2494 -0.1048
  128POPC   C3B 2028   6.924   3.177   6.992 -0.3381  0.1137  0.1751
  128POPC   C4B 2029   7.169   3.492   6.662  0.1010  0.0108 -0.1628
  129POPC   NC3 2030   5.820   2.257   8.468 -0.0240 -0.2352  0.2894
  129POPC   PO4 2031   6.152   1.933   8.234  0.0673  0.0868  0.1975
  129POPC   GL1 2032   5.927   2.112   7.841 -0.3196 -0.1629  0.1233
  129POPC   GL2 2033   5.753   2.444   7.891 -0.2370  0.3367 -0.0028
  129POPC   C1A 2034   5.739   2.052   7.466 -0.0684  0.0724  0.1528
  129POPC   D2A 2035   5.786   2.134   6.972 -0.2171 -0.0482  0.0053
  129POPC   C3A 2036   6.276   2.278   6.764 -0.1119  0.1094 -0.0546
  129POPC   C4A 2037   6.637   2.411   6.621  0.0143  0.1061  0.2710
  129POPC   C1B 2038   5.496   2.505   7.474 -0.3989  0.0360 -0.0285
  129POPC   C2B 2039   5.517   2.581   7.102  0.1924  0.3719  0.0746
  129POPC   C3B 2040   5.420   2.317   6.692 -0.1988  0.3729 -0.0162
  129POPC   C4B 2041   5.453   1.933   6.446 -0.1982 -0.1604  0.0332
  130POPC   NC3 2042   9.423   5.838   7.849 -0.1974  0.0626 -0.1633
  130POPC   PO4 2043   9.228   5.423   7.848  0.1660 -0.0053 -0.2397
  130POPC   GL1 2044   9.164   5.298   7.478  0.1075  0.3315 -0.2181
  130POPC   GL2 2045   9.006   5.059   7.316  0.0902  0.1491  0.2887
  130POPC   C1A 2046   9.420   5.060   7.121 -0.2627  0.1520  0.0023
  130POPC   D2A 2047   9.764   5.194   6.861  0.0275  0.1495  0.4932
  130POPC   C3A 2048   9.748   5.166   6.523  0.2636 -0.2595 -0.1847
  130POPC   C4A 2049   9.582   4.883   6.238 -0.1152 -0.0417  0.4401
  130POPC   C1B 2050   9.000   4.703   7.102 -0.2566 -0.2296  0.1413
  130POPC   C2B 2051   8.808   4.350   6.686  0.2643 -0.1505  0.1219
  130POPC   C3B 2052   8.600   4.240   6.356  0.0153 -0.3784 -0.1247
  130POPC   C4B 2053   8.610   3.907   6.206  0.0686  0.1672  0.0693
  131POPC   NC3 2054  10.445   9.914   8.817 -0.0463  0.3068 -0.1183
  131POPC   PO4 2055  10.144   9.845   8.367 -0.1428  0.3158  0.1520
  131POPC   GL1 2056  10.206   9.829   7.882  0.1587 -0.3289  0.1107
  131POPC   GL2 2057  10.306   9.546   7.773  0.1383 -0.1179 -0.0719
  131POPC   C1A 2058   9.762   9.885   7.601  0.0975 -0.1582 -0.2408
  131POPC   D2A 2059   9.468  10.061   7.851  0.4180  0.1791  0.0888
  131POPC   C3A 2060   9.300  10.457   7.950  0.0781 -0.0756  0.1492
  131POPC   C4A 2061   9.027  10.815   7.833 -0.1514  0.3575 -0.0663
  131POPC   C1B 2062  10.172   9.545   7.318  0.4190  0.1291  0.0329
  131POPC   C2B 2063  10.103   9.606   6.922  0.2237  0.2044  0.2192
  131POPC   C3B 2064  10.038   9.558   6.483  0.0635 -0.0753  0.0586
  131POPC   C4B 2065   9.957   9.386   6.028 -0.0656 -0.4452  0.0918
  132POPC   NC3 2066   9.866   9.512   8.047  0.1264  0.1410  0.0276
  132POPC   PO4 2067  10.127   9.117   7.919  0.0467  0.2615  0.1617
  132POPC   GL1 2068   9.829   9.225   7.633  0.0048  0.2230  0.0759
  132POPC   GL2 2069   9.510   9.061   7.612 -0.4273  0.3022 -0.1920
  132POPC   C1A 2070   9.829   9.153   7.164  0.2787 -0.0836 -0.2936
  132POPC   D2A 2071   9.724   9.282   6.758 -0.2233  0.1964 -0.0073
  132POPC   C3A 2072   9.453   9.069   6.492 -0.1943  0.3336 -0.0139
  132POPC   C4A 2073   9.058   9.042   6.246  0.3372  0.0810  0.3108
  132POPC   C1B 2074   9.332   9.042   7.190  0.2085  0.3452 -0.1341
  132POPC   C2B 2075   9.554   8.816   6.930  0.5069  0.2377 -0.1097
  132POPC   C3B 2076   9.736   8.564   6.591  0.0289  0.0682 -0.0468
  132POPC   C4B 2077   9.887   8.361   6.279 -0.1830 -0.1393  0.0635
  133POPC   NC3 2078   5.509   6.980   8.384  0.4082  0.0217 -0.0794
  133POPC   PO4 2079   5.873   7.127   8.212  0.3541  0.1213 -0.1733
  133POPC   GL1 2080   5.684   7.162   7.858 -0.1896 -0.0164  0.0607
  133POPC   GL2 2081   5.802   7.199   7.591 -0.0120  0.0613  0.0768
  133POPC   C1A 2082   5.447   6.845   7.716 -0.0003  0.1313 -0.0443
  133POPC   D2A 2083   5.529   6.322   7.657  0.1572  0.0284 -0.4051
  133POPC   C3A 2084   5.774   6.134   7.334  0.1861  0.0622 -0.3556
  133POPC   C4A 2085   6.053   5.966   7.008  0.1745 -0.0259 -0.1839
  133POPC   C1B 2086   5.745   6.873   7.332  0.3886  0.0237 -0.0238
  133POPC   C2B 2087   5.493   6.648   7.252  0.2963 -0.1748  0.0924
  133POPC   C3B 2088   5.482   6.379   6.937  0.0959  0.0559  0.2111
  133POPC   C4B 2089   5.187   6.208   6.741  0.2446  0.1634 -0.1639
  134POPC   NC3 2090   5.204   8.831   7.687  0.1282 -0.0984  0.2866
  134POPC   PO4 2091   5.441   9.224   7.827 -0.2664 -0.2541 -0.0060
  134POPC   GL1 2092   5.524   9.097   7.383  0.0697  0.1755 -0.2623
  134POPC   GL2 2093   5.469   8.804   7.212 -0.0609 -0.1349 -0.0077
  134POPC   C1A 2094   5.610   9.175   6.881 -0.2126 -0.0387  0.1582
  134POPC   D2A 2095   5.511   9.379   6.480 -0.2342  0.2864  0.0937
  134POPC   C3A 2096   5.446   9.846   6.556 -0.2277 -0.0408 -0.1602
  134POPC   C4A 2097   5.361  10.311   6.876  0.1615 -0.0235  0.1874
  134POPC   C1B 2098   5.346   8.757   6.820  0.1402 -0.0584 -0.4183
  134POPC   C2B 2099   5.427   8.767   6.275 -0.2437  0.1166 -0.0924
  134POPC   C3B 2100   5.529   8.479   5.864  0.0684 -0.0209 -0.2081
  134POPC   C4B 2101   5.509   8.379   5.464  0.2168  0.0304  0.0011
  135POPC   NC3 2102   2.623   2.720   8.116  0.0467 -0.3334  0.2007
  135POPC   PO4 2103   3.002   2.549   8.056  0.1549 -0.4122 -0.1055
  135POPC   GL1 2104   2.766   2.788   7.638 -0.2047  0.0869  0.0160
  135POPC   GL2 2105   2.472   2.691   7.635 -0.2119 -0.1990  0.0025
  135POPC   C1A 2106   2.765   2.830   7.176 -0.2696 -0.6100  0.0316
  135POPC   D2A 2107   2.486   2.702   6.724 -0.1050  0.1223  0.2594
  135POPC   C3A 2108   2.605   2.709   6.309 -0.0049 -0.1173 -0.3138
  135POPC   C4A 2109   2.755   2.802   5.890  0.1492  0.0265  0.0685
  135POPC   C1B 2110   2.290   2.964   7.381 -0.0379 -0.2233  0.1723
  135POPC   C2B 2111   2.363   3.126   7.048  0.2143 -0.0403  0.1659
  135POPC   C3B 2112   2.419   3.205   6.612  0.1545  0.1871 -0.1811
  135POPC   C4B 2113   2.411   3.162   6.200 -0.0768  0.1564  0.1940
  136POPC   NC3 2114   4.844   2.498   8.290 -0.2072 -0.0829 -0.0008
  136POPC   PO4 2115   5.365   2.407   8.352  0.0186 -0.3112 -0.0373
  136POPC   GL1 2116   5.120   2.322   7.967  0.0488  0.0104 -0.3200
  136POPC   GL2 2117   5.376   2.075   7.800  0.2702 -0.0062 -0.1300
  136POPC   C1A 2118   4.997   2.474   7.488  0.0034 -0.0591 -0.2322
  136POPC   D2A 2119   4.953   2.507   7.060 -0.0051 -0.0268 -0.2124
  136POPC   C3A 2120   4.857   2.672   6.684  0.1958 -0.0638  0.0385
  136POPC   C4A 2121   4.976   3.068   6.405  0.0638  0.0830 -0.2415
  136POPC   C1B 2122   5.280   2.126   7.250  0.1978 -0.3638 -0.1018
  136POPC   C2B 2123   5.220   1.824   6.861 -0.1072 -0.0539  0.0632
  136POPC   C3B 2124   5.414   1.421   6.719 -0.0225  0.0785 -0.0173
  136POPC   C4B 2125   5.616   1.385   6.317 -0.2282 -0.0701 -0.1780
  137POPC   NC3 2126   7.680   9.673   8.843  0.1620  0.2469 -0.0022
  137POPC   PO4 2127   7.327   9.994   8.706 -0.1255  0.4718  0.2752
  137POPC   GL1 2128   7.397  10.331   8.349  0.0813  0.0020 -0.0624
  137POPC   GL2 2129   7.643  10.249   8.065  0.1553 -0.1425 -0.1712
  137POPC   C1A 2130   7.281  10.652   8.037 -0.0861 -0.0426  0.2812
  137POPC   D2A 2131   7.514  11.002   7.786  0.1393 -0.0112 -0.0147
  137POPC   C3A 2132   7.558  11.089   7.397  0.1037  0.1192 -0.1989
  137POPC   C4A 2133   7.603  11.212   6.944 -0.0318 -0.1580 -0.1049
  137POPC   C1B 2134   7.654  10.445   7.791  0.2884 -0.1445  0.0035
  137POPC   C2B 2135   7.427  10.577   7.492  0.0514  0.1643 -0.3126
  137POPC   C3B 2136   7.263  10.433   7.095  0.0897  0.0054  0.2673
  137POPC   C4B 2137   7.276  10.316   6.608  0.0288  0.0989 -0.1221
  138POPC   NC3 2138   6.664   4.456   8.255 -0.2701  0.0649 -0.1303
  138POPC   PO4 2139   6.895   4.900   8.226 -0.0277 -0.0209  0.2825
  138POPC   GL1 2140   6.956   4.673   7.706 -0.1147  0.1762 -0.0861
  138POPC   GL2 2141   7.028   4.419   7.827 -0.2029  0.2169  0.3470
  138POPC   C1A 2142   6.735   4.397   7.311  0.2840  0.0512  0.0478
  138POPC   D2A 2143   6.789   3.967   7.076 -0.0396 -0.1662  0.1810
  138POPC   C3A 2144   6.752   3.744   6.696  0.0206 -0.1103  0.1251
  138POPC   C4A 2145   6.881   3.470   6.274  0.1700  0.1119  0.2295
  138POPC   C1B 2146   7.230   4.329   7.403  0.1056 -0.0708  0.2143
  138POPC   C2B 2147   7.116   4.485   7.002 -0.2600  0.0992 -0.1324
  138POPC   C3B 2148   7.005   4.236   6.609  0.0158  0.0792 -0.1484
  138POPC   C4B 2149   7.157   3.891   6.380  0.0628  0.2521 -0.1648
  139POPC   NC3 2150   3.658   3.298   8.300  0.0356  0.1620 -0.0847
  139POPC   PO4 2151   3.398   3.004   8.144 -0.0715  0.1211  0.0597
  139POPC   GL1 2152   3.416   2.768   7.661  0.1750  0.0855 -0.0160
  139POPC   GL2 2153   3.611   2.627   7.605  0.0840  0.2351 -0.1312
  139POPC   C1A 2154   3.198   3.137   7.418 -0.0151  0.1411  0.0788
  139POPC   D2A 2155   3.274   3.423   7.104  0.0987  0.2894  0.1736
  139POPC   C3A 2156   3.698   3.534   6.974  0.1564 -0.2188  0.0018
  139POPC   C4A 2157   4.034   3.394   7.178  0.1979  0.1317  0.0561
  139POPC   C1B 2158   3.925   2.579   7.306 -0.4956 -0.0673 -0.4135
  139POPC   C2B 2159   4.303   2.427   7.115 -0.0097  0.1422  0.1912
  139POPC   C3B 2160   4.342   2.620   6.680  0.3091  0.2343  0.2202
  139POPC   C4B 2161   4.591   2.450   6.268  0.0682 -0.2665 -0.2619
  140POPC   NC3 2162   8.682   7.874   7.795 -0.0581 -0.3712  0.0815
  140POPC   PO4 2163   8.310   7.964   7.596 -0.1089 -0.3055  0.1722
  140POPC   GL1 2164   8.321   7.564   7.361  0.5734 -0.1567 -0.2474
  140POPC   GL2 2165   8.402   7.421   7.709 -0.1444  0.1086  0.2804
  140POPC   C1A 2166   8.475   7.315   7.109  0.0408 -0.2086  0.0698
  140POPC   D2A 2167   8.860   7.270   6.932 -0.1242  0.0868  0.0523
  140POPC   C3A 2168   8.885   7.310   6.512  0.1285 -0.2274  0.0785
  140POPC   C4A 2169   8.765   7.547   6.199 -0.4070 -0.1650 -0.0033
  140POPC   C1B 2170   8.051   7.160   7.368  0.1708 -0.0260  0.2401
  140POPC   C2B 2171   8.193   6.961   6.896 -0.1269  0.1332 -0.0756
  140POPC   C3B 2172   8.467   6.986   6.548 -0.1806  0.0775 -0.0653
  140POPC   C4B 2173   8.347   7.008   6.050  0.0992  0.1975 -0.1969
  141POPC   NC3 2174   6.081   6.424   8.203 -0.0271  0.0548 -0.0166
  141POPC   PO4 2175   6.221   6.784   8.034  0.4345  0.1329  0.1240
  141POPC   GL1 2176   6.480   6.638   7.668  0.0232 -0.1366 -0.1037
  141POPC   GL2 2177   6.768   6.798   7.477 -0.0741  0.1126  0.0997
  141POPC   C1A 2178   6.407   6.539   7.283  0.2049 -0.0705  0.1007
  141POPC   D2A 2179   6.060   6.459   7.148  0.0308 -0.0421 -0.1177
  141POPC   C3A 2180   5.992   6.334   6.650  0.0090 -0.0032 -0.3154
  141POPC   C4A 2181   5.698   6.521   6.412  0.1420  0.0350  0.0544
  141POPC   C1B 2182   6.874   6.567   7.064 -0.2467 -0.0955  0.3302
  141POPC   C2B 2183   7.102   6.164   6.954 -0.2139  0.0652 -0.2296
  141POPC   C3B 2184   7.386   6.036   6.554  0.0351  0.3078 -0.2284
  141POPC   C4B 2185   7.510   6.028   6.085  0.0563  0.0911  0.3979
  142POPC   NC3 2186   6.127   3.748   8.105 -0.2214  0.0365  0.1914
  142POPC   PO4 2187   5.747   3.740   8.384  0.0659  0.1291  0.0152
  142POPC   GL1 2188   5.559   3.861   8.009 -0.1700  0.2883 -0.0403
  142POPC   GL2 2189   5.483   4.117   7.982 -0.2347 -0.2944 -0.1159
  142POPC   C1A 2190   5.619   3.629   7.590  0.3966 -0.0750 -0.1572
  142POPC   D2A 2191   5.828   3.772   7.286 -0.1824  0.0528  0.2547
  142POPC   C3A 2192   6.076   3.710   6.892 -0.2065  0.3721 -0.0693
  142POPC   C4A 2193   6.235   3.932   6.557 -0.0582 -0.1944 -0.0468
  142POPC   C1B 2194   5.406   4.124   7.545 -0.0932 -0.0642 -0.0439
  142POPC   C2B 2195   5.421   4.068   7.100  0.1468  0.0159 -0.3232
  142POPC   C3B 2196   5.222   3.862   6.798 -0.2269 -0.2265 -0.1386
  142POPC   C4B 2197   4.970   3.496   6.694 -0.0103  0.0354  0.2476
  143POPC   NC3 2198   2.246   7.651   8.518  0.0613 -0.2528  0.1797
  143POPC   PO4 2199   1.984   7.618   8.142  0.0503 -0.3447  0.1524
  143POPC   GL1 2200   1.998   7.503   7.634  0.0468  0.0009 -0.1581
  143POPC   GL2 2201   2.302   7.486   7.662 -0.1634  0.0942  0.1931
  143POPC   C1A 2202   2.124   7.190   7.273 -0.1189 -0.4692 -0.0848
  143POPC   D2A 2203   1.907   6.901   7.049 -0.0377 -0.1704  0.1734
  143POPC   C3A 2204   1.630   6.705   7.125 -0.0421  0.2634 -0.3741
  143POPC   C4A 2205   1.173   6.816   7.213  0.0878 -0.3155  0.2908
  143POPC   C1B 2206   2.634   7.093   7.470  0.4223 -0.1164  0.3218
  143POPC   C2B 2207   2.704   6.963   7.051  0.3669 -0.0687 -0.4158
  143POPC   C3B 2208   2.918   6.551   6.802 -0.0887  0.1563 -0.1577
  143POPC   C4B 2209   2.810   6.181   6.444 -0.1943 -0.0301  0.0892
  144POPC   NC3 2210   3.767   2.662   8.066 -0.1795  0.4880 -0.3363
  144POPC   PO4 2211   4.015   2.908   8.306  0.1353  0.1697 -0.1472
  144POPC   GL1 2212   4.031   3.131   7.910 -0.1459 -0.1331  0.0277
  144POPC   GL2 2213   3.799   3.156   7.777  0.0401  0.0103 -0.0862
  144POPC   C1A 2214   4.212   3.168   7.534 -0.0341  0.0901 -0.1259
  144POPC   D2A 2215   4.307   2.923   7.095  0.1014  0.0576 -0.0184
  144POPC   C3A 2216   4.162   3.162   6.704 -0.0368 -0.1319  0.2692
  144POPC   C4A 2217   3.932   3.449   6.454  0.1410  0.0359  0.2335
  144POPC   C1B 2218   3.712   3.041   7.349 -0.2305 -0.1477 -0.2010
  144POPC   C2B 2219   3.759   2.923   6.988 -0.0279 -0.1107 -0.2446
  144POPC   C3B 2220   3.549   3.152   6.705  0.1080 -0.2753  0.1504
  144POPC   C4B 2221   3.325   3.387   6.421  0.1247  0.2339  0.1767
  145POPC   NC3 2222   9.440   0.428   8.881 -0.0796  0.0103 -0.2024
  145POPC   PO4 2223   9.586  -0.005   8.850 -0.0917  0.0464 -0.0484
  145POPC   GL1 2224   9.921  -0.116   8.529 -0.2142 -0.2202 -0.0775
  145POPC   GL2 2225  10.112  -0.350   8.425 -0.1196  0.1081 -0.0481
  145POPC   C1A 2226  10.131   0.115   8.097  0.0009  0.1473  0.1090
  145POPC   D2A 2227  10.105   0.265   7.694 -0.1857  0.0314 -0.0808
  145POPC   C3A 2228  10.255   0.259   7.316 -0.0264 -0.0549  0.1095
  145POPC   C4A 2229  10.641   0.274   7.200 -0.0089 -0.0347 -0.0735
  145POPC   C1B 2230  10.286  -0.339   7.927  0.1753 -0.0690 -0.0032
  145POPC   C2B 2231  10.193  -0.486   7.480  0.0419  0.1397  0.1397
  145POPC   C3B 2232  10.041  -0.634   7.109 -0.2133 -0.2048 -0.4169
  145POPC   C4B 2233  10.394  -0.761   6.858  0.0153  0.3040 -0.0037
  146POPC   NC3 2234   8.882   9.605   8.230 -0.1732  0.1023  0.0729
  146POPC   PO4 2235   9.384   9.685   8.181  0.0939  0.1475 -0.1074
  146POPC   GL1 2236   9.363   9.621   7.715 -0.1176 -0.0422 -0.1438
  146POPC   GL2 2237   9.046   9.789   7.752  0.0398 -0.0824  0.3075
  146POPC   C1A 2238   9.474   9.550   7.287 -0.0540  0.2994 -0.1047
  146POPC   D2A 2239   9.184   9.613   6.974 -0.3231  0.1052 -0.2547
  146POPC   C3A 2240   9.283   9.527   6.630  0.0470 -0.0564  0.0297
  146POPC   C4A 2241   9.598   9.529   6.313  0.0304  0.0556  0.4178
  146POPC   C1B 2242   9.231   9.955   7.358  0.1342  0.1936 -0.1130
  146POPC   C2B 2243   9.195  10.177   6.834  0.0182  0.2168  0.2326
  146POPC   C3B 2244   8.999  10.190   6.504  0.0915  0.1844  0.1361
  146POPC   C4B 2245   8.599  10.332   6.362  0.2218  0.4928 -0.1021
  147POPC   NC3 2246   2.622   3.452   8.607 -0.1313 -0.1039  0.1551
  147POPC   PO4 2247   2.678   3.497   8.201  0.2431 -0.0149 -0.0521
  147POPC   GL1 2248   2.577   3.684   7.780 -0.5043 -0.1353  0.1529
  147POPC   GL2 2249   2.330   3.810   7.874  0.0868  0.0530  0.1811
  147POPC   C1A 2250   2.519   3.681   7.303 -0.0428  0.1168 -0.3094
  147POPC   D2A 2251   2.283   3.595   7.005  0.2003  0.0019 -0.3183
  147POPC   C3A 2252   2.006   3.416   6.828 -0.1078  0.2001 -0.0046
  147POPC   C4A 2253   1.771   3.183   6.426 -0.3606  0.1201  0.0003
  147POPC   C1B 2254   1.818   3.771   7.795  0.3153  0.1770 -0.0949
  147POPC   C2B 2255   1.463   3.912   7.968  0.0215  0.4306 -0.2014
  147POPC   C3B 2256   1.016   4.040   7.847  0.1483  0.0214  0.0068
  147POPC   C4B 2257   0.720   4.400   7.963 -0.4408 -0.0068  0.1441
  148POPC   NC3 2258   1.421   1.566   8.595 -0.0196 -0.1261 -0.0683
  148POPC   PO4 2259   1.681   1.646   8.330 -0.1544  0.0896 -0.1291
  148POPC   GL1 2260   1.597   1.852   7.902  0.0500 -0.0210 -0.2575
  148POPC   GL2 2261   1.655   2.181   7.859 -0.3316  0.1277  0.1960
  148POPC   C1A 2262   1.804   1.846   7.458 -0.0314  0.0046  0.0693
  148POPC   D2A 2263   1.992   1.894   6.989 -0.1185 -0.2221  0.1408
  148POPC   C3A 2264   2.212   1.522   6.757  0.1303  0.0983 -0.1101
  148POPC   C4A 2265   2.639   1.331   6.782  0.2324 -0.0294 -0.1733
  148POPC   C1B 2266   1.506   2.429   7.544 -0.2272 -0.0745  0.0680
  148POPC   C2B 2267   1.560   2.191   7.160  0.2421  0.0536 -0.2041
  148POPC   C3B 2268   1.321   2.217   6.794 -0.0880  0.2140  0.0724
  148POPC   C4B 2269   0.991   2.443   6.754 -0.0936  0.1006 -0.2147
  149POPC   NC3 2270   2.323   2.076   8.546  0.0711  0.2161 -0.1105
  149POPC   PO4 2271   2.564   1.769   8.267 -0.1055 -0.0051 -0.2693
  149POPC   GL1 2272   2.606   1.519   7.971  0.1595  0.0235  0.0002
  149POPC   GL2 2273   2.991   1.522   7.780 -0.0779 -0.1062  0.2912
  149POPC   C1A 2274   2.538   1.180   7.674 -0.3259 -0.2620 -0.0645
  149POPC   D2A 2275   2.461   1.121   7.257  0.0922  0.2625 -0.0892
  149POPC   C3A 2276   2.207   1.023   6.915  0.0939 -0.1409  0.0275
  149POPC   C4A 2277   1.811   1.064   6.592  0.0651 -0.1317  0.0765
  149POPC   C1B 2278   2.742   1.580   7.296  0.1775  0.1673 -0.2706
  149POPC   C2B 2279   2.568   1.978   6.913  0.2849  0.2711 -0.1144
  149POPC   C3B 2280   2.373   2.222   6.593  0.0733 -0.0243  0.1978
  149POPC   C4B 2281   2.454   2.283   6.076  0.0067  0.0410  0.0739
  150POPC   NC3 2282   6.919   0.496   9.165  0.0430  0.0792 -0.1544
  150POPC   PO4 2283   6.926   0.709   8.774 -0.3200 -0.0743 -0.1461
  150POPC   GL1 2284   6.925   0.977   8.474 -0.4571 -0.0953 -0.2211
  150POPC   GL2 2285   6.670   1.180   8.294  0.5297 -0.0921  0.1247
  150POPC   C1A 2286   7.162   0.994   8.004  0.0715  0.1511 -0.1409
  150POPC   D2A 2287   7.346   0.808   7.629  0.0396  0.0780 -0.1591
  150POPC   C3A 2288   7.111   0.530   7.274 -0.2959 -0.2743 -0.3579
  150POPC   C4A 2289   7.133   0.189   7.139  0.0077  0.1530 -0.2669
  150POPC   C1B 2290   6.672   1.112   7.886  0.3233  0.0803 -0.1416
  150POPC   C2B 2291   6.593   0.856   7.681  0.3011 -0.0415 -0.0240
  150POPC   C3B 2292   6.644   0.472   7.451 -0.1137 -0.2090 -0.2727
  150POPC   C4B 2293   6.568   0.243   7.094 -0.2300 -0.1466  0.2956
  151POPC   NC3 2294   6.792  10.392   8.791 -0.3237 -0.0147 -0.0138
  151POPC   PO4 2295   6.404  10.330   8.539  0.3620  0.1626  0.1655
  151POPC   GL1 2296   6.391  10.437   8.086  0.0776 -0.2091 -0.3707
  151POPC   GL2 2297   6.162  10.439   7.788 -0.1868  0.1426  0.0176
  151POPC   C1A 2298   6.791  10.416   7.885 -0.2914  0.0599  0.1250
  151POPC   D2A 2299   7.145  10.105   7.850 -0.0150 -0.0957  0.1679
  151POPC   C3A 2300   7.323  10.061   7.555 -0.2507 -0.3046  0.0305
  151POPC   C4A 2301   7.388   9.944   7.141  0.2471 -0.0851 -0.0929
  151POPC   C1B 2302   6.354  10.377   7.378 -0.1343 -0.1247  0.2732
  151POPC   C2B 2303   6.351  10.439   6.910  0.1765 -0.1399  0.0732
  151POPC   C3B 2304   6.250  10.770   6.659  0.0237 -0.0391  0.2090
  151POPC   C4B 2305   6.519  11.173   6.608 -0.0275 -0.2276 -0.0445
  152POPC   NC3 2306   8.730   2.403   9.161  0.1332  0.1348  0.0797
  152POPC   PO4 2307   8.873   2.282   8.844 -0.0290 -0.2555  0.0659
  152POPC   GL1 2308   8.786   2.321   8.485  0.1400 -0.1717 -0.2964
  152POPC   GL2 2309   8.513   2.574   8.300 -0.3847  0.3736 -0.1000
  152POPC   C1A 2310   8.425   2.001   8.335  0.0963 -0.3537  0.4283
  152POPC   D2A 2311   8.197   2.220   7.870  0.1085 -0.2279 -0.1641
  152POPC   C3A 2312   8.076   2.470   7.601  0.0742 -0.0141 -0.2124
  152POPC   C4A 2313   7.857   2.418   7.268  0.0141  0.0638  0.0201
  152POPC   C1B 2314   8.466   2.651   7.859 -0.1176 -0.0599  0.2887
  152POPC   C2B 2315   8.688   2.356   7.623 -0.0629  0.2533  0.1874
  152POPC   C3B 2316   8.552   2.077   7.400  0.3783 -0.0600  0.1008
  152POPC   C4B 2317   8.162   1.933   7.364  0.0482  0.0989  0.3103
  153POPC   NC3 2318   6.288   9.595   7.843 -0.0844  0.3078 -0.0625
  153POPC   PO4 2319   5.968   9.240   7.907  0.6298 -0.0101 -0.1718
  153POPC   GL1 2320   6.085   9.136   7.511 -0.1618 -0.1814  0.0393
  153POPC   GL2 2321   6.275   9.440   7.405 -0.3275  0.0547 -0.1183
  153POPC   C1A 2322   5.977   8.965   7.165 -0.1740 -0.0814 -0.2367
  153POPC   D2A 2323   5.852   8.727   6.803 -0.2053 -0.1528  0.1072
  153POPC   C3A 2324   5.747   8.370   6.658  0.2366  0.1096  0.0231
  153POPC   C4A 2325   5.554   8.187   6.271  0.0989  0.3023 -0.0785
  153POPC   C1B 2326   6.445   9.474   6.987 -0.0814 -0.3631 -0.0321
  153POPC   C2B 2327   6.835   9.552   6.746  0.2721  0.2231  0.2600
  153POPC   C3B 2328   6.722   9.595   6.306  0.2358  0.2000 -0.0389
  153POPC   C4B 2329   6.477   9.852   6.128  0.1162 -0.0121 -0.1190
  154POPC   NC3 2330   5.497   5.157   8.565 -0.1289 -0.1867  0.3472
  154POPC   PO4 2331   5.351   5.650   8.632 -0.5851  0.0732 -0.1942
  154POPC   GL1 2332   5.271   5.708   8.160 -0.1355 -0.1058  0.3120
  154POPC   GL2 2333   5.519   5.461   8.003 -0.0939 -0.0139 -0.2203
  154POPC   C1A 2334   5.426   5.882   7.711 -0.0435  0.1319  0.0955
  154POPC   D2A 2335   5.295   6.036   7.304  0.0390  0.1109  0.3216
  154POPC   C3A 2336   5.332   5.750   6.858  0.0346  0.3497  0.4079
  154POPC   C4A 2337   5.362   5.553   6.423 -0.0822  0.2956  0.0594
  154POPC   C1B 2338   5.650   5.420   7.595 -0.1794  0.3387  0.2198
  154POPC   C2B 2339   5.733   5.631   7.232 -0.1419  0.0430 -0.0464
  154POPC   C3B 2340   5.774   5.649   6.818  0.1879  0.1684 -0.0306
  154POPC   C4B 2341   5.615   6.059   6.577 -0.0153  0.1011 -0.0279
  155POPC   NC3 2342   9.858   8.275   8.056 -0.3043 -0.1104 -0.1625
  155POPC   PO4 2343   9.920   8.661   7.613  0.4288  0.1797  0.0862
  155POPC   GL1 2344   9.760   8.534   7.251  0.0776 -0.0253 -0.0882
  155POPC   GL2 2345  10.066   8.312   7.165 -0.0782  0.0652 -0.2582
  155POPC   C1A 2346   9.488   8.348   6.930 -0.1597  0.0706 -0.0102
  155POPC   D2A 2347   9.148   8.147   6.818 -0.1404 -0.0117  0.0306
  155POPC   C3A 2348   8.690   8.215   6.877 -0.0283  0.0074  0.0046
  155POPC   C4A 2349   8.319   7.946   6.962  0.2501 -0.1022 -0.1114
  155POPC   C1B 2350  10.269   8.573   6.927  0.2743  0.0401 -0.0633
  155POPC   C2B 2351  10.321   8.674   6.420 -0.1322 -0.2658  0.0826
  155POPC   C3B 2352  10.350   8.443   6.000  0.0149 -0.0757  0.0597
  155POPC   C4B 2353  10.478   8.174   5.625 -0.0276 -0.2894 -0.0096
  156POPC   NC3 2354   5.391   3.412   8.198  0.1061  0.0953  0.2091
  156POPC   PO4 2355   4.969   3.279   8.038 -0.2365 -0.0424 -0.0384
  156POPC   GL1 2356   5.177   3.457   7.631  0.4170 -0.1558 -0.0303
  156POPC   GL2 2357   5.080   3.779   7.575 -0.2154  0.1510  0.1598
  156POPC   C1A 2358   5.340   3.504   7.208 -0.4081 -0.0520  0.0234
  156POPC   D2A 2359   5.581   3.533   6.862 -0.0660 -0.0459 -0.2469
  156POPC   C3A 2360   5.450   3.332   6.469 -0.2580 -0.0149  0.1839
  156POPC   C4A 2361   5.311   3.106   6.056 -0.0476 -0.0661  0.2185
  156POPC   C1B 2362   4.765   3.769   7.296 -0.1377 -0.0808 -0.0353
  156POPC   C2B 2363   4.439   3.608   7.012 -0.0775  0.2053 -0.0243
  156POPC   C3B 2364   4.059   3.820   6.813 -0.1270 -0.2006 -0.0827
  156POPC   C4B 2365   3.712   4.081   6.724  0.2007  0.2084  0.0930
  157POPC   NC3 2366   2.544   9.643   8.488  0.3826  0.1440  0.1842
  157POPC   PO4 2367   2.916   9.591   8.309  0.3325 -0.0294 -0.2362
  157POPC   GL1 2368   2.975   9.643   7.855 -0.2476  0.0034  0.0650
  157POPC   GL2 2369   3.284   9.796   7.638  0.0049 -0.0784  0.1024
  157POPC   C1A 2370   2.678   9.734   7.535 -0.2355 -0.1794  0.2531
  157POPC   D2A 2371   2.478   9.576   7.243 -0.2180 -0.0163  0.1625
  157POPC   C3A 2372   2.493   9.658   6.797 -0.1180 -0.0008 -0.1590
  157POPC   C4A 2373   2.403   9.860   6.383  0.0778  0.0131 -0.0868
  157POPC   C1B 2374   3.203   9.581   7.338  0.2883 -0.0869 -0.0387
  157POPC   C2B 2375   2.932   9.424   6.992 -0.0590  0.2460 -0.1399
  157POPC   C3B 2376   2.743   9.283   6.601 -0.1530  0.0749 -0.0609
  157POPC   C4B 2377   2.829   9.067   6.268  0.0419  0.2132  0.0359
  158POPC   NC3 2378  10.353   9.410   8.208 -0.0278  0.2632 -0.0836
  158POPC   PO4 2379  10.693   9.129   8.019 -0.0496 -0.0427  0.3406
  158POPC   GL1 2380  10.657   9.198   7.549 -0.0864  0.1799 -0.0154
  158POPC   GL2 2381  10.352   9.087   7.483 -0.2393 -0.0072 -0.2275
  158POPC   C1A 2382  10.603   9.448   7.156 -0.2896  0.1979 -0.3397
  158POPC   D2A 2383  10.509   9.437   6.758  0.2543 -0.0119 -0.1932
  158POPC   C3A 2384  10.565   9.736   6.445  0.2347  0.0036 -0.1443
  158POPC   C4A 2385  10.299   9.983   6.062 -0.0351  0.0037  0.1073
  158POPC   C1B 2386  10.382   9.020   7.116  0.4709  0.0431  0.1622
  158POPC   C2B 2387  10.156   9.081   6.736  0.1770 -0.1807 -0.3848
  158POPC   C3B 2388   9.953   9.048   6.367 -0.2111  0.2512 -0.2241
  158POPC   C4B 2389   9.601   8.826   6.099  0.3759 -0.0082 -0.1553
  159POPC   NC3 2390   5.211   6.083   8.625 -0.0828 -0.1861  0.0337
  159POPC   PO4 2391   4.961   6.434   8.598 -0.2337 -0.1961 -0.0520
  159POPC   GL1 2392   5.239   6.441   8.228 -0.0747  0.4832  0.0386
  159POPC   GL2 2393   5.228   6.238   8.055 -0.1048  0.0205 -0.4620
  159POPC   C1A 2394   5.022   6.586   7.817 -0.0164 -0.3745  0.0305
  159POPC   D2A 2395   4.990   6.594   7.386  0.1697 -0.1401  0.0397
  159POPC   C3A 2396   4.755   6.264   7.258  0.1148 -0.0498  0.2190
  159POPC   C4A 2397   4.859   5.818   7.090  0.0602  0.0439 -0.1656
  159POPC   C1B 2398   4.999   6.102   7.782  0.5150 -0.1898 -0.0997
  159POPC   C2B 2399   4.704   5.853   7.577 -0.0180  0.3081 -0.1199
  159POPC   C3B 2400   4.602   5.488   7.341 -0.0875  0.1455  0.2868
  159POPC   C4B 2401   4.452   5.442   6.921  0.5041  0.1034 -0.0399
  160POPC   NC3 2402   3.184   7.361   8.644  0.0387 -0.2858 -0.0188
  160POPC   PO4 2403   3.001   7.409   8.191  0.0925 -0.1075  0.0881
  160POPC   GL1 2404   2.980   7.412   7.713 -0.1303  0.2763  0.0605
  160POPC   GL2 2405   3.039   7.819   7.580 -0.1070  0.1013  0.2945
  160POPC   C1A 2406   3.108   7.297   7.255  0.0431 -0.0183  0.0353
  160POPC   D2A 2407   3.145   7.143   6.878 -0.0059  0.2605 -0.0700
  160POPC   C3A 2408   2.924   6.978   6.496  0.2261  0.0018 -0.2193
  160POPC   C4A 2409   2.681   6.669   6.374 -0.0794  0.4826  0.0096
  160POPC   C1B 2410   2.667   7.539   7.389 -0.0645  0.0297  0.0636
  160POPC   C2B 2411   2.501   7.417   7.020 -0.2639 -0.1492 -0.2393
  160POPC   C3B 2412   2.261   7.126   6.693  0.1190  0.1771  0.1462
  160POPC   C4B 2413   1.898   7.080   6.489  0.1641 -0.1067 -0.1237
  161POPC   NC3 2414   4.096   8.352   8.379  0.2151 -0.4183  0.1330
  161POPC   PO4 2415   3.726   8.537   8.163  0.1758 -0.2281  0.0755
  161POPC   GL1 2416   3.959   8.424   7.798  0.3183 -0.2192 -0.3033
  161POPC   GL2 2417   4.091   8.724   7.610  0.1886 -0.0231 -0.0508
  161POPC   C1A 2418   4.293   8.180   7.743  0.0497  0.1279 -0.0994
  161POPC   D2A 2419   4.356   7.785   7.531 -0.2105  0.1219  0.3372
  161POPC   C3A 2420   4.487   7.824   7.155  0.0132  0.0626 -0.3649
  161POPC   C4A 2421   4.887   7.943   6.993  0.1163 -0.0121  0.2741
  161POPC   C1B 2422   4.150   8.696   7.168  0.1144 -0.0335 -0.0007
  161POPC   C2B 2423   4.443   8.682   6.755 -0.2540 -0.0674 -0.0830
  161POPC   C3B 2424   4.424   8.626   6.352  0.1010 -0.0913 -0.3387
  161POPC   C4B 2425   4.186   8.282   6.219  0.1959 -0.0392  0.2358
  162POPC   NC3 2426   4.158   6.968   8.661 -0.1311 -0.2160  0.1347
  162POPC   PO4 2427   4.523   7.179   8.377  0.3582  0.1356  0.1701
  162POPC   GL1 2428   4.617   7.088   7.928 -0.0523 -0.3409  0.1135
  162POPC   GL2 2429   4.294   7.112   7.845 -0.0405 -0.3252 -0.0698
  162POPC   C1A 2430   4.945   7.033   7.608 -0.1030 -0.2650  0.1454
  162POPC   D2A 2431   5.355   7.286   7.398 -0.2666  0.0189 -0.1120
  162POPC   C3A 2432   5.502   7.119   6.969 -0.0507  0.1669 -0.0584
  162POPC   C4A 2433   5.841   6.792   6.831 -0.0821  0.1663  0.0956
  162POPC   C1B 2434   4.464   7.248   7.464 -0.1161  0.0900  0.1378
  162POPC   C2B 2435   4.345   7.320   7.037 -0.2393  0.2270 -0.0850
  162POPC   C3B 2436   4.069   7.316   6.692  0.0434 -0.0554 -0.0360
  162POPC   C4B 2437   3.780   7.496   6.474 -0.1227 -0.1662 -0.3207
  163POPC   NC3 2438   1.595   7.962   8.240  0.2508 -0.0857  0.1496
  163POPC   PO4 2439   1.234   8.222   8.162 -0.1099 -0.0793  0.1150
  163POPC   GL1 2440   1.267   8.053   7.718  0.1945 -0.0761 -0.0266
  163POPC   GL2 2441   1.094   8.050   7.450  0.1173 -0.2174  0.1681
  163POPC   C1A 2442   1.629   7.992   7.403  0.0109 -0.1884 -0.1373
  163POPC   D2A 2443   1.795   7.601   7.171 -0.2571 -0.0625  0.1593
  163POPC   C3A 2444   2.081   7.650   6.810  0.3246  0.0462 -0.0213
  163POPC   C4A 2445   2.460   8.001   6.603 -0.0100  0.0686 -0.2188
  163POPC   C1B 2446   0.890   8.024   7.004  0.0568  0.0013  0.0046
  163POPC   C2B 2447   0.568   7.998   6.628 -0.0231  0.3022 -0.0556
  163POPC   C3B 2448   0.232   7.853   6.406  0.0307 -0.2114  0.1754
  163POPC   C4B 2449   0.068   7.517   6.180  0.1680  0.0237  0.0335
  164POPC   NC3 2450   9.360   6.632   7.751  0.2583  0.0508  0.0095
  164POPC   PO4 2451   9.599   6.326   7.918  0.2139  0.2043  0.0247
  164POPC   GL1 2452   9.603   6.232   7.590  0.1590 -0.6110  0.0055
  164POPC   GL2 2453   9.890   6.099   7.425  0.1794 -0.0567 -0.3511
  164POPC   C1A 2454   9.537   6.217   7.089  0.2688 -0.1729 -0.1072
  164POPC   D2A 2455   9.399   5.966   6.745 -0.1438 -0.0837  0.1642
  164POPC   C3A 2456   9.138   5.949   6.386  0.1470  0.2113 -0.0424
  164POPC   C4A 2457   9.111   5.813   6.032  0.1673  0.0553  0.0229
  164POPC   C1B 2458   9.988   5.986   7.014 -0.0524 -0.0687  0.0216
  164POPC   C2B 2459   9.890   5.762   6.714 -0.0703  0.1747 -0.0274
  164POPC   C3B 2460  10.064   5.524   6.364 -0.0461  0.2651  0.1846
  164POPC   C4B 2461  10.119   5.160   6.230  0.1004 -0.1678 -0.1921
  165POPC   NC3 2462   1.641   2.184   8.383 -0.2156 -0.2144  0.3761
  165POPC   PO4 2463   2.047   2.467   8.443  0.0332  0.0972  0.0382
  165POPC   GL1 2464   1.949   2.630   8.012  0.0007 -0.1179 -0.1384
  165POPC   GL2 2465   2.045   2.389   7.703 -0.3224 -0.0922 -0.3271
  165POPC   C1A 2466   1.856   2.857   7.633  0.1660  0.2533 -0.1288
  165POPC   D2A 2467   1.804   3.043   7.215 -0.2380 -0.1215 -0.1825
  165POPC   C3A 2468   1.965   2.878   6.724 -0.3003 -0.0522 -0.1759
  165POPC   C4A 2469   1.949   2.494   6.401 -0.1650  0.4058  0.3987
  165POPC   C1B 2470   1.977   2.533   7.235  0.0587  0.1984 -0.0234
  165POPC   C2B 2471   1.962   2.392   6.905 -0.0713  0.0806 -0.0359
  165POPC   C3B 2472   1.749   2.080   6.612  0.2530 -0.1875  0.1562
  165POPC   C4B 2473   1.914   1.727   6.448  0.0399  0.1698 -0.4364
  166POPC   NC3 2474   4.379   5.905   8.968  0.2944  0.1917 -0.1342
  166POPC   PO4 2475   4.311   5.684   8.478  0.4814  0.2038 -0.0272
  166POPC   GL1 2476   4.597   5.651   8.056 -0.1472  0.1713 -0.1088
  166POPC   GL2 2477   4.430   6.036   7.893  0.2035  0.0108  0.1585
  166POPC   C1A 2478   4.970   5.451   7.824 -0.0251 -0.0770  0.3998
  166POPC   D2A 2479   5.146   5.511   7.403 -0.1498 -0.1177 -0.0607
  166POPC   C3A 2480   4.955   5.310   7.100 -0.2008 -0.0055  0.2074
  166POPC   C4A 2481   4.832   5.462   6.614 -0.2401  0.0934  0.0379
  166POPC   C1B 2482   4.278   6.109   7.431  0.0140  0.0448  0.2105
  166POPC   C2B 2483   4.155   6.381   7.028  0.1505  0.2072  0.3032
  166POPC   C3B 2484   4.271   6.324   6.614 -0.0813  0.0455  0.1931
  166POPC   C4B 2485   4.298   6.153   6.279  0.0457 -0.2027  0.1219
  167POPC   NC3 2486   9.555   7.437   7.576  0.0659  0.2376  0.1165
  167POPC   PO4 2487   9.225   7.101   7.577  0.1783  0.1774 -0.3533
  167POPC   GL1 2488   9.351   7.181   7.148 -0.0960 -0.1137 -0.0635
  167POPC   GL2 2489   9.490   7.492   7.083 -0.0275  0.4942  0.2875
  167POPC   C1A 2490   9.395   7.211   6.694  0.1892 -0.1016  0.1385
  167POPC   D2A 2491   9.408   7.219   6.241 -0.1056 -0.1546  0.0023
  167POPC   C3A 2492   9.789   7.233   5.945  0.1257 -0.1898  0.0352
  167POPC   C4A 2493  10.147   7.022   5.748 -0.0339  0.4100 -0.3360
  167POPC   C1B 2494   9.105   7.690   6.965  0.2461  0.0597  0.1518
  167POPC   C2B 2495   8.816   7.762   6.692  0.2556 -0.2109 -0.0237
  167POPC   C3B 2496   8.798   8.133   6.372  0.0087  0.0608  0.2718
  167POPC   C4B 2497   8.379   8.386   6.470 -0.2158  0.0436 -0.0360
  168POPC   NC3 2498   7.769   9.562   3.884  0.1681 -0.1200 -0.2760
  168POPC   PO4 2499   7.583   9.193   3.775 -0.1183 -0.0732  0.0509
  168POPC   GL1 2500   7.750   9.121   4.162 -0.1381  0.0948  0.2076
  168POPC   GL2 2501   8.060   9.231   4.164 -0.1455  0.2967 -0.0177
  168POPC   C1A 2502   7.620   9.065   4.578 -0.0946  0.0010 -0.2959
  168POPC   D2A 2503   7.777   8.836   4.964  0.1374  0.1478 -0.1486
  168POPC   C3A 2504   8.143   9.117   5.170 -0.1962 -0.2621  0.0047
  168POPC   C4A 2505   8.093   9.285   4.851 -0.1466 -0.1427  0.0059
  168POPC   C1B 2506   7.840   9.483   4.478 -0.0372 -0.1197 -0.0053
  168POPC   C2B 2507   7.659   9.449   4.916 -0.1842 -0.2132 -0.0624
  168POPC   C3B 2508   7.688   9.370   5.332 -0.0995 -0.1161  0.2183
  168POPC   C4B 2509   7.365   9.269   5.554 -0.1494 -0.1582 -0.0433
  169POPC   NC3 2510   6.032   7.559   3.805 -0.0685  0.1794 -0.1567
  169POPC   PO4 2511   5.953   7.613   4.292  0.2429  0.2412 -0.0014
  169POPC   GL1 2512   6.216   7.411   4.620  0.2099  0.2271  0.1335
  169POPC   GL2 2513   6.490   7.474   4.565 -0.0136  0.2601  0.0594
  169POPC   C1A 2514   6.403   7.359   5.099  0.0135  0.3317 -0.0961
  169POPC   D2A 2515   6.707   7.496   5.378 -0.0757  0.3266 -0.2590
  169POPC   C3A 2516   6.733   7.507   5.841  0.0654 -0.1584 -0.1080
  169POPC   C4A 2517   6.583   7.190   6.187 -0.0066 -0.4051 -0.1358
  169POPC   C1B 2518   6.566   7.076   4.723 -0.3356 -0.1520 -0.2980
  169POPC   C2B 2519   6.664   6.701   4.918 -0.4528  0.0834 -0.1955
  169POPC   C3B 2520   6.587   6.294   5.148 -0.3066  0.1417 -0.2152
  169POPC   C4B 2521   6.670   5.856   5.378  0.0157 -0.2895  0.1791
  170POPC   NC3 2522   9.858   4.371   3.296 -0.0832  0.4153 -0.2191
  170POPC   PO4 2523  10.097   4.474   3.604  0.2713 -0.0100 -0.3733
  170POPC   GL1 2524  10.142   4.543   4.043 -0.0271 -0.0731  0.3099
  170POPC   GL2 2525   9.876   4.359   4.205 -0.1464  0.0375 -0.1404
  170POPC   C1A 2526  10.286   4.683   4.532 -0.0403 -0.1529  0.1808
  170POPC   D2A 2527  10.493   4.621   4.935 -0.0595  0.1524 -0.1007
  170POPC   C3A 2528  10.432   4.672   5.442 -0.2014  0.2948 -0.3986
  170POPC   C4A 2529  10.428   4.762   5.859  0.1060  0.0246  0.2478
  170POPC   C1B 2530   9.884   4.367   4.715 -0.4430  0.0111 -0.0745
  170POPC   C2B 2531   9.954   4.513   5.036 -0.2003  0.3118 -0.3098
  170POPC   C3B 2532   9.994   4.522   5.516  0.0575  0.2505  0.0661
  170POPC   C4B 2533   9.893   4.750   5.867  0.1061  0.0661  0.1478
  171POPC   NC3 2534   9.983   2.174   4.102 -0.2353  0.1437 -0.2684
  171POPC   PO4 2535   9.600   2.062   4.340  0.1960 -0.0959  0.0395
  171POPC   GL1 2536   9.912   2.279   4.602 -0.1645  0.0246  0.0586
  171POPC   GL2 2537   9.873   2.445   4.904 -0.0180  0.2380 -0.4337
  171POPC   C1A 2538  10.287   2.687   4.723 -0.3412  0.1452  0.2489
  171POPC   D2A 2539  10.377   3.018   5.117  0.0599 -0.0493  0.2031
  171POPC   C3A 2540  10.368   3.490   5.173  0.4074 -0.1742  0.0076
  171POPC   C4A 2541  10.633   3.750   5.369 -0.1285 -0.0604  0.4460
  171POPC   C1B 2542  10.287   2.546   5.218 -0.2169 -0.3325  0.1162
  171POPC   C2B 2543  10.675   2.705   5.435 -0.1464  0.3046  0.0693
  171POPC   C3B 2544  11.101   2.864   5.507  0.1261  0.0495  0.0715
  171POPC   C4B 2545  11.359   3.109   5.186 -0.3088  0.1553 -0.3494
  172POPC   NC3 2546   7.549   7.907   3.561 -0.3653 -0.1270 -0.1172
  172POPC   PO4 2547   7.861   8.227   3.834  0.1030  0.0304  0.0552
  172POPC   GL1 2548   7.745   8.348   4.290 -0.0564 -0.1579 -0.1583
  172POPC   GL2 2549   7.769   8.636   4.335  0.2066 -0.2973 -0.1870
  172POPC   C1A 2550   8.051   8.230   4.668  0.0519  0.0805 -0.1185
  172POPC   D2A 2551   7.794   8.216   5.048  0.0073 -0.3716 -0.1127
  172POPC   C3A 2552   7.410   7.983   5.021 -0.0705 -0.0578  0.2454
  172POPC   C4A 2553   7.172   7.653   4.933 -0.0165  0.1175 -0.2392
  172POPC   C1B 2554   8.142   8.867   4.531 -0.2413  0.1433 -0.1759
  172POPC   C2B 2555   8.402   9.215   4.510 -0.1581  0.1866  0.1937
  172POPC   C3B 2556   8.702   9.530   4.774 -0.1861 -0.1036 -0.1106
  172POPC   C4B 2557   8.973   9.564   5.119 -0.0334 -0.3157  0.0377
  173POPC   NC3 2558   3.782   7.497   4.531 -0.0268 -0.1824 -0.1100
  173POPC   PO4 2559   4.080   7.179   4.565 -0.0133 -0.1127 -0.0494
  173POPC   GL1 2560   3.907   7.143   4.960  0.2909 -0.1485 -0.2632
  173POPC   GL2 2561   4.081   7.184   5.195  0.0396 -0.3257 -0.1490
  173POPC   C1A 2562   3.617   7.029   5.313 -0.2812  0.0652  0.2571
  173POPC   D2A 2563   3.393   7.204   5.761 -0.1877 -0.0247  0.1247
  173POPC   C3A 2564   3.681   7.237   6.081  0.1308 -0.0274  0.2521
  173POPC   C4A 2565   4.096   7.150   6.150  0.1237 -0.0244 -0.0582
  173POPC   C1B 2566   3.900   7.158   5.658 -0.2903 -0.4668 -0.1612
  173POPC   C2B 2567   4.001   6.770   5.849 -0.0455  0.2731 -0.2330
  173POPC   C3B 2568   4.377   6.641   6.164  0.1257 -0.0843 -0.0476
  173POPC   C4B 2569   4.413   6.879   6.627  0.1084  0.2986  0.1721
  174POPC   NC3 2570   2.852   9.315   3.647 -0.0145 -0.3468  0.1798
  174POPC   PO4 2571   2.649   9.641   4.006 -0.3845 -0.0990 -0.1333
  174POPC   GL1 2572   2.793   9.564   4.382 -0.0332 -0.1307  0.1003
  174POPC   GL2 2573   2.800   9.310   4.672  0.0302  0.0523  0.0687
  174POPC   C1A 2574   3.104   9.747   4.641  0.1123  0.2273 -0.0110
  174POPC   D2A 2575   3.421   9.960   4.889  0.4378  0.2584 -0.0182
  174POPC   C3A 2576   3.421  10.367   5.140  0.0450  0.1255 -0.0866
  174POPC   C4A 2577   3.520  10.488   5.537 -0.0473  0.2039 -0.1458
  174POPC   C1B 2578   2.519   9.188   4.999  0.1158  0.0108  0.0177
  174POPC   C2B 2579   2.519   8.968   5.378  0.1045  0.2540 -0.1900
  174POPC   C3B 2580   2.498   8.787   5.794  0.1753 -0.1886 -0.0666
  174POPC   C4B 2581   2.351   8.952   6.174  0.0727 -0.0248 -0.1289
  175POPC   NC3 2582   8.209   5.239   3.435  0.2305  0.2752  0.0974
  175POPC   PO4 2583   8.085   5.197   3.898  0.0153 -0.1011 -0.0062
  175POPC   GL1 2584   8.041   5.270   4.336  0.0553 -0.3152  0.0113
  175POPC   GL2 2585   7.810   5.099   4.488 -0.1929 -0.0986 -0.0601
  175POPC   C1A 2586   8.146   5.323   4.858  0.0379 -0.0921  0.1695
  175POPC   D2A 2587   8.301   5.590   5.101  0.1562  0.4149  0.1951
  175POPC   C3A 2588   8.118   5.792   5.254  0.2108  0.1401 -0.0055
  175POPC   C4A 2589   7.741   6.002   5.524  0.0961 -0.1227 -0.0694
  175POPC   C1B 2590   7.548   5.230   4.790  0.1004 -0.3200  0.1371
  175POPC   C2B 2591   7.349   5.255   5.161  0.2291 -0.1014  0.2002
  175POPC   C3B 2592   7.025   5.497   5.196  0.3915  0.0665 -0.0532
  175POPC   C4B 2593   6.704   5.409   5.075 -0.4624 -0.0550  0.0416
  176POPC   NC3 2594   6.745   9.722   4.019  0.2166 -0.0609 -0.1196
  176POPC   PO4 2595   6.613   9.258   4.171 -0.0427 -0.0999  0.1223
  176POPC   GL1 2596   6.426   9.237   4.660  0.2198  0.0300  0.3218
  176POPC   GL2 2597   6.215   9.563   4.786  0.0480 -0.0670 -0.0057
  176POPC   C1A 2598   6.192   9.165   5.102  0.2189 -0.4693 -0.4459
  176POPC   D2A 2599   6.277   9.002   5.421  0.3142 -0.0388  0.0849
  176POPC   C3A 2600   6.678   8.814   5.705  0.1150 -0.1819  0.1446
  176POPC   C4A 2601   6.789   8.381   5.692 -0.0674  0.0439 -0.0629
  176POPC   C1B 2602   6.404   9.635   5.145  0.1288  0.2461 -0.0361
  176POPC   C2B 2603   6.448   9.580   5.539  0.1213  0.1358  0.2868
  176POPC   C3B 2604   6.599   9.289   5.875  0.2598  0.0191  0.0137
  176POPC   C4B 2605   6.670   9.079   6.231 -0.3123 -0.1402  0.2626
  177POPC   NC3 2606   5.968   5.876   4.576  0.1401 -0.2925  0.5322
  177POPC   PO4 2607   6.249   5.508   4.362  0.1099 -0.0058  0.0120
  177POPC   GL1 2608   6.007   5.390   4.693  0.0355  0.3150  0.2225
  177POPC   GL2 2609   6.110   5.616   4.944  0.1210 -0.1231 -0.0611
  177POPC   C1A 2610   5.836   5.134   5.083  0.3900 -0.0437  0.1301
  177POPC   D2A 2611   5.634   5.210   5.497  0.1808  0.0948  0.1532
  177POPC   C3A 2612   5.913   5.142   5.876  0.1984  0.0953  0.1841
  177POPC   C4A 2613   5.704   4.965   6.145 -0.1126  0.1130  0.0897
  177POPC   C1B 2614   6.115   5.461   5.391  0.1986 -0.1008 -0.0468
  177POPC   C2B 2615   6.303   5.451   5.729  0.1718  0.0783  0.2170
  177POPC   C3B 2616   6.268   5.736   6.108 -0.1730 -0.1561  0.0266
  177POPC   C4B 2617   6.144   5.881   6.508 -0.0649 -0.0228 -0.1443
  178POPC   NC3 2618   6.300  10.635   4.467  0.1400  0.0377 -0.2661
  178POPC   PO4 2619   6.061  10.151   4.422 -0.1093 -0.0048 -0.2381
  178POPC   GL1 2620   6.358  10.215   4.731 -0.1001  0.0848 -0.0653
  178POPC   GL2 2621   6.211  10.115   4.947  0.0195  0.2067  0.1691
  178POPC   C1A 2622   6.641  10.396   5.123 -0.1762 -0.1431  0.1683
  178POPC   D2A 2623   6.959  10.682   5.018 -0.1649 -0.1635  0.0426
  178POPC   C3A 2624   7.442  10.497   4.895 -0.0810 -0.0994  0.1049
  178POPC   C4A 2625   7.815  10.316   5.020 -0.2962  0.0924 -0.0847
  178POPC   C1B 2626   6.166  10.364   5.390 -0.1677 -0.2229  0.1391
  178POPC   C2B 2627   6.110  10.728   5.733  0.1920  0.0341  0.2451
  178POPC   C3B 2628   6.275  11.008   6.103 -0.1428  0.0493 -0.0550
  178POPC   C4B 2629   6.297  11.468   6.227  0.0843  0.2647 -0.0013
  179POPC   NC3 2630   9.584   3.591   3.555 -0.1095 -0.0539  0.0969
  179POPC   PO4 2631   9.472   3.901   3.363 -0.1580  0.2091  0.1614
  179POPC   GL1 2632   9.220   4.018   3.760  0.1527  0.2044 -0.0995
  179POPC   GL2 2633   9.226   3.746   3.887  0.2300 -0.1116 -0.1108
  179POPC   C1A 2634   8.881   4.118   4.136 -0.2451  0.0175  0.1216
  179POPC   D2A 2635   8.554   3.972   4.535  0.0574  0.4130  0.2910
  179POPC   C3A 2636   8.594   4.006   4.985  0.1108  0.0456 -0.0532
  179POPC   C4A 2637   8.826   3.873   5.369  0.1348 -0.3739  0.0250
  179POPC   C1B 2638   9.611   3.851   4.196 -0.0551  0.1711  0.0365
  179POPC   C2B 2639   9.863   3.836   4.648  0.1418 -0.1179  0.1791
  179POPC   C3B 2640  10.100   3.994   5.004  0.4033 -0.1451 -0.3009
  179POPC   C4B 2641  10.488   4.192   5.116  0.1577  0.2596 -0.2209
  180POPC   NC3 2642   6.055   1.146   4.140  0.0849  0.5261 -0.3897
  180POPC   PO4 2643   5.747   1.120   4.477 -0.0723 -0.1303 -0.0903
  180POPC   GL1 2644   5.581   0.865   4.756  0.3696 -0.0656  0.1227
  180POPC   GL2 2645   5.771   0.637   4.811  0.0199  0.1942 -0.2355
  180POPC   C1A 2646   5.384   0.947   5.097 -0.3204  0.0588 -0.1992
  180POPC   D2A 2647   5.039   1.065   5.407 -0.5219 -0.1506  0.1631
  180POPC   C3A 2648   5.262   1.005   5.735 -0.2592 -0.5033  0.1623
  180POPC   C4A 2649   5.398   0.841   6.098  0.1399 -0.1522 -0.0727
  180POPC   C1B 2650   5.798   0.459   5.136 -0.0220  0.3993 -0.0075
  180POPC   C2B 2651   6.030   0.505   5.484  0.2252 -0.0919  0.0105
  180POPC   C3B 2652   6.348   0.422   5.639  0.2395 -0.1303 -0.1118
  180POPC   C4B 2653   6.714   0.514   5.889  0.0814 -0.3469 -0.0219
  181POPC   NC3 2654   6.449   1.315   4.475 -0.1383 -0.0626 -0.2151
  181POPC   PO4 2655   6.576   1.711   4.285  0.0746 -0.4639 -0.0452
  181POPC   GL1 2656   6.649   1.706   4.782 -0.0253  0.1026  0.1314
  181POPC   GL2 2657   6.329   1.675   4.896  0.0369 -0.1329  0.2449
  181POPC   C1A 2658   6.733   1.586   5.145 -0.1085  0.0289  0.1577
  181POPC   D2A 2659   6.710   1.478   5.638  0.4441  0.0844 -0.1217
  181POPC   C3A 2660   6.617   1.165   6.006  0.1850 -0.3424  0.2480
  181POPC   C4A 2661   6.902   0.869   6.341  0.1631 -0.0218  0.1058
  181POPC   C1B 2662   6.387   1.989   5.286  0.4831  0.2293 -0.1899
  181POPC   C2B 2663   6.286   2.079   5.722  0.1642  0.1912 -0.0466
  181POPC   C3B 2664   6.462   2.190   6.199 -0.0992 -0.1623  0.1946
  181POPC   C4B 2665   6.819   1.985   6.348  0.1480  0.1131 -0.2072
  182POPC   NC3 2666   7.322   2.520   3.599  0.0516  0.3370  0.2486
  182POPC   PO4 2667   7.507   2.385   3.996 -0.1722 -0.2433 -0.2217
  182POPC   GL1 2668   7.501   2.403   4.442  0.2419  0.0731 -0.2277
  182POPC   GL2 2669   7.162   2.570   4.449  0.0676  0.0466  0.2009
  182POPC   C1A 2670   7.328   2.129   4.688  0.2262  0.2085 -0.2453
  182POPC   D2A 2671   6.999   2.024   4.966  0.2290  0.3116  0.2983
  182POPC   C3A 2672   6.915   2.043   5.384  0.1534 -0.2113  0.1186
  182POPC   C4A 2673   6.755   1.964   5.860  0.1393  0.2957  0.0387
  182POPC   C1B 2674   7.057   2.822   4.802  0.0020 -0.2465  0.2006
  182POPC   C2B 2675   7.061   2.913   5.244  0.1486  0.1892  0.0590
  182POPC   C3B 2676   7.078   3.142   5.562 -0.3706 -0.0104  0.2341
  182POPC   C4B 2677   7.052   3.489   5.781 -0.1991 -0.1266 -0.0279
  183POPC   NC3 2678   0.630   1.925   3.733 -0.0800  0.1142 -0.0452
  183POPC   PO4 2679   0.256   1.593   3.784  0.5835  0.3833  0.0197
  183POPC   GL1 2680   0.151   1.923   3.992  0.0929 -0.1009  0.2178
  183POPC   GL2 2681  -0.015   1.697   4.172  0.2245  0.0402 -0.0876
  183POPC   C1A 2682   0.338   2.145   4.322  0.2895 -0.3974 -0.3713
  183POPC   D2A 2683   0.501   2.527   4.267  0.0230 -0.1335  0.2395
  183POPC   C3A 2684   0.353   2.850   4.400 -0.1277  0.0553  0.1915
  183POPC   C4A 2685   0.507   3.154   4.657 -0.0320  0.3027  0.0016
  183POPC   C1B 2686  -0.262   1.501   4.472 -0.1607  0.1492  0.1319
  183POPC   C2B 2687  -0.240   1.380   4.867 -0.4635 -0.0200  0.0133
  183POPC   C3B 2688  -0.008   1.409   5.173  0.2078 -0.1056  0.1923
  183POPC   C4B 2689   0.022   1.400   5.668 -0.0563 -0.0645  0.0784
  184POPC   NC3 2690   4.902   5.058   4.307  0.2313 -0.2769 -0.1092
  184POPC   PO4 2691   5.140   4.659   4.420  0.0773 -0.0798  0.0620
  184POPC   GL1 2692   5.017   4.255   4.650 -0.1349  0.2564 -0.2314
  184POPC   GL2 2693   5.004   4.446   4.955 -0.0070  0.1845  0.0588
  184POPC   C1A 2694   4.791   3.984   5.007 -0.1085 -0.0609  0.1212
  184POPC   D2A 2695   4.879   3.701   5.392 -0.1084 -0.2184 -0.2049
  184POPC   C3A 2696   4.671   3.788   5.776  0.0798 -0.1487 -0.2943
  184POPC   C4A 2697   4.237   3.684   6.002 -0.0271  0.1036 -0.1699
  184POPC   C1B 2698   5.151   4.355   5.378 -0.1564 -0.1500 -0.1615
  184POPC   C2B 2699   5.112   4.455   5.860 -0.1614  0.1408 -0.2572
  184POPC   C3B 2700   5.228   4.732   6.153  0.0361  0.1578 -0.4465
  184POPC   C4B 2701   5.311   5.051   6.459  0.3571 -0.0098 -0.2006
  185POPC   NC3 2702   2.693   5.384   4.440 -0.0803  0.0163  0.2469
  185POPC   PO4 2703   2.755   5.730   4.750  0.1391  0.0690  0.2814
  185POPC   GL1 2704   2.704   5.608   5.150  0.2279  0.2840 -0.0339
  185POPC   GL2 2705   2.780   5.776   5.469 -0.0964 -0.0798  0.0581
  185POPC   C1A 2706   2.585   5.240   5.342  0.3032 -0.2046  0.1409
  185POPC   D2A 2707   2.486   5.116   5.732 -0.1749  0.2758 -0.0956
  185POPC   C3A 2708   2.116   5.029   5.619  0.2161 -0.1400  0.1542
  185POPC   C4A 2709   1.790   4.785   5.481  0.0953  0.2148 -0.0339
  185POPC   C1B 2710   2.595   5.654   5.816  0.1410 -0.0195  0.0200
  185POPC   C2B 2711   2.496   5.837   6.187 -0.2130 -0.2842 -0.1184
  185POPC   C3B 2712   2.587   5.746   6.626 -0.0831 -0.3911 -0.1104
  185POPC   C4B 2713   2.880   5.893   6.950  0.2930  0.1360  0.0864
  186POPC   NC3 2714   7.948   3.406   3.544  0.1868  0.4628 -0.3278
  186POPC   PO4 2715   8.303   3.490   3.890  0.0862 -0.2162  0.0990
  186POPC   GL1 2716   8.370   3.284   4.306 -0.0522 -0.3195  0.0180
  186POPC   GL2 2717   8.460   3.168   4.546 -0.0157  0.1765  0.0127
  186POPC   C1A 2718   8.768   3.539   4.577 -0.0514 -0.3613  0.0944
  186POPC   D2A 2719   9.011   3.760   4.899  0.0039 -0.0835  0.1661
  186POPC   C3A 2720   9.266   3.723   5.137 -0.0258  0.1796 -0.2927
  186POPC   C4A 2721   9.668   3.597   5.005 -0.0755 -0.0126 -0.0989
  186POPC   C1B 2722   8.272   3.564   4.776  0.1239  0.1712 -0.1948
  186POPC   C2B 2723   8.073   3.884   4.851  0.0642  0.0289  0.1603
  186POPC   C3B 2724   7.959   4.291   5.139 -0.1181 -0.1120  0.0921
  186POPC   C4B 2725   8.053   4.616   5.387 -0.3988  0.3467  0.0216
  187POPC   NC3 2726   8.221   1.208   3.565  0.2042 -0.2611 -0.1197
  187POPC   PO4 2727   8.373   1.427   4.056  0.1225  0.3189 -0.3423
  187POPC   GL1 2728   8.239   1.471   4.406  0.1755  0.0624 -0.1496
  187POPC   GL2 2729   7.990   1.578   4.400  0.0284 -0.4730  0.1707
  187POPC   C1A 2730   8.193   1.248   4.851 -0.2061  0.4585 -0.0116
  187POPC   D2A 2731   8.389   0.987   5.106 -0.1126  0.2696 -0.0852
  187POPC   C3A 2732   8.040   0.687   5.252 -0.0454 -0.0966 -0.1429
  187POPC   C4A 2733   7.595   0.673   5.443  0.3221 -0.0504  0.0417
  187POPC   C1B 2734   7.707   1.706   4.765  0.3244 -0.0905  0.0820
  187POPC   C2B 2735   7.531   1.931   5.130  0.2928 -0.1119 -0.1757
  187POPC   C3B 2736   7.517   2.220   5.473  0.0710  0.0237  0.2329
  187POPC   C4B 2737   7.333   2.672   5.559  0.2875  0.1953  0.3424
  188POPC   NC3 2738   1.571  10.648   4.190 -0.4023  0.4744 -0.0174
  188POPC   PO4 2739   1.258  10.386   4.127  0.1519  0.1230 -0.1972
  188POPC   GL1 2740   1.276  10.546   4.565 -0.0768  0.4248  0.3139
  188POPC   GL2 2741   0.976  10.597   4.487  0.1060  0.1548  0.1778
  188POPC   C1A 2742   1.132  10.621   4.973 -0.2188  0.0190 -0.4071
  188POPC   D2A 2743   1.081  10.683   5.357 -0.1466 -0.2126 -0.4185
  188POPC   C3A 2744   1.017  11.122   5.451 -0.0293 -0.1666  0.0729
  188POPC   C4A 2745   0.917  11.636   5.398 -0.1098  0.0265  0.4101
  188POPC   C1B 2746   0.671  10.804   4.725 -0.0423  0.0361  0.0019
  188POPC   C2B 2747   0.346  11.016   4.934 -0.0164 -0.2348 -0.1609
  188POPC   C3B 2748   0.190  11.411   4.948  0.0455 -0.0134 -0.1381
  188POPC   C4B 2749  -0.035  11.742   4.641  0.0591 -0.3108  0.0608
  189POPC   NC3 2750   1.457   0.603   4.353 -0.1114 -0.2024 -0.2070
  189POPC   PO4 2751   1.115   0.746   4.208 -0.2690 -0.0117  0.2091
  189POPC   GL1 2752   0.996   0.642   4.588  0.0358  0.2067 -0.2725
  189POPC   GL2 2753   1.193   0.298   4.678  0.0394 -0.2239 -0.0741
  189POPC   C1A 2754   0.791   0.510   4.953  0.0528 -0.0405 -0.0294
  189POPC   D2A 2755   0.506   0.608   5.365  0.0848  0.2730  0.0693
  189POPC   C3A 2756   0.598   0.648   5.782 -0.1782 -0.2194 -0.2505
  189POPC   C4A 2757   0.480   0.676   6.231  0.3002 -0.1175 -0.1450
  189POPC   C1B 2758   1.345   0.555   5.014  0.0060  0.0495 -0.0956
  189POPC   C2B 2759   1.388   0.687   5.575  0.1450  0.0063  0.0683
  189POPC   C3B 2760   1.137   0.665   5.836 -0.4124  0.0038 -0.0521
  189POPC   C4B 2761   0.926   0.453   6.142 -0.2404 -0.0193  0.1357
  190POPC   NC3 2762   1.360   7.711   4.281  0.1411  0.2988  0.1247
  190POPC   PO4 2763   1.694   7.770   4.441 -0.2044 -0.2359 -0.1503
  190POPC   GL1 2764   1.605   7.946   4.773  0.0356 -0.0984  0.1009
  190POPC   GL2 2765   1.737   7.971   5.098 -0.0748  0.0336 -0.2142
  190POPC   C1A 2766   1.277   8.131   5.074 -0.2742 -0.2557 -0.0708
  190POPC   D2A 2767   1.089   7.961   5.422  0.1820 -0.0307 -0.0765
  190POPC   C3A 2768   0.611   8.072   5.376  0.1451  0.1287 -0.1877
  190POPC   C4A 2769   0.173   8.255   5.371 -0.0941 -0.0559  0.1849
  190POPC   C1B 2770   2.090   8.260   5.319 -0.1171 -0.1481 -0.2802
  190POPC   C2B 2771   2.094   8.570   5.596  0.1730  0.0584  0.0826
  190POPC   C3B 2772   2.181   8.491   6.107  0.1126 -0.2038 -0.0603
  190POPC   C4B 2773   2.263   8.444   6.479  0.2181  0.0680  0.2599
  191POPC   NC3 2774   3.832   6.517   4.318 -0.1753 -0.2146  0.3236
  191POPC   PO4 2775   3.677   6.799   4.690  0.1801  0.1116 -0.1091
  191POPC   GL1 2776   3.643   6.639   5.081  0.2456 -0.0284 -0.0860
  191POPC   GL2 2777   3.280   6.428   5.067 -0.2045 -0.0734 -0.0494
  191POPC   C1A 2778   3.974   6.587   5.333 -0.1273  0.1211 -0.0293
  191POPC   D2A 2779   4.348   6.766   5.313 -0.1064  0.2184 -0.1506
  191POPC   C3A 2780   4.446   6.984   5.771 -0.1924  0.3459  0.1004
  191POPC   C4A 2781   4.625   7.178   6.114 -0.0868  0.2300  0.1745
  191POPC   C1B 2782   3.500   6.377   5.454  0.1591  0.0288  0.1557
  191POPC   C2B 2783   3.435   6.197   5.761 -0.0877  0.0004  0.0190
  191POPC   C3B 2784   3.331   6.067   6.239 -0.3021  0.2987  0.1947
  191POPC   C4B 2785   3.262   6.094   6.697  0.0369 -0.1548 -0.0238
  192POPC   NC3 2786   8.282  10.242   3.742 -0.1451 -0.2975  0.2310
  192POPC   PO4 2787   7.812  10.228   3.660  0.0040  0.2732  0.0013
  192POPC   GL1 2788   7.959  10.474   3.965 -0.0951 -0.0659 -0.2113
  192POPC   GL2 2789   8.131  10.409   4.239 -0.5922  0.2314 -0.0097
  192POPC   C1A 2790   8.150  10.895   4.130 -0.2977 -0.1233 -0.0857
  192POPC   D2A 2791   8.606  10.876   4.382 -0.0163  0.1933 -0.0863
  192POPC   C3A 2792   8.697  10.995   4.757 -0.1744 -0.1842  0.2047
  192POPC   C4A 2793   8.871  11.157   5.125 -0.2642 -0.3137  0.0068
  192POPC   C1B 2794   8.149  10.140   4.540 -0.0542  0.0326 -0.2052
  192POPC   C2B 2795   8.367  10.078   4.933  0.5830  0.1291  0.1956
  192POPC   C3B 2796   8.603  10.020   5.264  0.1807 -0.2690 -0.0830
  192POPC   C4B 2797   8.809   9.908   5.625 -0.0150 -0.1960 -0.1101
  193POPC   NC3 2798   5.348   0.181   4.091  0.0534  0.1468  0.5053
  193POPC   PO4 2799   4.935   0.221   4.094 -0.1514 -0.2384 -0.0499
  193POPC   GL1 2800   4.812   0.276   4.554 -0.0601  0.2163  0.1096
  193POPC   GL2 2801   4.599   0.362   4.672  0.0957 -0.0284  0.3163
  193POPC   C1A 2802   4.827   0.184   5.048  0.0419 -0.1385  0.4115
  193POPC   D2A 2803   4.522   0.151   5.459 -0.2232 -0.0218 -0.0991
  193POPC   C3A 2804   4.243  -0.017   5.417  0.0243  0.0984  0.3494
  193POPC   C4A 2805   3.812   0.135   5.289 -0.1845 -0.1140 -0.0627
  193POPC   C1B 2806   4.366   0.367   5.004  0.2078  0.1074  0.0870
  193POPC   C2B 2807   4.139   0.470   5.397 -0.2621  0.0153  0.3055
  193POPC   C3B 2808   3.908   0.702   5.798 -0.0832 -0.2602  0.1534
  193POPC   C4B 2809   3.505   0.870   5.968 -0.1626 -0.0399  0.1565
  194POPC   NC3 2810   4.861  10.075   4.349 -0.1015 -0.0431  0.0934
  194POPC   PO4 2811   5.258  10.310   4.442  0.0238 -0.3755  0.1380
  194POPC   GL1 2812   5.635  10.256   4.743  0.1831  0.1749 -0.1636
  194POPC   GL2 2813   5.924  10.518   4.792 -0.0108  0.0012 -0.2468
  194POPC   C1A 2814   5.736  10.245   5.193  0.0960 -0.1053  0.1485
  194POPC   D2A 2815   5.750  10.166   5.612  0.1860  0.0663 -0.1409
  194POPC   C3A 2816   5.562  10.248   5.967  0.4502  0.0329  0.1233
  194POPC   C4A 2817   5.381  10.352   6.392 -0.0882 -0.0545 -0.1824
  194POPC   C1B 2818   5.568  10.682   5.009 -0.1849  0.0098 -0.2165
  194POPC   C2B 2819   5.237  10.818   5.293 -0.3282 -0.2987  0.1039
  194POPC   C3B 2820   4.974  11.024   5.503 -0.2884 -0.1653  0.1421
  194POPC   C4B 2821   5.001  11.287   5.754  0.0864 -0.1668 -0.1874
  195POPC   NC3 2822   0.897   1.176   4.129 -0.1230  0.1195  0.0286
  195POPC   PO4 2823   0.481   1.161   3.795 -0.0428  0.0547  0.0581
  195POPC   GL1 2824   0.376   1.209   4.215 -0.3949  0.1261  0.4477
  195POPC   GL2 2825   0.336   1.004   4.377 -0.1575 -0.2436 -0.4106
  195POPC   C1A 2826   0.235   1.490   4.589 -0.1097  0.1379 -0.2997
  195POPC   D2A 2827   0.567   1.603   4.884  0.1123  0.2237  0.0865
  195POPC   C3A 2828   1.040   1.383   4.711 -0.0630  0.2541 -0.2098
  195POPC   C4A 2829   1.060   1.000   4.856 -0.0944 -0.2846  0.1633
  195POPC   C1B 2830   0.584   1.030   4.729 -0.2315  0.2636 -0.1558
  195POPC   C2B 2831   0.557   1.086   5.186  0.0318  0.1268 -0.2913
  195POPC   C3B 2832   0.421   1.105   5.571 -0.0658  0.0414 -0.0987
  195POPC   C4B 2833   0.402   1.430   5.984 -0.1129 -0.0641 -0.1344
  196POPC   NC3 2834   9.830   8.694   3.691 -0.0024  0.0487 -0.1449
  196POPC   PO4 2835  10.149   8.808   3.913 -0.0603 -0.1384 -0.1895
  196POPC   GL1 2836   9.976   8.562   4.209  0.2091  0.1462 -0.0301
  196POPC   GL2 2837   9.870   8.207   4.372  0.0093 -0.0927  0.0633
  196POPC   C1A 2838   9.910   8.703   4.615 -0.2486  0.0121 -0.1071
  196POPC   D2A 2839  10.086   8.956   4.957 -0.0429 -0.1432 -0.1416
  196POPC   C3A 2840   9.903   9.140   5.345  0.1491  0.1944 -0.1530
  196POPC   C4A 2841  10.131   9.426   5.583 -0.1725  0.1904  0.3514
  196POPC   C1B 2842   9.459   8.181   4.531  0.1839  0.1203 -0.0849
  196POPC   C2B 2843   9.376   8.250   4.955 -0.2506 -0.0671  0.3369
  196POPC   C3B 2844   9.331   8.328   5.400 -0.0279  0.0479 -0.0709
  196POPC   C4B 2845   9.484   8.374   5.881  0.2791  0.2549 -0.0177
  197POPC   NC3 2846   7.038   3.511   3.724 -0.1701 -0.2411 -0.4155
  197POPC   PO4 2847   7.361   3.461   3.906 -0.0623 -0.3298 -0.1317
  197POPC   GL1 2848   7.370   3.139   4.261  0.4857  0.1128 -0.4125
  197POPC   GL2 2849   7.011   3.140   4.362 -0.0061 -0.1606 -0.0751
  197POPC   C1A 2850   7.516   2.986   4.574 -0.1483 -0.0457  0.0676
  197POPC   D2A 2851   7.609   3.052   4.916 -0.1653 -0.0527 -0.3566
  197POPC   C3A 2852   7.393   3.289   5.188  0.0023 -0.1319  0.2100
  197POPC   C4A 2853   7.364   3.626   5.410  0.2067 -0.1411  0.1965
  197POPC   C1B 2854   7.189   3.418   4.705 -0.0957  0.1866 -0.0361
  197POPC   C2B 2855   7.441   3.706   4.901 -0.2306 -0.2303  0.0627
  197POPC   C3B 2856   7.542   4.105   4.912  0.3961 -0.2004 -0.0532
  197POPC   C4B 2857   7.485   4.363   5.264  0.0979  0.0938  0.1307
  198POPC   NC3 2858   1.712  10.102   4.108  0.0450  0.0176  0.3513
  198POPC   PO4 2859   2.124  10.205   3.998 -0.0277  0.0450 -0.3123
  198POPC   GL1 2860   2.035  10.341   4.468  0.1409 -0.3473  0.0482
  198POPC   GL2 2861   1.740  10.302   4.543  0.2794  0.3182  0.0834
  198POPC   C1A 2862   2.126  10.507   4.892 -0.2133  0.1859 -0.0008
  198POPC   D2A 2863   2.097  10.669   5.248 -0.0346  0.2664 -0.0798
  198POPC   C3A 2864   2.221  10.386   5.646 -0.0719  0.3057  0.0391
  198POPC   C4A 2865   2.329  10.276   5.981 -0.4900  0.1623  0.6463
  198POPC   C1B 2866   1.622  10.359   4.914  0.1229  0.2155  0.3592
  198POPC   C2B 2867   1.556  10.547   5.310  0.0617  0.0535  0.1694
  198POPC   C3B 2868   1.784  10.672   5.666  0.0481 -0.1903  0.0708
  198POPC   C4B 2869   1.766  10.960   6.015  0.2372 -0.1581  0.2077
  199POPC   NC3 2870  10.028   0.258   3.154 -0.1167 -0.0349  0.0276
  199POPC   PO4 2871   9.752   0.442   3.495 -0.1074 -0.0279  0.0858
  199POPC   GL1 2872   9.488   0.551   3.778 -0.1682 -0.1842 -0.1879
  199POPC   GL2 2873   9.412   0.307   3.821  0.0962  0.0487  0.0025
  199POPC   C1A 2874   9.506   0.660   4.242  0.0202  0.1181  0.2470
  199POPC   D2A 2875   9.632   0.561   4.701 -0.3984 -0.1254  0.0470
  199POPC   C3A 2876  10.089   0.373   4.897  0.2340  0.3944  0.2565
  199POPC   C4A 2877  10.447   0.645   4.989  0.0122 -0.1729  0.2120
  199POPC   C1B 2878   9.640  -0.077   4.072  0.2359 -0.4199  0.1056
  199POPC   C2B 2879   9.845  -0.401   4.292  0.0038 -0.4816  0.2384
  199POPC   C3B 2880  10.135  -0.749   4.539 -0.1412 -0.0074 -0.0188
  199POPC   C4B 2881  10.013  -1.111   4.868 -0.5303  0.1110  0.0090
  200POPC   NC3 2882   6.265   2.139   4.246  0.0967  0.0237 -0.0194
  200POPC   PO4 2883   5.860   2.193   4.514 -0.2114 -0.2168 -0.1907
  200POPC   GL1 2884   5.843   2.155   4.863  0.3001  0.1832 -0.4297
  200POPC   GL2 2885   6.032   2.208   5.046 -0.1261 -0.3470  0.2338
  200POPC   C1A 2886   5.867   1.716   5.211  0.2020 -0.1874  0.1882
  200POPC   D2A 2887   5.759   1.746   5.695  0.4312 -0.2304  0.0277
  200POPC   C3A 2888   5.406   1.558   5.853 -0.0329 -0.0685  0.3865
  200POPC   C4A 2889   5.180   1.586   6.262  0.0739  0.1857  0.0359
  200POPC   C1B 2890   6.033   2.551   5.291  0.2626  0.1881 -0.0572
  200POPC   C2B 2891   5.860   2.793   5.508 -0.1275  0.3126  0.0330
  200POPC   C3B 2892   5.781   2.940   5.858 -0.1008 -0.1841  0.2166
  200POPC   C4B 2893   5.795   3.285   6.135  0.1225  0.3687 -0.0925
  201POPC   NC3 2894   0.583   4.652   3.652 -0.1915 -0.1158 -0.1115
  201POPC   PO4 2895   0.948   4.659   3.967  0.0205 -0.0736  0.1665
  201POPC   GL1 2896   0.884   4.657   4.376  0.2207  0.1871  0.0623
  201POPC   GL2 2897   1.074   4.806   4.562  0.0116 -0.2863  0.2406
  201POPC   C1A 2898   0.704   4.549   4.727 -0.2125  0.0056 -0.0472
  201POPC   D2A 2899   0.598   4.223   4.832  0.0039 -0.0757  0.1361
  201POPC   C3A 2900   0.865   3.873   4.700  0.1815  0.2651 -0.3790
  201POPC   C4A 2901   0.976   3.640   4.487 -0.2614 -0.2154  0.3264
  201POPC   C1B 2902   0.978   4.808   5.044 -0.2009  0.1936 -0.0255
  201POPC   C2B 2903   0.683   4.583   5.299 -0.0817  0.0430 -0.1424
  201POPC   C3B 2904   0.463   4.637   5.628  0.0726 -0.0252  0.1155
  201POPC   C4B 2905   0.074   4.374   5.921 -0.0291  0.0786  0.2156
  202POPC   NC3 2906   4.109   4.828   4.580  0.0624 -0.1928  0.1789
  202POPC   PO4 2907   4.011   5.261   4.543 -0.3187 -0.0134 -0.1106
  202POPC   GL1 2908   4.034   5.189   5.004  0.1707  0.2498 -0.0643
  202POPC   GL2 2909   3.862   4.840   5.043  0.0823  0.1314 -0.0807
  202POPC   C1A 2910   3.958   5.076   5.453  0.1267  0.1883 -0.0442
  202POPC   D2A 2911   3.735   4.796   5.768 -0.1879 -0.2389 -0.1063
  202POPC   C3A 2912   3.673   4.847   6.177  0.0637 -0.0059  0.0610
  202POPC   C4A 2913   3.761   5.106   6.432 -0.0480 -0.3545 -0.3644
  202POPC   C1B 2914   3.870   4.424   5.260  0.0462 -0.0909 -0.0215
  202POPC   C2B 2915   4.097   4.192   5.516  0.2230 -0.0658 -0.2676
  202POPC   C3B 2916   4.306   4.128   5.867  0.1530  0.1058  0.2177
  202POPC   C4B 2917   4.510   4.354   6.217 -0.2491  0.1643 -0.3052
  203POPC   NC3 2918   3.451   3.331   4.170  0.0868  0.2905 -0.0497
  203POPC   PO4 2919   3.794   3.068   4.075 -0.1250 -0.1883 -0.3691
  203POPC   GL1 2920   3.843   3.032   4.473 -0.2081  0.2176 -0.0028
  203POPC   GL2 2921   3.551   2.998   4.551  0.3061 -0.2824  0.0542
  203POPC   C1A 2922   4.122   2.928   4.763 -0.2217  0.1407  0.0542
  203POPC   D2A 2923   4.179   2.989   5.140 -0.1001  0.0139  0.0933
  203POPC   C3A 2924   4.024   2.817   5.450  0.2778 -0.1080  0.0251
  203POPC   C4A 2925   4.013   2.917   5.833  0.0366 -0.1603 -0.0115
  203POPC   C1B 2926   3.709   3.148   4.949  0.0197  0.4285 -0.1921
  203POPC   C2B 2927   3.759   3.502   5.149  0.1897 -0.0085  0.0081
  203POPC   C3B 2928   3.742   3.666   5.553  0.0083 -0.1796  0.3313
  203POPC   C4B 2929   3.763   3.457   5.994  0.0742 -0.0356 -0.0136
  204POPC   NC3 2930   3.961   2.210   4.129  0.0417 -0.0048 -0.3143
  204POPC   PO4 2931   3.669   2.045   4.083  0.1410  0.3071 -0.0997
  204POPC   GL1 2932   3.657   2.132   4.509 -0.1153  0.5755  0.1315
  204POPC   GL2 2933   3.394   2.201   4.628  0.0498  0.0082 -0.0404
  204POPC   C1A 2934   3.702   2.089   5.017  0.0416  0.0900  0.2217
  204POPC   D2A 2935   3.980   1.895   5.207 -0.5956 -0.1365  0.2909
  204POPC   C3A 2936   4.019   1.884   5.706  0.0865 -0.0372  0.3104
  204POPC   C4A 2937   3.999   1.738   6.139  0.0032 -0.1812  0.2752
  204POPC   C1B 2938   3.301   2.359   5.064  0.2305  0.2527 -0.0228
  204POPC   C2B 2939   3.479   2.083   5.531 -0.0157 -0.1045  0.3072
  204POPC   C3B 2940   3.572   2.041   5.921  0.0016  0.0077  0.2015
  204POPC   C4B 2941   3.435   2.381   6.183 -0.4230  0.1588 -0.1941
  205POPC   NC3 2942   5.879   6.240   4.234  0.2364  0.0150 -0.2160
  205POPC   PO4 2943   6.303   6.567   4.227 -0.0131 -0.1814 -0.0116
  205POPC   GL1 2944   6.318   6.536   4.651  0.0748 -0.0173 -0.0023
  205POPC   GL2 2945   6.169   6.379   4.974  0.0694  0.1389  0.2847
  205POPC   C1A 2946   6.210   6.851   5.086 -0.0822 -0.1158  0.0278
  205POPC   D2A 2947   5.957   6.929   5.545  0.1717 -0.1256 -0.2436
  205POPC   C3A 2948   6.115   7.154   5.933 -0.2016 -0.0468  0.0512
  205POPC   C4A 2949   6.275   7.546   6.017  0.0127 -0.0774 -0.1276
  205POPC   C1B 2950   6.311   6.515   5.464 -0.1320  0.1386  0.1119
  205POPC   C2B 2951   6.461   6.631   5.856  0.0354 -0.0971 -0.2466
  205POPC   C3B 2952   6.647   6.663   6.236  0.2231  0.1780 -0.3717
  205POPC   C4B 2953   7.041   6.464   6.513 -0.1410 -0.0146 -0.2962
  206POPC   NC3 2954   6.529   4.460   4.114 -0.4292 -0.2701 -0.0075
  206POPC   PO4 2955   6.609   4.101   4.053  0.0482  0.3037 -0.1932
  206POPC   GL1 2956   6.822   4.233   4.545 -0.1265 -0.0814 -0.1036
  206POPC   GL2 2957   7.134   3.948   4.681  0.1542 -0.0874  0.0015
  206POPC   C1A 2958   7.115   4.486   4.748 -0.0644  0.0314 -0.5804
  206POPC   D2A 2959   7.396   4.706   4.936 -0.0552  0.0318 -0.2373
  206POPC   C3A 2960   7.400   4.834   5.364  0.0112  0.0566 -0.0053
  206POPC   C4A 2961   7.201   5.172   5.720  0.3213  0.0766 -0.2354
  206POPC   C1B 2962   7.061   3.993   5.162 -0.0354  0.0937  0.2488
  206POPC   C2B 2963   7.187   4.026   5.589 -0.5691  0.0737 -0.1638
  206POPC   C3B 2964   6.926   4.104   5.858 -0.2413  0.1213  0.0973
  206POPC   C4B 2965   6.886   4.462   6.045  0.1219 -0.1048  0.0579
  207POPC   NC3 2966   5.134   7.466   4.191  0.1011  0.2146  0.2600
  207POPC   PO4 2967   5.167   7.148   4.591 -0.0745  0.0340 -0.0365
  207POPC   GL1 2968   4.946   7.183   4.963  0.0943 -0.0184  0.1074
  207POPC   GL2 2969   5.107   7.073   5.111 -0.5386 -0.0432 -0.0913
  207POPC   C1A 2970   4.840   7.406   5.387  0.1548 -0.2728  0.1990
  207POPC   D2A 2971   5.013   7.203   5.781  0.1063  0.0394 -0.0229
  207POPC   C3A 2972   5.192   7.249   6.197  0.2984 -0.0488 -0.3847
  207POPC   C4A 2973   5.599   6.983   6.247 -0.2026  0.0665 -0.2722
  207POPC   C1B 2974   5.354   7.298   5.481  0.5015  0.3438  0.0667
  207POPC   C2B 2975   5.589   7.296   5.893 -0.3697  0.1245  0.0839
  207POPC   C3B 2976   5.816   7.572   6.131 -0.1159  0.2351  0.1396
  207POPC   C4B 2977   6.023   7.894   6.368 -0.0807  0.0521  0.1505
  208POPC   NC3 2978   0.613   8.428   4.472 -0.1176  0.3828  0.0177
  208POPC   PO4 2979   0.559   7.976   4.327  0.0649  0.4028 -0.2044
  208POPC   GL1 2980   0.630   7.961   4.774  0.2839  0.1649  0.0891
  208POPC   GL2 2981   0.305   7.697   4.818 -0.1148 -0.2072 -0.1316
  208POPC   C1A 2982   0.863   7.782   5.059 -0.0127  0.1735 -0.0524
  208POPC   D2A 2983   0.856   7.548   5.591  0.0354  0.3774  0.0098
  208POPC   C3A 2984   1.094   7.344   5.982 -0.0943  0.0130 -0.0440
  208POPC   C4A 2985   1.262   6.876   5.952 -0.0775  0.0709  0.0004
  208POPC   C1B 2986   0.274   7.751   5.263  0.0696  0.3417 -0.0611
  208POPC   C2B 2987   0.333   7.684   5.626  0.0943 -0.2857 -0.1253
  208POPC   C3B 2988   0.219   8.029   5.853  0.0015 -0.0558  0.0168
  208POPC   C4B 2989  -0.187   8.017   6.168 -0.0685 -0.0825  0.0656
  209POPC   NC3 2990   2.490   7.148   4.410  0.1768 -0.1043 -0.1407
  209POPC   PO4 2991   2.810   7.231   4.661 -0.0938 -0.1101  0.1155
  209POPC   GL1 2992   3.022   7.391   5.034 -0.0378  0.1242 -0.0814
  209POPC   GL2 2993   2.974   7.130   5.401 -0.0465 -0.4837  0.1244
  209POPC   C1A 2994   3.386   7.516   5.314  0.2034  0.1568 -0.0732
  209POPC   D2A 2995   3.294   7.735   5.714  0.1768 -0.1730 -0.0938
  209POPC   C3A 2996   3.458   7.707   6.142  0.4020 -0.0067  0.1131
  209POPC   C4A 2997   3.289   7.422   6.416  0.0219 -0.0575 -0.0185
  209POPC   C1B 2998   3.209   6.777   5.573 -0.3597 -0.0756  0.0076
  209POPC   C2B 2999   3.529   6.662   5.822 -0.0689 -0.1291 -0.1342
  209POPC   C3B 3000   3.668   6.414   6.197  0.1735  0.0060 -0.1521
  209POPC   C4B 3001   3.785   6.244   6.588 -0.0680 -0.3854  0.2892
  210POPC   NC3 3002   4.433   8.878   4.131 -0.0035 -0.1269 -0.2152
  210POPC   PO4 3003   4.312   9.271   4.359 -0.2711 -0.2330  0.2035
  210POPC   GL1 3004   4.171   9.239   4.738 -0.2981 -0.0068 -0.0155
  210POPC   GL2 3005   3.906   9.153   4.778  0.0088 -0.1614  0.2394
  210POPC   C1A 3006   4.352   9.088   5.093 -0.2386 -0.1012  0.2543
  210POPC   D2A 3007   4.460   8.701   5.350 -0.0321 -0.0095  0.3039
  210POPC   C3A 3008   4.527   8.343   5.187  0.1976 -0.1368 -0.2087
  210POPC   C4A 3009   4.735   7.988   5.448 -0.3178 -0.1725  0.0800
  210POPC   C1B 3010   3.920   9.331   5.139 -0.3963 -0.1011 -0.0527
  210POPC   C2B 3011   3.764   9.505   5.573  0.1873 -0.1576  0.1466
  210POPC   C3B 3012   3.591   9.502   6.085  0.3460 -0.0417  0.2435
  210POPC   C4B 3013   3.261   9.742   6.225  0.2706  0.1266  0.0731
  211POPC   NC3 3014   7.368   5.524   4.219 -0.0627 -0.2753  0.2979
  211POPC   PO4 3015   7.471   5.979   4.232  0.1170  0.0805 -0.1319
  211POPC   GL1 3016   7.631   6.165   4.511  0.1097  0.1339  0.2399
  211POPC   GL2 3017   7.834   6.295   4.490  0.0988 -0.1444 -0.0264
  211POPC   C1A 3018   7.228   6.284   4.774 -0.0766 -0.0834 -0.3460
  211POPC   D2A 3019   7.080   6.471   5.176  0.1633 -0.2300 -0.1166
  211POPC   C3A 3020   6.879   6.736   5.538  0.0230 -0.1820  0.1537
  211POPC   C4A 3021   6.528   7.032   5.517  0.0913 -0.0536 -0.2932
  211POPC   C1B 3022   7.777   6.636   4.828 -0.1384 -0.0637 -0.1738
  211POPC   C2B 3023   7.925   6.668   5.314 -0.0369 -0.2220  0.3220
  211POPC   C3B 3024   7.882   6.503   5.794 -0.1201 -0.0895  0.0646
  211POPC   C4B 3025   7.938   6.268   6.215  0.1238  0.1885  0.0777
  212POPC   NC3 3026  10.235   9.808   3.519  0.0071 -0.0208  0.0038
  212POPC   PO4 3027   9.962   9.754   3.909  0.2217 -0.2592 -0.2342
  212POPC   GL1 3028   9.859   9.572   4.400 -0.0080 -0.2168 -0.1240
  212POPC   GL2 3029   9.896   9.213   4.502  0.1165  0.1219  0.0699
  212POPC   C1A 3030   9.533   9.805   4.680 -0.3560  0.2272 -0.4212
  212POPC   D2A 3031   9.508   9.914   5.066  0.0015  0.2163 -0.0062
  212POPC   C3A 3032   9.310   9.834   5.483 -0.0895 -0.2082 -0.1565
  212POPC   C4A 3033   9.117   9.468   5.558 -0.1356 -0.1878  0.1639
  212POPC   C1B 3034   9.683   9.299   4.894 -0.1118  0.1258  0.0620
  212POPC   C2B 3035   9.560   9.476   5.218  0.0481  0.2714  0.0717
  212POPC   C3B 3036   9.649   9.502   5.571 -0.0080  0.0085 -0.0193
  212POPC   C4B 3037   9.411   9.265   5.935  0.0058  0.0025 -0.0294
  213POPC   NC3 3038   1.368   4.538   4.283 -0.1887 -0.1132 -0.1389
  213POPC   PO4 3039   1.757   4.359   4.507  0.0853 -0.0668 -0.0600
  213POPC   GL1 3040   1.535   4.528   4.782  0.2359  0.2128 -0.0246
  213POPC   GL2 3041   1.183   4.365   4.753 -0.4217 -0.0979  0.1698
  213POPC   C1A 3042   1.486   4.710   5.094 -0.1964  0.4365 -0.0267
  213POPC   D2A 3043   1.432   4.449   5.478 -0.0267  0.0283 -0.1961
  213POPC   C3A 3044   1.407   4.571   5.830  0.3353  0.0005 -0.0070
  213POPC   C4A 3045   1.126   4.447   6.209 -0.1557 -0.4541  0.2138
  213POPC   C1B 3046   1.068   4.282   5.185  0.0360  0.0390  0.0181
  213POPC   C2B 3047   0.745   4.089   5.391 -0.0703 -0.4130 -0.0617
  213POPC   C3B 3048   0.506   4.070   5.835  0.1828 -0.0790 -0.1135
  213POPC   C4B 3049   0.549   4.439   6.076 -0.0903  0.2455 -0.0590
  214POPC   NC3 3050   5.024   4.274   4.172 -0.2083 -0.4887  0.0994
  214POPC   PO4 3051   4.927   3.779   4.199  0.0072 -0.2932 -0.1050
  214POPC   GL1 3052   4.821   3.613   4.685 -0.0108 -0.0660 -0.2072
  214POPC   GL2 3053   5.110   3.509   4.946 -0.1258  0.0399  0.0303
  214POPC   C1A 3054   4.618   3.411   5.051 -0.0985  0.1403  0.0060
  214POPC   D2A 3055   4.587   3.186   5.361  0.0673  0.1067 -0.0858
  214POPC   C3A 3056   4.515   3.235   5.814 -0.0771 -0.2240  0.1567
  214POPC   C4A 3057   4.535   3.333   6.337  0.0656 -0.2000  0.1728
  214POPC   C1B 3058   5.132   3.343   5.294 -0.0143  0.2535 -0.1332
  214POPC   C2B 3059   5.079   3.409   5.725 -0.0474 -0.0042 -0.0290
  214POPC   C3B 3060   5.024   3.549   6.144  0.1270 -0.2432 -0.0337
  214POPC   C4B 3061   4.869   3.954   6.286 -0.0122  0.1154 -0.4675
  215POPC   NC3 3062   7.379   8.697   3.945  0.1281 -0.0785 -0.0530
  215POPC   PO4 3063   7.029   8.512   3.832  0.2214  0.0212 -0.0836
  215POPC   GL1 3064   6.990   8.641   4.268 -0.1895 -0.2654  0.1540
  215POPC   GL2 3065   6.743   8.842   4.487  0.1710  0.1447 -0.1054
  215POPC   C1A 3066   7.259   8.720   4.612  0.1849 -0.3856  0.2266
  215POPC   D2A 3067   7.300   9.029   5.059  0.1646  0.2088  0.2680
  215POPC   C3A 3068   7.485   8.879   5.373  0.1664  0.0343 -0.1447
  215POPC   C4A 3069   7.946   8.897   5.603  0.2805  0.0813  0.2596
  215POPC   C1B 3070   6.737   9.005   4.935  0.0634 -0.0256  0.4003
  215POPC   C2B 3071   6.817   9.203   5.266 -0.0203 -0.0367 -0.0664
  215POPC   C3B 3072   6.941   9.476   5.602 -0.0459 -0.0004  0.2493
  215POPC   C4B 3073   6.917   9.748   5.872  0.1644 -0.1399 -0.0060
  216POPC   NC3 3074  10.126   9.315   4.063 -0.0053 -0.0119 -0.1122
  216POPC   PO4 3075  10.475   9.651   4.006  0.3914 -0.3396 -0.1376
  216POPC   GL1 3076  10.533   9.501   4.415 -0.0056  0.0689 -0.0683
  216POPC   GL2 3077  10.718   9.313   4.611 -0.1953 -0.2517  0.0701
  216POPC   C1A 3078  10.511   9.699   4.803 -0.0579 -0.3820 -0.0277
  216POPC   D2A 3079  10.693   9.853   5.223 -0.1666  0.2629  0.2998
  216POPC   C3A 3080  10.415   9.940   5.555 -0.0334  0.0548  0.1009
  216POPC   C4A 3081   9.988   9.888   5.627 -0.2249  0.2954 -0.1743
  216POPC   C1B 3082  10.513   9.249   5.129  0.1143  0.1683  0.1538
  216POPC   C2B 3083  10.613   9.438   5.470 -0.1750 -0.1239  0.0187
  216POPC   C3B 3084  10.524   9.136   5.811  0.0310  0.2109 -0.1905
  216POPC   C4B 3085  10.395   9.218   6.232  0.0375  0.0174 -0.1796
  217POPC   NC3 3086   3.578   3.775   4.310 -0.0783  0.2316  0.1472
  217POPC   PO4 3087   3.088   3.705   4.098 -0.2097 -0.1566 -0.1661
  217POPC   GL1 3088   2.987   3.487   4.528  0.0587  0.0500 -0.0182
  217POPC   GL2 3089   2.654   3.336   4.588  0.2187  0.0239 -0.1226
  217POPC   C1A 3090   3.087   3.572   4.956  0.0277 -0.2078  0.0789
  217POPC   D2A 3091   3.257   3.495   5.377  0.0033 -0.2105 -0.1594
  217POPC   C3A 3092   3.292   3.608   5.791  0.1489 -0.1413  0.2475
  217POPC   C4A 3093   3.427   3.978   5.985  0.1216 -0.2019  0.3547
  217POPC   C1B 3094   2.622   3.366   5.029 -0.2752 -0.1606 -0.0124
  217POPC   C2B 3095   2.777   3.202   5.319  0.1271  0.1521 -0.1719
  217POPC   C3B 3096   3.123   3.115   5.738 -0.2774 -0.1522  0.0142
  217POPC   C4B 3097   3.533   3.030   6.114  0.1497 -0.0429 -0.1246
  218POPC   NC3 3098   2.315   9.269   4.278  0.2806 -0.1484 -0.0133
  218POPC   PO4 3099   1.822   9.160   4.390 -0.3258  0.4174 -0.2737
  218POPC   GL1 3100   1.811   9.427   4.727 -0.0469 -0.1112 -0.2930
  218POPC   GL2 3101   1.779   9.737   4.629  0.2257 -0.0583  0.1696
  218POPC   C1A 3102   2.028   9.553   5.158  0.1523  0.0210  0.0386
  218POPC   D2A 3103   2.292   9.928   5.434  0.1293  0.1598  0.1289
  218POPC   C3A 3104   2.415   9.808   5.850  0.2739 -0.1766  0.2914
  218POPC   C4A 3105   2.787   9.600   6.166 -0.0375 -0.0929 -0.1834
  218POPC   C1B 3106   1.631   9.814   4.951  0.0202 -0.1505  0.0161
  218POPC   C2B 3107   1.666   9.786   5.366  0.0699  0.1523  0.1186
  218POPC   C3B 3108   1.844   9.674   5.700 -0.0921  0.2679  0.2080
  218POPC   C4B 3109   1.962   9.855   6.064 -0.3408  0.0722  0.0686
  219POPC   NC3 3110   3.668   5.810   4.488  0.1108 -0.2968  0.1053
  219POPC   PO4 3111   3.209   5.630   4.493  0.1082 -0.0390 -0.0256
  219POPC   GL1 3112   3.211   5.609   4.974  0.2301 -0.1273 -0.1723
  219POPC   GL2 3113   3.156   5.906   5.051 -0.0899 -0.2040  0.0139
  219POPC   C1A 3114   3.125   5.385   5.394  0.2780 -0.1876  0.4470
  219POPC   D2A 3115   3.003   5.328   5.793 -0.2923 -0.1088 -0.1809
  219POPC   C3A 3116   2.945   5.597   6.186  0.0663  0.1023 -0.0886
  219POPC   C4A 3117   3.037   5.704   6.456 -0.3117  0.1707 -0.2490
  219POPC   C1B 3118   3.372   5.830   5.465  0.0951 -0.2273 -0.1151
  219POPC   C2B 3119   3.143   5.797   5.778 -0.1443 -0.0110 -0.1277
  219POPC   C3B 3120   3.388   5.674   6.023  0.4485 -0.0329  0.1119
  219POPC   C4B 3121   3.734   5.329   5.925 -0.1778  0.0551  0.0355
  220POPC   NC3 3122   2.569   6.145   4.553 -0.1015 -0.0504  0.3645
  220POPC   PO4 3123   2.285   6.240   4.775 -0.1853 -0.4043  0.2107
  220POPC   GL1 3124   2.453   6.038   5.150  0.1803 -0.0981 -0.0940
  220POPC   GL2 3125   2.757   6.208   5.042 -0.0090  0.1647  0.2412
  220POPC   C1A 3126   2.476   6.141   5.639 -0.2930 -0.0627 -0.1843
  220POPC   D2A 3127   2.520   6.385   6.001  0.2257  0.0277 -0.3024
  220POPC   C3A 3128   2.201   6.699   6.300 -0.2998 -0.1318  0.1585
  220POPC   C4A 3129   1.887   6.603   6.602  0.0481 -0.1925 -0.0347
  220POPC   C1B 3130   3.016   6.199   5.427 -0.2558  0.0098 -0.0843
  220POPC   C2B 3131   2.999   6.260   5.946 -0.0990 -0.0491  0.3286
  220POPC   C3B 3132   3.182   6.492   6.317 -0.1618  0.1089  0.1822
  220POPC   C4B 3133   3.370   6.837   6.334  0.1089 -0.3835 -0.1934
  221POPC   NC3 3134   5.385   5.079   4.181 -0.3543  0.0746  0.1783
  221POPC   PO4 3135   5.612   5.537   4.371 -0.2347 -0.1529 -0.2211
  221POPC   GL1 3136   5.573   5.712   4.812  0.0945 -0.0788  0.2597
  221POPC   GL2 3137   5.693   6.020   4.937 -0.0538 -0.0165  0.1094
  221POPC   C1A 3138   5.601   5.637   5.252 -0.2332  0.1587  0.2659
  221POPC   D2A 3139   5.750   5.668   5.701 -0.1564  0.1153 -0.3683
  221POPC   C3A 3140   5.454   6.096   5.857 -0.3145 -0.1936  0.0374
  221POPC   C4A 3141   5.264   6.364   5.643  0.2481  0.0876  0.1376
  221POPC   C1B 3142   5.684   6.294   5.294 -0.4433 -0.0978  0.2407
  221POPC   C2B 3143   5.881   6.509   5.768  0.3732 -0.2878 -0.2875
  221POPC   C3B 3144   5.990   6.711   6.094 -0.0431 -0.1260 -0.5297
  221POPC   C4B 3145   6.228   6.881   6.477 -0.0796 -0.1815  0.1556
  222POPC   NC3 3146   5.206   5.844   4.381 -0.0310  0.2613 -0.1395
  222POPC   PO4 3147   5.463   6.167   4.514  0.2676  0.0288 -0.1945
  222POPC   GL1 3148   5.205   6.165   4.857  0.2026  0.1724  0.2742
  222POPC   GL2 3149   5.056   5.816   4.840 -0.3714 -0.1803  0.0395
  222POPC   C1A 3150   5.106   5.979   5.306 -0.0422 -0.1441 -0.0341
  222POPC   D2A 3151   4.939   5.954   5.736  0.1713 -0.0476 -0.1627
  222POPC   C3A 3152   5.209   5.643   5.959 -0.0871 -0.0786 -0.1192
  222POPC   C4A 3153   5.446   5.331   5.979 -0.0938 -0.4669 -0.3154
  222POPC   C1B 3154   5.135   5.471   5.132  0.0147 -0.1384 -0.0635
  222POPC   C2B 3155   5.043   5.195   5.378  0.2279 -0.1472 -0.0681
  222POPC   C3B 3156   5.053   4.961   5.773 -0.0386 -0.3303  0.2200
  222POPC   C4B 3157   4.638   4.824   5.988 -0.1750 -0.0075 -0.1813
  223POPC   NC3 3158   4.007   8.834   4.422 -0.0935  0.0764  0.0066
  223POPC   PO4 3159   3.988   8.360   4.255 -0.0188  0.0901 -0.0785
  223POPC   GL1 3160   4.143   8.415   4.641 -0.1379  0.1418  0.2033
  223POPC   GL2 3161   4.311   8.143   4.763  0.1414 -0.1118  0.0051
  223POPC   C1A 3162   4.090   8.588   5.006  0.0706 -0.1950 -0.2502
  223POPC   D2A 3163   3.881   8.454   5.272 -0.0862  0.0412  0.1895
  223POPC   C3A 3164   3.969   8.444   5.723 -0.1133  0.1281  0.2515
  223POPC   C4A 3165   4.188   8.732   5.932  0.0843 -0.2241  0.2310
  223POPC   C1B 3166   4.085   8.009   5.248  0.0698  0.2733  0.4674
  223POPC   C2B 3167   4.242   8.059   5.647  0.0243 -0.1936 -0.0904
  223POPC   C3B 3168   4.572   8.451   5.809 -0.0552 -0.0705  0.2336
  223POPC   C4B 3169   4.948   8.615   6.172 -0.1077 -0.1556 -0.0057
  224POPC   NC3 3170   4.990   2.304   4.203 -0.1700  0.4216 -0.3257
  224POPC   PO4 3171   5.011   1.937   4.399  0.0307 -0.1170  0.3766
  224POPC   GL1 3172   5.358   2.060   4.705  0.3011  0.0026  0.0019
  224POPC   GL2 3173   5.436   1.798   5.023 -0.0292  0.1515  0.2143
  224POPC   C1A 3174   5.145   2.177   5.144 -0.2238 -0.3400 -0.0422
  224POPC   D2A 3175   5.234   1.970   5.617  0.1443 -0.0143  0.0899
  224POPC   C3A 3176   5.496   2.075   6.000 -0.3135 -0.0390 -0.0358
  224POPC   C4A 3177   5.981   1.861   6.096  0.0371  0.0974  0.1367
  224POPC   C1B 3178   5.573   2.113   5.322  0.1178  0.1104  0.1789
  224POPC   C2B 3179   5.844   2.226   5.624  0.3601  0.3408  0.0888
  224POPC   C3B 3180   5.993   2.513   5.994 -0.2990  0.1537 -0.0597
  224POPC   C4B 3181   6.249   2.643   6.348  0.0647  0.1332 -0.1718
  225POPC   NC3 3182   2.888   4.344   4.253 -0.0368  0.1028 -0.0236
  225POPC   PO4 3183   2.616   4.800   4.276 -0.3247 -0.1521 -0.1918
  225POPC   GL1 3184   2.523   4.632   4.782 -0.5083 -0.1250 -0.0294
  225POPC   GL2 3185   2.474   4.361   4.737  0.1654 -0.1262 -0.1267
  225POPC   C1A 3186   2.395   4.734   5.314  0.2517  0.2872  0.0287
  225POPC   D2A 3187   2.446   4.487   5.757  0.2224 -0.1765 -0.5205
  225POPC   C3A 3188   2.245   4.684   6.080 -0.0976  0.2632  0.2533
  225POPC   C4A 3189   1.791   4.904   6.077 -0.3949 -0.1967 -0.0924
  225POPC   C1B 3190   2.366   4.103   5.094  0.1523 -0.1844  0.4076
  225POPC   C2B 3191   2.432   4.064   5.544  0.0307  0.2445 -0.0735
  225POPC   C3B 3192   2.425   4.081   6.042  0.3807 -0.0339  0.1277
  225POPC   C4B 3193   2.723   4.409   6.224  0.1396  0.3437 -0.0773
  226POPC   NC3 3194   0.569   9.762   3.980 -0.1570  0.2160  0.3700
  226POPC   PO4 3195   0.270   9.632   4.254 -0.2222 -0.0055 -0.2826
  226POPC   GL1 3196   0.192   9.895   4.574 -0.1311 -0.0126  0.0070
  226POPC   GL2 3197   0.008  10.037   4.485  0.0219 -0.0724  0.1910
  226POPC   C1A 3198   0.379   9.961   4.929  0.2194  0.0976  0.1542
  226POPC   D2A 3199   0.455   9.794   5.340  0.0963 -0.2379 -0.1747
  226POPC   C3A 3200   0.209   9.801   5.707  0.0019  0.0567 -0.0440
  226POPC   C4A 3201  -0.110   9.636   5.936  0.0484 -0.1699 -0.2555
  226POPC   C1B 3202  -0.164  10.242   4.834 -0.1349  0.5075 -0.1224
  226POPC   C2B 3203  -0.164  10.301   5.213  0.0739 -0.2526 -0.1358
  226POPC   C3B 3204   0.225  10.249   5.540  0.0117 -0.1909  0.1288
  226POPC   C4B 3205   0.587  10.157   5.764  0.1555  0.0462  0.0254
  227POPC   NC3 3206   7.994   2.926   4.181  0.2624 -0.0426 -0.0181
  227POPC   PO4 3207   8.177   2.714   4.492 -0.1107 -0.0107 -0.0875
  227POPC   GL1 3208   7.930   2.606   4.747  0.0263 -0.0582  0.1193
  227POPC   GL2 3209   8.086   2.829   4.979  0.1373  0.1005  0.0208
  227POPC   C1A 3210   7.477   2.634   4.921  0.0335  0.1677  0.1588
  227POPC   D2A 3211   7.219   2.399   5.154 -0.3526 -0.3732  0.1461
  227POPC   C3A 3212   6.834   2.469   5.066  0.1845  0.3230  0.1238
  227POPC   C4A 3213   6.488   2.239   4.853  0.3488 -0.3630 -0.0113
  227POPC   C1B 3214   8.147   3.144   5.025 -0.3193  0.2190 -0.0983
  227POPC   C2B 3215   7.965   3.423   5.123  0.1056  0.4225 -0.0983
  227POPC   C3B 3216   7.790   3.857   5.238 -0.1154  0.0486 -0.0541
  227POPC   C4B 3217   7.914   4.102   5.593 -0.0778  0.0008  0.0251
  228POPC   NC3 3218   1.151   5.550   4.002 -0.0141  0.2688  0.1307
  228POPC   PO4 3219   0.770   5.562   4.371 -0.1542  0.0293  0.1186
  228POPC   GL1 3220   0.729   5.657   4.808 -0.2149 -0.0816 -0.0797
  228POPC   GL2 3221   1.063   5.757   4.834 -0.1789  0.0261 -0.0696
  228POPC   C1A 3222   0.832   5.685   5.284  0.1276 -0.0294  0.1517
  228POPC   D2A 3223   1.036   5.444   5.604 -0.0341 -0.2440 -0.0549
  228POPC   C3A 3224   1.237   5.127   5.781  0.2602 -0.2658  0.0888
  228POPC   C4A 3225   1.345   4.923   6.178  0.2910  0.0035 -0.0549
  228POPC   C1B 3226   1.400   5.699   5.069  0.0776  0.0963  0.2968
  228POPC   C2B 3227   1.786   5.940   5.229 -0.1900  0.1535  0.3315
  228POPC   C3B 3228   1.978   6.030   5.593  0.0247 -0.1308  0.0718
  228POPC   C4B 3229   2.089   6.038   5.967  0.1433 -0.0359  0.1467
  229POPC   NC3 3230  10.487   1.599   3.581  0.1164 -0.2095  0.2144
  229POPC   PO4 3231  10.172   1.767   3.870  0.2995 -0.1102 -0.0183
  229POPC   GL1 3232  10.191   1.394   4.151 -0.2349  0.3311  0.1288
  229POPC   GL2 3233   9.921   1.103   4.081  0.0882  0.0736 -0.1386
  229POPC   C1A 3234  10.499   1.154   4.117  0.2989  0.0063  0.0634
  229POPC   D2A 3235  10.508   0.813   4.267 -0.2020  0.0061 -0.0069
  229POPC   C3A 3236  10.785   0.580   4.422 -0.1975  0.0339 -0.3664
  229POPC   C4A 3237  11.222   0.561   4.495  0.0276  0.1272 -0.0997
  229POPC   C1B 3238   9.695   1.108   4.427 -0.2762  0.0579 -0.3147
  229POPC   C2B 3239   9.649   1.115   4.834  0.0570 -0.4213 -0.2192
  229POPC   C3B 3240   9.869   0.828   5.035  0.1296 -0.0672 -0.4406
  229POPC   C4B 3241  10.009   0.606   5.341  0.0374 -0.1932  0.0524
  230POPC   NC3 3242   8.526   9.475   3.432  0.1032  0.0994  0.3197
  230POPC   PO4 3243   8.560   9.869   3.724  0.1445 -0.1584 -0.1122
  230POPC   GL1 3244   8.433   9.749   4.162  0.0450  0.1123 -0.0453
  230POPC   GL2 3245   8.650   9.711   4.335  0.0116  0.0576 -0.2191
  230POPC   C1A 3246   8.267   9.676   4.622 -0.0765  0.2532  0.2424
  230POPC   D2A 3247   8.065   9.683   5.122 -0.1621 -0.2260  0.2890
  230POPC   C3A 3248   8.124  10.015   5.441 -0.0519 -0.3580  0.0533
  230POPC   C4A 3249   8.073  10.433   5.727 -0.1627 -0.2059  0.0448
  230POPC   C1B 3250   8.821   9.995   4.750  0.0909 -0.3570 -0.3057
  230POPC   C2B 3251   9.097  10.203   5.030  0.0168 -0.2537 -0.1055
  230POPC   C3B 3252   9.033  10.330   5.526 -0.0288  0.4563  0.0580
  230POPC   C4B 3253   8.905  10.461   5.911  0.2391  0.1470  0.2037
  231POPC   NC3 3254   2.736   1.849   3.584 -0.0718 -0.0002  0.3762
  231POPC   PO4 3255   2.534   1.875   4.002  0.1019 -0.0523  0.0538
  231POPC   GL1 3256   2.494   2.016   4.442 -0.1012  0.1976  0.5617
  231POPC   GL2 3257   2.669   1.835   4.609  0.0776 -0.3367  0.0585
  231POPC   C1A 3258   2.298   2.181   4.828 -0.1412 -0.2421 -0.1267
  231POPC   D2A 3259   2.070   2.475   5.126  0.1501  0.1431  0.3404
  231POPC   C3A 3260   1.869   2.494   5.366  0.0466 -0.1049  0.1034
  231POPC   C4A 3261   1.489   2.661   5.563 -0.2413  0.1682  0.2467
  231POPC   C1B 3262   2.973   1.958   4.833 -0.0132 -0.3275 -0.3119
  231POPC   C2B 3263   3.041   2.018   5.307  0.1135 -0.2574  0.0873
  231POPC   C3B 3264   3.182   1.701   5.698  0.1084 -0.4203  0.1572
  231POPC   C4B 3265   3.078   1.635   6.052  0.2015  0.0328 -0.1969
  232POPC   NC3 3266   4.227   2.735   4.053 -0.1323 -0.2164  0.1105
  232POPC   PO4 3267   4.620   2.749   4.057 -0.1522 -0.0776 -0.0722
  232POPC   GL1 3268   4.547   2.640   4.491  0.1425 -0.2105  0.1637
  232POPC   GL2 3269   4.232   2.500   4.528 -0.1136  0.1325  0.4001
  232POPC   C1A 3270   4.551   2.731   4.943 -0.1830  0.0746 -0.0672
  232POPC   D2A 3271   4.500   2.690   5.358  0.0894 -0.1224  0.1971
  232POPC   C3A 3272   4.423   2.582   5.791  0.1646  0.0618  0.1759
  232POPC   C4A 3273   4.396   2.138   5.977 -0.0375  0.0219 -0.0011
  232POPC   C1B 3274   3.822   2.533   4.717  0.0495 -0.3717  0.2010
  232POPC   C2B 3275   3.723   2.624   5.096 -0.3926 -0.3006 -0.2542
  232POPC   C3B 3276   3.462   2.686   5.367 -0.2671 -0.0784 -0.4204
  232POPC   C4B 3277   3.623   2.622   5.743 -0.4263  0.1698 -0.2241
  233POPC   NC3 3278   4.900   0.726   4.242 -0.0276  0.3493 -0.0588
  233POPC   PO4 3279   5.231   0.623   3.990  0.0015  0.0674  0.0974
  233POPC   GL1 3280   5.272   0.509   4.488  0.2384  0.0320  0.0556
  233POPC   GL2 3281   5.026   0.739   4.680 -0.2540  0.2125  0.0596
  233POPC   C1A 3282   5.305   0.404   4.951  0.3781 -0.1032 -0.1727
  233POPC   D2A 3283   5.375   0.564   5.351 -0.1620  0.0433 -0.3234
  233POPC   C3A 3284   5.477   0.512   5.678 -0.1691  0.1261 -0.1989
  233POPC   C4A 3285   5.780   0.264   5.985  0.0496 -0.2571  0.4192
  233POPC   C1B 3286   4.889   0.670   5.023  0.0841 -0.3377  0.2395
  233POPC   C2B 3287   4.618   0.637   5.346  0.2440 -0.2356  0.1084
  233POPC   C3B 3288   4.465   0.539   5.803 -0.1299  0.0286 -0.0535
  233POPC   C4B 3289   4.232   0.644   6.151 -0.1636  0.0476 -0.0580
  234POPC   NC3 3290   0.123  10.027   3.981 -0.2219 -0.1387 -0.1068
  234POPC   PO4 3291   0.337  10.391   3.820  0.1066 -0.1712  0.1784
  234POPC   GL1 3292   0.144  10.495   4.247 -0.0401  0.0305  0.1236
  234POPC   GL2 3293   0.286  10.811   4.351 -0.1822 -0.2411  0.4023
  234POPC   C1A 3294   0.280  10.453   4.632  0.1480 -0.1741  0.0668
  234POPC   D2A 3295   0.258  10.451   5.056 -0.1980 -0.1298 -0.1830
  234POPC   C3A 3296   0.592  10.770   5.374  0.3204  0.1516 -0.3190
  234POPC   C4A 3297   0.801  10.750   5.859  0.0201  0.0996 -0.0061
  234POPC   C1B 3298  -0.067  10.791   4.684 -0.2785  0.0766  0.0320
  234POPC   C2B 3299  -0.262  10.799   5.025 -0.0754 -0.2418  0.1850
  234POPC   C3B 3300  -0.398  10.747   5.399  0.1703 -0.1432 -0.0615
  234POPC   C4B 3301  -0.570  10.406   5.608  0.0353  0.2489  0.3134
  235POPC   NC3 3302   4.755   7.951   4.678 -0.0969 -0.0204 -0.1285
  235POPC   PO4 3303   5.039   7.727   4.627 -0.3757  0.2422  0.4218
  235POPC   GL1 3304   5.108   7.814   4.996 -0.0606  0.2676 -0.2070
  235POPC   GL2 3305   5.317   7.553   5.031 -0.1516 -0.4072  0.0318
  235POPC   C1A 3306   5.224   8.217   5.113  0.0118  0.0182 -0.0731
  235POPC   D2A 3307   4.965   8.480   5.384 -0.4280 -0.0459  0.1775
  235POPC   C3A 3308   5.041   8.295   5.737  0.0232 -0.2020  0.0447
  235POPC   C4A 3309   5.083   8.134   6.144 -0.1395  0.3577 -0.1563
  235POPC   C1B 3310   5.574   7.780   5.314  0.0923 -0.1153  0.1257
  235POPC   C2B 3311   5.665   7.967   5.695  0.1179 -0.0795 -0.1723
  235POPC   C3B 3312   5.958   8.211   5.894 -0.0710 -0.1600  0.0119
  235POPC   C4B 3313   5.880   8.556   6.184 -0.0827 -0.1814 -0.3736
  236POPC   NC3 3314   1.193   8.126   3.927 -0.1980 -0.3231 -0.2444
  236POPC   PO4 3315   1.491   8.241   4.282 -0.1852 -0.1464  0.2066
  236POPC   GL1 3316   1.465   8.414   4.684  0.2331 -0.0923 -0.0717
  236POPC   GL2 3317   1.743   8.405   4.849  0.1192  0.3272 -0.0806
  236POPC   C1A 3318   1.307   8.749   4.944  0.1583 -0.0973  0.1002
  236POPC   D2A 3319   1.229   8.973   5.330  0.1815  0.0124 -0.2821
  236POPC   C3A 3320   0.970   8.804   5.699  0.0858  0.0157 -0.1603
  236POPC   C4A 3321   0.514   8.822   5.804  0.3387 -0.4058  0.1954
  236POPC   C1B 3322   1.579   8.471   5.310 -0.3414 -0.0899  0.1502
  236POPC   C2B 3323   1.529   8.794   5.644 -0.2187 -0.2949  0.2437
  236POPC   C3B 3324   1.453   9.136   5.930  0.0458  0.1312  0.2153
  236POPC   C4B 3325   1.265   9.497   6.182  0.0920  0.2000  0.0681
  237POPC   NC3 3326   0.455   3.545   3.641  0.1946  0.2107  0.0650
  237POPC   PO4 3327   0.342   3.978   3.652  0.5252 -0.1236  0.1016
  237POPC   GL1 3328   0.188   3.964   4.035 -0.0676 -0.1065 -0.0127
  237POPC   GL2 3329   0.115   3.648   4.043 -0.1942  0.1080 -0.1420
  237POPC   C1A 3330  -0.037   4.339   4.229  0.3489  0.3377 -0.3529
  237POPC   D2A 3331   0.113   4.734   4.424 -0.2900  0.0603 -0.4435
  237POPC   C3A 3332   0.188   4.742   4.809 -0.0453  0.1894  0.1353
  237POPC   C4A 3333   0.230   4.494   5.150  0.3023 -0.2706  0.1319
  237POPC   C1B 3334   0.156   3.585   4.450 -0.1482 -0.2335 -0.4099
  237POPC   C2B 3335   0.494   3.594   4.861  0.3478 -0.2815 -0.0891
  237POPC   C3B 3336   0.537   3.643   5.300  0.0726 -0.0845  0.0210
  237POPC   C4B 3337   0.365   3.591   5.717  0.2183  0.1200  0.1090
  238POPC   NC3 3338   7.069   0.100   3.935  0.0181  0.1233 -0.2780
  238POPC   PO4 3339   7.157   0.494   3.854  0.0369 -0.3899 -0.3833
  238POPC   GL1 3340   7.285   0.440   4.343  0.1145 -0.1023 -0.0179
  238POPC   GL2 3341   7.579   0.560   4.480  0.3847  0.1162  0.0243
  238POPC   C1A 3342   7.312   0.225   4.718  0.1616 -0.2074 -0.0546
  238POPC   D2A 3343   7.436   0.234   5.210  0.3563  0.0494 -0.2916
  238POPC   C3A 3344   7.360  -0.102   5.402  0.0867 -0.1295 -0.1085
  238POPC   C4A 3345   7.560  -0.395   5.468 -0.4440  0.0561  0.0303
  238POPC   C1B 3346   7.788   0.426   4.886  0.0578 -0.0308  0.0076
  238POPC   C2B 3347   7.891   0.044   5.127 -0.3451  0.0503 -0.1336
  238POPC   C3B 3348   8.189  -0.267   5.244 -0.2346  0.2506 -0.3324
  238POPC   C4B 3349   8.543  -0.354   5.581  0.1670 -0.1039  0.3457
  239POPC   NC3 3350   1.961   5.783   4.199  0.1425  0.3611  0.1546
  239POPC   PO4 3351   2.271   5.665   4.520  0.2090  0.0605 -0.3034
  239POPC   GL1 3352   2.143   5.644   4.937 -0.0035 -0.1554  0.2181
  239POPC   GL2 3353   1.853   5.473   5.016  0.0426 -0.0285  0.1709
  239POPC   C1A 3354   2.178   5.579   5.361  0.1100 -0.1705 -0.2822
  239POPC   D2A 3355   2.085   5.524   5.818 -0.2177  0.2873 -0.0835
  239POPC   C3A 3356   1.749   5.373   5.952  0.0007  0.1228  0.0325
  239POPC   C4A 3357   1.636   5.263   6.401 -0.0563  0.2691 -0.0630
  239POPC   C1B 3358   2.063   5.062   5.084 -0.0631 -0.0436 -0.1404
  239POPC   C2B 3359   1.977   4.662   5.040 -0.5508  0.0244  0.2642
  239POPC   C3B 3360   1.987   4.326   5.330  0.0350  0.1098 -0.2028
  239POPC   C4B 3361   1.852   4.350   5.767  0.1980  0.0363 -0.1080
  240POPC   NC3 3362   0.839   8.771   4.137 -0.3657  0.3834  0.4293
  240POPC   PO4 3363   1.099   8.572   4.321  0.0255  0.1759  0.1705
  240POPC   GL1 3364   0.894   8.843   4.624 -0.2815 -0.3585 -0.0636
  240POPC   GL2 3365   0.884   8.500   4.849 -0.0230  0.1083 -0.1448
  240POPC   C1A 3366   0.755   8.873   5.146 -0.1053  0.0177 -0.0766
  240POPC   D2A 3367   0.619   8.566   5.388  0.3946  0.1387 -0.0079
  240POPC   C3A 3368   0.778   8.372   5.724  0.1962  0.0875 -0.4554
  240POPC   C4A 3369   0.957   8.055   5.936 -0.0232  0.0625  0.2072
  240POPC   C1B 3370   1.088   8.490   5.344  0.2622  0.4520  0.3235
  240POPC   C2B 3371   1.259   8.396   5.762 -0.2133 -0.1018 -0.3187
  240POPC   C3B 3372   1.159   8.402   6.203 -0.3553  0.2272  0.0410
  240POPC   C4B 3373   1.293   8.746   6.416 -0.3054  0.0274 -0.2778
  241POPC   NC3 3374   1.198   2.037   3.684 -0.0279 -0.2268 -0.2416
  241POPC   PO4 3375   1.242   2.479   3.837  0.1632 -0.0287  0.3614
  241POPC   GL1 3376   1.228   2.686   4.231 -0.0264  0.0471  0.1651
  241POPC   GL2 3377   1.530   2.754   4.298  0.0483  0.1699  0.1028
  241POPC   C1A 3378   1.352   2.401   4.595  0.1536 -0.3218  0.3104
  241POPC   D2A 3379   1.304   1.993   4.708 -0.0104 -0.2367  0.0084
  241POPC   C3A 3380   1.052   1.811   4.952  0.2755  0.1761  0.2218
  241POPC   C4A 3381   1.009   1.446   5.286  0.1675  0.0012  0.0412
  241POPC   C1B 3382   1.332   3.071   4.543 -0.0220  0.1180 -0.0956
  241POPC   C2B 3383   1.032   3.158   4.820 -0.1659  0.0915 -0.0467
  241POPC   C3B 3384   0.995   3.510   5.084  0.1534 -0.0093  0.1614
  241POPC   C4B 3385   1.156   3.842   5.370  0.0760 -0.2003 -0.2906
  242POPC   NC3 3386   1.785   4.182   4.082  0.2227 -0.1320 -0.1397
  242POPC   PO4 3387   1.777   3.860   4.199  0.1793  0.1857 -0.1947
  242POPC   GL1 3388   1.727   3.858   4.679 -0.0922 -0.0794 -0.2719
  242POPC   GL2 3389   1.958   3.935   4.836 -0.3467  0.2436  0.0550
  242POPC   C1A 3390   1.553   4.076   5.066 -0.0632  0.2128  0.1795
  242POPC   D2A 3391   1.605   3.970   5.561 -0.2716 -0.1831 -0.1318
  242POPC   C3A 3392   1.233   3.799   5.920  0.4163  0.1353  0.1335
  242POPC   C4A 3393   1.165   3.364   6.155 -0.4210  0.0910 -0.2452
  242POPC   C1B 3394   2.000   3.822   5.324 -0.0401 -0.1994 -0.1625
  242POPC   C2B 3395   2.046   3.712   5.719 -0.0009  0.1310  0.0382
  242POPC   C3B 3396   1.981   3.946   6.079 -0.0971 -0.1592  0.1967
  242POPC   C4B 3397   1.578   4.045   6.197  0.0667  0.2024 -0.3372
  243POPC   NC3 3398   1.239   3.821   3.424 -0.0532  0.0501  0.0898
  243POPC   PO4 3399   0.902   3.745   3.549  0.1998 -0.3563 -0.1118
  243POPC   GL1 3400   0.692   3.738   4.025 -0.1455  0.0709  0.0331
  243POPC   GL2 3401   0.598   3.427   4.215 -0.2692 -0.2550 -0.1396
  243POPC   C1A 3402   0.518   3.913   4.360  0.1277  0.0549  0.0518
  243POPC   D2A 3403   0.147   4.169   4.645 -0.0727 -0.0406  0.1752
  243POPC   C3A 3404   0.203   3.989   5.000 -0.1936  0.2600  0.0550
  243POPC   C4A 3405   0.263   4.094   5.420  0.0949 -0.3384 -0.2104
  243POPC   C1B 3406   0.909   3.104   4.306  0.0971 -0.0532 -0.2846
  243POPC   C2B 3407   0.880   2.689   4.558  0.0311  0.1246 -0.0535
  243POPC   C3B 3408   0.946   2.325   4.768 -0.1772  0.2102 -0.2872
  243POPC   C4B 3409   0.757   1.988   4.585  0.0006  0.3049  0.0690
  244POPC   NC3 3410   7.600   6.551   4.069  0.3682  0.1283 -0.3618
  244POPC   PO4 3411   7.982   6.588   3.856 -0.1130  0.2120 -0.1341
  244POPC   GL1 3412   8.272   6.339   4.332 -0.0507 -0.0125 -0.1270
  244POPC   GL2 3413   8.303   6.582   4.521  0.4745 -0.1512 -0.2165
  244POPC   C1A 3414   8.312   6.118   4.812 -0.0831  0.2590 -0.0245
  244POPC   D2A 3415   8.254   6.330   5.171  0.0110 -0.3109 -0.0532
  244POPC   C3A 3416   8.210   6.147   5.592 -0.1499 -0.2745  0.2085
  244POPC   C4A 3417   8.147   5.916   5.932 -0.1713  0.0234  0.5299
  244POPC   C1B 3418   8.261   6.785   4.951  0.1927 -0.1774  0.0277
  244POPC   C2B 3419   7.955   7.155   5.087 -0.2011  0.0029 -0.0269
  244POPC   C3B 3420   7.819   7.347   5.517  0.2711  0.0907 -0.2969
  244POPC   C4B 3421   7.535   7.733   5.539  0.0685 -0.0453 -0.1249
  245POPC   NC3 3422   2.024   1.555   4.057  0.0727  0.1129 -0.1641
  245POPC   PO4 3423   1.532   1.501   4.054  0.1435  0.0145 -0.2402
  245POPC   GL1 3424   1.724   1.719   4.468 -0.0654  0.2465 -0.0083
  245POPC   GL2 3425   2.055   1.760   4.462  0.1019 -0.1476 -0.1949
  245POPC   C1A 3426   1.593   1.546   4.800  0.0138  0.4142  0.1072
  245POPC   D2A 3427   1.515   1.851   5.138  0.0776 -0.0503 -0.4254
  245POPC   C3A 3428   1.406   1.556   5.532 -0.1939 -0.2081 -0.0076
  245POPC   C4A 3429   1.231   1.190   5.713  0.1061  0.1606  0.1836
  245POPC   C1B 3430   2.015   1.784   4.895  0.1644 -0.0307  0.0325
  245POPC   C2B 3431   1.978   1.988   5.161  0.0347  0.4362 -0.4397
  245POPC   C3B 3432   2.163   2.121   5.519  0.2208 -0.1540 -0.3770
  245POPC   C4B 3433   2.553   2.420   5.624 -0.1879 -0.1764 -0.0495
  246POPC   NC3 3434   2.180   9.773   3.750  0.4233  0.0072 -0.2827
  246POPC   PO4 3435   2.052   9.634   4.094  0.1250  0.0142  0.4956
  246POPC   GL1 3436   2.177   9.851   4.369 -0.4301  0.1466  0.0963
  246POPC   GL2 3437   2.444  10.018   4.327 -0.0836 -0.0000  0.1202
  246POPC   C1A 3438   2.177   9.979   4.900  0.1643 -0.4441  0.1035
  246POPC   D2A 3439   1.914  10.234   5.305  0.0492 -0.0587  0.1276
  246POPC   C3A 3440   1.715  10.178   5.652  0.1018 -0.2055  0.1707
  246POPC   C4A 3441   1.603  10.374   6.074 -0.2878  0.2792 -0.2367
  246POPC   C1B 3442   2.671   9.979   4.675 -0.0643  0.1433 -0.1346
  246POPC   C2B 3443   2.588   9.674   5.065 -0.1008 -0.1066  0.3545
  246POPC   C3B 3444   2.408   9.444   5.442 -0.0341  0.0926  0.3832
  246POPC   C4B 3445   2.631   9.353   5.740 -0.0380 -0.0091 -0.1628
  247POPC   NC3 3446   5.382   8.880   4.351 -0.1479 -0.4672 -0.0732
  247POPC   PO4 3447   4.948   8.713   4.351 -0.3915  0.0921  0.0567
  247POPC   GL1 3448   5.008   8.931   4.789  0.1544  0.1051 -0.3379
  247POPC   GL2 3449   5.279   9.172   4.833  0.2502 -0.0756  0.1750
  247POPC   C1A 3450   4.951   9.078   5.209 -0.1032  0.2105  0.0741
  247POPC   D2A 3451   5.196   9.386   5.649 -0.1147 -0.0853  0.2557
  247POPC   C3A 3452   5.475   9.171   5.924  0.0058 -0.1808  0.0662
  247POPC   C4A 3453   5.778   9.104   6.225 -0.1871  0.0346  0.0137
  247POPC   C1B 3454   5.463   9.183   5.183 -0.0005  0.1353  0.1265
  247POPC   C2B 3455   5.742   9.286   5.494  0.0637 -0.3158  0.3083
  247POPC   C3B 3456   6.055   9.372   5.844 -0.0433 -0.1800  0.0410
  247POPC   C4B 3457   6.296   9.394   6.223 -0.2966  0.0350 -0.1506
  248POPC   NC3 3458   1.013   6.577   4.819 -0.4039 -0.1096 -0.0717
  248POPC   PO4 3459   1.145   7.002   4.491  0.1053 -0.1716  0.0252
  248POPC   GL1 3460   0.933   7.162   4.888  0.2073  0.0741  0.1512
  248POPC   GL2 3461   1.154   7.005   5.124 -0.0004  0.0510  0.1730
  248POPC   C1A 3462   0.636   7.266   5.158  0.1177  0.1733  0.1969
  248POPC   D2A 3463   0.479   7.154   5.559 -0.1355 -0.1992  0.0715
  248POPC   C3A 3464   0.564   7.376   5.937  0.0823 -0.0455  0.2305
  248POPC   C4A 3465   0.696   7.694   6.169 -0.0393 -0.0157 -0.0766
  248POPC   C1B 3466   0.939   7.043   5.443  0.0621  0.1058  0.0845
  248POPC   C2B 3467   0.760   6.835   5.907 -0.4531  0.0411  0.2664
  248POPC   C3B 3468   0.961   6.583   6.388  0.1420  0.0110  0.3056
  248POPC   C4B 3469   1.150   6.222   6.339  0.0526 -0.1478  0.3358
  249POPC   NC3 3470   5.920   6.851   4.539  0.2970  0.0173 -0.0965
  249POPC   PO4 3471   5.766   6.516   4.702  0.1676 -0.1621  0.2014
  249POPC   GL1 3472   5.691   6.739   5.048 -0.2380 -0.1940  0.0084
  249POPC   GL2 3473   5.578   7.082   4.836  0.1575 -0.0563 -0.1714
  249POPC   C1A 3474   5.406   6.748   5.378 -0.1776 -0.0545 -0.0585
  249POPC   D2A 3475   5.427   6.812   5.819 -0.1363  0.0226 -0.0365
  249POPC   C3A 3476   5.270   6.609   6.162 -0.5063 -0.1085 -0.0486
  249POPC   C4A 3477   5.207   6.721   6.594  0.0797 -0.0079 -0.3843
  249POPC   C1B 3478   5.771   7.319   5.157 -0.1271  0.1258 -0.0156
  249POPC   C2B 3479   5.998   7.472   5.405 -0.0150  0.2865 -0.4729
  249POPC   C3B 3480   6.336   7.741   5.502 -0.1213 -0.0708  0.1824
  249POPC   C4B 3481   6.549   8.125   5.347 -0.0231 -0.2259 -0.0202
  250POPC   NC3 3482   2.362   2.538   3.963 -0.1636  0.1682  0.1053
  250POPC   PO4 3483   2.758   2.331   3.874  0.1546  0.1269  0.2747
  250POPC   GL1 3484   2.737   2.437   4.307  0.0004 -0.0259 -0.1193
  250POPC   GL2 3485   2.483   2.687   4.486 -0.0544  0.1431 -0.2221
  250POPC   C1A 3486   2.874   2.418   4.728  0.0555  0.1920  0.1451
  250POPC   D2A 3487   2.709   2.339   5.126 -0.1371 -0.0554 -0.0786
  250POPC   C3A 3488   2.506   1.910   5.201  0.1405 -0.2245 -0.0027
  250POPC   C4A 3489   2.267   1.638   5.371 -0.2026 -0.0113  0.2419
  250POPC   C1B 3490   2.302   2.915   4.751  0.2760 -0.0152 -0.0219
  250POPC   C2B 3491   2.005   3.032   5.146 -0.3307  0.1100  0.2191
  250POPC   C3B 3492   1.799   3.059   5.435 -0.2001 -0.4213 -0.0580
  250POPC   C4B 3493   1.540   3.078   5.881  0.0659  0.1995 -0.0963
  251POPC   NC3 3494   4.108   7.892   4.279 -0.1803 -0.0358  0.0716
  251POPC   PO4 3495   4.315   7.590   4.618 -0.1501 -0.0935  0.0032
  251POPC   GL1 3496   4.141   7.599   4.969  0.0832  0.1538  0.0569
  251POPC   GL2 3497   3.743   7.642   5.083 -0.1665  0.1582 -0.2020
  251POPC   C1A 3498   4.358   7.625   5.460  0.0888  0.1088 -0.1432
  251POPC   D2A 3499   4.439   7.657   5.861  0.1200 -0.5236  0.0599
  251POPC   C3A 3500   4.965   7.702   5.955  0.1105  0.0087 -0.1103
  251POPC   C4A 3501   5.218   7.754   5.647 -0.0763 -0.0698  0.1927
  251POPC   C1B 3502   3.802   7.636   5.507  0.1358 -0.1602  0.0467
  251POPC   C2B 3503   3.920   7.643   5.890 -0.0743 -0.0740  0.2218
  251POPC   C3B 3504   4.214   7.765   6.338  0.1981 -0.0467  0.3332
  251POPC   C4B 3505   4.434   7.770   6.670 -0.0370 -0.0477 -0.0346
  252POPC   NC3 3506   2.685   0.643   3.897 -0.1160 -0.1520 -0.0575
  252POPC   PO4 3507   2.699   0.986   4.322 -0.1876 -0.0818  0.5164
  252POPC   GL1 3508   2.703   1.164   4.745 -0.0673  0.1253  0.1796
  252POPC   GL2 3509   2.476   1.262   4.922  0.2133  0.2668  0.0545
  252POPC   C1A 3510   2.977   1.052   5.146  0.2726  0.1105  0.0191
  252POPC   D2A 3511   3.138   0.829   5.524  0.2518  0.3828 -0.1924
  252POPC   C3A 3512   3.040   0.500   5.759  0.0850 -0.0612 -0.0139
  252POPC   C4A 3513   2.683   0.469   6.083  0.0986  0.0421 -0.1420
  252POPC   C1B 3514   2.519   1.176   5.387  0.2866 -0.3419  0.2548
  252POPC   C2B 3515   2.711   1.161   5.627 -0.2567 -0.2283  0.0892
  252POPC   C3B 3516   2.590   1.307   6.053  0.2277 -0.3362 -0.1457
  252POPC   C4B 3517   2.165   1.338   6.236 -0.0659 -0.0527 -0.1326
  253POPC   NC3 3518   4.869   9.256   4.308 -0.0483  0.1557 -0.4072
  253POPC   PO4 3519   4.698   9.679   4.122  0.3268  0.0532 -0.0037
  253POPC   GL1 3520   4.580   9.557   4.626 -0.2475  0.0876 -0.2665
  253POPC   GL2 3521   4.748   9.366   4.834  0.2355  0.2456 -0.3232
  253POPC   C1A 3522   4.381   9.656   5.012 -0.1940  0.1239  0.3481
  253POPC   D2A 3523   4.300   9.676   5.490 -0.2991 -0.1427  0.2601
  253POPC   C3A 3524   4.482   9.875   5.864  0.3510 -0.2511 -0.0025
  253POPC   C4A 3525   4.285   9.919   6.132 -0.0663  0.1268 -0.1222
  253POPC   C1B 3526   4.929   9.558   5.228  0.4454  0.2249 -0.0007
  253POPC   C2B 3527   4.758   9.574   5.520  0.1176  0.1188 -0.0280
  253POPC   C3B 3528   4.805   9.438   5.946  0.2315 -0.3037 -0.0505
  253POPC   C4B 3529   5.109   9.212   6.229  0.3947 -0.3841 -0.0553
  254POPC   NC3 3530   9.383   9.778   3.741  0.0794 -0.2017  0.1484
  254POPC   PO4 3531   9.548   9.484   3.935  0.6184 -0.0313 -0.1519
  254POPC   GL1 3532   9.339   9.267   4.252  0.0919 -0.0996 -0.1966
  254POPC   GL2 3533   8.922   9.274   4.293  0.0826 -0.2010 -0.0267
  254POPC   C1A 3534   9.369   8.899   4.504 -0.0843 -0.2181  0.0396
  254POPC   D2A 3535   9.534   8.758   4.874  0.0790 -0.0830  0.1704
  254POPC   C3A 3536   9.536   8.834   5.207 -0.0041  0.1413 -0.1572
  254POPC   C4A 3537   9.420   8.979   5.530 -0.2528 -0.0901  0.4166
  254POPC   C1B 3538   8.865   8.975   4.650  0.2154  0.0442 -0.3098
  254POPC   C2B 3539   8.659   9.059   5.040 -0.2070  0.2647 -0.1222
  254POPC   C3B 3540   8.588   9.360   5.424 -0.0631 -0.0117 -0.2146
  254POPC   C4B 3541   8.199   9.502   5.525  0.1019 -0.0414  0.2355
  255POPC   NC3 3542   9.555   5.153   3.712 -0.0786 -0.1928  0.0057
  255POPC   PO4 3543   9.324   5.430   3.836  0.0526 -0.0781 -0.1093
  255POPC   GL1 3544   9.187   5.389   4.301 -0.0218 -0.0089  0.1276
  255POPC   GL2 3545   8.982   5.570   4.298  0.0800 -0.2215 -0.4992
  255POPC   C1A 3546   9.198   5.218   4.661 -0.2897  0.0942  0.2382
  255POPC   D2A 3547   9.418   5.018   5.028 -0.1359 -0.0101  0.1962
  255POPC   C3A 3548   9.311   5.289   5.357  0.1327  0.2688 -0.0021
  255POPC   C4A 3549   9.142   5.395   5.786 -0.2907 -0.0848 -0.1890
  255POPC   C1B 3550   9.062   5.724   4.666 -0.1824  0.0824 -0.1081
  255POPC   C2B 3551   9.152   5.801   5.045  0.0963  0.1075 -0.0550
  255POPC   C3B 3552   9.266   5.765   5.467  0.2261  0.1460  0.2762
  255POPC   C4B 3553   9.613   5.577   5.670 -0.1088  0.1944 -0.0269
  256POPC   NC3 3554   8.738   7.461   3.622  0.0268  0.1914 -0.2228
  256POPC   PO4 3555   8.744   7.087   3.902  0.0503 -0.0500 -0.2840
  256POPC   GL1 3556   8.936   7.303   4.237 -0.1510  0.0689  0.1630
  256POPC   GL2 3557   9.149   7.119   4.289 -0.2310 -0.1933 -0.0061
  256POPC   C1A 3558   8.763   7.438   4.646 -0.0038  0.0524  0.2440
  256POPC   D2A 3559   8.818   7.579   5.039  0.0058  0.0936 -0.1613
  256POPC   C3A 3560   8.907   7.205   5.387  0.0502  0.1030 -0.1702
  256POPC   C4A 3561   9.072   6.749   5.498 -0.0937 -0.3817  0.2665
  256POPC   C1B 3562   9.271   7.247   4.732 -0.0947  0.0495  0.0560
  256POPC   C2B 3563   9.293   7.445   5.140 -0.3078  0.1806 -0.2527
  256POPC   C3B 3564   9.403   7.386   5.585  0.2575 -0.2801 -0.3471
  256POPC   C4B 3565   9.112   7.370   5.907 -0.1204  0.0496 -0.3534
  257POPC   NC3 3566   4.381   0.051   4.315 -0.0771  0.1013  0.0843
  257POPC   PO4 3567   3.911   0.042   4.323 -0.0023  0.0753 -0.2203
  257POPC   GL1 3568   4.120   0.032   4.693 -0.0219 -0.2101  0.0028
  257POPC   GL2 3569   3.943  -0.096   4.871 -0.2604  0.0657  0.2137
  257POPC   C1A 3570   4.430  -0.112   4.941  0.1032  0.1882  0.2804
  257POPC   D2A 3571   4.847  -0.284   5.145 -0.1993 -0.4440 -0.1883
  257POPC   C3A 3572   4.843  -0.708   5.429 -0.0242  0.1665 -0.0078
  257POPC   C4A 3573   5.120  -0.855   5.668  0.1005  0.0426  0.1829
  257POPC   C1B 3574   3.883  -0.375   5.190 -0.1110 -0.3788 -0.1966
  257POPC   C2B 3575   4.014  -0.661   5.514 -0.0999  0.1010  0.2457
  257POPC   C3B 3576   3.787  -0.796   5.848  0.1626  0.1744 -0.0591
  257POPC   C4B 3577   3.676  -0.761   6.305 -0.0859 -0.0779 -0.2474
  258POPC   NC3 3578  10.553   7.464   3.890 -0.0466 -0.5302 -0.0189
  258POPC   PO4 3579  10.405   7.067   3.902 -0.2508  0.1933 -0.2017
  258POPC   GL1 3580  10.417   7.177   4.267  0.0014 -0.0816 -0.1852
  258POPC   GL2 3581  10.724   7.373   4.481  0.4269  0.0359 -0.2073
  258POPC   C1A 3582  10.395   7.132   4.728 -0.1777  0.2592  0.1370
  258POPC   D2A 3583  10.271   7.059   5.173 -0.4771 -0.0725 -0.0242
  258POPC   C3A 3584  10.268   7.447   5.489 -0.1974 -0.0963  0.0532
  258POPC   C4A 3585  10.600   7.708   5.667 -0.0202 -0.1255  0.3602
  258POPC   C1B 3586  10.560   7.589   4.866  0.0631 -0.0996 -0.0199
  258POPC   C2B 3587  10.435   7.856   5.136 -0.0140  0.1125  0.2973
  258POPC   C3B 3588  10.115   7.966   5.317 -0.0481 -0.1871 -0.1592
  258POPC   C4B 3589   9.975   8.188   5.753 -0.0585 -0.3067 -0.0908
  259POPC   NC3 3590   2.909   7.689   4.627  0.0347 -0.1992 -0.1016
  259POPC   PO4 3591   3.270   7.575   4.586 -0.4624 -0.0529 -0.0932
  259POPC   GL1 3592   3.286   7.879   4.931 -0.1050 -0.2251  0.0096
  259POPC   GL2 3593   3.021   7.910   5.062  0.1492 -0.0922 -0.1378
  259POPC   C1A 3594   3.542   8.045   5.269 -0.2731 -0.1962 -0.1760
  259POPC   D2A 3595   3.480   8.212   5.688  0.0981 -0.0086  0.0359
  259POPC   C3A 3596   3.141   8.177   5.983 -0.2955  0.1936 -0.2572
  259POPC   C4A 3597   2.955   7.749   6.272  0.0543 -0.0685 -0.0007
  259POPC   C1B 3598   3.050   8.160   5.388 -0.0277 -0.2363 -0.2408
  259POPC   C2B 3599   2.908   8.489   5.724  0.3052 -0.2363  0.1533
  259POPC   C3B 3600   2.830   8.634   6.121 -0.1665  0.2590  0.3989
  259POPC   C4B 3601   2.665   8.660   6.555 -0.2822  0.0856  0.1328
  260POPC   NC3 3602   1.691   2.458   3.955 -0.3230  0.0624  0.1558
  260POPC   PO4 3603   1.967   2.168   4.157  0.1278 -0.0425  0.0022
  260POPC   GL1 3604   1.988   2.416   4.442 -0.2656 -0.0568 -0.2833
  260POPC   GL2 3605   1.792   2.219   4.635 -0.0879 -0.0127  0.0279
  260POPC   C1A 3606   1.859   2.687   4.712 -0.1201  0.2416 -0.0095
  260POPC   D2A 3607   1.542   2.774   4.966  0.0626 -0.0730 -0.1635
  260POPC   C3A 3608   1.373   3.029   5.250  0.3747 -0.0825 -0.1083
  260POPC   C4A 3609   1.054   3.250   5.533 -0.0336 -0.2317 -0.0372
  260POPC   C1B 3610   1.691   2.264   4.913  0.2541 -0.1147  0.0011
  260POPC   C2B 3611   1.331   2.326   5.097 -0.0390  0.0345 -0.0980
  260POPC   C3B 3612   0.990   2.680   5.095  0.0722 -0.2714  0.1221
  260POPC   C4B 3613   0.524   2.647   4.960  0.0643 -0.1652 -0.0709
  261POPC   NC3 3614   3.077   6.099   4.639  0.0987 -0.1464  0.4095
  261POPC   PO4 3615   3.586   6.241   4.691  0.3139  0.0740  0.0471
  261POPC   GL1 3616   3.628   6.063   5.027  0.0344 -0.0715 -0.1264
  261POPC   GL2 3617   3.775   5.760   4.953 -0.0494 -0.0984 -0.1859
  261POPC   C1A 3618   3.922   6.107   5.343 -0.1221  0.1766  0.0008
  261POPC   D2A 3619   4.057   6.259   5.834 -0.0091 -0.0904  0.0322
  261POPC   C3A 3620   4.420   5.962   5.834 -0.1594  0.0713 -0.3891
  261POPC   C4A 3621   4.711   5.694   6.168  0.6129 -0.0866 -0.1298
  261POPC   C1B 3622   4.128   5.712   5.211 -0.0163 -0.3019  0.0223
  261POPC   C2B 3623   4.224   5.522   5.622  0.0035 -0.2092 -0.1915
  261POPC   C3B 3624   4.138   5.605   6.163  0.2510  0.0498  0.0170
  261POPC   C4B 3625   4.367   5.761   6.522  0.0778 -0.0981 -0.1965
  262POPC   NC3 3626   5.997   3.829   4.011  0.1359  0.0801  0.0284
  262POPC   PO4 3627   6.496   3.632   3.961 -0.1600 -0.0277 -0.2513
  262POPC   GL1 3628   6.542   3.550   4.418  0.0537 -0.0840  0.0050
  262POPC   GL2 3629   6.424   3.851   4.522  0.0880  0.0252 -0.3578
  262POPC   C1A 3630   6.191   3.312   4.705  0.4265  0.2015 -0.1088
  262POPC   D2A 3631   5.703   3.475   4.788 -0.1097 -0.0420  0.0842
  262POPC   C3A 3632   5.728   3.523   5.167  0.3749 -0.0505 -0.0358
  262POPC   C4A 3633   5.998   3.811   5.479 -0.0173  0.1278 -0.2568
  262POPC   C1B 3634   6.716   3.773   4.918 -0.1128  0.1146  0.1116
  262POPC   C2B 3635   6.538   4.059   5.336 -0.1115 -0.1117  0.0273
  262POPC   C3B 3636   6.504   4.491   5.564  0.2673  0.0029  0.0346
  262POPC   C4B 3637   6.797   4.850   5.770  0.2047 -0.1611  0.2818
  263POPC   NC3 3638   7.104   1.540   4.126 -0.0497 -0.0802 -0.0931
  263POPC   PO4 3639   7.444   1.361   4.029  0.0868  0.0890 -0.0199
  263POPC   GL1 3640   7.442   1.303   4.419 -0.2178 -0.0049 -0.1273
  263POPC   GL2 3641   7.807   1.081   4.467  0.0132 -0.2147 -0.3046
  263POPC   C1A 3642   7.335   1.330   5.013 -0.2140 -0.1086 -0.2280
  263POPC   D2A 3643   7.290   1.425   5.489  0.0538  0.0877 -0.1684
  263POPC   C3A 3644   7.262   1.735   5.686 -0.1789  0.1995 -0.0542
  263POPC   C4A 3645   7.330   1.886   6.112  0.0141 -0.1299  0.1171
  263POPC   C1B 3646   7.672   0.924   4.842  0.1709  0.1210 -0.0199
  263POPC   C2B 3647   7.292   0.790   5.015  0.3596  0.3523 -0.1626
  263POPC   C3B 3648   6.981   0.454   5.022  0.1570  0.0658 -0.0252
  263POPC   C4B 3649   6.742   0.329   5.374  0.0812 -0.0725 -0.0287
  264POPC   NC3 3650   2.143   0.592   3.827  0.2082 -0.2052  0.1551
  264POPC   PO4 3651   1.858   0.452   4.100 -0.1523 -0.1797 -0.2270
  264POPC   GL1 3652   1.939   0.412   4.543  0.1130 -0.3806  0.3029
  264POPC   GL2 3653   1.837   0.090   4.590  0.0266 -0.0347  0.2380
  264POPC   C1A 3654   1.931   0.620   4.915 -0.1203  0.5076 -0.1815
  264POPC   D2A 3655   1.748   0.768   5.254  0.0370  0.0993  0.0071
  264POPC   C3A 3656   2.087   0.877   5.445 -0.1478  0.2569  0.3330
  264POPC   C4A 3657   2.173   1.265   5.753 -0.2340  0.2342  0.0939
  264POPC   C1B 3658   1.661   0.151   4.948 -0.1601  0.1631  0.4349
  264POPC   C2B 3659   1.695   0.326   5.444  0.0589  0.0112  0.0513
  264POPC   C3B 3660   1.818   0.643   5.768 -0.2706 -0.0199  0.0254
  264POPC   C4B 3661   1.945   0.872   6.109 -0.1661  0.1154 -0.1500
  265POPC   NC3 3662   1.633   3.531   3.768  0.0815 -0.0040 -0.0032
  265POPC   PO4 3663   2.045   3.334   3.891 -0.1455  0.1551 -0.3288
  265POPC   GL1 3664   1.818   3.268   4.211 -0.0042 -0.2932 -0.4400
  265POPC   GL2 3665   1.510   3.414   4.285  0.1950  0.0288  0.1645
  265POPC   C1A 3666   1.850   3.245   4.724 -0.2526 -0.1965 -0.2096
  265POPC   D2A 3667   2.114   3.467   5.002  0.1696  0.0525  0.0907
  265POPC   C3A 3668   2.248   3.350   5.471  0.2188  0.0524  0.3117
  265POPC   C4A 3669   2.019   3.249   5.938 -0.0225  0.4476  0.0615
  265POPC   C1B 3670   1.416   3.478   4.801 -0.1893  0.0790 -0.0225
  265POPC   C2B 3671   1.552   3.544   5.250  0.0690  0.3357  0.1044
  265POPC   C3B 3672   1.502   3.505   5.634 -0.0969  0.1188  0.1725
  265POPC   C4B 3673   1.643   3.556   6.120 -0.0653 -0.4313  0.0751
  266POPC   NC3 3674   3.367   0.279   4.440  0.2159 -0.2745 -0.0831
  266POPC   PO4 3675   2.864   0.289   4.273 -0.2228  0.1308  0.1225
  266POPC   GL1 3676   2.931   0.407   4.736 -0.1890 -0.2137 -0.0997
  266POPC   GL2 3677   2.878   0.663   4.728 -0.0303 -0.0542 -0.1550
  266POPC   C1A 3678   2.923   0.344   5.234 -0.1991  0.2171  0.1791
  266POPC   D2A 3679   3.332   0.293   5.411 -0.0887  0.0923 -0.3723
  266POPC   C3A 3680   3.578   0.345   5.798  0.3025 -0.0456 -0.2093
  266POPC   C4A 3681   3.684   0.478   6.298 -0.3215 -0.2328 -0.2292
  266POPC   C1B 3682   2.580   0.791   5.079  0.0976 -0.0730  0.3870
  266POPC   C2B 3683   2.634   0.690   5.543  0.2322  0.0636 -0.1279
  266POPC   C3B 3684   2.369   0.810   5.939 -0.1536 -0.1902 -0.1681
  266POPC   C4B 3685   2.383   0.914   6.424 -0.0986 -0.0539 -0.0489
  267POPC   NC3 3686   7.936   6.071   3.943  0.0017  0.0993  0.0376
  267POPC   PO4 3687   8.173   5.715   3.761  0.0910  0.1559  0.3913
  267POPC   GL1 3688   8.139   5.801   4.298  0.2045 -0.4756  0.2430
  267POPC   GL2 3689   7.845   5.674   4.410 -0.0570  0.2065 -0.1971
  267POPC   C1A 3690   8.395   5.604   4.553  0.2663  0.0098  0.3085
  267POPC   D2A 3691   8.668   5.349   4.656 -0.2247  0.0065 -0.0673
  267POPC   C3A 3692   8.897   5.342   5.099  0.0750 -0.2283 -0.0789
  267POPC   C4A 3693   8.811   5.527   5.465 -0.3960  0.1925  0.1387
  267POPC   C1B 3694   7.873   5.746   4.792 -0.1099  0.0062  0.0302
  267POPC   C2B 3695   7.765   6.115   5.050  0.1247  0.1865  0.2412
  267POPC   C3B 3696   7.544   6.404   5.157  0.4587 -0.0686  0.0932
  267POPC   C4B 3697   7.358   6.386   5.599  0.3394  0.3104  0.1570
  268POPC   NC3 3698   0.179   8.910   3.528  0.3253  0.2710  0.1685
  268POPC   PO4 3699   0.428   8.779   3.864  0.0989 -0.0162 -0.1077
  268POPC   GL1 3700   0.366   8.822   4.306 -0.0040 -0.1623 -0.0958
  268POPC   GL2 3701   0.102   8.733   4.455  0.0592  0.2290  0.3812
  268POPC   C1A 3702   0.475   9.145   4.656 -0.0972 -0.1098 -0.0912
  268POPC   D2A 3703   0.626   9.618   4.658  0.0098  0.1555  0.3371
  268POPC   C3A 3704   0.912   9.767   5.012 -0.1434 -0.2154 -0.0466
  268POPC   C4A 3705   1.179   9.648   5.149 -0.1465  0.2254 -0.3961
  268POPC   C1B 3706  -0.036   8.768   4.852  0.1260 -0.2122 -0.3089
  268POPC   C2B 3707  -0.015   8.784   5.320 -0.1445 -0.1449  0.0636
  268POPC   C3B 3708   0.312   9.083   5.302 -0.0047  0.0287 -0.1090
  268POPC   C4B 3709   0.247   9.419   5.053  0.0836 -0.1096 -0.2232
  269POPC   NC3 3710   5.873   8.098   3.980  0.1138  0.1890  0.0710
  269POPC   PO4 3711   5.432   7.951   4.292  0.0700  0.0252  0.2582
  269POPC   GL1 3712   5.431   8.148   4.680  0.2003 -0.0382  0.0607
  269POPC   GL2 3713   5.374   8.514   4.642  0.1213  0.1764 -0.1226
  269POPC   C1A 3714   5.701   8.270   5.037 -0.1072  0.0455 -0.1644
  269POPC   D2A 3715   5.978   8.122   5.374 -0.0720  0.2060 -0.0289
  269POPC   C3A 3716   6.286   8.511   5.623 -0.1879 -0.0518 -0.0727
  269POPC   C4A 3717   6.276   8.814   6.029  0.0490 -0.0591  0.1204
  269POPC   C1B 3718   5.351   8.716   5.050  0.1304  0.3014 -0.0062
  269POPC   C2B 3719   5.316   8.864   5.527 -0.4012 -0.1659 -0.0530
  269POPC   C3B 3720   5.038   8.879   5.720  0.0439 -0.1943  0.0943
  269POPC   C4B 3721   4.650   8.999   5.759  0.1282 -0.2711 -0.2173
  270POPC   NC3 3722  10.728   2.808   3.266 -0.2501 -0.0311 -0.0538
  270POPC   PO4 3723  11.098   2.933   3.475  0.1387 -0.0541  0.0259
  270POPC   GL1 3724  10.783   3.152   3.713  0.0756  0.0120 -0.0149
  270POPC   GL2 3725  10.472   3.075   3.671 -0.2578 -0.3806  0.1714
  270POPC   C1A 3726  10.808   3.157   4.158 -0.0703  0.0692 -0.0232
  270POPC   D2A 3727  10.596   3.071   4.593  0.1004  0.1168 -0.3332
  270POPC   C3A 3728  10.762   3.359   4.906  0.2785  0.3327 -0.0794
  270POPC   C4A 3729  10.785   3.224   5.374 -0.1099 -0.1194 -0.1019
  270POPC   C1B 3730  10.501   2.699   4.100  0.0081 -0.2534  0.0835
  270POPC   C2B 3731  10.615   2.324   4.404 -0.1256 -0.2304  0.1345
  270POPC   C3B 3732  10.770   2.545   4.788 -0.0894 -0.1344  0.2266
  270POPC   C4B 3733  10.847   2.910   5.040  0.1990  0.2428  0.3143
  271POPC   NC3 3734   5.947   5.098   4.244  0.1958 -0.0786 -0.6032
  271POPC   PO4 3735   6.156   4.741   4.286 -0.0179 -0.2091  0.4494
  271POPC   GL1 3736   6.409   4.605   4.640 -0.0267  0.2328 -0.0057
  271POPC   GL2 3737   6.347   4.304   4.762  0.2342  0.1051 -0.2214
  271POPC   C1A 3738   6.693   4.643   5.008  0.0005  0.1354  0.0205
  271POPC   D2A 3739   7.026   4.520   5.319  0.3456 -0.3494 -0.1444
  271POPC   C3A 3740   7.248   4.532   5.725 -0.1550 -0.0089  0.0495
  271POPC   C4A 3741   7.440   4.749   6.160 -0.4724  0.0728 -0.1689
  271POPC   C1B 3742   6.157   4.450   5.187  0.1368 -0.3550  0.0929
  271POPC   C2B 3743   5.915   4.709   5.330 -0.0283 -0.2192  0.3063
  271POPC   C3B 3744   5.680   4.722   5.738  0.1891  0.2291  0.1882
  271POPC   C4B 3745   5.545   4.366   6.025  0.1298 -0.0404  0.1369
  272POPC   NC3 3746   7.104   9.764   3.286  0.0497  0.0779  0.0184
  272POPC   PO4 3747   7.230   9.609   3.759  0.1664 -0.1294 -0.1321
  272POPC   GL1 3748   7.223   9.605   4.190  0.0966  0.0361  0.1676
  272POPC   GL2 3749   7.006   9.897   4.383 -0.0799 -0.1547 -0.2453
  272POPC   C1A 3750   7.358   9.642   4.616 -0.1197 -0.2179 -0.0268
  272POPC   D2A 3751   7.185   9.594   5.115 -0.0607 -0.1225 -0.0853
  272POPC   C3A 3752   6.901   9.835   5.300 -0.0251  0.4971 -0.1007
  272POPC   C4A 3753   6.583  10.041   5.471 -0.1115 -0.2975 -0.4943
  272POPC   C1B 3754   7.286  10.079   4.749  0.2710  0.3112 -0.0763
  272POPC   C2B 3755   7.156  10.247   5.158  0.1854 -0.2045  0.1413
  272POPC   C3B 3756   7.046  10.298   5.662 -0.1337 -0.3096  0.1460
  272POPC   C4B 3757   7.362  10.271   5.946  0.0251  0.2360  0.4907
  273POPC   NC3 3758   2.501   3.653   4.230  0.3820  0.0776  0.0545
  273POPC   PO4 3759   2.715   3.931   4.454 -0.1301 -0.1264 -0.0192
  273POPC   GL1 3760   2.713   3.876   4.846 -0.1450 -0.4394 -0.0131
  273POPC   GL2 3761   2.932   4.178   5.002  0.1084  0.1161  0.0129
  273POPC   C1A 3762   2.755   3.791   5.306 -0.0824 -0.2992  0.4075
  273POPC   D2A 3763   2.769   3.501   5.666  0.2323  0.0982 -0.3582
  273POPC   C3A 3764   2.475   3.584   5.924  0.0795  0.1498  0.1490
  273POPC   C4A 3765   2.245   3.626   6.323 -0.0184  0.3398  0.2009
  273POPC   C1B 3766   2.748   4.364   5.349  0.4535  0.1317  0.0307
  273POPC   C2B 3767   2.982   4.447   5.745 -0.1094  0.2214 -0.2702
  273POPC   C3B 3768   3.333   4.474   6.107 -0.1934 -0.1516 -0.2457
  273POPC   C4B 3769   3.679   4.471   6.458  0.0250 -0.0150  0.0963
  274POPC   NC3 3770   9.023   4.083   3.312 -0.1660 -0.1324 -0.0349
  274POPC   PO4 3771   9.296   4.427   3.561  0.2092 -0.1827  0.3315
  274POPC   GL1 3772   9.309   4.572   3.923 -0.3201  0.0867 -0.1795
  274POPC   GL2 3773   9.363   4.865   4.054 -0.0975  0.2207  0.1333
  274POPC   C1A 3774   9.339   4.427   4.323  0.1250 -0.1071 -0.0841
  274POPC   D2A 3775   9.429   4.101   4.637 -0.0966  0.1804  0.1022
  274POPC   C3A 3776   9.582   4.129   5.103 -0.0273 -0.0633 -0.2614
  274POPC   C4A 3777   9.628   4.130   5.519 -0.1445  0.0257  0.0304
  274POPC   C1B 3778   9.026   4.875   4.288  0.3398  0.0768 -0.1798
  274POPC   C2B 3779   8.950   4.825   4.769  0.0437 -0.0908 -0.0436
  274POPC   C3B 3780   8.972   4.867   5.185  0.1022 -0.1339  0.0202
  274POPC   C4B 3781   8.889   4.940   5.607  0.2630  0.0662  0.4503
  275POPC   NC3 3782   5.422   4.694   4.821  0.3065  0.0013 -0.0561
  275POPC   PO4 3783   5.637   4.650   4.408  0.2262 -0.1905  0.0112
  275POPC   GL1 3784   5.857   4.537   4.778 -0.1995  0.3012 -0.1906
  275POPC   GL2 3785   6.046   4.848   4.802 -0.1787  0.3500 -0.2345
  275POPC   C1A 3786   5.903   4.108   4.919 -0.1275  0.1563 -0.1962
  275POPC   D2A 3787   6.230   3.873   4.974  0.4879 -0.0455 -0.0246
  275POPC   C3A 3788   6.294   3.505   5.153 -0.1328  0.0858  0.1168
  275POPC   C4A 3789   6.534   3.134   5.497  0.2356  0.2238 -0.1584
  275POPC   C1B 3790   6.309   4.964   5.064  0.1742 -0.0540  0.0223
  275POPC   C2B 3791   6.384   5.033   5.408  0.1519 -0.2504 -0.1211
  275POPC   C3B 3792   6.252   4.830   5.843 -0.1433 -0.0062  0.0698
  275POPC   C4B 3793   6.513   4.779   6.281 -0.1200 -0.2171  0.0156
  276POPC   NC3 3794   6.503   5.136   4.107 -0.1647 -0.1026 -0.0318
  276POPC   PO4 3795   7.004   5.209   4.124  0.2942  0.0868 -0.0161
  276POPC   GL1 3796   7.010   5.304   4.564  0.2899  0.0996 -0.0092
  276POPC   GL2 3797   7.149   5.605   4.634  0.0231  0.0853 -0.2031
  276POPC   C1A 3798   7.045   5.092   4.838 -0.0385  0.2475 -0.2826
  276POPC   D2A 3799   6.903   5.007   5.308 -0.1650 -0.1431 -0.3019
  276POPC   C3A 3800   6.738   5.416   5.618 -0.0415 -0.2659 -0.0317
  276POPC   C4A 3801   6.680   5.780   5.852 -0.0538 -0.2786 -0.3153
  276POPC   C1B 3802   7.425   5.726   4.975  0.1530  0.0972 -0.1335
  276POPC   C2B 3803   7.697   5.542   5.287 -0.2307 -0.1733  0.1206
  276POPC   C3B 3804   7.605   5.548   5.752  0.3667  0.1656 -0.0767
  276POPC   C4B 3805   7.558   5.345   6.175  0.1738  0.0741 -0.0527
  277POPC   NC3 3806   5.244   3.348   4.458 -0.0411  0.0974  0.3193
  277POPC   PO4 3807   5.332   3.744   4.569  0.1901  0.2841 -0.3553
  277POPC   GL1 3808   5.423   3.942   4.963 -0.1425  0.0331  0.1593
  277POPC   GL2 3809   5.458   4.215   5.060 -0.3930  0.2569  0.0969
  277POPC   C1A 3810   5.372   3.839   5.426 -0.4704 -0.0506 -0.2628
  277POPC   D2A 3811   5.163   3.928   5.870  0.0501 -0.1226  0.1670
  277POPC   C3A 3812   5.405   3.937   6.313  0.0381 -0.3989 -0.1076
  277POPC   C4A 3813   5.732   3.837   6.442  0.1428  0.4013 -0.1271
  277POPC   C1B 3814   5.717   4.248   5.452  0.0962  0.3003 -0.1708
  277POPC   C2B 3815   6.038   4.310   5.669 -0.1751  0.1017 -0.2368
  277POPC   C3B 3816   6.382   4.311   6.032 -0.1605  0.0396  0.3013
  277POPC   C4B 3817   6.642   3.932   6.252 -0.2155  0.2366 -0.0794
  278POPC   NC3 3818  10.364   4.926   3.600 -0.0463 -0.0501 -0.0388
  278POPC   PO4 3819  10.113   5.176   3.808 -0.2990  0.1722  0.1986
  278POPC   GL1 3820  10.097   5.086   4.319  0.0155  0.1651  0.2029
  278POPC   GL2 3821   9.820   4.863   4.210 -0.1780  0.1118  0.0098
  278POPC   C1A 3822  10.048   5.116   4.773  0.0774  0.2910  0.0446
  278POPC   D2A 3823  10.103   4.990   5.212 -0.0554  0.1757 -0.2135
  278POPC   C3A 3824   9.767   4.998   5.440  0.1674 -0.2907 -0.0457
  278POPC   C4A 3825   9.408   5.019   5.807 -0.0079 -0.2781 -0.1565
  278POPC   C1B 3826   9.564   4.770   4.548 -0.0665 -0.0594  0.2922
  278POPC   C2B 3827   9.418   4.527   4.844 -0.2160  0.2155  0.0477
  278POPC   C3B 3828   9.514   4.584   5.315 -0.0486 -0.0267 -0.1562
  278POPC   C4B 3829   9.459   4.544   5.784 -0.1923  0.2552  0.0970
  279POPC   NC3 3830   3.919   1.310   3.910  0.3372 -0.0127 -0.1667
  279POPC   PO4 3831   3.926   1.100   4.324 -0.3522  0.0930  0.1405
  279POPC   GL1 3832   3.630   1.263   4.597  0.1817  0.0152 -0.2894
  279POPC   GL2 3833   3.807   1.551   4.913 -0.0693  0.2118 -0.0835
  279POPC   C1A 3834   3.462   1.206   5.043 -0.0011  0.0250  0.2612
  279POPC   D2A 3835   3.268   1.288   5.452 -0.0828 -0.0629 -0.1588
  279POPC   C3A 3836   3.112   1.179   5.886 -0.3663 -0.1763  0.4786
  279POPC   C4A 3837   2.837   0.938   6.217 -0.2788  0.1860 -0.1527
  279POPC   C1B 3838   4.096   1.354   5.134  0.3996  0.0467  0.1361
  279POPC   C2B 3839   4.203   1.511   5.535  0.1445 -0.0274  0.0887
  279POPC   C3B 3840   4.446   1.615   5.879 -0.0440  0.1043  0.1271
  279POPC   C4B 3841   4.782   1.822   5.958  0.0628 -0.0068  0.1454
  280POPC   NC3 3842   2.562   7.848   4.031  0.4910  0.0326 -0.0867
  280POPC   PO4 3843   2.424   7.679   4.471  0.1009  0.0932  0.0581
  280POPC   GL1 3844   2.433   7.578   4.913 -0.0521  0.0693  0.2077
  280POPC   GL2 3845   2.459   7.215   5.000 -0.1914 -0.0187 -0.1628
  280POPC   C1A 3846   2.594   7.538   5.340  0.2537  0.1600 -0.3206
  280POPC   D2A 3847   2.421   7.482   5.773 -0.0002 -0.0033 -0.0701
  280POPC   C3A 3848   2.426   7.797   6.068  0.3404  0.3744 -0.0869
  280POPC   C4A 3849   2.604   8.208   6.118  0.2886  0.1956  0.0809
  280POPC   C1B 3850   2.310   7.096   5.350 -0.1300 -0.0405  0.0869
  280POPC   C2B 3851   2.301   7.018   5.799 -0.0254  0.1736  0.0433
  280POPC   C3B 3852   2.439   7.108   6.206 -0.0753  0.0933  0.1390
  280POPC   C4B 3853   2.604   7.441   6.510  0.0813  0.2051 -0.1092
  281POPC   NC3 3854   4.563   4.142   4.437 -0.1180  0.1693 -0.3257
  281POPC   PO4 3855   4.646   4.609   4.394 -0.0636  0.2384  0.1777
  281POPC   GL1 3856   4.559   4.501   4.842  0.2362 -0.1039  0.3200
  281POPC   GL2 3857   4.379   4.774   5.009  0.0043 -0.0091 -0.0486
  281POPC   C1A 3858   4.364   4.271   5.102 -0.1813 -0.0445 -0.1848
  281POPC   D2A 3859   4.626   4.167   5.453 -0.0870  0.2571 -0.2133
  281POPC   C3A 3860   4.675   4.551   5.537 -0.0007 -0.0672  0.0681
  281POPC   C4A 3861   4.795   4.790   5.281  0.3385  0.1296  0.0025
  281POPC   C1B 3862   4.263   4.678   5.373 -0.1368  0.0826  0.0959
  281POPC   C2B 3863   4.192   4.645   5.807  0.3840 -0.3995 -0.3695
  281POPC   C3B 3864   4.125   4.655   6.285  0.3225 -0.2653 -0.0196
  281POPC   C4B 3865   4.083   4.714   6.602  0.1951  0.1837 -0.1307
  282POPC   NC3 3866   8.405   2.337   4.922  0.0595 -0.2815  0.2029
  282POPC   PO4 3867   8.366   1.872   4.798  0.0136  0.1131  0.2195
  282POPC   GL1 3868   8.067   2.013   5.086  0.0232  0.1582 -0.1411
  282POPC   GL2 3869   7.952   2.317   5.121  0.0009  0.2950 -0.1157
  282POPC   C1A 3870   7.957   2.045   5.476 -0.3412  0.1498 -0.2707
  282POPC   D2A 3871   7.731   2.162   5.894 -0.0796  0.0418  0.0939
  282POPC   C3A 3872   7.823   1.871   6.296 -0.0001  0.0485  0.0409
  282POPC   C4A 3873   8.001   1.495   6.424  0.0850 -0.0732  0.1757
  282POPC   C1B 3874   7.768   2.663   5.297  0.1283  0.3819 -0.0314
  282POPC   C2B 3875   7.855   2.998   5.452  0.3106  0.1313 -0.0253
  282POPC   C3B 3876   7.659   3.349   5.643  0.1266  0.0616 -0.1057
  282POPC   C4B 3877   7.534   3.723   5.877 -0.0138  0.1299 -0.2259
  283POPC   NC3 3878   6.205   0.608   4.063  0.0559 -0.0748  0.0058
  283POPC   PO4 3879   6.181   0.338   4.375 -0.2861 -0.3220  0.2713
  283POPC   GL1 3880   6.136   0.300   4.841  0.0789 -0.2140  0.2092
  283POPC   GL2 3881   6.333   0.082   4.907  0.3190 -0.1263  0.0971
  283POPC   C1A 3882   6.312   0.636   5.038  0.0883 -0.0111  0.1252
  283POPC   D2A 3883   6.522   0.821   5.293  0.0422 -0.2759 -0.4794
  283POPC   C3A 3884   6.228   0.984   5.712 -0.0414 -0.1610 -0.0256
  283POPC   C4A 3885   5.876   0.761   5.901 -0.0619 -0.1804 -0.0562
  283POPC   C1B 3886   6.081   0.068   5.246  0.3072 -0.0340  0.1927
  283POPC   C2B 3887   5.687  -0.092   5.530  0.3579 -0.3087 -0.0301
  283POPC   C3B 3888   5.300   0.093   5.841 -0.2009  0.1189  0.0982
  283POPC   C4B 3889   5.071  -0.004   6.133  0.2034 -0.0935 -0.1033
  284POPC   NC3 3890   9.067   8.218   3.914 -0.1734 -0.3416 -0.3014
  284POPC   PO4 3891   8.993   7.788   3.947 -0.1445  0.0180 -0.2830
  284POPC   GL1 3892   8.881   7.909   4.403  0.0619 -0.0838  0.1875
  284POPC   GL2 3893   8.562   7.959   4.491 -0.0365  0.0607 -0.3787
  284POPC   C1A 3894   8.863   8.099   4.910 -0.2359 -0.1850 -0.0537
  284POPC   D2A 3895   8.817   8.193   5.367 -0.3830 -0.2006  0.2812
  284POPC   C3A 3896   8.886   8.649   5.491  0.0324  0.1701  0.1884
  284POPC   C4A 3897   8.918   8.966   5.772 -0.2429 -0.2842  0.1476
  284POPC   C1B 3898   8.355   7.932   4.933 -0.0245 -0.2119  0.2182
  284POPC   C2B 3899   8.405   7.968   5.347  0.0696  0.2032 -0.0630
  284POPC   C3B 3900   8.448   8.171   5.778 -0.0504  0.0381  0.0563
  284POPC   C4B 3901   8.215   8.540   5.857 -0.0701  0.1098 -0.3868
  285POPC   NC3 3902   0.433   6.658   3.847  0.1232 -0.0342 -0.0698
  285POPC   PO4 3903   0.232   6.901   4.263 -0.0157 -0.1404 -0.1996
  285POPC   GL1 3904   0.260   6.844   4.704 -0.1290 -0.1494  0.0085
  285POPC   GL2 3905   0.407   6.645   4.902 -0.3148  0.1457  0.3158
  285POPC   C1A 3906   0.137   7.143   4.968  0.1474  0.0251 -0.0636
  285POPC   D2A 3907   0.061   7.238   5.320  0.1271  0.0374  0.0719
  285POPC   C3A 3908  -0.016   7.234   5.774  0.4079  0.2605  0.2438
  285POPC   C4A 3909  -0.392   7.424   6.029 -0.3067 -0.1237 -0.2618
  285POPC   C1B 3910   0.104   6.733   5.333 -0.1305  0.0511 -0.0568
  285POPC   C2B 3911  -0.117   6.770   5.615 -0.2561  0.1292 -0.0577
  285POPC   C3B 3912  -0.210   6.876   6.106 -0.0340 -0.1002  0.1289
  285POPC   C4B 3913  -0.676   6.968   6.244  0.1290  0.0169 -0.1061
  286POPC   NC3 3914   3.041   6.865   4.886 -0.0594 -0.1607  0.1807
  286POPC   PO4 3915   2.881   6.552   4.677  0.1971  0.1743  0.2233
  286POPC   GL1 3916   2.656   6.702   5.108  0.2423 -0.0478 -0.0997
  286POPC   GL2 3917   2.373   6.667   5.025 -0.0357  0.2708  0.0720
  286POPC   C1A 3918   2.707   6.707   5.561  0.2469 -0.0445 -0.0427
  286POPC   D2A 3919   2.840   6.757   5.947  0.1018 -0.4699  0.2174
  286POPC   C3A 3920   3.021   7.058   5.988 -0.1257  0.1895 -0.0483
  286POPC   C4A 3921   2.955   7.447   5.811 -0.2434 -0.1683  0.0601
  286POPC   C1B 3922   2.284   6.524   5.408 -0.1205 -0.1284  0.1476
  286POPC   C2B 3923   2.056   6.544   5.820  0.0680 -0.1890 -0.0563
  286POPC   C3B 3924   1.774   6.943   5.989  0.0561  0.1185 -0.1662
  286POPC   C4B 3925   1.524   7.192   6.221 -0.0105 -0.2873 -0.1127
  287POPC   NC3 3926   2.960  10.461   3.815  0.0129 -0.1014 -0.2765
  287POPC   PO4 3927   3.103  10.540   4.186  0.1037  0.1450  0.1906
  287POPC   GL1 3928   2.999  10.561   4.531 -0.1982  0.3946  0.4663
  287POPC   GL2 3929   3.072  10.270   4.710  0.0698  0.1636  0.2549
  287POPC   C1A 3930   2.889  10.664   4.971  0.1850  0.4155  0.3962
  287POPC   D2A 3931   3.047  10.588   5.503  0.1190  0.0886  0.2498
  287POPC   C3A 3932   3.165  10.786   5.866  0.1734 -0.0036  0.3924
  287POPC   C4A 3933   3.207  10.995   6.200  0.0669  0.3386 -0.0085
  287POPC   C1B 3934   2.906  10.089   5.231 -0.0570 -0.2704  0.1038
  287POPC   C2B 3935   2.735  10.208   5.589  0.0584  0.0902 -0.1443
  287POPC   C3B 3936   2.789  10.507   5.945 -0.0254  0.4039  0.1750
  287POPC   C4B 3937   2.813  10.669   6.299  0.2526  0.4670  0.2065
  288POPC   NC3 3938   8.286   8.390   3.602 -0.0103  0.3790  0.0508
  288POPC   PO4 3939   8.669   8.562   3.771 -0.0262 -0.1086  0.0157
  288POPC   GL1 3940   8.809   8.456   4.273 -0.0383 -0.0706  0.2751
  288POPC   GL2 3941   8.531   8.464   4.558  0.3410 -0.0666  0.1383
  288POPC   C1A 3942   9.037   8.503   4.593 -0.4298  0.0032  0.0917
  288POPC   D2A 3943   9.019   8.653   4.995  0.0243  0.4217  0.0891
  288POPC   C3A 3944   9.188   9.131   5.011 -0.1242  0.0067  0.0945
  288POPC   C4A 3945   9.183   9.449   4.637  0.0751 -0.2021  0.0244
  288POPC   C1B 3946   8.558   8.481   4.979  0.0906  0.1298  0.0263
  288POPC   C2B 3947   8.228   8.560   5.374 -0.0613 -0.0812  0.0341
  288POPC   C3B 3948   7.859   8.342   5.491  0.0988 -0.0524 -0.2492
  288POPC   C4B 3949   7.453   8.249   5.504 -0.0302  0.1003 -0.1758
  289POPC   NC3 3950   7.409  10.024   3.974 -0.0184 -0.1389  0.1019
  289POPC   PO4 3951   7.102  10.230   3.976  0.0832 -0.1966  0.0678
  289POPC   GL1 3952   7.143  10.401   4.309 -0.0668 -0.0692  0.0333
  289POPC   GL2 3953   7.292  10.597   4.361  0.1577 -0.2790  0.4000
  289POPC   C1A 3954   6.876  10.338   4.674  0.1377 -0.1729  0.3888
  289POPC   D2A 3955   6.775  10.000   4.895  0.0927  0.0428  0.3852
  289POPC   C3A 3956   6.814   9.548   4.784  0.3428  0.0663  0.2465
  289POPC   C4A 3957   7.122   9.218   4.627  0.0161  0.2927  0.0003
  289POPC   C1B 3958   7.675  10.325   4.450  0.2521 -0.1365  0.0728
  289POPC   C2B 3959   7.775   9.945   4.704  0.2578  0.1821  0.0252
  289POPC   C3B 3960   7.572   9.900   5.173 -0.4262 -0.1812 -0.0411
  289POPC   C4B 3961   7.358   9.921   5.520  0.0564 -0.4073  0.1656
  290POPC   NC3 3962   7.219   6.905   3.406  0.1677 -0.0019  0.2173
  290POPC   PO4 3963   7.220   6.776   3.833 -0.1054  0.3151  0.1089
  290POPC   GL1 3964   7.321   6.881   4.296  0.3339  0.0178  0.3542
  290POPC   GL2 3965   7.380   6.685   4.520 -0.0835 -0.1609  0.1766
  290POPC   C1A 3966   7.073   7.273   4.526  0.1400 -0.2372 -0.2217
  290POPC   D2A 3967   6.876   7.802   4.550  0.1222 -0.0981  0.2677
  290POPC   C3A 3968   6.644   7.839   4.921  0.0277 -0.0540  0.1788
  290POPC   C4A 3969   6.242   7.903   4.999 -0.0220  0.2464 -0.2584
  290POPC   C1B 3970   7.200   6.805   4.871 -0.0959 -0.1589 -0.1205
  290POPC   C2B 3971   7.030   7.078   5.171  0.2714 -0.0801  0.1376
  290POPC   C3B 3972   7.163   7.329   5.492 -0.3146 -0.2887 -0.1737
  290POPC   C4B 3973   7.413   7.432   5.926 -0.1740  0.1243 -0.1154
  291POPC   NC3 3974   2.988   1.437   4.262 -0.1874  0.1334 -0.0657
  291POPC   PO4 3975   3.364   1.611   4.198  0.0796 -0.0219  0.0231
  291POPC   GL1 3976   3.298   1.623   4.610  0.1629  0.1390  0.2150
  291POPC   GL2 3977   3.118   1.445   4.800 -0.3294  0.1407 -0.1965
  291POPC   C1A 3978   3.389   1.715   5.086  0.1509 -0.1124  0.0173
  291POPC   D2A 3979   3.612   1.663   5.421 -0.1229  0.1381 -0.0791
  291POPC   C3A 3980   3.759   1.267   5.519 -0.3961  0.0922  0.2111
  291POPC   C4A 3981   3.803   0.818   5.345  0.0851  0.2530 -0.2697
  291POPC   C1B 3982   2.855   1.535   5.147  0.1630 -0.1417  0.1373
  291POPC   C2B 3983   2.693   1.636   5.584 -0.3055  0.0374  0.0687
  291POPC   C3B 3984   2.722   1.949   5.891 -0.2283  0.2136 -0.1192
  291POPC   C4B 3985   3.023   2.156   6.181  0.4541  0.0358  0.4581
  292POPC   NC3 3986   3.270   4.353   3.862  0.0968  0.1327  0.3453
  292POPC   PO4 3987   3.334   4.589   4.284 -0.1640  0.0169  0.0268
  292POPC   GL1 3988   3.049   4.598   4.645 -0.2782 -0.2272 -0.0612
  292POPC   GL2 3989   3.274   4.501   4.821 -0.0231  0.0560  0.0448
  292POPC   C1A 3990   2.890   4.856   5.044  0.2130 -0.3205  0.3330
  292POPC   D2A 3991   2.876   4.838   5.522  0.1174 -0.0206  0.2015
  292POPC   C3A 3992   2.839   4.857   6.014  0.1562 -0.3240 -0.0493
  292POPC   C4A 3993   2.843   5.087   6.307 -0.1418 -0.2083 -0.1582
  292POPC   C1B 3994   3.318   4.470   5.260  0.2093  0.2320 -0.2286
  292POPC   C2B 3995   3.460   4.408   5.650 -0.0265  0.1593  0.1247
  292POPC   C3B 3996   3.784   4.331   5.940  0.1370  0.0038  0.0678
  292POPC   C4B 3997   3.899   3.919   6.277 -0.1430  0.1483 -0.2034
  293POPC   NC3 3998  10.519   6.090   3.601  0.0408 -0.1191  0.1876
  293POPC   PO4 3999  10.135   5.850   3.827  0.2884  0.0417  0.0273
  293POPC   GL1 4000   9.948   5.563   4.114  0.1095 -0.2789 -0.2871
  293POPC   GL2 4001   9.695   5.367   4.196  0.2409  0.0392 -0.0373
  293POPC   C1A 4002  10.162   5.551   4.512  0.0999  0.0044 -0.3966
  293POPC   D2A 4003  10.258   5.545   4.953 -0.2130 -0.1732  0.1714
  293POPC   C3A 4004  10.157   5.843   5.115  0.3874 -0.1633 -0.1856
  293POPC   C4A 4005   9.993   5.976   5.487 -0.1270  0.2494 -0.0900
  293POPC   C1B 4006   9.647   5.386   4.638  0.1398  0.1527 -0.6473
  293POPC   C2B 4007   9.771   5.372   5.078  0.1233 -0.0547 -0.0169
  293POPC   C3B 4008  10.025   5.442   5.461 -0.2821  0.0268  0.0090
  293POPC   C4B 4009  10.277   5.493   5.834 -0.1986  0.3792 -0.1811
  294POPC   NC3 4010   6.669   3.176   4.046 -0.3583 -0.2140 -0.0209
  294POPC   PO4 4011   6.470   2.732   4.020  0.3835  0.0789  0.2536
  294POPC   GL1 4012   6.271   2.769   4.510 -0.0348 -0.4900 -0.0656
  294POPC   GL2 4013   6.580   2.932   4.541 -0.0977 -0.0886  0.0140
  294POPC   C1A 4014   6.357   2.717   4.979 -0.0720 -0.0898 -0.1824
  294POPC   D2A 4015   6.498   2.625   5.430  0.3162  0.2086  0.0250
  294POPC   C3A 4016   6.869   2.543   5.616  0.1611 -0.1233  0.0745
  294POPC   C4A 4017   7.164   2.296   5.878  0.1494  0.0353  0.2163
  294POPC   C1B 4018   6.696   3.208   4.776  0.0859 -0.2082  0.2505
  294POPC   C2B 4019   6.866   3.354   5.131  0.0365 -0.0063  0.0699
  294POPC   C3B 4020   6.691   3.614   5.476 -0.0867  0.1840  0.2957
  294POPC   C4B 4021   6.416   3.812   5.764 -0.1665  0.0382 -0.1404
  295POPC   NC3 4022   9.126  10.662   3.427  0.2404  0.0419  0.1339
  295POPC   PO4 4023   9.381  10.218   3.533 -0.0267  0.1860 -0.0487
  295POPC   GL1 4024   9.126  10.225   3.907 -0.2381  0.1077  0.5036
  295POPC   GL2 4025   8.746  10.120   4.112  0.0529  0.1522  0.1733
  295POPC   C1A 4026   9.232  10.271   4.287  0.2189 -0.0263  0.2059
  295POPC   D2A 4027   9.406  10.292   4.694 -0.0391 -0.1479 -0.2968
  295POPC   C3A 4028   9.790  10.241   4.865  0.1995  0.3124 -0.1209
  295POPC   C4A 4029  10.061  10.098   5.196  0.0014 -0.1932 -0.1160
  295POPC   C1B 4030   8.560  10.344   4.435  0.2612 -0.1308  0.0272
  295POPC   C2B 4031   8.317  10.624   4.710  0.0740  0.0518 -0.0481
  295POPC   C3B 4032   8.084  10.706   4.663 -0.3858  0.0973 -0.0048
  295POPC   C4B 4033   7.719  10.825   4.453 -0.0231 -0.2127 -0.2373
  296POPC   NC3 4034   3.864  10.208   4.239 -0.1605 -0.3253 -0.0769
  296POPC   PO4 4035   3.780   9.824   4.115  0.1599 -0.1746  0.0682
  296POPC   GL1 4036   3.671   9.686   4.618 -0.0291  0.0881  0.0221
  296POPC   GL2 4037   3.924   9.644   4.774  0.2762  0.0768  0.0273
  296POPC   C1A 4038   3.480   9.452   4.938  0.4405 -0.1293  0.2308
  296POPC   D2A 4039   3.123   9.621   5.158  0.0671 -0.0534 -0.0186
  296POPC   C3A 4040   2.906   9.321   5.339 -0.0784  0.0880 -0.0312
  296POPC   C4A 4041   3.003   8.969   5.693 -0.2103 -0.0897  0.1339
  296POPC   C1B 4042   3.881   9.874   5.088  0.1338 -0.0378 -0.0714
  296POPC   C2B 4043   3.504   9.932   5.367 -0.1107 -0.1212  0.1990
  296POPC   C3B 4044   3.226  10.010   5.640  0.0706 -0.1929 -0.0601
  296POPC   C4B 4045   3.239  10.269   5.977  0.0332  0.2450 -0.0451
  297POPC   NC3 4046   1.456   0.699   3.877 -0.1816  0.2585  0.0898
  297POPC   PO4 4047   1.790   0.935   4.028  0.3313 -0.0880  0.2636
  297POPC   GL1 4048   1.789   0.900   4.525  0.2679  0.0600 -0.0426
  297POPC   GL2 4049   2.016   1.225   4.411 -0.0238  0.1460  0.1367
  297POPC   C1A 4050   1.567   0.973   4.830  0.0465  0.0960  0.2418
  297POPC   D2A 4051   1.435   1.156   5.206  0.1201  0.0036 -0.1189
  297POPC   C3A 4052   1.716   1.168   5.649 -0.0267 -0.0040  0.0181
  297POPC   C4A 4053   1.698   1.462   6.054  0.0626  0.1597  0.1549
  297POPC   C1B 4054   1.989   1.269   4.854 -0.2263  0.1372 -0.0179
  297POPC   C2B 4055   1.807   1.452   5.246  0.0643 -0.1921 -0.0656
  297POPC   C3B 4056   1.843   1.700   5.617  0.0949  0.1742 -0.1792
  297POPC   C4B 4057   2.158   1.719   5.863  0.1799 -0.1565  0.0800
  298POPC   NC3 4058   9.803   6.073   4.058 -0.2132  0.2578 -0.2091
  298POPC   PO4 4059   9.481   5.895   4.062 -0.3171  0.0876  0.3758
  298POPC   GL1 4060   9.512   5.872   4.512  0.0478 -0.0188  0.3354
  298POPC   GL2 4061   9.816   5.873   4.563 -0.2176 -0.1942  0.0747
  298POPC   C1A 4062   9.379   6.194   4.710 -0.1842  0.0227  0.0551
  298POPC   D2A 4063   9.280   6.522   5.094 -0.3672  0.1386  0.0759
  298POPC   C3A 4064   9.429   6.931   5.081  0.1495  0.0988 -0.3312
  298POPC   C4A 4065   9.766   7.236   4.804 -0.3970  0.0458  0.4315
  298POPC   C1B 4066   9.647   5.862   4.947  0.3523 -0.1597 -0.0011
  298POPC   C2B 4067   9.583   6.148   5.272 -0.0049  0.0354  0.0871
  298POPC   C3B 4068   9.480   6.507   5.535 -0.0972 -0.0414  0.0128
  298POPC   C4B 4069   9.444   6.847   5.835  0.4042 -0.1797 -0.2996
  299POPC   NC3 4070   0.088  10.405   3.226 -0.1476 -0.2990  0.0656
  299POPC   PO4 4071  -0.100  10.190   3.543 -0.3372 -0.1659  0.3115
  299POPC   GL1 4072  -0.323  10.300   3.839  0.0411  0.0621  0.0527
  299POPC   GL2 4073  -0.413  10.092   4.101 -0.2320 -0.4403 -0.0229
  299POPC   C1A 4074  -0.584  10.616   3.941  0.3067 -0.1081 -0.0580
  299POPC   D2A 4075  -0.825  11.104   4.026 -0.0047 -0.0972  0.2051
  299POPC   C3A 4076  -0.896  10.968   4.448  0.1338  0.0445  0.2627
  299POPC   C4A 4077  -1.125  10.742   4.694 -0.3265 -0.3064 -0.0958
  299POPC   C1B 4078  -0.360  10.449   4.397  0.3293 -0.3281 -0.3918
  299POPC   C2B 4079  -0.642  10.621   4.772 -0.0825 -0.1088  0.2337
  299POPC   C3B 4080  -0.785  10.614   5.184  0.2206 -0.1666 -0.0624
  299POPC   C4B 4081  -1.078  10.352   5.561 -0.3047 -0.2639  0.2810
  300POPC   NC3 4082   8.558   7.594   4.035  0.0573 -0.0942 -0.1539
  300POPC   PO4 4083   8.187   7.880   4.100  0.4326  0.0535 -0.1597
  300POPC   GL1 4084   8.077   7.602   4.356  0.1912  0.0818 -0.4786
  300POPC   GL2 4085   8.255   7.562   4.552 -0.0252  0.1733 -0.0101
  300POPC   C1A 4086   7.771   7.289   4.447  0.3414 -0.4108  0.2404
  300POPC   D2A 4087   7.502   7.220   4.862 -0.1710 -0.1303 -0.1094
  300POPC   C3A 4088   7.564   7.014   5.301  0.1129 -0.1861 -0.1977
  300POPC   C4A 4089   7.405   6.884   5.627  0.4232 -0.2255  0.0645
  300POPC   C1B 4090   8.200   7.259   4.704  0.0464  0.0030 -0.3825
  300POPC   C2B 4091   8.458   7.200   4.950 -0.0836  0.2571  0.2459
  300POPC   C3B 4092   8.408   7.439   5.270 -0.2060 -0.1952 -0.0835
  300POPC   C4B 4093   8.347   7.400   5.667  0.4563  0.4293  0.2100
  301POPC   NC3 4094   5.954   2.879   3.989  0.1786  0.3120 -0.2274
  301POPC   PO4 4095   5.561   3.005   4.286 -0.0761 -0.0204 -0.1939
  301POPC   GL1 4096   5.813   2.948   4.589  0.1313 -0.2503 -0.0824
  301POPC   GL2 4097   5.751   2.744   4.823 -0.1171  0.2085 -0.1730
  301POPC   C1A 4098   6.025   3.072   5.090  0.0675 -0.1164 -0.1115
  301POPC   D2A 4099   5.983   3.246   5.485 -0.0047 -0.1869  0.0032
  301POPC   C3A 4100   6.088   3.415   5.780  0.0142  0.0542  0.0239
  301POPC   C4A 4101   6.239   3.565   6.140  0.0421  0.1882  0.1080
  301POPC   C1B 4102   5.514   2.560   5.153  0.0667 -0.1359  0.2120
  301POPC   C2B 4103   5.380   2.520   5.562 -0.1418 -0.0592  0.2297
  301POPC   C3B 4104   5.269   2.623   5.936  0.2531  0.2777 -0.0164
  301POPC   C4B 4105   5.207   2.552   6.278 -0.1424 -0.5087 -0.1038
  302POPC   NC3 4106   9.378   0.742   3.379  0.2532 -0.0550 -0.1258
  302POPC   PO4 4107   9.132   0.962   3.597 -0.2287 -0.1317  0.1811
  302POPC   GL1 4108   9.073   0.819   3.972  0.1052 -0.0783  0.1962
  302POPC   GL2 4109   9.087   0.905   4.275  0.2696  0.1595  0.0105
  302POPC   C1A 4110   9.042   0.443   4.154 -0.0186 -0.0047 -0.0895
  302POPC   D2A 4111   9.182   0.038   4.262  0.0002 -0.0805  0.0801
  302POPC   C3A 4112   8.956  -0.144   4.589  0.1896  0.2633  0.0328
  302POPC   C4A 4113   8.703  -0.185   4.995  0.1292  0.2906 -0.3458
  302POPC   C1B 4114   9.168   0.787   4.663  0.0216  0.2038  0.0980
  302POPC   C2B 4115   9.194   0.305   4.723  0.0805 -0.2324  0.2644
  302POPC   C3B 4116   9.119  -0.007   5.092 -0.3055  0.1008 -0.0603
  302POPC   C4B 4117   9.464  -0.172   5.148  0.0577  0.0948 -0.0400
  303POPC   NC3 4118   8.941   5.833   3.902  0.2637 -0.0254  0.1087
  303POPC   PO4 4119   8.527   6.091   4.010 -0.2547  0.0966  0.0597
  303POPC   GL1 4120   8.620   6.029   4.434  0.1851  0.0682 -0.0470
  303POPC   GL2 4121   8.765   6.307   4.571 -0.3135  0.1225 -0.0318
  303POPC   C1A 4122   8.668   5.840   4.936  0.3074  0.1047  0.2382
  303POPC   D2A 4123   8.583   5.973   5.300  0.1800  0.2673  0.0717
  303POPC   C3A 4124   8.692   5.930   5.735  0.0943 -0.2278  0.0709
  303POPC   C4A 4125   8.655   5.597   5.974 -0.0007 -0.1980 -0.1144
  303POPC   C1B 4126   8.818   6.327   5.047 -0.1169 -0.3650  0.2775
  303POPC   C2B 4127   9.009   6.230   5.468  0.0802  0.2500 -0.3520
  303POPC   C3B 4128   9.254   6.261   5.893  0.1285  0.1973 -0.0013
  303POPC   C4B 4129   9.150   6.526   6.289  0.1229 -0.2207 -0.0490
  304POPC   NC3 4130   5.502   9.910   4.364 -0.0840 -0.0841  0.2313
  304POPC   PO4 4131   5.138   9.599   4.522  0.5392 -0.0108 -0.1460
  304POPC   GL1 4132   5.402   9.716   4.856  0.0441  0.0152  0.1708
  304POPC   GL2 4133   5.785   9.758   4.900  0.2199  0.0734  0.0047
  304POPC   C1A 4134   5.510   9.733   5.361 -0.1304  0.1315 -0.1827
  304POPC   D2A 4135   5.611   9.659   5.781 -0.2660 -0.2266  0.2487
  304POPC   C3A 4136   5.265   9.639   6.066  0.2347 -0.0092  0.0121
  304POPC   C4A 4137   4.895   9.726   6.328 -0.0193 -0.0236  0.2295
  304POPC   C1B 4138   5.994   9.809   5.301  0.2285  0.1073 -0.1772
  304POPC   C2B 4139   6.129   9.879   5.774  0.1628  0.2353 -0.2183
  304POPC   C3B 4140   6.355  10.273   5.904 -0.1098  0.0907 -0.3285
  304POPC   C4B 4141   6.657  10.730   5.774  0.0558  0.1785 -0.4313
  305POPC   NC3 4142   4.723   1.549   4.541 -0.2638 -0.0381  0.2647
  305POPC   PO4 4143   4.835   1.155   4.503  0.0724 -0.1251  0.1159
  305POPC   GL1 4144   4.690   1.101   4.908  0.0256  0.2074  0.0814
  305POPC   GL2 4145   4.450   0.916   5.014  0.2663  0.1248 -0.0749
  305POPC   C1A 4146   4.650   1.300   5.320  0.1020  0.0418 -0.1479
  305POPC   D2A 4147   4.911   1.351   5.761 -0.0133  0.0577 -0.0446
  305POPC   C3A 4148   4.879   0.937   6.043  0.0234  0.0663 -0.0557
  305POPC   C4A 4149   4.970   0.518   6.250  0.1649 -0.0176  0.2205
  305POPC   C1B 4150   4.269   1.004   5.423  0.1387 -0.1636 -0.1773
  305POPC   C2B 4151   4.478   1.107   5.759 -0.2517  0.3876  0.1788
  305POPC   C3B 4152   4.043   1.290   5.936 -0.0442  0.0014  0.1404
  305POPC   C4B 4153   3.595   1.472   5.951  0.0800 -0.3445  0.0124
  306POPC   NC3 4154   9.307   7.775   3.420  0.2666 -0.0856  0.0249
  306POPC   PO4 4155   9.693   7.708   3.785  0.2413 -0.2685  0.0279
  306POPC   GL1 4156   9.525   7.754   4.117 -0.0739  0.1611  0.0818
  306POPC   GL2 4157   9.386   7.565   4.357  0.3769  0.2781 -0.3651
  306POPC   C1A 4158   9.763   7.788   4.623 -0.1666 -0.4407 -0.1836
  306POPC   D2A 4159  10.023   7.586   4.982 -0.2376 -0.1354 -0.0565
  306POPC   C3A 4160   9.860   7.344   5.260  0.0324  0.2747  0.3762
  306POPC   C4A 4161   9.755   6.990   5.431  0.1086 -0.1021  0.4300
  306POPC   C1B 4162   9.183   7.733   4.783  0.0188  0.2228  0.1256
  306POPC   C2B 4163   9.163   7.883   5.223  0.1457  0.0310  0.1410
  306POPC   C3B 4164   9.366   7.899   5.639  0.1983 -0.0696  0.1752
  306POPC   C4B 4165   9.543   7.669   5.999 -0.0131 -0.1476  0.0544
  307POPC   NC3 4166   6.869   8.067   4.010 -0.2023  0.0658 -0.0672
  307POPC   PO4 4167   7.138   7.712   3.835  0.1257 -0.1490  0.2200
  307POPC   GL1 4168   7.273   7.826   4.276  0.3413  0.1187  0.1321
  307POPC   GL2 4169   7.675   7.910   4.538 -0.2517 -0.0228  0.1294
  307POPC   C1A 4170   7.236   8.199   4.579 -0.0888  0.0966  0.0429
  307POPC   D2A 4171   7.383   8.507   5.014 -0.0558  0.3137  0.0742
  307POPC   C3A 4172   6.972   8.688   5.309  0.2750 -0.0371  0.0871
  307POPC   C4A 4173   6.590   8.683   5.252 -0.0481  0.0679 -0.1856
  307POPC   C1B 4174   7.837   7.662   4.866  0.2591 -0.1942  0.2304
  307POPC   C2B 4175   7.963   7.707   5.268  0.2138 -0.0873  0.0007
  307POPC   C3B 4176   8.046   7.866   5.668  0.0863 -0.1847  0.0407
  307POPC   C4B 4177   8.347   7.833   6.106  0.1825  0.0019 -0.3172
  308POPC   NC3 4178   4.322   5.435   4.194  0.1184 -0.1682 -0.2218
  308POPC   PO4 4179   4.723   5.570   4.214 -0.1767  0.0100  0.1902
  308POPC   GL1 4180   4.674   5.407   4.685  0.0947 -0.0293  0.1754
  308POPC   GL2 4181   4.494   5.203   4.703  0.1152 -0.1919  0.0828
  308POPC   C1A 4182   4.669   5.629   5.007 -0.1563  0.0221 -0.4389
  308POPC   D2A 4183   4.619   5.788   5.418  0.2226  0.0456 -0.1131
  308POPC   C3A 4184   4.778   5.447   5.755 -0.1907 -0.2303  0.1005
  308POPC   C4A 4185   4.857   5.220   6.197 -0.0178  0.0204  0.3138
  308POPC   C1B 4186   4.585   5.186   5.183  0.2657 -0.1801 -0.0937
  308POPC   C2B 4187   4.436   5.097   5.600 -0.2591 -0.4740 -0.0907
  308POPC   C3B 4188   4.238   5.149   5.978 -0.3768  0.2808 -0.0700
  308POPC   C4B 4189   4.389   5.135   6.381 -0.0422  0.2880  0.3414
  309POPC   NC3 4190   9.119   4.984   3.582  0.1071  0.0394  0.0589
  309POPC   PO4 4191   8.647   4.913   3.670  0.1182  0.0624  0.0503
  309POPC   GL1 4192   8.531   4.796   4.082 -0.1534  0.3486  0.1985
  309POPC   GL2 4193   8.524   5.011   4.270 -0.1230  0.1746 -0.2384
  309POPC   C1A 4194   8.606   4.471   4.388 -0.1643  0.1026  0.0760
  309POPC   D2A 4195   8.965   4.285   4.646  0.2875  0.1338 -0.0646
  309POPC   C3A 4196   9.068   4.205   5.060 -0.0092  0.0865  0.1537
  309POPC   C4A 4197   9.178   4.238   5.404 -0.0760 -0.0881  0.0548
  309POPC   C1B 4198   8.462   4.943   4.711 -0.0520 -0.0613 -0.2390
  309POPC   C2B 4199   8.445   5.044   5.121 -0.2233  0.1638  0.1639
  309POPC   C3B 4200   8.334   5.152   5.568 -0.1187 -0.2331 -0.1627
  309POPC   C4B 4201   8.302   5.521   5.631  0.2058 -0.0297 -0.0475
  310POPC   NC3 4202   1.840   6.423   4.749  0.2476  0.2326 -0.0174
  310POPC   PO4 4203   1.422   6.280   4.726 -0.2391 -0.0876  0.2690
  310POPC   GL1 4204   1.434   6.463   5.118  0.4784 -0.1274 -0.1333
  310POPC   GL2 4205   1.752   6.500   5.252  0.0380  0.0642  0.0520
  310POPC   C1A 4206   1.169   6.536   5.456  0.1415 -0.2448  0.2298
  310POPC   D2A 4207   1.039   6.385   5.892  0.1990  0.2358  0.0389
  310POPC   C3A 4208   1.122   5.955   5.945 -0.0638  0.1940 -0.0999
  310POPC   C4A 4209   1.237   5.504   6.080 -0.1119  0.0071  0.2885
  310POPC   C1B 4210   1.511   6.846   5.517 -0.2853  0.1309  0.2737
  310POPC   C2B 4211   1.412   7.259   5.589  0.0759  0.0122  0.0098
  310POPC   C3B 4212   1.532   7.654   5.933  0.0491 -0.0383 -0.0784
  310POPC   C4B 4213   1.535   8.050   6.131  0.1814  0.2000 -0.1770
  311POPC   NC3 4214   1.727   6.939   3.773 -0.1461  0.0444 -0.1316
  311POPC   PO4 4215   2.059   6.972   4.124 -0.3927 -0.2885 -0.1486
  311POPC   GL1 4216   1.990   7.036   4.472 -0.1619  0.0277  0.0189
  311POPC   GL2 4217   2.025   7.394   4.625  0.3865 -0.0160 -0.1066
  311POPC   C1A 4218   1.916   7.048   4.967  0.3547 -0.2096  0.1183
  311POPC   D2A 4219   1.658   7.176   5.171  0.0727 -0.0160 -0.1005
  311POPC   C3A 4220   1.477   7.630   5.343 -0.1849  0.0596 -0.1935
  311POPC   C4A 4221   1.579   8.020   5.545 -0.2801  0.0136  0.1658
  311POPC   C1B 4222   1.952   7.535   5.073 -0.1307  0.0262 -0.4416
  311POPC   C2B 4223   1.878   7.389   5.565  0.0766 -0.1224 -0.1338
  311POPC   C3B 4224   2.005   7.489   5.966  0.1964  0.2643  0.0415
  311POPC   C4B 4225   2.136   7.474   6.321 -0.1136 -0.0712  0.0312
  312POPC   NC3 4226   7.108   0.975   4.132  0.2111 -0.0652 -0.0417
  312POPC   PO4 4227   6.925   1.237   4.458 -0.0909 -0.0700  0.1250
  312POPC   GL1 4228   6.735   1.173   4.863 -0.1761  0.0662 -0.0472
  312POPC   GL2 4229   6.460   1.084   4.907 -0.0465  0.0218  0.1174
  312POPC   C1A 4230   6.905   1.104   5.215 -0.1150 -0.4521  0.1611
  312POPC   D2A 4231   7.084   0.874   5.641  0.0856  0.2616 -0.1308
  312POPC   C3A 4232   7.104   1.201   5.982 -0.0057  0.0155 -0.0021
  312POPC   C4A 4233   7.000   1.545   6.110  0.1458  0.3179 -0.0814
  312POPC   C1B 4234   6.376   1.317   5.325  0.0288 -0.0538  0.1298
  312POPC   C2B 4235   6.247   1.524   5.728  0.0063 -0.4818 -0.0291
  312POPC   C3B 4236   6.461   1.637   6.070  0.0660  0.2260 -0.2086
  312POPC   C4B 4237   6.665   1.455   6.434 -0.0274  0.3335 -0.2514
  313POPC   NC3 4238   2.257   5.132   4.492  0.0182  0.2075 -0.0188
  313POPC   PO4 4239   1.884   5.362   4.514 -0.0787 -0.1127 -0.0153
  313POPC   GL1 4240   1.481   5.100   4.810  0.0190 -0.2617  0.0943
  313POPC   GL2 4241   1.272   5.331   4.757 -0.1804  0.3833 -0.2796
  313POPC   C1A 4242   1.426   5.160   5.208  0.0870 -0.2162 -0.0096
  313POPC   D2A 4243   1.681   5.356   5.484 -0.0715 -0.0970  0.2277
  313POPC   C3A 4244   1.530   5.673   5.561  0.2212  0.0268 -0.4010
  313POPC   C4A 4245   1.260   6.055   5.446 -0.0076 -0.0739 -0.0711
  313POPC   C1B 4246   1.015   5.306   5.080 -0.2661  0.0467  0.2879
  313POPC   C2B 4247   0.845   4.998   5.500  0.0582 -0.0836  0.0277
  313POPC   C3B 4248   0.948   4.653   5.732 -0.2382  0.1245  0.0697
  313POPC   C4B 4249   1.072   4.227   5.756  0.3880  0.1561 -0.0182
  314POPC   NC3 4250   2.063   8.062   4.190 -0.0021  0.2578  0.0675
  314POPC   PO4 4251   2.422   8.201   4.377  0.0959  0.0255 -0.0676
  314POPC   GL1 4252   2.621   8.116   4.834 -0.1780 -0.1022  0.1964
  314POPC   GL2 4253   2.323   8.364   4.859 -0.1747  0.2934 -0.4303
  314POPC   C1A 4254   2.498   7.981   5.203  0.3377 -0.2658 -0.2182
  314POPC   D2A 4255   2.104   7.807   5.478 -0.0703  0.1678  0.1179
  314POPC   C3A 4256   2.056   8.034   5.849 -0.1706  0.0084 -0.2094
  314POPC   C4A 4257   1.770   8.350   5.901 -0.1584 -0.0912  0.1649
  314POPC   C1B 4258   2.230   8.721   5.053  0.1375  0.0328  0.0385
  314POPC   C2B 4259   1.994   9.000   5.342 -0.1152  0.0211 -0.0754
  314POPC   C3B 4260   2.085   9.119   5.735  0.0752 -0.3637  0.1104
  314POPC   C4B 4261   1.866   8.859   6.042  0.1498 -0.0018  0.1736
  315POPC   NC3 4262   6.607   8.824   3.952  0.1231 -0.1979 -0.0057
  315POPC   PO4 4263   6.237   8.525   4.030 -0.5070  0.3929  0.1207
  315POPC   GL1 4264   6.324   8.423   4.434  0.2131 -0.0912  0.2550
  315POPC   GL2 4265   6.601   8.334   4.355  0.0097  0.4815  0.4658
  315POPC   C1A 4266   6.299   8.781   4.753 -0.0866  0.1113  0.4678
  315POPC   D2A 4267   6.089   8.626   5.142 -0.2249  0.1272 -0.1068
  315POPC   C3A 4268   5.825   8.727   5.430 -0.2666  0.2467  0.1299
  315POPC   C4A 4269   5.820   8.853   5.784  0.2744  0.0703  0.1445
  315POPC   C1B 4270   6.667   8.406   4.789 -0.0770  0.1697 -0.0774
  315POPC   C2B 4271   6.960   8.185   5.108 -0.1792 -0.2384  0.2383
  315POPC   C3B 4272   6.996   7.880   5.345  0.2950 -0.2087 -0.0703
  315POPC   C4B 4273   6.989   7.929   5.748  0.2287  0.0784 -0.1053
  316POPC   NC3 4274   4.174   9.780   4.397  0.0798 -0.0346 -0.0401
  316POPC   PO4 4275   4.347  10.268   4.418  0.0364  0.0298  0.2316
  316POPC   GL1 4276   4.398  10.034   4.779 -0.3815 -0.2752 -0.0528
  316POPC   GL2 4277   4.788   9.974   4.911 -0.2076  0.2313  0.0786
  316POPC   C1A 4278   4.381  10.182   5.179 -0.0189  0.0781 -0.0959
  316POPC   D2A 4279   4.469  10.298   5.622  0.1175  0.2341  0.2489
  316POPC   C3A 4280   4.083  10.365   5.924 -0.0037 -0.2471 -0.0994
  316POPC   C4A 4281   3.730  10.515   6.176  0.2065 -0.1539 -0.0019
  316POPC   C1B 4282   5.256  10.214   5.076 -0.3641  0.0873 -0.1000
  316POPC   C2B 4283   5.295  10.313   5.497 -0.1363  0.0505  0.0506
  316POPC   C3B 4284   4.916  10.536   5.661 -0.2737  0.0881 -0.2406
  316POPC   C4B 4285   4.475  10.696   5.943  0.1674 -0.3867  0.2142
  317POPC   NC3 4286   0.861   5.155   4.096  0.4820 -0.0132 -0.1544
  317POPC   PO4 4287   0.463   4.963   4.129  0.0192  0.1894 -0.1676
  317POPC   GL1 4288   0.623   5.098   4.566  0.0902 -0.0017  0.1750
  317POPC   GL2 4289   0.387   5.356   4.583 -0.0075 -0.3159 -0.1258
  317POPC   C1A 4290   0.550   5.110   5.038 -0.3565 -0.0909  0.3185
  317POPC   D2A 4291   0.442   5.413   5.411  0.3997 -0.1525 -0.0972
  317POPC   C3A 4292   0.042   5.565   5.316 -0.0187  0.4266 -0.1463
  317POPC   C4A 4293  -0.225   5.283   5.441 -0.0082 -0.0809  0.0323
  317POPC   C1B 4294   0.268   5.573   4.897 -0.2605 -0.0633 -0.0157
  317POPC   C2B 4295  -0.069   5.885   4.963  0.2043  0.4121 -0.0967
  317POPC   C3B 4296   0.038   6.243   4.888  0.3298 -0.1816  0.2322
  317POPC   C4B 4297  -0.178   6.631   4.808 -0.1430 -0.1102 -0.2079
  318POPC   NC3 4298   2.017  10.589   3.735 -0.0772  0.0417 -0.2605
  318POPC   PO4 4299   2.112  10.794   4.023 -0.0042  0.0543  0.1356
  318POPC   GL1 4300   2.308  10.753   4.441  0.0345 -0.1962 -0.0300
  318POPC   GL2 4301   2.521  10.937   4.633  0.3757  0.1821  0.0089
  318POPC   C1A 4302   2.573  10.418   4.694  0.3058  0.0468  0.0981
  318POPC   D2A 4303   2.480  10.311   5.171 -0.0710 -0.0657 -0.0554
  318POPC   C3A 4304   2.573  10.669   5.378  0.2152 -0.3764 -0.0530
  318POPC   C4A 4305   2.670  10.880   5.658 -0.0926  0.1558 -0.2399
  318POPC   C1B 4306   2.366  11.123   4.895 -0.0303  0.1733 -0.1517
  318POPC   C2B 4307   2.274  11.170   5.283 -0.0578 -0.0447 -0.1126
  318POPC   C3B 4308   2.217  11.077   5.698  0.0947 -0.3094 -0.1431
  318POPC   C4B 4309   2.300  10.770   6.031 -0.0207  0.0003 -0.1338
  319POPC   NC3 4310   0.806  10.569   3.944  0.1092  0.0413  0.0279
  319POPC   PO4 4311   0.891  10.151   3.789  0.1452  0.0648 -0.0767
  319POPC   GL1 4312   0.952  10.013   4.210 -0.3249  0.0837  0.0697
  319POPC   GL2 4313   1.282   9.948   4.340  0.1218 -0.2219 -0.1772
  319POPC   C1A 4314   0.771  10.112   4.622 -0.1779  0.0048  0.0356
  319POPC   D2A 4315   0.747  10.367   4.920 -0.0200 -0.2004  0.3281
  319POPC   C3A 4316   0.783  10.256   5.328  0.4157  0.2228 -0.3540
  319POPC   C4A 4317   0.984   9.904   5.568 -0.0047 -0.1094  0.0731
  319POPC   C1B 4318   1.240  10.031   4.785 -0.3016 -0.2989 -0.1407
  319POPC   C2B 4319   1.281  10.141   5.225  0.1906 -0.1246  0.4370
  319POPC   C3B 4320   1.220  10.326   5.701  0.2396  0.0085  0.0940
  319POPC   C4B 4321   0.988  10.300   6.111 -0.1232  0.4326  0.2735
  320POPC   NC3 4322   9.176   6.824   3.746  0.0013  0.0275  0.0983
  320POPC   PO4 4323   9.592   6.682   3.842  0.6722 -0.3153  0.0844
  320POPC   GL1 4324   9.442   6.611   4.230 -0.3473 -0.0617 -0.3181
  320POPC   GL2 4325   9.615   6.860   4.471  0.1136 -0.0098 -0.1463
  320POPC   C1A 4326   9.154   6.690   4.630 -0.0771 -0.1340 -0.0784
  320POPC   D2A 4327   8.930   6.970   4.940 -0.1681 -0.0379 -0.0201
  320POPC   C3A 4328   8.651   6.823   5.226  0.0997  0.0988 -0.2368
  320POPC   C4A 4329   8.378   6.818   5.560 -0.0982 -0.2380 -0.0917
  320POPC   C1B 4330   9.652   6.600   4.712  0.2431  0.1578  0.5911
  320POPC   C2B 4331   9.907   6.654   5.091 -0.4861 -0.1250 -0.2704
  320POPC   C3B 4332   9.983   6.513   5.557  0.1645  0.0140  0.0511
  320POPC   C4B 4333  10.352   6.316   5.765 -0.2403  0.0070 -0.1693
  321POPC   NC3 4334   3.317   8.427   4.284  0.1922 -0.1556 -0.0937
  321POPC   PO4 4335   3.554   8.849   4.247 -0.1161  0.1485 -0.1064
  321POPC   GL1 4336   3.525   8.852   4.628  0.0434 -0.0438 -0.3374
  321POPC   GL2 4337   3.661   8.542   4.701  0.2753  0.1681 -0.3058
  321POPC   C1A 4338   3.667   8.874   5.061 -0.4203  0.0813  0.0451
  321POPC   D2A 4339   3.986   8.904   5.419  0.1189 -0.0429  0.0037
  321POPC   C3A 4340   4.172   9.229   5.629  0.0565  0.3746 -0.3199
  321POPC   C4A 4341   4.119   9.407   5.959  0.0550  0.1465 -0.0947
  321POPC   C1B 4342   3.367   8.435   5.033  0.2714  0.1995  0.2473
  321POPC   C2B 4343   3.305   8.627   5.342  0.2814  0.1060 -0.0364
  321POPC   C3B 4344   3.551   8.792   5.708  0.0544 -0.0748 -0.2258
  321POPC   C4B 4345   3.779   9.045   5.879  0.0352 -0.1936  0.4067
  322POPC   NC3 4346   5.693   1.640   4.567  0.0301 -0.0695 -0.3289
  322POPC   PO4 4347   6.061   1.609   4.458  0.1239 -0.3905  0.1230
  322POPC   GL1 4348   6.057   1.303   4.790 -0.0691 -0.3342  0.2531
  322POPC   GL2 4349   5.710   1.286   4.976  0.1091 -0.0620  0.0346
  322POPC   C1A 4350   6.049   1.014   5.168 -0.3482  0.3037 -0.1845
  322POPC   D2A 4351   5.746   0.955   5.439  0.4211 -0.0356 -0.1527
  322POPC   C3A 4352   5.846   1.262   5.822  0.0997 -0.1173 -0.1556
  322POPC   C4A 4353   6.141   1.269   6.130  0.4438  0.1096 -0.2151
  322POPC   C1B 4354   5.411   1.395   5.303 -0.1310 -0.0526  0.0447
  322POPC   C2B 4355   5.030   1.622   5.341 -0.0251  0.1726 -0.0173
  322POPC   C3B 4356   4.699   1.830   5.490 -0.1660  0.2332 -0.1138
  322POPC   C4B 4357   4.400   2.125   5.518 -0.2239  0.0074 -0.1833
  323POPC   NC3 4358   4.805   3.200   4.133  0.0472  0.2112 -0.0485
  323POPC   PO4 4359   5.060   2.878   4.288 -0.0429 -0.2953  0.0008
  323POPC   GL1 4360   5.146   2.965   4.785  0.2904 -0.0438  0.0459
  323POPC   GL2 4361   5.391   3.065   4.924 -0.0973 -0.2260 -0.1616
  323POPC   C1A 4362   5.005   2.788   5.201  0.1306 -0.1074 -0.0198
  323POPC   D2A 4363   4.991   2.892   5.596 -0.3621  0.1101 -0.0318
  323POPC   C3A 4364   4.856   2.883   6.015  0.2236 -0.0073  0.0657
  323POPC   C4A 4365   4.381   2.873   6.260 -0.4373 -0.0797 -0.1168
  323POPC   C1B 4366   5.486   3.054   5.387  0.0070  0.4231  0.1281
  323POPC   C2B 4367   5.587   3.406   5.655 -0.0148 -0.0306 -0.3161
  323POPC   C3B 4368   5.661   3.712   5.951 -0.2985  0.2014 -0.2054
  323POPC   C4B 4369   5.974   3.991   5.992 -0.1199  0.2594  0.1287
  324POPC   NC3 4370   8.706   3.012   3.932  0.2486  0.0784  0.2103
  324POPC   PO4 4371   8.686   2.756   4.408 -0.0933  0.3519 -0.4044
  324POPC   GL1 4372   8.962   3.029   4.522  0.1224 -0.3538 -0.1365
  324POPC   GL2 4373   9.020   3.190   4.317  0.5063 -0.4912 -0.1910
  324POPC   C1A 4374   8.981   3.202   4.948  0.1735  0.1687 -0.2942
  324POPC   D2A 4375   9.026   3.403   5.403  0.0796  0.0318 -0.0196
  324POPC   C3A 4376   8.678   3.457   5.656  0.1146 -0.0030  0.0067
  324POPC   C4A 4377   8.475   3.440   6.029  0.2930  0.0641 -0.0220
  324POPC   C1B 4378   9.442   3.228   4.229  0.0931 -0.0641  0.0643
  324POPC   C2B 4379   9.823   3.416   4.403  0.3521 -0.3791 -0.2243
  324POPC   C3B 4380  10.157   3.316   4.757  0.0144  0.3244  0.0568
  324POPC   C4B 4381  10.416   3.722   4.736  0.2376  0.1678  0.0220
  325POPC   NC3 4382   3.841   1.599   4.326  0.2773  0.1415  0.0743
  325POPC   PO4 4383   4.090   1.809   4.489  0.3653  0.3069  0.0064
  325POPC   GL1 4384   4.251   2.044   4.745 -0.0872  0.0203  0.3379
  325POPC   GL2 4385   4.511   2.115   4.619  0.0856  0.1695  0.0341
  325POPC   C1A 4386   4.198   2.412   5.069  0.2891 -0.0626 -0.0257
  325POPC   D2A 4387   3.879   2.323   5.465 -0.1400 -0.0274  0.0668
  325POPC   C3A 4388   3.949   2.332   5.917 -0.3085 -0.0598  0.1049
  325POPC   C4A 4389   3.863   2.561   6.313 -0.0295 -0.0577  0.2126
  325POPC   C1B 4390   4.679   2.238   5.082 -0.1676  0.0750  0.1179
  325POPC   C2B 4391   4.883   2.294   5.552  0.2670  0.1764 -0.0337
  325POPC   C3B 4392   4.890   2.261   5.941  0.2105  0.0168  0.1019
  325POPC   C4B 4393   4.993   2.124   6.393 -0.1009 -0.1677  0.1820
  326POPC   NC3 4394   1.576   8.723   4.298 -0.0080  0.0407  0.0990
  326POPC   PO4 4395   1.245   9.082   4.069  0.0124  0.0318  0.1691
  326POPC   GL1 4396   1.379   9.169   4.602 -0.2694  0.0850  0.1464
  326POPC   GL2 4397   1.263   9.544   4.687  0.0215 -0.0495  0.0375
  326POPC   C1A 4398   1.536   9.210   5.035 -0.1176  0.2279 -0.2711
  326POPC   D2A 4399   1.556   9.273   5.495  0.3094 -0.0560  0.1240
  326POPC   C3A 4400   1.117   9.417   5.672  0.0730  0.0849  0.2178
  326POPC   C4A 4401   0.771   9.528   5.990 -0.1557  0.4021  0.1237
  326POPC   C1B 4402   0.968   9.272   4.900 -0.1840  0.0307 -0.0119
  326POPC   C2B 4403   0.725   9.365   5.249  0.1580 -0.0772 -0.0599
  326POPC   C3B 4404   0.596   9.317   5.606  0.0794  0.0525 -0.3215
  326POPC   C4B 4405   0.335   9.276   5.955  0.2291  0.1693 -0.0679
  327POPC   NC3 4406   3.514   5.140   4.477  0.0425 -0.0468 -0.0310
  327POPC   PO4 4407   3.620   4.778   4.624  0.3227  0.1709 -0.0241
  327POPC   GL1 4408   3.400   4.960   4.967  0.0877 -0.0178 -0.0484
  327POPC   GL2 4409   3.576   5.281   4.997  0.1976 -0.0104  0.0939
  327POPC   C1A 4410   3.473   4.956   5.407 -0.1350  0.1006  0.2325
  327POPC   D2A 4411   3.278   4.921   5.811  0.1481 -0.0045  0.0715
  327POPC   C3A 4412   3.291   5.216   6.220 -0.4080  0.1383  0.1081
  327POPC   C4A 4413   3.402   5.389   6.669  0.0261  0.2096  0.0135
  327POPC   C1B 4414   3.684   5.462   5.387  0.1196 -0.5263  0.0332
  327POPC   C2B 4415   3.838   5.828   5.748 -0.3917 -0.1212  0.2924
  327POPC   C3B 4416   3.832   5.964   6.098  0.1439 -0.2553 -0.1154
  327POPC   C4B 4417   3.668   5.750   6.509  0.2386 -0.6094 -0.4750
  328POPC   NC3 4418   9.603   1.903   3.728  0.0422 -0.0671 -0.3562
  328POPC   PO4 4419   9.790   2.459   3.644 -0.1841  0.2267  0.0603
  328POPC   GL1 4420  10.081   2.752   3.883 -0.0672  0.0063 -0.2358
  328POPC   GL2 4421  10.023   2.678   4.264 -0.2496  0.2414  0.1516
  328POPC   C1A 4422  10.214   3.174   4.153 -0.1288 -0.2206  0.3774
  328POPC   D2A 4423  10.418   3.474   4.322 -0.0105 -0.0331  0.1695
  328POPC   C3A 4424  10.463   3.933   4.238 -0.0417  0.2070 -0.1911
  328POPC   C4A 4425  10.357   4.217   4.576 -0.0631 -0.0169 -0.2437
  328POPC   C1B 4426   9.770   2.779   4.556 -0.2885 -0.1673  0.3853
  328POPC   C2B 4427   9.584   3.043   4.769 -0.0648 -0.2385  0.0540
  328POPC   C3B 4428   9.352   3.397   4.684 -0.2523  0.1599 -0.1932
  328POPC   C4B 4429   9.224   3.645   4.422 -0.1115 -0.0598  0.2935
  329POPC   NC3 4430   8.062   4.792   4.192 -0.1623 -0.2176 -0.0832
  329POPC   PO4 4431   7.718   4.620   4.320 -0.0577  0.0065 -0.0016
  329POPC   GL1 4432   7.819   4.503   4.671  0.0771  0.0405  0.3503
  329POPC   GL2 4433   7.896   4.824   4.867  0.0678  0.1527 -0.0929
  329POPC   C1A 4434   8.271   4.401   4.804 -0.0754 -0.2935  0.0882
  329POPC   D2A 4435   8.614   4.483   4.970  0.1366  0.0341 -0.0812
  329POPC   C3A 4436   8.717   4.421   5.355  0.1133 -0.0043  0.1392
  329POPC   C4A 4437   8.494   4.650   5.601  0.0054 -0.0518 -0.2629
  329POPC   C1B 4438   7.878   5.042   5.224  0.1851  0.0641  0.0215
  329POPC   C2B 4439   7.744   4.943   5.722 -0.1166  0.1178 -0.0842
  329POPC   C3B 4440   7.808   4.516   5.842  0.0053 -0.3466 -0.0817
  329POPC   C4B 4441   7.516   4.184   5.954  0.0402 -0.0701 -0.1279
  330POPC   NC3 4442   0.085   7.806   4.280 -0.3325 -0.3348 -0.2210
  330POPC   PO4 4443  -0.195   8.007   3.959  0.1755  0.0860 -0.1985
  330POPC   GL1 4444  -0.336   8.135   4.293 -0.0709  0.1053 -0.0766
  330POPC   GL2 4445  -0.289   8.425   4.280 -0.0806  0.3041 -0.1352
  330POPC   C1A 4446  -0.455   7.954   4.646  0.0387  0.0457  0.0547
  330POPC   D2A 4447  -0.848   8.175   4.876  0.2174  0.3136  0.1037
  330POPC   C3A 4448  -0.827   8.470   5.106 -0.0360  0.0827  0.0107
  330POPC   C4A 4449  -0.974   8.568   5.581 -0.3629 -0.0725 -0.1584
  330POPC   C1B 4450  -0.318   8.404   4.691  0.2378 -0.1756  0.1907
  330POPC   C2B 4451  -0.284   8.379   5.142  0.2642  0.1277 -0.3306
  330POPC   C3B 4452  -0.419   8.662   5.502  0.0927  0.0059  0.2620
  330POPC   C4B 4453  -0.599   8.919   5.846  0.0981 -0.0789  0.0454
  331POPC   NC3 4454  10.639   5.688   3.847 -0.1092  0.0950 -0.2269
  331POPC   PO4 4455  10.493   6.175   4.082  0.1541 -0.0234 -0.1460
  331POPC   GL1 4456  10.403   5.951   4.457 -0.2710 -0.2140 -0.3352
  331POPC   GL2 4457  10.664   5.713   4.476 -0.1535 -0.1038  0.1560
  331POPC   C1A 4458  10.256   6.227   4.851  0.1378  0.0823 -0.0782
  331POPC   D2A 4459  10.338   6.315   5.238  0.0885  0.0632 -0.0016
  331POPC   C3A 4460  10.827   6.220   5.345 -0.0464  0.0719 -0.0355
  331POPC   C4A 4461  11.137   5.922   5.235  0.3119  0.0249 -0.2235
  331POPC   C1B 4462  10.578   5.249   4.547  0.0827 -0.4371 -0.1200
  331POPC   C2B 4463  10.685   5.189   4.982  0.0747  0.1162  0.2350
  331POPC   C3B 4464  10.893   4.929   5.357 -0.0428 -0.3575  0.1088
  331POPC   C4B 4465  10.873   5.023   5.715  0.1942  0.0145 -0.1940
  332POPC   NC3 4466   2.491   8.714   4.304  0.0157  0.1375 -0.0701
  332POPC   PO4 4467   2.822   8.447   4.237 -0.0956 -0.1148 -0.0651
  332POPC   GL1 4468   3.059   8.752   4.558  0.1092 -0.0930 -0.0990
  332POPC   GL2 4469   2.780   8.834   4.723 -0.2101  0.1158  0.0336
  332POPC   C1A 4470   3.124   9.022   4.990  0.4254 -0.2022 -0.2640
  332POPC   D2A 4471   3.396   9.180   5.374 -0.0612 -0.1384  0.1378
  332POPC   C3A 4472   3.213   9.469   5.678  0.0769  0.0940 -0.2444
  332POPC   C4A 4473   2.812   9.740   5.573 -0.1173  0.1603  0.0870
  332POPC   C1B 4474   2.842   8.587   5.070 -0.0609 -0.0202  0.5476
  332POPC   C2B 4475   2.577   8.507   5.366 -0.0281 -0.0284 -0.1054
  332POPC   C3B 4476   2.506   8.207   5.614 -0.0210  0.1072 -0.1728
  332POPC   C4B 4477   2.757   7.912   5.689 -0.3495 -0.4578  0.2544
  333POPC   NC3 4478   0.466   5.910   4.494  0.0015  0.0889  0.0305
  333POPC   PO4 4479   0.726   6.201   4.752  0.0547  0.1144 -0.3825
  333POPC   GL1 4480   0.685   6.292   5.198 -0.2549  0.0888  0.0768
  333POPC   GL2 4481   0.733   6.643   5.288  0.2228 -0.0204  0.0371
  333POPC   C1A 4482   0.720   6.103   5.560 -0.2724  0.1031  0.5400
  333POPC   D2A 4483   0.666   5.739   5.778 -0.0009 -0.1207  0.0534
  333POPC   C3A 4484   0.289   5.440   5.881  0.0063  0.4078  0.3553
  333POPC   C4A 4485  -0.037   5.245   6.177 -0.0272 -0.1431  0.0169
  333POPC   C1B 4486   0.496   6.604   5.580  0.3803 -0.0774  0.0604
  333POPC   C2B 4487   0.132   6.423   5.800 -0.0537  0.1593  0.1461
  333POPC   C3B 4488  -0.076   6.449   6.286  0.0762 -0.3096 -0.3223
  333POPC   C4B 4489  -0.290   6.652   6.597  0.3229  0.0064 -0.0703
  334POPC   NC3 4490   3.216   2.420   4.036  0.1458  0.1700  0.1483
  334POPC   PO4 4491   3.252   2.902   3.989  0.0173  0.0367 -0.0295
  334POPC   GL1 4492   3.044   2.807   4.324 -0.1490 -0.1035 -0.1648
  334POPC   GL2 4493   2.896   2.909   4.488  0.2860  0.0157 -0.1707
  334POPC   C1A 4494   3.249   2.679   4.691 -0.2210  0.1294  0.1263
  334POPC   D2A 4495   3.243   3.012   5.080  0.2085  0.4090  0.2054
  334POPC   C3A 4496   2.989   2.760   5.422  0.0122  0.0329  0.1124
  334POPC   C4A 4497   3.128   2.427   5.587 -0.0944 -0.3252  0.3023
  334POPC   C1B 4498   2.807   2.848   4.919  0.0452 -0.1734 -0.0588
  334POPC   C2B 4499   2.515   2.785   5.289 -0.1383  0.0628 -0.2251
  334POPC   C3B 4500   2.250   2.833   5.599  0.2103  0.0353  0.1401
  334POPC   C4B 4501   1.944   2.601   5.832 -0.1367 -0.1245 -0.0390
  335POPC   NC3 4502   4.923   6.378   4.363 -0.0953  0.1463 -0.1155
  335POPC   PO4 4503   4.406   6.351   4.464  0.2894 -0.0503  0.0308
  335POPC   GL1 4504   4.654   6.371   4.850 -0.3072 -0.0548 -0.2469
  335POPC   GL2 4505   4.641   6.100   5.009 -0.0062  0.2133 -0.3740
  335POPC   C1A 4506   4.869   6.459   5.227 -0.0697  0.1246 -0.1437
  335POPC   D2A 4507   4.891   6.837   5.447 -0.0869  0.2837 -0.2006
  335POPC   C3A 4508   4.855   6.747   5.907 -0.2367 -0.0561  0.0771
  335POPC   C4A 4509   4.803   6.767   6.351  0.1860  0.0637 -0.0976
  335POPC   C1B 4510   4.437   6.193   5.277  0.1326  0.0795 -0.0586
  335POPC   C2B 4511   4.582   6.373   5.617  0.3086 -0.3833 -0.1297
  335POPC   C3B 4512   4.729   6.277   6.095 -0.3689 -0.1184  0.0507
  335POPC   C4B 4513   5.151   6.042   6.268  0.3311 -0.1668 -0.1539
  336POPC   NC3 4514   6.633   6.188   4.093 -0.3373 -0.1863  0.0138
  336POPC   PO4 4515   6.329   6.102   4.366  0.0783  0.1694  0.0233
  336POPC   GL1 4516   6.397   6.010   4.765  0.3478  0.2071  0.2034
  336POPC   GL2 4517   6.617   5.757   4.668  0.0940  0.0924 -0.0249
  336POPC   C1A 4518   6.193   5.968   5.313 -0.2480 -0.1104  0.0909
  336POPC   D2A 4519   6.280   6.086   5.721 -0.2105  0.0972  0.2639
  336POPC   C3A 4520   6.728   6.273   5.685  0.1627  0.1318 -0.1763
  336POPC   C4A 4521   7.096   6.344   5.980  0.1319  0.0494 -0.1899
  336POPC   C1B 4522   6.888   5.975   4.949  0.0438  0.0957 -0.0923
  336POPC   C2B 4523   7.147   5.986   5.321  0.1211 -0.1522 -0.1926
  336POPC   C3B 4524   7.171   5.757   5.726 -0.0217 -0.1432 -0.0383
  336POPC   C4B 4525   7.184   5.685   6.232 -0.2739  0.0509 -0.1669
  337POPC   NC3 4526   4.230   4.417   4.220  0.1260 -0.0204 -0.0984
  337POPC   PO4 4527   4.030   4.051   4.156 -0.0429  0.3152  0.0368
  337POPC   GL1 4528   3.962   3.800   4.601 -0.1858 -0.2523 -0.1083
  337POPC   GL2 4529   3.735   3.908   4.809  0.1530  0.0145 -0.1322
  337POPC   C1A 4530   4.057   3.891   5.130  0.0354  0.0969  0.1321
  337POPC   D2A 4531   4.324   3.708   5.368  0.2832  0.0484 -0.2828
  337POPC   C3A 4532   4.142   3.372   5.501 -0.0204  0.0827  0.0152
  337POPC   C4A 4533   3.649   3.177   5.577 -0.0726  0.4596 -0.0859
  337POPC   C1B 4534   3.431   3.909   5.101  0.1440 -0.1937  0.0675
  337POPC   C2B 4535   3.182   4.023   5.483 -0.1199 -0.2996 -0.0777
  337POPC   C3B 4536   2.903   3.990   5.898 -0.0468 -0.0088  0.2954
  337POPC   C4B 4537   3.007   3.787   6.197  0.3469 -0.0375 -0.0647
  338W        W 4538   9.433   9.628   1.588 -0.0108 -0.0407  0.3740
  339W        W 4539  10.687   8.413   8.251  0.0550 -0.1414 -0.0337
  340W        W 4540   7.437   9.193  12.120  0.2226  0.1561 -0.2215
  341W        W 4541   5.744   7.010  12.084 -0.3025  0.2427 -0.2458
  342W        W 4542   5.006   0.939   0.236 -0.2086  0.0654  0.1404
  343W        W 4543   4.629   7.782   4.238 -0.3170  0.1499  0.2039
  344W        W 4544   0.694   4.823   3.119 -0.0906 -0.1014  0.1995
  345W        W 4545   1.192   1.699   0.559 -0.0445 -0.0554  0.0483
  346W        W 4546   1.160   2.482  12.252 -0.2563 -0.0320 -0.1934
  347W        W 4547  10.326   8.219   3.093 -0.0035  0.1036 -0.3791
  348W        W 4548   0.723   0.750   1.849  0.0928 -0.0498  0.1296
  349W        W 4549   3.701   7.996  10.088 -0.0172 -0.1951 -0.1293
  350W        W 4550   5.707   6.205   2.298  0.1053 -0.0822 -0.3147
  351W        W 4551   9.858   2.891   3.418  0.2332 -0.1297 -0.2104
  352W        W 4552  10.033   7.373  11.372  0.1853  0.2555  0.0079
  353W        W 4553   5.518   6.116   1.209  0.1135 -0.2267  0.2062
  354W        W 4554   6.400   3.151  12.015 -0.0988  0.1226 -0.2534
  355W        W 4555   7.128   2.865   8.523  0.2030 -0.0092  0.2105
  356W        W 4556  10.685   9.407   2.233 -0.0784 -0.1200 -0.0625
  357W        W 4557   1.072  10.668   2.289 -0.1107  0.0296  0.0474
  358W        W 4558   4.308   4.313   2.372 -0.2729 -0.0454  0.1298
  359W        W 4559   8.597   7.183   9.628  0.0681  0.1273  0.1296
  360W        W 4560   7.890   0.920   1.126 -0.2863 -0.1399 -0.2611
  361W        W 4561   2.223   4.422   1.596  0.1837  0.2378  0.0105
  362W        W 4562   2.354   1.921   0.852  0.1812  0.0046  0.0199
  363W        W 4563   3.956   2.514   2.241 -0.0966  0.3068 -0.1501
  364W        W 4564  10.535   9.918  12.665  0.0060  0.2562 -0.0387
  365W        W 4565   0.971   4.382   1.391  0.0085 -0.2501  0.1989
  366W        W 4566   8.232   2.783  11.208  0.1103 -0.0561 -0.3005
  367W        W 4567   4.891   0.568  10.753 -0.0009  0.1003  0.1932
  368W        W 4568   6.385   8.850   0.255  0.2557  0.3895 -0.0854
  369W        W 4569  10.655   5.271  10.572 -0.1142 -0.0764  0.0806
  370W        W 4570   0.825   5.639  11.113 -0.0076  0.0497 -0.0106
  371W        W 4571   7.273   8.139   1.162  0.2068 -0.1795 -0.1899
  372W        W 4572   0.205   4.087   0.472  0.0740  0.0828  0.2163
  373W        W 4573   6.810   7.517  11.417  0.2513  0.0623  0.1080
  374W        W 4574   8.555   7.716   0.210 -0.4781 -0.3089  0.1921
  375W        W 4575   6.108   4.013   0.818 -0.0821  0.0619 -0.0182
  376W        W 4576  10.440  10.349  12.527  0.2803  0.0490  0.0668
  377W        W 4577   0.922   2.961   1.586 -0.0444  0.0329 -0.2556
  378W        W 4578   7.234   0.373  11.794  0.1054 -0.1347 -0.1136
  379W        W 4579   8.077   0.552  11.385 -0.1210 -0.0765  0.1541
  380W        W 4580   7.869   5.418   0.009 -0.4941  0.0387  0.1889
  381W        W 4581   6.723   2.660   2.106  0.0521  0.0311  0.1175
  382W        W 4582   9.539   1.607   2.294  0.0054 -0.0398 -0.2216
  383W        W 4583   8.654   9.540  11.066  0.1482 -0.1711  0.0649
  384W        W 4584   6.867   9.229   3.667  0.0591  0.1126 -0.1696
  385W        W 4585   9.269  10.112   0.274  0.1281 -0.3160 -0.0139
  386W        W 4586   0.185   5.603   1.701 -0.0753 -0.2065  0.2553
  387W        W 4587  10.369   8.567   7.478 -0.0042 -0.0810  0.2113
  388W        W 4588   1.858   6.415   1.576 -0.1847  0.0020  0.2768
  389W        W 4589   5.696   9.008  11.696 -0.2737 -0.3371  0.2695
  390W        W 4590  10.216   4.729  10.095 -0.3128  0.3924 -0.1221
  391W        W 4591   8.465   1.158   9.882  0.1079  0.2016 -0.4470
  392W        W 4592   2.150   8.090   8.261 -0.1133 -0.3535 -0.1533
  393W        W 4593   4.143   1.270   2.193  0.0486 -0.1743 -0.0835
  394W        W 4594   1.586   1.575   0.258 -0.1171 -0.2099 -0.0663
  395W        W 4595   0.538   7.032   2.290  0.0970 -0.0113 -0.5268
  396W        W 4596   7.929   7.806  12.717  0.0311  0.2023  0.0360
  397W        W 4597   5.569   8.239   2.711 -0.0533 -0.0881 -0.2766
  398W        W 4598   3.424   7.303   0.361 -0.0591 -0.1579  0.1616
  399W        W 4599   8.913   9.928   0.770 -0.0182  0.2473  0.0155
  400W        W 4600   0.754   8.286   4.013 -0.1147  0.0488 -0.1896
  401W        W 4601   4.431   4.916   9.624  0.0690  0.0522 -0.1430
  402W        W 4602   1.234   5.845  11.244  0.0887  0.1395 -0.3532
  403W        W 4603   6.712  10.032  11.666  0.0522 -0.1908  0.2174
  404W        W 4604   6.316   1.549   9.869  0.0120 -0.0963 -0.2701
  405W        W 4605   2.963   4.306   0.207 -0.1992 -0.0736 -0.1876
  406W        W 4606   8.406   7.374   8.671  0.0070  0.2289  0.0277
  407W        W 4607   8.044   0.676   4.308  0.1753 -0.1338 -0.0970
  408W        W 4608   6.540   7.781   9.945  0.0025  0.0957 -0.2456
  409W        W 4609   7.601   9.468   0.848  0.1427 -0.1720 -0.2081
  410W        W 4610   4.247   6.280   1.203 -0.1974 -0.1502  0.0611
  411W        W 4611   2.733   7.418   2.086 -0.1140  0.0136  0.0351
  412W        W 4612   7.950   9.280   0.214  0.1915 -0.0467 -0.0781
  413W        W 4613   2.887   5.155   1.019  0.1911 -0.2129  0.4200
  414W        W 4614   5.697   6.181   1.772  0.0419 -0.0553  0.0852
  415W        W 4615   7.933   7.239  11.386 -0.3618 -0.1349  0.1562
  416W        W 4616   8.888   1.171   0.957 -0.1037 -0.1165  0.1315
  417W        W 4617   4.668   4.907  10.209  0.0184 -0.1525 -0.2392
  418W        W 4618   8.295   9.042   3.242  0.2999 -0.0915 -0.4097
  419W        W 4619   1.456   0.474   8.619  0.1289 -0.2296  0.0257
  420W        W 4620   7.626   4.686   2.672  0.2958  0.1428 -0.2310
  421W        W 4621   3.203   3.225   9.342 -0.2961 -0.0295 -0.1142
  422W        W 4622   5.101   2.802   7.839 -0.1412  0.1590 -0.0087
  423W        W 4623   0.517   8.602   0.755 -0.0411  0.4079  0.1127
  424W        W 4624   1.788  10.073   0.254  0.1210  0.1851 -0.1969
  425W        W 4625   2.176   2.882   0.942 -0.1135  0.0016 -0.1412
  426W        W 4626   1.310   0.647   1.976  0.1087  0.0402 -0.0235
  427W        W 4627   1.210   8.749  12.182  0.1690  0.1651 -0.0614
  428W        W 4628   6.243   2.926   9.263  0.0344 -0.3713  0.0911
  429W        W 4629   0.123   1.701   2.707 -0.0067 -0.0871 -0.0048
  430W        W 4630   1.794   3.471   9.592 -0.2268 -0.0283  0.1106
  431W        W 4631   6.294   9.086  11.671 -0.1032  0.2553 -0.0880
  432W        W 4632   4.708   0.416   0.588 -0.1010  0.3963  0.2232
  433W        W 4633   7.613   3.617   0.623 -0.2641 -0.3893  0.1315
  434W        W 4634   5.784   6.217  10.169 -0.1520 -0.2206  0.1367
  435W        W 4635   2.630   6.466   0.920  0.3206  0.3349 -0.4338
  436W        W 4636   0.242   6.397   4.386  0.3024 -0.0860  0.3887
  437W        W 4637   9.084   3.391  12.635 -0.0863 -0.1865 -0.1292
  438W        W 4638   0.718   4.450   8.489 -0.1562  0.0174  0.1618
  439W        W 4639   4.059   1.184   8.563  0.0409  0.0078  0.0244
  440W        W 4640   1.301   3.612   0.107 -0.4464  0.0722 -0.2447
  441W        W 4641   4.951   9.991  12.350 -0.3337 -0.0929  0.1780
  442W        W 4642  10.307   8.369   3.659 -0.3913  0.5411 -0.1155
  443W        W 4643   9.788   3.992   0.591  0.2098 -0.3215 -0.1170
  444W        W 4644   5.992   9.816  12.151 -0.1688  0.1373  0.0598
  445W        W 4645   0.758   3.327   3.280  0.0566  0.2967 -0.0421
  446W        W 4646   6.127   8.259   3.093 -0.2773 -0.2580  0.2340
  447W        W 4647   9.451   5.336   2.780  0.1115  0.0066 -0.3073
  448W        W 4648   3.753   5.655   1.619  0.1057 -0.0397 -0.3293
  449W        W 4649   5.183   5.443   2.013 -0.1086  0.3687 -0.0052
  450W        W 4650   5.810   8.960   0.433  0.5265  0.2876 -0.1332
  451W        W 4651   5.541   0.710  12.751  0.0022 -0.3474 -0.0365
  452W        W 4652   5.405   0.559   2.024 -0.0383 -0.0871 -0.2566
  453W        W 4653   7.048   3.904   9.159 -0.0268 -0.1055  0.2247
  454W        W 4654   1.777   8.297  11.852 -0.0779  0.0369  0.0106
  455W        W 4655   2.435   9.588  11.893  0.0290 -0.3879  0.2790
  456W        W 4656   4.640   0.082   1.480  0.2011  0.3042  0.0214
  457W        W 4657   8.873   3.454   2.526  0.0360 -0.1057  0.0536
  458W        W 4658   4.201   9.117  11.595 -0.0147 -0.0547 -0.2011
  459W        W 4659   2.794   1.853  11.413 -0.0878 -0.0104 -0.0823
  460W        W 4660  10.329   8.816  10.150  0.1000  0.0720 -0.0907
  461W        W 4661   0.682   1.985   9.819  0.0477  0.2208 -0.0597
  462W        W 4662   9.244   3.027   1.122 -0.0895 -0.2512  0.1257
  463W        W 4663  10.177   6.201  10.035  0.0473 -0.3197  0.1579
  464W        W 4664   4.617   8.007  10.235 -0.0984  0.0570 -0.2184
  465W        W 4665   8.970   5.093   0.128 -0.0321  0.1668 -0.4139
  466W        W 4666   0.510   7.894   2.383  0.0990 -0.2336  0.0473
  467W        W 4667   5.102   6.226  10.140  0.1909 -0.1084 -0.2287
  468W        W 4668   0.002   7.941   8.664 -0.1788  0.2088  0.2081
  469W        W 4669   4.817  10.193  10.316 -0.0260 -0.1668 -0.1816
  470W        W 4670   3.901   1.711  11.899 -0.0757 -0.1210 -0.0232
  471W        W 4671   6.801   8.453   2.013  0.0082 -0.1546  0.3391
  472W        W 4672   3.210   7.955  12.656 -0.2247 -0.1506 -0.2050
  473W        W 4673  10.078   6.857   3.581  0.0502 -0.2287 -0.3271
  474W        W 4674   5.466   8.622   1.519 -0.1898 -0.1107 -0.3689
  475W        W 4675   5.178   4.690   0.515  0.4119  0.2491  0.0270
  476W        W 4676  10.195   5.166  10.363 -0.0940  0.2373 -0.0202
  477W        W 4677   5.629   5.330  12.202  0.1744  0.5672  0.1671
  478W        W 4678   2.032   1.271  11.427  0.2293  0.2031 -0.0196
  479W        W 4679   8.856   7.793   8.770 -0.0550 -0.2282 -0.0050
  480W        W 4680   1.190  10.480  11.176 -0.2049  0.0306 -0.0731
  481W        W 4681   7.145   5.766   7.315 -0.0280 -0.0576 -0.2438
  482W        W 4682   7.410   6.381  11.377  0.1269  0.1973 -0.0115
  483W        W 4683   9.247   2.255   0.340  0.3724 -0.1529 -0.1440
  484W        W 4684   6.878   7.645  11.950  0.1188  0.1191 -0.0509
  485W        W 4685   3.158   3.074   8.851  0.1479 -0.0717 -0.4666
  486W        W 4686   4.045   1.568  10.649 -0.2345  0.2261  0.1424
  487W        W 4687   4.326   6.097   3.495 -0.0994 -0.2154 -0.0348
  488W        W 4688  10.163   0.723   3.865  0.1090 -0.2037  0.0176
  489W        W 4689  10.145   4.630  11.154  0.4851 -0.1111  0.1169
  490W        W 4690  10.466  10.699   8.753 -0.1317  0.0928  0.3301
  491W        W 4691   5.704   1.732  12.244  0.1278 -0.0260  0.3964
  492W        W 4692   6.454   9.391   9.906  0.2979 -0.1816  0.0710
  493W        W 4693   1.947   7.158   1.997 -0.0892  0.0679  0.3898
  494W        W 4694   5.668   4.682   0.594  0.2609  0.1317 -0.4523
  495W        W 4695   1.862   9.642  12.197  0.2140 -0.0939 -0.2208
  496W        W 4696   2.520   2.138   9.836 -0.1220  0.0935  0.0303
  497W        W 4697   2.877  10.278  12.474 -0.0619  0.1649 -0.2325
  498W        W 4698   4.919   2.140   1.764  0.1747  0.0988  0.2190
  499W        W 4699   9.035   0.149   2.306 -0.0806 -0.1376 -0.4697
  500W        W 4700   2.414   5.784  12.130  0.0526 -0.1114 -0.2830
  501W        W 4701   1.795   3.406   9.100  0.1076 -0.0662  0.1186
  502W        W 4702   1.885   0.965   9.118 -0.2289 -0.1240 -0.2833
  503W        W 4703  10.691   0.257   2.488  0.0138  0.2404  0.1560
  504W        W 4704   6.322   2.889   0.322  0.2795 -0.5020 -0.3253
  505W        W 4705   8.991   3.869   1.054  0.0194 -0.2717  0.1004
  506W        W 4706   0.256   0.062   9.881 -0.0249 -0.1601 -0.2043
  507W        W 4707   2.256   5.263   8.724 -0.0402 -0.2729  0.3633
  508W        W 4708   9.284   1.581  11.681  0.1932 -0.0810 -0.1170
  509W        W 4709   1.953  10.415  12.226 -0.0700  0.2967  0.0315
  510W        W 4710   7.009   4.004   8.108  0.1771 -0.1748  0.1190
  511W        W 4711   5.879   0.925  10.891  0.0006  0.0659 -0.0699
  512W        W 4712   8.090  10.575  11.614  0.2313  0.2438  0.0296
  513W        W 4713   6.119   5.055   2.809  0.2211  0.2748  0.1004
  514W        W 4714   7.642  10.259   9.533 -0.0440  0.0096 -0.1961
  515W        W 4715   2.439   7.498   3.457  0.1393 -0.0196 -0.0042
  516W        W 4716   7.658   3.866   3.468  0.0252  0.1862  0.0057
  517W        W 4717   6.966  10.322   9.836 -0.1861  0.0846  0.2079
  518W        W 4718   7.975   1.273   9.991 -0.3757 -0.1784  0.2310
  519W        W 4719   2.590   5.818   3.071 -0.0601 -0.1306  0.0574
  520W        W 4720   8.014   8.257   2.852 -0.0407  0.2590  0.2069
  521W        W 4721   6.873   0.794   9.744  0.0701  0.3705  0.0160
  522W        W 4722   4.774   3.371   9.708 -0.0310  0.1453  0.2568
  523W        W 4723   4.228   7.742  10.532 -0.1340  0.2161 -0.0982
  524W        W 4724   1.990   2.073  11.704  0.2310 -0.0952  0.0307
  525W        W 4725   8.603   2.351   3.213  0.2688  0.1641 -0.1076
  526W        W 4726   8.521   1.550   9.453 -0.0305 -0.3310  0.3079
  527W        W 4727   2.392   9.345   3.260 -0.1067  0.1300 -0.1202
  528W        W 4728   3.777   1.138  10.975 -0.0858  0.1176 -0.2334
  529W        W 4729   2.955   6.935   1.715 -0.0941 -0.3151 -0.0831
  530W        W 4730   3.957  10.054   9.313 -0.0653 -0.0358 -0.0407
  531W        W 4731  10.264   3.352  10.307 -0.0580  0.1732 -0.0510
  532W        W 4732   7.458   5.769   0.155 -0.0453 -0.2556  0.3197
  533W        W 4733   3.624   1.762   9.059  0.1305 -0.2570 -0.1422
  534W        W 4734   3.935   8.177   1.881 -0.0824  0.2007  0.2125
  535W        W 4735   2.348   0.188  11.423 -0.3035 -0.0108 -0.1453
  536W        W 4736   3.998   5.729  10.625 -0.0139  0.3510 -0.1078
  537W        W 4737   8.837   1.148   1.569 -0.0568 -0.0095  0.0552
  538W        W 4738  10.244   7.958  10.567  0.0086  0.0505  0.0367
  539W        W 4739   3.282   7.376   1.829  0.3908  0.1433  0.1918
  540W        W 4740   3.731   6.508   1.759  0.0359 -0.0071 -0.1796
  541W        W 4741   8.945   2.171   1.234 -0.2204  0.1944  0.2595
  542W        W 4742   9.530   1.123  11.762  0.0573 -0.0124 -0.1700
  543W        W 4743   6.557   8.353   3.712 -0.0361  0.2542 -0.0536
  544W        W 4744   3.721  10.403   0.570 -0.1260  0.1466 -0.1794
  545W        W 4745   7.141   7.757   2.444  0.0028  0.0872  0.0574
  546W        W 4746   4.884   8.793   3.009  0.0625 -0.3499 -0.1733
  547W        W 4747   6.633   4.027  11.569 -0.1914  0.0774  0.0355
  548W        W 4748   7.590   0.015   9.490  0.1135 -0.0907  0.5290
  549W        W 4749   0.346   8.040  10.400  0.0544 -0.2911  0.0996
  550W        W 4750  10.570   0.960   8.714 -0.0224 -0.2725  0.2845
  551W        W 4751   6.194   7.490   7.440  0.4425 -0.0889  0.2125
  552W        W 4752   2.688   9.090  11.060  0.2671 -0.0868 -0.3177
  553W        W 4753   7.198   5.274   3.620 -0.1043 -0.0473 -0.1099
  554W        W 4754   3.365   9.212   3.782  0.2014  0.2312 -0.0927
  555W        W 4755   4.528   1.083  11.592  0.1789 -0.0549 -0.0106
  556W        W 4756   6.476   7.500   0.088 -0.1303  0.2345  0.0830
  557W        W 4757   9.969   3.852  10.880 -0.1696  0.0504  0.0518
  558W        W 4758   0.649   8.952  12.039  0.0604  0.2193 -0.4871
  559W        W 4759   6.146   4.902  11.461 -0.0417 -0.0936  0.1102
  560W        W 4760  10.324   2.829   1.467  0.0290 -0.0336 -0.2481
  561W        W 4761   9.622   7.134   3.543 -0.0505 -0.2565 -0.1947
  562W        W 4762   0.786  10.381   0.540 -0.0065 -0.2132 -0.1705
  563W        W 4763   6.260   9.933   9.495 -0.1511  0.2445  0.1898
  564W        W 4764   5.422   6.772   4.414 -0.4794 -0.1334  0.1373
  565W        W 4765   3.043   8.280  11.620 -0.0514 -0.0392 -0.0948
  566W        W 4766   9.745   2.675  10.797  0.2996  0.1236 -0.3899
  567W        W 4767   7.083   9.042   9.264  0.0552  0.0761  0.1386
  568W        W 4768   3.229   1.202   8.792  0.0037 -0.2528 -0.1695
  569W        W 4769   9.428   7.976  12.210 -0.0188 -0.1541 -0.0143
  570W        W 4770   4.348   3.445   1.410  0.1319  0.5329  0.0428
  571W        W 4771   8.493   6.196   9.657  0.3569  0.1647  0.0529
  572W        W 4772   5.153   2.187   0.402 -0.1866  0.1083  0.3038
  573W        W 4773   9.945   8.130   3.418  0.2220  0.0332  0.0089
  574W        W 4774   4.244   1.594  12.331 -0.0218  0.1417  0.0457
  575W        W 4775   0.130   6.472  11.112  0.0099 -0.1684  0.0471
  576W        W 4776   3.011   9.695   1.981 -0.2430  0.1018 -0.0351
  577W        W 4777   3.284   6.602   4.430 -0.0998 -0.3024  0.0818
  578W        W 4778   7.590   7.493   0.911 -0.0977  0.0108  0.0437
  579W        W 4779   9.735   8.648  11.519 -0.1884 -0.1369 -0.0514
  580W        W 4780   7.648   3.410   9.059 -0.0954 -0.2989 -0.2878
  581W        W 4781   5.131   6.777   2.325  0.0090 -0.0013  0.2031
  582W        W 4782   2.833   6.330   1.805  0.3973  0.2529  0.1224
  583W        W 4783   4.964   0.563  12.498  0.3173  0.0903  0.1192
  584W        W 4784   6.135   3.346   3.813  0.2205  0.3729 -0.1032
  585W        W 4785   6.789   0.881  10.289  0.0892  0.2180  0.0566
  586W        W 4786   1.881   8.060  10.237  0.2171  0.0843 -0.0161
  587W        W 4787   2.594   3.446   1.340  0.0226 -0.1145  0.0243
  588W        W 4788   8.455  10.234  10.571 -0.3086 -0.1691 -0.2480
  589W        W 4789   2.460   6.436   9.903 -0.1450  0.0360  0.1023
  590W        W 4790   2.244   8.090   0.024  0.2694 -0.2131 -0.0672
  591W        W 4791   5.685   9.594  10.090 -0.0288 -0.0748  0.0039
  592W        W 4792   7.442   7.094  11.543  0.3157 -0.0182 -0.0855
  593W        W 4793   2.529   5.037   2.354  0.2004  0.1486 -0.0681
  594W        W 4794   5.381   6.895   3.945  0.0684  0.0654  0.2988
  595W        W 4795   8.111   4.034  10.967 -0.2630  0.0840  0.1253
  596W        W 4796   6.240  10.037   1.102 -0.1205 -0.1425  0.0765
  597W        W 4797   9.712   7.108  10.581  0.0505 -0.1476  0.1887
  598W        W 4798   3.579   6.024   0.063  0.0454 -0.1783 -0.0899
  599W        W 4799   8.708   1.254   3.628  0.1179  0.1572 -0.1861
  600W        W 4800   7.787   2.454   8.981 -0.0683  0.1035 -0.1107
  601W        W 4801   2.043   5.007   9.078  0.0936  0.2204  0.2452
  602W        W 4802   3.953  10.449   0.143  0.1341  0.0145  0.1015
  603W        W 4803   0.887   2.916   0.334 -0.1476  0.1424  0.0204
  604W        W 4804   1.388   8.583   3.869 -0.4568  0.3499  0.2036
  605W        W 4805   6.755   5.835   3.263 -0.0358  0.0155 -0.2912
  606W        W 4806   4.929   4.256   0.103 -0.0401 -0.3770  0.2010
  607W        W 4807   7.803   9.033  11.280 -0.0383 -0.2149  0.0340
  608W        W 4808   5.791   8.784   3.294 -0.0188 -0.0941  0.0509
  609W        W 4809   4.888   1.487   8.531  0.1324  0.0725 -0.0307
  610W        W 4810   1.588   5.225   2.354 -0.2924 -0.0225 -0.0254
  611W        W 4811   9.826   1.450   3.625 -0.2845 -0.0786 -0.1954
  612W        W 4812   7.931   5.830   0.350  0.2972 -0.2979  0.1250
  613W        W 4813   0.344   6.593   9.271 -0.0709 -0.0608 -0.0932
  614W        W 4814   2.796   4.128  11.359 -0.0145  0.0822 -0.0082
  615W        W 4815   2.180   7.157   8.337 -0.2308  0.1055 -0.0294
  616W        W 4816   0.264   5.194   2.311 -0.1102  0.2415  0.1413
  617W        W 4817   2.961   4.746   1.206  0.2451  0.1944 -0.1326
  618W        W 4818   2.289   9.923  10.697  0.1053 -0.3374 -0.0157
  619W        W 4819   3.997   4.804  12.411  0.1103 -0.1317 -0.1610
  620W        W 4820   1.087   7.289   9.272 -0.1370  0.1560  0.1482
  621W        W 4821   2.308   3.019   9.336  0.0551 -0.0860  0.4823
  622W        W 4822   4.374   3.420   8.367 -0.0419  0.3015 -0.1898
  623W        W 4823   4.504   0.348   8.535 -0.1244 -0.3279  0.1642
  624W        W 4824  10.526   6.669   1.854  0.1135  0.2928 -0.0743
  625W        W 4825   4.832   9.909   0.962  0.3636 -0.0660 -0.0163
  626W        W 4826  10.123   4.160   1.511 -0.1467  0.1277  0.3061
  627W        W 4827   7.311   1.161  10.473  0.0541  0.1266 -0.1194
  628W        W 4828   0.671   2.842   9.535  0.1635 -0.3522 -0.0090
  629W        W 4829   7.680  10.247  11.167  0.0999  0.0927  0.0900
  630W        W 4830   3.871   5.042   2.709 -0.0393 -0.3678 -0.0755
  631W        W 4831   1.516   3.871   9.580 -0.1184 -0.1780 -0.1660
  632W        W 4832   7.992   0.903   1.850 -0.4118  0.1203  0.0333
  633W        W 4833   6.437   5.134   9.951  0.2704  0.1162 -0.0949
  634W        W 4834   4.268   3.254   9.778 -0.2133 -0.0456 -0.1182
  635W        W 4835   7.608   6.889   9.567  0.3061  0.1504 -0.2040
  636W        W 4836   6.568   4.802  11.318 -0.1812  0.2907  0.0092
  637W        W 4837   9.131   9.081   2.336  0.0338  0.1171 -0.2290
  638W        W 4838   7.872   5.568   9.240  0.0264 -0.1081 -0.2274
  639W        W 4839   0.091   6.688  11.762 -0.0934  0.0414 -0.1021
  640W        W 4840   1.252   1.872  10.126 -0.0036 -0.0112  0.0426
  641W        W 4841  10.244   9.369   1.714 -0.4900  0.2390  0.2760
  642W        W 4842   3.541   5.591   9.188 -0.0391  0.2745  0.1109
  643W        W 4843   2.138   2.801   0.105 -0.2030  0.0774  0.3811
  644W        W 4844   0.163   4.748   0.495  0.3961  0.0844  0.2670
  645W        W 4845   6.580   6.315  10.390 -0.0825 -0.1168  0.0576
  646W        W 4846   2.988   9.725   0.780 -0.2207  0.0411 -0.0877
  647W        W 4847   0.150   6.022   8.908  0.3154  0.0391  0.1450
  648W        W 4848   6.130   8.089   8.465 -0.0216  0.0596 -0.1100
  649W        W 4849   7.680   1.204   1.989 -0.2505 -0.1195  0.2104
  650W        W 4850   6.188   1.530   2.754  0.3060 -0.0251  0.1345
  651W        W 4851   2.521  10.155   2.995  0.2275  0.2761  0.2054
  652W        W 4852   3.359   2.530  12.196 -0.1233  0.0771 -0.0920
  653W        W 4853   5.113   1.147   3.223 -0.2658 -0.2243 -0.2117
  654W        W 4854   4.130   4.297   4.677 -0.2096 -0.0813 -0.1917
  655W        W 4855   0.287   1.928   2.070 -0.1652  0.1581 -0.0213
  656W        W 4856   0.796   8.972   2.446  0.3042 -0.1115  0.3616
  657W        W 4857   6.200   7.122   4.115 -0.0914 -0.0993  0.0820
  658W        W 4858   1.068   5.398  12.133 -0.2448 -0.3859 -0.0474
  659W        W 4859   2.541   2.824   1.385  0.1606  0.0857  0.1301
  660W        W 4860   6.052   3.315   9.444 -0.0874 -0.1321 -0.1446
  661W        W 4861   7.616   9.257  10.876  0.1662  0.1212  0.6767
  662W        W 4862   6.914   3.454  11.407 -0.2894  0.0606 -0.1870
  663W        W 4863   5.713   4.903   3.834 -0.0871 -0.1976  0.1146
  664W        W 4864   7.595   9.852  10.706 -0.0704 -0.1229  0.0420
  665W        W 4865   8.374   7.835   3.101  0.1484 -0.0713  0.2084
  666W        W 4866   5.200   8.645  11.671 -0.2738 -0.2703 -0.0910
  667W        W 4867   2.176   6.324   8.593  0.0945 -0.2696  0.0906
  668W        W 4868   2.380   7.288  12.393  0.1650  0.1858 -0.2238
  669W        W 4869   9.450   9.117  10.778 -0.1977 -0.0389 -0.0183
  670W        W 4870   3.848   8.376   9.850 -0.0940 -0.0408 -0.0112
  671W        W 4871   5.190   8.769   9.506 -0.0353 -0.3505  0.0296
  672W        W 4872   5.339   9.593   1.688  0.1640  0.0294  0.1513
  673W        W 4873   7.833   4.508   9.988 -0.0465  0.1134  0.1441
  674W        W 4874   2.489   0.371   2.594  0.3668 -0.0230  0.1053
  675W        W 4875   7.948   2.511   9.560  0.1237 -0.1689 -0.2567
  676W        W 4876   4.114   7.846   2.888  0.4099  0.0783  0.0318
  677W        W 4877   7.470   7.536   0.005  0.2074  0.1358  0.0040
  678W        W 4878   6.209  10.155   1.615 -0.3010  0.3685 -0.0003
  679W        W 4879   9.742   7.633  12.386  0.2731  0.0668 -0.0984
  680W        W 4880   4.337   4.961   4.188  0.2003  0.2610  0.1407
  681W        W 4881   6.330   1.501  11.344 -0.5101  0.3204 -0.0696
  682W        W 4882   6.874   3.557   0.720 -0.2566 -0.0683  0.0477
  683W        W 4883   0.312   1.714  11.057 -0.1991  0.0013  0.0040
  684W        W 4884   2.882   4.880   8.983  0.0488 -0.1837 -0.1164
  685W        W 4885   3.096   4.486   1.732 -0.1284  0.1612 -0.1392
  686W        W 4886   9.661   5.463  12.444  0.3739  0.2812  0.0717
  687W        W 4887   4.095   6.169   4.815 -0.0205 -0.0856 -0.1009
  688W        W 4888   7.673  10.458  12.591  0.1748  0.1711 -0.1290
  689W        W 4889   1.773   7.514   8.559 -0.0082  0.0159 -0.2648
  690W        W 4890   3.282   1.920  10.940 -0.3715 -0.0045 -0.1108
  691W        W 4891   6.464   0.067   0.384  0.0278  0.0081 -0.0472
  692W        W 4892   3.499   9.917   0.546  0.1823  0.0613  0.3077
  693W        W 4893   2.136   9.273  11.550  0.0240 -0.2460  0.1882
  694W        W 4894   0.172   3.924   9.272  0.1510 -0.1685  0.1308
  695W        W 4895   1.481   6.520  10.188 -0.1152 -0.2498 -0.0583
  696W        W 4896   6.792   3.678   1.247  0.0648  0.0808 -0.4191
  697W        W 4897   0.937  10.473  12.150 -0.1684  0.1226 -0.0253
  698W        W 4898   4.629   8.634   9.245 -0.1897  0.1399  0.0729
  699W        W 4899   7.816   9.318  12.489  0.2351 -0.2814  0.1969
  700W        W 4900   5.107   4.374   3.629 -0.0851  0.1308  0.2125
  701W        W 4901   0.856   8.207  11.440  0.1432  0.4391 -0.1138
  702W        W 4902  10.344   4.989   0.687 -0.5381 -0.0492  0.1724
  703W        W 4903   9.296   2.796  12.631  0.1428 -0.0278  0.1206
  704W        W 4904   4.246   5.078  11.170 -0.2827 -0.1921 -0.0726
  705W        W 4905   5.880   9.986   2.384  0.3640 -0.0877  0.1205
  706W        W 4906   3.205   3.652  11.466 -0.1055 -0.1166 -0.1642
  707W        W 4907   3.416   6.083   9.379  0.0722  0.0726 -0.2411
  708W        W 4908   0.117   9.718   3.596 -0.0569 -0.0181 -0.0380
  709W        W 4909   2.454   4.925  10.935  0.1416  0.0778 -0.3041
  710W        W 4910   8.558   0.285   9.782 -0.0815  0.1725 -0.2004
  711W        W 4911   4.148   2.459   3.226  0.0817 -0.1357  0.0630
  712W        W 4912   3.244   7.464   2.405 -0.0593 -0.4838  0.0676
  713W        W 4913   1.367   9.522  12.060 -0.0624  0.0035  0.0217
  714W        W 4914   7.779   6.682  11.616 -0.1200  0.2049 -0.1758
  715W        W 4915  10.070   9.530  11.645  0.0837  0.2346 -0.2582
  716W        W 4916   1.260   5.829   2.102 -0.3026 -0.1163 -0.2200
  717W        W 4917   0.595  10.347   2.980  0.0273 -0.0880 -0.1631
  718W        W 4918   2.310   7.273   1.319 -0.0382 -0.0844  0.0116
  719W        W 4919   1.338   8.098   8.730 -0.4535  0.0030 -0.1934
  720W        W 4920   0.073   4.685   1.501  0.0650 -0.1335 -0.1394
  721W        W 4921   5.335   2.000   2.733  0.1782  0.0380  0.0106
  722W        W 4922   3.134   1.677   9.019  0.1194  0.1784  0.1353
  723W        W 4923   8.243   6.878   7.749  0.2016  0.3372 -0.2968
  724W        W 4924   7.764   4.257   8.935 -0.3684 -0.1376  0.1472
  725W        W 4925   4.445   3.797   1.756 -0.2206 -0.1317  0.3968
  726W        W 4926   6.077   6.790   8.544  0.0381 -0.1760 -0.0064
  727W        W 4927   7.205   2.487   1.968 -0.0188 -0.1756  0.0764
  728W        W 4928   2.223   9.822   2.090 -0.0287  0.2767 -0.1953
  729W        W 4929   5.039   8.928   9.002  0.2844  0.0184 -0.2701
  730W        W 4930   4.679   8.646   2.519  0.2935 -0.1668  0.3042
  731W        W 4931   3.587   9.412  11.060 -0.1946 -0.1766 -0.4334
  732W        W 4932   1.870   5.651   1.080  0.1327 -0.4309 -0.0254
  733W        W 4933  10.402   7.613  12.249  0.1144  0.0500 -0.1184
  734W        W 4934   8.985   3.217   1.480 -0.2367  0.0290  0.2123
  735W        W 4935  10.576   1.216  11.741  0.0107  0.0929 -0.3573
  736W        W 4936   4.106   0.181   8.790  0.2676 -0.3990 -0.3065
  737W        W 4937   4.659   4.290   3.847 -0.0186  0.0916 -0.1922
  738W        W 4938   9.275   5.069  11.060  0.0866 -0.0800  0.0957
  739W        W 4939   7.300   4.366  11.190 -0.1623  0.0240  0.2119
  740W        W 4940   3.762   7.461   0.688  0.4210 -0.2432  0.2045
  741W        W 4941   4.115   2.684  10.376  0.0889 -0.1708 -0.1307
  742W        W 4942   8.714   8.036  10.588  0.0268 -0.1013 -0.3426
  743W        W 4943   8.047   8.804   8.618  0.0535  0.0781  0.0675
  744W        W 4944   0.168   0.014   1.250  0.2388 -0.2791 -0.0336
  745W        W 4945   3.800   2.149  10.414 -0.1807  0.3765 -0.1505
  746W        W 4946   5.807   6.650  11.788 -0.3246  0.0525 -0.3536
  747W        W 4947   0.228   5.043   1.808  0.0901 -0.3122 -0.2888
  748W        W 4948   5.296   8.973  12.647 -0.0445  0.0652  0.1557
  749W        W 4949   4.108   9.260   8.789 -0.2188  0.1643 -0.1347
  750W        W 4950   6.709   2.001  12.213 -0.0968 -0.2004  0.1022
  751W        W 4951   5.276   8.437   3.987 -0.0401 -0.2038  0.2142
  752W        W 4952   1.123   4.614  10.630 -0.0530 -0.2787  0.1443
  753W        W 4953   0.841   1.274   2.568  0.4045  0.1434 -0.0275
  754W        W 4954   3.200   4.835   0.319  0.0767  0.0638 -0.1364
  755W        W 4955  10.080   6.041   2.834  0.1629 -0.0488  0.1662
  756W        W 4956   0.049   7.911   0.562 -0.2814 -0.2413  0.1581
  757W        W 4957   8.651   1.793  10.335 -0.0015  0.1278 -0.0175
  758W        W 4958   6.026   6.779   1.964 -0.1528  0.2186 -0.2354
  759W        W 4959   9.860   5.713  12.820  0.1242 -0.2331 -0.0735
  760W        W 4960   1.636   5.923   9.867  0.0512 -0.0924 -0.1003
  761W        W 4961   3.023   8.934   9.976 -0.2607  0.0321  0.2165
  762W        W 4962   4.433   7.162   3.373  0.4808  0.3916 -0.0817
  763W        W 4963   8.262   4.545   2.379  0.0286 -0.2880 -0.0330
  764W        W 4964   1.685   1.277  10.540  0.0055  0.0643  0.0630
  765W        W 4965   7.788   8.657   2.130 -0.1948 -0.1020  0.0548
  766W        W 4966   2.917   1.683   0.541 -0.1725 -0.0025 -0.1093
  767W        W 4967   5.026   1.817   0.837  0.2105 -0.0185  0.0625
  768W        W 4968   5.290   0.301   0.983  0.0038  0.4610 -0.1246
  769W        W 4969   9.452   5.594   8.299  0.1136 -0.1592  0.1696
  770W        W 4970  10.066   3.153   9.790 -0.1399 -0.0395 -0.3642
  771W        W 4971   1.405   9.170   8.928  0.0916  0.3131 -0.1103
  772W        W 4972   0.500   2.351  10.650  0.4369 -0.2942  0.1956
  773W        W 4973  10.335   7.663   8.710  0.1439  0.1278  0.3676
  774W        W 4974   7.646   7.629   8.877  0.1441 -0.0883 -0.5235
  775W        W 4975   0.672   5.048   2.583 -0.3329  0.1657  0.2078
  776W        W 4976   2.826   7.254  11.993 -0.1540  0.0913  0.2232
  777W        W 4977   1.408   7.265  10.798  0.0228  0.0945 -0.1478
  778W        W 4978   2.087   1.851   8.092  0.1460  0.5098  0.0054
  779W        W 4979   2.022   6.961   0.942 -0.3156  0.0497  0.1116
  780W        W 4980   8.735   2.894  10.597 -0.2129 -0.0149  0.1442
  781W        W 4981   7.326  10.428  10.476  0.0325 -0.0866  0.0726
  782W        W 4982   8.692  10.318   2.326 -0.4619  0.0759 -0.3071
  783W        W 4983   8.554   5.918   0.990 -0.2777  0.0943 -0.1921
  784W        W 4984   3.074   5.823  11.585  0.0231  0.1629  0.4459
  785W        W 4985   2.980   4.883   3.221 -0.0912  0.1661  0.2628
  786W        W 4986   9.829   5.350   2.329 -0.3665  0.2107 -0.3951
  787W        W 4987   6.430   8.448  12.299  0.0099  0.0236 -0.1665
  788W        W 4988   7.388   1.632   2.137  0.0462 -0.0488  0.1510
  789W        W 4989   0.896   2.560   2.258  0.0587 -0.0964  0.2070
  790W        W 4990   0.173  10.260  12.421 -0.2781  0.1489  0.5374
  791W        W 4991   2.074   2.723   8.979  0.4158  0.7000 -0.0856
  792W        W 4992   6.530   7.527   2.291 -0.0519 -0.0761  0.2182
  793W        W 4993   4.963   6.839  11.565 -0.1260 -0.1925 -0.2127
  794W        W 4994   1.474  10.719   8.676  0.4573  0.1119  0.0639
  795W        W 4995   4.478   3.593   8.984  0.0332  0.3136  0.1689
  796W        W 4996   8.079   7.479   9.067  0.0641  0.3444  0.2742
  797W        W 4997   2.573   5.165   4.856  0.1834 -0.1947 -0.2708
  798W        W 4998   5.504   1.804   9.428 -0.0355  0.2528 -0.1843
  799W        W 4999   6.935   4.880   9.997  0.0579  0.0978 -0.4584
  800W        W 5000   6.454   4.957   8.558 -0.0411  0.0294  0.0720
  801W        W 5001   5.765   3.662   1.505  0.0532  0.0521  0.1007
  802W        W 5002   8.197   6.751  11.371  0.0821  0.2497 -0.0155
  803W        W 5003   9.129   7.224  11.737 -0.0565 -0.1446  0.4140
  804W        W 5004   6.871   7.945   1.993  0.1539 -0.2123 -0.2118
  805W        W 5005   1.746   8.456   0.164 -0.2010 -0.2363  0.3166
  806W        W 5006   3.223   1.989  12.266 -0.0652 -0.2078  0.2309
  807W        W 5007   7.901   5.308  12.325 -0.0720  0.0666  0.0100
  808W        W 5008   3.702   5.048  11.688  0.1583  0.0611  0.0140
  809W        W 5009  10.710   8.392  12.623  0.2368  0.1876  0.2133
  810W        W 5010   1.828   1.881  12.758 -0.1312 -0.0323  0.2515
  811W        W 5011   1.078   4.581   3.439  0.1142  0.2969  0.0517
  812W        W 5012   1.693   2.547  11.861 -0.0716  0.3664  0.1344
  813W        W 5013   1.235   9.161  10.971 -0.2074  0.0094  0.0127
  814W        W 5014  10.321   7.713   3.151  0.0797  0.0039  0.0946
  815W        W 5015   9.364   2.695   3.632 -0.0178 -0.3914  0.1531
  816W        W 5016   6.799   8.760   3.467 -0.1351 -0.1832 -0.0250
  817W        W 5017   4.114   8.167  11.441  0.0169 -0.1885 -0.1567
  818W        W 5018   4.645   7.988   1.039  0.1664 -0.0764  0.3474
  819W        W 5019   5.286   3.355   1.214  0.0579  0.0390 -0.0761
  820W        W 5020   4.743  10.477  12.027 -0.1092  0.1874  0.2707
  821W        W 5021   6.352   3.047  11.335 -0.0963 -0.0213 -0.0675
  822W        W 5022   0.094  10.270  11.482 -0.1196 -0.1330 -0.0661
  823W        W 5023   9.451   0.039  11.347 -0.3078 -0.4206 -0.0029
  824W        W 5024   0.984   6.731  12.785 -0.1460 -0.0494  0.1370
  825W        W 5025   6.166   5.889   0.460 -0.2166  0.4711 -0.1535
  826W        W 5026   9.984   8.351   0.749  0.1162 -0.0039 -0.0084
  827W        W 5027   7.579   2.519   8.364 -0.0881 -0.0315 -0.1512
  828W        W 5028   0.929   2.506   1.302 -0.0132  0.1082  0.2228
  829W        W 5029   2.049   7.562   4.163 -0.0711  0.1012 -0.3810
  830W        W 5030   2.260   6.642  10.702  0.0719  0.0296 -0.0987
  831W        W 5031   0.923   8.202   2.195 -0.2575 -0.0103  0.1405
  832W        W 5032   6.436   5.828   3.737  0.0405 -0.3230  0.0516
  833W        W 5033  10.658   2.334  10.377  0.1671  0.0839  0.1570
  834W        W 5034   6.761   0.459  10.567 -0.3754 -0.1708  0.1009
  835W        W 5035   4.768   6.479  12.264  0.0137 -0.3808 -0.2202
  836W        W 5036  10.033   1.981   2.495  0.1553  0.2718 -0.0379
  837W        W 5037   4.252   1.458   0.005  0.0859  0.0901  0.3347
  838W        W 5038   9.032   4.169   0.686 -0.1907  0.0600  0.0842
  839W        W 5039   5.943   5.843   2.085 -0.1140 -0.0323  0.0870
  840W        W 5040   8.297   6.836   2.531 -0.1508 -0.1180  0.0550
  841W        W 5041   9.141   0.323   1.203  0.0804 -0.0628  0.0260
  842W        W 5042   3.719   7.369   2.332 -0.0464 -0.1576 -0.4963
  843W        W 5043   1.909  10.290  11.070 -0.1756 -0.5271  0.0520
  844W        W 5044  10.020   1.478  11.704  0.2108  0.1378  0.1182
  845W        W 5045   0.484   6.424   3.009  0.1271  0.2579 -0.1169
  846W        W 5046   5.752  10.049   1.297  0.0914  0.0989 -0.4111
  847W        W 5047   0.794   4.717  11.429  0.0990 -0.2638 -0.0567
  848W        W 5048   7.915   1.574   3.901 -0.4243  0.0093  0.0049
  849W        W 5049   2.137  10.477   8.335 -0.0052  0.3116  0.2972
  850W        W 5050   7.326   8.648  10.500  0.0887 -0.0153  0.1626
  851W        W 5051   7.713   2.421   1.404 -0.1398 -0.1010 -0.0703
  852W        W 5052   2.148   2.962  10.084 -0.1738 -0.1899 -0.1179
  853W        W 5053   6.138   2.915   8.705  0.3055 -0.1305 -0.0990
  854W        W 5054   4.333   4.498   7.921  0.3036  0.2868  0.3742
  855W        W 5055   4.327   5.618  11.920 -0.0217  0.3026 -0.0460
  856W        W 5056   4.542   1.475  11.918 -0.0382  0.0341 -0.0396
  857W        W 5057  10.128   7.326  11.875  0.1326  0.1045 -0.0306
  858W        W 5058   5.691   0.983   1.812  0.0343 -0.0766 -0.2931
  859W        W 5059   8.389   8.099  12.648 -0.4126 -0.1511 -0.0349
  860W        W 5060   1.007   0.435   0.035 -0.1022 -0.1958  0.1944
  861W        W 5061   4.998   7.255   2.111  0.2069 -0.1342 -0.0641
  862W        W 5062   6.244  10.714  12.646  0.0665  0.1819  0.0511
  863W        W 5063   1.218   3.925   1.120  0.4136 -0.1337 -0.1580
  864W        W 5064   8.100   6.244   1.792 -0.2487 -0.1609  0.0219
  865W        W 5065   3.280   1.714   2.192  0.2179 -0.1190  0.2740
  866W        W 5066   9.488   1.501   8.872  0.0992  0.0530 -0.1156
  867W        W 5067   1.839   6.719   2.372 -0.1501 -0.0086 -0.1814
  868W        W 5068   7.633   3.005   3.813 -0.0619  0.2191 -0.1342
  869W        W 5069   7.113   0.317  10.925  0.3021 -0.0665 -0.2903
  870W        W 5070   0.330   4.007   1.922 -0.2227  0.0736 -0.0296
  871W        W 5071   5.360   1.235   1.439 -0.2782 -0.0166  0.0504
  872W        W 5072   1.201   2.551   0.423  0.3090  0.1940 -0.1112
  873W        W 5073   8.859   6.731  10.468 -0.0834 -0.1507  0.2680
  874W        W 5074   1.343   6.312   0.847 -0.1996 -0.1934 -0.4717
  875W        W 5075   1.956   4.991   8.164 -0.0938  0.1273  0.0083
  876W        W 5076   1.815   5.679  11.699 -0.2043  0.0249  0.2040
  877W        W 5077   1.840  10.027   3.538 -0.0995 -0.3844 -0.0071
  878W        W 5078   8.767   3.179   0.260  0.2393 -0.0357  0.2021
  879W        W 5079   6.726   9.805   9.742  0.2492  0.2382 -0.2096
  880W        W 5080   8.857   4.294   2.871 -0.0492 -0.0695 -0.3077
  881W        W 5081  10.285   9.278  10.422  0.1048  0.2431  0.0115
  882W        W 5082   5.330   4.618   3.993  0.2247 -0.3888  0.0545
  883W        W 5083   7.070   8.970  11.871 -0.0762  0.0857 -0.0649
  884W        W 5084   5.799   5.122  12.746  0.1469  0.1439  0.3097
  885W        W 5085   7.461   7.665  10.840  0.1974  0.2624 -0.3146
  886W        W 5086   1.364   1.699   9.182 -0.2637 -0.0714  0.2875
  887W        W 5087   7.243  10.361   1.745  0.0500  0.0057  0.2262
  888W        W 5088   8.433   6.426   3.194  0.1038  0.1314  0.2418
  889W        W 5089  10.340   4.476  11.620 -0.0602 -0.1094  0.1423
  890W        W 5090   8.752   6.672   1.054 -0.2578  0.1079  0.0574
  891W        W 5091   6.651   2.334  10.041 -0.1782 -0.2277  0.1450
  892W        W 5092   9.878   5.566  10.221  0.0335  0.0731 -0.0315
  893W        W 5093  10.353   4.181  12.721  0.0599  0.1160 -0.0145
  894W        W 5094   7.586   8.881  11.686 -0.0382 -0.0404  0.2261
  895W        W 5095   6.626   9.715   3.535 -0.1491  0.1237 -0.1843
  896W        W 5096   2.695   3.944   1.227  0.1745 -0.1378  0.0987
  897W        W 5097   4.143   8.023   0.306  0.2901 -0.0380  0.1907
  898W        W 5098   7.516   8.673   9.930  0.1025  0.0581  0.0399
  899W        W 5099   3.650   8.742   3.060 -0.1298  0.1521  0.0900
  900W        W 5100   5.098   8.019   1.259  0.1426 -0.0404  0.2078
  901W        W 5101   4.444   2.266  12.540  0.1856  0.0124 -0.0433
  902W        W 5102  10.396   5.737  11.939 -0.1749  0.1325  0.3132
  903W        W 5103   7.233   2.126   2.335 -0.0815 -0.2094  0.0809
  904W        W 5104   3.845   0.300   9.748 -0.1597  0.2530  0.2275
  905W        W 5105   5.612   2.190   3.691  0.0145 -0.0622 -0.0761
  906W        W 5106   5.006   7.455   2.596 -0.1164  0.0605  0.0708
  907W        W 5107  10.351   3.962   0.466  0.1284  0.0997 -0.3069
  908W        W 5108   2.536   4.552  10.623  0.0658  0.2361  0.0365
  909W        W 5109   8.538   6.359  12.695  0.1472  0.0288 -0.1696
  910W        W 5110   7.793  10.170   8.745  0.2796 -0.1667  0.0764
  911W        W 5111   9.612   8.851   0.135  0.2327 -0.0327  0.0972
  912W        W 5112   9.980   5.946   1.632 -0.0010 -0.0138  0.0838
  913W        W 5113   0.279   7.501  11.548 -0.2492 -0.0510  0.3136
  914W        W 5114  10.344   2.637  11.790  0.1773 -0.0019  0.1933
  915W        W 5115   2.184   6.644   1.998  0.3025  0.0945  0.4257
  916W        W 5116   1.747   5.056   0.229 -0.2266 -0.0127 -0.2121
  917W        W 5117   3.962   5.205   3.235 -0.3444 -0.0961  0.0617
  918W        W 5118   8.633   3.629  12.794  0.1135 -0.0075  0.1938
  919W        W 5119   5.848   5.639   8.447 -0.1702 -0.1476 -0.3693
  920W        W 5120   4.931   4.719   1.037 -0.0309  0.0679  0.0455
  921W        W 5121   1.354   8.350  11.368 -0.0754 -0.1236  0.0931
  922W        W 5122   8.609   0.125   8.650  0.0127 -0.0837 -0.1443
  923W        W 5123   8.722   5.035  10.183  0.1828 -0.1317  0.0041
  924W        W 5124   0.023   2.221   1.206  0.0390 -0.0547 -0.2445
  925W        W 5125   3.120   3.394  10.142  0.0570 -0.0241 -0.0509
  926W        W 5126  10.032  10.730   1.107  0.0730  0.0465  0.2112
  927W        W 5127   0.329   3.068  12.083 -0.0802 -0.1538 -0.1874
  928W        W 5128   0.365   7.262   3.011  0.1034  0.0901 -0.1999
  929W        W 5129   3.506   8.652   0.086 -0.2353 -0.0359 -0.1952
  930W        W 5130   3.173   8.909  12.526  0.0261  0.0420  0.0442
  931W        W 5131   6.823   5.612   1.530 -0.1108  0.1308  0.1508
  932W        W 5132  10.027   1.565   2.245 -0.1413  0.2894  0.0857
  933W        W 5133   7.333   4.950   4.444 -0.2134  0.0292 -0.1477
  934W        W 5134   0.289   7.674   0.235 -0.1209  0.2114 -0.0298
  935W        W 5135   4.027   3.507  11.047 -0.0110 -0.1086  0.1394
  936W        W 5136   2.470   9.667  10.328 -0.1377  0.5229  0.1502
  937W        W 5137   0.958   7.059  10.632 -0.2791 -0.1661 -0.3049
  938W        W 5138   4.660   0.739  12.016  0.1489  0.1407  0.1792
  939W        W 5139   4.622   2.932   9.530 -0.0460  0.0092 -0.0375
  940W        W 5140   7.940   5.886  12.668 -0.0672 -0.2100 -0.1107
  941W        W 5141   8.402   0.215  11.615  0.1003  0.3182 -0.0928
  942W        W 5142   0.513   2.081   8.941  0.0349  0.1848  0.0297
  943W        W 5143   1.460   4.075   0.310 -0.1365 -0.0287  0.1280
  944W        W 5144   6.582   0.405   0.021  0.1306  0.1005  0.0305
  945W        W 5145   4.763   3.113  12.211  0.2191  0.0679  0.1665
  946W        W 5146   6.805   3.809  12.401 -0.0057 -0.0925 -0.0156
  947W        W 5147  10.215   1.575  12.804 -0.3059  0.1190  0.1450
  948W        W 5148   2.545   5.696  10.322  0.1177 -0.1728  0.1163
  949W        W 5149  10.091   0.619  12.783  0.0486 -0.1797 -0.0395
  950W        W 5150   5.157   9.912   2.545  0.0566 -0.4568 -0.3738
  951W        W 5151   4.392   1.094   9.988  0.1691  0.0256  0.2005
  952W        W 5152   9.005   1.493   2.378 -0.0725 -0.2161  0.1396
  953W        W 5153   9.589   7.189  12.325  0.1035 -0.1714  0.1985
  954W        W 5154   9.487   6.791  11.419  0.2697  0.2159  0.0390
  955W        W 5155   7.698   3.836   3.955 -0.0900 -0.2029 -0.1188
  956W        W 5156   4.550   9.147   8.203 -0.3490  0.2079  0.1481
  957W        W 5157   2.833   2.471   9.645 -0.2164 -0.1044  0.0331
  958W        W 5158   2.028   0.267   9.766  0.0774 -0.1128  0.1515
  959W        W 5159   4.047   3.490   1.820 -0.1689  0.0351 -0.0516
  960W        W 5160   5.455   4.423   9.568 -0.0278  0.1019  0.6109
  961W        W 5161   5.958   2.950  10.026  0.1260 -0.1964 -0.0552
  962W        W 5162   4.245  10.465   8.538 -0.0291  0.0881  0.1772
  963W        W 5163   4.775   9.449  10.455  0.2533 -0.0448 -0.1570
  964W        W 5164   4.293   7.688   3.797  0.2405  0.0764  0.4520
  965W        W 5165   4.715   2.341  10.206 -0.0606 -0.1423 -0.1524
  966W        W 5166   5.666   1.975   2.115 -0.1102  0.1621  0.0619
  967W        W 5167   0.962   9.370   9.103  0.0132 -0.0195 -0.0557
  968W        W 5168   4.314   3.000   1.232 -0.2539 -0.0824  0.1754
  969W        W 5169   6.303   0.338   2.513 -0.3646  0.0607 -0.1088
  970W        W 5170   4.677   1.299   7.995 -0.0588  0.0643  0.1111
  971W        W 5171  10.059   9.149   9.783  0.1097 -0.4312 -0.1280
  972W        W 5172   0.617   1.468   9.716  0.4465  0.0992  0.0329
  973W        W 5173   2.317   0.879   4.615 -0.0831  0.2101 -0.1886
  974W        W 5174   8.429   2.054  10.697  0.1085  0.0208  0.0053
  975W        W 5175   6.355   9.950   0.620  0.2994  0.0584 -0.5001
  976W        W 5176   3.764   4.639   7.881  0.3510  0.0654 -0.0242
  977W        W 5177   6.667   0.557   2.910  0.0813 -0.2214 -0.0461
  978W        W 5178   9.903   9.862   8.824  0.0791  0.1482  0.1371
  979W        W 5179   5.518   4.203   4.483  0.0297  0.1953  0.1806
  980W        W 5180   9.923   4.470   0.139  0.0670 -0.3326  0.2538
  981W        W 5181   1.089   5.073   3.126 -0.0696  0.0838 -0.2379
  982W        W 5182   4.069   7.061  10.154 -0.1883 -0.0084  0.1179
  983W        W 5183   0.903   6.576   8.701  0.0140 -0.1760 -0.3168
  984W        W 5184   6.677   9.398   8.864  0.1433  0.2463  0.0793
  985W        W 5185   7.906   5.001  10.895  0.2965 -0.0002 -0.2844
  986W        W 5186   1.102   7.344   4.070 -0.0317  0.0466 -0.0565
  987W        W 5187   5.619   7.270   9.131  0.0631  0.0533 -0.2138
  988W        W 5188   1.672   9.952   7.857  0.1525  0.0987  0.1647
  989W        W 5189   4.022   8.429  12.139  0.0030 -0.0948  0.0032
  990W        W 5190   5.115   7.780  10.771 -0.0314 -0.1291 -0.1903
  991W        W 5191   1.723   4.454   1.599  0.0123  0.2877  0.0874
  992W        W 5192   6.981   0.186   3.120 -0.0922 -0.3784 -0.0483
  993W        W 5193   0.711   9.877   1.727 -0.0652  0.1792 -0.2153
  994W        W 5194   2.013   5.216  10.793 -0.2855  0.1389 -0.0318
  995W        W 5195   5.972   0.018  11.290 -0.2707 -0.3600  0.0027
  996W        W 5196   5.940   1.170  11.473 -0.0357  0.0461  0.1999
  997W        W 5197   8.980   8.507   2.360  0.1798 -0.0765 -0.4383
  998W        W 5198   3.494   4.520   9.673 -0.0132 -0.1093 -0.0705
  999W        W 5199   4.524  10.570   8.942 -0.1970  0.2547 -0.0558
 1000W        W 5200   3.001   0.617   0.052  0.2902  0.0772 -0.1521
 1001W        W 5201   6.436   1.994  11.379  0.0479 -0.1344 -0.3952
 1002W        W 5202   0.742   8.205   1.737  0.2870  0.0211 -0.0484
 1003W        W 5203   1.452   3.263  10.572  0.3809  0.2708  0.1317
 1004W        W 5204  10.343   5.491   2.996  0.0649  0.3674 -0.0707
 1005W        W 5205   0.541   5.546  10.153 -0.0998  0.0025  0.1656
 1006W        W 5206   1.670   5.400   0.681  0.1637 -0.3174  0.2202
 1007W        W 5207   3.849   2.479   8.558 -0.1331 -0.1562  0.2748
 1008W        W 5208   3.671   1.472   2.070  0.0377  0.4064  0.2159
 1009W        W 5209   8.471   1.502   2.505 -0.1191  0.1688 -0.1256
 1010W        W 5210   4.883   6.792   0.650  0.1033  0.2222  0.1193
 1011W        W 5211   6.739   4.540  11.760 -0.2395 -0.3118 -0.1978
 1012W        W 5212   1.429   9.310   2.075  0.1489 -0.0591 -0.1792
 1013W        W 5213   9.690   6.171   3.068 -0.0167  0.3726  0.3578
 1014W        W 5214   7.017   9.494  10.000  0.4052 -0.1354  0.2934
 1015W        W 5215   0.792   0.308   3.095 -0.1150  0.0214 -0.0159
 1016W        W 5216   1.268   9.764   3.883 -0.0965 -0.2300  0.0571
 1017W        W 5217   3.551   3.064   3.641 -0.2534 -0.2700 -0.0866
 1018W        W 5218   9.270   3.724   2.024 -0.1074 -0.0987  0.2588
 1019W        W 5219   7.489   8.640   0.308 -0.1400  0.2738 -0.4455
 1020W        W 5220   4.213  10.204  10.148  0.2133  0.2379 -0.1414
 1021W        W 5221   9.087   3.288  10.411  0.1917 -0.2590  0.4482
 1022W        W 5222   4.728   7.055   2.490  0.3045  0.1539 -0.0073
 1023W        W 5223   8.699   8.733   3.299  0.1661 -0.0387  0.0876
 1024W        W 5224   6.656   4.552  10.334  0.0775  0.2337  0.1151
 1025W        W 5225   9.638   4.102   1.080 -0.2646 -0.0407 -0.2022
 1026W        W 5226   7.896   8.465   9.211 -0.1344  0.0589 -0.1487
 1027W        W 5227   1.206   6.048  12.196 -0.0653  0.0275 -0.2306
 1028W        W 5228   7.212   6.714   9.368  0.0149 -0.1461 -0.0712
 1029W        W 5229   6.411   0.155  10.410 -0.2301 -0.0587 -0.0680
 1030W        W 5230   1.047   0.600  10.582 -0.0050  0.0258 -0.0644
 1031W        W 5231   2.005   0.859   1.757 -0.2855 -0.0688  0.1736
 1032W        W 5232   4.846   6.875   3.536 -0.3711 -0.1314 -0.3090
 1033W        W 5233  10.526   9.220   0.347  0.1127  0.0570 -0.1318
 1034W        W 5234   2.206   3.417   2.536  0.0040 -0.4176 -0.1540
 1035W        W 5235   8.326   1.759   2.924 -0.1522  0.2211 -0.0491
 1036W        W 5236   8.246   7.617  10.325  0.1143 -0.2459  0.1497
 1037W        W 5237   5.236   9.667   3.048  0.0007 -0.1949  0.1841
 1038W        W 5238   7.533   7.279   1.382  0.0655  0.0570 -0.0493
 1039W        W 5239   1.380   5.366   1.295  0.3314 -0.3805  0.2488
 1040W        W 5240   9.193   4.719  12.212 -0.0711  0.1526  0.1046
 1041W        W 5241   4.101   8.194  10.305 -0.1122  0.2168 -0.1480
 1042W        W 5242   7.679   8.978  10.431  0.0330  0.2993 -0.0588
 1043W        W 5243   4.268   2.342  10.679 -0.0689 -0.1052 -0.3071
 1044W        W 5244   8.172   4.043  12.259 -0.0373  0.4783  0.4249
 1045W        W 5245   5.822   2.395  12.717  0.0782 -0.2061  0.1247
 1046W        W 5246   5.444   6.420   4.045 -0.3457  0.4093  0.0718
 1047W        W 5247   3.903   4.035  10.265 -0.1677  0.1452 -0.1331
 1048W        W 5248  10.105   8.499   1.469 -0.2107 -0.0363 -0.2027
 1049W        W 5249   3.611   7.979   4.258  0.1063 -0.0285  0.2031
 1050W        W 5250   8.253   3.192   3.171  0.3258 -0.2157 -0.1213
 1051W        W 5251   2.790   3.955   2.963  0.1927  0.2175 -0.0558
 1052W        W 5252   8.112   0.087   9.617 -0.1607  0.2932 -0.1929
 1053W        W 5253   5.710   5.757  11.942 -0.3791 -0.1725  0.1932
 1054W        W 5254   4.568   4.222   1.924  0.1830 -0.1474  0.4686
 1055W        W 5255   9.938   7.101   1.475 -0.0645 -0.0860 -0.0791
 1056W        W 5256   7.440   7.224  10.277  0.1171  0.1533  0.3123
 1057W        W 5257   2.758   1.737  12.277 -0.3785  0.0388  0.1469
 1058W        W 5258   8.914   5.492  10.402 -0.4186 -0.3439 -0.1730
 1059W        W 5259   8.072   0.972  11.110 -0.5149  0.1323 -0.0591
 1060W        W 5260   7.740   4.861   8.756  0.1845  0.1448 -0.0058
 1061W        W 5261   6.868   7.057   9.151 -0.0042 -0.0948 -0.2466
 1062W        W 5262   6.082   2.095   0.772 -0.1335  0.0503 -0.1192
 1063W        W 5263   0.879   3.414   0.285  0.2651  0.2195 -0.0889
 1064W        W 5264   7.879   5.327   1.917 -0.1617 -0.3935  0.1929
 1065W        W 5265  10.520  10.168   0.688 -0.1426 -0.0231 -0.0984
 1066W        W 5266   8.325   0.647   9.398  0.0045 -0.2790 -0.0422
 1067W        W 5267   6.689   0.338   4.163 -0.0889 -0.0385  0.2628
 1068W        W 5268   7.129   1.984   1.838  0.1090  0.2047  0.5636
 1069W        W 5269   9.195   2.269   9.278  0.1662 -0.1094 -0.1965
 1070W        W 5270   5.587  10.354   2.579  0.2300  0.0393  0.5115
 1071W        W 5271   7.769   8.163   9.562 -0.2475 -0.2393 -0.1056
 1072W        W 5272   3.038   5.594   2.463 -0.2039  0.2501  0.0464
 1073W        W 5273   0.011   3.629   0.514  0.1301  0.2327  0.3770
 1074W        W 5274   7.553   3.470  10.123 -0.3604 -0.0472  0.0622
 1075W        W 5275   7.991   9.566   2.649 -0.0059 -0.0875 -0.0204
 1076W        W 5276   9.873   2.491  12.609 -0.3961  0.1776 -0.1791
 1077W        W 5277   2.793   6.276  10.825 -0.2362  0.0450 -0.2083
 1078W        W 5278   5.326   6.886   3.360 -0.4046 -0.0753  0.0264
 1079W        W 5279   8.821   3.421   1.957 -0.2098  0.0009 -0.1027
 1080W        W 5280   7.388   6.261  12.806  0.3405 -0.1477  0.3079
 1081W        W 5281   7.202   4.293  11.787  0.0032 -0.1765  0.1968
 1082W        W 5282   2.271   8.525   0.943 -0.3017 -0.0353  0.1779
 1083W        W 5283   9.101   9.675  10.884  0.1237  0.0726 -0.1692
 1084W        W 5284   8.229   4.193   9.975  0.1308  0.2639 -0.1231
 1085W        W 5285   6.105   3.331  12.808  0.2162 -0.4192  0.5337
 1086W        W 5286   6.882   1.332  12.667  0.0573 -0.0727  0.3425
 1087W        W 5287   8.133   1.126   9.472  0.0502 -0.1243  0.0599
 1088W        W 5288   5.424   2.354   1.866  0.1240  0.3107 -0.2408
 1089W        W 5289   3.806   7.499  10.396 -0.1264 -0.1308 -0.2824
 1090W        W 5290   7.922   9.212   8.834  0.0037  0.1272  0.0571
 1091W        W 5291   9.725   5.824  11.333  0.1268 -0.0467  0.0234
 1092W        W 5292  10.603   1.932  11.230  0.2364  0.4223 -0.4783
 1093W        W 5293   2.499   6.070   2.052 -0.0236 -0.0202  0.2110
 1094W        W 5294   5.865   3.115  12.059 -0.1920  0.1071 -0.4695
 1095W        W 5295   3.627   8.359  11.903  0.2522  0.2785  0.0252
 1096W        W 5296   8.606   0.663   0.327 -0.2498  0.0093  0.1980
 1097W        W 5297   1.341   9.293  10.497  0.0183  0.0487  0.2528
 1098W        W 5298   7.186   1.189   3.638 -0.1223  0.3004 -0.0025
 1099W        W 5299   2.458   1.764  10.524  0.0363 -0.1552 -0.2968
 1100W        W 5300   4.570   3.839  11.664 -0.0500  0.2086  0.2237
 1101W        W 5301  10.469   0.531   8.942 -0.1606  0.2301 -0.1147
 1102W        W 5302   7.408   8.636   1.339 -0.2161  0.1871 -0.0988
 1103W        W 5303   8.319   2.129  10.045  0.0651  0.0006 -0.3222
 1104W        W 5304   2.079   8.841   2.913  0.1668  0.4662  0.3178
 1105W        W 5305   2.014  10.469   9.718  0.0132  0.0275 -0.0955
 1106W        W 5306   9.568   3.171   0.095 -0.0642 -0.2635 -0.2859
 1107W        W 5307   2.247   3.500   9.376  0.0949 -0.0502 -0.0898
 1108W        W 5308   7.825   9.112   9.978  0.2011 -0.1775 -0.1173
 1109W        W 5309   9.853   1.672  10.798  0.1328  0.2188 -0.0781
 1110W        W 5310   1.705   6.152   2.428 -0.1707 -0.1712  0.1864
 1111W        W 5311   7.166   6.547   0.335  0.2464 -0.1453  0.2074
 1112W        W 5312   9.132   1.836  12.112  0.0566  0.3960 -0.1513
 1113W        W 5313   3.624   2.891   8.709 -0.1149 -0.1483 -0.0588
 1114W        W 5314   2.057   9.260  12.682  0.0331  0.1604 -0.1653
 1115W        W 5315  10.120   1.848   9.655  0.1348  0.1656 -0.0613
 1116W        W 5316   3.354   2.571  11.612  0.0211 -0.0787 -0.0973
 1117W        W 5317   5.150   3.183   2.809 -0.2860  0.2908 -0.1329
 1118W        W 5318   0.723   7.426   8.948 -0.0443 -0.1515  0.0865
 1119W        W 5319   9.764   5.012   9.261  0.3080 -0.1293 -0.1587
 1120W        W 5320   9.727   3.398   2.143 -0.3190  0.1353 -0.0622
 1121W        W 5321   2.556   6.611   7.899  0.0038 -0.2792  0.1008
 1122W        W 5322   2.238   4.769  11.814 -0.1141 -0.2584  0.3836
 1123W        W 5323   5.667   7.097   9.870 -0.1527  0.1833 -0.0814
 1124W        W 5324   5.943   0.154  10.182 -0.1903  0.2497 -0.2166
 1125W        W 5325   6.963   9.068   2.009  0.0906  0.2373 -0.0022
 1126W        W 5326   2.836   6.983   2.291  0.2307  0.1498 -0.1340
 1127W        W 5327  10.377   6.079   2.411  0.0066 -0.3648  0.0909
 1128W        W 5328   9.196  10.284   0.947  0.2502  0.0112  0.1177
 1129W        W 5329   2.629  10.633   2.994 -0.0989  0.0269 -0.1259
 1130W        W 5330   5.143   5.417   4.576  0.1469  0.2463 -0.0171
 1131W        W 5331   3.303  10.598  10.352  0.2925  0.1410  0.1014
 1132W        W 5332   3.777   1.439   1.122  0.2900 -0.2142 -0.0416
 1133W        W 5333   3.524   1.916   1.755  0.2963  0.0369  0.1316
 1134W        W 5334   2.320   6.166   2.858 -0.0805 -0.0471  0.1318
 1135W        W 5335   4.204   2.425   9.563 -0.2441 -0.0672 -0.0490
 1136W        W 5336   5.442   4.255  12.584 -0.2989  0.1243  0.0346
 1137W        W 5337   0.161   5.113   2.795 -0.4367 -0.0907  0.0250
 1138W        W 5338   5.509   6.866   0.148 -0.1136  0.0769 -0.0287
 1139W        W 5339   9.436   0.601  12.538  0.2176 -0.0312 -0.1421
 1140W        W 5340   6.195   3.184   4.243 -0.0866  0.1638  0.0141
 1141W        W 5341   6.291   8.673   3.412  0.1508  0.0869  0.2199
 1142W        W 5342   5.902   5.138   8.270  0.1508 -0.0758  0.1942
 1143W        W 5343   2.108  10.104   8.038  0.0418  0.1963  0.0381
 1144W        W 5344  10.595   2.236   9.491  0.1412 -0.2235  0.1751
 1145W        W 5345   5.014   8.194  11.693 -0.3186 -0.5242  0.0478
 1146W        W 5346   9.807   4.668  10.405  0.1576 -0.1125 -0.1035
 1147W        W 5347   6.999   7.398   1.992  0.0985  0.0465  0.0060
 1148W        W 5348   5.409   8.297   9.423 -0.0042  0.0453 -0.0613
 1149W        W 5349   1.813   9.087   2.511 -0.0200  0.3794  0.0539
 1150W        W 5350   4.324   7.918   8.526 -0.1048 -0.1272  0.1908
 1151W        W 5351   2.584   6.857  11.495  0.3044  0.1245  0.0951
 1152W        W 5352  10.713   7.289  10.772 -0.3160  0.0541  0.2953
 1153W        W 5353   8.722   9.786   8.821  0.2472  0.1261 -0.2111
 1154W        W 5354   5.648   3.984  12.178 -0.0185 -0.1575 -0.1874
 1155W        W 5355   2.302  10.610   0.129 -0.0158  0.2087 -0.3267
 1156W        W 5356   7.903   8.060   2.264 -0.2104 -0.1305 -0.0891
 1157W        W 5357   1.267   9.197  12.772 -0.1498  0.4807 -0.1206
 1158W        W 5358   2.066   9.989  10.163 -0.1905  0.0181  0.0830
 1159W        W 5359  10.530   6.497   9.852 -0.0857 -0.0989  0.1628
 1160W        W 5360   7.708   4.149  12.063 -0.1833  0.2913 -0.2332
 1161W        W 5361   9.250   2.529  11.819 -0.0599 -0.0636  0.1910
 1162W        W 5362   0.975   4.168  12.461  0.1831  0.0691 -0.2492
 1163W        W 5363   8.836   8.166   2.028 -0.0329 -0.2717  0.1339
 1164W        W 5364   6.851   4.369   1.290  0.0335 -0.1016  0.1555
 1165W        W 5365   7.133   0.646   2.762 -0.1262 -0.2638 -0.0170
 1166W        W 5366   7.198   6.486   8.338 -0.0256  0.1213 -0.2276
 1167W        W 5367   9.035   4.001   2.450  0.1977  0.1533  0.1939
 1168W        W 5368   5.866   4.169   1.434 -0.2495  0.3508 -0.1905
 1169W        W 5369   5.173   7.281   0.887  0.0583  0.1138  0.1812
 1170W        W 5370   4.046   0.526   4.347  0.0475  0.0824  0.2397
 1171W        W 5371   3.430   9.766   2.694 -0.1922  0.1237 -0.0343
 1172W        W 5372   6.223   4.689   0.158  0.0292  0.4519  0.1805
 1173W        W 5373  10.305   7.730  11.588  0.3777 -0.1050 -0.2841
 1174W        W 5374   7.290   5.096   7.976 -0.0870  0.2068  0.5602
 1175W        W 5375   4.899   6.835   8.258  0.3041  0.1787  0.0481
 1176W        W 5376   8.973   4.579   0.304 -0.0448 -0.0393  0.0770
 1177W        W 5377   0.582   4.155   9.466  0.0183 -0.0506  0.3859
 1178W        W 5378   9.972   5.021   1.050 -0.1730 -0.0839  0.0413
 1179W        W 5379   9.399  10.548   1.837 -0.3030  0.0322 -0.0795
 1180W        W 5380   7.757   5.216  11.734 -0.0210 -0.2986 -0.2047
 1181W        W 5381   6.355   7.109   8.983  0.2701  0.1299 -0.0599
 1182W        W 5382   4.383   8.296   0.013 -0.2252 -0.3298  0.1644
 1183W        W 5383   2.934   7.752  11.822  0.0855 -0.2493  0.1349
 1184W        W 5384   2.369   7.815   9.718  0.2572  0.1943  0.0810
 1185W        W 5385   9.211   4.771   1.563 -0.0804 -0.3489 -0.2480
 1186W        W 5386   0.758   1.713   1.813  0.0343 -0.2154  0.0762
 1187W        W 5387   8.064   0.695   3.664  0.3335 -0.1975  0.2180
 1188W        W 5388   3.511   5.135   3.156  0.1199  0.0530 -0.0938
 1189W        W 5389   2.325   6.651   3.759  0.1570 -0.3172 -0.0458
 1190W        W 5390   5.617   4.320   3.109 -0.0106  0.1803  0.0780
 1191W        W 5391   4.193   9.538   3.978 -0.1846  0.0837  0.0674
 1192W        W 5392   1.098   2.804   9.902 -0.3574 -0.0217 -0.2112
 1193W        W 5393   0.499   7.491   4.113 -0.0536 -0.0577  0.1014
 1194W        W 5394   6.410   3.553  11.504 -0.0287  0.0509  0.1216
 1195W        W 5395   0.078   5.278   0.805 -0.0225 -0.0159 -0.0937
 1196W        W 5396   5.995   1.660   9.504 -0.1865  0.2386 -0.1521
 1197W        W 5397   0.096  10.642   0.570  0.0496  0.0571 -0.1430
 1198W        W 5398   2.201   8.063  11.117  0.2926  0.3424 -0.0906
 1199W        W 5399   7.086   3.262   1.545  0.1729 -0.1100 -0.0587
 1200W        W 5400  10.053   7.943   8.384  0.0505 -0.0722  0.2241
 1201W        W 5401   4.984   2.771   3.135  0.0330 -0.0716  0.1479
 1202W        W 5402   5.952   8.223  10.714 -0.1131  0.1528 -0.0180
 1203W        W 5403   6.545   0.503  10.065 -0.5725 -0.1202 -0.0758
 1204W        W 5404   2.051   9.834  11.138  0.4187 -0.0251  0.3723
 1205W        W 5405   0.306   8.612  10.328 -0.0316 -0.0403 -0.0474
 1206W        W 5406   6.965   8.158  10.519 -0.2322  0.1411  0.1213
 1207W        W 5407   2.960   3.666  10.517 -0.0157 -0.0098  0.2273
 1208W        W 5408   0.015   5.360  11.037 -0.1016 -0.2636 -0.3839
 1209W        W 5409   8.971   0.168   0.349 -0.3086  0.2026 -0.2448
 1210W        W 5410   3.440   6.193  12.397 -0.0395  0.2161  0.0263
 1211W        W 5411   9.338   1.139   0.044  0.2693  0.3753  0.0112
 1212W        W 5412  10.052   8.165   1.884  0.3369  0.2481 -0.4533
 1213W        W 5413   0.966   6.165  10.904  0.0613 -0.1824  0.2069
 1214W        W 5414   0.382   2.097   1.579 -0.0636  0.0020 -0.0367
 1215W        W 5415   3.680   5.006   0.515 -0.4819  0.1421  0.0668
 1216W        W 5416   8.841   6.169  11.620  0.2795 -0.2769  0.2644
 1217W        W 5417   5.072   4.243   8.287 -0.0490 -0.1250  0.1244
 1218W        W 5418   5.109   1.084  12.531  0.0192  0.2588 -0.0358
 1219W        W 5419   6.382  10.202   2.723  0.0905 -0.0948  0.2021
 1220W        W 5420   8.236   9.411   9.947  0.1131  0.1868  0.1009
 1221W        W 5421   0.286   0.016   2.842  0.1491  0.0253  0.0440
 1222W        W 5422   0.085   5.447   8.745  0.3022  0.0521  0.1205
 1223W        W 5423   0.718   6.698   4.458 -0.1158  0.0962 -0.0638
 1224W        W 5424   9.832   9.115  10.397 -0.0039 -0.0743  0.0635
 1225W        W 5425   2.755   0.047   9.068 -0.1156 -0.1344  0.2488
 1226W        W 5426   6.871   7.867   1.435 -0.1632  0.1989  0.1411
 1227W        W 5427   5.772   4.778   9.445 -0.1136 -0.0779  0.0904
 1228W        W 5428   4.884   0.434   1.973  0.0190  0.0354  0.5154
 1229W        W 5429   4.940   1.774  11.731 -0.0326 -0.0811 -0.1588
 1230W        W 5430   4.962   2.446   2.238  0.2009  0.0582 -0.0928
 1231W        W 5431   3.214   3.066   0.974  0.0696  0.1828 -0.1060
 1232W        W 5432   8.640   6.866   4.566 -0.1077 -0.2272  0.1517
 1233W        W 5433   0.756   7.106  12.570 -0.2000  0.0247 -0.0532
 1234W        W 5434   7.597   3.116  10.515 -0.1441  0.4262  0.0878
 1235W        W 5435   5.205   5.942   0.846  0.3328 -0.1464  0.0830
 1236W        W 5436   2.207  10.459  11.734 -0.2357  0.0122 -0.0682
 1237W        W 5437  10.473   6.539  11.445 -0.2531  0.1624 -0.0905
 1238W        W 5438  10.493   0.032   9.821 -0.2140  0.1335 -0.0403
 1239W        W 5439   7.339   8.174   3.951  0.0446  0.1517  0.2073
 1240W        W 5440   5.973   8.993  11.284  0.0734 -0.0361 -0.1203
 1241W        W 5441   7.494   7.398   1.860  0.0264 -0.0104  0.0971
 1242W        W 5442   7.307   8.034  11.204  0.0370  0.0490 -0.1184
 1243W        W 5443   7.038   2.975   1.923 -0.4434 -0.2668 -0.2929
 1244W        W 5444   0.096   3.579   1.942  0.1384 -0.1943  0.0372
 1245W        W 5445   4.523   8.328   4.308 -0.1532 -0.2588  0.0344
 1246W        W 5446   1.558   8.710  11.664 -0.0571 -0.1269  0.0949
 1247W        W 5447  10.057   6.644   1.619 -0.0730  0.3415  0.0727
 1248W        W 5448   2.151   3.459   9.914 -0.0840  0.6012 -0.0828
 1249W        W 5449  10.364   2.602   3.492  0.1665  0.1322 -0.1191
 1250W        W 5450   3.878   1.670   7.796 -0.0076 -0.1629 -0.0891
 1251W        W 5451   5.380   9.367   4.184  0.0741 -0.1095 -0.0638
 1252W        W 5452   5.030   3.416   0.654 -0.0526  0.0531  0.3159
 1253W        W 5453   4.438   3.537   4.389  0.1439  0.1662 -0.2612
 1254W        W 5454   3.788   4.365   2.178 -0.1049  0.0360 -0.0446
 1255W        W 5455   3.181   7.937   3.287  0.1567  0.1750  0.0687
 1256W        W 5456   4.369   3.969   8.101 -0.2511 -0.0660 -0.0364
 1257W        W 5457   5.145   1.327  11.477  0.1213 -0.0890 -0.1471
 1258W        W 5458   8.429   4.228   2.009 -0.1867  0.2196 -0.0658
 1259W        W 5459   6.723   0.288   3.576  0.2843 -0.1149 -0.0948
 1260W        W 5460   3.299   1.017   8.322  0.0258 -0.2250  0.1980
 1261W        W 5461   5.732   9.326   4.534  0.1600 -0.0553 -0.4383
 1262W        W 5462   3.422   1.666  11.941  0.1321  0.0309 -0.0452
 1263W        W 5463   3.701   2.889   0.930  0.1529  0.0176 -0.0570
 1264W        W 5464   8.706   4.247   9.416  0.0606 -0.0037 -0.3389
 1265W        W 5465   0.691   7.426   2.693  0.1185  0.1218 -0.1523
 1266W        W 5466   1.958   9.937  11.737 -0.3607  0.0310 -0.2725
 1267W        W 5467   4.358  10.277   3.495 -0.0524  0.0780 -0.3673
 1268W        W 5468   8.603   8.856   2.420 -0.0861 -0.0518  0.4216
 1269W        W 5469   0.488   4.213   9.981 -0.0416  0.0501 -0.1165
 1270W        W 5470   6.995   5.320   9.215 -0.0467 -0.1619  0.1662
 1271W        W 5471   8.639   7.815   1.677 -0.2779  0.1414 -0.0169
 1272W        W 5472   6.745   2.021   9.260 -0.2230 -0.1871  0.2690
 1273W        W 5473   8.606   1.797   1.540 -0.3941 -0.3213  0.0270
 1274W        W 5474   4.415   3.158  10.753 -0.3046 -0.0311 -0.2477
 1275W        W 5475   5.341   6.075  11.193 -0.0424 -0.1352  0.1268
 1276W        W 5476   6.651   6.755   3.414  0.0066 -0.2138 -0.0621
 1277W        W 5477   4.045   7.746   2.418 -0.0768 -0.2013  0.0646
 1278W        W 5478   9.231   6.009  11.893 -0.1875  0.0200 -0.0088
 1279W        W 5479   2.784   1.046  10.229 -0.0319 -0.2915  0.0293
 1280W        W 5480   0.074   9.297   1.586  0.1514  0.1587  0.0286
 1281W        W 5481   4.122   6.871  11.502  0.1876  0.0665 -0.1862
 1282W        W 5482   6.642   0.978   0.805  0.1338  0.1714 -0.2283
 1283W        W 5483   0.282   5.502   4.135 -0.0743 -0.7496 -0.2614
 1284W        W 5484   9.526   8.170  11.672  0.1981 -0.0534 -0.1375
 1285W        W 5485   0.495   0.441  11.554  0.0135  0.1092 -0.1608
 1286W        W 5486   8.170   1.261   2.152  0.2295  0.0950  0.1880
 1287W        W 5487   2.326   2.146   1.821  0.0525 -0.1166 -0.1405
 1288W        W 5488   2.560   3.212  10.752 -0.1602 -0.0273  0.1608
 1289W        W 5489   0.921   3.436   1.365  0.0207 -0.1718 -0.2005
 1290W        W 5490   3.705   0.484   2.338 -0.0887  0.1019 -0.1016
 1291W        W 5491   7.229  10.089  11.571 -0.1423 -0.1113 -0.1779
 1292W        W 5492   6.790   1.507   1.520 -0.0031  0.3139 -0.2477
 1293W        W 5493   3.480   3.531   0.215 -0.2024 -0.0740 -0.2577
 1294W        W 5494   2.520   5.454  12.467 -0.2087  0.1241 -0.3192
 1295W        W 5495   2.905   8.687  11.336 -0.0094 -0.0655 -0.3702
 1296W        W 5496   4.874   5.688   3.250 -0.0758  0.1049  0.1391
 1297W        W 5497   4.263   7.705  11.534  0.0497 -0.1545  0.2127
 1298W        W 5498   5.985  10.585   0.346  0.2629 -0.2684 -0.0184
 1299W        W 5499   8.906   0.009   9.491  0.1644  0.0871  0.0335
 1300W        W 5500   9.318   2.042  11.568 -0.3929  0.2912  0.2266
 1301W        W 5501   1.445  10.136  10.909 -0.0997 -0.3298  0.1039
 1302W        W 5502   9.876  10.205   3.773  0.4066 -0.0108  0.2144
 1303W        W 5503   6.995   7.085   9.684  0.1178  0.1786 -0.1980
 1304W        W 5504   3.609   5.858  10.379 -0.0379  0.5041  0.0158
 1305W        W 5505   8.078   7.069   0.392 -0.0121 -0.1456 -0.0500
 1306W        W 5506   2.915   6.237   3.241  0.3050  0.1781 -0.1202
 1307W        W 5507   0.468   9.851  12.133  0.2676  0.0981  0.3686
 1308W        W 5508   0.317   9.945  10.260  0.2512 -0.0010 -0.2439
 1309W        W 5509   9.467   6.444   2.203 -0.1693  0.1773 -0.0340
 1310W        W 5510   5.034   1.381   0.516  0.3013 -0.1153  0.0357
 1311W        W 5511   5.990   1.072   2.208  0.0919 -0.1095  0.0675
 1312W        W 5512   8.749   8.337   8.014  0.0613 -0.0710 -0.1705
 1313W        W 5513   3.478   4.531  12.198 -0.0269  0.2762 -0.0730
 1314W        W 5514   8.171   7.718   3.660 -0.1980 -0.0359  0.2911
 1315W        W 5515   6.168  10.508   9.062 -0.0545  0.1708  0.0843
 1316W        W 5516   6.417   3.304  10.928 -0.1240  0.3357 -0.0944
 1317W        W 5517   9.198   5.075   1.100  0.0301  0.0518 -0.0945
 1318W        W 5518   7.606   8.399  11.919  0.4525 -0.0303  0.3406
 1319W        W 5519   6.709   4.552   0.848 -0.1251  0.2944  0.0136
 1320W        W 5520   4.025   7.530   3.373  0.0854  0.2428 -0.1828
 1321W        W 5521   2.551   0.257   0.966  0.3619  0.1017  0.1064
 1322W        W 5522   3.771   5.055   9.075  0.2911  0.1061  0.0042
 1323W        W 5523   0.077   3.385   0.947 -0.1965 -0.0089  0.2208
 1324W        W 5524   5.435   2.375   2.424  0.2850  0.2137  0.1758
 1325W        W 5525   3.285   3.943   2.911 -0.4174 -0.1247  0.1807
 1326W        W 5526   0.721   5.833  10.598  0.0432  0.0895 -0.0173
 1327W        W 5527   9.292   9.252  12.751 -0.3015  0.1882 -0.0518
 1328W        W 5528   8.441   8.987   9.723  0.0396 -0.1303  0.3102
 1329W        W 5529   5.073   1.866  12.824  0.2767 -0.1372  0.3243
 1330W        W 5530   0.295   9.350  10.762  0.0657 -0.0986  0.2181
 1331W        W 5531  10.145   0.351  10.060 -0.0199  0.0886 -0.0195
 1332W        W 5532   1.900   2.924   9.636  0.1704  0.6091 -0.0079
 1333W        W 5533   2.778   1.292   2.898  0.1197 -0.3723 -0.0004
 1334W        W 5534   8.450   6.721   4.041 -0.0007 -0.0435 -0.1723
 1335W        W 5535   7.415  10.298  12.021  0.1786  0.2845  0.0010
 1336W        W 5536   5.073   7.909   3.918  0.0463  0.1894 -0.0508
 1337W        W 5537   8.599   9.969   1.899  0.3603  0.0173 -0.2241
 1338W        W 5538   0.729   2.954  11.689  0.1631  0.1608 -0.0840
 1339W        W 5539   7.830   8.868  12.172  0.0234 -0.4134  0.1847
 1340W        W 5540   2.158   6.164  11.677 -0.1350 -0.0393  0.1512
 1341W        W 5541   6.794   5.842  12.044 -0.1656  0.1437 -0.0466
 1342W        W 5542   9.051   5.779   2.077 -0.0687  0.0460  0.0488
 1343W        W 5543   0.678   8.971   3.320 -0.0249  0.0707  0.1233
 1344W        W 5544   3.448   9.537   1.728  0.0648  0.0312  0.0589
 1345W        W 5545  10.267   2.569  10.707 -0.1754 -0.0171  0.1908
 1346W        W 5546   1.890   3.964   9.142  0.2604  0.2657 -0.0646
 1347W        W 5547   6.245   0.187   9.356  0.0570 -0.0883  0.2029
 1348W        W 5548   6.328   7.124   2.453  0.2815 -0.0427 -0.0112
 1349W        W 5549   7.905   4.338   3.402 -0.2268  0.0120 -0.2047
 1350W        W 5550   0.109   6.899   8.396 -0.0243 -0.1527  0.0227
 1351W        W 5551   0.237   1.764   0.321  0.1707 -0.2305 -0.4547
 1352W        W 5552   3.805   6.478   9.344 -0.2286  0.0435  0.2954
 1353W        W 5553   8.467   6.909   3.048 -0.3675  0.1592  0.0552
 1354W        W 5554   8.792   8.915   0.660  0.1064 -0.1835 -0.1684
 1355W        W 5555   5.998  10.722   2.284  0.1341 -0.0503  0.0173
 1356W        W 5556   2.976   3.197   7.947  0.1077 -0.1237  0.2270
 1357W        W 5557   2.142   1.902   2.259  0.3053  0.1670 -0.0453
 1358W        W 5558   4.587   2.802   8.000 -0.0382  0.1557 -0.0409
 1359W        W 5559   8.335   4.526   9.612 -0.2354 -0.0244 -0.1861
 1360W        W 5560   9.621   5.681   0.474 -0.1272  0.1707  0.4162
 1361W        W 5561   4.593   7.835   9.715  0.1373 -0.0713  0.0818
 1362W        W 5562   8.838   3.462   9.938 -0.0317  0.1556  0.1406
 1363W        W 5563   6.360   7.919   4.435  0.1832 -0.0405  0.2236
 1364W        W 5564   2.598   5.167   0.399 -0.1410 -0.1396  0.0347
 1365W        W 5565   4.693   8.684   0.331  0.1192  0.1606 -0.1952
 1366W        W 5566   3.640   4.156   9.275  0.2490  0.2180 -0.2565
 1367W        W 5567   3.236   7.545  10.662 -0.1472 -0.0713 -0.2125
 1368W        W 5568   1.231   8.917   8.513 -0.1918  0.0332 -0.1603
 1369W        W 5569  10.502   5.024   3.109  0.3200  0.1176  0.0744
 1370W        W 5570   6.103   2.453   1.171 -0.0675  0.1342  0.1857
 1371W        W 5571   1.178   2.058   0.127 -0.1869  0.4018  0.1277
 1372W        W 5572   6.943   4.420  12.580 -0.0266  0.0515  0.0475
 1373W        W 5573   5.706   6.644   8.088  0.3175  0.0996  0.4203
 1374W        W 5574   2.185   6.303   0.600 -0.0436  0.0329 -0.2151
 1375W        W 5575   3.871   3.589  12.781 -0.1006  0.0390 -0.0358
 1376W        W 5576  10.166   7.786  10.103 -0.0084  0.0443  0.0809
 1377W        W 5577   1.669   1.751  10.618  0.0503 -0.1210 -0.2220
 1378W        W 5578  10.171  10.497   0.150  0.0171 -0.2744  0.1471
 1379W        W 5579   7.844   8.322  12.367  0.1190  0.0071 -0.1848
 1380W        W 5580   6.651   2.955   8.851 -0.0925 -0.2474 -0.0641
 1381W        W 5581   2.213   3.924   0.702 -0.2807 -0.1937  0.0087
 1382W        W 5582  10.168  10.087  10.159  0.0404  0.2732  0.1563
 1383W        W 5583   5.438   4.672  11.088 -0.1037  0.0585 -0.0634
 1384W        W 5584   7.318   4.542   3.134  0.4170 -0.1939  0.5037
 1385W        W 5585  10.682   3.377   2.419 -0.0136 -0.2789  0.0665
 1386W        W 5586   7.222   4.096  12.293  0.1946 -0.0526  0.2053
 1387W        W 5587   3.795   2.718   9.161  0.0742 -0.0251 -0.3912
 1388W        W 5588   6.336   4.444   1.218 -0.0283 -0.1728  0.0851
 1389W        W 5589   7.115   5.181  11.355  0.2346 -0.1596  0.1435
 1390W        W 5590   0.480   5.074  10.795 -0.1430 -0.0409 -0.1246
 1391W        W 5591   8.714  10.267   8.583 -0.4552  0.0647  0.2597
 1392W        W 5592   9.280   1.043  10.472  0.2433  0.2664 -0.5063
 1393W        W 5593   7.857   2.229  12.374 -0.0282 -0.2156  0.0943
 1394W        W 5594   5.075   3.039  10.528  0.2501 -0.1505 -0.0567
 1395W        W 5595   9.458   4.206  11.727  0.0572  0.0224  0.0715
 1396W        W 5596   8.780   4.038   8.986  0.0875 -0.1260  0.1957
 1397W        W 5597  10.342   6.954  10.560 -0.0317  0.3193 -0.1483
 1398W        W 5598   2.638   8.899   3.315 -0.2922 -0.0016  0.0924
 1399W        W 5599   7.208   9.527   1.838 -0.1441  0.1191 -0.2699
 1400W        W 5600   3.163   5.331   8.857  0.1980 -0.0512 -0.3144
 1401W        W 5601   9.487   3.642  11.090  0.3420  0.0558  0.0493
 1402W        W 5602   7.927   9.310   8.314  0.1684 -0.0098  0.1572
 1403W        W 5603   6.712   0.167   0.904  0.2513  0.1855 -0.1584
 1404W        W 5604  10.025   8.848   2.388  0.0815  0.1426 -0.2537
 1405W        W 5605   5.897   1.917   3.962  0.1121  0.1273 -0.0245
 1406W        W 5606   8.433   1.865  11.137 -0.0120 -0.3463 -0.2020
 1407W        W 5607   3.652   6.646  12.313 -0.2143  0.2920 -0.1495
 1408W        W 5608   5.812   9.346   1.669  0.1943  0.1981  0.2119
 1409W        W 5609   2.884   7.365  11.459  0.1949 -0.0448 -0.1106
 1410W        W 5610   8.298   7.438   2.239  0.1798 -0.0429 -0.0617
 1411W        W 5611   0.841   2.100  12.477  0.3476 -0.1944  0.1690
 1412W        W 5612   9.217   7.366   3.659  0.1908  0.1873  0.0286
 1413W        W 5613   2.308   5.367   0.835 -0.2589 -0.2558 -0.1107
 1414W        W 5614   0.799   8.598   1.312 -0.2008 -0.1455 -0.4440
 1415W        W 5615   2.659   2.552   0.959 -0.1326 -0.0961  0.0427
 1416W        W 5616   4.817   9.113   9.411 -0.2981  0.1442  0.0571
 1417W        W 5617   1.672   8.116   1.418  0.3277  0.0678  0.0933
 1418W        W 5618   3.399   1.842   9.485  0.2210  0.0320 -0.1259
 1419W        W 5619   6.372   9.752   2.493  0.0933 -0.0291  0.1576
 1420W        W 5620   4.637   3.680  12.175 -0.1492  0.0739  0.2001
 1421W        W 5621   4.175   3.501  11.516 -0.2719 -0.0659  0.1177
 1422W        W 5622   4.029  10.607  11.419 -0.2051  0.0948  0.0906
 1423W        W 5623   4.909   3.065  11.685 -0.0290  0.1337 -0.0932
 1424W        W 5624   9.210   1.821   4.075  0.0354 -0.0746  0.0340
 1425W        W 5625   7.384   0.583   8.629 -0.0487  0.1338  0.0171
 1426W        W 5626   3.851   2.354  12.598  0.1545 -0.3217  0.1711
 1427W        W 5627   6.154   3.089   0.978 -0.0849  0.2684  0.2431
 1428W        W 5628   6.791   8.711  10.490  0.0005 -0.1376 -0.2056
 1429W        W 5629   7.068   0.850   1.558 -0.0048 -0.0946  0.0524
 1430W        W 5630   7.437   8.385   3.425 -0.2896  0.0947  0.1505
 1431W        W 5631   0.746   8.545   3.552  0.0454 -0.0575  0.0902
 1432W        W 5632   6.217   4.511   0.724  0.1232  0.1202  0.2396
 1433W        W 5633   2.385   8.311   9.504  0.1085 -0.0748 -0.0589
 1434W        W 5634   9.709   6.187   0.420  0.0414  0.1673  0.1385
 1435W        W 5635   3.782   0.571   3.367  0.0487 -0.2223 -0.2595
 1436W        W 5636   0.137   8.109  12.165 -0.4361  0.1967  0.2037
 1437W        W 5637   5.642   2.863   0.271  0.0330 -0.1307 -0.2142
 1438W        W 5638   8.584   9.593   1.088 -0.1541 -0.2736  0.1088
 1439W        W 5639   4.814   5.125   2.333 -0.0688 -0.0643  0.1009
 1440W        W 5640   1.105   5.406   2.376  0.1926  0.3234  0.1049
 1441W        W 5641   1.447  10.417   1.535  0.1606 -0.4166  0.0718
 1442W        W 5642   3.559   0.775   4.480 -0.1104  0.2868  0.0042
 1443W        W 5643   3.112   6.723  10.640 -0.2302  0.1932 -0.4223
 1444W        W 5644   9.635   0.442   9.369 -0.1132 -0.0005 -0.1212
 1445W        W 5645   6.102   6.590   2.505  0.0487 -0.1494 -0.1072
 1446W        W 5646   7.278   3.301  11.837 -0.0985  0.2029 -0.0485
 1447W        W 5647   8.861   4.612   3.265  0.1380 -0.0895  0.0884
 1448W        W 5648   3.551   1.251   3.519  0.0060  0.0155 -0.2458
 1449W        W 5649  10.314   3.228   0.264 -0.1973 -0.1756  0.0152
 1450W        W 5650   8.115   9.764   3.543  0.1102 -0.1424  0.1708
 1451W        W 5651   0.344   9.801  12.657  0.1751 -0.1290  0.0546
 1452W        W 5652   6.218   4.850   3.799 -0.0146  0.2105  0.4115
 1453W        W 5653   7.473   8.671   9.402 -0.0333  0.0552 -0.3505
 1454W        W 5654   2.843   2.550  12.519 -0.0026  0.1564 -0.2456
 1455W        W 5655   4.122   4.459   9.718  0.0463  0.0752  0.1266
 1456W        W 5656   5.909   9.851  11.052  0.2275  0.2011  0.1964
 1457W        W 5657   7.868   9.613  11.267 -0.0038  0.2977 -0.1262
 1458W        W 5658   9.731   3.867   2.268  0.1864 -0.1343  0.1968
 1459W        W 5659   7.604   1.365   2.986  0.0969  0.2044  0.0121
 1460W        W 5660   6.637   1.936   1.699  0.2141 -0.1558  0.1676
 1461W        W 5661   1.800   0.536  12.155 -0.0476  0.1878 -0.0063
 1462W        W 5662   8.329   1.246  10.376  0.0228  0.1949  0.1398
 1463W        W 5663   1.341  10.721   0.078  0.1636 -0.1533  0.4992
 1464W        W 5664   3.011   1.993   4.277  0.0498 -0.1608  0.2325
 1465W        W 5665   2.033   2.312   0.118  0.2439  0.1508  0.1425
 1466W        W 5666   3.403  10.029   4.395 -0.0136  0.1928 -0.0359
 1467W        W 5667   5.200   5.136  12.350 -0.0313  0.1759  0.0811
 1468W        W 5668   3.206   4.061   4.559  0.2668 -0.1984  0.2182
 1469W        W 5669   8.822   9.845   0.287  0.1734 -0.4263  0.1966
 1470W        W 5670   0.059   5.624   1.201  0.1620  0.1385 -0.0361
 1471W        W 5671   6.110   0.847   1.382 -0.1276 -0.0090  0.2422
 1472W        W 5672   4.553   2.588   2.965  0.0651  0.1136 -0.1486
 1473W        W 5673   9.170  10.574   0.020  0.0277  0.3390  0.1224
 1474W        W 5674   5.581   9.097   9.500 -0.0775  0.3322  0.0270
 1475W        W 5675   8.787   5.356   9.127 -0.1405  0.3485 -0.2810
 1476W        W 5676   0.440   7.348   8.514 -0.0588 -0.2301  0.1662
 1477W        W 5677   6.915   5.120   7.517 -0.3897 -0.1607  0.1123
 1478W        W 5678   1.470   5.254  12.677 -0.1077  0.0177  0.1081
 1479W        W 5679   3.639   0.974   8.796 -0.1145  0.2880 -0.3413
 1480W        W 5680   5.823   1.307   3.654 -0.1696 -0.0012 -0.0134
 1481W        W 5681   4.536   7.374  12.342  0.0878 -0.2763 -0.0266
 1482W        W 5682   3.398   9.384   1.205 -0.2317  0.2162 -0.1703
 1483W        W 5683   3.478   0.144   3.502  0.0165 -0.0715  0.3398
 1484W        W 5684   6.499   0.897  12.731  0.0362  0.1645 -0.1112
 1485W        W 5685   2.899   2.415  11.339 -0.1086 -0.0299  0.1918
 1486W        W 5686   3.076   4.446   9.388  0.2034  0.1105  0.1868
 1487W        W 5687   1.695  10.100  12.519 -0.0813  0.0279  0.0901
 1488W        W 5688   0.065   8.368   9.110  0.2678  0.1978 -0.0169
 1489W        W 5689   5.627   9.658   9.302 -0.4015 -0.2520  0.0078
 1490W        W 5690   4.717   6.344   1.641 -0.0962  0.2453  0.1031
 1491W        W 5691   5.493   1.423   0.780  0.1269  0.1421  0.1233
 1492W        W 5692   2.669   3.159  11.928  0.0751 -0.2598 -0.0957
 1493W        W 5693   4.859   5.228  11.990  0.1010 -0.0769 -0.1660
 1494W        W 5694   2.493   2.547   8.679 -0.0591  0.0959  0.4329
 1495W        W 5695   3.877  10.662   0.973  0.1442 -0.1735  0.0129
 1496W        W 5696   5.489   9.372   8.387  0.0560  0.0373 -0.3955
 1497W        W 5697   1.860   3.066   3.484  0.1349 -0.3069  0.1099
 1498W        W 5698  10.101   9.676   2.489 -0.1169 -0.0017 -0.0363
 1499W        W 5699  10.095   2.249   9.390  0.0119 -0.2028  0.0008
 1500W        W 5700   0.976   5.150  12.739 -0.0038 -0.2465  0.4811
 1501W        W 5701  10.481  10.152  10.981 -0.3376 -0.1184 -0.1386
 1502W        W 5702   7.902   5.644   2.409  0.0509 -0.0431 -0.1043
 1503W        W 5703   9.345   4.875   0.453 -0.0469 -0.0328 -0.1377
 1504W        W 5704   8.337  10.631  12.112 -0.4340  0.4247  0.0094
 1505W        W 5705   4.693   0.929   3.280  0.2983  0.1221 -0.1123
 1506W        W 5706   8.394   2.070   1.982  0.0940  0.1850 -0.2077
 1507W        W 5707   8.692   3.294   3.534  0.1221 -0.4275  0.3651
 1508W        W 5708   1.374   4.031   4.378  0.1245  0.0861 -0.3543
 1509W        W 5709   0.692   2.174   1.973 -0.3061 -0.4209 -0.0889
 1510W        W 5710   4.320   1.323   4.709 -0.0266  0.1354  0.2756
 1511W        W 5711   3.547   0.149   9.333  0.0662  0.1090 -0.0128
 1512W        W 5712   7.240   4.334   4.241  0.2064  0.1160 -0.1237
 1513W        W 5713   2.551  10.479   4.140 -0.0116  0.1302  0.0687
 1514W        W 5714   6.194   4.902   1.578  0.2197  0.2238 -0.1144
 1515W        W 5715   7.139   2.838  11.954 -0.1899  0.0683  0.0223
 1516W        W 5716   7.266   0.447  12.261 -0.1975  0.2763 -0.0968
 1517W        W 5717   6.307   6.552   9.023 -0.1723  0.1541 -0.1574
 1518W        W 5718   2.159   1.985   2.791 -0.1013  0.0260 -0.0013
 1519W        W 5719   2.955   8.988   2.522  0.1501  0.1293 -0.1417
 1520W        W 5720   6.014   8.522  11.593  0.0205 -0.1235  0.1174
 1521W        W 5721  10.466   7.433   2.405  0.1008 -0.2772  0.2086
 1522W        W 5722   5.018   9.232   8.616  0.1144 -0.3251 -0.0235
 1523W        W 5723   6.040   9.338  10.903 -0.1252 -0.3443  0.2086
 1524W        W 5724   3.243   4.896   8.630 -0.0595 -0.2278 -0.1169
 1525W        W 5725  10.071   4.855   9.675 -0.3938  0.0500  0.3482
 1526W        W 5726   0.821   7.724  11.344 -0.0505 -0.1877 -0.5514
 1527W        W 5727   8.560   4.443   0.585 -0.2816 -0.0598 -0.1362
 1528W        W 5728   0.978   8.957   1.622 -0.4561 -0.1707  0.3154
 1529W        W 5729   9.391   5.435  10.234 -0.0987 -0.0159  0.0181
 1530W        W 5730   2.663   9.987   8.106  0.0759 -0.0465 -0.2621
 1531W        W 5731   9.702   7.773  11.403  0.0313  0.0366 -0.1721
 1532W        W 5732  10.073   1.885   2.964 -0.4508 -0.3255  0.1183
 1533W        W 5733   8.129   4.380   0.377 -0.1541 -0.4021 -0.0708
 1534W        W 5734   8.308   5.281  10.044 -0.1864  0.1577 -0.2509
 1535W        W 5735   9.752   8.777   8.144  0.0540 -0.2009  0.0261
 1536W        W 5736   5.108   0.904   1.819 -0.4311  0.0005  0.0748
 1537W        W 5737   7.906   6.879  10.179 -0.3946  0.2920  0.0553
 1538W        W 5738   3.675   0.237  11.519 -0.3385 -0.4423 -0.0495
 1539W        W 5739   0.146   2.967  12.548  0.0705 -0.2590  0.1584
 1540W        W 5740   4.799   1.697   1.285 -0.1711 -0.0796  0.0767
 1541W        W 5741   6.400   7.129   8.419 -0.0487 -0.0146  0.0590
 1542W        W 5742   6.661   7.418   7.343 -0.1070 -0.0657  0.2273
 1543W        W 5743   1.725   2.107  12.264  0.0764  0.0857 -0.0682
 1544W        W 5744   9.793   2.433   9.733 -0.2109 -0.0776 -0.1245
 1545W        W 5745   0.113   5.424   3.159  0.6339  0.1663 -0.0731
 1546W        W 5746   9.574   8.257  11.136  0.1094 -0.1694  0.2985
 1547W        W 5747   6.757   3.254   2.908 -0.0142 -0.2770  0.2065
 1548W        W 5748   7.111   6.287   3.530  0.2275  0.0503 -0.1968
 1549W        W 5749   8.461   7.526  11.122 -0.1438  0.0851 -0.0263
 1550W        W 5750   1.110   6.908  10.122 -0.2689  0.1538  0.1961
 1551W        W 5751   5.914   2.277  12.229 -0.0374 -0.3774 -0.1965
 1552W        W 5752   0.853   0.909   1.326  0.0806  0.1304  0.1238
 1553W        W 5753   7.053   6.011   0.329  0.2900 -0.1118  0.1440
 1554W        W 5754   6.910   5.383   3.173 -0.2906  0.0150  0.2510
 1555W        W 5755   5.351   5.906   2.197 -0.1357 -0.3258 -0.0167
 1556W        W 5756   1.729   7.032   3.168  0.1491  0.0420  0.0623
 1557W        W 5757   5.495   1.130  11.197 -0.3322 -0.1553  0.3047
 1558W        W 5758   3.067   9.517  11.236  0.2861  0.0183 -0.1222
 1559W        W 5759   2.627   6.628  12.358  0.1596 -0.3148  0.0965
 1560W        W 5760   1.069   2.093   2.473  0.0820 -0.2613 -0.3840
 1561W        W 5761   4.217   4.067   3.126  0.0592  0.2559  0.0310
 1562W        W 5762   7.884   9.894   8.314 -0.3869  0.3084  0.1731
 1563W        W 5763   2.245   7.681  10.277  0.2211  0.2327 -0.1915
 1564W        W 5764   7.718   1.135   3.567 -0.3237 -0.2539 -0.0397
 1565W        W 5765   4.883   4.961   4.836  0.0150 -0.0632 -0.5800
 1566W        W 5766   8.382   5.817   0.526  0.3407  0.1819  0.2404
 1567W        W 5767   2.633   2.638   3.506 -0.2018 -0.4185 -0.1828
 1568W        W 5768   2.353   0.046   9.431 -0.0344 -0.2057  0.0168
 1569W        W 5769   4.246  10.020   2.251  0.1297 -0.1284 -0.0406
 1570W        W 5770   6.858   0.667  12.321 -0.0873 -0.4000  0.0045
 1571W        W 5771   1.070   4.313  11.574 -0.2644 -0.0846 -0.1348
 1572W        W 5772   3.673   7.248   8.854  0.1416 -0.1490 -0.2767
 1573W        W 5773   4.033   4.161  11.756 -0.1264  0.0298  0.1092
 1574W        W 5774   9.812   4.300   2.068  0.0942  0.1730  0.0902
 1575W        W 5775   4.423   5.956  12.683  0.2089 -0.1344  0.1119
 1576W        W 5776   8.042  10.270   1.266 -0.2010  0.0347  0.0721
 1577W        W 5777   3.698   8.959  12.536  0.4257 -0.0429  0.0059
 1578W        W 5778   5.652   4.692   0.091  0.1361 -0.2806 -0.0661
 1579W        W 5779   0.647  10.700   1.218 -0.1090  0.1699  0.1565
 1580W        W 5780   5.237   4.060   0.367  0.4664  0.2426  0.2685
 1581W        W 5781   2.505   6.984   1.830 -0.0538  0.0323 -0.0113
 1582W        W 5782   5.045   9.010   3.897 -0.1369  0.1317  0.0567
 1583W        W 5783   7.270   9.185  11.376  0.3257 -0.0124 -0.0165
 1584W        W 5784   3.022   7.178   1.251  0.2921  0.3229 -0.1023
 1585W        W 5785   2.488   1.090   9.502 -0.1750  0.1783  0.4125
 1586W        W 5786   2.535   8.220   8.905  0.0384 -0.1875 -0.1256
 1587W        W 5787   2.363   0.813  10.570  0.0079  0.2652  0.1105
 1588W        W 5788   4.590   3.826   1.212 -0.1211 -0.0402  0.2585
 1589W        W 5789   9.999   8.383  10.434 -0.2442  0.3637 -0.0099
 1590W        W 5790   9.851   9.508   0.719 -0.2112 -0.2500 -0.0462
 1591W        W 5791  10.050   0.510  10.537 -0.1660 -0.0511 -0.0787
 1592W        W 5792   4.006  10.011   0.428 -0.0112  0.0242 -0.2133
 1593W        W 5793   6.901   2.524   3.986 -0.1971 -0.2136  0.0527
 1594W        W 5794   7.917   8.723   2.589 -0.3032  0.0391  0.0783
 1595W        W 5795   3.142   3.491   1.319  0.2502  0.0878  0.1479
 1596W        W 5796   7.940   0.036   0.078  0.2408 -0.1650  0.1558
 1597W        W 5797   1.614   6.309   0.258  0.1512 -0.3854  0.0336
 1598W        W 5798   1.997   7.829  10.708 -0.0590 -0.3749  0.0454
 1599W        W 5799   0.435   1.375  12.777  0.0708  0.1966 -0.1963
 1600W        W 5800   2.997   0.741   9.511 -0.0185  0.0304  0.0393
 1601W        W 5801   0.133   4.455   3.485  0.0120  0.1958  0.0950
 1602W        W 5802   5.834   4.751   8.540 -0.2678  0.2409 -0.2043
 1603W        W 5803   2.606   3.648   0.829 -0.3496 -0.0130  0.4132
 1604W        W 5804   0.763   4.757   1.649 -0.0589 -0.2153  0.0717
 1605W        W 5805   8.039   2.265  10.514 -0.1181 -0.0735 -0.3897
 1606W        W 5806   9.835   7.759   9.566  0.2499 -0.0939  0.1176
 1607W        W 5807   1.352   8.344   2.854  0.1388 -0.0995  0.1259
 1608W        W 5808   2.480   5.639   0.107  0.2000 -0.3814  0.0666
 1609W        W 5809   9.596   3.946   1.601 -0.0695  0.0798  0.1474
 1610W        W 5810   9.535   6.389  12.810  0.0844 -0.1312 -0.2641
 1611W        W 5811   4.140  10.411   2.508  0.2004  0.2476 -0.0215
 1612W        W 5812   0.802   4.991  12.266 -0.2917  0.0852 -0.2497
 1613W        W 5813   7.384   7.839   9.328 -0.1116  0.0236  0.0145
 1614W        W 5814   0.026   5.371   8.209 -0.2178 -0.1137 -0.0388
 1615W        W 5815   3.705   2.312   9.504 -0.0098 -0.1247 -0.1761
 1616W        W 5816   6.445   4.418  12.585 -0.2426  0.0787 -0.1483
 1617W        W 5817   7.612   6.853   0.527 -0.2346 -0.0856 -0.1627
 1618W        W 5818  10.120   0.985   0.942  0.0628 -0.0780 -0.1825
 1619W        W 5819   2.001   2.861   4.105 -0.0454  0.0788  0.0650
 1620W        W 5820   4.988   1.616   3.594 -0.5454 -0.3769 -0.1748
 1621W        W 5821  10.680   5.116  12.760  0.1365  0.0014 -0.0621
 1622W        W 5822   6.820   7.067   2.377 -0.5676  0.1317  0.2122
 1623W        W 5823   7.118   0.999   0.672  0.1659  0.2646  0.0420
 1624W        W 5824   4.683   3.391   3.688  0.2440  0.3398 -0.1313
 1625W        W 5825   7.839   1.752   9.999 -0.1148 -0.0073  0.1494
 1626W        W 5826   7.554   3.661   1.533  0.4288 -0.4272 -0.0976
 1627W        W 5827   4.526   9.345   1.700 -0.3370  0.2532  0.1301
 1628W        W 5828   1.223   9.533   0.851  0.1543  0.1452 -0.2012
 1629W        W 5829   8.565   9.646  12.478 -0.1611 -0.2848 -0.2350
 1630W        W 5830   3.594   2.930  11.863  0.0407 -0.0890  0.1265
 1631W        W 5831   6.888   1.826   0.668 -0.1237 -0.3505 -0.3884
 1632W        W 5832   3.265   6.919   0.910 -0.1799  0.1522 -0.4484
 1633W        W 5833   4.864   7.713  12.262 -0.3363 -0.1648 -0.2400
 1634W        W 5834   2.833   2.607  10.608 -0.0145 -0.0757  0.1922
 1635W        W 5835   4.784  10.371  12.726 -0.1795  0.4460 -0.1512
 1636W        W 5836   8.978   9.117   8.296 -0.0366  0.3096  0.1380
 1637W        W 5837   2.892   6.758  11.912 -0.2576 -0.0395 -0.0827
 1638W        W 5838   2.248   7.773   2.269 -0.0309  0.1386  0.0465
 1639W        W 5839   5.067   3.878   2.022 -0.0234 -0.3948  0.0980
 1640W        W 5840   1.276   4.378   3.812 -0.1546 -0.1968 -0.0594
 1641W        W 5841   6.933  10.585   3.542 -0.0604 -0.3288  0.1483
 1642W        W 5842   8.243   5.999   2.981 -0.2125 -0.2648 -0.1127
 1643W        W 5843   7.207   8.232   0.600  0.0259 -0.1007  0.0141
 1644W        W 5844   7.686   5.180   3.510 -0.2251 -0.0812  0.1963
 1645W        W 5845   2.711   8.003  12.677 -0.0523  0.1881 -0.0039
 1646W        W 5846   8.042   6.666   2.904  0.0061 -0.0480 -0.0857
 1647W        W 5847   2.419   6.159   3.997  0.0246  0.0420 -0.1881
 1648W        W 5848   0.938   6.718   3.183  0.0418 -0.1638 -0.2487
 1649W        W 5849   6.135   4.780  12.451  0.3149 -0.0290  0.0999
 1650W        W 5850  10.461   8.119   2.141 -0.3995 -0.3704  0.3356
 1651W        W 5851   8.713   2.854  11.099  0.1276  0.1136 -0.0625
 1652W        W 5852   2.705  10.607  11.537  0.1299 -0.1349 -0.1345
 1653W        W 5853   5.043   9.958   0.438  0.1959  0.3013 -0.0464
 1654W        W 5854   2.968   8.725   2.055  0.1286  0.1296  0.0323
 1655W        W 5855   8.956   6.105   9.411 -0.0314  0.2654  0.2996
 1656W        W 5856   1.352   6.758   3.414  0.0716 -0.1775  0.0353
 1657W        W 5857   5.255   5.885   9.149 -0.3250 -0.0536  0.1283
 1658W        W 5858   2.433   8.775   1.922 -0.2373 -0.3729 -0.0498
 1659W        W 5859   4.542   6.256   2.427 -0.1357 -0.1417  0.1520
 1660W        W 5860   1.834   9.199   0.617  0.0357  0.1354  0.0553
 1661W        W 5861   5.741   3.885   0.096 -0.0787 -0.3861  0.2648
 1662W        W 5862   1.250   6.142  10.459 -0.0757 -0.0145 -0.0308
 1663W        W 5863   1.183  10.698   3.624  0.1824  0.3188  0.0685
 1664W        W 5864  10.057   2.449   8.844  0.2128  0.2130 -0.0506
 1665W        W 5865   9.156   7.095  10.613  0.0773 -0.0454  0.1438
 1666W        W 5866   0.443   7.568  10.973 -0.1332  0.0571 -0.2701
 1667W        W 5867   3.109   2.307   2.398  0.2562  0.2130  0.1340
 1668W        W 5868  10.180   8.705   3.331  0.1537  0.3139  0.2482
 1669W        W 5869   9.151   5.508   1.544 -0.1766  0.0963  0.0276
 1670W        W 5870   7.589   0.050  12.131  0.3276 -0.1056  0.2115
 1671W        W 5871   4.360  10.238   0.189 -0.3317 -0.2838  0.1354
 1672W        W 5872   8.613   8.000   3.692  0.2258  0.0719  0.3048
 1673W        W 5873   7.515   2.552  12.144  0.1734 -0.0311  0.0805
 1674W        W 5874   9.539  10.466   0.550 -0.1192  0.0274  0.0512
 1675W        W 5875  10.349   5.160  12.245 -0.0693 -0.3565  0.3011
 1676W        W 5876   4.177   4.676   1.757 -0.1012 -0.1290  0.0000
 1677W        W 5877   1.784   5.293   3.930  0.1576  0.2235  0.3300
 1678W        W 5878   9.627   7.777  10.023 -0.2220 -0.1336  0.2078
 1679W        W 5879   2.079   2.467   9.941  0.0303  0.5276 -0.0193
 1680W        W 5880   3.600   0.391  10.771 -0.2237  0.2079 -0.0346
 1681W        W 5881   3.313  10.728   2.943  0.1191 -0.0905 -0.3297
 1682W        W 5882   8.271   1.747   1.161 -0.2129  0.1154 -0.0522
 1683W        W 5883   2.720   7.917   0.344  0.0636 -0.0571 -0.2286
 1684W        W 5884   4.208   3.378   4.823  0.0475 -0.3499 -0.0672
 1685W        W 5885   7.469   4.673  10.792  0.5100 -0.0575 -0.6442
 1686W        W 5886  10.509   6.653   1.163 -0.2171  0.0346  0.2505
 1687W        W 5887   6.784   9.186  11.534 -0.0059 -0.0492 -0.0200
 1688W        W 5888   5.061   5.614  11.516 -0.0948  0.0190  0.2294
 1689W        W 5889   4.695   7.316   4.459 -0.4224  0.0171 -0.1380
 1690W        W 5890   0.950   6.828  11.508  0.0400  0.0609  0.2922
 1691W        W 5891   7.514   4.665   9.211 -0.0049  0.1811 -0.0677
 1692W        W 5892   7.016   6.617   3.091 -0.1752  0.3927  0.1109
 1693W        W 5893   4.646   6.133   3.076 -0.1380 -0.0258 -0.1810
 1694W        W 5894   5.949   1.811   0.409  0.1833  0.1928  0.0799
 1695W        W 5895   4.862   1.392   0.077 -0.0958 -0.2651  0.1827
 1696W        W 5896   6.198   1.152   1.759 -0.0432  0.3070  0.2361
 1697W        W 5897   1.540   2.659  10.841  0.0543  0.3086  0.1661
 1698W        W 5898   4.610   8.034   8.089 -0.1662 -0.1791 -0.0771
 1699W        W 5899   2.826   0.438  10.208  0.0908 -0.0121  0.2014
 1700W        W 5900   1.518   4.227   2.928 -0.1687  0.1541 -0.1161
 1701W        W 5901   3.643   5.377   3.611 -0.2727  0.0884 -0.1534
 1702W        W 5902   5.012   3.667  11.809 -0.0757  0.2702  0.1708
 1703W        W 5903   3.604   9.637   3.670  0.1149  0.3834  0.0506
 1704W        W 5904   9.469   7.473   0.742 -0.1441 -0.0500 -0.2272
 1705W        W 5905   2.848   7.678  12.348  0.0958  0.2142 -0.1563
 1706W        W 5906   9.926   9.934  10.636 -0.4073  0.2503 -0.3152
 1707W        W 5907   8.314   7.871   8.713 -0.0240 -0.0427 -0.1342
 1708W        W 5908   5.740   0.191   4.499  0.2714  0.1850  0.0602
 1709W        W 5909   1.994   0.971  12.298 -0.0854 -0.4666 -0.1717
 1710W        W 5910   2.013   4.863  11.374  0.1420  0.3991  0.1773
 1711W        W 5911   3.347   2.782  12.746  0.1377  0.1241  0.0382
 1712W        W 5912   2.033   7.947   9.330 -0.0091 -0.1513  0.0270
 1713W        W 5913   7.341  10.701   0.159 -0.0817  0.0777  0.2210
 1714W        W 5914   1.974   4.139   1.227  0.0102  0.1171 -0.0139
 1715W        W 5915   5.880   5.324  10.660  0.1997  0.0979 -0.0098
 1716W        W 5916   2.157   3.340   0.058  0.1194 -0.0574  0.2335
 1717W        W 5917   5.228   9.402  10.206  0.1119 -0.0163  0.0657
 1718W        W 5918   0.957   6.525  12.339  0.2281  0.0697 -0.0025
 1719W        W 5919   2.103   3.632   1.961  0.1255 -0.2234 -0.0198
 1720W        W 5920   0.251   5.942   2.971 -0.4271 -0.0860 -0.2965
 1721W        W 5921   6.564   6.619   2.095 -0.0063  0.2303  0.2820
 1722W        W 5922   2.840   2.266   8.401  0.1949  0.0194 -0.0400
 1723W        W 5923   6.267   9.759   8.698 -0.4054 -0.0818 -0.2802
 1724W        W 5924   2.008   8.581   4.502 -0.2673  0.2508  0.1587
 1725W        W 5925   9.097   1.960   0.711  0.1547 -0.0036  0.1993
 1726W        W 5926   8.059   4.314  12.704 -0.0611 -0.2371 -0.2853
 1727W        W 5927   9.403   1.908  10.803 -0.1135 -0.1280  0.0438
 1728W        W 5928   0.807   3.852   0.622  0.1175 -0.1693  0.0436
 1729W        W 5929   5.622   8.536  11.971 -0.1186  0.0847 -0.2186
 1730W        W 5930   4.916   2.281   2.769 -0.0665  0.0013  0.0586
 1731W        W 5931   3.980   9.743   8.770 -0.1945 -0.0067 -0.2940
 1732W        W 5932   7.340   5.077   2.311 -0.1287  0.0880  0.1465
 1733W        W 5933   8.587   9.023  10.918  0.2801 -0.0346 -0.2453
 1734W        W 5934  10.321   4.970   8.178 -0.0095 -0.0546 -0.0718
 1735W        W 5935   2.832   1.056   8.094  0.1652 -0.0105  0.1698
 1736W        W 5936   3.472   6.819   0.451 -0.1332 -0.0217  0.1226
 1737W        W 5937   3.374   8.444   3.425  0.1389 -0.0189  0.2322
 1738W        W 5938   7.983   3.980   8.510 -0.1185  0.1399 -0.2584
 1739W        W 5939  10.413   7.903   7.285 -0.3127  0.0567  0.0886
 1740W        W 5940   4.365   8.247   2.554 -0.0649  0.0730 -0.0036
 1741W        W 5941   8.536   7.652   8.182  0.1240  0.1400  0.2830
 1742W        W 5942   1.319   6.640  11.995  0.0897 -0.0476  0.0364
 1743W        W 5943   5.547   2.952   8.013 -0.0887  0.0702  0.1283
 1744W        W 5944   2.325   6.046   1.035 -0.0455  0.0826  0.0498
 1745W        W 5945   9.073   0.485  10.529 -0.2457  0.0287 -0.0806
 1746W        W 5946   6.530   3.836   8.958  0.3334  0.3534  0.0226
 1747W        W 5947   9.007   7.436  10.323  0.0844 -0.0272 -0.0920
 1748W        W 5948   4.847   3.507   1.550  0.1526  0.1236 -0.1142
 1749W        W 5949   1.871   1.888   3.260 -0.1479  0.1002 -0.2308
 1750W        W 5950   3.345   7.617  10.106  0.0389  0.0199 -0.3297
 1751W        W 5951   4.233   1.404  11.078 -0.0355 -0.0277 -0.0220
 1752W        W 5952   3.692  10.474  11.971  0.0680  0.1672  0.0628
 1753W        W 5953   7.121   3.936  10.863 -0.1562 -0.0160 -0.4170
 1754W        W 5954   4.647   0.635   9.973  0.0208 -0.1601 -0.1290
 1755W        W 5955   6.696   1.459   0.958 -0.0531 -0.3160  0.0643
 1756W        W 5956   9.584   4.067   9.051 -0.2488 -0.1350 -0.0191
 1757W        W 5957   2.167   7.227   8.824 -0.0800  0.2204 -0.1639
 1758W        W 5958   2.581   8.764   2.831 -0.1606 -0.2825  0.2734
 1759W        W 5959   8.075   7.587   0.374  0.1472  0.3474  0.0478
 1760W        W 5960   6.771   5.730   8.531 -0.0086 -0.1793 -0.0039
 1761W        W 5961   4.569   1.866   9.334  0.0661 -0.3975 -0.2013
 1762W        W 5962   9.369   3.648  10.045  0.2545 -0.1347 -0.0747
 1763W        W 5963   6.663   4.918  12.795  0.1666 -0.1499 -0.0813
 1764W        W 5964   8.149   7.193   3.789  0.4337  0.0026  0.0145
 1765W        W 5965   9.833   4.614   8.867 -0.2822 -0.2288 -0.0030
 1766W        W 5966   3.577   3.898  11.844  0.1316  0.0347  0.0599
 1767W        W 5967   4.112   0.130   1.603 -0.3330  0.1860  0.1178
 1768W        W 5968   7.035   1.666  11.369 -0.1615 -0.1666 -0.2770
 1769W        W 5969   1.894   2.152   1.562 -0.1637 -0.2297  0.3857
 1770W        W 5970   3.611   0.197   1.410  0.3174  0.3179  0.0871
 1771W        W 5971   9.962   2.613  11.354  0.0359 -0.0440  0.0191
 1772W        W 5972   8.500   4.068   8.504 -0.2257  0.3260 -0.2984
 1773W        W 5973   4.467   7.652   1.587  0.0627 -0.3330 -0.1760
 1774W        W 5974   1.728   7.428   0.281  0.2533  0.0709  0.1699
 1775W        W 5975   1.178   1.822  11.658 -0.0123  0.0531 -0.1092
 1776W        W 5976   8.121   9.382   1.263  0.0501 -0.0565  0.0886
 1777W        W 5977   1.522   6.907   0.091  0.0589  0.3047 -0.1096
 1778W        W 5978   8.973   9.150   9.579  0.1172 -0.2347  0.2045
 1779W        W 5979  10.382   9.999   9.293 -0.0947 -0.2850 -0.3149
 1780W        W 5980   8.785   7.628   2.117  0.1645  0.3311  0.1125
 1781W        W 5981   7.257   5.927  12.057 -0.2845  0.2439  0.0122
 1782W        W 5982   0.221   0.956  11.504 -0.2892  0.1507 -0.0280
 1783W        W 5983   5.142   1.995   3.820 -0.1945 -0.0084  0.0989
 1784W        W 5984   9.848   0.084   2.376  0.3467 -0.1462 -0.0650
 1785W        W 5985  10.178   6.612   2.683 -0.0565  0.0718  0.1433
 1786W        W 5986   5.309   1.834   1.720 -0.4828 -0.0345 -0.1929
 1787W        W 5987   5.564   3.559   9.132 -0.2868  0.0740 -0.2309
 1788W        W 5988   5.248   3.243  12.091  0.1243 -0.2201  0.1207
 1789W        W 5989   6.537   3.500   0.296  0.2012 -0.1228  0.3481
 1790W        W 5990   2.593   9.753   1.695 -0.0674  0.1145  0.2411
 1791W        W 5991   9.261   1.538   1.014  0.0258  0.3895 -0.0485
 1792W        W 5992   2.595   1.013  12.436  0.0520 -0.3836  0.4334
 1793W        W 5993   6.480   4.981   1.032 -0.1610  0.2340  0.2101
 1794W        W 5994   5.257   1.323   9.177  0.0633  0.0432  0.1921
 1795W        W 5995   1.393   1.118   3.558  0.0838 -0.0517 -0.0869
 1796W        W 5996   6.247   0.433   3.518  0.3983  0.0310  0.2001
 1797W        W 5997   7.198   8.416   9.044  0.1788  0.0620 -0.2502
 1798W        W 5998   8.959   6.432  10.928  0.3410 -0.2360  0.0891
 1799W        W 5999  10.398   5.181   2.591 -0.1643 -0.2195  0.3529
 1800W        W 6000   5.393   1.863  11.220 -0.1562 -0.2053 -0.1537
 1801W        W 6001   2.223   4.479   0.705  0.0841 -0.5202 -0.0667
 1802W        W 6002   1.950   4.417   2.073  0.5547  0.0104  0.2257
 1803W        W 6003   2.754  10.044  10.089 -0.2618 -0.0556 -0.4689
 1804W        W 6004   4.274   8.245   3.860  0.2157 -0.3344  0.0585
 1805W        W 6005   5.168   9.414   9.164  0.0133  0.1188  0.4582
 1806W        W 6006   2.780   9.872  12.164  0.0707  0.2080 -0.1869
 1807W        W 6007   2.782   1.550   9.332  0.1394  0.2176 -0.0406
 1808W        W 6008   8.947   5.639   2.572  0.1544 -0.4541  0.3808
 1809W        W 6009   3.016   6.981   0.374 -0.1019 -0.1713 -0.1600
 1810W        W 6010   4.231   2.860   8.752 -0.1170 -0.3641  0.1844
 1811W        W 6011   9.736   6.030  10.088  0.1170  0.0232 -0.1786
 1812W        W 6012   3.110  10.094   1.692  0.1011  0.0662 -0.1361
 1813W        W 6013   8.029   9.137  11.783  0.2346  0.1577  0.0054
 1814W        W 6014   1.795   3.216   0.805 -0.0930  0.0680  0.3103
 1815W        W 6015   0.399   9.229   8.976 -0.0125 -0.0523 -0.1834
 1816W        W 6016   1.585   7.351  12.639  0.2390 -0.0255 -0.2042
 1817W        W 6017   5.121   6.295   9.550 -0.0580  0.0692 -0.4769
 1818W        W 6018   4.554   3.541  11.197 -0.0891  0.0256  0.0046
 1819W        W 6019   1.608   8.140   9.152 -0.2375  0.1519  0.0947
 1820W        W 6020   8.331   2.372   8.691 -0.3444 -0.0852 -0.0963
 1821W        W 6021   5.058   7.907   9.272  0.0699  0.0450 -0.0675
 1822W        W 6022   8.200   1.869  12.100  0.1179 -0.2078  0.0250
 1823W        W 6023   9.564   0.643  11.537 -0.1273 -0.0391  0.3088
 1824W        W 6024   9.973   1.997   3.417  0.3378 -0.3758  0.3284
 1825W        W 6025   8.713   2.150  12.246  0.3606  0.1705  0.0619
 1826W        W 6026   6.035   5.392  11.654 -0.0552 -0.1336  0.1832
 1827W        W 6027   5.002   0.870  11.578  0.1675  0.0397 -0.1043
 1828W        W 6028  10.287   5.619   8.189 -0.1058 -0.1105  0.1096
 1829W        W 6029  10.404   6.747   8.597 -0.0060 -0.0919 -0.0478
 1830W        W 6030   2.448   0.576   9.423 -0.2207  0.0691 -0.1544
 1831W        W 6031   4.317  10.565  11.003 -0.0310  0.0571  0.0567
 1832W        W 6032   2.340   8.227   2.703 -0.2700  0.0021 -0.2348
 1833W        W 6033   7.349   1.707   2.670 -0.0828  0.0366 -0.2850
 1834W        W 6034   8.844   9.648   1.557 -0.2556  0.0024  0.3802
 1835W        W 6035   4.809   9.732   1.390  0.1596  0.0111 -0.1141
 1836W        W 6036   3.050   3.009   9.781  0.0715 -0.0486  0.0441
 1837W        W 6037   5.817   7.164  10.337 -0.3463 -0.0291  0.1128
 1838W        W 6038   3.520   7.750   8.986  0.0338  0.2931  0.0417
 1839W        W 6039   3.910   7.383   2.881 -0.1896 -0.1080  0.0016
 1840W        W 6040   5.008   5.475   9.463 -0.0368  0.2363  0.1386
 1841W        W 6041   5.155   4.248  11.029  0.0931 -0.0912  0.0895
 1842W        W 6042   8.457   3.935   4.047  0.3689  0.0016  0.2408
 1843W        W 6043   4.503   8.882   4.655  0.0923 -0.0884 -0.1926
 1844W        W 6044   6.649   6.651   0.727  0.2682 -0.3017 -0.0802
 1845W        W 6045   1.998   4.593   1.130 -0.0980 -0.2765 -0.0498
 1846W        W 6046   0.698   9.840   2.279 -0.1163 -0.0396  0.0280
 1847W        W 6047   4.563   5.090   0.924  0.3049 -0.1128  0.1154
 1848W        W 6048   6.711   2.976  12.776  0.3064 -0.1874  0.2231
 1849W        W 6049   5.808   8.577   2.338  0.1412  0.2075 -0.1280
 1850W        W 6050   2.571   2.502   9.197 -0.0630 -0.2470  0.0150
 1851W        W 6051   5.950   4.561   3.426  0.0227  0.0996 -0.1789
 1852W        W 6052   4.183   6.507  12.129 -0.3421  0.2384  0.2629
 1853W        W 6053   6.938   3.729   4.268  0.2437 -0.4652  0.0035
 1854W        W 6054   5.299   7.168  12.015  0.3486 -0.0203 -0.0392
 1855W        W 6055   6.037   1.590   2.284 -0.3462 -0.1608  0.0982
 1856W        W 6056  10.346   8.823   2.845  0.0163 -0.0036  0.0149
 1857W        W 6057   7.297   5.678   3.378 -0.2234  0.0726 -0.0105
 1858W        W 6058   9.951   5.517  10.682 -0.0577  0.0076 -0.1066
 1859W        W 6059   6.410   2.508   2.892 -0.2976  0.2325 -0.0856
 1860W        W 6060   3.344   4.590   8.989  0.0887 -0.0359  0.3955
 1861W        W 6061   1.079   0.887   2.705 -0.3173  0.4432  0.1612
 1862W        W 6062   7.853   8.944   9.313  0.0626 -0.2206  0.2850
 1863W        W 6063   5.274   0.753   1.199 -0.0410 -0.1647 -0.0052
 1864W        W 6064   1.906  10.184  10.573  0.0751  0.3150  0.0633
 1865W        W 6065   3.063   3.297  10.852  0.0386  0.1140 -0.2370
 1866W        W 6066   2.672   0.145   3.792  0.1362  0.0030  0.1812
 1867W        W 6067   4.206  10.568  12.127 -0.1899 -0.1700 -0.0128
 1868W        W 6068  10.619   7.387   9.875  0.0081  0.2644  0.1654
 1869W        W 6069   6.704   5.608   4.162 -0.0049 -0.1212 -0.2858
 1870W        W 6070   6.668   0.340   9.603 -0.0142  0.0640 -0.1339
 1871W        W 6071  10.017   6.595  10.706  0.0204 -0.1536  0.0657
 1872W        W 6072   5.483   9.183   1.956 -0.0287 -0.1789 -0.0981
 1873W        W 6073   2.860   6.664  12.806  0.2920  0.0527 -0.2936
 1874W        W 6074   6.225   9.715   1.969 -0.1648 -0.0808  0.0625
 1875W        W 6075   1.127  10.053   9.277  0.5238  0.1664 -0.1173
 1876W        W 6076   8.216   9.144   2.743 -0.2144  0.0916 -0.3170
 1877W        W 6077   0.156   7.545  12.072 -0.0868  0.2297  0.1122
 1878W        W 6078   0.547   8.197   2.859  0.2505 -0.3190 -0.0382
 1879W        W 6079   0.479   6.700  12.026 -0.0121  0.0399  0.1975
 1880W        W 6080   8.221   6.120   8.543 -0.0210  0.2441  0.0015
 1881W        W 6081   4.581   1.523   9.787 -0.0766 -0.1118 -0.0317
 1882W        W 6082   4.687   9.898  12.802  0.1644  0.1683  0.2792
 1883W        W 6083   0.189   9.348   0.677  0.1002 -0.2507  0.1711
 1884W        W 6084   5.234   6.859   2.882 -0.2408 -0.2281  0.1044
 1885W        W 6085   3.151   1.453   3.764 -0.0695  0.1927  0.1056
 1886W        W 6086   5.304   7.042  12.512 -0.1388 -0.2084 -0.1319
 1887W        W 6087   2.852   9.236  12.122 -0.1290  0.3093 -0.0045
 1888W        W 6088   3.644   5.733  12.402  0.2587 -0.0955 -0.0728
 1889W        W 6089   1.612   2.274   0.331 -0.0095 -0.2984 -0.1186
 1890W        W 6090   5.327   5.829   3.504 -0.1083 -0.2278 -0.0170
 1891W        W 6091   9.052   7.512   9.294 -0.0308  0.1438 -0.1343
 1892W        W 6092   4.971   2.758   9.261 -0.2874 -0.4048  0.1255
 1893W        W 6093   4.118  10.130  11.843  0.1714  0.2707 -0.2527
 1894W        W 6094   7.049   6.006  10.670 -0.0168  0.1447 -0.0439
 1895W        W 6095  10.204   2.430   2.589 -0.0707  0.0933 -0.0290
 1896W        W 6096   2.891   4.341   2.735 -0.2930  0.0234  0.1197
 1897W        W 6097   5.352   0.468   9.207  0.1325 -0.0098 -0.0546
 1898W        W 6098   2.981   5.068  12.239  0.0878  0.0356 -0.0554
 1899W        W 6099   7.408   5.574   9.349 -0.0571  0.1254 -0.3328
 1900W        W 6100  10.041   6.737   1.123  0.0520 -0.1178  0.2032
 1901W        W 6101   4.494  10.279  11.387  0.0377 -0.1284 -0.3745
 1902W        W 6102   1.049   6.298   3.408 -0.1692  0.0492  0.4225
 1903W        W 6103   7.427   4.919   0.748  0.0077  0.1093 -0.0494
 1904W        W 6104   3.783   9.351   2.026  0.0858  0.0847  0.0939
 1905W        W 6105   5.692   4.127   0.559  0.0382 -0.0258 -0.3455
 1906W        W 6106   4.404   6.063  12.216 -0.0740 -0.1936  0.0261
 1907W        W 6107   7.488   6.013  10.255  0.0623 -0.0723  0.0415
 1908W        W 6108  10.270   0.908  10.223 -0.1195  0.0429 -0.2335
 1909W        W 6109   0.301   5.135  10.280  0.2400 -0.2389  0.4606
 1910W        W 6110   7.549   0.698  11.486  0.3063  0.1501  0.3903
 1911W        W 6111  10.644   5.835   2.043  0.1041  0.3196  0.0519
 1912W        W 6112   2.021   0.502   0.912  0.0462  0.2959 -0.2353
 1913W        W 6113   5.408   0.694  12.275  0.1058  0.2604  0.2236
 1914W        W 6114   5.256   1.587   3.055 -0.3120  0.2701  0.0378
 1915W        W 6115   2.028   6.237  10.872 -0.0602  0.1313  0.1909
 1916W        W 6116   7.366   7.130  12.486  0.0783  0.1429  0.2817
 1917W        W 6117   7.675   0.540   9.943  0.1451  0.2078 -0.3384
 1918W        W 6118   5.278   3.711   1.529  0.1206  0.0383 -0.3841
 1919W        W 6119   3.237   5.552   1.665 -0.0203  0.2795  0.0032
 1920W        W 6120   8.400   6.329  11.776 -0.0247 -0.3468 -0.0432
 1921W        W 6121   0.990   3.532  10.819  0.0721 -0.0869 -0.0013
 1922W        W 6122   5.142  10.692   0.118 -0.0386 -0.1481  0.3077
 1923W        W 6123   5.603   7.319   0.629  0.1181  0.2275 -0.1351
 1924W        W 6124   8.965   0.532   8.764 -0.0497  0.1536 -0.0253
 1925W        W 6125   0.671   8.233   8.344 -0.2863  0.2649 -0.1208
 1926W        W 6126  10.376   7.397  10.356  0.2957  0.0535  0.1870
 1927W        W 6127   5.815   4.385   1.003  0.1676 -0.1140 -0.0617
 1928W        W 6128   0.712   3.270   9.783 -0.0132  0.0918  0.0391
 1929W        W 6129   1.891   4.231  12.655 -0.3034  0.3920  0.1688
 1930W        W 6130   3.882   0.462   2.853 -0.1976  0.0352  0.2688
 1931W        W 6131   8.438   8.609   8.315  0.1299 -0.1204 -0.3209
 1932W        W 6132   1.139   5.433   0.838 -0.0555  0.4604  0.0054
 1933W        W 6133   6.023   2.259  11.737  0.1224  0.2584 -0.2679
 1934W        W 6134   6.682   5.621   0.562 -0.0817  0.0588  0.0798
 1935W        W 6135   7.895   1.544  11.767 -0.1388 -0.1209  0.1736
 1936W        W 6136   2.675   2.962   1.882 -0.0537  0.2094 -0.0751
 1937W        W 6137   4.907   8.424   0.745  0.1766 -0.4539 -0.3163
 1938W        W 6138   1.803   7.677   9.853  0.0431  0.0643 -0.0764
 1939W        W 6139   0.744   3.902   1.546 -0.1164  0.1109 -0.1462
 1940W        W 6140   1.380   5.820   0.519 -0.2186 -0.1384 -0.1842
 1941W        W 6141   1.115   7.444  12.501  0.2580  0.0381  0.0376
 1942W        W 6142   5.348   6.675  12.056  0.0898  0.0490  0.0800
 1943W        W 6143   9.626   0.753   0.152  0.2068  0.2260  0.1773
 1944W        W 6144   0.574   2.430  11.667 -0.2450 -0.0159  0.3305
 1945W        W 6145  10.571   9.441  12.744 -0.1175  0.3835 -0.1624
 1946W        W 6146   1.298   6.154  11.686  0.0757  0.2362  0.0501
 1947W        W 6147   2.176   7.492   2.664  0.1931  0.0176  0.0220
 1948W        W 6148   8.233   5.969   1.372 -0.1790 -0.1217 -0.0761
 1949W        W 6149   2.499   6.701   8.394 -0.1794  0.0022  0.0119
 1950W        W 6150   6.063   9.476   0.399 -0.1364  0.0687  0.1826
 1951W        W 6151   1.812   8.573   2.413 -0.0725  0.2602  0.1423
 1952W        W 6152   2.060   7.504  11.115 -0.1358  0.0510 -0.0265
 1953W        W 6153   4.750   9.338   3.261 -0.0856  0.0027 -0.0135
 1954W        W 6154   4.395   3.854   4.808  0.0441  0.0961 -0.1205
 1955W        W 6155  10.058   1.674   0.471 -0.2150 -0.0795  0.0418
 1956W        W 6156   3.240   4.472   3.070 -0.3516  0.1070  0.0115
 1957W        W 6157   7.410   7.224   8.749 -0.1064 -0.1962 -0.0426
 1958W        W 6158   1.752   7.715   2.878  0.0733 -0.2168  0.1831
 1959W        W 6159   8.552   5.485   7.985 -0.3053  0.0615 -0.2345
 1960W        W 6160   6.277   5.356  11.246  0.0270  0.1051  0.1461
 1961W        W 6161   3.926   8.729  10.663  0.2214  0.0935  0.0876
 1962W        W 6162   2.826   6.035   1.367  0.2843  0.1847 -0.1924
 1963W        W 6163   3.568   0.482  10.231  0.1943  0.0246 -0.1380
 1964W        W 6164   7.487   3.842   8.901  0.0621  0.3159  0.1915
 1965W        W 6165   6.826   1.316  11.692 -0.2413  0.1308 -0.0701
 1966W        W 6166   3.822   3.446   2.487  0.1341  0.1412 -0.0732
 1967W        W 6167   4.921  10.392   1.735 -0.0926  0.1257 -0.0690
 1968W        W 6168   0.610  10.043  10.666  0.0122  0.1664  0.1017
 1969W        W 6169   6.101   7.055  11.697 -0.3078 -0.1248 -0.3199
 1970W        W 6170  10.257   0.487   0.873  0.1132 -0.2135 -0.1197
 1971W        W 6171   0.287   0.868   2.034  0.0621 -0.2688 -0.1424
 1972W        W 6172   6.821   6.558   9.140 -0.1704  0.1497  0.1037
 1973W        W 6173  10.237   2.613   9.727 -0.0477 -0.2036  0.1126
 1974W        W 6174   0.597   1.750   2.444  0.1168 -0.0231 -0.0236
 1975W        W 6175   8.713   3.337  11.247  0.2901 -0.0887  0.1450
 1976W        W 6176   8.638   8.459  11.739 -0.0583  0.2052  0.0021
 1977W        W 6177   3.320   5.473   4.014 -0.0236  0.4005  0.1434
 1978W        W 6178   0.241   4.625  12.778 -0.1830  0.0659  0.1055
 1979W        W 6179   7.538   0.142   8.406 -0.0781  0.1329 -0.0451
 1980W        W 6180   9.123  10.273   9.603  0.1388 -0.0640  0.1090
 1981W        W 6181   6.660  10.387   4.192 -0.0612  0.0082 -0.2838
 1982W        W 6182   5.699   6.678  12.445  0.3257  0.1917 -0.1626
 1983W        W 6183   5.268   6.969  11.152  0.0028 -0.0308  0.0901
 1984W        W 6184   2.386   2.271   8.088  0.1767  0.2235  0.0700
 1985W        W 6185   8.760   0.582   2.113  0.1358 -0.1677  0.1622
 1986W        W 6186   3.719   7.996   3.296 -0.3432  0.0087 -0.3409
 1987W        W 6187   5.078   7.093  10.673 -0.1106  0.0071  0.1068
 1988W        W 6188   9.603   2.659   0.198  0.0339 -0.1806  0.0124
 1989W        W 6189   1.897   2.178   1.051 -0.1373 -0.1809 -0.4087
 1990W        W 6190   5.414   1.537  10.170 -0.1814 -0.1134 -0.1915
 1991W        W 6191   4.359   6.649   3.382  0.0791  0.1253  0.2209
 1992W        W 6192   4.049   3.121  11.903 -0.4692  0.3368 -0.2389
 1993W        W 6193   3.991   4.681   0.145  0.2490 -0.2109  0.2405
 1994W        W 6194   2.641   8.669   8.706  0.0089 -0.1105 -0.2953
 1995W        W 6195   8.742   6.353   8.713  0.1719  0.0512  0.1852
 1996W        W 6196   7.108   6.721  11.682  0.2831 -0.1077  0.1310
 1997W        W 6197   2.881   9.642  11.700 -0.2322 -0.0764  0.3311
 1998W        W 6198   2.025  10.145   0.821  0.1457 -0.0351 -0.0468
 1999W        W 6199   4.347   8.695   8.044 -0.0410 -0.0361 -0.5509
 2000W        W 6200   5.409   4.118  11.670 -0.1438  0.0906 -0.1208
 2001W        W 6201   1.422   7.840  12.529  0.4061 -0.0773 -0.0794
 2002W        W 6202   7.972   2.018  11.389  0.1450  0.3659 -0.0615
 2003W        W 6203   5.370   0.660  11.748  0.3313  0.0130 -0.2191
 2004W        W 6204   8.754   5.437  12.245 -0.1633 -0.0921 -0.2803
 2005W        W 6205   3.417   7.071   4.359  0.1393  0.1090 -0.2284
 2006W        W 6206   2.490   7.212   3.897  0.2568 -0.1079  0.3907
 2007W        W 6207   1.896   2.392   3.080  0.0912 -0.0747  0.1679
 2008W        W 6208   9.616   5.481   9.745  0.1565 -0.3124  0.1924
 2009W        W 6209   5.692   5.956   3.184 -0.1373 -0.2334  0.0361
 2010W        W 6210   1.036  10.279  10.583  0.2753 -0.1707 -0.0102
 2011W        W 6211   7.304   2.495   8.788  0.0065 -0.4829  0.1911
 2012W        W 6212   7.324   7.766   1.562 -0.0211  0.2282 -0.0591
 2013W        W 6213   4.440   0.444   9.068  0.2715 -0.0592 -0.0026
 2014W        W 6214   1.103   1.812  10.623 -0.1222 -0.4288 -0.0407
 2015W        W 6215   1.665   3.677  10.066  0.0537  0.0172  0.0870
 2016W        W 6216   2.352   0.505   4.265  0.0187 -0.0524 -0.3481
 2017W        W 6217   0.161   7.611   9.475 -0.0215 -0.0857 -0.3077
 2018W        W 6218  10.482   4.691   2.664  0.1575  0.0859  0.2058
 2019W        W 6219   6.631   5.383  12.562  0.0901 -0.2375  0.0485
 2020W        W 6220   3.942  10.601   2.042 -0.1625 -0.1285  0.0010
 2021W        W 6221   3.649   3.138  12.751  0.2863 -0.0176  0.1143
 2022W        W 6222   0.431   9.666   9.856 -0.1063 -0.0941  0.0456
 2023W        W 6223   5.206   4.930   2.839 -0.0174  0.1216 -0.0657
 2024W        W 6224  10.547   4.694   9.294 -0.0394 -0.0508 -0.1849
 2025W        W 6225   6.310   7.858  10.771  0.1831  0.1371  0.1002
 2026W        W 6226  10.263   9.572  10.049  0.0417 -0.1988  0.1946
 2027W        W 6227   4.998   8.143  12.727  0.0220 -0.1368 -0.2659
 2028W        W 6228   3.166   8.219   1.117 -0.0254  0.0601 -0.1040
 2029W        W 6229   7.354   7.248   9.284 -0.0868  0.2595 -0.2456
 2030W        W 6230  10.098   1.432   3.247  0.0837  0.0166  0.0349
 2031W        W 6231   5.895   1.344   0.510 -0.0324 -0.0853  0.4326
 2032W        W 6232   0.015   7.304   1.116 -0.3112  0.0117 -0.2134
 2033W        W 6233  10.325   3.565   9.521 -0.0241 -0.1170 -0.4403
 2034W        W 6234   6.508   4.173  10.766  0.1443 -0.3273 -0.0203
 2035W        W 6235   6.345   2.071   9.672  0.1100  0.1684  0.2817
 2036W        W 6236   4.725   4.757   2.849 -0.0198 -0.0079  0.2638
 2037W        W 6237   3.977   5.784   0.001  0.1209 -0.0593  0.0018
 2038W        W 6238   9.684   3.711  12.123 -0.3039  0.1410  0.0954
 2039W        W 6239   8.212   5.855  11.731  0.2501  0.2691  0.0818
 2040W        W 6240   0.064   0.361  11.306 -0.0124  0.1050 -0.2175
 2041W        W 6241   1.816   6.099  12.619  0.2918 -0.2342 -0.1618
 2042W        W 6242   7.344   7.986  11.921 -0.1089 -0.1559  0.4587
 2043W        W 6243   9.210   9.432   2.017  0.0166 -0.1636 -0.2018
 2044W        W 6244  10.555   9.303   1.093 -0.0530 -0.0590 -0.0988
 2045W        W 6245   8.329   8.610   1.306 -0.0917 -0.1550 -0.3056
 2046W        W 6246   5.583   0.834  10.367 -0.0935 -0.2071 -0.0064
 2047W        W 6247   9.837   3.566   0.362 -0.2170  0.2496 -0.3500
 2048W        W 6248   2.169   8.065  12.128 -0.1283 -0.1715  0.1640
 2049W        W 6249   2.175   4.079   4.440 -0.1878  0.0397  0.1824
 2050W        W 6250   6.987   3.227   2.441 -0.3565 -0.0178  0.1274
 2051W        W 6251   3.905   3.108  10.732 -0.2308 -0.2053 -0.2257
 2052W        W 6252   5.265   5.121  11.120  0.0815  0.3979 -0.1196
 2053W        W 6253   2.754   0.452  12.484  0.1526 -0.1048 -0.0841
 2054W        W 6254   8.668   7.937  11.558  0.0671 -0.6138  0.1445
 2055W        W 6255   7.439   6.132   1.236 -0.2360  0.1817 -0.0843
 2056W        W 6256   2.989   2.104   9.322  0.3167 -0.2080 -0.1011
 2057W        W 6257   1.038   5.384   1.672 -0.1302 -0.0666  0.2530
 2058W        W 6258   3.435   8.162   9.645  0.0381 -0.4056  0.0762
 2059W        W 6259   8.582   7.559   9.182 -0.2097  0.2928  0.1259
 2060W        W 6260   2.297   1.466   2.920  0.0597  0.0851 -0.0336
 2061W        W 6261   4.117   5.955   4.352 -0.1179 -0.1510  0.0073
 2062W        W 6262   0.838   7.795   1.026  0.0800  0.0685 -0.0611
 2063W        W 6263   1.928  10.497   0.440  0.1454  0.1403 -0.1978
 2064W        W 6264   6.630   2.429   4.408 -0.2515 -0.2173 -0.1667
 2065W        W 6265   6.968   4.821   1.979  0.1908 -0.0508  0.0508
 2066W        W 6266   3.173   4.181   1.249  0.1337 -0.0026  0.1595
 2067W        W 6267   8.519   2.815   0.121 -0.1094 -0.1465 -0.0720
 2068W        W 6268   4.736   8.066   0.409  0.3381 -0.1482  0.2064
 2069W        W 6269   2.650   5.803  10.776  0.0315 -0.1573 -0.0557
 2070W        W 6270   0.741   7.572  12.782  0.3483 -0.0793 -0.1556
 2071W        W 6271   8.957   9.579   3.859 -0.2363  0.0268 -0.1683
 2072W        W 6272   9.371   3.615   0.174  0.1403 -0.0744  0.0699
 2073W        W 6273   9.975   3.835   9.242  0.1377 -0.2284  0.0580
 2074W        W 6274  10.638   8.366  11.768 -0.3075 -0.2599 -0.0481
 2075W        W 6275   9.557   6.014   3.561  0.1560 -0.1578  0.2089
 2076W        W 6276   2.644   1.249   0.372 -0.2142 -0.2658 -0.1924
 2077W        W 6277   3.451   2.930  10.861  0.1244  0.1659  0.2175
 2078W        W 6278   2.267   5.416   1.387  0.3299 -0.2833  0.3666
 2079W        W 6279   7.323   5.453   1.424 -0.1239 -0.3524  0.1281
 2080W        W 6280   2.470   1.437   4.426 -0.0864  0.0506 -0.1238
 2081W        W 6281   9.091   3.210   9.486 -0.0471  0.2542 -0.0592
 2082W        W 6282   4.332   2.573   8.324  0.0633 -0.0469  0.1759
 2083W        W 6283   2.031   8.160   0.547  0.1606  0.1410  0.1345
 2084W        W 6284   1.654   6.859   9.897  0.1710 -0.1735 -0.1480
 2085W        W 6285   9.387   5.477   2.284  0.0885 -0.0172 -0.0904
 2086W        W 6286   0.429   1.166   9.318 -0.2212 -0.0776  0.0970
 2087W        W 6287   5.769   8.483  10.261 -0.0979 -0.2122 -0.3606
 2088W        W 6288   6.614   5.913   9.761  0.0375 -0.2259  0.0203
 2089W        W 6289   6.778   0.035   4.494 -0.0251  0.3826 -0.0628
 2090W        W 6290   4.205   4.817  10.363 -0.2828 -0.3641 -0.0736
 2091W        W 6291   6.370   9.292   0.079  0.0564  0.0119  0.3552
 2092W        W 6292   6.345   5.415  10.675 -0.2080  0.1866 -0.0733
 2093W        W 6293   6.146   2.805   2.594  0.0283 -0.0437  0.0166
 2094W        W 6294   1.670   0.418   3.216  0.4433  0.2990 -0.0576
 2095W        W 6295  10.582   5.271  10.029  0.4496  0.0132  0.1179
 2096W        W 6296  10.283   9.284  11.227 -0.0598 -0.0246 -0.0653
 2097W        W 6297  10.436   4.051   9.452 -0.0450 -0.0100  0.4224
 2098W        W 6298   6.203   2.002   1.386 -0.0820 -0.0679 -0.1070
 2099W        W 6299   3.189  10.554  11.490 -0.0658 -0.0789 -0.0028
 2100W        W 6300   4.558   7.027   1.908  0.3143  0.0979 -0.0302
 2101W        W 6301   9.047   8.222   9.822 -0.0738  0.3398  0.0027
 2102W        W 6302  10.676   9.596  12.236  0.0627 -0.7097 -0.1874
 2103W        W 6303   1.717   7.988  11.472 -0.1060  0.0032 -0.0230
 2104W        W 6304   1.547   6.832   4.765 -0.1486  0.0463 -0.2898
 2105W        W 6305   6.477   2.105   8.789 -0.3404 -0.0329  0.2296
 2106W        W 6306   6.911   5.114   1.523 -0.0270 -0.0957 -0.2557
 2107W        W 6307   3.831   3.186   3.166 -0.0392  0.1318  0.0085
 2108W        W 6308   6.238   6.071   7.586 -0.2216  0.1882 -0.0048
 2109W        W 6309   7.709  10.035  11.681 -0.1992 -0.2223 -0.0826
 2110W        W 6310   2.368   4.649   2.069  0.1548 -0.1981  0.2460
 2111W        W 6311   1.224   0.959   0.936  0.3851  0.5997 -0.0439
 2112W        W 6312   8.026   6.116   0.757  0.0091  0.0994 -0.0322
 2113W        W 6313   2.907   8.433   3.331 -0.1161 -0.4188 -0.0147
 2114W        W 6314   8.308   7.698   9.635 -0.1277  0.2463  0.1172
 2115W        W 6315   1.775   4.792   4.073 -0.1351 -0.0487 -0.0309
 2116W        W 6316   1.803   0.795   3.474 -0.2108 -0.3070  0.2735
 2117W        W 6317   1.701   3.304  12.732  0.4731  0.2410 -0.2241
 2118W        W 6318   1.392   1.658   3.451 -0.2094 -0.3874  0.0190
 2119W        W 6319   0.256   6.615  10.202  0.1567  0.5070  0.2421
 2120W        W 6320   5.530   5.880   3.981 -0.1924 -0.3055 -0.0654
 2121W        W 6321   7.442   3.394  11.373 -0.2343  0.2993 -0.0795
 2122W        W 6322   1.137   5.319  10.259 -0.4100  0.1917  0.1322
 2123W        W 6323   9.722   5.782   2.565 -0.1405 -0.2477 -0.0539
 2124W        W 6324   1.037   9.937  12.124  0.1825  0.2575  0.1911
 2125W        W 6325   3.673   6.932  11.231 -0.0194 -0.1075  0.1079
 2126W        W 6326   7.786   8.997   1.198  0.0872 -0.0059  0.0715
 2127W        W 6327   7.582   6.478  10.340 -0.0393  0.3258 -0.0043
 2128W        W 6328   1.172   7.756   3.502  0.2302  0.2460  0.0100
 2129W        W 6329   9.151   9.757   1.138  0.0428  0.0647 -0.2528
 2130W        W 6330   6.500   8.375   2.426  0.1594 -0.1219 -0.2447
 2131W        W 6331   5.768   1.037   1.005  0.3508  0.0737 -0.0030
 2132W        W 6332   9.208   7.778   7.411 -0.2783 -0.2139  0.0137
 2133W        W 6333   2.660   5.610   1.143 -0.2306 -0.0459  0.3135
 2134W        W 6334   7.362   6.839   8.032 -0.0141 -0.3661  0.2882
 2135W        W 6335   0.349   3.468  12.494  0.1401 -0.1684  0.4693
 2136W        W 6336   9.933   7.788   7.925  0.1102 -0.0033  0.2406
 2137W        W 6337   1.587   5.215   2.840 -0.0715 -0.0087  0.0918
 2138W        W 6338   6.230  10.338  11.107  0.0003  0.1675 -0.0671
 2139W        W 6339   5.290   0.988   4.393 -0.2612 -0.2280 -0.0613
 2140W        W 6340   3.404  10.348   1.306  0.1685  0.0403  0.1572
 2141W        W 6341   8.174   3.980   3.616  0.3278 -0.3756 -0.1012
 2142W        W 6342   0.482   2.282   2.460 -0.2379 -0.1403 -0.1208
 2143W        W 6343   6.966   2.448  12.502 -0.0758 -0.1786 -0.0699
 2144W        W 6344   1.447   3.775   2.658  0.0654  0.1223 -0.0898
 2145W        W 6345   3.421   3.611  10.991 -0.2477 -0.0365 -0.2065
 2146W        W 6346   6.146   1.189   9.060  0.2128  0.2009  0.0794
 2147W        W 6347   6.897   6.832  10.380 -0.2601 -0.0087 -0.1617
 2148W        W 6348   1.685   7.799   3.397 -0.1136 -0.0189  0.1373
 2149W        W 6349   7.696   5.245   2.616 -0.1390 -0.0285  0.0419
 2150W        W 6350   4.646   5.514   0.673 -0.1642  0.0365  0.1813
 2151W        W 6351   3.392   5.275  11.284 -0.1531 -0.1840  0.1379
 2152W        W 6352  10.055   6.442   8.348 -0.3122 -0.0567 -0.0772
 2153W        W 6353   9.838   3.168   1.274  0.2177  0.2711  0.0218
 2154W        W 6354   8.984   4.769   9.266 -0.0655 -0.0402  0.1438
 2155W        W 6355   7.981   3.900   1.754 -0.0564  0.1527  0.1967
 2156W        W 6356   7.198   3.820   0.413  0.1224 -0.0496 -0.2524
 2157W        W 6357   4.476   0.721  12.481  0.0653  0.2400 -0.2046
 2158W        W 6358   2.725   3.111   0.979 -0.1201 -0.0599  0.2989
 2159W        W 6359   0.811   8.647   1.939  0.0950  0.4134  0.3294
 2160W        W 6360   0.639   3.688  10.245 -0.0592  0.3305  0.0144
 2161W        W 6361   9.753   6.969   1.929  0.0893  0.1139 -0.2577
 2162W        W 6362  10.332   9.721   2.065  0.0265  0.2042  0.0741
 2163W        W 6363   3.797   4.582   9.198 -0.2012 -0.1803 -0.0191
 2164W        W 6364   2.573   1.364  11.386 -0.4189 -0.0417  0.0141
 2165W        W 6365   9.248   4.387   8.937  0.1148  0.6307  0.1016
 2166W        W 6366   2.544   5.259   9.095  0.0048 -0.1762 -0.2135
 2167W        W 6367   5.732  10.220   3.421 -0.2600 -0.1326 -0.0549
 2168W        W 6368   5.162   0.207   3.614 -0.0889 -0.0196  0.4061
 2169W        W 6369   2.257   7.156   0.518  0.0582 -0.0015 -0.0101
 2170W        W 6370   6.599   6.672  12.514  0.3100 -0.0137 -0.1273
 2171W        W 6371   2.471   5.187   1.861 -0.0776  0.1826 -0.2094
 2172W        W 6372   9.168   6.975   9.939  0.1927  0.0753  0.0013
 2173W        W 6373   8.688   1.834   3.226 -0.0638  0.2994 -0.1632
 2174W        W 6374   1.485   3.478  11.841 -0.1316  0.6246 -0.0990
 2175W        W 6375   7.205   1.931  11.817 -0.0468  0.1328  0.2541
 2176W        W 6376   5.583   4.409  10.713 -0.1365  0.2923  0.1614
 2177W        W 6377   6.313   2.522  11.359  0.1753 -0.1009 -0.0191
 2178W        W 6378   7.660   5.259   8.385  0.1237  0.2144 -0.6065
 2179W        W 6379   7.096   4.638   2.442  0.2878  0.1784  0.3801
 2180W        W 6380   5.821   7.789   1.913  0.2486  0.0772 -0.1487
 2181W        W 6381   7.447   1.619   3.579 -0.3484  0.2016  0.0666
 2182W        W 6382   4.727   2.545  11.507  0.2470 -0.1193  0.1959
 2183W        W 6383   1.090   9.533   1.697 -0.0688  0.1392 -0.0778
 2184W        W 6384   5.462   0.972   9.435  0.0902  0.0193  0.1176
 2185W        W 6385   2.660   9.614   9.485 -0.2141 -0.1091 -0.0793
 2186W        W 6386   1.943   3.888  11.604 -0.3008 -0.3782 -0.1268
 2187W        W 6387   4.390   3.671   9.425  0.4668  0.0725  0.0072
 2188W        W 6388  10.314   6.179   1.320 -0.2206  0.1731 -0.6119
 2189W        W 6389   1.658   1.832   2.781 -0.1391 -0.1720 -0.3309
 2190W        W 6390  10.675   0.700   8.292  0.1412 -0.0750  0.1195
 2191W        W 6391   2.256   4.983   3.957 -0.0975 -0.5308 -0.0270
 2192W        W 6392   1.398   3.945  12.502  0.1063  0.1896  0.2079
 2193W        W 6393   0.112   9.683   8.384  0.1395 -0.0914 -0.0008
 2194W        W 6394   6.900   9.269   1.499  0.0762  0.2979  0.0979
 2195W        W 6395   7.103   7.063   8.391  0.0557 -0.1622 -0.1964
 2196W        W 6396   8.590  10.237  12.244  0.1465  0.0866  0.1491
 2197W        W 6397   8.128   3.846   2.251 -0.0212 -0.1397 -0.3808
 2198W        W 6398   7.181   4.469   0.623  0.0087 -0.0961  0.3682
 2199W        W 6399   1.528   0.466   0.327  0.0898 -0.1689  0.1569
 2200W        W 6400   2.245   7.691   0.441  0.2771  0.0625  0.1428
 2201W        W 6401   9.612   9.974   4.142 -0.4486  0.2118 -0.2419
 2202W        W 6402   6.529   0.775   3.360  0.2531 -0.1747  0.2199
 2203W        W 6403   5.877   2.386   4.069  0.1082  0.0432  0.1678
 2204W        W 6404   3.366   7.971   3.730  0.1325 -0.2692  0.0647
 2205W        W 6405   2.457   4.503   2.528  0.3806 -0.0594 -0.1677
 2206W        W 6406   9.275   5.304   9.287 -0.2878  0.0643  0.0086
 2207W        W 6407   7.609   2.293   3.241 -0.0124 -0.0195 -0.3144
 2208W        W 6408   0.981  10.246   3.245  0.1729 -0.0104  0.1191
 2209W        W 6409   8.299   0.648   2.906  0.0343  0.0642  0.2269
 2210W        W 6410   6.145   8.284  11.177 -0.2002  0.3151 -0.1217
 2211W        W 6411   2.682   4.717   0.241 -0.3172 -0.0991 -0.0460
 2212W        W 6412   8.868   7.345   8.356  0.3296  0.0811  0.0231
 2213W        W 6413   2.544   6.155   8.899  0.1913  0.4544  0.3119
 2214W        W 6414   6.752   0.248   1.513  0.1155 -0.2189  0.0235
 2215W        W 6415   9.572   1.706  10.369 -0.1710  0.3060 -0.0378
 2216W        W 6416   9.105   9.772  12.712 -0.4037  0.2612 -0.0024
 2217W        W 6417   2.367   1.036   1.341 -0.3053 -0.1699  0.1940
 2218W        W 6418   3.716   3.424  11.651  0.3690 -0.0649 -0.0992
 2219W        W 6419   2.866   7.459   4.194  0.2069 -0.2301 -0.2861
 2220W        W 6420   7.230   9.307   2.373  0.0649  0.1554  0.0541
 2221W        W 6421   4.322   9.460   0.080  0.3298  0.1670  0.1253
 2222W        W 6422   8.897   4.607  10.430  0.1222 -0.1009 -0.0791
 2223W        W 6423   4.274   8.613  11.631 -0.2180 -0.0618 -0.2719
 2224W        W 6424   1.621   4.991   1.847 -0.1648  0.0496  0.0860
 2225W        W 6425   9.765   7.577   3.310 -0.2730 -0.2728  0.0671
 2226W        W 6426   1.881   4.883   0.720  0.2075  0.2571 -0.3748
 2227W        W 6427   9.810   0.739   3.118  0.6470  0.1397 -0.1559
 2228W        W 6428  10.225   1.202   3.686 -0.0621 -0.1515  0.0008
 2229W        W 6429   9.062   1.678   1.477 -0.3548  0.0491 -0.2707
 2230W        W 6430   8.847   9.340  10.074 -0.1095 -0.2034  0.1584
 2231W        W 6431   0.362   3.277  11.607  0.1015 -0.0439  0.2457
 2232W        W 6432  10.630   8.248  10.439 -0.2669  0.2146  0.0122
 2233W        W 6433   6.224   0.404   2.988  0.1842 -0.2181  0.3523
 2234W        W 6434   4.507   5.207   8.805  0.1326 -0.1117  0.0439
 2235W        W 6435   9.937   0.066  10.731 -0.1493 -0.0768 -0.1975
 2236W        W 6436   2.784   8.502   2.479 -0.2615  0.1401 -0.0642
 2237W        W 6437   6.215   8.470   1.933  0.0446 -0.1352 -0.2212
 2238W        W 6438   0.639   3.863  10.794  0.1302  0.1455  0.1689
 2239W        W 6439   1.970   8.453   1.912 -0.0432 -0.0081  0.1927
 2240W        W 6440   7.703  10.428   1.588  0.0892 -0.0645  0.2700
 2241W        W 6441   9.234   4.092  11.138  0.1108 -0.0075 -0.0429
 2242W        W 6442   7.309   7.536   2.926 -0.2316 -0.1393 -0.3147
 2243W        W 6443   1.685   7.042   0.564 -0.2465 -0.0282 -0.1488
 2244W        W 6444   4.275   3.235   3.860  0.0712 -0.2568 -0.1860
 2245W        W 6445   9.247   3.252   0.509 -0.0427 -0.2279  0.0360
 2246W        W 6446   0.011   6.976   8.875  0.2704  0.0153 -0.0115
 2247W        W 6447   0.285  10.188  11.070  0.1785  0.2416 -0.0236
 2248W        W 6448   2.678   8.707   1.460 -0.1324  0.1289 -0.1194
 2249W        W 6449   9.561   4.555   9.318 -0.0148 -0.1253 -0.2172
 2250W        W 6450   2.051   5.967   9.533  0.1815 -0.0907  0.2899
 2251W        W 6451   2.530   7.676   9.223 -0.0594  0.0263  0.3146
 2252W        W 6452   9.777   3.459   0.870 -0.1672  0.0413  0.0197
 2253W        W 6453   6.407   0.780   9.450  0.0188  0.1449 -0.0039
 2254W        W 6454   9.940   5.339  12.021 -0.0780 -0.0382  0.0114
 2255W        W 6455   2.366  10.408  10.798 -0.0054  0.2538 -0.1263
 2256W        W 6456   8.692   2.931   9.879  0.1015  0.1123  0.0595
 2257W        W 6457   2.536   1.121   1.974 -0.1535 -0.1617  0.0016
 2258W        W 6458  10.506   3.060  10.590  0.1340 -0.0124  0.0413
 2259W        W 6459   1.268   2.803   0.848 -0.0545 -0.1456  0.1621
 2260W        W 6460   5.589   8.050   8.478  0.2829 -0.0321  0.1003
 2261W        W 6461   1.947   6.232   3.873 -0.4325 -0.1523  0.0202
 2262W        W 6462   8.331   9.019   0.353 -0.0212  0.1380 -0.1590
 2263W        W 6463   9.699   8.693  10.682  0.0283  0.3956  0.5070
 2264W        W 6464   3.717   0.541   1.840 -0.1926 -0.3234  0.1167
 2265W        W 6465   4.344   8.984  10.748 -0.0235 -0.1332 -0.2695
 2266W        W 6466   8.060   8.598   9.691  0.1322  0.1266 -0.1006
 2267W        W 6467   3.284   9.354   4.414 -0.1518 -0.2119 -0.0066
 2268W        W 6468   7.821   2.011   9.214 -0.0668 -0.2561  0.1424
 2269W        W 6469   9.962   5.170   2.835  0.0865 -0.0048 -0.3045
 2270W        W 6470   5.999   6.588   0.131  0.1748  0.3235 -0.1641
 2271W        W 6471   6.962   2.702   2.994 -0.2201  0.4120  0.0513
 2272W        W 6472   3.967   0.709   9.991 -0.3087 -0.0655 -0.1726
 2273W        W 6473   3.006   3.554   9.703  0.3562  0.1725 -0.0983
 2274W        W 6474   3.692   5.605   9.943 -0.0374 -0.0683  0.0827
 2275W        W 6475   2.585   6.882   9.403 -0.0903  0.2542 -0.3484
 2276W        W 6476   8.139   2.035   3.271 -0.0613 -0.2373 -0.1360
 2277W        W 6477   7.315   0.346   2.233  0.3899  0.1210  0.0352
 2278W        W 6478   4.562   7.849  12.615  0.0134  0.2801  0.1099
 2279W        W 6479   1.652  10.529   1.071 -0.3046 -0.3252 -0.0658
 2280W        W 6480   0.588   9.379   1.576 -0.0355  0.0920  0.1591
 2281W        W 6481   8.181   9.432  10.878 -0.1311 -0.1494  0.0285
 2282W        W 6482   5.551   6.631   9.854 -0.1285 -0.2468  0.0769
 2283W        W 6483   8.676   1.897   2.365  0.0193  0.0127  0.1830
 2284W        W 6484   4.477   7.107  10.593  0.1282  0.2077 -0.3098
 2285W        W 6485   8.450   9.408  10.384  0.0348 -0.3972 -0.0213
 2286W        W 6486  10.019   0.950  12.431  0.6436  0.3251 -0.1656
 2287W        W 6487   5.192   9.863   8.975 -0.2907  0.0182 -0.0973
 2288W        W 6488   9.880   0.329  12.420 -0.2414 -0.3242 -0.1390
 2289W        W 6489   8.892   8.880   2.800 -0.0408  0.3124 -0.1332
 2290W        W 6490   7.677   1.638   9.508 -0.0001  0.0572 -0.2238
 2291W        W 6491   2.353   3.867  12.003  0.0576 -0.1454 -0.1238
 2292W        W 6492   5.995   9.617   8.284 -0.3430  0.1695 -0.1382
 2293W        W 6493   2.554   5.393   8.071 -0.2619 -0.1451  0.2047
 2294W        W 6494   6.613   4.715  10.802  0.0329  0.0198  0.0390
 2295W        W 6495   7.675   4.161  10.744 -0.0335  0.1008 -0.1808
 2296W        W 6496   2.376   3.888  11.385  0.2616 -0.1237 -0.0515
 2297W        W 6497   0.679   4.480  10.873  0.1686 -0.0110 -0.2578
 2298W        W 6498   1.329   8.776   2.017  0.0018 -0.0964  0.1177
 2299W        W 6499   8.341   3.873   9.415 -0.0170 -0.1755  0.1705
 2300W        W 6500   4.946   1.775   4.935  0.4505 -0.2752 -0.1608
 2301W        W 6501   6.184   9.141   0.733  0.1491  0.0780 -0.3158
 2302W        W 6502   4.253  10.351   9.590 -0.2319 -0.0166  0.3649
 2303W        W 6503   3.100   1.857   1.502  0.0422  0.3187 -0.1804
 2304W        W 6504   5.617   3.580   3.732  0.0003  0.1020  0.3774
 2305W        W 6505   3.521   5.020  12.159  0.1801  0.3472  0.0403
 2306W        W 6506   2.451   5.804   9.276  0.1666 -0.1663 -0.1285
 2307W        W 6507  10.586   3.750  12.351 -0.5061  0.1236  0.1009
 2308W        W 6508   2.800   8.586   9.163  0.0904  0.1623  0.0629
 2309W        W 6509   7.095   9.111   4.121  0.5212 -0.1508  0.0101
 2310W        W 6510   4.483   4.289  11.541 -0.0693 -0.3105  0.0325
 2311W        W 6511   6.952   4.388   3.713  0.1919  0.3609 -0.0149
 2312W        W 6512   4.342   1.295   3.207  0.1695 -0.0117  0.1403
 2313W        W 6513   5.132   4.588  10.569 -0.0771 -0.0221  0.1612
 2314W        W 6514   2.525   4.003   2.537  0.0413  0.1255 -0.1636
 2315W        W 6515   3.895   2.035   1.307 -0.0551  0.0355  0.0336
 2316W        W 6516   4.939   5.816   9.833 -0.0085  0.0454 -0.1281
 2317W        W 6517   5.861   9.687   4.141 -0.0897  0.0192  0.2027
 2318W        W 6518   5.160   2.601  10.324  0.1147  0.1379 -0.1933
 2319W        W 6519   3.417   5.261   1.279  0.1128 -0.2755  0.3113
 2320W        W 6520   2.831   6.455   2.297  0.0303 -0.2582 -0.0818
 2321W        W 6521   4.988   7.281  10.173 -0.0888  0.1465  0.0368
 2322W        W 6522   0.965   5.434   8.568 -0.2443  0.1105  0.0067
 2323W        W 6523   4.887   2.853  10.029  0.2164  0.2112 -0.0738
 2324W        W 6524   3.126   7.674   0.308  0.1559  0.0344 -0.1381
 2325W        W 6525   0.218   8.793  10.859  0.1224  0.0311  0.3425
 2326W        W 6526   6.826   9.038   0.055  0.2809 -0.1311 -0.0968
 2327W        W 6527   7.815   2.097   3.669  0.1949  0.0431 -0.0655
 2328W        W 6528   7.573   1.299  12.737 -0.1899 -0.1065 -0.0358
 2329W        W 6529   0.900   8.669   9.566  0.0358  0.1342 -0.1892
 2330W        W 6530   8.433   9.992   1.416 -0.1875  0.2419 -0.0959
 2331W        W 6531   2.237   9.182   2.095 -0.1183  0.0257 -0.0987
 2332W        W 6532   3.944   2.565   1.377  0.3336 -0.0832  0.2819
 2333W        W 6533   0.790  10.085  10.153  0.1405  0.0345 -0.2542
 2334W        W 6534   4.798   7.293  11.870  0.2301 -0.0180  0.1917
 2335W        W 6535   2.584   8.054   7.558  0.3752 -0.1889 -0.0388
 2336W        W 6536   2.175   7.028   3.465  0.0578 -0.4876 -0.0242
 2337W        W 6537   0.631   5.829  12.710 -0.1620  0.0462  0.2451
 2338W        W 6538   2.381   6.599   4.348  0.1312  0.0778 -0.0096
 2339W        W 6539   1.813   7.126   7.902 -0.0409 -0.0729 -0.1675
 2340W        W 6540   7.291   8.462  11.533 -0.1388 -0.0014  0.2325
 2341W        W 6541   5.899   0.369  12.444 -0.0291 -0.1879 -0.3246
 2342W        W 6542   7.467   1.933   0.894  0.3889  0.0282 -0.0340
 2343W        W 6543   6.117   3.437   9.926 -0.2445 -0.0155 -0.0317
 2344W        W 6544   7.398   4.246   3.465 -0.0353  0.1990  0.0532
 2345W        W 6545   2.661   5.952   2.577 -0.2284  0.1280  0.1844
 2346W        W 6546   7.423   0.852   2.363 -0.2153  0.2817 -0.1629
 2347W        W 6547   6.348   6.248  10.996 -0.0613  0.3075 -0.1110
 2348W        W 6548   4.865   8.230  12.207 -0.3322  0.1188  0.1770
 2349W        W 6549   9.624   6.819   2.502  0.0600 -0.1476 -0.1105
 2350W        W 6550   1.632   3.587   2.014  0.0346  0.1059 -0.2664
 2351W        W 6551   5.512   5.620   1.104 -0.1645 -0.0134 -0.0172
 2352W        W 6552   5.220   2.088   3.345 -0.1947 -0.0982  0.1272
 2353W        W 6553   3.435  10.044   9.548 -0.0521 -0.0196  0.0032
 2354W        W 6554  10.322   2.371  12.802 -0.3184 -0.2672  0.0253
 2355W        W 6555   2.720   6.889   3.562 -0.0435 -0.1962 -0.3469
 2356W        W 6556   9.216   6.238   3.224  0.0813  0.1411  0.0297
 2357W        W 6557   9.463   0.028   9.701  0.1148  0.2751  0.0903
 2358W        W 6558   4.509   8.155   9.301 -0.2781 -0.3105  0.1237
 2359W        W 6559   4.739   7.304   9.708  0.1365 -0.1501  0.0922
 2360W        W 6560   7.340   2.103  12.329 -0.2658  0.0609 -0.0445
 2361W        W 6561   1.944   6.822   9.244  0.0417 -0.2822  0.2773
 2362W        W 6562   8.495   9.599   9.242 -0.0386 -0.2930  0.1646
 2363W        W 6563   0.335   1.533  10.116  0.0268 -0.0754 -0.0557
 2364W        W 6564   2.750   6.346   3.689  0.0203  0.2825 -0.1980
 2365W        W 6565   4.239   8.862   2.408 -0.1766 -0.0883  0.0729
 2366W        W 6566   3.643   0.901  12.387 -0.2192 -0.0686 -0.1709
 2367W        W 6567   4.823   1.822  10.129  0.3631 -0.2881 -0.0520
 2368W        W 6568   5.271  10.467   3.374  0.1626 -0.2037 -0.0824
 2369W        W 6569   8.371   8.342   4.127 -0.1292  0.3928  0.0275
 2370W        W 6570  10.541   1.692   3.091  0.1311  0.1377 -0.0722
 2371W        W 6571   8.286   4.736   3.317 -0.2674  0.2224  0.0008
 2372W        W 6572   4.501   4.944  10.772  0.2042  0.4882  0.3651
 2373W        W 6573   9.335   2.232   9.786 -0.0304 -0.1178  0.1047
 2374W        W 6574   3.593   9.469   8.946  0.2009  0.2721 -0.0722
 2375W        W 6575   6.543   4.082   0.964 -0.1904 -0.0812  0.1020
 2376W        W 6576   1.833   8.926   4.850 -0.3384 -0.0225 -0.1582
 2377W        W 6577   4.506   9.747   3.610  0.0040  0.1224 -0.1208
 2378W        W 6578   6.675   1.637  10.969  0.2419  0.0438  0.1828
 2379W        W 6579   0.054   0.264   9.486 -0.1833  0.1143  0.3337
 2380W        W 6580   4.904   5.155   9.798 -0.2764  0.2120 -0.2655
 2381W        W 6581   8.771   8.963  12.395 -0.0113 -0.0958 -0.2815
 2382W        W 6582   9.820   4.488  11.478  0.1461  0.0608  0.0942
 2383W        W 6583   3.627   8.410   3.911  0.2393  0.0337  0.3538
 2384W        W 6584   1.691   7.237   2.701  0.0892 -0.1816 -0.0108
 2385W        W 6585   6.246   1.204   1.001 -0.1960 -0.0316  0.2123
 2386W        W 6586   3.143   7.233   2.852  0.1396 -0.1036  0.4064
 2387W        W 6587   5.444   2.956  10.097  0.1495 -0.1981  0.0449
 2388W        W 6588   2.441   0.858   2.764 -0.2510 -0.0585 -0.0141
 2389W        W 6589   1.383   7.000   0.943  0.0912 -0.2264  0.1838
 2390W        W 6590   2.193   2.418  12.001  0.0047 -0.0290 -0.2779
 2391W        W 6591   2.594   6.775   1.408 -0.1147  0.1033 -0.0781
 2392W        W 6592   0.328   4.523   1.930  0.1195 -0.0115  0.1340
 2393W        W 6593   9.078   2.964  12.156 -0.0030 -0.0533  0.2532
 2394W        W 6594   6.430   2.790  10.311 -0.1243  0.0469 -0.2528
 2395W        W 6595   1.879   8.395   3.871 -0.0634  0.2943  0.1425
 2396W        W 6596   3.601   3.917  12.428 -0.1104  0.2147  0.1421
 2397W        W 6597   3.283   6.371   8.566 -0.2271  0.1480 -0.0605
 2398W        W 6598   0.837   1.616  11.343 -0.1613  0.0522 -0.1256
 2399W        W 6599   0.193   2.126   8.540  0.1268  0.1065  0.0765
 2400W        W 6600   1.858   9.983   9.697  0.1515  0.2827 -0.1863
 2401W        W 6601   5.727   0.510   1.055  0.3970 -0.0134 -0.0286
 2402W        W 6602  10.310   0.910   1.441  0.1746  0.6209 -0.1406
 2403W        W 6603   2.644   4.181   1.723  0.0366  0.0063 -0.2789
 2404W        W 6604   4.232   9.024  12.340 -0.0229  0.1919 -0.1378
 2405W        W 6605   2.351   8.708  11.265  0.0830  0.1707 -0.0718
 2406W        W 6606   3.009   7.429  12.750 -0.0795 -0.4247 -0.0008
 2407W        W 6607   3.804   5.472   4.120 -0.0006  0.0024  0.3326
 2408W        W 6608   8.482   3.724  10.795  0.0938  0.2217  0.0352
 2409W        W 6609  10.374  10.234   1.937 -0.0941  0.5328 -0.1913
 2410W        W 6610  10.483   1.911   0.171 -0.1987 -0.4900  0.0975
 2411W        W 6611   1.478   8.718  12.629 -0.3006 -0.2670  0.0799
 2412W        W 6612   4.855   8.941  10.698 -0.0973  0.4925  0.0384
 2413W        W 6613   1.621   8.634   1.586  0.4967  0.2027 -0.3058
 2414W        W 6614   1.035   1.600   2.198  0.0501 -0.2376 -0.0199
 2415W        W 6615   9.100   4.656   2.615  0.1757  0.0375  0.0656
 2416W        W 6616   4.293   3.706   3.567  0.0274 -0.4625  0.4065
 2417W        W 6617  10.220   6.921  12.774  0.0947 -0.1517 -0.0990
 2418W        W 6618   2.984   9.814   3.007 -0.2085 -0.1981 -0.2264
 2419W        W 6619   1.686   0.800   0.645 -0.0526  0.0749  0.0593
 2420W        W 6620   0.584   7.832  11.781 -0.0362 -0.0110 -0.1951
 2421W        W 6621   5.370   5.893  12.621  0.2810  0.0188  0.0805
 2422W        W 6622   2.711   0.069  11.034 -0.3159  0.2520 -0.1216
 2423W        W 6623   7.476   9.268   8.582  0.0497 -0.2242 -0.4083
 2424W        W 6624   2.896   8.059   9.267  0.1434  0.0235 -0.1626
 2425W        W 6625   4.922   1.985   9.603  0.3722 -0.0919 -0.1775
 2426W        W 6626   1.726   2.869  11.244  0.0018 -0.0815  0.2500
 2427W        W 6627   3.007   0.302   2.092 -0.1928  0.2178 -0.0121
 2428W        W 6628   1.230   0.457   3.428 -0.0823  0.0882 -0.1065
 2429W        W 6629   0.864   7.856  10.245  0.1669 -0.0044  0.0755
 2430W        W 6630   2.060   0.459  10.237  0.0557  0.2368 -0.4379
 2431W        W 6631   9.884   4.193   9.560  0.1472  0.1036 -0.1346
 2432W        W 6632   7.583   4.200   7.982 -0.1834 -0.4863  0.0916
 2433W        W 6633   5.246   7.886   2.674  0.0704  0.1833  0.0395
 2434W        W 6634   5.991   9.008   2.080 -0.0172  0.1066  0.0483
 2435W        W 6635   1.448   7.967   2.510  0.1189 -0.0900 -0.0541
 2436W        W 6636   4.638  10.676   9.417 -0.0255 -0.0152 -0.2636
 2437W        W 6637   3.591   6.320   2.259  0.1430  0.0820 -0.1403
 2438W        W 6638   7.167   6.784   1.111  0.2208 -0.1552  0.1199
 2439W        W 6639   8.475   0.413   0.725 -0.0381 -0.1588 -0.0309
 2440W        W 6640   3.524   6.935   2.941  0.1456 -0.0931  0.1200
 2441W        W 6641   1.808   2.278   2.570  0.1041  0.0987 -0.3105
 2442W        W 6642   2.370   4.018   9.359  0.0802 -0.3732  0.0752
 2443W        W 6643   0.153   9.029   2.521 -0.1471 -0.0774 -0.2043
 2444W        W 6644   0.675   8.803  10.026 -0.0943  0.2062  0.3330
 2445W        W 6645   2.552   3.053   2.738  0.3577 -0.3126  0.0194
 2446W        W 6646   6.781  10.264   3.139  0.1276  0.1318 -0.4164
 2447W        W 6647   5.460   6.802   9.402  0.3364 -0.0895 -0.0387
 2448W        W 6648  10.519   7.957   9.166  0.1237 -0.0180 -0.1420
 2449W        W 6649   5.917   5.839   1.438  0.1352 -0.1954 -0.2307
 2450W        W 6650   0.931   1.387   9.273  0.0303 -0.1568 -0.3401
 2451W        W 6651   1.555   2.377  12.668  0.1583 -0.1227  0.1593
 2452W        W 6652   0.086   2.626   1.569 -0.2334 -0.1323 -0.1437
 2453W        W 6653  10.598   8.409   9.598  0.0713 -0.1834 -0.1333
 2454W        W 6654   2.140   9.746   3.233 -0.0120  0.0430 -0.1152
 2455W        W 6655   6.915   2.230   9.682 -0.2167  0.2473  0.0467
 2456W        W 6656   1.447   9.658  12.572  0.0967  0.2709  0.3481
 2457W        W 6657   6.600   5.590   2.298  0.0665 -0.2982 -0.1595
 2458W        W 6658   3.791   7.994   8.124 -0.1575 -0.1354 -0.2606
 2459W        W 6659   5.167   6.510   0.283  0.0160  0.0939  0.2826
 2460W        W 6660   4.102   7.619  12.489  0.2136  0.2381 -0.0998
 2461W        W 6661   2.581   9.243   1.539  0.2158 -0.3664  0.2153
 2462W        W 6662   3.794   3.964   2.497  0.0292  0.1249  0.1805
 2463W        W 6663   9.187   5.688   1.017 -0.0774 -0.1204 -0.2226
 2464W        W 6664   7.677   6.743   0.050  0.0544  0.3017  0.1393
 2465W        W 6665   3.437   7.885  10.960 -0.3738  0.2844 -0.3265
 2466W        W 6666   4.704   2.516   9.692 -0.1911  0.1168 -0.0201
 2467W        W 6667   6.936   5.022  11.993  0.2069 -0.1573 -0.0997
 2468W        W 6668   7.984   0.958   3.179 -0.2455  0.0497 -0.0941
 2469W        W 6669   3.853   7.003   4.191 -0.3184  0.2315 -0.1187
 2470W        W 6670   8.743   5.460   3.597 -0.1419 -0.0287  0.1774
 2471W        W 6671   3.576   4.652   1.787  0.4115  0.1694 -0.0270
 2472W        W 6672   1.372   8.441   2.383  0.1309  0.0125 -0.1823
 2473W        W 6673   0.832   6.348   9.527  0.0455 -0.3512 -0.0006
 2474W        W 6674   3.289   6.006   4.211 -0.0162  0.0745  0.4163
 2475W        W 6675   7.988   3.961  11.648  0.0064  0.1245 -0.0905
 2476W        W 6676   9.596   5.853  10.523  0.0699  0.3637  0.1626
 2477W        W 6677   0.174   0.715   3.999  0.1941  0.1155  0.0767
 2478W        W 6678   0.784   1.058  10.253 -0.0368  0.0604 -0.3451
 2479W        W 6679   5.623   6.824   2.359 -0.1328  0.3775  0.1146
 2480W        W 6680   1.175   9.737  10.106  0.1473 -0.2228  0.0236
 2481W        W 6681   3.244   2.588   3.005  0.1408 -0.1136 -0.0287
 2482W        W 6682   3.929   2.271   0.392 -0.0665 -0.0221  0.1049
 2483W        W 6683   3.990   4.277   8.419 -0.1234  0.1225  0.1874
 2484W        W 6684   6.087   3.972  11.695 -0.0368  0.1232  0.0951
 2485W        W 6685   2.581   7.001   0.922  0.0319  0.2068 -0.1526
 2486W        W 6686   9.028   2.589   2.571 -0.0475 -0.1220 -0.1221
 2487W        W 6687   3.224   9.072  11.209  0.0484  0.1249 -0.1146
 2488W        W 6688   5.311   1.492  12.667  0.1880 -0.2330  0.0068
 2489W        W 6689  10.642   6.282   2.774 -0.2264 -0.0534 -0.0197
 2490W        W 6690   3.720   1.586  10.258 -0.0549 -0.2174 -0.1630
 2491W        W 6691   6.754   3.851   3.583 -0.0479  0.2506 -0.1045
 2492W        W 6692   6.017   3.513  11.794  0.2562  0.2655  0.3543
 2493W        W 6693   8.692   5.055   0.702  0.0640  0.0541  0.0940
 2494W        W 6694   5.501   3.600   0.516  0.0234  0.1842 -0.1071
 2495W        W 6695   3.466   8.912   1.990  0.0449 -0.1989  0.1215
 2496W        W 6696   2.721  10.382   1.561 -0.1704 -0.1875  0.1024
 2497W        W 6697   1.787   8.882   8.615  0.0462  0.0152 -0.0451
 2498W        W 6698   5.477   9.846  11.502 -0.0295  0.1915 -0.0801
 2499W        W 6699   9.410   2.878  10.452  0.3417 -0.1993 -0.1536
 2500W        W 6700   1.429   6.690   8.734  0.0803 -0.1895  0.0270
 2501W        W 6701   7.402   3.232   0.689  0.1920  0.1091  0.0000
 2502W        W 6702   1.077   8.030   0.657  0.0609  0.1608 -0.2161
 2503W        W 6703   4.567   9.836   0.410 -0.1072  0.0397 -0.0842
 2504W        W 6704   4.356  10.577  12.614  0.2690 -0.2281  0.3102
 2505W        W 6705   5.485   5.104   1.805 -0.0850 -0.1037 -0.2884
 2506W        W 6706   4.383   6.753   1.001  0.0968  0.3124  0.5924
 2507W        W 6707   2.103   8.741   9.494 -0.2370  0.2445 -0.1840
 2508W        W 6708   0.101   3.964  11.912  0.2895  0.3851 -0.1554
 2509W        W 6709  10.649   2.098   1.812  0.0959  0.2730  0.0009
 2510W        W 6710   7.866   3.013   2.929 -0.1583  0.2792 -0.1842
 2511W        W 6711  10.289   7.565   9.548 -0.5010  0.1408  0.4972
 2512W        W 6712   7.437   8.230  10.688  0.0146  0.1633  0.1132
 2513W        W 6713   1.817   3.773   0.896  0.0543  0.0583 -0.1134
 2514W        W 6714   0.901   3.796  12.156  0.0908 -0.3375  0.1173
 2515W        W 6715   4.511   2.215   4.090  0.1696  0.0237 -0.0262
 2516W        W 6716  10.616   2.985   0.595 -0.2126  0.1056 -0.0795
 2517W        W 6717   7.821   9.018   0.646  0.5001 -0.3184 -0.0332
 2518W        W 6718   9.840  10.068   0.492 -0.0822  0.2488 -0.1099
 2519W        W 6719   7.197   3.790   2.446 -0.4226 -0.1516  0.1235
 2520W        W 6720   8.457   5.640  11.363 -0.0279 -0.0544  0.0782
 2521W        W 6721   4.746   6.313   1.050  0.0698  0.0843  0.0011
 2522W        W 6722   5.205   9.440   0.910  0.2161  0.0055 -0.0233
 2523W        W 6723   6.897   7.198  12.319 -0.0541 -0.0813  0.0954
 2524W        W 6724  10.014   7.349   3.836  0.0444 -0.0141 -0.0980
 2525W        W 6725   2.069   0.076  12.510  0.1462 -0.4019 -0.1931
 2526W        W 6726   9.260   8.912  12.292  0.2329  0.1169  0.1185
 2527W        W 6727   7.892   6.308   1.335 -0.0201  0.1310  0.1785
 2528W        W 6728   5.633   2.641   1.477  0.4263 -0.0214 -0.1730
 2529W        W 6729   9.030   5.604   9.577 -0.0790  0.0699  0.0126
 2530W        W 6730   3.350   4.172   2.102 -0.0779 -0.0643 -0.0011
 2531W        W 6731   4.189   5.349   3.723  0.0985  0.0307  0.3970
 2532W        W 6732   8.731   0.069  10.212  0.3051  0.0219 -0.3641
 2533W        W 6733   0.838   3.327   8.528 -0.0142 -0.0458 -0.1481
 2534W        W 6734   4.701   5.994   9.452  0.0372 -0.0392 -0.3342
 2535W        W 6735   3.210   4.073   9.664 -0.1521 -0.1077 -0.3124
 2536W        W 6736   8.218   0.050   3.620 -0.0348  0.4694 -0.0170
 2537W        W 6737   8.380   9.054   9.166 -0.4518  0.0404  0.0765
 2538W        W 6738  10.075   5.007  12.617  0.3077  0.2039 -0.0653
 2539W        W 6739  10.407   1.966  12.487 -0.2779 -0.0710  0.0636
 2540W        W 6740   0.942   3.976   0.119 -0.0908 -0.0906 -0.3747
 2541W        W 6741   5.079   4.453  11.450 -0.0580  0.0939  0.0428
 2542W        W 6742   2.532   3.441   2.145  0.0283 -0.2760 -0.0632
 2543W        W 6743   5.142   1.958   2.217  0.2143  0.2635 -0.1160
 2544W        W 6744   8.179   9.422   0.658 -0.0102  0.1156 -0.1148
 2545W        W 6745   7.917   3.818  10.415 -0.3057 -0.2674 -0.1196
 2546W        W 6746   2.044   0.851   9.654  0.0941 -0.0527  0.3502
 2547W        W 6747  10.633   7.005   3.451  0.1073  0.1419 -0.0331
 2548W        W 6748  10.003   2.366  12.171 -0.3606  0.2548  0.1897
 2549W        W 6749   0.981   0.788   3.199  0.0698  0.0525  0.0839
 2550W        W 6750   1.155   8.444   1.584 -0.2269  0.2343 -0.1979
 2551W        W 6751   4.597   4.141   9.600  0.1256  0.2272 -0.5258
 2552W        W 6752   6.926  10.246   8.297 -0.2108 -0.0252  0.1847
 2553W        W 6753   6.021   2.534   9.404 -0.1289  0.1493  0.1827
 2554W        W 6754   4.072   2.201   2.581  0.0645 -0.0166  0.0372
 2555W        W 6755   2.516   3.515   3.029 -0.2725  0.0363  0.1937
 2556W        W 6756   5.205   8.645  12.233  0.0892 -0.0800  0.1743
 2557W        W 6757   6.452  10.091   9.032  0.1741  0.1413  0.0857
 2558W        W 6758   4.346   0.611  10.404 -0.0129 -0.0965  0.2838
 2559W        W 6759   8.490   5.225  12.780 -0.1166 -0.1543  0.3127
 2560W        W 6760   3.162   8.654  10.331  0.0037  0.0058 -0.4025
 2561W        W 6761   0.669   5.712   1.791  0.0161 -0.0106  0.2687
 2562W        W 6762   3.670   2.504   3.787  0.0902 -0.0180 -0.0102
 2563W        W 6763   0.257   1.938  11.649 -0.0708 -0.2114 -0.0112
 2564W        W 6764   8.111  10.256   0.765 -0.0708 -0.0137  0.4108
 2565W        W 6765   5.620   8.636   9.665 -0.1924  0.3000 -0.1695
 2566W        W 6766   2.339   9.287   3.739  0.0059 -0.2093  0.3851
 2567W        W 6767   1.840   8.327  12.513 -0.2069 -0.2590 -0.0279
 2568W        W 6768   6.414   9.260  11.182 -0.1126  0.1909 -0.0366
 2569W        W 6769   8.060   9.109   1.833  0.3373  0.0933 -0.1406
 2570W        W 6770   2.199   1.875  12.149  0.0941  0.0514  0.1150
 2571W        W 6771   3.086   2.613  10.108 -0.2258  0.0446  0.1727
 2572W        W 6772   1.400   0.986  10.245  0.1795  0.0604  0.3892
 2573W        W 6773   2.356  10.487   8.855  0.1337  0.0027 -0.1947
 2574W        W 6774   6.546   4.930   0.447 -0.0162  0.0850 -0.2679
 2575W        W 6775   5.401   7.415   8.718  0.2141  0.1055  0.1367
 2576W        W 6776   2.232   4.402  12.248  0.1818  0.1623  0.1572
 2577W        W 6777   2.631   8.235   1.130  0.0354 -0.0817  0.0571
 2578W        W 6778   6.239   7.347   7.980 -0.2651  0.0924  0.0108
 2579W        W 6779   9.521   7.099   8.538  0.2520  0.4551  0.2367
 2580W        W 6780   0.964   0.342   1.060 -0.2904  0.0315 -0.2604
 2581W        W 6781   0.090  10.492  10.658  0.1081 -0.1402  0.1412
 2582W        W 6782   3.439   8.076   1.704 -0.0125  0.1343  0.0794
 2583W        W 6783   3.338   1.015  11.967 -0.1563  0.1163 -0.2322
 2584W        W 6784   9.791   8.051  12.678 -0.2967  0.0543  0.2390
 2585W        W 6785   9.379   6.399  10.007 -0.0539 -0.2146  0.1320
 2586W        W 6786  10.026   7.865  11.991 -0.2289 -0.0110 -0.1261
 2587W        W 6787   3.710   8.167   9.145 -0.3639  0.3956  0.1020
 2588W        W 6788   8.726   3.845   3.644 -0.1464  0.0994  0.5873
 2589W        W 6789   9.882   2.645   1.232 -0.1230  0.1161  0.3332
 2590W        W 6790   3.055   9.945   9.134  0.0763 -0.1829 -0.0855
 2591W        W 6791   1.823   3.370  10.853 -0.0702 -0.0444  0.4803
 2592W        W 6792   6.625   5.092   2.826  0.1531  0.0205 -0.2573
 2593W        W 6793  10.579  10.525   2.723  0.1000 -0.1843  0.2513
 2594W        W 6794  10.654   9.433   9.067 -0.0597 -0.0650  0.0480
 2595W        W 6795   1.211   1.212   8.876 -0.2571  0.1796 -0.0581
 2596W        W 6796   4.050   6.010   3.057  0.4230  0.0597  0.0648
 2597W        W 6797   1.760   7.929   0.166  0.0658 -0.2142 -0.0988
 2598W        W 6798   4.991  10.379   9.788 -0.2341 -0.0334 -0.2183
 2599W        W 6799   0.520   8.070   0.694 -0.1773 -0.1649 -0.1124
 2600W        W 6800   0.895   2.170  10.248  0.3409  0.0572 -0.0926
 2601W        W 6801   3.347   7.003  12.630 -0.4647 -0.1673  0.2844
 2602W        W 6802   8.222   9.460  12.208 -0.1316  0.0968  0.1517
 2603W        W 6803   7.248   3.561   8.205  0.2061  0.0535  0.1718
 2604W        W 6804   8.684   4.502   8.897  0.2829 -0.0521 -0.1501
 2605W        W 6805   6.519  10.583   2.353  0.1355 -0.1813  0.2105
 2606W        W 6806   6.367   7.777   2.923 -0.1238  0.0740 -0.3049
 2607W        W 6807   1.553   2.288   3.443  0.2623  0.3355 -0.0899
 2608W        W 6808   8.840   7.994  12.428  0.0071 -0.1982 -0.3614
 2609W        W 6809   3.498   6.544  12.782  0.3426 -0.0550  0.3963
 2610W        W 6810   3.063   6.800   9.516  0.2138 -0.0927 -0.3045
 2611W        W 6811   6.473   9.794   4.432 -0.2084 -0.0879 -0.2001
 2612W        W 6812   0.521   4.788   1.214 -0.1817 -0.3906 -0.0381
 2613W        W 6813   1.188   1.325  10.540 -0.1931 -0.3053 -0.1722
 2614W        W 6814   7.600   0.874  12.434 -0.2243 -0.0617 -0.0856
 2615W        W 6815   8.591   6.125  10.227 -0.1571 -0.1102 -0.2858
 2616W        W 6816  10.512   6.441  10.431  0.0871  0.1743 -0.1317
 2617W        W 6817   4.704   0.257  10.347 -0.0881 -0.0303 -0.1735
 2618W        W 6818   8.741   1.356   4.785 -0.0088  0.0479 -0.0489
 2619W        W 6819   6.304   5.985   3.215  0.1184 -0.3828  0.1825
 2620W        W 6820   6.134   9.633   3.100 -0.0249 -0.2399  0.0335
 2621W        W 6821   4.252   7.282  11.775 -0.2169 -0.0275  0.0855
 2622W        W 6822   7.970   2.844   1.048  0.1804 -0.1129  0.0558
 2623W        W 6823   8.456   5.574   3.162  0.1676  0.0210 -0.0565
 2624W        W 6824   5.487   1.039   2.334 -0.1423 -0.0261 -0.0727
 2625W        W 6825   3.702   0.016   2.528 -0.0867  0.1532 -0.0002
 2626W        W 6826   2.450   1.715   0.358 -0.2269  0.4182 -0.2819
 2627W        W 6827  10.491   2.107   2.789  0.2534 -0.2598  0.2701
 2628W        W 6828   3.256   6.609  11.132 -0.1646 -0.2259 -0.2302
 2629W        W 6829   4.607   2.694  10.614 -0.4453 -0.0330  0.2771
 2630W        W 6830   8.150   4.282   4.288  0.0750 -0.1325  0.1774
 2631W        W 6831   5.631   2.847   8.570 -0.0185 -0.1357  0.1294
 2632W        W 6832   7.103   6.803  12.162  0.0578  0.2495  0.2107
 2633W        W 6833   2.931   0.024  12.032  0.0921 -0.2344 -0.1743
 2634W        W 6834   5.325   1.672   1.256  0.0583 -0.1044 -0.0723
 2635W        W 6835   0.051   9.611   2.691 -0.0101 -0.0758  0.0830
 2636W        W 6836   5.042   7.677   0.225  0.2702 -0.3181 -0.1608
 2637W        W 6837   5.535   7.416   0.037  0.1493 -0.0370 -0.0770
 2638W        W 6838   9.521   9.785   2.269  0.0357 -0.0118 -0.0363
 2639W        W 6839   0.461   9.870   0.970  0.1332 -0.2091 -0.5180
 2640W        W 6840   2.365   1.763  11.103  0.2280  0.7786 -0.2033
 2641W        W 6841   8.402   7.231   0.061  0.2594 -0.0804  0.2583
 2642W        W 6842   1.873   3.736  12.560 -0.1587  0.3256 -0.1745
 2643W        W 6843   3.727   8.970  10.288 -0.1181 -0.0040 -0.1707
 2644W        W 6844   2.913   0.782   2.943 -0.1834  0.2045 -0.3439
 2645W        W 6845   6.689   6.689   3.960 -0.0722  0.0248  0.1396
 2646W        W 6846   4.447   0.323  10.813  0.1073  0.1445 -0.1658
 2647W        W 6847   5.798   7.857   2.878 -0.1441 -0.0290 -0.2237
 2648W        W 6848   6.332   3.357   9.040 -0.0878  0.2436 -0.1061
 2649W        W 6849   8.973   6.703   9.066  0.0039  0.0314 -0.1466
 2650W        W 6850  10.107   3.470   3.649 -0.2734 -0.3148  0.4215
 2651W        W 6851   6.341   1.512   1.368 -0.0647 -0.3958 -0.1857
 2652W        W 6852   5.276   5.497   0.538  0.1086 -0.1951  0.2004
 2653W        W 6853   9.448   6.111   8.318  0.0833  0.3686  0.3026
 2654W        W 6854   9.279   8.238   8.087  0.3649  0.1022  0.2377
 2655W        W 6855   0.767   5.142   9.915  0.0166  0.2118  0.1520
 2656W        W 6856   3.960   6.838   1.343 -0.3617  0.3256  0.0810
 2657W        W 6857   3.343   8.631   2.538 -0.1953  0.5039  0.1009
 2658W        W 6858  10.602   8.946   1.849  0.0822  0.5034  0.1047
 2659W        W 6859   5.998   0.652   8.549  0.1162 -0.2078  0.1610
 2660W        W 6860  10.625   6.228  12.056 -0.1187 -0.0255  0.0007
 2661W        W 6861   0.060   0.711  10.371  0.1304  0.1626  0.0919
 2662W        W 6862   2.094   6.761  10.187 -0.0598  0.0551  0.0695
 2663W        W 6863   9.352   2.447   0.978 -0.0033  0.2193 -0.1039
 2664W        W 6864   7.684  10.329   2.057  0.1263 -0.0088 -0.2303
 2665W        W 6865   1.097   4.634   9.291  0.2069  0.3878 -0.3330
 2666W        W 6866   2.763   3.496   2.552 -0.1520  0.1283 -0.0489
 2667W        W 6867   5.868   6.043   7.913 -0.1508 -0.2209 -0.2091
 2668W        W 6868   0.116   3.687  11.000 -0.0651 -0.0629 -0.1546
 2669W        W 6869   9.272   8.250  10.739  0.1888 -0.1541  0.2791
 2670W        W 6870   3.236   7.663   1.358 -0.2803 -0.2521  0.0792
 2671W        W 6871   2.247   3.814   1.536 -0.0885  0.0204 -0.0957
 2672W        W 6872   9.149   1.901   3.203 -0.1553  0.0121  0.0565
 2673W        W 6873   0.163   7.623   2.684  0.0330  0.0399  0.0698
 2674W        W 6874   0.111   8.805   1.110  0.1527  0.0175 -0.1016
 2675W        W 6875   0.121   2.379   0.238 -0.0933 -0.1804 -0.0587
 2676W        W 6876   5.868   2.555   8.888 -0.2039  0.0820 -0.3558
 2677W        W 6877   2.086   5.344  10.305  0.0670 -0.0810 -0.3365
 2678W        W 6878   8.632   1.629  12.243  0.1491  0.1735 -0.1216
 2679W        W 6879  10.042  10.121  11.631  0.0943  0.0878  0.0546
 2680W        W 6880   1.587   5.704  12.379  0.0855  0.2198  0.1035
 2681W        W 6881   3.465   1.434   1.516  0.0939  0.2214  0.1362
 2682W        W 6882   5.324   9.293   3.424 -0.0253  0.2322 -0.0471
 2683W        W 6883   4.872   5.480   8.508 -0.2469  0.0012  0.1612
 2684W        W 6884   5.028   6.340  11.800 -0.1368 -0.0661 -0.1071
 2685W        W 6885   7.761   2.669   2.008 -0.0308 -0.1380 -0.3456
 2686W        W 6886   9.099   5.902   8.591 -0.0988  0.0223 -0.0080
 2687W        W 6887   3.625   7.315   1.229  0.1011  0.3438 -0.0606
 2688W        W 6888   0.991   5.846  10.075  0.2489 -0.1666 -0.3453
 2689W        W 6889   3.503   2.258   3.400 -0.0259  0.2100  0.0226
 2690W        W 6890   0.603   1.584   2.920  0.3094  0.2482 -0.0489
 2691W        W 6891   5.052   6.681   4.775 -0.1067 -0.1389  0.2743
 2692W        W 6892   7.098  10.574  11.714 -0.0410 -0.1637 -0.1121
 2693W        W 6893   5.376   4.368  10.193  0.0560  0.0112 -0.2336
 2694W        W 6894   3.730   3.820  11.396  0.1306  0.2188  0.2208
 2695W        W 6895   8.987   0.442  12.215  0.1539 -0.3778 -0.2379
 2696W        W 6896  10.622  10.014   9.913 -0.2723 -0.2680 -0.3231
 2697W        W 6897   3.246   1.464   0.223 -0.3926 -0.5130 -0.0067
 2698W        W 6898   6.698   9.527   1.966  0.0634 -0.0238  0.0254
 2699W        W 6899   5.666   9.102   2.446 -0.0956  0.1302 -0.1645
 2700W        W 6900   5.153   4.057   3.207 -0.2554 -0.1132  0.0032
 2701W        W 6901   6.864   2.731   9.803 -0.2510  0.0719  0.0907
 2702W        W 6902   7.733   7.824  10.448 -0.2038 -0.0582 -0.0177
 2703W        W 6903   5.643   9.748   3.302 -0.0721  0.0905 -0.1143
 2704W        W 6904   2.827   6.152   8.491  0.1209  0.2975 -0.0392
 2705W        W 6905   0.735   2.100   8.276  0.0186 -0.1875 -0.2678
 2706W        W 6906   3.794   5.213  10.276 -0.1362 -0.1300 -0.1619
 2707W        W 6907   8.462   2.493   9.693  0.1940  0.1745  0.0004
 2708W        W 6908   1.848   6.463   2.814 -0.0989  0.0496 -0.1140
 2709W        W 6909   9.164   4.257  10.189  0.1403 -0.1714 -0.1328
 2710W        W 6910   6.785   6.010   9.300  0.0870 -0.0595  0.2988
 2711W        W 6911   0.385   2.925   0.897 -0.2497  0.1584  0.0030
 2712W        W 6912   2.980   1.492   1.865 -0.1387 -0.2385 -0.0245
 2713W        W 6913   6.361   3.033   3.140  0.2243 -0.0079  0.0415
 2714W        W 6914   4.882   7.750   2.931  0.0109 -0.1514 -0.1461
 2715W        W 6915   6.387  10.507   0.764 -0.0759 -0.3450 -0.0787
 2716W        W 6916   1.381   9.158  11.468  0.2380 -0.0570 -0.1279
 2717W        W 6917   8.614   5.257   9.604 -0.1332 -0.1293 -0.3731
 2718W        W 6918   0.173   8.383   3.745  0.0314  0.0560  0.1713
 2719W        W 6919   2.466   0.256  10.643  0.0710  0.3945  0.0698
 2720W        W 6920   9.232   6.316   3.799 -0.1067 -0.3799 -0.0792
 2721W        W 6921   1.556   4.177  11.052  0.2843 -0.0682  0.0342
 2722W        W 6922   1.938   6.790   8.658 -0.0731 -0.0185  0.1907
 2723W        W 6923   4.897   3.795   9.383  0.0461 -0.2292 -0.0886
 2724W        W 6924   4.327   0.979   1.294 -0.0061  0.0260 -0.0201
 2725W        W 6925   9.686  10.399   0.093 -0.1296  0.0807 -0.1910
 2726W        W 6926   4.079   6.219   0.217 -0.0553  0.0926 -0.0611
 2727W        W 6927   6.357  10.141   2.158  0.1505 -0.4291 -0.0653
 2728W        W 6928   0.502   6.139   8.463  0.0593 -0.2702 -0.0966
 2729W        W 6929   8.205   4.361  11.369  0.3426 -0.1012  0.1408
 2730W        W 6930   9.423   4.950   9.653  0.0370  0.1184 -0.1252
 2731W        W 6931   5.368   9.933   0.948 -0.0263  0.2736  0.0679
 2732W        W 6932   4.707   2.714  12.538 -0.0402 -0.3706  0.0619
 2733W        W 6933   4.542   0.900  10.845 -0.2812 -0.1024 -0.1963
 2734W        W 6934   5.792   9.526   2.169 -0.2998  0.1912 -0.1918
 2735W        W 6935   2.375  10.094   8.525  0.2894  0.0054 -0.2968
 2736W        W 6936   5.118   5.132   8.160 -0.0397 -0.2480  0.0735
 2737W        W 6937   1.945   1.746   1.821  0.2859 -0.5009 -0.1543
 2738W        W 6938   6.323   5.782   1.781  0.2222  0.0444 -0.0519
 2739W        W 6939   7.787   8.688   3.709  0.1775  0.0531  0.0085
 2740W        W 6940   1.944   8.030   8.778  0.0474  0.1639 -0.0121
 2741W        W 6941   4.544   2.493   1.504 -0.0073  0.0677 -0.1922
 2742W        W 6942   0.333   9.650   1.958 -0.1081 -0.1291  0.0878
 2743W        W 6943   5.195   5.277   8.972 -0.1369 -0.4574  0.0879
 2744W        W 6944   2.253   6.497   2.478  0.0929 -0.2055  0.2279
 2745W        W 6945   7.758   3.337   9.613 -0.0106 -0.1109 -0.3286
 2746W        W 6946   6.813   5.323   0.185 -0.0850  0.2799 -0.3348
 2747W        W 6947   8.221   9.213   2.274 -0.0680  0.0379  0.1682
 2748W        W 6948   4.401   5.852   1.445 -0.0599 -0.2390 -0.1564
 2749W        W 6949   8.040   4.913  12.778 -0.0743  0.1124 -0.0059
 2750W        W 6950   0.867   2.206   4.105 -0.2753 -0.0034  0.0321
 2751W        W 6951   5.619   9.377  10.507 -0.0680  0.2454 -0.1757
 2752W        W 6952   7.566   3.110  12.201 -0.2271 -0.0684  0.3001
 2753W        W 6953   5.837   6.952  11.288  0.0834 -0.4495  0.2746
 2754W        W 6954   3.231   6.626   2.514  0.0373 -0.1979  0.4413
 2755W        W 6955   3.684   5.464  12.022 -0.1775 -0.1159  0.2389
 2756W        W 6956   6.016   5.999   0.984 -0.2671  0.2502  0.1015
 2757W        W 6957   7.877   8.444   8.355  0.0103 -0.1440 -0.0048
 2758W        W 6958   3.772   7.124  12.432 -0.1647  0.0812 -0.0732
 2759W        W 6959   1.576   3.064   2.989 -0.0070  0.2434 -0.1301
 2760W        W 6960  10.135   2.472  10.258  0.2141  0.1214 -0.0051
 2761W        W 6961   9.146   3.203   3.730 -0.0528  0.0151  0.2742
 2762W        W 6962   8.311   8.046  11.006  0.0971 -0.0744  0.1703
 2763W        W 6963   9.464   7.322  11.309  0.0356 -0.1240  0.4756
 2764W        W 6964   1.126   1.842   1.056  0.0916 -0.1907 -0.2301
 2765W        W 6965   1.685   2.669   1.761  0.4563 -0.0467  0.2365
 2766W        W 6966   4.804   2.298   9.207 -0.3639  0.1828 -0.1227
 2767W        W 6967   7.653   8.423   8.802 -0.0449  0.0321 -0.4586
 2768W        W 6968   8.158   3.325   9.205  0.1934 -0.0407  0.0123
 2769W        W 6969   9.000   8.720   9.817 -0.0650  0.1236 -0.2427
 2770W        W 6970  10.194   1.277  11.157 -0.0703  0.1375  0.0081
 2771W        W 6971   6.874   9.906  11.177 -0.1034  0.0829 -0.0615
 2772W        W 6972   8.656   2.728   2.928  0.1358 -0.2908 -0.0252
 2773W        W 6973   3.665   2.582   4.279  0.2232 -0.1201 -0.2146
 2774W        W 6974   0.002   7.811  10.676 -0.2005 -0.1155  0.0761
 2775W        W 6975   4.310  10.623  10.461 -0.1251  0.2851  0.3631
 2776W        W 6976   7.047   8.974   2.917 -0.0207 -0.1440  0.0889
 2777W        W 6977   0.466   7.035  10.693  0.1717 -0.0164 -0.0468
 2778W        W 6978   1.242   1.986  12.194  0.1254 -0.2737 -0.1609
 2779W        W 6979   7.914   2.979   1.654 -0.2066 -0.2200  0.0238
 2780W        W 6980   0.239   5.840   3.458 -0.2423  0.0360  0.1719
 2781W        W 6981   9.176   1.853   2.090 -0.0166  0.0605  0.0221
 2782W        W 6982   0.922   0.863  11.810 -0.3760 -0.2593 -0.0236
 2783W        W 6983   9.096   3.562   3.356 -0.1024 -0.3948  0.0566
 2784W        W 6984   5.786  10.011  10.501  0.1489 -0.0757  0.0292
 2785W        W 6985   5.176   8.523   2.480 -0.1823  0.0747  0.0694
 2786W        W 6986  10.030   3.632   8.742 -0.1049 -0.0040  0.2348
 2787W        W 6987  10.058   5.249   0.210 -0.2037  0.3078  0.2095
 2788W        W 6988   2.489   7.625  12.798 -0.2685  0.2691  0.0999
 2789W        W 6989   8.055   2.687   0.172  0.0252  0.0202 -0.3739
 2790W        W 6990   3.232   4.100   9.016 -0.1946  0.0977  0.0193
 2791W        W 6991   8.275   6.187   3.604  0.0603 -0.0013 -0.1583
 2792W        W 6992   1.735  10.369  11.702 -0.3275 -0.0682  0.0909
 2793W        W 6993   5.932   5.697   3.538 -0.0526 -0.1944 -0.0750
 2794W        W 6994   1.012   3.309   1.958  0.2569 -0.0924 -0.0576
 2795W        W 6995   3.581   5.068   9.865  0.1814  0.4572  0.0446
 2796W        W 6996   6.523   3.394  12.508 -0.3325  0.0115 -0.1377
 2797W        W 6997   2.960   3.113   2.248 -0.3342  0.0274 -0.1403
 2798W        W 6998   4.680   7.563   4.964 -0.0853 -0.0820  0.1232
 2799W        W 6999   3.389   8.396   0.726  0.2300  0.1095 -0.1135
 2800W        W 7000  10.700   4.761  11.920 -0.0078 -0.0915 -0.4256
 2801W        W 7001  10.374   2.473   0.928 -0.0732 -0.1824 -0.1312
 2802W        W 7002  10.315   6.196   1.882  0.0850  0.1593 -0.1564
 2803W        W 7003   2.814   0.458  11.508 -0.2760 -0.1994  0.3204
 2804W        W 7004   2.394  10.719   1.351 -0.0876  0.1794  0.0070
 2805W        W 7005   5.682   5.504   8.995  0.0219  0.0621 -0.3766
 2806W        W 7006   2.995   9.517   2.580 -0.1860  0.1395  0.0877
 2807W        W 7007   9.133   8.401   1.136 -0.2808 -0.2069  0.1046
 2808W        W 7008   4.277   0.274  10.033 -0.0365  0.2671 -0.2228
 2809W        W 7009   4.055   9.911  12.757 -0.3316 -0.1029 -0.0041
 2810W        W 7010   7.920   6.491  12.069 -0.0494 -0.1634  0.0050
 2811W        W 7011   4.858   8.466   9.662 -0.1784 -0.1844  0.0142
 2812W        W 7012   2.872  10.549   2.069 -0.1824  0.0290 -0.1385
 2813W        W 7013   0.479   8.263  12.565  0.1561 -0.0507 -0.1540
 2814W        W 7014   7.539   9.584   0.062 -0.0430 -0.0172  0.0909
 2815W        W 7015   8.390   3.147   2.704 -0.4852  0.1360 -0.0489
 2816W        W 7016   6.975   4.031   0.837  0.0375  0.0498  0.3735
 2817W        W 7017   3.036   7.200   3.840  0.0886  0.1614  0.1173
 2818W        W 7018   6.042   8.364   1.495 -0.1088  0.0740 -0.0622
 2819W        W 7019   3.664   9.193   3.265  0.0097  0.0309  0.0108
 2820W        W 7020   3.749  10.088   9.968 -0.2171 -0.2149  0.2882
 2821W        W 7021  10.371   0.644   2.786 -0.0115 -0.0668  0.0953
 2822W        W 7022   2.885   7.456   9.958  0.0842 -0.0518  0.1261
 2823W        W 7023   7.928   9.889  12.727  0.0249 -0.2557  0.2661
 2824W        W 7024   9.463   1.220   3.962 -0.2376  0.4523  0.2011
 2825W        W 7025   6.378   9.183   3.410 -0.2511  0.0321 -0.1660
 2826W        W 7026   1.235   9.656  11.116  0.1135  0.1629  0.0608
 2827W        W 7027   0.696   5.859   3.257 -0.2561  0.2278 -0.0969
 2828W        W 7028   5.210  10.357   2.157  0.2061 -0.0553  0.2232
 2829W        W 7029   8.315   4.160   2.675 -0.1550  0.0376  0.0389
 2830W        W 7030  10.047   4.780   1.561  0.1789 -0.0295  0.0541
 2831W        W 7031   0.530   5.056   0.671 -0.0503 -0.2028 -0.4010
 2832W        W 7032   0.986   8.905   2.931  0.3156  0.2743 -0.2346
 2833W        W 7033  10.536   0.745   0.494  0.2032 -0.1331 -0.1718
 2834W        W 7034   9.204   5.724  11.336  0.0919  0.0115  0.2860
 2835W        W 7035   6.671  10.465  11.365  0.0237 -0.3553 -0.2639
 2836W        W 7036  10.052   1.329  10.473  0.0802 -0.0839 -0.2797
 2837W        W 7037   7.949   3.421   1.931 -0.2033  0.1642 -0.2595
 2838W        W 7038  10.203   9.075  12.565 -0.1877 -0.1117 -0.0288
 2839W        W 7039   4.471   4.182  12.138 -0.0726 -0.1956  0.0507
 2840W        W 7040   8.942   1.495   0.549 -0.0246 -0.0728  0.3206
 2841W        W 7041   3.193   8.148   2.419  0.0341 -0.0007 -0.0628
 2842W        W 7042   2.753   6.058   0.421 -0.1606  0.1811  0.0712
 2843W        W 7043   7.190   2.178  10.528 -0.1607 -0.0296 -0.2444
 2844W        W 7044   7.189   3.518   2.025  0.3449  0.0884  0.1797
 2845W        W 7045   2.871   6.570   8.818 -0.2464  0.0366 -0.0004
 2846W        W 7046   0.274   2.423   2.018 -0.2381  0.0670 -0.1821
 2847W        W 7047   1.320   5.018   4.232 -0.0651 -0.2880 -0.2936
 2848W        W 7048   7.967   7.527   3.106 -0.1228 -0.1124 -0.2327
 2849W        W 7049   4.642  10.481   4.012  0.2824  0.1546 -0.0137
 2850W        W 7050   2.514   5.926   9.811  0.2490  0.2658  0.2198
 2851W        W 7051  10.061   8.983   0.226 -0.0680 -0.2120  0.2189
 2852W        W 7052   5.617   3.881   1.080 -0.0746  0.3762 -0.1548
 2853W        W 7053   7.266   4.959   8.940  0.2897  0.3644  0.2782
 2854W        W 7054   2.605   7.138   0.100  0.0618 -0.0422  0.0386
 2855W        W 7055   9.805   1.902  11.636 -0.1035  0.0806 -0.3011
 2856W        W 7056   1.210   6.237   9.849 -0.0686 -0.0477  0.2053
 2857W        W 7057   7.098   7.559   9.012 -0.2134 -0.0570 -0.1781
 2858W        W 7058   4.679   5.720  10.641 -0.0510 -0.1749  0.0891
 2859W        W 7059   4.529   6.495   8.686  0.2485 -0.0918  0.0449
 2860W        W 7060   6.341   7.605   8.595 -0.1186 -0.0278  0.1490
 2861W        W 7061   2.737   7.709   8.641  0.2801 -0.0086  0.0443
 2862W        W 7062   4.609   5.682   3.718  0.2293 -0.0893  0.1886
 2863W        W 7063   9.935   0.125   9.628 -0.2185 -0.0436 -0.0385
 2864W        W 7064   8.428   4.863   0.269  0.1614  0.1268  0.0047
 2865W        W 7065   3.128   5.207   3.548 -0.0630  0.0214 -0.2326
 2866W        W 7066   1.459   3.682  11.000 -0.0942  0.1389 -0.0744
 2867W        W 7067   8.957   4.659  10.981 -0.0543  0.1127  0.0421
 2868W        W 7068   2.854   2.135  10.234 -0.0071  0.0168 -0.2315
 2869W        W 7069   1.859   1.349   1.483  0.0590  0.0674 -0.0149
 2870W        W 7070   0.588   4.205   2.317 -0.1527 -0.0190  0.0295
 2871W        W 7071   6.099   8.065  10.170 -0.1110  0.1432  0.1435
 2872W        W 7072   0.258   7.365   7.572 -0.1198  0.1685 -0.0002
 2873W        W 7073   9.056   4.701   2.074  0.0298  0.0509 -0.0094
 2874W        W 7074   2.279   3.526  12.365  0.3175 -0.1117  0.0281
 2875W        W 7075   2.099   7.414   9.355 -0.0502 -0.0279 -0.0556
 2876W        W 7076   0.013   1.109   3.725 -0.0571 -0.0159 -0.1160
 2877W        W 7077   1.379   7.487   8.307  0.0963  0.1348  0.2599
 2878W        W 7078   7.714   8.015  11.558 -0.1946 -0.2368  0.2014
 2879W        W 7079   0.603   9.732   0.487  0.1254  0.1547 -0.0364
 2880W        W 7080   4.049   0.332  11.208 -0.1511  0.0422 -0.0794
 2881W        W 7081   2.110   1.271   0.412 -0.3786  0.0787 -0.0879
 2882W        W 7082   8.440   2.265   4.438  0.1314  0.0746 -0.1631
 2883W        W 7083   1.581   7.141   8.888 -0.1537 -0.2649  0.1496
 2884W        W 7084   0.284   7.848   3.810 -0.0588 -0.0711 -0.1058
 2885W        W 7085   3.065   2.481   0.176 -0.2194  0.1466  0.1105
 2886W        W 7086   8.318   5.033  12.330  0.3170  0.1176 -0.2812
 2887W        W 7087   1.306   3.038  11.975 -0.0947  0.0123 -0.2589
 2888W        W 7088   2.102   8.699  12.697  0.2268  0.0901 -0.1357
 2889W        W 7089   6.236   7.754   0.734  0.2538 -0.0771  0.4006
 2890W        W 7090   8.498   7.345   1.713  0.1418  0.4236  0.1319
 2891W        W 7091  10.696   2.280   2.354 -0.2284  0.0360  0.2794
 2892W        W 7092   6.490   6.188  11.526  0.0687 -0.2495  0.0925
 2893W        W 7093   9.196   7.067  12.588 -0.2471  0.1077  0.1678
 2894W        W 7094   0.968   3.378  11.846 -0.2184 -0.1165  0.0286
 2895W        W 7095   8.882   3.205   2.958  0.1312  0.0226  0.0052
 2896W        W 7096   2.437   1.236   2.471 -0.2720 -0.0029  0.2856
 2897W        W 7097   6.265   7.947  12.390 -0.2526  0.1065 -0.1560
 2898W        W 7098  10.473   1.945   8.501 -0.2050  0.2386  0.1556
 2899W        W 7099   5.952   7.766  11.100  0.0097 -0.0963 -0.1976
 2900W        W 7100   4.555   5.478   1.221  0.0203  0.1046  0.0098
 2901W        W 7101   8.699   6.861  12.617 -0.2410  0.6276  0.1141
 2902W        W 7102  10.100   4.934   2.083  0.0411  0.0694 -0.0036
 2903W        W 7103   0.280   4.410   9.197 -0.3529 -0.0243  0.1527
 2904W        W 7104   9.832  10.429   9.353  0.0117 -0.0547 -0.2126
 2905W        W 7105   2.955   0.925   1.850  0.0915  0.1814 -0.0922
 2906W        W 7106   7.732   6.930   9.053  0.0589 -0.0089 -0.0810
 2907W        W 7107   3.217   9.256   9.176 -0.1906  0.0732  0.1117
 2908W        W 7108  10.064   6.428   7.851  0.0307 -0.0719  0.0976
 2909W        W 7109   0.469   1.100   1.092 -0.2081  0.1208 -0.0425
 2910W        W 7110   9.033   0.704   1.719  0.0011 -0.0759  0.0220
 2911W        W 7111   2.926   1.372   2.349 -0.2971 -0.1319 -0.0413
 2912W        W 7112   2.740   4.645   0.779  0.1651 -0.0519 -0.1240
 2913W        W 7113   1.491   0.874  10.727 -0.3102 -0.2495 -0.0775
 2914W        W 7114   1.419   3.319   1.066  0.1387  0.0931 -0.1849
 2915W        W 7115   6.143   6.549  11.373 -0.0108  0.3003  0.0293
 2916W        W 7116   1.045   3.723   8.883 -0.0044  0.0621 -0.0673
 2917W        W 7117   9.544   7.945   2.506  0.0808  0.1026 -0.1259
 2918W        W 7118  10.037   0.923  11.518 -0.1149 -0.0997 -0.5315
 2919W        W 7119   6.080   7.968   0.088 -0.1967 -0.0553 -0.3003
 2920W        W 7120   0.258   7.119   3.786 -0.0763  0.2376 -0.1979
 2921W        W 7121   0.536   5.404   9.055  0.0745  0.0854 -0.1039
 2922W        W 7122   4.493   0.081  11.578 -0.0240 -0.1138 -0.4172
 2923W        W 7123   0.909   7.094   1.922  0.1710  0.1138  0.1373
 2924W        W 7124   4.824   0.138  11.191  0.1314  0.0868 -0.4222
 2925W        W 7125   6.404   3.636   0.885  0.1248  0.0521 -0.0288
 2926W        W 7126   1.650   9.772   0.716 -0.0930 -0.0828 -0.0013
 2927W        W 7127   5.938   4.415  12.161 -0.3733 -0.0302  0.0472
 2928W        W 7128   2.915   3.840   9.292  0.2151  0.0799 -0.1699
 2929W        W 7129   5.138   0.593   9.772  0.1331  0.1943 -0.0124
 2930W        W 7130   8.693   8.415   7.438  0.1662  0.1374 -0.4393
 2931W        W 7131   0.647   9.041   0.483 -0.3753  0.0426 -0.0676
 2932W        W 7132   6.712  10.611   0.001 -0.2875  0.0803 -0.0545
 2933W        W 7133   8.576   8.400   0.503  0.0245 -0.1434 -0.0434
 2934W        W 7134   0.247   1.019  10.024  0.1219 -0.1399 -0.0502
 2935W        W 7135   3.136   2.593   1.849  0.0126  0.0557  0.0096
 2936W        W 7136   3.598   5.295   8.632 -0.1122 -0.1099  0.0356
 2937W        W 7137   8.410   6.784   3.539  0.2633 -0.0544 -0.2882
 2938W        W 7138   4.037   5.323   0.206  0.1798  0.2022 -0.2690
 2939W        W 7139   5.436   1.991   8.601  0.1215  0.3256 -0.2863
 2940W        W 7140   2.372   0.264   0.503  0.2919 -0.1490 -0.0010
 2941W        W 7141  10.157  10.406   2.450 -0.1947 -0.0110 -0.5360
 2942W        W 7142   3.890  10.320  12.470  0.1118  0.1100 -0.2810
 2943W        W 7143   6.922   0.906  10.812 -0.2152 -0.1526  0.0370
 2944W        W 7144   2.821   7.563   3.150  0.0467  0.0639 -0.2101
 2945W        W 7145   4.610  10.001  11.830 -0.1131  0.1914 -0.2080
 2946W        W 7146   3.802  10.181   1.066 -0.1619 -0.1566  0.1093
 2947W        W 7147   8.001   3.706   9.794 -0.1013 -0.2849 -0.3281
 2948W        W 7148   7.704   7.650   3.973 -0.1106 -0.1457 -0.1889
 2949W        W 7149   9.146   9.182   1.599  0.0277 -0.0559  0.1663
 2950W        W 7150   6.708   7.957   2.542 -0.0145  0.1564  0.3330
 2951W        W 7151  10.542   1.811   1.427  0.1326  0.2815 -0.2457
 2952W        W 7152   6.401   4.969  11.918 -0.0672 -0.0056  0.1078
 2953W        W 7153   1.838   9.500   1.837  0.1697  0.0384  0.0040
 2954W        W 7154  10.024   8.003   1.266 -0.3157 -0.2207 -0.0110
 2955W        W 7155  10.673   9.780   0.935  0.0783 -0.2629 -0.0321
 2956W        W 7156   4.870   9.027   0.741 -0.1394  0.0344 -0.1562
 2957W        W 7157   5.736   3.184  10.421  0.2059  0.0319  0.0200
 2958W        W 7158   3.698   7.116   1.729 -0.0664  0.1011  0.0625
 2959W        W 7159   6.378   2.402   2.419 -0.0449 -0.5847  0.3814
 2960W        W 7160   7.519   1.095   1.498  0.2342 -0.1126 -0.1817
 2961W        W 7161   3.683   3.503   0.694  0.3128  0.0506 -0.0901
 2962W        W 7162   1.887   9.235   3.336 -0.1631  0.0540  0.2838
 2963W        W 7163   6.191   2.683  12.011 -0.1155 -0.3857 -0.0701
 2964W        W 7164   0.872   9.396   0.232  0.0812 -0.2553  0.0132
 2965W        W 7165   6.074   8.970   3.787 -0.0841  0.0230 -0.3979
 2966W        W 7166  10.089   6.897  11.453  0.2659 -0.1234 -0.1615
 2967W        W 7167   3.365   2.802   2.217 -0.0181  0.0771  0.3319
 2968W        W 7168   3.800   1.151  10.000 -0.1756 -0.0963 -0.0785
 2969W        W 7169   6.837   1.470   2.608 -0.0807  0.2128  0.1736
 2970W        W 7170  10.059   5.754  12.332  0.1622 -0.3620 -0.0736
 2971W        W 7171   5.785   5.492   0.316 -0.2124  0.1487 -0.0383
 2972W        W 7172   8.229   2.892  12.541 -0.1414  0.3917  0.2055
 2973W        W 7173   7.354   5.898  11.508 -0.2874  0.2599  0.2232
 2974W        W 7174   1.480   0.706   2.447 -0.1324  0.1814  0.0794
 2975W        W 7175   7.724   0.046   2.891 -0.1124  0.1451 -0.0092
 2976W        W 7176   8.744   2.969   2.400 -0.0618 -0.1404  0.1313
 2977W        W 7177   2.427   4.247   0.280  0.0951  0.1042 -0.2515
 2978W        W 7178   3.507   4.502   0.376  0.2339  0.2686 -0.5056
 2979W        W 7179  10.358   3.295   1.164 -0.1582  0.0901 -0.3510
 2980W        W 7180   9.201   6.672   0.935 -0.2600  0.0107 -0.0466
 2981W        W 7181   5.061   0.020   0.631 -0.2881 -0.0381  0.3140
 2982W        W 7182   5.404   2.319  10.924 -0.2098 -0.0016  0.0232
 2983W        W 7183   2.426   8.985   1.126  0.4601  0.0789 -0.0053
 2984W        W 7184   6.267   3.688   3.427  0.1400 -0.1657 -0.1410
 2985W        W 7185   1.785   5.887   4.711  0.1798 -0.2180 -0.0988
 2986W        W 7186   5.585   7.072   1.169 -0.1403  0.0502  0.3015
 2987W        W 7187   1.765   5.686   2.208  0.2216 -0.1375  0.0692
 2988W        W 7188   4.844   2.146   8.714  0.5477  0.1248  0.0252
 2989W        W 7189   8.897   8.437   8.919 -0.2133  0.1121  0.2002
 2990W        W 7190   6.091   9.677   1.388  0.1894 -0.0432  0.0955
 2991W        W 7191   3.234   5.309  11.782  0.1632 -0.0226  0.1671
 2992W        W 7192   1.125   1.294  12.795  0.0590 -0.0834 -0.0622
 2993W        W 7193   6.822  10.192   2.372 -0.3105  0.0869  0.0326
 2994W        W 7194   9.504   8.441   0.619 -0.3632 -0.2877  0.0951
 2995W        W 7195   7.163   4.169   2.103 -0.1061 -0.3494 -0.1779
 2996W        W 7196   7.137   9.795   1.409  0.3050 -0.0408  0.3267
 2997W        W 7197   3.355   8.673  11.576  0.2427  0.0562  0.0886
 2998W        W 7198   7.850   3.577   0.150 -0.2905 -0.1631  0.0994
 2999W        W 7199   5.217   5.556  12.021 -0.2981 -0.1812  0.2005
 3000W        W 7200   6.097  10.594   1.774 -0.1331 -0.2516 -0.0971
 3001W        W 7201   0.138   0.733   2.524 -0.1908  0.0070  0.1401
 3002W        W 7202   0.423   7.475  10.466 -0.0504 -0.0129  0.1099
 3003W        W 7203   4.901   5.513  10.279 -0.1618 -0.2266  0.3071
 3004W        W 7204   8.978   8.395   2.986  0.0355 -0.2441  0.3311
 3005W        W 7205   9.451   9.166  11.465  0.0921  0.0729 -0.0091
 3006W        W 7206   6.742   8.096  12.103 -0.1327 -0.5202  0.0220
 3007W        W 7207   7.846   9.999   2.437  0.1970  0.1135 -0.0035
 3008W        W 7208   5.850   3.478   0.947 -0.1174 -0.1651  0.0335
 3009W        W 7209   4.407   1.999   9.779  0.2677 -0.2656 -0.1919
 3010W        W 7210   6.107   8.650   0.677  0.1096 -0.1203  0.0304
 3011W        W 7211   5.386   2.682   3.982  0.0507  0.2324  0.0517
 3012W        W 7212   3.357   8.260  10.681  0.0405 -0.1592  0.1327
 3013W        W 7213   6.123  10.340  10.280  0.1518  0.1277 -0.1263
 3014W        W 7214   9.172   5.739   9.098  0.1974 -0.0677 -0.1009
 3015W        W 7215   4.320   0.312  12.634 -0.2634  0.2423  0.5352
 3016W        W 7216   8.307   1.678   3.629 -0.3179  0.0077  0.1989
 3017W        W 7217   4.382   9.972   3.088  0.0902  0.1682 -0.2812
 3018W        W 7218   8.569   7.431  11.641  0.0232  0.2432  0.1390
 3019W        W 7219   9.716   8.172   9.278 -0.0259  0.2855  0.2436
 3020W        W 7220   8.937   7.477   7.877 -0.1111 -0.2219 -0.1075
 3021W        W 7221   5.544   7.910   0.132 -0.1364 -0.0639  0.1505
 3022W        W 7222   1.035   9.167  12.360 -0.3038  0.0810  0.1952
 3023W        W 7223   5.005   4.981   1.879  0.0203  0.2795 -0.3226
 3024W        W 7224   6.566   1.840   0.258  0.0193  0.1033  0.2622
 3025W        W 7225   1.406   5.864   1.073 -0.3618  0.0027  0.1323
 3026W        W 7226  10.414   8.244   0.286 -0.0720 -0.0431 -0.0166
 3027W        W 7227   5.200   4.719  12.687 -0.0199  0.0360 -0.0205
 3028W        W 7228   0.105   8.226   2.483 -0.0582 -0.3199  0.0426
 3029W        W 7229   1.189   4.076  10.713 -0.0125  0.1533 -0.0692
 3030W        W 7230   5.448   0.085   8.024 -0.1897  0.2794 -0.1642
 3031W        W 7231   0.562   9.053  10.464 -0.0407 -0.2371 -0.1700
 3032W        W 7232   6.066   8.207   2.598  0.1146  0.3357  0.0253
 3033W        W 7233   1.973   7.663   1.382 -0.0358 -0.0941 -0.2424
 3034W        W 7234   4.210   6.271   8.324 -0.1518 -0.0416 -0.1177
 3035W        W 7235   3.594   4.005   3.858  0.0998  0.0115 -0.3097
 3036W        W 7236   5.020   9.419  12.241  0.2077  0.1320  0.1921
 3037W        W 7237   3.841   7.070   3.339  0.2189 -0.1175  0.2267
 3038W        W 7238   3.874   9.231  10.649 -0.1106 -0.2461  0.0528
 3039W        W 7239   9.923   3.435  12.665 -0.0417  0.1407 -0.1669
 3040W        W 7240   7.787   3.710   1.089  0.0391  0.2337  0.0279
 3041W        W 7241   7.753   7.717   1.324  0.0898  0.0054  0.1552
 3042W        W 7242   5.466   6.994   1.856 -0.0318  0.0861  0.0234
 3043W        W 7243   5.038  10.301   0.846  0.0692  0.3243  0.0727
 3044W        W 7244   9.741   6.314   2.590  0.0288  0.1526  0.0404
 3045W        W 7245   6.248   5.367   0.559  0.0125  0.2207 -0.0100
 3046W        W 7246   4.886   6.530   2.708  0.1952 -0.1554  0.5160
 3047W        W 7247   6.184   7.476  10.231  0.1011 -0.1966 -0.2115
 3048W        W 7248   6.208   0.233   1.477  0.0832  0.1044  0.1683
 3049W        W 7249   7.031   9.509   8.494 -0.1631  0.2889 -0.0600
 3050W        W 7250   2.552   1.728   2.614 -0.3480  0.2440  0.1907
 3051W        W 7251  10.183   9.722   3.022  0.0906 -0.3169 -0.1409
 3052W        W 7252   3.801   8.169   2.462  0.0445 -0.0636 -0.1280
 3053W        W 7253   9.601   3.425   1.623 -0.3410 -0.3059 -0.1829
 3054W        W 7254   7.612   0.903   2.838 -0.4129 -0.0229 -0.0135
 3055W        W 7255   3.954   1.851   0.774  0.0524 -0.0828  0.2245
 3056W        W 7256   2.766  10.661  10.373  0.5751 -0.1634 -0.0371
 3057W        W 7257   3.029   1.445  11.596  0.0574  0.0851 -0.1520
 3058W        W 7258   4.759   8.543  10.188  0.0519 -0.0021  0.4053
 3059W        W 7259   9.628   8.343   1.151  0.1728 -0.1825 -0.3135
 3060W        W 7260   2.728   0.216   1.669  0.2117  0.0905  0.1376
 3061W        W 7261  10.410   8.912   8.340 -0.3681 -0.0046  0.0707
 3062W        W 7262   3.137  10.679   1.555  0.1364 -0.1452  0.0985
 3063W        W 7263   8.302   6.538  10.876 -0.0492  0.1530  0.1772
 3064W        W 7264   4.179   9.987   1.374 -0.4084 -0.0843  0.3823
 3065W        W 7265   5.105   1.461   9.630  0.0386  0.2833  0.0226
 3066W        W 7266   1.409   5.952   0.024  0.0858  0.0581  0.3007
 3067W        W 7267   8.235   6.133  12.265 -0.4019  0.0671 -0.1952
 3068W        W 7268   8.854  10.393   1.849 -0.1372 -0.1876 -0.0592
 3069W        W 7269  10.274   4.678   8.591  0.1901 -0.0507 -0.1689
 3070W        W 7270   1.271   2.746  10.359 -0.1136  0.0515  0.3959
 3071W        W 7271  10.559   8.860  11.708 -0.1533 -0.1273 -0.1035
 3072W        W 7272   7.080   6.400   1.624  0.0522 -0.2013 -0.1256
 3073W        W 7273  10.386   8.050   8.054  0.0297  0.0906 -0.5085
 3074W        W 7274   7.906   7.539   8.498  0.0928 -0.3044 -0.1545
 3075W        W 7275   9.035   8.056   2.587 -0.1922  0.0271 -0.1714
 3076W        W 7276   6.564  10.569   1.305 -0.0414 -0.0622 -0.0297
 3077W        W 7277   9.772   6.459   9.706  0.2362  0.3974  0.0021
 3078W        W 7278   8.073  10.324  10.084  0.0448 -0.1446  0.1381
 3079W        W 7279   9.410   9.008   8.610 -0.0768  0.1635 -0.0676
 3080W        W 7280   2.822   8.624   8.211  0.1196  0.0557 -0.3884
 3081W        W 7281   6.195   0.336  10.880  0.0742 -0.1720  0.2351
 3082W        W 7282   1.836   5.530   8.780 -0.4232 -0.0613  0.1636
 3083W        W 7283   5.802   4.860   2.447 -0.2716  0.2044  0.0931
 3084W        W 7284   2.733   9.097   9.037  0.1830  0.2583 -0.1906
 3085W        W 7285   5.389   7.480   1.944 -0.4960 -0.0472  0.2770
 3086W        W 7286   0.814   0.886   9.230 -0.3889  0.2431  0.0399
 3087W        W 7287   7.234   1.477   0.702  0.0555 -0.2014 -0.0789
 3088W        W 7288   9.895   2.134   0.107  0.0403  0.0526 -0.0375
 3089W        W 7289   1.774   8.425   0.965  0.3639  0.0376 -0.0186
 3090W        W 7290   6.613   5.586   9.003  0.1290  0.0205  0.2667
 3091W        W 7291   3.327   9.181   2.825  0.1139  0.2346  0.2932
 3092W        W 7292   2.567   7.786  11.386  0.2532  0.1069 -0.1574
 3093W        W 7293   1.840   6.173   1.141 -0.2968 -0.2484  0.2067
 3094W        W 7294   5.643   9.046  10.015  0.0803 -0.1020  0.0691
 3095W        W 7295   4.452   1.962   3.609  0.3646 -0.0001  0.1712
 3096W        W 7296   3.097   9.754  10.374 -0.1171 -0.0713  0.3591
 3097W        W 7297   6.388   9.937   8.175  0.1280 -0.1868 -0.0061
 3098W        W 7298   5.896   7.716   1.112  0.1475 -0.0574 -0.2950
 3099W        W 7299   1.126   8.989   0.765 -0.2594  0.0160 -0.3858
 3100W        W 7300   4.244   1.059  11.999 -0.1801 -0.0789 -0.2355
 3101W        W 7301   4.583   1.729   4.105 -0.1599  0.1475  0.1374
 3102W        W 7302   2.314   3.631  10.712  0.1398  0.0578  0.2276
 3103W        W 7303   8.113   4.919  11.892  0.1916 -0.0790 -0.0434
 3104W        W 7304   9.440   9.900   9.996  0.0922 -0.2073 -0.2482
 3105W        W 7305   5.231   1.445   4.667 -0.0152  0.0372 -0.5666
 3106W        W 7306   0.892  10.162   9.681  0.0052 -0.0091 -0.0375
 3107W        W 7307   7.514   1.750   0.390 -0.1783 -0.0500 -0.1823
 3108W        W 7308   3.001   5.882   2.000  0.0981  0.3375  0.0526
 3109W        W 7309   9.787   1.647   1.023  0.2847  0.0981 -0.1419
 3110W        W 7310   8.965   1.037   2.097 -0.4381  0.0771  0.0164
 3111W        W 7311   9.743   1.600   4.117  0.0316  0.0525  0.0976
 3112W        W 7312   1.432  10.593  12.194  0.0323 -0.3454 -0.1226
 3113W        W 7313   1.669   3.628   3.211 -0.1171  0.1954  0.0497
 3114W        W 7314   7.018   0.777   4.624 -0.3129  0.3006  0.2966
 3115W        W 7315   8.631   3.304   9.051  0.0853  0.2987  0.1105
 3116W        W 7316   3.879   1.967   2.185  0.1364  0.0695 -0.0157
 3117W        W 7317   8.495   8.713   1.897 -0.2408 -0.1711 -0.1047
 3118W        W 7318   3.836   7.974   4.688  0.0688  0.0675 -0.0635
 3119W        W 7319   0.786   7.578   0.528  0.1460  0.1620 -0.1148
 3120W        W 7320   3.914   4.542   1.405  0.2392 -0.3090 -0.0917
 3121W        W 7321   8.523   4.832  11.149 -0.2727  0.0311 -0.1115
 3122W        W 7322   8.894   2.281   2.220 -0.0028  0.1416  0.1957
 3123W        W 7323  10.016   6.024   8.602 -0.1528  0.1595  0.0171
 3124W        W 7324   3.107   4.382  10.462  0.1662  0.2201  0.0881
 3125W        W 7325  10.680   4.384  10.089  0.4133 -0.0024 -0.1361
 3126W        W 7326   4.026   8.614  12.651 -0.0896 -0.1234 -0.0696
 3127W        W 7327   9.226   0.767  10.102 -0.2093  0.0428  0.0723
 3128W        W 7328   3.776   7.956  10.602  0.2658 -0.0460 -0.0419
 3129W        W 7329   3.382   0.153  11.170 -0.2102  0.0583  0.1077
 3130W        W 7330   1.603   7.243   4.316 -0.2314 -0.4247  0.3383
 3131W        W 7331  10.309   3.897   9.956 -0.1683  0.1293 -0.1202
 3132W        W 7332   4.752   3.917   8.585  0.0448  0.1462  0.0424
 3133W        W 7333   4.078   5.213   8.597 -0.0192 -0.1661  0.3097
 3134W        W 7334   1.790   9.030  11.226 -0.1843 -0.0095  0.1601
 3135W        W 7335   6.513   6.072   8.894 -0.0987 -0.1863  0.0344
 3136W        W 7336   5.144   7.289   9.362 -0.0936  0.2455  0.2166
 3137W        W 7337   3.431   9.555  11.669 -0.2061 -0.2919  0.0323
 3138W        W 7338   2.625  10.092   2.104 -0.3904 -0.1615  0.2627
 3139W        W 7339   4.697   0.507   0.102  0.0776  0.1751 -0.0330
 3140W        W 7340   4.861  10.281   3.038  0.0923 -0.3245 -0.1608
 3141W        W 7341   1.306   7.871  10.633 -0.1883  0.0372 -0.0403
 3142W        W 7342   1.461   2.603   9.547 -0.2863 -0.0022  0.0121
 3143W        W 7343   1.838   8.962   1.981  0.0219 -0.0959 -0.2063
 3144W        W 7344   4.915   5.145  10.746 -0.2014 -0.0970  0.0591
 3145W        W 7345   9.077   5.030   2.999  0.1988  0.3833 -0.2317
 3146W        W 7346   4.215   3.603   0.930 -0.0426  0.0940 -0.3353
 3147W        W 7347  10.596   4.427  11.119 -0.0462 -0.0424  0.0718
 3148W        W 7348  10.528   7.367   2.877 -0.4260 -0.0645 -0.2074
 3149W        W 7349   0.093   3.964  12.800  0.4910 -0.3125  0.0220
 3150W        W 7350   9.509   8.184   3.682  0.2450 -0.3062 -0.2151
 3151W        W 7351   9.977   2.928  10.455  0.1441  0.2682  0.3253
 3152W        W 7352   1.426  10.333   2.006  0.1896 -0.1159 -0.3618
 3153W        W 7353   9.552   9.643  12.412 -0.0334  0.3633 -0.1241
 3154W        W 7354   9.953   9.048   8.474 -0.2245  0.1852 -0.3347
 3155W        W 7355   3.979   6.903  10.652 -0.0632 -0.0816  0.1870
 3156W        W 7356   6.478   1.039   9.927 -0.1877 -0.4084 -0.1496
 3157W        W 7357  10.312   6.724  11.898 -0.0248 -0.1767  0.2392
 3158W        W 7358   2.191   4.317   3.627  0.1507  0.0342 -0.3151
 3159W        W 7359   7.376   7.256   2.469 -0.0206 -0.2056  0.0180
 3160W        W 7360  10.065   7.570   2.667 -0.3329  0.1843  0.1127
 3161W        W 7361   9.217   0.180  10.920 -0.2584  0.0444 -0.0026
 3162W        W 7362   7.574   4.563   0.279 -0.2377 -0.0158  0.4780
 3163W        W 7363   5.100   3.889  12.284  0.1617 -0.3176 -0.1157
 3164W        W 7364   3.874   3.559   9.607  0.1961 -0.0446 -0.0013
 3165W        W 7365   0.786   5.372   0.393  0.1032  0.1235 -0.0740
 3166W        W 7366   5.282   0.245  10.553  0.2535 -0.1964  0.1754
 3167W        W 7367   3.935   0.511   9.187  0.1945 -0.0074 -0.2160
 3168W        W 7368   3.422   9.143   0.215  0.1524 -0.2160  0.1205
 3169W        W 7369   5.877   1.276   1.428  0.1247  0.0301 -0.0144
 3170W        W 7370   6.694   5.805   0.058 -0.0460 -0.0689  0.3322
 3171W        W 7371   6.727   1.437  12.164  0.2052  0.0539  0.2502
 3172W        W 7372   6.023   6.762  10.867 -0.1121  0.1110  0.0983
 3173W        W 7373   4.488   8.777   9.766  0.0933  0.2147  0.1082
 3174W        W 7374   4.545   0.900   0.455  0.0161 -0.2090 -0.2464
 3175W        W 7375   3.724   0.665  11.178 -0.1948 -0.1690  0.0432
 3176W        W 7376   3.658   8.238   1.242 -0.2331  0.0049  0.0658
 3177W        W 7377   5.472   9.646   0.506  0.1582  0.1393 -0.0731
 3178W        W 7378   7.405   5.089  12.083 -0.0223 -0.2621  0.0060
 3179W        W 7379   3.335   0.510   3.114 -0.1921  0.0777  0.1426
 3180W        W 7380  10.346   5.203  11.769 -0.2076 -0.0793 -0.2601
 3181W        W 7381   9.299   8.686  11.116 -0.2000  0.2624  0.0471
 3182W        W 7382   1.738   3.956   3.599 -0.0685 -0.2904  0.4167
 3183W        W 7383   8.745   2.488   0.489  0.1412  0.2684  0.0140
 3184W        W 7384   4.906   7.370  12.697  0.1382  0.1131 -0.2900
 3185W        W 7385  10.489   4.316   1.153 -0.1279 -0.1339 -0.0642
 3186W        W 7386   0.350   3.140   9.386 -0.0836 -0.2741  0.2732
 3187W        W 7387   1.345   8.840   1.209 -0.4060 -0.0232  0.1892
 3188W        W 7388   8.667   0.621  10.177 -0.0761 -0.1288  0.2188
 3189W        W 7389   4.056  10.313   8.059  0.0367 -0.1665 -0.0930
 3190W        W 7390   4.444   8.938  12.792  0.2161  0.0252 -0.1159
 3191W        W 7391   4.374   1.988  11.811 -0.0872 -0.0269 -0.0585
 3192W        W 7392   2.528   4.999  12.715  0.1938  0.1281  0.0077
 3193W        W 7393   4.945   2.211  12.508 -0.3435  0.0111 -0.0948
 3194W        W 7394   2.734   2.675   2.389  0.0732 -0.0060  0.3106
 3195W        W 7395   7.889   5.882  10.492 -0.1952 -0.1933 -0.1638
 3196W        W 7396   2.785   3.945   8.632  0.0753  0.0902 -0.0349
 3197W        W 7397   1.673   1.075   9.830 -0.1139 -0.2174 -0.0563
 3198W        W 7398  10.478   0.081  11.630 -0.5403  0.0348  0.0560
 3199W        W 7399   2.798   0.541   0.653  0.1301 -0.1753 -0.1329
 3200W        W 7400   9.817   1.322   9.488  0.1260  0.2811 -0.1942
 3201W        W 7401   3.151   0.998   2.592  0.1191  0.2344 -0.0653
 3202W        W 7402   0.436  10.580   2.378  0.0241 -0.0373  0.0779
 3203W        W 7403   1.827   6.399   8.952  0.1268 -0.0208  0.0562
 3204W        W 7404   2.431   2.711   9.707 -0.0488  0.0358  0.0333
 3205W        W 7405   3.564   5.920   2.590  0.0655 -0.4646  0.0030
 3206W        W 7406   1.636   7.066   8.363 -0.0095 -0.1086  0.1441
 3207W        W 7407   7.645   8.887   8.357  0.1762  0.0104 -0.1724
 3208W        W 7408   1.716   3.382  11.395  0.3627 -0.0420 -0.0139
 3209W        W 7409   7.175   8.279   2.295  0.0248  0.3803  0.1430
 3210W        W 7410  10.139   4.156   2.435  0.0458  0.0043 -0.2334
 3211W        W 7411   0.864   7.511  12.094  0.0352  0.1353 -0.0818
 3212W        W 7412   1.577   7.330   9.537 -0.0167  0.4346  0.5351
 3213W        W 7413   2.463   4.280   4.063  0.1367 -0.0412  0.0512
 3214W        W 7414   7.528   2.182   9.648  0.1102 -0.0277 -0.2116
 3215W        W 7415   1.627   1.792  11.927  0.0247  0.1487 -0.0586
 3216W        W 7416  10.307   4.466   1.909 -0.4499  0.1300  0.0906
 3217W        W 7417   1.177   8.726  10.019  0.1324 -0.2274  0.3652
 3218W        W 7418   8.585   3.933   0.709  0.1074  0.3153  0.1210
 3219W        W 7419  10.714   5.562   2.544  0.0465  0.1334 -0.1501
 3220W        W 7420   5.292   1.051   9.965  0.0478 -0.1651  0.1722
 3221W        W 7421   8.388   5.205   1.886 -0.0011  0.2323  0.1690
 3222W        W 7422   3.235   2.666   3.545 -0.2358 -0.1380  0.2264
 3223W        W 7423   8.015  10.480   2.632 -0.0306  0.0931  0.1658
 3224W        W 7424   0.897   2.035   1.469  0.0161  0.2533 -0.1290
 3225W        W 7425   4.231   7.184   1.601  0.4321 -0.1399 -0.0105
 3226W        W 7426   5.018   6.066  12.247 -0.1194  0.0497 -0.0855
 3227W        W 7427   4.542   7.493   8.757  0.1558  0.0695  0.1750
 3228W        W 7428  10.509   2.622  11.315  0.0955  0.0656  0.2399
 3229W        W 7429   2.303   1.405   1.673 -0.0997 -0.1636 -0.0153
 3230W        W 7430   0.668   6.857   9.722 -0.0958  0.0714 -0.1437
 3231W        W 7431   5.816   0.270   2.752  0.0045 -0.0103 -0.1373
 3232W        W 7432   9.241   6.964   2.830  0.1438 -0.2378  0.0417
 3233W        W 7433   8.200   8.073   8.228 -0.1015 -0.2175  0.2775
 3234W        W 7434   0.565   3.763   3.114  0.0036 -0.0805  0.1463
 3235W        W 7435   3.005   2.803   0.531 -0.1808 -0.0162 -0.1642
 3236W        W 7436  10.429  10.647   9.277 -0.0069 -0.1174  0.0308
 3237W        W 7437   9.860   8.380   0.241  0.0634  0.0362 -0.1341
 3238W        W 7438   5.630   5.393   3.872 -0.1825  0.1175 -0.3449
 3239W        W 7439   0.893   6.762   2.360  0.0304 -0.1295 -0.0203
 3240W        W 7440   4.897   3.369   8.516 -0.3301 -0.0579 -0.1085
 3241W        W 7441  10.560   4.696  12.532 -0.0386  0.2227 -0.0224
 3242W        W 7442   4.241   0.807   3.035  0.1435 -0.1685 -0.0298
 3243W        W 7443   3.626   2.908  10.304 -0.1217 -0.2801  0.1593
 3244W        W 7444   0.049   2.651  12.132  0.0200 -0.0778 -0.1475
 3245W        W 7445  10.222   0.499   2.275  0.0567  0.1462 -0.0064
 3246W        W 7446   2.889   6.391   4.212 -0.0531 -0.1706  0.2472
 3247W        W 7447   9.638   6.913   9.735  0.0039  0.0685 -0.2675
 3248W        W 7448   2.801   0.664  10.703 -0.2490 -0.0088 -0.0672
 3249W        W 7449   7.710   1.364   2.458 -0.2924 -0.1002  0.1580
 3250W        W 7450   7.713   2.155   1.842 -0.5532  0.1655 -0.1074
 3251W        W 7451   6.942   8.082   3.516  0.2903 -0.2146 -0.0246
 3252W        W 7452   2.774   9.093  10.516 -0.1036  0.1423 -0.2794
 3253W        W 7453   9.644   4.764   1.867  0.1782 -0.0561 -0.0475
 3254W        W 7454   6.006   1.839   8.702 -0.4189 -0.0539  0.1501
 3255W        W 7455   8.722   5.446   0.385  0.2851 -0.0163 -0.0657
 3256W        W 7456   6.370   6.884   1.115 -0.3673 -0.2056  0.3173
 3257W        W 7457   7.639   6.978   1.015  0.0987  0.0901 -0.0509
 3258W        W 7458   1.383   9.957   9.683  0.3075  0.0123  0.1536
 3259W        W 7459   6.183  10.469  11.686 -0.0798 -0.1778  0.0646
 3260W        W 7460   8.822  10.133  11.707  0.0322  0.1819 -0.1368
 3261W        W 7461   3.945   8.647   9.030 -0.0368  0.0118  0.0634
 3262W        W 7462   3.325   1.370  12.398 -0.1403  0.1204 -0.0176
 3263W        W 7463   9.083   6.593   0.061  0.4556 -0.1429  0.2126
 3264W        W 7464   9.420   2.739  11.385 -0.1319 -0.1896  0.0122
 3265W        W 7465   7.631   0.308   0.385  0.0108  0.0223 -0.4614
 3266W        W 7466   9.875   0.158   0.084 -0.0855  0.1062 -0.2318
 3267W        W 7467   4.549   9.456  12.454 -0.0195  0.0760 -0.0257
 3268W        W 7468   3.689   4.440  10.543 -0.0838 -0.1714  0.1449
 3269W        W 7469   4.722   9.408  11.097 -0.0110 -0.4475 -0.1310
 3270W        W 7470   1.521   7.607   7.868 -0.0167  0.0501 -0.0249
 3271W        W 7471   0.796   5.800   2.309  0.3318  0.0402 -0.3396
 3272W        W 7472   7.756   9.120   2.347 -0.3653 -0.2201  0.1175
 3273W        W 7473   6.880   0.756   0.240 -0.2180 -0.2457  0.1228
 3274W        W 7474   2.939   9.519   9.969  0.1052 -0.3224  0.1018
 3275W        W 7475   0.589   0.673   2.810  0.1484 -0.1341 -0.1000
 3276W        W 7476  10.113   9.047   9.296  0.2946  0.1742 -0.2582
 3277W        W 7477   6.363   4.760   2.491 -0.0439 -0.0618 -0.2981
 3278W        W 7478  10.460   3.667   1.577 -0.0984  0.3138  0.1144
 3279W        W 7479   2.612   7.021  10.682 -0.0287  0.1401  0.0503
 3280W        W 7480   6.614   6.281   3.458  0.2322  0.1615  0.2847
 3281W        W 7481   2.721   3.400   9.304  0.3440 -0.1469  0.1157
 3282W        W 7482   5.208   3.143   0.202  0.3239  0.3567 -0.2802
 3283W        W 7483   5.212   6.394   9.036  0.3110 -0.2813 -0.0901
 3284W        W 7484   8.571   6.236   8.241 -0.3009  0.1183 -0.2768
 3285W        W 7485   6.510   0.706   8.521 -0.3898  0.0948 -0.0823
 3286W        W 7486   7.148   5.440   8.357 -0.2011 -0.0825  0.1516
 3287W        W 7487   3.061   6.667   3.859 -0.0570  0.0090 -0.0133
 3288W        W 7488   4.180   6.803   9.177 -0.0449 -0.0857  0.0985
 3289W        W 7489   4.856   3.985   1.590  0.0708 -0.1582 -0.1865
 3290W        W 7490   2.800   9.129  11.532  0.2703  0.2130 -0.0707
 3291W        W 7491   3.994   4.566   0.875  0.0836 -0.1995  0.1507
 3292W        W 7492   0.072   5.845   8.250 -0.1903 -0.1422  0.0037
 3293W        W 7493   9.060   4.378  12.625  0.1493  0.1290 -0.1034
 3294W        W 7494   5.580   6.350  12.785 -0.0374  0.0022  0.1395
 3295W        W 7495   8.751   9.147   1.978  0.1005 -0.0344 -0.0927
 3296W        W 7496   9.210   9.953   8.801  0.2197 -0.0901  0.2422
 3297W        W 7497   7.144   4.714  11.503 -0.0105 -0.2235  0.0093
 3298W        W 7498   0.794   4.928  10.407 -0.2728  0.2558 -0.1597
 3299W        W 7499   4.356   5.547  10.993 -0.0829 -0.1058 -0.0509
 3300W        W 7500   5.806   8.724   1.060 -0.1651 -0.2876  0.1815
 3301W        W 7501   2.590   2.588  10.174  0.0339 -0.1182 -0.4090
 3302W        W 7502   4.801   5.671   8.936 -0.1337  0.2498  0.0020
 3303W        W 7503   5.086  10.607  10.235  0.0222 -0.1191  0.2085
 3304W        W 7504   3.261   0.227   8.915 -0.0632  0.1965 -0.1179
 3305W        W 7505   5.189   2.389   0.921  0.0496  0.2019  0.2407
 3306W        W 7506   1.130   1.691   9.630  0.4584  0.2679  0.1005
 3307W        W 7507   1.010   5.547   2.847 -0.0179  0.3346 -0.0870
 3308W        W 7508   6.473   9.545  10.735 -0.3672  0.0542  0.2296
 3309W        W 7509   8.128   8.801  10.248  0.3605 -0.0551 -0.0747
 3310W        W 7510   2.185   6.531   1.155 -0.1755  0.1175 -0.2392
 3311W        W 7511   3.380   2.262  12.651 -0.0785  0.2004  0.0219
 3312W        W 7512   5.011   9.603   3.652 -0.2296 -0.0664  0.3798
 3313W        W 7513  10.078   9.548   0.073  0.4298 -0.0704  0.0582
 3314W        W 7514   9.469   7.374   9.661  0.1469  0.0391 -0.2002
 3315W        W 7515   5.868   7.266   2.233  0.0814  0.0931 -0.2327
 3316W        W 7516   9.543   6.032  12.388 -0.2635  0.1782  0.0727
 3317W        W 7517   1.851   5.967   0.598  0.1279  0.0792  0.1795
 3318W        W 7518   2.260   2.954   8.358 -0.2407  0.1382  0.0296
 3319W        W 7519   9.574   5.826   8.813  0.1755  0.3622  0.1877
 3320W        W 7520   2.667   3.469  12.783  0.0786  0.0681  0.3232
 3321W        W 7521   4.063   1.041   9.120 -0.0899  0.0307  0.1750
 3322W        W 7522   6.535   1.961   2.599  0.0546  0.2065 -0.0693
 3323W        W 7523   7.546   5.642  12.478  0.0225  0.1116 -0.0562
 3324W        W 7524   7.267   0.147   2.692  0.1937 -0.1233 -0.1347
 3325W        W 7525   2.031  10.729  10.501 -0.0935 -0.1166 -0.1692
 3326W        W 7526   1.831   0.485   2.754  0.1324 -0.0953 -0.2547
 3327W        W 7527   1.137   4.508   2.323  0.3597  0.2588 -0.1585
 3328W        W 7528   3.172   8.538   1.553 -0.1332  0.1811  0.0717
 3329W        W 7529   2.725   5.890   7.977 -0.2468  0.4763 -0.0750
 3330W        W 7530   6.800   9.257  10.376 -0.0507  0.0303 -0.4012
 3331W        W 7531   6.863   1.881  10.123  0.0767 -0.0174 -0.1767
 3332W        W 7532  10.575   6.989   0.771 -0.1822 -0.0508  0.2835
 3333W        W 7533   6.218   0.597  11.397 -0.1125  0.4668  0.1304
 3334W        W 7534   7.717   9.892  12.124  0.2451  0.2785 -0.1186
 3335W        W 7535   5.204   5.448   1.467  0.1340  0.1093 -0.1337
 3336W        W 7536   7.012   7.410  10.090 -0.0738 -0.0844  0.1357
 3337W        W 7537   4.003   0.664  12.589 -0.1443  0.0360  0.2649
 3338W        W 7538   6.739   3.655   2.626  0.0904  0.1841 -0.2208
 3339W        W 7539   5.077   4.342   1.823 -0.1444 -0.0276  0.1873
 3340W        W 7540   3.032   3.138   0.126 -0.1371  0.0981  0.0587
 3341W        W 7541  10.471   7.200  11.221 -0.5641  0.1033  0.0687
 3342W        W 7542   4.983   0.884   9.239  0.2003  0.0502 -0.1403
 3343W        W 7543   2.994   7.936   8.162 -0.0374  0.0756  0.0350
 3344W        W 7544   9.246   1.230   9.944 -0.0985 -0.5446 -0.1364
 3345W        W 7545   3.843   4.695  10.050  0.0823 -0.1506  0.1769
 3346W        W 7546   6.104   9.673  12.636  0.1870 -0.1100  0.0688
 3347W        W 7547   8.979   2.072   1.723 -0.3144 -0.1081  0.0971
 3348W        W 7548   7.755   8.543  11.360  0.2944 -0.1265 -0.1903
 3349W        W 7549   0.749   0.298   2.103 -0.2792 -0.4921  0.3033
 3350W        W 7550   4.869   5.869   1.275 -0.0539  0.1104  0.1371
 3351W        W 7551   2.920  10.067   4.203 -0.0526 -0.1114 -0.1429
 3352W        W 7552   5.687  10.101  11.876  0.3460 -0.1068  0.4798
 3353W        W 7553   6.618   0.838   4.366 -0.2044  0.1428 -0.1708
 3354W        W 7554   2.026   5.360  11.309  0.1186 -0.1243 -0.0916
 3355W        W 7555   7.966   2.688  12.048  0.2044  0.2209 -0.0734
 3356W        W 7556   0.097   3.887   9.871  0.0414  0.1406 -0.3605
 3357W        W 7557   3.215   8.841   9.439  0.0168  0.0313 -0.0911
 3358W        W 7558   1.294   6.901   3.995 -0.2202  0.0160  0.0624
 3359W        W 7559   6.581   0.567   0.568  0.0402  0.2262  0.0105
 3360W        W 7560   2.950   5.280   2.915 -0.2609 -0.1330 -0.1828
 3361W        W 7561   4.419   6.830   3.874  0.2668  0.0254  0.0595
 3362W        W 7562   6.667   7.613   3.593 -0.0659 -0.3569  0.2653
 3363W        W 7563   8.151   2.252   1.165 -0.1661 -0.2486 -0.0618
 3364W        W 7564   9.463   3.539   2.993  0.0545 -0.1762 -0.0974
 3365W        W 7565   2.759   2.183   2.835  0.1910  0.1290 -0.2467
 3366W        W 7566   3.485   4.526  10.999  0.0957 -0.1298 -0.1298
 3367W        W 7567   2.801   8.219   2.885  0.0192  0.0372  0.0925
 3368W        W 7568   9.568   4.069   9.904  0.1892 -0.1403 -0.1908
 3369W        W 7569   7.471   9.851   9.252 -0.2163 -0.0214  0.0698
 3370W        W 7570   5.448   8.372  12.689 -0.3326  0.0456  0.1684
 3371W        W 7571   9.561   1.018   9.150 -0.3003 -0.0968 -0.1918
 3372W        W 7572   2.622   1.336   3.376 -0.1163  0.1891 -0.0058
 3373W        W 7573  10.347   4.315  12.138 -0.0430 -0.1813 -0.0368
 3374W        W 7574   0.751  10.256   2.519  0.1523  0.0526  0.1850
 3375W        W 7575   3.745   1.440   9.413 -0.1042  0.0422  0.0801
 3376W        W 7576   9.286   0.599   2.867 -0.2037  0.1895  0.2799
 3377W        W 7577   6.052   8.710  10.879  0.0879  0.0356 -0.0218
 3378W        W 7578   3.144   6.125  11.172 -0.3653 -0.2476  0.0052
 3379W        W 7579   0.693   0.725   3.995  0.0631 -0.0037  0.0222
 3380W        W 7580   5.883   1.429  11.080 -0.2030 -0.0850  0.1556
 3381W        W 7581   3.502   0.952   1.688  0.1514 -0.0903  0.2958
 3382W        W 7582   1.867   4.286   9.533  0.0123 -0.2312 -0.1214
 3383W        W 7583   5.961   4.307  12.623  0.1005 -0.3190 -0.0794
 3384W        W 7584   1.003   9.515   4.237 -0.1330 -0.2051 -0.2591
 3385W        W 7585   5.704  10.357   2.090 -0.0463 -0.0948  0.0507
 3386W        W 7586   1.586   2.175  10.888 -0.1647  0.3048  0.2061
 3387W        W 7587   5.487   2.103   4.201  0.3169  0.1105 -0.1272
 3388W        W 7588   8.211   4.266   0.998 -0.2181  0.1127  0.1716
 3389W        W 7589   4.494   3.361  11.863  0.0648 -0.1792  0.0172
 3390W        W 7590  10.401   1.104  12.790 -0.1228  0.2275  0.3318
 3391W        W 7591   1.860   6.680  12.703 -0.0303  0.2781 -0.2507
 3392W        W 7592   6.879   7.743   3.165 -0.3787  0.1379 -0.0408
 3393W        W 7593   3.753   6.238   7.952  0.1629  0.0110  0.0443
 3394W        W 7594   2.811   5.267   1.476  0.0942 -0.0224 -0.3097
 3395W        W 7595   3.435   9.413   0.698  0.0178  0.0700  0.1271
 3396W        W 7596   1.266   0.739   9.028  0.1879 -0.1784  0.1512
 3397W        W 7597   8.382   5.678   0.063  0.1052  0.0876 -0.0470
 3398W        W 7598   8.976   8.199   3.434 -0.1741 -0.3227 -0.3164
 3399W        W 7599   7.055   7.679  12.551  0.1372  0.0784 -0.1970
 3400W        W 7600   8.787   7.950   7.294  0.3978  0.2471  0.1418
 3401W        W 7601   8.859  10.350   9.129 -0.1214 -0.3382  0.1552
 3402W        W 7602   0.719   2.525   0.777  0.2715 -0.3415 -0.2183
 3403W        W 7603   1.537   4.805   3.213 -0.0553 -0.0984  0.0369
 3404W        W 7604   6.717   4.268   8.836  0.1643  0.2268  0.0853
 3405W        W 7605   0.074   4.706   3.901  0.2364 -0.2515  0.2611
 3406W        W 7606   1.975   8.837   1.158 -0.1027  0.3543 -0.1323
 3407W        W 7607   8.414   7.986   2.212  0.1934  0.1236  0.0691
 3408W        W 7608   1.122   1.217  11.431 -0.0219  0.2041  0.1087
 3409W        W 7609   1.624  10.555   3.359  0.3121 -0.5191  0.1387
 3410W        W 7610  10.271   8.539   8.012  0.2222  0.0560 -0.0350
 3411W        W 7611   8.371   7.316   3.319 -0.2678  0.2976 -0.1607
 3412W        W 7612   1.236  10.281   0.247 -0.3417 -0.3255 -0.0649
 3413W        W 7613   5.778   9.448  11.392 -0.2298 -0.2318 -0.2670
 3414W        W 7614   1.731   0.062  10.095 -0.0311 -0.1751 -0.0991
 3415W        W 7615   9.703   6.347   1.770 -0.2794 -0.0289  0.0100
 3416W        W 7616   6.823   7.812   8.618 -0.1749  0.0608 -0.2238
 3417W        W 7617   4.120   7.945  10.988 -0.1452  0.0783 -0.3101
 3418W        W 7618   8.029   8.003   9.062  0.2318 -0.3974 -0.0609
 3419W        W 7619   9.998   0.835   9.805 -0.2001  0.1220 -0.1087
 3420W        W 7620  10.149   9.573  12.394 -0.0788 -0.2891 -0.0184
 3421W        W 7621  10.408   4.880   1.226  0.1137 -0.2174  0.1516
 3422W        W 7622   5.407   2.438   2.900  0.2970 -0.0143  0.1696
 3423W        W 7623   2.604   4.828   9.843 -0.0238  0.1746 -0.1975
 3424W        W 7624   2.084   9.896   8.888 -0.3251  0.1039 -0.1259
 3425W        W 7625  10.463   4.188   3.556 -0.3118  0.1145  0.1508
 3426W        W 7626   7.933   6.496   9.867  0.1755  0.0257  0.0047
 3427W        W 7627   8.292   7.189   8.197  0.0814  0.0999 -0.3299
 3428W        W 7628   2.026   5.411   2.648  0.0697  0.3724  0.1439
 3429W        W 7629   2.246   3.425  11.128 -0.2354  0.0282 -0.0218
 3430W        W 7630   3.511  10.694   9.935 -0.1498 -0.1018 -0.0243
 3431W        W 7631   7.108   6.394  10.261  0.0620  0.0453 -0.3252
 3432W        W 7632   9.600   0.989   2.690  0.0755  0.0553 -0.0870
 3433W        W 7633   7.680   5.616   3.814  0.1057  0.2551  0.0922
 3434W        W 7634   6.585   8.248  10.193  0.2264 -0.0649 -0.1160
 3435W        W 7635   5.385   0.119  11.530  0.1841 -0.2541  0.0871
 3436W        W 7636   9.704   6.914  12.702 -0.0368  0.0482  0.1721
 3437W        W 7637   5.632   1.360   9.664  0.0307  0.2106 -0.0280
 3438W        W 7638   3.279   3.521  12.575  0.1594  0.0767  0.0779
 3439W        W 7639   3.567   7.738   2.654  0.2173 -0.0343  0.2458
 3440W        W 7640   1.321   4.385  12.694 -0.0499 -0.0019 -0.1808
 3441W        W 7641   5.091   2.739   2.647 -0.1133  0.1619 -0.1287
 3442W        W 7642  10.285   0.079  12.115 -0.3494 -0.0907  0.2249
 3443W        W 7643   4.873   6.961  12.267 -0.0432  0.1210  0.0686
 3444W        W 7644   1.901   4.911   3.572  0.1237  0.0590  0.3527
 3445W        W 7645   8.916   1.632   9.921  0.1177 -0.0167 -0.2670
 3446W        W 7646   6.647   1.275   3.482 -0.0144 -0.0359 -0.0395
 3447W        W 7647   6.932   6.186  11.143  0.2348 -0.1234  0.2018
 3448W        W 7648   0.699   8.354  12.149  0.3059 -0.0801 -0.1218
 3449W        W 7649   9.344   1.438   9.423 -0.0660  0.0246 -0.1918
 3450W        W 7650   0.243   4.383  11.488  0.0421  0.4361  0.2311
 3451W        W 7651   2.953   2.330   1.281  0.1100 -0.0313 -0.2627
 3452W        W 7652   8.439   8.447   9.998 -0.3134  0.1739 -0.1674
 3453W        W 7653   7.117   5.816   3.892 -0.2822 -0.1875 -0.0802
 3454W        W 7654   4.938   7.829   8.500 -0.3579  0.1881 -0.0077
 3455W        W 7655   2.707   7.120   8.496 -0.1351 -0.4307 -0.0462
 3456W        W 7656   2.407   5.788   8.475 -0.5303 -0.1967 -0.1079
 3457W        W 7657   1.160   9.561   8.656 -0.2366 -0.3313  0.2113
 3458W        W 7658   5.703   3.113   1.271  0.1661  0.0634  0.0879
 3459W        W 7659   6.671  10.204   3.680 -0.0621  0.1563  0.0035
 3460W        W 7660   6.943   5.449   9.796 -0.1415 -0.1822 -0.2502
 3461W        W 7661   6.788   0.292   2.434  0.1260 -0.0847  0.0958
 3462W        W 7662   1.539   1.888   2.284  0.1480 -0.1544  0.3447
 3463W        W 7663   1.018   4.450   0.289 -0.0952 -0.3302  0.4275
 3464W        W 7664   1.657   9.560  10.873  0.3524 -0.0780  0.0261
 3465W        W 7665  10.236  10.534   3.476  0.1078  0.1147 -0.1920
 3466W        W 7666   8.959   9.829   3.409  0.0997 -0.3421 -0.3986
 3467W        W 7667   6.964   2.091   4.319 -0.2858 -0.1446 -0.0445
 3468W        W 7668   2.312   1.965  12.616  0.1149 -0.1281  0.0589
 3469W        W 7669  10.011   7.754   4.210  0.1508  0.0443  0.1814
 3470W        W 7670   6.075   3.756  11.180 -0.1075  0.1623  0.1752
 3471W        W 7671   7.151   6.307   0.780  0.0201 -0.0664 -0.1827
 3472W        W 7672   5.466   1.733   3.546  0.2535  0.2160  0.3750
 3473W        W 7673   6.967   4.841   1.090 -0.3354  0.0271 -0.2653
 3474W        W 7674   6.472   7.910  11.259  0.1063  0.0473 -0.0693
 3475W        W 7675   4.999   3.961  11.443 -0.1865  0.0472  0.0343
 3476W        W 7676   1.303   8.976   2.509  0.0365 -0.0295  0.3244
 3477W        W 7677   8.295   8.500   0.086 -0.0191  0.0092 -0.0247
 3478W        W 7678   0.265   1.576   1.025 -0.2679 -0.2006  0.0415
 3479W        W 7679   4.577   1.027   8.435 -0.1339  0.0204  0.0206
 3480W        W 7680   9.438   2.246   3.370 -0.2054  0.3065  0.0108
 3481W        W 7681   2.317   2.207  11.254  0.1748 -0.0010 -0.0924
 3482W        W 7682   2.006  10.353   2.145  0.0465 -0.2178  0.3195
 3483W        W 7683   7.431   5.237  10.927 -0.2691 -0.0665  0.2255
 3484W        W 7684   8.539   4.607  11.770  0.3001 -0.1138 -0.1309
 3485W        W 7685   5.458   0.592   2.615 -0.1330  0.1990 -0.0039
 3486W        W 7686   1.665   4.249   0.829 -0.0263  0.2850  0.1891
 3487W        W 7687   4.771   5.835  11.887  0.0991  0.0153 -0.0033
 3488W        W 7688   4.808   8.299   2.079 -0.0623 -0.0247  0.3247
 3489W        W 7689   1.850   2.912  10.554  0.1086  0.0824  0.0272
 3490W        W 7690   6.209   1.329  12.380 -0.2270 -0.1715 -0.0324
 3491W        W 7691   5.673   5.866   0.637 -0.1047 -0.1711 -0.0460
 3492W        W 7692   4.461   6.020   1.931 -0.3196  0.0012 -0.0909
 3493W        W 7693   3.960   9.759  10.937 -0.0392 -0.0462  0.0313
 3494W        W 7694   9.354   6.752   1.808  0.2021 -0.0286  0.1733
 3495W        W 7695   0.298   3.421   9.992 -0.1438 -0.2159 -0.0784
 3496W        W 7696  10.358   8.934   1.370 -0.2828 -0.3768  0.2183
 3497W        W 7697   2.341   7.129   2.346 -0.0398 -0.2057 -0.3110
 3498W        W 7698   8.618   8.866   4.172 -0.1254 -0.2196  0.1813
 3499W        W 7699   7.080   0.440  10.087 -0.2515 -0.0154 -0.4315
 3500W        W 7700   7.571   0.855   0.085 -0.0424 -0.2411  0.0884
 3501W        W 7701   3.656   8.486  10.348  0.0896  0.0572 -0.1912
 3502W        W 7702   3.486   3.804   1.133  0.1535  0.0812  0.3560
 3503W        W 7703   6.224   8.029   2.084 -0.0014 -0.2087  0.0399
 3504W        W 7704   0.071   9.237   8.610 -0.0512  0.2521 -0.4333
 3505W        W 7705   7.752   1.879   1.268 -0.0191  0.3517  0.0128
 3506W        W 7706   4.075   6.926   2.824 -0.1100  0.2369 -0.1310
 3507W        W 7707   4.704   8.496  10.903 -0.3148 -0.3394  0.0093
 3508W        W 7708   2.994   8.439   9.607  0.2139 -0.4167 -0.1322
 3509W        W 7709   6.858   3.048  10.453  0.0663  0.2364 -0.0036
 3510W        W 7710   3.238   2.256   9.781 -0.2588 -0.1572 -0.2871
 3511W        W 7711   3.466   2.826   1.340  0.0297 -0.0016 -0.0773
 3512W        W 7712   3.755   8.388   0.413 -0.3108 -0.3104 -0.2693
 3513W        W 7713   3.431   2.324   1.483  0.2604  0.2550  0.1730
 3514W        W 7714   2.363   6.319   1.562  0.0574  0.1762  0.3504
 3515W        W 7715   1.603   1.703   1.079 -0.2738 -0.1626 -0.2994
 3516W        W 7716  10.237   1.171   0.502  0.0110 -0.0547  0.1361
 3517W        W 7717   1.322   4.752  11.408  0.2359  0.3948 -0.0121
 3518W        W 7718   1.680   4.789  11.850 -0.1223 -0.0023 -0.0813
 3519W        W 7719   9.092   7.664   0.985  0.0436 -0.1209  0.0715
 3520W        W 7720   7.000   4.467   9.334 -0.0026  0.2068 -0.2273
 3521W        W 7721   9.495   2.860   0.751  0.0816 -0.1356  0.0195
 3522W        W 7722   7.579   0.964   9.657 -0.1484 -0.3351  0.0861
 3523W        W 7723  10.535   6.768   2.341 -0.1550 -0.0441  0.2599
 3524W        W 7724   6.422   0.209   2.005 -0.1506 -0.2223  0.1894
 3525W        W 7725   7.718   6.223   8.319  0.1948 -0.0866  0.0107
 3526W        W 7726   2.207   9.983   2.585 -0.1850  0.6579  0.1441
 3527W        W 7727   6.875   5.244   8.686  0.2663 -0.1121 -0.2776
 3528W        W 7728   4.629   9.911   9.939  0.1120 -0.2945 -0.0010
 3529W        W 7729   2.492   1.380  12.759 -0.5038  0.1025 -0.0589
 3530W        W 7730   8.531   3.276  10.348 -0.1883  0.1597  0.0720
 3531W        W 7731   6.560   7.247  10.016  0.0826 -0.0855 -0.3984
 3532W        W 7732   4.572   0.527   2.334  0.2386  0.1640  0.4289
 3533W        W 7733   4.199   0.237   3.301 -0.1108  0.2445  0.0778
 3534W        W 7734   4.708   2.251   3.288  0.0745 -0.1063  0.1597
 3535W        W 7735   8.380   8.658   2.837 -0.2957 -0.1174  0.2200
 3536W        W 7736   8.122   1.165   2.732  0.2423  0.0824 -0.2497
 3537W        W 7737   9.307   7.448   2.097  0.1891 -0.1418 -0.1892
 3538W        W 7738   3.528   2.825   9.769 -0.3023 -0.0117 -0.0800
 3539W        W 7739   8.485   5.160  11.543  0.0179 -0.0794 -0.2859
 3540W        W 7740   3.662   9.134   1.537  0.4320  0.0052  0.3973
 3541W        W 7741   5.488   1.569   2.482  0.0382  0.2807  0.1037
 3542W        W 7742   6.520   1.729  12.600 -0.0849  0.2684  0.4143
 3543W        W 7743   3.809   2.050  10.932 -0.0629  0.0600 -0.0811
 3544W        W 7744   1.843   3.095   8.109 -0.0635 -0.1016  0.2814
 3545W        W 7745   2.542   2.649  11.666  0.0958  0.1856  0.1248
 3546W        W 7746  10.158   9.252   3.159 -0.1308 -0.0733 -0.1708
 3547W        W 7747   1.218   1.868   8.248  0.3232 -0.2595 -0.2041
 3548W        W 7748   3.884   5.220   1.818 -0.0522  0.0586  0.1776
 3549W        W 7749   1.094   9.085  11.867 -0.0307  0.2480  0.0031
 3550W        W 7750   3.519   1.988   2.526  0.1982  0.1402 -0.1071
 3551W        W 7751   7.289   0.442   9.609 -0.2562 -0.0303  0.0855
 3552W        W 7752   7.934   4.635   1.216  0.1360 -0.3317  0.2023
 3553W        W 7753   2.673   4.072  10.504  0.0941 -0.1218  0.4843
 3554W        W 7754   9.759   0.392   8.514  0.0727  0.0532 -0.0822
 3555W        W 7755   3.683  10.670   8.660  0.0271 -0.0919  0.0852
 3556W        W 7756   1.089   3.173  12.736  0.0959  0.0186 -0.1077
 3557W        W 7757   6.676  10.477   1.834  0.1794  0.0169 -0.0698
 3558W        W 7758   5.158   2.281  11.782 -0.4287  0.0159  0.0071
 3559W        W 7759   6.402   0.950  12.158  0.3518 -0.1066 -0.0440
 3560W        W 7760   9.523   9.664   9.079 -0.0715 -0.1158  0.0326
 3561W        W 7761   8.857   7.677  12.006  0.1301 -0.2494 -0.0710
 3562W        W 7762   1.060   8.211   9.906 -0.0881  0.0845 -0.0045
 3563W        W 7763   9.500   7.681   9.189  0.1243 -0.0514 -0.2101
 3564W        W 7764  10.033   3.793   1.855  0.0867 -0.1281  0.1042
 3565W        W 7765   0.339   7.110   9.334 -0.2010  0.0831 -0.0252
 3566W        W 7766   1.703   8.969   0.197 -0.1526 -0.1893  0.1646
 3567W        W 7767  10.665  10.210   8.498  0.1824  0.2123 -0.0592
 3568W        W 7768   0.147   3.406   3.265  0.2247 -0.1285  0.1131
 3569W        W 7769   6.676   2.746  12.188 -0.4422  0.0252  0.0959
 3570W        W 7770   3.519   2.299   2.089 -0.1907 -0.0794 -0.3196
 3571W        W 7771   2.822   8.652  12.185 -0.0482  0.0497  0.0415
 3572W        W 7772   8.167   2.927   9.647  0.0991 -0.0891 -0.0288
 3573W        W 7773   6.560   5.402  12.090  0.2804  0.2414  0.4261
 3574W        W 7774   1.219   8.772   0.251 -0.0415 -0.0740  0.0507
 3575W        W 7775   3.572   6.151   8.933 -0.0014  0.1455 -0.2635
 3576W        W 7776   6.905   1.607   2.105 -0.1536  0.0382 -0.0752
 3577W        W 7777   0.834   9.476  12.000  0.0263 -0.0138 -0.2564
 3578W        W 7778   9.584  10.255  11.492 -0.0444 -0.3502  0.0601
 3579W        W 7779   0.313  10.169   0.546  0.1770  0.2006  0.0123
 3580W        W 7780   3.235   0.753  10.469 -0.0163  0.2800 -0.0186
 3581W        W 7781   6.237   2.907   3.588  0.0127  0.1722  0.0483
 3582W        W 7782  10.537   7.276  12.687 -0.1513 -0.1183 -0.1155
 3583W        W 7783   1.015   7.219   9.729  0.1527 -0.3588  0.3299
 3584W        W 7784   5.767   4.775   3.059  0.0110  0.1166  0.1047
 3585W        W 7785   6.500   2.311  11.909 -0.1726  0.0463 -0.0485
 3586W        W 7786   5.277   3.560   9.703 -0.0316  0.2213  0.1809
 3587W        W 7787   7.643   6.834  11.155  0.0413 -0.1720  0.0275
 3588W        W 7788   4.114   2.978  11.403 -0.1968  0.0587  0.3192
 3589W        W 7789   3.542   8.198  11.461 -0.0403 -0.2069  0.0318
 3590W        W 7790   4.713   8.686  11.950  0.0176 -0.1728  0.0947
 3591W        W 7791   1.883   3.999   8.246 -0.0087 -0.2556  0.0245
 3592W        W 7792   0.938   3.230   9.224  0.0327  0.0351 -0.0255
 3593W        W 7793   7.486   5.400   8.851 -0.0378  0.1923 -0.2327
 3594W        W 7794   7.781   4.802   1.669 -0.2767 -0.3569 -0.3468
 3595W        W 7795   7.888  10.523   8.407 -0.0230 -0.0366 -0.0898
 3596W        W 7796   0.245   7.126  11.218 -0.2516  0.1824 -0.0962
 3597W        W 7797   4.244   8.092  12.402 -0.1577 -0.1395  0.1651
 3598W        W 7798   9.470   9.362   3.083  0.2012 -0.0024 -0.2251
 3599W        W 7799   3.682   9.004   9.272  0.1405 -0.1667  0.3721
 3600W        W 7800   3.663   8.853   0.522 -0.3103 -0.1647 -0.0530
 3601W        W 7801   5.386   4.805   5.307 -0.1430 -0.2358 -0.1325
 3602W        W 7802   3.836   9.378  10.006  0.0935 -0.2045  0.1303
 3603W        W 7803   3.522   8.522  12.471  0.2185  0.0380 -0.1677
 3604W        W 7804   3.408   9.311  12.267  0.0906  0.1838  0.2405
 3605W        W 7805  10.577   7.917   9.709  0.0823 -0.0179  0.2112
 3606W        W 7806   6.049   2.704   0.700  0.0015 -0.1444  0.0560
 3607W        W 7807   4.515   7.727   2.612  0.2087 -0.1983 -0.1498
 3608W        W 7808   5.726   7.358  11.666  0.2243 -0.0722  0.2523
 3609W        W 7809   2.234   3.214   0.577  0.0141 -0.2825  0.1810
 3610W        W 7810   6.632  10.674   2.822 -0.2888  0.2496  0.0012
 3611W        W 7811   0.234   4.081  10.358  0.0271 -0.1553 -0.0658
 3612W        W 7812   6.053   0.341   0.485  0.2830 -0.2310 -0.0134
 3613W        W 7813   3.660   8.985   8.749  0.0121 -0.0308  0.0192
 3614W        W 7814   4.622   9.287  11.930  0.0432 -0.1496 -0.4509
 3615W        W 7815   6.036   5.395   9.308  0.0257 -0.0385 -0.0152
 3616W        W 7816   9.548   9.188   1.237 -0.2447 -0.0191  0.0075
 3617W        W 7817   2.508   7.894  10.694 -0.0728 -0.0697  0.0575
 3618W        W 7818   6.558   7.468  10.970 -0.1019  0.0980 -0.0653
 3619W        W 7819  10.685  10.305   0.120  0.2710  0.1447  0.1721
 3620W        W 7820   2.889  10.045   1.199 -0.1649  0.2100  0.0889
 3621W        W 7821   9.067   6.884   8.593 -0.0479 -0.3443 -0.0982
 3622W        W 7822   2.311   0.910   0.807 -0.4031 -0.0434  0.0359
 3623W        W 7823   0.456   2.524   1.206  0.1432 -0.1490 -0.0232
 3624W        W 7824   1.101   3.455   2.453  0.1400  0.2866  0.2381
 3625W        W 7825   3.548   1.451   0.662 -0.0063 -0.3295 -0.0913
 3626W        W 7826   4.551   7.629   3.320  0.1279 -0.1572 -0.3045
 3627W        W 7827   5.543   2.594  11.949  0.3991  0.1123  0.0231
 3628W        W 7828   1.809  10.334   8.733 -0.4423  0.1095  0.0459
 3629W        W 7829   2.875   3.294   4.092  0.4192  0.1932  0.0304
 3630W        W 7830   7.296   1.460  11.840  0.1417  0.1258  0.0644
 3631W        W 7831   2.552   3.541  10.239  0.0446 -0.1561 -0.0825
 3632W        W 7832   1.940   0.958  10.281 -0.0881  0.2171  0.0966
 3633W        W 7833   9.062   6.909  11.102 -0.1357  0.1789  0.2528
 3634W        W 7834   3.828  10.687   3.034 -0.1104 -0.0036 -0.1424
 3635W        W 7835   9.102   6.265  10.393  0.1904  0.1248 -0.0894
 3636W        W 7836   9.356   8.343   0.131  0.1524 -0.0814 -0.3658
 3637W        W 7837   9.286   6.012   2.446 -0.0519 -0.3219 -0.1983
 3638W        W 7838   7.778   5.093   9.187  0.0763  0.0424  0.1559
 3639W        W 7839   6.154   4.199   0.256  0.1105 -0.1308  0.3059
 3640W        W 7840  10.454   7.734   0.154  0.3059  0.4242 -0.1879
 3641W        W 7841   6.978   5.379   2.010  0.2025 -0.3124  0.0426
 3642W        W 7842   5.557   0.479   0.631 -0.5236  0.0440  0.0507
 3643W        W 7843   9.047   8.425   9.365 -0.1073  0.0548  0.0872
 3644W        W 7844   6.212   7.432   1.923  0.0410  0.3396  0.1411
 3645W        W 7845   1.956   2.948   2.724 -0.1611 -0.1192  0.0382
 3646W        W 7846   5.178   3.368   1.909  0.2757 -0.0781 -0.1131
 3647W        W 7847   9.037   7.939   0.328 -0.3805  0.1277  0.1456
 3648W        W 7848   4.768   0.610   3.758 -0.1052  0.1492 -0.2103
 3649W        W 7849   9.753   1.277  10.079 -0.3066 -0.1203  0.5849
 3650W        W 7850   9.280   7.837  11.118 -0.3315 -0.4070  0.1567
 3651W        W 7851   6.936   2.734   1.339 -0.1832  0.2168 -0.0216
 3652W        W 7852   8.713   8.806   0.168  0.0786  0.0079  0.1277
 3653W        W 7853   8.450   1.844  11.652  0.0885 -0.0200 -0.0632
 3654W        W 7854   7.647   4.279  11.560  0.1056 -0.4258  0.2223
 3655W        W 7855   9.070   0.922  11.575  0.0105 -0.1542  0.1040
 3656W        W 7856   1.641   2.891   9.193  0.1188 -0.2386 -0.1570
 3657W        W 7857   3.743   2.563  11.277  0.1903  0.3499  0.0650
 3658W        W 7858   9.057   4.620   0.825 -0.0602  0.1559  0.1291
 3659W        W 7859   8.199  10.422  12.577 -0.2575 -0.3385 -0.0257
 3660W        W 7860   3.171   1.956   3.759 -0.0005  0.2075 -0.0394
 3661W        W 7861   8.537   0.949   4.011 -0.0544 -0.0571 -0.3299
 3662W        W 7862   5.444   0.081   2.395  0.0094 -0.3958 -0.0289
 3663W        W 7863   1.915   3.923   2.362 -0.2073  0.1713 -0.1040
 3664W        W 7864   5.645   1.270   3.179  0.0964 -0.1213 -0.0751
 3665W        W 7865   2.863   2.218  10.881 -0.1214 -0.2382 -0.2984
 3666W        W 7866   7.453   2.682   2.852 -0.1729 -0.1519 -0.1942
 3667W        W 7867   3.852   8.600  11.448  0.0350  0.3759  0.1515
 3668W        W 7868   3.710   6.140   8.446  0.1053  0.0523  0.1186
 3669W        W 7869   5.900   5.310   1.418 -0.0712 -0.2412  0.0315
 3670W        W 7870   7.302   7.498  12.134  0.3366  0.2046  0.4002
 3671W        W 7871   6.501   0.666   1.690  0.0203  0.0353  0.5812
 3672W        W 7872   3.439   8.690   1.203  0.1777 -0.1596 -0.0903
 3673W        W 7873   7.863   3.186  11.193 -0.1843 -0.1744  0.3283
 3674W        W 7874   7.565   5.070  10.466 -0.0116  0.0361  0.1371
 3675W        W 7875   3.051   9.898   3.552 -0.0305 -0.1558 -0.0690
 3676W        W 7876   1.390   2.886  12.503 -0.2961  0.0478  0.0858
 3677W        W 7877   7.607  10.530  11.614  0.2731  0.1892 -0.0158
 3678W        W 7878   6.914  10.344   0.990  0.0796  0.2580 -0.0020
 3679W        W 7879   6.926   9.917  12.539 -0.3251 -0.1755 -0.2057
 3680W        W 7880   4.271   9.555   2.654  0.2615 -0.0111  0.3089
 3681W        W 7881   7.419   3.731   9.576  0.2362  0.1894  0.1140
 3682W        W 7882   9.809  10.227   3.245 -0.2004 -0.1200  0.0995
 3683W        W 7883   7.111   5.817   8.908 -0.0045 -0.0810  0.2318
 3684W        W 7884   8.475   1.414   0.045 -0.0955 -0.2338 -0.2136
 3685W        W 7885   6.486   8.316  11.661  0.2428 -0.2100 -0.2068
 3686W        W 7886   0.824   0.682  12.337 -0.0111 -0.1144 -0.1621
 3687W        W 7887   3.873   4.624  11.926 -0.2492 -0.0138  0.0025
 3688W        W 7888   0.484   7.818   8.625 -0.1385  0.2427  0.2449
 3689W        W 7889   1.392   6.313   1.395 -0.2451 -0.0381 -0.0233
 3690W        W 7890   1.520   1.470  11.496 -0.1923  0.0821 -0.0019
 3691W        W 7891   3.029   1.724  10.588  0.2831  0.1222 -0.1351
 3692W        W 7892   0.981   8.782  10.659 -0.0369  0.2895 -0.0507
 3693W        W 7893   6.467   8.023   3.320 -0.1699 -0.0705 -0.0293
 3694W        W 7894   5.687   6.206   3.665 -0.0577  0.1519 -0.0560
 3695W        W 7895   6.038   2.677   3.139  0.4182 -0.1405 -0.0605
 3696W        W 7896   1.094   2.561  12.753 -0.2096 -0.2214  0.3016
 3697W        W 7897   4.020   8.960   8.365  0.1520 -0.1386  0.0332
 3698W        W 7898  10.126   5.598   1.951 -0.0422  0.0450  0.2596
 3699W        W 7899   2.994   6.783   3.095 -0.1319 -0.1783 -0.0205
 3700W        W 7900   1.126   5.611  12.592  0.0340  0.2812 -0.0514
 3701W        W 7901   6.604   3.294   2.201  0.0647  0.3185 -0.1166
 3702W        W 7902  10.632   5.818   0.710 -0.0194  0.0630  0.0867
 3703W        W 7903   2.336   0.320   8.973  0.0146 -0.0051  0.0752
 3704W        W 7904   9.830   6.778  12.224  0.0390  0.1022 -0.0988
 3705W        W 7905   0.567   6.248   0.329  0.2952 -0.3901  0.1554
 3706W        W 7906   2.482   5.626   7.590  0.0707 -0.1146 -0.2172
 3707W        W 7907   6.722   7.018   4.289 -0.1759 -0.0861 -0.0521
 3708W        W 7908   2.615  10.070  11.714  0.0389  0.0450  0.0160
 3709W        W 7909   5.185  10.135  12.806 -0.1439  0.2229 -0.2883
 3710W        W 7910   0.974   1.333   1.165  0.4389  0.1103  0.1801
 3711W        W 7911   0.588   4.301   3.297  0.0335 -0.0433  0.1939
 3712W        W 7912   3.822   5.463   2.403  0.3212  0.5441  0.2619
 3713W        W 7913   3.265   6.225   3.575 -0.3398  0.0352  0.1536
 3714W        W 7914   4.499   3.877   4.014  0.0759  0.1593  0.1209
 3715W        W 7915   6.450  10.254   0.267  0.3128 -0.0467  0.2925
 3716W        W 7916  10.462   6.650   4.313 -0.0265  0.0172 -0.1101
 3717W        W 7917   0.828   7.227   3.128 -0.0357  0.0036  0.0544
 3718W        W 7918   0.060   0.046  12.796 -0.1383  0.0874 -0.1453
 3719W        W 7919   9.281   0.888   8.697 -0.0668 -0.1674  0.1563
 3720W        W 7920  10.005  10.707  11.226 -0.2622  0.1954 -0.2886
 3721W        W 7921   4.790   4.758   3.404 -0.0629  0.1569 -0.0887
 3722W        W 7922   9.885   6.816   8.710 -0.1377  0.0265  0.1385
 3723W        W 7923   1.218   0.377   9.303 -0.1624 -0.0329 -0.3291
 3724W        W 7924   5.726   3.945   2.620  0.2456 -0.0784 -0.1375
 3725W        W 7925   5.161   8.018   9.776 -0.0705 -0.0841 -0.3592
 3726W        W 7926   2.580   8.130  10.121  0.0514  0.2633  0.0514
 3727W        W 7927   1.734   0.007   1.943 -0.0477  0.4355 -0.1819
 3728W        W 7928   5.060   3.308   9.266  0.1779  0.2370  0.2161
 3729W        W 7929   6.165   3.989  12.240 -0.2887 -0.1913  0.2083
 3730W        W 7930   9.419   9.873   3.142  0.1615  0.1361  0.0247
 3731W        W 7931   6.782   0.350  11.934 -0.0329  0.1083  0.3838
 3732W        W 7932   0.333   2.802  11.324 -0.0598 -0.3633 -0.1241
 3733W        W 7933   4.256  10.509   1.210  0.0358  0.1773 -0.3032
 3734W        W 7934   1.831   4.850   4.587  0.1291 -0.1951  0.0132
 3735W        W 7935   3.667   5.508   0.937 -0.0003  0.0979 -0.0802
 3736W        W 7936   7.201   4.279   0.162  0.2532 -0.0277 -0.1262
 3737W        W 7937   8.049   2.495   0.675 -0.3687 -0.2280 -0.0852
 3738W        W 7938   3.658   8.573   9.462  0.2937 -0.1255  0.4989
 3739W        W 7939   8.439   1.239   1.146  0.1146  0.1146 -0.2008
 3740W        W 7940   5.325   7.790  12.543 -0.1168  0.1787 -0.1124
 3741W        W 7941   4.526   9.147   2.843  0.0981  0.2799 -0.1044
 3742W        W 7942   9.161   1.859   9.594 -0.0853  0.0511 -0.0503
 3743W        W 7943   6.604   1.104   1.338  0.3698  0.0169  0.0047
 3744W        W 7944   9.157   5.752   3.409 -0.3712 -0.1197  0.1476
 3745W        W 7945   4.761   9.723   2.775  0.0578  0.5412  0.0414
 3746W        W 7946   6.238   5.961  10.091 -0.0795 -0.2876 -0.1199
 3747W        W 7947   1.541   7.877   0.937  0.0046  0.0698 -0.0915
 3748W        W 7948   6.187   6.681   3.720  0.4344 -0.1400  0.2293
 3749W        W 7949   2.956   6.180  12.373 -0.1673 -0.0081  0.0852
 3750W        W 7950   9.285  10.585  11.799 -0.1163 -0.3453 -0.2162
 3751W        W 7951   1.912  10.038   1.275 -0.0389  0.1101  0.0695
 3752W        W 7952   9.896   2.979   8.863  0.1937  0.3409  0.1416
 3753W        W 7953   2.457   5.239  12.000  0.2576 -0.1493  0.0497
 3754W        W 7954   0.712   4.630   8.955  0.1029  0.3021  0.0981
 3755W        W 7955   1.439  10.445   9.630  0.2062  0.0919 -0.1281
 3756W        W 7956   8.875   8.416  10.927 -0.3284  0.3835  0.2160
 3757W        W 7957  10.607  10.033  10.411 -0.3542 -0.0029  0.0774
 3758W        W 7958   5.544   9.544   3.761  0.0876 -0.2318 -0.0086
 3759W        W 7959   5.603   1.182  12.446  0.1407 -0.2164  0.1907
 3760W        W 7960   0.941   7.586  10.883  0.0017 -0.2920 -0.2018
 3761W        W 7961   5.436   6.830   0.641  0.3530  0.0419 -0.4552
 3762W        W 7962   4.451   9.409   0.981 -0.1217  0.1108  0.1332
 3763W        W 7963   3.009   6.078   0.863  0.2502 -0.1638  0.0024
 3764W        W 7964   5.813   2.194   1.613  0.2593 -0.1940 -0.0067
 3765W        W 7965   6.386   7.915   3.948  0.1580  0.1670 -0.0469
 3766W        W 7966   1.124  10.415   8.925 -0.2514  0.1580  0.1715
 3767W        W 7967   6.274   1.371   0.077  0.0818 -0.2726 -0.0584
 3768W        W 7968   9.976   4.480   8.256 -0.0348 -0.0694  0.1966
 3769W        W 7969   2.914  10.194   0.571  0.0864 -0.1702  0.0334
 3770W        W 7970   0.263   8.042   8.133 -0.2136  0.3293 -0.0443
 3771W        W 7971   5.631   9.740   2.764 -0.1936 -0.1967 -0.0048
 3772W        W 7972   0.295   1.074  10.614 -0.2041 -0.1370 -0.2191
 3773W        W 7973   3.357   5.762   8.705 -0.0556 -0.1592 -0.2741
 3774W        W 7974   9.874   5.982   8.084  0.0502  0.2889  0.0173
 3775W        W 7975   2.255   9.259   9.473 -0.0639  0.1419  0.1102
 3776W        W 7976   7.565   5.429  11.325  0.3137 -0.2215  0.0347
 3777W        W 7977   0.432   8.784   9.523 -0.0452  0.0897  0.2468
 3778W        W 7978   4.180   0.262   2.484  0.1017 -0.1193 -0.0134
 3779W        W 7979   4.500   5.121   3.155 -0.1967  0.0365 -0.2141
 3780W        W 7980   8.235   8.462   2.332 -0.1599  0.1158 -0.1335
 3781W        W 7981   1.056   2.313  10.783 -0.1311 -0.1679 -0.0372
 3782W        W 7982   5.574   5.681   1.752 -0.0050  0.1875  0.0020
 3783W        W 7983   7.522   7.845  12.404  0.0988  0.0364 -0.0058
 3784W        W 7984   6.712   0.063  12.381 -0.1275  0.1320  0.1454
 3785W        W 7985   4.189   3.779  12.463 -0.2020  0.2557  0.1107
 3786W        W 7986   9.101   6.892  12.137  0.3086 -0.2987 -0.1358
 3787W        W 7987   5.609   2.349  11.406 -0.1610 -0.2692 -0.1178
 3788W        W 7988   1.818   6.267   7.852  0.1388 -0.0336  0.2133
 3789W        W 7989   1.488   1.500   1.975  0.0377 -0.0604  0.0374
 3790W        W 7990   0.518  10.208   4.257 -0.1048 -0.0560 -0.3892
 3791W        W 7991   9.614   5.306   8.871 -0.1526  0.1710 -0.2870
 3792W        W 7992   2.342   0.462  12.750 -0.0351 -0.4972  0.0772
 3793W        W 7993   3.647   3.997   9.751  0.0029  0.1500 -0.0162
 3794W        W 7994   0.282   4.714   2.436  0.2232  0.1399  0.2115
 3795W        W 7995   7.246   3.971   3.861  0.0700  0.2545  0.0005
 3796W        W 7996   4.471   0.476   4.147 -0.1452 -0.4668 -0.2690
 3797W        W 7997   1.746  10.211   2.558 -0.2786  0.0255 -0.1251
 3798W        W 7998   4.646   7.630   9.263  0.2779 -0.0222  0.3252
 3799W        W 7999  10.110   6.286  11.977 -0.0228 -0.0708  0.3832
 3800W        W 8000   5.407   8.841   0.741  0.1872 -0.2945 -0.0646
 3801W        W 8001   3.694   6.701   8.778  0.0422 -0.1190  0.0600
 3802W        W 8002   4.571   1.940  10.588  0.2598  0.3497 -0.1683
 3803W        W 8003   4.316   5.756   0.319  0.0645  0.2000 -0.1982
 3804W        W 8004   9.660   7.010   7.812 -0.0241 -0.0923  0.0706
 3805W        W 8005   5.139   5.522   3.923 -0.1920  0.2877 -0.0327
 3806W        W 8006   9.388   3.706  10.573  0.1898 -0.1742  0.1896
 3807W        W 8007   8.179   5.732   8.885  0.2650 -0.0187 -0.0690
 3808W        W 8008   2.811   5.300  10.617 -0.1248  0.0280  0.0041
 3809W        W 8009   0.306   9.359   1.169 -0.1686 -0.0116 -0.1308
 3810W        W 8010   2.296   8.550  12.109  0.1056 -0.0389 -0.0293
 3811W        W 8011   1.708   4.421   3.589  0.0365  0.2480 -0.0653
 3812W        W 8012   1.608   0.964  11.409 -0.0012  0.1059 -0.0099
 3813W        W 8013   5.712   8.005   1.457 -0.1774 -0.0660  0.3018
 3814W        W 8014   6.753   7.713  10.458  0.0311 -0.0318  0.2530
 3815W        W 8015   3.255   2.052   2.992 -0.0448  0.0414  0.1746
 3816W        W 8016   9.324   4.342   1.741 -0.1953  0.0113 -0.0485
 3817W        W 8017   7.235   0.976  10.016  0.0703  0.1789  0.1886
 3818W        W 8018   4.641   6.013   8.493 -0.0742 -0.2812 -0.3159
 3819W        W 8019   4.470   9.924  10.483 -0.2235 -0.0805  0.0622
 3820W        W 8020   7.833   7.961  12.022 -0.2160 -0.0949 -0.0053
 3821W        W 8021   7.420   4.136   9.300 -0.1204 -0.2062 -0.0955
 3822W        W 8022   2.950  10.280   3.212 -0.1448 -0.0840  0.1069
 3823W        W 8023   1.321   6.977  12.485  0.1121  0.3228 -0.1939
 3824W        W 8024  10.535   9.126  10.823  0.3886 -0.0917  0.0068
 3825W        W 8025   4.035   7.730   1.146  0.5040  0.1880 -0.1819
 3826W        W 8026   3.236  10.259   9.935  0.2379 -0.0875 -0.3203
 3827W        W 8027   3.386   3.454   7.889  0.0721  0.1543  0.0364
 3828W        W 8028   5.284   4.310   0.792 -0.2377  0.2731  0.2010
 3829W        W 8029   1.434   8.300   3.442 -0.1760  0.2047 -0.3622
 3830W        W 8030   5.296   3.845   8.469 -0.2745 -0.0231  0.2649
 3831W        W 8031   2.802   7.059  12.454  0.1268 -0.3423 -0.1688
 3832W        W 8032   9.758   2.389  11.745  0.1684  0.1579  0.0411
 3833W        W 8033   9.068   9.366   9.100  0.0228  0.1833  0.2027
 3834W        W 8034   3.284   3.505  12.002 -0.0982 -0.0498 -0.1365
 3835W        W 8035   5.273  10.035   3.562 -0.1567 -0.1571  0.0915
 3836W        W 8036   2.660   1.802   1.663  0.2633 -0.0621 -0.0103
 3837W        W 8037   2.515   4.636   9.318 -0.1048  0.0691  0.2354
 3838W        W 8038   0.580   5.172  11.326 -0.0904 -0.1737  0.3256
 3839W        W 8039   0.554   9.562   8.485 -0.5575  0.3002 -0.0275
 3840W        W 8040   6.514   5.000   3.369  0.1610 -0.0247  0.2284
 3841W        W 8041   8.016   9.932   4.047  0.1186 -0.1859  0.1895
 3842W        W 8042   2.899   7.647   3.631  0.3762 -0.0641  0.1850
 3843W        W 8043   2.127   9.654   1.508  0.2419  0.2248 -0.3408
 3844W        W 8044   9.469   8.977   2.703 -0.3251 -0.2939  0.2592
 3845W        W 8045   1.529   6.101   8.738  0.0873  0.2148 -0.0157
 3846W        W 8046   1.034   0.869   3.718 -0.1076  0.1055  0.0202
 3847W        W 8047   5.622   2.813  12.435 -0.1944 -0.0071  0.0497
 3848W        W 8048   9.153   6.057  12.730  0.1786  0.0665 -0.2546
 3849W        W 8049   5.837   6.736   4.066 -0.1421  0.0315  0.0349
 3850W        W 8050   5.571   6.291   9.377  0.0387 -0.1571 -0.0988
 3851W        W 8051   8.014   6.378   8.975  0.1076  0.0416 -0.2713
 3852W        W 8052  10.499   1.862   2.275 -0.1739  0.0861  0.1575
 3853W        W 8053   0.971   8.853   9.119  0.0325  0.1568 -0.1550
 3854W        W 8054   3.530   7.028  10.170 -0.1132  0.0569  0.1685
 3855W        W 8055   9.215   9.527   0.330 -0.0837 -0.1430  0.0948
 3856W        W 8056   2.299   8.872  10.772 -0.1927  0.2088  0.3863
 3857W        W 8057   7.925   3.279   4.578  0.1403  0.0673  0.1286
 3858W        W 8058   6.851   6.274  12.737 -0.2097  0.0145 -0.2696
 3859W        W 8059   3.736   5.550   2.870 -0.1909 -0.2194 -0.1089
 3860W        W 8060   3.079   6.123   0.052 -0.0043  0.2182 -0.0398
 3861W        W 8061   3.580   7.521  12.712 -0.0542  0.1561  0.1364
 3862W        W 8062   8.722   7.094  10.119  0.3887  0.0195  0.1722
 3863W        W 8063   9.488   3.950   8.570 -0.0556  0.2248 -0.2753
 3864W        W 8064   2.507   3.730   8.981  0.0093  0.1075  0.1457
 3865W        W 8065   3.551   9.611  10.624  0.0153 -0.1868  0.2129
 3866W        W 8066   0.762   6.836   1.533 -0.3640 -0.3092  0.2364
 3867W        W 8067   9.973   3.049  12.304 -0.0173  0.2866  0.0608
 3868W        W 8068   7.403   9.752   0.462  0.0362 -0.0908 -0.2813
 3869W        W 8069  10.605   0.484   9.947  0.0446 -0.1128 -0.2755
 3870W        W 8070   7.479   5.970  11.014 -0.1865  0.0038  0.2725
 3871W        W 8071   6.106   0.096  12.094  0.4264  0.1532 -0.2224
 3872W        W 8072  10.384   2.076   8.971 -0.1594 -0.3291 -0.3634
 3873W        W 8073   5.026   6.784   9.911  0.1263 -0.0034  0.1206
 3874W        W 8074   6.729   7.466   8.212  0.0451 -0.0823 -0.0614
 3875W        W 8075   8.317   5.431  11.955  0.0580  0.0637  0.0204
 3876W        W 8076   7.170   5.539   7.728 -0.2782 -0.1795 -0.0653
 3877W        W 8077   8.561   2.111   0.756  0.0057  0.1370  0.1741
 3878W        W 8078   0.233   8.117   9.510 -0.1584  0.2109  0.0285
 3879W        W 8079   5.318   9.819  12.049 -0.0768  0.1738  0.2041
 3880W        W 8080   5.251   3.823  12.789  0.1856 -0.0390  0.2400
 3881W        W 8081   8.930  10.160   1.361  0.0139 -0.0426 -0.1447
 3882W        W 8082   6.364   3.678  10.615  0.0723 -0.2068 -0.0069
 3883W        W 8083   4.100   9.819   9.757  0.1339 -0.0562  0.1835
 3884W        W 8084   9.286  10.018  11.816 -0.2627  0.0065 -0.0929
 3885W        W 8085   5.801   6.771   2.884 -0.0167 -0.3028  0.1016
 3886W        W 8086   3.991   6.123  10.184 -0.1779 -0.3102 -0.0672
 3887W        W 8087   9.394   8.252   2.060  0.2310 -0.0947  0.1152
 3888W        W 8088   2.556   7.657   8.127 -0.2330 -0.2594 -0.2880
 3889W        W 8089   3.811   1.556   2.540  0.0772  0.0801 -0.0858
 3890W        W 8090   7.479   0.417   3.063  0.0687  0.0774  0.2033
 3891W        W 8091   9.930   8.980   1.565 -0.1992 -0.2823 -0.0045
 3892W        W 8092   9.264   0.814  12.055  0.0011  0.4419  0.1113
 3893W        W 8093   1.479   5.460   1.920  0.1788 -0.1765 -0.2403
 3894W        W 8094   7.736   7.980   8.539 -0.0259  0.1771 -0.0128
 3895W        W 8095  10.387   6.047  12.614 -0.1464  0.3154 -0.0164
 3896W        W 8096  10.441   3.889   2.081 -0.2814  0.1546  0.2511
 3897W        W 8097   1.970   8.792  10.365 -0.0445  0.3517  0.4960
 3898W        W 8098   1.474  10.166   3.115  0.2693 -0.0107  0.0770
 3899W        W 8099  10.240   1.362   9.747  0.1249  0.0544  0.0377
 3900W        W 8100   4.509   3.234   1.816  0.0973  0.2264 -0.1287
 3901W        W 8101   0.231   5.233   0.311  0.3533  0.0669 -0.0282
 3902W        W 8102   2.069   8.396   1.426 -0.1853  0.1022  0.0961
 3903W        W 8103   1.856   1.843   8.762  0.0067 -0.1152  0.1690
 3904W        W 8104   8.403   8.009  12.087 -0.0586  0.0918 -0.2256
 3905W        W 8105   4.932   9.848  11.301 -0.2997  0.2533 -0.0900
 3906W        W 8106   2.443   0.552  11.035 -0.0960  0.2576 -0.1907
 3907W        W 8107   4.685   4.029  10.919 -0.0704 -0.3138  0.1143
 3908W        W 8108   7.037   9.485   9.517 -0.3524  0.0012 -0.3991
 3909W        W 8109   1.017   8.381  10.923  0.2245  0.1575 -0.1568
 3910W        W 8110   2.516   4.803  12.234 -0.3406 -0.0043  0.1815
 3911W        W 8111   2.866   2.065  12.760  0.5864 -0.2739 -0.1219
 3912W        W 8112   7.345   6.157   9.343  0.1763  0.1816  0.3041
 3913W        W 8113   7.276   8.239   9.655  0.1397 -0.2537 -0.1725
 3914W        W 8114   7.558   9.096   2.812 -0.0535 -0.0173 -0.1284
 3915W        W 8115   6.916   9.842  10.657  0.0896 -0.0141 -0.1638
 3916W        W 8116  10.014   5.605   8.930  0.1398  0.0602 -0.1121
 3917W        W 8117   4.034   3.776   0.394 -0.0567  0.1137 -0.0498
 3918W        W 8118   3.350  10.201   8.594 -0.1959 -0.0070  0.1228
 3919W        W 8119   1.175   3.536   9.750  0.2424  0.2843  0.2772
 3920W        W 8120   4.684   4.634   1.545  0.0426 -0.1098  0.0740
 3921W        W 8121   4.316   3.574   3.065 -0.0783  0.1928  0.0370
 3922W        W 8122   4.905   6.067  12.763 -0.0149 -0.0049 -0.2352
 3923W        W 8123  10.168   6.433   0.124  0.1350  0.3574  0.0610
 3924W        W 8124   8.253   5.445   1.485 -0.0605 -0.0523 -0.1246
 3925W        W 8125   7.784   8.401  10.321  0.0437  0.1242  0.3833
 3926W        W 8126   8.866   6.009  11.142  0.1377 -0.0639  0.0823
 3927W        W 8127   9.824   8.702  10.096 -0.0705  0.1530 -0.0198
 3928W        W 8128   3.029   3.435   3.033 -0.1538  0.3322 -0.1641
 3929W        W 8129   3.235   0.420   2.589  0.1960  0.0676 -0.0533
 3930W        W 8130   0.108   9.043  10.411 -0.0198 -0.0290  0.2467
 3931W        W 8131   0.997   9.515   2.550  0.0091  0.0310  0.1916
 3932W        W 8132   0.682   2.667  12.246 -0.0130  0.3442 -0.3104
 3933W        W 8133   5.631   3.371   0.058 -0.1109  0.2206  0.3424
 3934W        W 8134   6.588  10.487   9.383  0.2509  0.2791  0.1254
 3935W        W 8135   4.240   8.505  11.159 -0.1456  0.1990  0.4827
 3936W        W 8136   6.383   7.072   0.561  0.0326 -0.1287  0.0564
 3937W        W 8137  10.061   5.407   9.361 -0.0824  0.0570  0.0490
 3938W        W 8138   5.960   1.721  10.433  0.1595 -0.2007  0.1708
 3939W        W 8139   2.186   2.441   2.278  0.1982  0.2252  0.0681
 3940W        W 8140   6.045   6.194  11.859  0.2520 -0.0129  0.2337
 3941W        W 8141   0.536   7.206   0.207  0.0486 -0.0449 -0.0074
 3942W        W 8142   7.933   2.530  11.579  0.0757 -0.0827  0.1998
 3943W        W 8143   5.945   2.496  11.054 -0.1159 -0.3999  0.0245
 3944W        W 8144   3.329   1.145   3.027 -0.2320 -0.1573 -0.2106
 3945W        W 8145  10.334   6.001   0.333  0.0171  0.0904  0.0560
 3946W        W 8146   2.580   6.750   0.466  0.1104 -0.0480 -0.0784
 3947W        W 8147   8.766   3.776   2.979  0.1462  0.3999  0.0361
 3948W        W 8148   2.740   5.653   8.902  0.0562 -0.1016 -0.1146
 3949W        W 8149   1.551   4.326  11.688 -0.1114 -0.1312 -0.1979
 3950W        W 8150   3.187   9.165  11.755 -0.3460  0.4475  0.0643
 3951W        W 8151   8.191   2.768   9.110  0.0385 -0.0258 -0.0199
 3952W        W 8152   9.923  10.524   1.945 -0.1548 -0.1630  0.4185
 3953W        W 8153   4.343   9.238   9.722  0.5725 -0.0520  0.0272
 3954W        W 8154   2.671   8.758   3.809 -0.2403  0.3113 -0.0511
 3955W        W 8155   6.912   9.726   2.363  0.0633  0.2198 -0.1265
 3956W        W 8156   8.180   7.720   0.900  0.1869 -0.1006 -0.0359
 3957W        W 8157   0.104   3.860   2.364  0.1434  0.1007 -0.0712
 3958W        W 8158   9.609   1.141   1.001 -0.0827 -0.0653 -0.1413
 3959W        W 8159   8.592  10.591   3.964  0.0393 -0.0297  0.2725
 3960W        W 8160   3.763   8.867  11.994 -0.3180  0.0495 -0.2710
 3961W        W 8161   4.722   9.726   9.092  0.1224 -0.1632 -0.1640
 3962W        W 8162   4.697  10.303   1.275 -0.0232  0.0942  0.3548
 3963W        W 8163   5.086   0.702  10.288 -0.1323 -0.1882  0.1805
 3964W        W 8164   2.137   4.500  10.282 -0.1103 -0.0491  0.0260
 3965W        W 8165   8.494   6.881   0.679 -0.0796 -0.1124  0.2386
 3966W        W 8166   0.824   7.444   2.215  0.3688 -0.1018  0.0076
 3967W        W 8167   4.678   2.243   0.631  0.0221 -0.0160 -0.0426
 3968W        W 8168   0.792   9.376  10.849  0.3537 -0.0251  0.1866
 3969W        W 8169   4.511   5.692  11.453  0.1671 -0.0711  0.1219
 3970W        W 8170   6.182   5.268   2.338 -0.0205 -0.0948  0.3823
 3971W        W 8171   2.914   5.595   3.798 -0.3601  0.3069  0.1757
 3972W        W 8172   6.995   2.376  12.028 -0.1773  0.3760  0.0637
 3973W        W 8173   4.627   8.314   8.557  0.0467  0.1779 -0.2751
 3974W        W 8174   9.441   6.783  10.354 -0.0637  0.1851  0.0314
 3975W        W 8175   9.111   2.446  12.326 -0.3750 -0.1329  0.2886
 3976W        W 8176   0.285   2.211  11.255 -0.0411 -0.3600  0.3047
 3977W        W 8177   0.188   1.463  11.497 -0.0104 -0.0685 -0.2201
 3978W        W 8178   5.376   1.515   8.694  0.0528  0.0683  0.2112
 3979W        W 8179   6.276   0.567  11.898  0.0042 -0.0376  0.0144
 3980W        W 8180   9.413   0.910   9.598  0.2168 -0.1546 -0.3300
 3981W        W 8181   1.001   1.361  10.976 -0.1995  0.1725 -0.2283
 3982W        W 8182   5.999   9.399   2.631 -0.0168 -0.1171 -0.0084
 3983W        W 8183   9.096   6.181   4.236  0.0508 -0.0336  0.2177
 3984W        W 8184   5.878   1.083   0.019 -0.0594 -0.2082 -0.1576
 3985W        W 8185   9.412   9.057   3.648 -0.3219 -0.2853  0.1234
 3986W        W 8186   9.592   8.610  12.523  0.1209  0.2097  0.2055
 3987W        W 8187   7.352   2.003  10.084  0.1975  0.0377  0.0398
 3988W        W 8188   2.457   0.750   8.243 -0.3324  0.1081 -0.2812
 3989W        W 8189  10.603   5.206   4.025  0.3485  0.2451  0.0011
 3990W        W 8190   3.911   9.477  12.470 -0.2010  0.1057  0.0691
 3991W        W 8191   4.654   8.002   3.623 -0.3267  0.1914  0.1175
 3992W        W 8192   0.065   2.488   9.917 -0.1827  0.0598  0.2601
 3993W        W 8193   6.720   6.722   9.922 -0.0213  0.1527 -0.3607
 3994W        W 8194  10.421   0.241   0.276  0.0766 -0.0774 -0.0074
 3995W        W 8195   5.558   6.635   1.452 -0.0546 -0.2372  0.0646
 3996W        W 8196   7.454   4.729   3.557 -0.0019  0.1291  0.2904
 3997W        W 8197   1.347   7.323   3.116 -0.0450  0.0942  0.1850
 3998W        W 8198   7.152   2.958  11.426  0.0186 -0.0567  0.1134
 3999W        W 8199   3.176   3.489   8.372  0.3478  0.0132  0.2155
 4000W        W 8200   2.803   0.720   2.369 -0.1367 -0.1260  0.0996
 4001W        W 8201   5.121   2.979   9.636 -0.0692 -0.1856 -0.1580
 4002W        W 8202   0.360   8.400   1.286 -0.3896  0.2423  0.1067
 4003W        W 8203   0.473   8.349  11.683  0.0380  0.1236  0.1562
 4004W        W 8204   8.135   6.672   0.972 -0.0742 -0.2406 -0.1143
 4005W        W 8205   6.856   9.949   0.550 -0.3590 -0.1257 -0.1765
 4006W        W 8206   1.312   4.568   1.895 -0.1220 -0.0519 -0.2036
 4007W        W 8207  10.353  10.421  11.395  0.0881 -0.1965  0.0755
 4008W        W 8208   1.241   5.438   0.229 -0.1356 -0.0074 -0.0188
 4009W        W 8209   7.510   4.103   9.971 -0.2918  0.3067  0.2619
 4010W        W 8210   9.750   0.958   3.636  0.2105 -0.1037 -0.1193
 4011W        W 8211   8.834   2.298  10.537  0.2407 -0.1272  0.0754
 4012W        W 8212   6.652   2.101   3.921 -0.0154  0.0080  0.2155
 4013W        W 8213   4.014   5.431  11.568  0.1604 -0.0236 -0.0774
 4014W        W 8214   7.951   0.131   1.506  0.2482  0.1478  0.2313
 4015W        W 8215   2.286   1.657   3.503  0.2435  0.0983 -0.1269
 4016W        W 8216   2.092   6.734   0.371  0.3185 -0.2347  0.0732
 4017W        W 8217   5.325   5.540   3.004 -0.0125 -0.1313 -0.1581
 4018W        W 8218   8.463   9.772  11.551  0.0795  0.2307  0.1668
 4019W        W 8219   3.778   3.384  12.221  0.0091 -0.0172  0.0092
 4020W        W 8220   2.129   7.751  11.648 -0.0142 -0.2293  0.0357
 4021W        W 8221   0.956   8.013   2.635  0.0465  0.1566 -0.0250
 4022W        W 8222   3.089   5.589  11.004 -0.0574  0.1876 -0.1238
 4023W        W 8223   0.978  10.658   9.394  0.0037 -0.0210 -0.0618
 4024W        W 8224   6.369   8.984   8.871 -0.1187 -0.2441 -0.2985
 4025W        W 8225   6.173   2.325   0.331  0.1196 -0.2920 -0.0449
 4026W        W 8226   6.707  10.299  10.317  0.0429 -0.0212  0.1090
 4027W        W 8227   6.976   5.882   8.082  0.3871  0.1678  0.1840
 4028W        W 8228   6.511   6.795   9.471 -0.0049  0.6318  0.2562
 4029W        W 8229   7.864   4.654  12.352 -0.0318 -0.0333  0.4593
 4030W        W 8230   3.534  10.608   3.957  0.0022 -0.0335 -0.0614
 4031W        W 8231   6.598   2.508   0.167 -0.0944  0.1106 -0.0649
 4032W        W 8232   3.179   8.819   8.917  0.3590  0.2245 -0.0897
 4033W        W 8233   3.324   5.814  12.031 -0.0623  0.1031 -0.1408
 4034W        W 8234   3.548   3.028   2.718 -0.0000 -0.0127 -0.0857
 4035W        W 8235   8.369   2.776   1.379 -0.0943 -0.0035 -0.2031
 4036W        W 8236   2.882   3.817  11.758 -0.0905  0.2758  0.0924
 4037W        W 8237   8.461   2.764   3.430 -0.0899  0.2665 -0.0522
 4038W        W 8238   3.068   0.022  12.572 -0.0750  0.1971 -0.0337
 4039W        W 8239   2.206  10.207   9.315 -0.1214 -0.3175 -0.2261
 4040W        W 8240   6.787   7.042  11.361  0.0199  0.1218  0.1835
 4041W        W 8241   6.004   0.562   1.807  0.1927 -0.0581 -0.0288
 4042W        W 8242   0.457  10.713   9.421  0.0821  0.5973 -0.1744
 4043W        W 8243   3.612   6.321  11.264  0.0055  0.1558 -0.2180
 4044W        W 8244   4.296   1.932   0.395  0.4782 -0.0742  0.0206
 4045W        W 8245   1.364   3.985  11.976  0.1127  0.2789  0.4056
 4046W        W 8246   5.244   8.112   0.460  0.0694 -0.0703 -0.1023
 4047W        W 8247   0.173   6.940  12.738  0.2270 -0.0977 -0.0446
 4048W        W 8248   2.189   8.255  10.566 -0.2756 -0.2506  0.3272
 4049W        W 8249   0.354  10.437   0.937  0.3343 -0.1943  0.0533
 4050W        W 8250  10.659   9.238   9.969  0.0064 -0.1452 -0.2611
 4051W        W 8251   8.332   1.312   1.674 -0.1715 -0.1594  0.2683
 4052W        W 8252   0.378   8.842  11.663 -0.0027 -0.1800  0.3989
 4053W        W 8253   6.416   5.346   1.473 -0.0504 -0.1990 -0.1242
 4054W        W 8254   6.612   8.294   2.885 -0.0230 -0.1276  0.1303
 4055W        W 8255   7.022   0.052   9.284  0.1644 -0.3413  0.0157
 4056W        W 8256   0.509   0.009   8.394  0.0643  0.2204 -0.2555
 4057W        W 8257   5.320   1.948   9.875  0.0126  0.0361  0.0810
 4058W        W 8258   0.355   5.740   0.390  0.0535 -0.2330 -0.1185
 4059W        W 8259   1.188   4.964   9.669  0.1070  0.0142  0.0829
 4060W        W 8260   1.435   8.586   8.915 -0.0445 -0.2001 -0.1982
 4061W        W 8261   4.287   4.394  12.644  0.0247 -0.3182 -0.0082
 4062W        W 8262   7.102   8.074   2.825 -0.0742  0.1524  0.0793
 4063W        W 8263  10.400   6.006   9.093  0.0333  0.1606 -0.0219
 4064W        W 8264  10.158   4.301   2.929  0.1470  0.0121  0.0363
 4065W        W 8265   1.123   7.951   1.525 -0.0395 -0.2486 -0.1472
 4066W        W 8266   5.203   6.073   3.063  0.0743  0.1291 -0.1502
 4067W        W 8267   2.400   8.371   3.906  0.0232 -0.0930  0.2689
 4068W        W 8268   9.347   2.269   3.891  0.0143 -0.0464  0.0723
 4069W        W 8269   6.231   1.024   3.667  0.1865  0.0037 -0.2569
 4070W        W 8270  10.387   7.615   1.932 -0.2387  0.0998  0.2191
 4071W        W 8271   1.555   5.219  12.158 -0.3459  0.1737  0.0610
 4072W        W 8272   2.475   4.843   3.538  0.4127  0.1173  0.1043
 4073W        W 8273   1.310   4.768  10.171 -0.0968 -0.2033 -0.0420
 4074W        W 8274   6.845   0.031  10.020 -0.1418 -0.2321 -0.0757
 4075W        W 8275   7.910   6.798   1.416 -0.0808  0.2027  0.0013
 4076W        W 8276   4.126  10.528   3.940 -0.3928  0.0392 -0.0939
 4077W        W 8277   7.252   1.225   0.250 -0.2877 -0.4080  0.0761
 4078W        W 8278   2.624   5.666   1.682  0.0049  0.2476 -0.0140
 4079W        W 8279   8.873   7.199   1.987  0.0670  0.0871  0.2450
 4080W        W 8280   5.229  10.052   9.506  0.1531  0.4281  0.2891
 4081W        W 8281   4.496   1.385   0.441 -0.0059  0.0925  0.0173
 4082W        W 8282   7.963   6.919   4.214 -0.1825  0.0394 -0.2939
 4083W        W 8283   4.830  10.529   4.538  0.1255  0.1644 -0.2460
 4084W        W 8284   6.466   6.303   9.543  0.3391 -0.0740  0.0805
 4085W        W 8285   7.223   0.358   1.669  0.0649 -0.1936 -0.4591
 4086W        W 8286   0.458   5.922   1.344  0.0411  0.0085 -0.0513
 4087W        W 8287   9.076   3.716   1.561  0.1861 -0.3857  0.2457
 4088W        W 8288   0.339   4.768  11.147  0.1783  0.1165 -0.0773
 4089W        W 8289   1.815   3.249  12.246 -0.0321 -0.2954 -0.2222
 4090W        W 8290   4.091   3.688  11.959  0.2890 -0.3766  0.0195
 4091W        W 8291   7.725   7.183   8.178 -0.0696  0.1487 -0.1010
 4092W        W 8292   5.186   6.977   8.967  0.2810  0.1623  0.0402
 4093W        W 8293   1.388   1.739  12.659  0.0884  0.0657  0.1968
 4094W        W 8294   9.344   9.292   0.768  0.1306  0.1651  0.0549
 4095W        W 8295   9.419  10.138   1.362 -0.1251  0.0827  0.1369
 4096W        W 8296  10.273   6.549   0.676 -0.2615  0.1573 -0.1334
 4097W        W 8297   5.808   5.939   0.083  0.1404  0.0175 -0.1537
 4098W        W 8298   7.792   2.650  12.589 -0.0368  0.0158 -0.0617
 4099W        W 8299   1.301   2.093   2.981 -0.1599 -0.0732  0.3631
 4100W        W 8300   3.873   2.864  12.305  0.2058  0.3175 -0.2625
 4101W        W 8301   7.451   1.790  12.705  0.1036  0.5133 -0.1592
 4102W        W 8302   6.756   3.096  11.722  0.0281  0.0363 -0.1371
 4103W        W 8303   4.062   6.359   2.157 -0.0334 -0.2709 -0.1685
 4104W        W 8304   3.049   8.673   2.939 -0.1156  0.0769 -0.1299
 4105W        W 8305   2.061   9.646   1.009  0.1337  0.0419  0.0298
 4106W        W 8306  10.346   5.451  12.631 -0.3416 -0.0750 -0.0204
 4107W        W 8307   5.691   3.252   1.779  0.0285  0.2314 -0.0622
 4108W        W 8308   2.987   4.499  11.002  0.1371  0.1387  0.1792
 4109W        W 8309   7.833   4.164   1.258 -0.0200 -0.0534  0.1029
 4110W        W 8310   6.753   8.309   8.706 -0.2871  0.1087  0.1492
 4111W        W 8311   1.448   1.266   1.250 -0.0521 -0.0909 -0.3405
 4112W        W 8312   7.582   2.393   0.917  0.0603 -0.1927 -0.0943
 4113W        W 8313   6.527   9.557  11.714 -0.0663 -0.0147  0.0045
 4114W        W 8314   0.923   6.969  12.087  0.6056 -0.0610  0.1362
 4115W        W 8315   7.511   0.049   9.972 -0.0943 -0.1954 -0.1738
 4116W        W 8316   1.006   1.570   3.839 -0.0830 -0.1661  0.1683
 4117W        W 8317   8.730   1.497   1.927 -0.3027  0.2448  0.0478
 4118W        W 8318   2.055   1.141   3.245 -0.2400 -0.1582  0.1063
 4119W        W 8319   3.244   9.923  10.839  0.3294  0.3626  0.0229
 4120W        W 8320   5.609   5.361   9.528  0.2303  0.1979  0.0337
 4121W        W 8321   8.609   8.312   1.571 -0.1408 -0.0624 -0.2778
 4122W        W 8322  10.702   8.020   3.459 -0.1819 -0.3041 -0.1865
 4123W        W 8323   4.732   0.450   9.449 -0.0528 -0.1379 -0.2646
 4124W        W 8324   3.985   9.954   2.714 -0.2086  0.1401 -0.0457
 4125W        W 8325   4.772   0.369   3.308 -0.1449 -0.0963 -0.0884
 4126W        W 8326   1.806   3.037   1.281  0.1467 -0.1265 -0.2088
 4127W        W 8327   0.492   9.566   3.196  0.2386  0.0699 -0.0409
 4128W        W 8328   0.836   1.911   9.266  0.3400  0.1153 -0.1769
 4129W        W 8329   4.203   8.668  10.213 -0.1871 -0.0416  0.3082
 4130W        W 8330   9.125   7.050   9.469  0.1567  0.3403  0.3103
 4131W        W 8331   8.023   0.144  12.405  0.0302 -0.0254  0.2038
 4132W        W 8332   7.735   5.837   1.670  0.2110 -0.1830  0.0434
 4133W        W 8333   4.279   6.696   0.264 -0.0771 -0.0690 -0.0615
 4134W        W 8334   7.572   1.712   1.708  0.2241 -0.4187 -0.1770
 4135W        W 8335   8.632   5.240   2.765  0.1072 -0.2891 -0.0577
 4136W        W 8336   9.695   4.567   9.866  0.0042  0.2523  0.1695
 4137W        W 8337   3.266   4.813  11.809  0.3532  0.0981 -0.3842
 4138W        W 8338   2.510   7.816   1.355 -0.0789 -0.1449  0.1848
 4139W        W 8339   3.791   0.940   2.167  0.1063 -0.1972 -0.0689
 4140W        W 8340   7.245   5.468  11.810 -0.1193 -0.0077 -0.1726
 4141W        W 8341   0.925   3.040  10.687  0.1632 -0.2804  0.0106
 4142W        W 8342   7.257   2.959  10.187  0.0810  0.1434 -0.0428
 4143W        W 8343   1.696   3.393   2.593 -0.2493  0.1059  0.1347
 4144W        W 8344   9.475   8.204  10.244 -0.3668 -0.1026  0.0135
 4145W        W 8345  10.589   2.782   0.084 -0.1673 -0.2418 -0.1207
 4146W        W 8346   2.831   9.137   9.583 -0.2006 -0.0300  0.0071
 4147W        W 8347   6.449  10.042  12.583  0.0229  0.4320 -0.0061
 4148W        W 8348   7.279   8.906   3.492 -0.1381  0.0858 -0.0156
 4149W        W 8349   7.621   6.861   7.575 -0.0583 -0.0910  0.0346
 4150W        W 8350   3.050   2.821  11.109 -0.0434  0.1733 -0.0913
 4151W        W 8351  10.480   5.500  11.389  0.2277 -0.0984 -0.1654
 4152W        W 8352   4.438   1.877   0.901  0.3285 -0.1831 -0.1391
 4153W        W 8353  10.614   1.420   0.337 -0.0702  0.3414  0.0569
 4154W        W 8354   0.306   3.808   0.847 -0.0824  0.1986 -0.0862
 4155W        W 8355   0.346   0.288   3.326 -0.1514  0.1208  0.0449
 4156W        W 8356   1.850   3.991  12.115  0.1919 -0.2165 -0.0863
 4157W        W 8357   0.016   1.600  12.571  0.1188 -0.0090 -0.0803
 4158W        W 8358   3.448   5.465  10.704  0.0220  0.0595  0.1632
 4159W        W 8359   5.712   4.415   8.965  0.1081  0.2209  0.0033
 4160W        W 8360   0.845   2.985   2.560  0.3067  0.0957  0.0546
 4161W        W 8361   2.311   5.806   0.545 -0.1285 -0.0004  0.2219
 4162W        W 8362   1.693   9.070   3.779  0.1535 -0.0361 -0.1237
 4163W        W 8363   5.397   8.747   8.661  0.0343 -0.0525  0.0225
 4164W        W 8364   5.502   8.066  10.436  0.0812 -0.1700 -0.0236
 4165W        W 8365   8.965   0.434   3.609 -0.1129  0.0163 -0.0957
 4166W        W 8366   4.922   3.450  12.493 -0.1210  0.2075 -0.1578
 4167W        W 8367   8.961   2.523  11.409 -0.0578  0.3177 -0.2222
 4168W        W 8368   0.483   1.111   2.983  0.0224 -0.1097 -0.0030
 4169W        W 8369   7.102   6.504   2.157  0.1911 -0.1713 -0.0797
 4170W        W 8370   1.422   2.276  10.441  0.3638 -0.3665 -0.0385
 4171W        W 8371   6.587   3.760   3.099 -0.1047 -0.0234  0.0497
 4172W        W 8372   6.233   4.508  11.736 -0.0662 -0.1362 -0.3944
 4173W        W 8373   7.756   4.091   0.252  0.2882 -0.1194 -0.1399
 4174W        W 8374   9.394   0.277   1.990  0.2953 -0.1396 -0.2184
 4175W        W 8375  10.005   9.869   1.559  0.1413 -0.0437 -0.1036
 4176W        W 8376   3.045  10.044   0.087 -0.0020  0.0705  0.0449
 4177W        W 8377   4.750   8.530  11.405  0.0345 -0.0622  0.0401
 4178W        W 8378   9.791   9.228   8.932  0.0435  0.1184  0.4993
 4179W        W 8379   5.307   2.459   8.891  0.0451 -0.0670 -0.2530
 4180W        W 8380   3.158   0.507   1.691 -0.1946 -0.3574 -0.2109
 4181W        W 8381   9.069   2.380   3.030  0.2065  0.0588  0.0757
 4182W        W 8382  10.529   2.752   2.451 -0.0058  0.3108  0.1094
 4183W        W 8383   1.789   9.053  10.697  0.4191  0.3100 -0.1090
 4184W        W 8384   6.952   5.141   0.682  0.0896  0.0783 -0.3511
 4185W        W 8385  10.679   6.848   2.920 -0.0367 -0.0863 -0.0960
 4186W        W 8386   8.480  10.001   3.246  0.3775  0.3129 -0.2353
 4187W        W 8387   1.616   0.273   9.035 -0.0794 -0.0937 -0.1462
 4188W        W 8388   9.904   6.364  11.186  0.0657 -0.2135 -0.1881
 4189W        W 8389   6.502   2.583   9.479 -0.2078  0.1592  0.0204
 4190W        W 8390   2.905   9.118   4.129 -0.2114 -0.0424 -0.1405
 4191W        W 8391   4.691   6.623   2.150 -0.3654 -0.3938 -0.0839
 4192W        W 8392   8.247   7.524  12.045 -0.0937 -0.2276 -0.0972
 4193W        W 8393   5.063   2.553   1.474  0.1263  0.2698 -0.1512
 4194W        W 8394   6.457   5.134   9.045  0.1143 -0.0598 -0.1948
 4195W        W 8395   6.626   0.548  11.057 -0.4133 -0.0974 -0.0376
 4196W        W 8396   7.614   0.426  10.925 -0.0306 -0.1362  0.0697
 4197W        W 8397   4.538   6.817  11.862 -0.0180  0.0019 -0.0345
 4198W        W 8398   2.989  10.717   3.344  0.1734 -0.0617 -0.1940
 4199W        W 8399   0.901   9.189   3.702  0.1356 -0.2783 -0.1183
 4200W        W 8400   4.102   1.966  12.776 -0.1189 -0.1978 -0.0241
 4201W        W 8401  10.663   7.365   8.515 -0.0741  0.2127  0.1674
 4202W        W 8402   7.651   3.255   1.250  0.0222  0.4434 -0.2292
 4203W        W 8403   7.958   6.757   1.956  0.0056  0.0847 -0.2569
 4204W        W 8404   9.806  10.065   2.776  0.0496 -0.0651 -0.1772
 4205W        W 8405   1.525   8.668  10.958  0.0689  0.2177  0.2478
 4206W        W 8406   5.579   9.003  12.213 -0.0840 -0.0367 -0.3300
 4207W        W 8407   8.811  10.727  12.431 -0.1855 -0.1684  0.3934
 4208W        W 8408   7.961   8.405  10.759 -0.1852 -0.3721  0.0815
 4209W        W 8409   8.813   2.149   9.969 -0.1257 -0.1198  0.1654
 4210W        W 8410   5.795   3.059   9.088  0.1285 -0.0754  0.1670
 4211W        W 8411   8.916   5.812   0.611 -0.1053 -0.2909 -0.2026
 4212W        W 8412   4.619   4.480  10.623 -0.0752  0.2031  0.2330
 4213W        W 8413   8.189   0.595  11.955  0.0345 -0.1423  0.1531
 4214W        W 8414   3.104   0.766   4.109  0.2439  0.0366  0.2849
 4215W        W 8415   3.742   4.471   3.970  0.2662  0.4193  0.0253
 4216W        W 8416   8.233   3.007   3.728  0.0828 -0.3207  0.3656
 4217W        W 8417  10.356   3.226   3.181 -0.2600  0.0200 -0.0141
 4218W        W 8418   8.804   1.084   0.173 -0.0759 -0.1951 -0.0033
 4219W        W 8419   1.365   9.378   9.819  0.2363  0.1254  0.0398
 4220W        W 8420   9.583   3.565   8.972  0.0530 -0.0841  0.1313
 4221W        W 8421   4.938   6.554   3.191 -0.1523 -0.1264 -0.5261
 4222W        W 8422   9.711   0.044  10.128 -0.1563  0.1437 -0.2416
 4223W        W 8423   3.106  10.277  11.951 -0.1594 -0.0882  0.1558
 4224W        W 8424   0.231   5.964   2.440 -0.0976  0.0144  0.0957
 4225W        W 8425   6.983   1.860   2.913  0.3443  0.0616  0.1369
 4226W        W 8426   7.296   9.965   9.676 -0.2769  0.2287  0.2980
 4227W        W 8427   6.167   4.914  10.941 -0.1028 -0.0905 -0.1378
 4228W        W 8428  10.167   7.022   3.016  0.2979 -0.0777 -0.0450
 4229W        W 8429   2.564   4.582  11.335 -0.0258  0.1788 -0.1629
 4230W        W 8430   9.790   0.484   2.698  0.2648 -0.1808 -0.0392
 4231W        W 8431   7.430   6.354   9.801 -0.0199  0.0208 -0.1178
 4232W        W 8432   2.388   7.272   9.723  0.2476 -0.1881 -0.1062
 4233W        W 8433   5.503  10.072  12.409  0.2054 -0.3084 -0.2256
 4234W        W 8434   9.599   6.659   8.282 -0.0072 -0.3408 -0.1519
 4235W        W 8435   7.882   8.677   1.567 -0.0290  0.2647  0.1866
 4236W        W 8436   1.467   5.190  11.634  0.1419 -0.1603  0.1034
 4237W        W 8437   6.193   9.543   9.169  0.1545  0.1157  0.4148
 4238W        W 8438   8.068   4.797  11.431  0.2782  0.3029 -0.0642
 4239W        W 8439   7.335  10.255   3.478  0.1050 -0.2418  0.3143
 4240W        W 8440  10.501   8.922   9.548 -0.2124  0.3435  0.0466
 4241W        W 8441   1.026   9.972   0.658 -0.5517  0.2806 -0.0039
 4242W        W 8442   3.002   2.115   1.909  0.1365  0.4151 -0.0845
 4243W        W 8443   5.940   6.226   2.804  0.2802  0.0235  0.2688
 4244W        W 8444   8.158   1.746   5.992  0.3729 -0.3024 -0.1796
 4245W        W 8445  10.693   2.851   1.102  0.2268 -0.1378  0.0757
 4246W        W 8446   7.686   2.891   9.321 -0.1847  0.0087 -0.1724
 4247W        W 8447   0.130   7.450   9.045 -0.0995 -0.0007  0.0099
 4248W        W 8448   7.235   2.718  10.692 -0.5376  0.0459 -0.0427
 4249W        W 8449   4.819   9.185   1.224  0.1001  0.1170 -0.2792
 4250W        W 8450   8.910   1.428  12.593  0.0273 -0.2313 -0.4040
 4251W        W 8451   3.821   9.299   4.273  0.1486  0.1896  0.1494
 4252W        W 8452   9.089   9.072  11.826  0.1296  0.0366 -0.2210
 4253W        W 8453   4.490   0.522   1.678  0.2322  0.1275  0.2647
 4254W        W 8454   9.210   0.595   2.366 -0.1852  0.0125  0.2088
 4255W        W 8455   2.100   1.404   2.121 -0.2172  0.1165  0.2451
 4256W        W 8456   9.390   7.774   7.862  0.1240 -0.0949  0.0719
 4257W        W 8457   0.565  10.195   9.283 -0.3027  0.0886 -0.1317
 4258W        W 8458   9.075  10.650  10.522  0.0103 -0.2283  0.1179
 4259W        W 8459  10.620   4.774   9.784 -0.5338  0.0900 -0.1182
 4260W        W 8460   1.700   3.170  10.052  0.6366 -0.1461  0.3093
 4261W        W 8461   0.707   1.393  10.582  0.0275 -0.2153 -0.1802
 4262W        W 8462   8.701   4.344   1.141 -0.1773 -0.1942 -0.0670
 4263W        W 8463   2.220   6.308  12.464  0.4136  0.2332  0.2652
 4264W        W 8464   6.343   5.825   9.362  0.2882  0.1113 -0.1588
 4265W        W 8465   3.584   5.641  11.515 -0.4017 -0.2611  0.0820
 4266W        W 8466   9.606   1.206   3.158 -0.0090 -0.3911  0.0534
 4267W        W 8467   5.191   7.210   7.975  0.1420  0.0583 -0.0361
 4268W        W 8468   2.584   8.640  11.704 -0.3699  0.1553  0.0290
 4269W        W 8469   2.636   2.159   2.363  0.2051 -0.0121 -0.0663
 4270W        W 8470   4.156   2.375   3.717 -0.0655  0.2078  0.0968
 4271W        W 8471   8.918   1.879  10.750 -0.2583 -0.1775 -0.2923
 4272W        W 8472   5.894   3.821   4.520 -0.2198  0.2092 -0.1719
 4273W        W 8473   7.615   7.080   3.912 -0.2014  0.1356  0.2043
 4274W        W 8474   1.094   1.647   2.815  0.0846  0.0832 -0.2610
 4275W        W 8475   1.756   4.189  10.021  0.1716 -0.1104 -0.2846
 4276W        W 8476   7.814   4.513  11.091  0.2379 -0.1260 -0.0589
 4277W        W 8477   4.277   9.442   3.165 -0.1763 -0.2286  0.1112
 4278W        W 8478   3.287   5.370   9.643 -0.2715  0.1817 -0.4065
 4279W        W 8479   1.671   4.732   2.790  0.0795  0.2070  0.2457
 4280W        W 8480  10.436   3.216  12.568 -0.0342 -0.1459 -0.0394
 4281W        W 8481   8.412   3.171  10.892  0.1890  0.2398  0.1063
 4282W        W 8482   8.922   7.521  10.783  0.0710  0.2813 -0.0641
 4283W        W 8483   2.077   2.535   3.525  0.2899  0.1955  0.0731
 4284W        W 8484   8.576   6.308   1.349 -0.3723 -0.2498 -0.0843
 4285W        W 8485   2.481   0.350   2.131  0.2055  0.0366  0.3429
 4286W        W 8486   0.628   4.208  11.291  0.0983  0.3569  0.0991
 4287W        W 8487   8.749   1.075   8.720  0.2899  0.0893 -0.0642
 4288W        W 8488   6.470   8.366   9.207  0.0703  0.0464 -0.3127
 4289W        W 8489  10.189  10.609  10.137  0.1380  0.0211 -0.2446
 4290W        W 8490   7.215   1.361  10.986  0.1397 -0.0228 -0.1883
 4291W        W 8491   5.503   1.487   4.080 -0.2457 -0.1353 -0.0938
 4292W        W 8492   6.448   1.331   9.469 -0.0119 -0.1602  0.3311
 4293W        W 8493   9.817   7.552  10.413  0.2521 -0.3410 -0.1088
 4294W        W 8494   1.673   0.158   0.688 -0.0412  0.0223  0.1227
 4295W        W 8495   6.789   4.142   2.504 -0.2305  0.0089 -0.1049
 4296W        W 8496   7.353   1.026   3.224  0.0969  0.1173 -0.0825
 4297W        W 8497   7.853   3.847   9.217 -0.0429 -0.4302  0.2178
 4298W        W 8498   0.185   0.079   8.946  0.1184  0.4901 -0.1439
 4299W        W 8499   7.832   4.880   2.218  0.4046 -0.0971  0.0559
 4300W        W 8500  10.727  10.718   3.613 -0.5245 -0.0607 -0.0742
 4301W        W 8501   5.018   7.663   3.491 -0.1506 -0.2303 -0.2721
 4302W        W 8502   3.440   0.143   1.893  0.1396 -0.0214  0.1368
 4303W        W 8503   8.865   6.984   3.350  0.1356  0.5038 -0.1705
 4304W        W 8504   5.362   2.535   0.083  0.3435 -0.0710 -0.1253
 4305W        W 8505   1.625   9.356   8.523 -0.3134 -0.0289 -0.0191
 4306W        W 8506   1.653   9.678  10.091 -0.1918  0.3125  0.0814
 4307W        W 8507   3.815   5.025   1.077 -0.0570 -0.0280 -0.2868
 4308W        W 8508   0.242   0.712   9.624  0.2547  0.0277  0.0252
 4309W        W 8509   9.052   5.249   9.947  0.1226  0.0035  0.1822
 4310W        W 8510   4.186   8.980   9.270  0.3484  0.1007 -0.1534
 4311W        W 8511   6.201   3.761   2.335  0.3255 -0.0523 -0.3485
 4312W        W 8512   4.261   9.654  11.966  0.1304  0.3218  0.2420
 4313W        W 8513   0.740   1.846   0.252  0.0694  0.1347 -0.1946
 4314W        W 8514   9.802   8.336   2.262 -0.0820  0.0866  0.0957
 4315W        W 8515  10.305   9.833  11.964  0.2521 -0.2339  0.0414
 4316W        W 8516   8.786   4.796   9.705 -0.1761  0.2081  0.2408
 4317W        W 8517   4.599  10.684   2.546 -0.3843 -0.1347 -0.3128
 4318W        W 8518   3.885   0.841   3.886  0.1964 -0.1650 -0.2408
 4319W        W 8519   4.465   4.745  12.005  0.2565  0.0924  0.0749
 4320W        W 8520   6.090   0.624  12.825 -0.0148 -0.0145  0.1498
 4321W        W 8521   0.731   8.552   0.270  0.0497 -0.1171  0.2186
 4322W        W 8522   6.740   0.832   2.506 -0.1153 -0.1271  0.0548
 4323W        W 8523   4.920   3.295  10.904  0.3496 -0.1231  0.1993
 4324W        W 8524   0.048   7.743  10.145  0.1693 -0.2110 -0.0022
 4325W        W 8525   8.283   4.961   1.419  0.2089  0.0903 -0.1739
 4326W        W 8526   9.032  10.475  11.249  0.1914  0.1156 -0.0782
 4327W        W 8527   8.790   5.119   1.576  0.2449 -0.4022  0.2754
 4328W        W 8528   3.829   3.482   3.776  0.0671  0.2413 -0.0743
 4329W        W 8529   7.444   0.766   1.860  0.0107  0.1505 -0.1598
 4330W        W 8530   4.012   9.108   2.909  0.0338 -0.1925  0.0101
 4331W        W 8531   6.554   7.257  11.912 -0.0486 -0.1232 -0.3169
 4332W        W 8532   6.538   0.599   1.101 -0.2454 -0.3084  0.3099
 4333W        W 8533   0.273   4.422   8.115 -0.0962  0.2911 -0.2015
 4334W        W 8534   4.017   5.971   0.624  0.0193 -0.2027 -0.0585
 4335W        W 8535   3.069   0.295   1.200 -0.4417 -0.2515 -0.3728
 4336W        W 8536   6.755   1.158   1.835  0.1939  0.3166 -0.0201
 4337W        W 8537   4.839   8.764   8.509  0.2799 -0.5031 -0.0082
 4338W        W 8538   1.549   7.015  10.397 -0.0780 -0.3376 -0.0477
 4339W        W 8539   7.507   8.004  10.038  0.5162 -0.4171 -0.0095
 4340W        W 8540   6.244   8.497   8.795  0.0723  0.0187  0.0347
 4341W        W 8541   0.939   5.062   8.891 -0.0822  0.0672  0.0536
 4342W        W 8542   1.792   2.755   2.315 -0.1631  0.1781 -0.2578
 4343W        W 8543   2.503   6.510  11.866  0.5604  0.2424  0.2396
 4344W        W 8544   9.341   9.482  11.860 -0.1995 -0.3084  0.0353
 4345W        W 8545   5.455   3.509  12.413 -0.0589  0.3213 -0.1171
 4346W        W 8546   8.967   7.372  11.218  0.0803 -0.2434 -0.2725
 4347W        W 8547   2.076   3.307   3.019 -0.2164  0.0615  0.1586
 4348W        W 8548   2.441   3.742   0.314 -0.1521  0.0895 -0.0049
 4349W        W 8549   2.568   9.855  12.640 -0.0143  0.0124 -0.3031
 4350W        W 8550   2.996   1.884  11.830 -0.1688  0.0323 -0.2725
 4351W        W 8551   7.284   4.219   2.669 -0.0498 -0.0198  0.2224
 4352W        W 8552   1.363   9.726   3.313  0.0220 -0.2273 -0.1579
 4353W        W 8553   0.269   9.745   8.948  0.0442  0.0800 -0.0194
 4354W        W 8554   3.228   1.267   9.347  0.1701 -0.0439  0.0862
 4355W        W 8555   3.937   3.771   9.105 -0.0706 -0.0700  0.0783
 4356W        W 8556   1.942   2.404  10.449  0.3075 -0.0776 -0.1225
 4357W        W 8557   4.258   6.577   1.750 -0.1031  0.1544 -0.0803
 4358W        W 8558  10.389   5.380   1.056 -0.2183 -0.4011 -0.2460
 4359W        W 8559   3.969   6.179  12.523 -0.1683 -0.0116  0.3267
 4360W        W 8560   8.469   1.144  12.420  0.0955  0.0849  0.0927
 4361W        W 8561   7.555   1.656  11.427 -0.0494  0.2204 -0.0450
 4362W        W 8562  10.092   6.404   3.840  0.4281 -0.1011 -0.0885
 4363W        W 8563   4.919   0.038   3.009  0.1423 -0.0277 -0.0001
 4364W        W 8564   0.756   0.852   0.763  0.1558  0.0145 -0.2231
 4365W        W 8565   8.905  10.181  10.271 -0.0273 -0.1737 -0.1247
 4366W        W 8566   3.344   1.058   0.912 -0.0282 -0.0244  0.1115
 4367W        W 8567   0.245   6.622   2.666 -0.1935 -0.2045  0.1342
 4368W        W 8568   6.357   1.523   0.555  0.0260 -0.2002 -0.3218
 4369W        W 8569   5.271   9.470   9.684 -0.2139 -0.2204 -0.3742
 4370W        W 8570   8.152   7.863   2.609 -0.2769  0.1524  0.1904
 4371W        W 8571   5.608   8.200  11.602 -0.0146 -0.0025 -0.1127
 4372W        W 8572   0.982   9.383   3.102  0.2380 -0.1249  0.1422
 4373W        W 8573   8.577  10.196   1.012 -0.1066  0.2309 -0.2195
 4374W        W 8574   6.631   5.062  10.385  0.0217 -0.0672 -0.0902
 4375W        W 8575  10.152   6.231   9.443  0.0347 -0.1735  0.1956
 4376W        W 8576   6.207   4.382   1.724  0.0099  0.1293  0.0429
 4377W        W 8577   4.338   2.726   9.164  0.2136 -0.0330  0.0372
 4378W        W 8578   4.322   4.668   3.800 -0.0434 -0.0130  0.0647
 4379W        W 8579   5.725  10.570  11.816  0.0079  0.0341 -0.1136
 4380W        W 8580   1.807   0.063   8.163 -0.2775  0.0374 -0.2729
 4381W        W 8581   0.655   6.871   8.388  0.0395  0.0644 -0.1613
 4382W        W 8582   1.053   5.826   9.458  0.0141 -0.3397 -0.1391
 4383W        W 8583   8.784   7.847   9.535  0.0866 -0.0852 -0.2361
 4384W        W 8584   9.778  10.378  10.457  0.0239  0.0368 -0.1848
 4385W        W 8585   4.862   3.677   0.239 -0.0571  0.0961  0.0503
 4386W        W 8586   7.102   1.164   2.226 -0.0818  0.4236  0.1501
 4387W        W 8587   6.754   9.808   1.067  0.0938  0.2384  0.2208
 4388W        W 8588   1.818   1.489   3.593  0.1600  0.1539  0.3179
 4389W        W 8589   5.541   4.071   1.777  0.2054  0.0183  0.0194
 4390W        W 8590   0.181   2.752  10.383 -0.1464 -0.1643 -0.1466
 4391W        W 8591   5.440   6.170  10.678  0.3873 -0.1466  0.0895
 4392W        W 8592   1.705   8.118  10.994  0.2468  0.2405  0.0542
 4393W        W 8593   7.002   4.917   3.330 -0.0270  0.2128  0.3088
 4394W        W 8594   2.522  10.432   2.450  0.2455  0.1944  0.2063
 4395W        W 8595   0.662   7.489   9.470 -0.0229 -0.1313  0.1327
 4396W        W 8596   6.996   7.971  10.005  0.0226  0.0761  0.1678
 4397W        W 8597   9.191   5.332   0.546  0.3508 -0.0058  0.2470
 4398W        W 8598   9.109   9.392  12.322  0.1419  0.0674 -0.2441
 4399W        W 8599   2.090   0.100  10.953 -0.2341  0.0710 -0.1539
 4400W        W 8600   1.263   0.181  10.256 -0.0359  0.0708 -0.1463
 4401W        W 8601   2.170   0.120   2.904 -0.2166  0.0957  0.2421
 4402W        W 8602   2.182   8.516  10.013 -0.0088 -0.2921 -0.2211
 4403W        W 8603  10.039   2.893   9.351  0.0905  0.1420  0.3322
 4404W        W 8604   3.984   0.276  10.496  0.2265 -0.2455  0.3269
 4405W        W 8605   1.120   8.761  11.266 -0.3045 -0.0908 -0.3811
 4406W        W 8606   7.905   7.281  10.412 -0.1571  0.0423 -0.5031
 4407W        W 8607   9.255   1.586   3.592 -0.1814 -0.0892 -0.3730
 4408W        W 8608   9.580   3.138   9.237  0.0761  0.1493 -0.1384
 4409W        W 8609   4.642   8.123   1.551 -0.3606 -0.3297 -0.3319
 4410W        W 8610   2.153   9.641   0.391 -0.0745  0.1678 -0.0099
 4411W        W 8611   6.930   9.063   9.739 -0.3573  0.0544 -0.1149
 4412W        W 8612   9.532   7.858   8.324  0.0192 -0.0311  0.0327
 4413W        W 8613  10.199   8.094   9.492 -0.1613  0.3022 -0.0101
 4414W        W 8614   7.637   9.196   7.893  0.0392  0.0775 -0.3320
 4415W        W 8615   0.940   6.160   1.189 -0.0150  0.1387 -0.0182
 4416W        W 8616   8.969   2.151   3.579 -0.2552  0.0664  0.0031
 4417W        W 8617   3.994   7.210   8.190 -0.0559 -0.1461  0.3323
 4418W        W 8618   0.564   9.636   9.291 -0.0535 -0.2081  0.0848
 4419W        W 8619   5.826   8.483   8.487  0.0644 -0.2252 -0.3596
 4420W        W 8620   1.868   0.907  11.826 -0.0051  0.0771 -0.0306
 4421W        W 8621   9.621   5.005   1.413  0.2950  0.1074 -0.1781
 4422W        W 8622   2.622   1.785   3.113  0.3182  0.0757 -0.1498
 4423W        W 8623   0.317   3.641   1.364  0.0345 -0.0235  0.1484
 4424W        W 8624  10.344   3.708   2.592  0.0523 -0.3119 -0.3570
 4425W        W 8625   4.168   2.077   9.133 -0.1937  0.2209  0.3470
 4426W        W 8626   1.686   5.095   9.457 -0.2518  0.1220  0.1206
 4427W        W 8627   7.985   7.230   1.807  0.0807  0.3174  0.1720
 4428W        W 8628   7.573   2.903   8.874 -0.0860  0.1102  0.5238
 4429W        W 8629   9.390   8.468   8.965  0.1232  0.1099 -0.0001
 4430W        W 8630   0.902   9.711   3.546 -0.2329  0.1339  0.0978
 4431W        W 8631   8.781   0.751   9.707 -0.0705  0.0164  0.1783
 4432W        W 8632   6.049   8.039  11.558 -0.1430  0.2214 -0.0386
 4433W        W 8633   4.170   8.191   1.204 -0.1399 -0.0072 -0.2822
 4434W        W 8634   3.365   5.819   1.290 -0.2368  0.0688  0.0597
 4435W        W 8635   3.347  10.530  10.869 -0.0333  0.0137  0.2306
 4436W        W 8636   2.004   3.836  11.056  0.1737 -0.1590  0.0439
 4437W        W 8637   2.724   2.642   3.013 -0.1673 -0.1506 -0.1615
 4438W        W 8638   4.769   8.524   3.898 -0.0480 -0.1331 -0.1360
 4439W        W 8639   9.709   7.848   2.045  0.0433  0.1381  0.1996
 4440W        W 8640   7.272   0.862   9.226 -0.3010 -0.1159 -0.0721
 4441W        W 8641   5.376   7.358   2.997  0.3540  0.3133 -0.0303
 4442W        W 8642   2.195   2.957  11.999 -0.1470 -0.0896  0.0996
 4443W        W 8643   8.688   9.319  12.086  0.2924 -0.1404  0.0243
 4444W        W 8644   7.035   4.826  11.006 -0.0324  0.2196 -0.0210
 4445W        W 8645   7.424   0.787   1.035  0.1391 -0.2033 -0.1844
 4446W        W 8646   6.634   4.123   9.347  0.2081  0.2484 -0.3354
 4447W        W 8647   5.635   9.271   0.794  0.0916  0.4257  0.0513
 4448W        W 8648   7.734   0.164   8.848 -0.0747  0.0073 -0.3573
 4449W        W 8649   5.202   1.450  10.955  0.2463 -0.0461  0.2443
 4450W        W 8650  10.705   0.122   8.274 -0.2908 -0.0009 -0.1247
 4451W        W 8651   1.244   6.641  10.661  0.2402 -0.1637 -0.0523
 4452W        W 8652   0.059   6.146  11.492 -0.2256 -0.1265  0.0159
 4453W        W 8653   0.891   8.647  11.699  0.0868  0.1199  0.0126
 4454W        W 8654   6.422   1.570   8.480 -0.2136 -0.0157 -0.0516
 4455W        W 8655   4.377   0.894   3.939  0.0731  0.0160 -0.3176
 4456W        W 8656   2.341   7.319  11.522  0.1683 -0.2793 -0.1069
 4457W        W 8657   3.066   3.164  11.534  0.2293 -0.0019  0.3167
 4458W        W 8658   4.877   2.737   0.182  0.0931 -0.1821 -0.0406
 4459W        W 8659   2.766   1.321  10.667  0.0570  0.1179  0.1995
 4460W        W 8660   0.836   9.633  12.575  0.0931  0.0169  0.1107
 4461W        W 8661   1.653   5.660   3.212  0.1257 -0.2042 -0.0951
 4462W        W 8662   1.391   3.134   0.419 -0.2581 -0.0483  0.2572
 4463W        W 8663   5.219   3.823  10.212 -0.0557 -0.0079  0.1370
 4464W        W 8664   9.672   8.030  10.659  0.2525 -0.2022 -0.0407
 4465W        W 8665   1.898   9.361   9.122  0.3728 -0.1514 -0.1048
 4466W        W 8666   4.848   0.204   9.883 -0.0802 -0.0873 -0.3588
 4467W        W 8667   6.577   5.143   1.925  0.3086  0.0239 -0.0066
 4468W        W 8668   5.899   9.973   0.333  0.2313 -0.5287  0.0716
 4469W        W 8669   7.940   0.123  10.752  0.2368  0.2197  0.4822
 4470W        W 8670   3.277   8.745  12.094 -0.0271 -0.3147 -0.4070
 4471W        W 8671   8.408   5.649   2.680  0.2452 -0.2208 -0.1915
 4472W        W 8672   1.718   6.086  11.350 -0.1081  0.0494  0.0136
 4473W        W 8673   6.184   4.195   3.751  0.2621 -0.1579  0.0989
 4474W        W 8674   0.377  10.178   1.960  0.0848 -0.3083  0.1673
 4475W        W 8675   3.856   6.073   9.681  0.3021 -0.0974 -0.2044
 4476W        W 8676   8.842   3.769   9.381 -0.1502  0.1551 -0.0595
 4477W        W 8677  10.264   2.030  10.502  0.1165 -0.0527 -0.2227
 4478W        W 8678   0.486   7.066  11.662  0.1947 -0.3041 -0.0553
 4479W        W 8679   9.886   3.378  11.848 -0.0314  0.0357 -0.0578
 4480W        W 8680   1.246  10.268  12.581 -0.0607  0.2310  0.0561
 4481W        W 8681   0.526   0.033   0.228  0.2799  0.0456  0.0134
 4482W        W 8682   2.818   5.600   0.552 -0.4285  0.0471 -0.2685
 4483W        W 8683   2.296   3.008  12.473 -0.2100 -0.1062 -0.1312
 4484W        W 8684   2.776   3.288   0.541  0.2597 -0.1605 -0.0135
 4485W        W 8685  10.583   9.366  11.654  0.1304  0.1145 -0.1598
 4486W        W 8686   9.746   2.075  10.117  0.0287  0.0940  0.1618
 4487W        W 8687   6.249   7.051   7.579  0.3783 -0.0320  0.0017
 4488W        W 8688  10.624   9.956   8.067  0.0898  0.1161  0.2125
 4489W        W 8689   2.099   0.680   0.408 -0.2125 -0.4106 -0.4763
 4490W        W 8690   7.617   4.711  11.859  0.2504  0.1796 -0.2484
 4491W        W 8691  10.473   6.248   8.635  0.0833 -0.0635 -0.1067
 4492W        W 8692   1.650   7.822  11.987  0.0790  0.1699  0.0819
 4493W        W 8693   3.631   7.941  12.374  0.3019 -0.0494  0.0981
 4494W        W 8694   3.256   4.628   2.191  0.1653 -0.1310  0.0854
 4495W        W 8695   1.916  10.545   1.513  0.0657  0.0714  0.2151
 4496W        W 8696   7.035   9.445   0.667  0.1131  0.0165 -0.0617
 4497W        W 8697   0.792   3.009  11.210 -0.1182  0.1813  0.0831
 4498W        W 8698  10.280   6.061  11.471  0.0338 -0.0523 -0.0817
 4499W        W 8699   9.232   6.251   1.838  0.0542  0.2792  0.4436
 4500W        W 8700   8.827   4.341  12.148 -0.1908 -0.1595  0.0384
 4501W        W 8701   1.496   6.313   1.944  0.1524  0.1181 -0.2496
 4502W        W 8702   8.832  10.690   0.956  0.0327 -0.1666  0.4056
 4503W        W 8703   3.809   7.072   0.172  0.2179  0.1617 -0.1027
 4504W        W 8704   0.551   6.957   8.890 -0.1462 -0.1023  0.0583
 4505W        W 8705   0.179   0.139  10.354  0.2576 -0.0466 -0.2432
 4506W        W 8706   3.059   5.048   4.261 -0.2071 -0.0441  0.0327
 4507W        W 8707   9.177   9.399   3.451  0.2799 -0.0586  0.0138
 4508W        W 8708   2.359   4.896   0.968  0.0701 -0.0612 -0.1796
 4509W        W 8709   1.943  10.408   7.290  0.2330  0.2194  0.3473
 4510W        W 8710   1.061   8.263   1.116  0.4048  0.0789  0.1646
 4511W        W 8711   4.560   1.053  12.824  0.2982  0.0336 -0.1495
 4512W        W 8712   1.732   8.885   9.234 -0.0274  0.2626 -0.2606
 4513W        W 8713   0.953   9.887   8.354  0.2499  0.0571  0.2780
 4514W        W 8714   1.360   6.391  12.647 -0.3552 -0.0042  0.0679
 4515W        W 8715   1.970   0.960   2.746 -0.0617 -0.1369  0.1914
 4516W        W 8716   9.031   1.219   3.201  0.1305 -0.3080  0.0595
 4517W        W 8717   7.227   9.891   0.900  0.1744  0.0528 -0.0224
 4518W        W 8718   6.267   7.535   3.353 -0.1151  0.1135 -0.0389
 4519W        W 8719   0.194  10.662  11.153 -0.4575 -0.0299  0.0444
 4520W        W 8720   3.591   2.557   2.567  0.0259 -0.2517 -0.1143
 4521W        W 8721   7.438   2.286  12.767  0.2517  0.4733 -0.0354
 4522W        W 8722   8.843   7.095   0.331  0.2734  0.0004  0.2097
 4523W        W 8723   9.790   6.481   3.432 -0.1081  0.2292  0.1363
 4524W        W 8724   6.025   4.102  10.789 -0.1807  0.1703 -0.2386
 4525W        W 8725   0.554   5.307   1.449  0.0657 -0.0141  0.1151
 4526W        W 8726   7.179   2.597   9.442 -0.0891  0.0882  0.4097
 4527W        W 8727   3.611   6.536  10.802 -0.2549 -0.3550 -0.0991
 4528W        W 8728   9.414   2.229  12.720 -0.1804  0.1972  0.2399
 4529W        W 8729   4.006   8.759   3.888  0.2263  0.1502 -0.0713
 4530W        W 8730   3.188   8.198  10.069  0.2947  0.1019  0.0584
 4531W        W 8731   3.457   0.999  12.805  0.1055 -0.1426 -0.4940
 4532W        W 8732   1.126   6.470   4.278 -0.0340 -0.3277 -0.0136
 4533W        W 8733   9.852   1.517   2.706 -0.1696  0.2211  0.0647
 4534W        W 8734   3.686   3.191   9.191 -0.4092 -0.1389  0.0199
 4535W        W 8735   9.201   7.720  11.609  0.0955  0.0153  0.1779
 4536W        W 8736   8.447  10.552   9.283  0.2324 -0.1410 -0.1635
 4537W        W 8737   6.687   8.483   0.381  0.1419  0.0576 -0.0140
 4538W        W 8738   0.053   1.460   2.127 -0.3963 -0.1056 -0.0234
 4539W        W 8739   8.961   2.540   9.621 -0.0514  0.1129  0.0588
 4540W        W 8740   9.619   6.325   8.687  0.1032  0.0332 -0.0977
 4541W        W 8741   1.582  10.661  10.882  0.0494  0.1409 -0.1055
 4542W        W 8742   4.098   5.437   9.092  0.2563 -0.2630  0.1719
 4543W        W 8743   9.210   2.757   9.210 -0.0240  0.1475  0.1861
 4544W        W 8744   3.332   5.327  12.439 -0.3197 -0.2306  0.0599
 4545W        W 8745   0.096   8.699   9.907 -0.0831 -0.3068  0.1202
 4546W        W 8746   3.946   6.464   0.831 -0.0683  0.0015 -0.1850
 4547W        W 8747   6.611   8.882  10.010  0.1463 -0.1519  0.0210
 4548W        W 8748   5.854   3.238   8.312 -0.0025 -0.3460  0.0196
 4549W        W 8749   1.443   2.117   0.794 -0.2878  0.2642 -0.0113
 4550W        W 8750  10.331   5.591   3.466 -0.2608 -0.1077  0.1700
 4551W        W 8751   7.821   1.164  11.491 -0.1682 -0.2586 -0.1756
 4552W        W 8752   1.333   7.454   0.592  0.0036 -0.2596  0.0656
 4553W        W 8753   4.196   5.654   4.713  0.0819 -0.0086 -0.0434
 4554W        W 8754   6.334   0.007   9.864 -0.2836 -0.1738  0.0096
 4555W        W 8755   8.541   1.135   3.129 -0.0054 -0.0296  0.0335
 4556W        W 8756   9.643   0.159  11.982  0.0356 -0.0819  0.4891
 4557W        W 8757   5.526   9.570  10.980  0.3789  0.0174 -0.3081
 4558W        W 8758   3.044   5.891   2.885 -0.0134 -0.2076  0.1175
 4559W        W 8759   1.955   8.159   9.747  0.1639 -0.1811 -0.2616
 4560W        W 8760   5.533   8.762   9.137 -0.1709 -0.1445  0.4590
 4561W        W 8761   8.211   6.612   9.379 -0.2682  0.0879 -0.1395
 4562W        W 8762   4.750   1.369   9.250  0.1724  0.0033  0.1395
 4563W        W 8763   6.373   8.067   1.182  0.0815 -0.0816 -0.2717
 4564W        W 8764   1.837   5.960   8.344  0.0022 -0.1758 -0.0923
 4565W        W 8765   5.517   1.981  12.677 -0.1782 -0.0874 -0.2539
 4566W        W 8766   1.106   9.284   1.248 -0.1259  0.0209 -0.2068
 4567W        W 8767   1.586   9.230  12.415  0.1185  0.1974 -0.0991
 4568W        W 8768   2.307  10.247  12.594 -0.1346  0.2215  0.3001
 4569W        W 8769   2.901   9.234   1.030 -0.4794  0.0953 -0.2536
 4570W        W 8770   3.685   4.401  12.664  0.0015 -0.0802 -0.3000
 4571W        W 8771   5.478   3.280  11.053  0.0433 -0.3356  0.1341
 4572W        W 8772   6.378   0.718   2.163 -0.2586  0.1314  0.1409
 4573W        W 8773   2.455   4.886   8.281  0.1047  0.1344  0.0261
 4574W        W 8774  10.365   4.820   0.197 -0.0349  0.2250  0.2655
 4575W        W 8775   5.657   7.187   4.235 -0.0646 -0.0140  0.0167
 4576W        W 8776   3.989   6.226  10.685 -0.0005  0.0751  0.1566
 4577W        W 8777   4.644   2.034  11.412  0.1083 -0.1218  0.1846
 4578W        W 8778   1.960   1.416  12.774  0.1204  0.1258  0.4014
 4579W        W 8779  10.574   3.302   9.894 -0.0780 -0.0765  0.2821
 4580W        W 8780   0.880   7.781   4.023 -0.2114  0.0069 -0.3992
 4581W        W 8781   7.479   3.331   3.437  0.1686 -0.1663  0.1013
 4582W        W 8782   2.213   7.922   3.617 -0.2560 -0.2206  0.0709
 4583W        W 8783   3.081   2.961  10.446 -0.0616 -0.1778  0.0443
 4584W        W 8784   4.584   3.604   7.825  0.1880  0.1479  0.2767
 4585W        W 8785   4.670   2.408  12.026 -0.1182 -0.2004 -0.0367
 4586W        W 8786   4.871   1.781   2.773 -0.0794 -0.2401  0.1338
 4587W        W 8787  10.150   8.117   8.870 -0.0483  0.0093 -0.0548
 4588W        W 8788   8.083   2.334  11.057  0.1542 -0.1617  0.0975
 4589W        W 8789   4.826   9.890   3.276  0.4485 -0.0967 -0.0188
 4590W        W 8790   4.156   6.683   4.749 -0.0921  0.0163 -0.0945
 4591W        W 8791   0.137   0.381   0.351 -0.1451  0.0642  0.0971
 4592W        W 8792   6.860   3.981   0.052  0.2089 -0.0009 -0.0999
 4593W        W 8793   8.902   5.320  11.251  0.0675 -0.0723 -0.0825
 4594W        W 8794   0.848   8.081   8.871 -0.2067 -0.0640  0.0811
 4595W        W 8795   3.766   4.021  10.926 -0.0891  0.0361 -0.0008
 4596W        W 8796   3.084   2.908  11.980 -0.1668 -0.0721 -0.0656
 4597W        W 8797   9.319  10.094   2.677  0.2002  0.0095 -0.0286
 4598W        W 8798   2.656   7.973   3.288  0.0613  0.1427 -0.1187
 4599W        W 8799   8.901   2.908   0.718 -0.0682 -0.0762 -0.0655
 4600W        W 8800   0.550   3.409   1.757  0.0883 -0.0814 -0.3003
 4601W        W 8801   3.242   7.780  11.435  0.1645 -0.4000  0.1315
 4602W        W 8802   8.870   2.118  11.708  0.0226 -0.1172  0.0243
 4603W        W 8803   9.467   5.475  10.827 -0.1022 -0.0799  0.2620
 4604W        W 8804   0.422   6.114   2.005 -0.0442 -0.2328  0.0092
 4605W        W 8805   8.499   9.861  10.153 -0.2291  0.0278 -0.0001
 4606W        W 8806   0.605   6.955  10.216  0.1567 -0.3062 -0.0747
 4607W        W 8807   4.351   4.936  12.718 -0.0881  0.0077 -0.3214
 4608W        W 8808   2.632   4.298  11.790 -0.2674 -0.1051 -0.0238
 4609W        W 8809   2.130   4.916   2.629 -0.0176  0.0024  0.2257
 4610W        W 8810   2.022   7.472   3.699 -0.2563 -0.2295  0.0409
 4611W        W 8811   3.672   5.678   0.478 -0.2184 -0.2666 -0.0731
 4612W        W 8812   6.714   8.176   9.671  0.0884 -0.0319 -0.1043
 4613W        W 8813   8.263   4.775   0.869 -0.0023 -0.0309 -0.0891
 4614W        W 8814   6.459   5.086   4.600  0.0847  0.1437 -0.0879
 4615W        W 8815   4.166   1.095  12.486 -0.0257 -0.1539 -0.1047
 4616W        W 8816   0.022   8.600  11.277 -0.0088  0.0869 -0.2976
 4617W        W 8817   5.765   9.877   1.803  0.2723 -0.0831  0.0633
 4618W        W 8818   3.697   2.717   3.249 -0.0309 -0.0934  0.0557
 4619W        W 8819   9.317   0.179   0.704  0.1127 -0.2322  0.0971
 4620W        W 8820   2.697   7.267   9.010  0.1200  0.1902  0.1053
 4621W        W 8821   6.137   1.763  11.741  0.2243  0.3346  0.0364
 4622W        W 8822   5.838   7.168   3.282 -0.3625 -0.1372 -0.1989
 4623W        W 8823   3.270   7.698   9.564 -0.0004 -0.1219  0.0232
 4624W        W 8824  10.271   9.458   8.681  0.0953  0.1429 -0.1519
 4625W        W 8825   9.940   3.469   3.150  0.0849  0.0496  0.2916
 4626W        W 8826   7.780   8.216   1.417 -0.2205  0.0199 -0.0748
 4627W        W 8827   9.559   8.739   2.232  0.1374  0.3892  0.3100
 4628W        W 8828   1.299  10.684  11.658  0.0430 -0.0479  0.2751
 4629W        W 8829   6.119   2.009  12.724 -0.2079  0.0998  0.1612
 4630W        W 8830   3.053   5.181   4.771  0.1199  0.0342 -0.1474
 4631W        W 8831  10.519   1.215   3.283 -0.1110  0.4132 -0.0898
 4632W        W 8832   2.119   5.444   8.304  0.2011 -0.0009  0.0098
 4633W        W 8833   7.118   5.329  10.300  0.0487  0.2807 -0.1475
 4634W        W 8834   2.187   8.876   3.489 -0.1878 -0.1667 -0.0921
 4635W        W 8835   2.523   3.789   9.773  0.0113 -0.2155  0.0346
 4636W        W 8836   7.174   2.505  11.165  0.2426 -0.0736  0.0883
 4637W        W 8837   9.605   9.801   0.089 -0.1265 -0.0202  0.2978
 4638W        W 8838   4.088   5.124  11.977 -0.2319 -0.2250  0.0660
 4639W        W 8839   1.560   0.144   2.432  0.3141 -0.3971 -0.3736
 4640W        W 8840   7.806   8.060  11.038  0.3412  0.2639 -0.7524
 4641W        W 8841   3.017   8.201  11.012  0.1229  0.1652 -0.2152
 4642W        W 8842   5.037   0.751   2.316 -0.0581 -0.2737  0.0888
 4643W        W 8843   7.852   7.638   9.514 -0.2475 -0.1143  0.0992
 4644W        W 8844   2.620  10.116   3.825 -0.1309  0.0642  0.3013
 4645W        W 8845   2.159   5.227   7.770  0.2640 -0.0007  0.0677
 4646W        W 8846   2.586   8.460  10.902 -0.0768 -0.3014 -0.1905
 4647W        W 8847   7.556   0.962  11.055  0.1055  0.1145  0.1981
 4648W        W 8848   1.079  10.243  11.690  0.1302 -0.2647  0.1879
 4649W        W 8849   6.036   8.625   9.925 -0.1462  0.1462 -0.0797
 4650W        W 8850   4.630   1.060  10.395  0.0910  0.1484  0.2201
 4651W        W 8851   8.040   1.075  12.757 -0.1414 -0.0874  0.0689
 4652W        W 8852   7.389  10.045  12.542  0.0495 -0.0956 -0.3104
 4653W        W 8853   0.463  10.026   3.490 -0.0392  0.0476 -0.1472
 4654W        W 8854   3.584   6.649  11.729 -0.0460 -0.1828  0.1482
 4655W        W 8855   9.809  10.466   1.482  0.1776  0.0634 -0.1420
 4656W        W 8856   5.543   2.023   0.773  0.0748 -0.0022  0.2012
 4657W        W 8857   0.629  10.587   3.435 -0.2412  0.0972 -0.0818
 4658W        W 8858   0.513   7.724   3.131  0.0023  0.4593 -0.1230
 4659W        W 8859   5.194   5.478   2.499  0.0697 -0.1907 -0.0419
 4660W        W 8860   7.940   5.806  11.291 -0.0682 -0.0017  0.0210
 4661W        W 8861   4.771   7.499  10.559 -0.0055  0.0289 -0.2052
 4662W        W 8862   9.407   1.510   4.399  0.1965  0.1721 -0.4236
 4663W        W 8863   5.910   3.332   2.416  0.0291  0.3142 -0.3373
 4664W        W 8864   6.638   0.048  10.942 -0.2070 -0.3204  0.0993
 4665W        W 8865   6.835   7.007  10.862  0.1413  0.2109 -0.0434
 4666W        W 8866   5.169  10.426   8.213 -0.1688  0.0108  0.3523
 4667W        W 8867   6.794   4.338  11.224 -0.3563 -0.0947  0.1833
 4668W        W 8868   6.770   0.792   3.794 -0.0239  0.1237 -0.3259
 4669W        W 8869   7.819   3.382   4.100 -0.0514  0.0967 -0.3419
 4670W        W 8870   2.883   5.542  12.052 -0.0185 -0.2120  0.4160
 4671W        W 8871   0.062   6.236   0.537  0.1384 -0.2136  0.2887
 4672W        W 8872   7.715   8.977   3.265 -0.2292 -0.1463 -0.2067
 4673W        W 8873   1.224   7.407  11.302 -0.2403  0.0423  0.1312
 4674W        W 8874   8.913   9.940   9.870  0.0715 -0.1419 -0.4453
 4675W        W 8875   4.686   2.672   1.057 -0.0934 -0.0615  0.1022
 4676W        W 8876   7.645   8.256   1.943 -0.0496  0.2096 -0.0175
 4677W        W 8877   8.753   1.778   3.851  0.1795 -0.2340 -0.0170
 4678W        W 8878   5.345   7.848   3.140 -0.0811 -0.0189 -0.4658
 4679W        W 8879   6.042   5.754   2.563 -0.0496  0.0080  0.0378
 4680W        W 8880   7.016   7.202   3.921 -0.0093 -0.0078  0.2733
 4681W        W 8881   5.598   1.733  10.779  0.2964 -0.3058  0.0480
 4682W        W 8882   4.271   3.303  12.319  0.2433 -0.1279 -0.0088
 4683W        W 8883   8.385   1.926  12.777 -0.1101  0.0286 -0.1516
 4684W        W 8884   9.964   6.056   2.221 -0.2225 -0.2854  0.1115
 4685W        W 8885   7.578   2.485   2.437  0.0845  0.0733 -0.1688
 4686W        W 8886   0.944   7.303  11.682 -0.0282  0.1499  0.0360
 4687W        W 8887   5.791   5.797   9.393 -0.2543  0.0808 -0.1959
 4688W        W 8888   6.336   6.419   1.026  0.5336  0.0866 -0.2106
 4689W        W 8889   8.220   5.907  10.874  0.1830  0.0481  0.3799
 4690W        W 8890   0.291   1.317  11.982 -0.0845 -0.1416 -0.2090
 4691W        W 8891   6.442   7.316   9.562 -0.0898 -0.1367  0.0622
 4692W        W 8892   8.577   5.764   8.424  0.1162  0.0644  0.4568
 4693W        W 8893   3.462   4.028   0.102  0.0296 -0.1053 -0.0958
 4694W        W 8894   7.873   6.716   8.054 -0.0852  0.0330 -0.3962
 4695W        W 8895   6.369   3.353   2.634  0.1648 -0.0036  0.1709
 4696W        W 8896   3.845   7.930   3.778 -0.1069  0.4544 -0.0462
 4697W        W 8897   3.253   5.881   0.506 -0.2193 -0.0971 -0.0777
 4698W        W 8898   5.221  10.411   3.933  0.2336 -0.1695 -0.0707
 4699W        W 8899   6.738   7.207   3.211 -0.1316  0.3919  0.0798
 4700W        W 8900  10.203   7.102  12.300  0.1248  0.1898 -0.0108
 4701W        W 8901   1.689   7.847   3.925 -0.0781 -0.1436 -0.1564
 4702W        W 8902   9.542   7.429   1.690  0.1243 -0.2806 -0.1373
 4703W        W 8903   8.473   0.923  10.788  0.0394 -0.0631 -0.1157
 4704W        W 8904   8.285   1.432  10.855  0.1009  0.1160  0.2399
 4705W        W 8905   7.766   4.244   2.457  0.0776 -0.0522 -0.1989
 4706W        W 8906   4.847   2.417   3.727 -0.0198 -0.2083  0.1734
 4707W        W 8907   0.872  10.249   2.002  0.1387 -0.2349  0.0373
 4708W        W 8908   2.086   7.256  12.806  0.2810  0.1120  0.1027
 4709W        W 8909   5.021   7.288   8.428 -0.0179 -0.2253 -0.0811
 4710W        W 8910   0.672   4.300  10.419 -0.0476  0.1853 -0.2406
 4711W        W 8911   2.926   1.237  12.126 -0.2367 -0.0831 -0.2892
 4712W        W 8912   6.558   6.036  12.440  0.0492  0.2925  0.0576
 4713W        W 8913   0.796   0.006   2.707  0.2241 -0.0572  0.0234
 4714W        W 8914   8.043   4.667   9.187 -0.3051 -0.1175 -0.1560
 4715W        W 8915   0.103   6.389   8.310  0.0435 -0.0297  0.0378
 4716W        W 8916   3.265   0.249  11.765  0.2671 -0.0122 -0.2002
 4717W        W 8917   4.961   8.629  12.684  0.1455 -0.0054 -0.1473
 4718W        W 8918   0.615   1.292   2.093 -0.0610  0.1568  0.1756
 4719W        W 8919   4.998   0.707   2.873 -0.1202 -0.0644 -0.1555
 4720W        W 8920   9.745  10.277   9.900  0.0078  0.0238 -0.2467
 4721W        W 8921   9.694   4.206   3.779  0.1070  0.1522 -0.1196
 4722W        W 8922   1.808   3.493   0.398  0.1145 -0.4744  0.0234
 4723W        W 8923   8.823   4.946   8.701 -0.0037  0.1176 -0.3439
 4724W        W 8924   3.479   8.938  10.758 -0.1306 -0.1695  0.1161
 4725W        W 8925   0.747  10.677   9.862  0.2038  0.3285  0.0452
 4726W        W 8926   4.856   8.139   2.575  0.1824 -0.0813  0.1187
 4727W        W 8927   3.418   7.189   4.838 -0.0876  0.0640 -0.0523
 4728W        W 8928   9.880   3.701   9.775 -0.1878 -0.4189  0.0432
 4729W        W 8929   3.315   1.517   2.701 -0.1363 -0.3451 -0.1995
 4730W        W 8930   3.089   6.807   7.756  0.1004  0.2019 -0.0555
 4731W        W 8931   3.158   1.884   8.530  0.0048  0.1822  0.0567
 4732W        W 8932   3.247   8.729   8.421  0.2831 -0.0118 -0.2272
 4733W        W 8933   9.540   2.798  12.184  0.0096  0.1421  0.0169
 4734W        W 8934   4.145   3.022  12.705  0.2430  0.0388 -0.0094
 4735W        W 8935   6.184   2.432   3.665 -0.0057  0.0406 -0.1992
 4736W        W 8936   0.663   7.709   1.829 -0.0793 -0.0896 -0.0250
 4737W        W 8937   4.189   5.214   2.212 -0.0299  0.1140 -0.2522
 4738W        W 8938   3.826  10.726  10.886  0.2779  0.0762  0.0169
 4739W        W 8939   3.810   7.981   8.643 -0.1506  0.0783 -0.4113
 4740W        W 8940   1.437   4.654   0.570 -0.0752  0.0354 -0.1154
 4741W        W 8941   0.566  10.525  10.817  0.4301 -0.1242 -0.0460
 4742W        W 8942   7.547   4.066   0.805 -0.1966  0.2748 -0.0230
 4743W        W 8943   7.685   0.935  10.223 -0.3385 -0.2545  0.2244
 4744W        W 8944   3.766   8.189  12.767  0.2450 -0.0803 -0.2436
 4745W        W 8945   9.138   4.538  11.779 -0.0232 -0.2603  0.2883
 4746W        W 8946   8.513   3.342   9.571 -0.0064  0.0416 -0.0846
 4747W        W 8947   1.710   4.736  12.710 -0.1753 -0.0188  0.0060
 4748W        W 8948   6.869   5.725  11.574  0.1334 -0.0531  0.2712
 4749W        W 8949   7.826   8.545   1.036 -0.3318  0.3630  0.0760
 4750W        W 8950   2.119   3.543   4.466  0.0467 -0.0012  0.2367
 4751W        W 8951   9.463   7.667   2.893 -0.1734  0.1556  0.2166
 4752W        W 8952   4.681   3.573   2.093 -0.1698  0.1130  0.1994
 4753W        W 8953   0.639   1.624   1.362 -0.0211  0.0495  0.2675
 4754W        W 8954  10.464   1.734  11.688  0.0440 -0.1380 -0.0658
 4755W        W 8955   0.790   7.962   9.486 -0.1361 -0.1982 -0.0017
 4756W        W 8956   7.701   7.197  10.848  0.2212 -0.3252  0.2122
 4757W        W 8957  10.037   8.639   9.638  0.1211 -0.1399 -0.1429
 4758W        W 8958   6.686   6.786   8.753 -0.0810  0.0510  0.3019
 4759W        W 8959   7.577   2.739  11.210  0.1468  0.0334 -0.2222
 4760W        W 8960   9.025   7.532   9.837  0.0700  0.0309 -0.1482
 4761W        W 8961   7.838   8.827  12.764 -0.0099  0.0479  0.3428
 4762W        W 8962   0.079   9.231   4.000  0.0893 -0.1997  0.0317
 4763W        W 8963  10.152   7.225   1.043  0.0077 -0.0624 -0.2900
 4764W        W 8964   7.249   6.793   9.982 -0.0648  0.1358 -0.0752
 4765W        W 8965   8.406   3.702   1.847 -0.2070 -0.0012 -0.2902
 4766W        W 8966   8.898   2.381   4.707 -0.3889  0.2577  0.0461
 4767W        W 8967   0.192   8.310   4.192 -0.1414 -0.0238  0.1640
 4768W        W 8968   8.653   4.932   2.230 -0.0468 -0.0320 -0.1215
 4769W        W 8969   9.266   2.316  11.093  0.2418  0.4331  0.0538
 4770W        W 8970   0.363   1.864   3.320  0.2432 -0.2616  0.1900
 4771W        W 8971   1.095   7.686   9.815  0.5099 -0.1954  0.1796
 4772W        W 8972   4.491   6.847   4.400 -0.1051  0.2333  0.0062
 4773W        W 8973   6.243   2.429   1.795  0.1831 -0.0518  0.1520
 4774W        W 8974   9.060   3.612   8.910  0.1670 -0.2094  0.0733
 4775W        W 8975   6.808   2.467  10.487  0.1929  0.1093 -0.0965
 4776W        W 8976   5.283   0.377   3.082  0.1801  0.1973  0.0086
 4777W        W 8977   4.294   6.284   9.295  0.1922 -0.1004 -0.0459
 4778W        W 8978   1.912   6.993  10.684 -0.0148 -0.1700 -0.0091
 4779W        W 8979   1.780   7.583   2.346  0.0544 -0.0207  0.1479
 4780W        W 8980   5.159   4.063   2.715  0.0595 -0.0866  0.1122
 4781W        W 8981   1.692   7.483  11.556 -0.2399 -0.1073  0.4102
 4782W        W 8982   1.145   2.753   9.138 -0.0675  0.1432 -0.0555
 4783W        W 8983   8.881   3.022  11.638 -0.1874 -0.1450 -0.0432
 4784W        W 8984   5.380   2.148  10.407  0.1124 -0.0823 -0.0691
 4785W        W 8985  10.682   2.979  11.045  0.0459 -0.0625 -0.1157
 4786W        W 8986   3.936   5.892   1.193 -0.2605 -0.2162 -0.0423
 4787W        W 8987   4.091   1.722   3.008  0.4755 -0.1779  0.2699
 4788W        W 8988   5.550   3.941  10.625 -0.1346  0.0115 -0.0572
 4789W        W 8989   5.425   1.401   1.939  0.1517  0.1620 -0.1528
 4790W        W 8990   6.934   3.466  12.761  0.2102 -0.4300 -0.1854
 4791W        W 8991   3.756   3.440  10.128  0.2015 -0.1323 -0.2379
 4792W        W 8992   3.841   4.534   2.655 -0.0169  0.4512  0.0653
 4793W        W 8993  10.614   6.679   0.281 -0.0839 -0.0825  0.0365
 4794W        W 8994   5.748   1.491   9.056 -0.1912 -0.2489  0.0087
 4795W        W 8995   4.441   5.471  12.704 -0.0593  0.0678  0.0819
 4796W        W 8996   2.026   3.682   8.704  0.0801 -0.1649 -0.3346
 4797W        W 8997   6.371   4.157  10.271 -0.2628 -0.0238  0.5419
 4798W        W 8998   4.964  10.638  11.601  0.0755 -0.0679  0.2859
 4799W        W 8999   0.953   1.196   1.716 -0.0692 -0.1688  0.1981
 4800W        W 9000   0.570   8.334   9.726  0.0271  0.0285 -0.1134
 4801W        W 9001   1.920   8.312   2.884 -0.2534 -0.3272 -0.0303
 4802W        W 9002   3.820  10.178   3.696  0.3423 -0.2654  0.2963
 4803W        W 9003   0.574   6.163  12.322 -0.0848  0.0981 -0.2464
 4804W        W 9004   7.141   2.983  12.445  0.0114 -0.1150 -0.0072
 4805W        W 9005   4.921   4.221  11.875 -0.0903 -0.0127  0.0379
 4806W        W 9006   7.039   2.633   0.108 -0.0581  0.0066 -0.0247
 4807W        W 9007   9.071   3.150   8.960 -0.0670  0.2708 -0.0835
 4808W        W 9008   2.504   5.436  11.027  0.2618 -0.0785  0.1848
 4809W        W 9009  10.021   8.130  11.454 -0.0395 -0.0306 -0.1914
 4810W        W 9010   5.456  10.419   1.079  0.4905 -0.2995  0.0137
 4811W        W 9011   1.915   0.638   8.322  0.2123  0.1721  0.0229
 4812W        W 9012   7.570  10.119   0.217 -0.0285 -0.0882  0.1256
 4813W        W 9013   8.304   9.624   8.262 -0.1499 -0.0809 -0.2961
 4814W        W 9014   2.165   8.476   8.578  0.0215  0.3068  0.1857
 4815W        W 9015   7.553   0.621   3.519  0.0962 -0.3547  0.1981
 4816W        W 9016   0.688   8.976   1.103  0.0096  0.1570  0.4058
 4817W        W 9017  10.085   6.322   4.384 -0.2129  0.2123  0.0277
 4818W        W 9018   6.147   6.385   0.545  0.1176 -0.5838 -0.0514
 4819W        W 9019   9.512   6.138  10.995  0.1417  0.4910 -0.0817
 4820W        W 9020   6.619   3.308   3.505  0.1857 -0.1158 -0.0276
 4821W        W 9021   1.149   3.714  10.314  0.0668 -0.1235 -0.0927
 4822W        W 9022   5.393   7.342   3.575 -0.0700  0.4199  0.0927
 4823W        W 9023   8.012   9.987   1.829  0.1098  0.0783  0.0708
 4824W        W 9024   4.741   4.796  12.444  0.0046 -0.1595  0.0591
 4825W        W 9025   7.832   7.586   2.148  0.0226  0.2201 -0.3095
 4826W        W 9026   5.221  10.714   8.638  0.2015  0.1550  0.2197
 4827W        W 9027   2.718   0.299   8.621 -0.0596 -0.1316 -0.0085
 4828W        W 9028   7.702   5.364   0.540  0.2021 -0.0723 -0.2943
 4829W        W 9029  10.244   2.331   1.453 -0.0116 -0.1941 -0.0380
 4830W        W 9030   1.566   5.613   9.498 -0.3104 -0.0498 -0.1210
 4831W        W 9031   2.711  10.324   9.223  0.1514  0.0015  0.0040
 4832W        W 9032   2.950   8.303   7.855  0.6023  0.1096  0.1864
 4833W        W 9033   9.415   5.327   3.261 -0.2164 -0.0051  0.0407
 4834W        W 9034   9.285   9.540   9.689 -0.1576  0.2313  0.2062
 4835W        W 9035   8.052   9.243   3.618  0.3302 -0.0775  0.1924
 4836W        W 9036   0.017   7.897  11.727 -0.1517  0.2149 -0.1424
 4837W        W 9037   0.724   2.351   0.192 -0.3679 -0.1311 -0.0321
 4838W        W 9038   9.707   9.159  12.447 -0.1789  0.1469  0.1347
 4839W        W 9039   2.196   0.843   2.254 -0.0524  0.1188 -0.0985
 4840W        W 9040   4.160   4.197  10.756  0.0500 -0.1901 -0.0332
 4841W        W 9041   9.020   3.685  11.373  0.2582 -0.5151 -0.0265
 4842W        W 9042   3.564  10.080   0.092 -0.1235 -0.0509 -0.0383
 4843W        W 9043   8.277   8.738   0.744  0.1796 -0.0052 -0.0453
 4844W        W 9044   4.372  10.566   3.066  0.0658  0.1557  0.1257
 4845W        W 9045  10.103   1.837  12.026  0.0290 -0.2224 -0.2226
 4846W        W 9046   4.178   0.411   2.041  0.3120 -0.2275  0.1785
 4847W        W 9047   7.030   8.461   3.118 -0.1448  0.0535  0.1739
 4848W        W 9048   8.762   8.050   1.105 -0.0505 -0.1055 -0.0711
 4849W        W 9049   9.378   8.712  10.278  0.0184 -0.3086 -0.0653
 4850W        W 9050   2.019   4.344  11.311  0.2111  0.0389 -0.2961
 4851W        W 9051   2.224   0.551  11.775 -0.1502  0.1404  0.1381
 4852W        W 9052   3.271   6.562   1.898  0.1476 -0.1467 -0.0474
 4853W        W 9053   5.161   0.549  11.185 -0.1744  0.0906 -0.2425
 4854W        W 9054  10.513   9.886  11.403 -0.3714  0.0259  0.2017
 4855W        W 9055  10.422   1.484   2.572  0.1399  0.2252  0.1130
 4856W        W 9056   9.650   7.418   8.172 -0.1831 -0.1428  0.2103
 4857W        W 9057  10.398   1.633  10.784 -0.0085  0.0533  0.0960
 4858W        W 9058   1.769   5.569   0.072  0.0810 -0.3751 -0.2939
 4859W        W 9059  10.065   4.525  12.499 -0.2471  0.0181 -0.0849
 4860W        W 9060   3.580   9.033   7.940  0.0297  0.0102  0.3674
 4861W        W 9061   3.431   9.160   9.808  0.2480 -0.1371  0.2074
 4862W        W 9062   7.463   0.224  11.367  0.1491 -0.1863  0.1831
 4863W        W 9063   0.002   6.345   2.191  0.0481  0.3485  0.1643
 4864W        W 9064   6.891   5.961  10.182  0.1229  0.2835 -0.0378
 4865W        W 9065   6.875   2.151  11.492  0.0995  0.1213  0.2411
 4866W        W 9066   4.472   0.111   3.709  0.2694  0.0193  0.1674
 4867W        W 9067   7.954   3.311   2.578  0.0311  0.0907 -0.1439
 4868W        W 9068   4.646   7.153   0.938 -0.0022 -0.2527 -0.1721
 4869W        W 9069   8.282   2.387  12.648 -0.3591 -0.1069 -0.2122
 4870W        W 9070   7.707   1.197   9.172 -0.3254  0.0343  0.1170
 4871W        W 9071   7.741   8.006   0.920  0.0505  0.1414  0.2381
 4872W        W 9072   7.165  10.479  11.229 -0.1002  0.0492  0.2807
 4873W        W 9073   1.769   6.567   0.778  0.0899 -0.2910  0.3964
 4874W        W 9074   8.136   9.665   2.147 -0.1009  0.0364  0.1163
 4875W        W 9075   5.438   3.233   2.310 -0.0963  0.1824  0.0098
 4876W        W 9076   9.163   0.526  11.258 -0.1552 -0.0975 -0.1384
 4877W        W 9077  10.686   1.257   1.347 -0.0516 -0.3029  0.2769
 4878W        W 9078  10.210   9.855   0.989 -0.0609  0.1402  0.0716
 4879W        W 9079   5.752   3.012   2.864 -0.2536 -0.3209  0.0574
 4880W        W 9080   5.649   7.437  12.315 -0.0001 -0.1018 -0.0369
 4881W        W 9081   6.128   9.060   2.941 -0.2195 -0.1937 -0.1008
 4882W        W 9082   8.336   2.259   0.291  0.3598  0.0487 -0.0131
 4883W        W 9083   8.038   0.538   0.221  0.0429 -0.0460 -0.4993
 4884W        W 9084   4.376  10.077   8.937 -0.2189  0.1894 -0.0083
 4885W        W 9085   1.560   0.680   9.431  0.1922  0.2424 -0.4126
 4886W        W 9086   7.157   8.559  10.997 -0.0871  0.1475 -0.0430
 4887W        W 9087   7.275   3.122   9.564  0.3620  0.0412 -0.0198
 4888W        W 9088   3.395  10.237  12.375 -0.5379  0.2235 -0.0144
 4889W        W 9089   0.379   5.622  11.327  0.0310 -0.2676 -0.1728
 4890W        W 9090   9.652   3.139   3.776  0.1244  0.0833 -0.0953
 4891W        W 9091   6.200   2.494   9.954 -0.1702  0.5042 -0.0137
 4892W        W 9092   4.123   7.096   0.569  0.2811 -0.0458  0.1445
 4893W        W 9093   6.752   7.392   2.744 -0.2899 -0.2028 -0.1500
 4894W        W 9094   5.977   6.886   1.466 -0.1668 -0.0697  0.1370
 4895W        W 9095   1.995   2.487  10.975  0.1476  0.3197  0.0303
 4896W        W 9096   4.183   2.420  11.363 -0.3920  0.3029 -0.1826
 4897W        W 9097   2.390  10.614   1.890 -0.1575  0.0301 -0.2568
 4898W        W 9098   5.901   8.023   9.305  0.3185 -0.0072  0.0328
 4899W        W 9099   1.273   7.815   2.989 -0.0553  0.3172  0.3264
 4900W        W 9100   9.160   0.757   9.199 -0.0266  0.0106  0.0546
 4901W        W 9101   3.312   6.981   2.133 -0.1236  0.1195 -0.1495
 4902W        W 9102   9.584  10.055   1.809 -0.1345 -0.2593 -0.1449
 4903W        W 9103   7.306   5.097   9.554 -0.3997 -0.1222  0.1243
 4904W        W 9104   6.131   4.204   4.315 -0.1801 -0.1233  0.0066
 4905W        W 9105   9.023   0.336  12.707  0.2051 -0.1589 -0.3125
 4906W        W 9106   8.273   3.645  11.990 -0.2091 -0.1179 -0.0190
 4907W        W 9107   8.803   9.016   3.675  0.1008 -0.1472 -0.2453
 4908W        W 9108   6.601   8.780  11.942 -0.1434 -0.2499 -0.0779
 4909W        W 9109   5.083   1.270   2.291  0.1759  0.1716 -0.1105
 4910W        W 9110   1.962   0.601  11.327 -0.0937 -0.1343 -0.1500
 4911W        W 9111  10.132   3.590  12.235 -0.1603 -0.0789  0.0941
 4912W        W 9112   6.858   2.495   9.069 -0.0475 -0.3409 -0.1843
 4913W        W 9113   5.873   2.798  11.599 -0.1827 -0.0578  0.0744
 4914W        W 9114   6.602   6.353  12.076  0.2365  0.2083  0.1928
 4915W        W 9115   7.447   3.987   8.407  0.0328  0.2622  0.1668
 4916W        W 9116   3.388   3.677   9.306  0.2525  0.1022 -0.1640
 4917W        W 9117   6.181   6.972   9.884 -0.0255  0.2187 -0.0653
 4918W        W 9118   4.302   6.445   2.868  0.2879  0.1688 -0.0151
 4919W        W 9119  10.279   9.172  12.112  0.0520 -0.2448  0.2255
 4920W        W 9120   2.229   7.011  11.101  0.1211 -0.0120  0.1426
 4921W        W 9121   6.542   7.968   8.246 -0.0524 -0.1093 -0.4953
 4922W        W 9122   1.253   7.512   2.502 -0.1564  0.0331 -0.2802
 4923W        W 9123   1.574   0.399  11.694  0.0034  0.0550 -0.0724
 4924W        W 9124   5.101   9.209   2.830 -0.0492 -0.0783 -0.3526
 4925W        W 9125  10.126   1.074   2.952  0.0929 -0.2677 -0.1079
 4926W        W 9126   0.730   2.132   2.878  0.2280 -0.1748  0.0455
 4927W        W 9127   0.516   4.419   4.150  0.0443 -0.4638  0.0789
 4928W        W 9128   2.149   5.798  12.580  0.2526  0.0448 -0.1205
 4929W        W 9129   5.904   2.381   2.177 -0.2247  0.1150 -0.2890
 4930W        W 9130   1.375   3.076   9.619  0.3001  0.1786  0.1067
 4931W        W 9131   8.230  10.430   1.688  0.4303  0.5157 -0.0840
 4932W        W 9132   7.231   8.042   0.111 -0.1972  0.3063  0.3747
 4933W        W 9133   0.325   6.906   1.340  0.0206 -0.2809  0.1043
 4934W        W 9134   5.264   7.658  11.888  0.0251 -0.0408 -0.1334
 4935W        W 9135   6.703   9.728   9.210 -0.0978  0.0146 -0.1193
 4936W        W 9136   0.067  10.708  12.140 -0.1549  0.1894 -0.0084
 4937W        W 9137   3.264  10.642   2.343  0.0104 -0.0437 -0.0992
 4938W        W 9138   7.997  10.324   0.256  0.2506  0.3468 -0.2008
 4939W        W 9139   1.573   6.510  11.563  0.1379  0.0941  0.1461
 4940W        W 9140   4.721   4.021   2.360  0.1873  0.0865  0.2654
 4941W        W 9141   7.553   3.083   2.512 -0.2119  0.2425 -0.1294
 4942W        W 9142  10.468   9.995   2.515  0.2010  0.1286 -0.0106
 4943W        W 9143  10.022   7.643   0.792  0.1582  0.0298 -0.1639
 4944W        W 9144   6.623   1.256   4.017 -0.0400  0.3580  0.4271
 4945W        W 9145   1.033   3.583   2.937 -0.0575 -0.0574 -0.1331
 4946W        W 9146   1.235   0.664   1.390 -0.2727  0.0705 -0.1069
 4947W        W 9147   6.560   9.836  10.227  0.1457 -0.1300  0.0096
 4948W        W 9148   9.974   3.685   1.358 -0.0207  0.3072  0.3244
 4949W        W 9149   4.813  10.107   3.755 -0.4446  0.1149 -0.1584
 4950W        W 9150   2.230   7.407  10.672 -0.0179 -0.0462 -0.1732
 4951W        W 9151   0.235   8.776   0.146  0.0560 -0.0931  0.0690
 4952W        W 9152   8.319   5.677  12.414  0.1240  0.2558  0.0038
 4953W        W 9153   3.889   9.982   1.882  0.0344  0.0884  0.2866
 4954W        W 9154   9.761   1.269   1.860 -0.1356  0.1076 -0.0217
 4955W        W 9155   8.388   3.335   2.244 -0.1097 -0.0066  0.1018
 4956W        W 9156   3.357   0.057   4.925  0.1305 -0.1607  0.0208
 4957W        W 9157   1.100   3.388   3.882  0.3214  0.0368 -0.4970
 4958W        W 9158   7.637   4.327   3.890 -0.0614 -0.0462  0.0992
 4959W        W 9159   6.015   1.070   9.540 -0.1267  0.1091 -0.1488
 4960W        W 9160   7.687   2.955  11.688 -0.2035 -0.1278  0.3435
 4961W        W 9161   1.442   8.550   9.516  0.3395  0.3004  0.3957
 4962W        W 9162   6.134   9.784   9.958 -0.3455 -0.1518 -0.0046
 4963W        W 9163   0.973   3.301   0.767  0.1009  0.2999 -0.0388
 4964W        W 9164   4.474   5.178  11.697  0.2128 -0.2240 -0.1446
 4965W        W 9165   3.013   3.586   8.901 -0.0925  0.1126  0.1964
 4966W        W 9166   0.567   7.795  12.328  0.4648  0.0880 -0.4041
 4967W        W 9167  10.465   5.086   1.692 -0.0362 -0.1412  0.1611
 4968W        W 9168   6.779   2.647  11.509 -0.0340  0.2873  0.1152
 4969W        W 9169  10.331   8.288  10.028 -0.1865  0.1844  0.0954
 4970W        W 9170   2.799   5.822   4.224 -0.0080  0.1509  0.2173
 4971W        W 9171  10.181   5.651   2.561  0.1162  0.0930 -0.0871
 4972W        W 9172   9.329   7.618   8.759  0.0953  0.1315 -0.2138
 4973W        W 9173   7.514   4.346  12.619 -0.1289  0.3426 -0.3728
 4974W        W 9174   7.568   0.985  11.958  0.1981  0.0374 -0.1624
 4975W        W 9175   2.060   8.882   4.069  0.0940 -0.2215 -0.0577
 4976W        W 9176   4.535   7.344   2.912 -0.1818  0.2321 -0.0720
 4977W        W 9177   9.702   9.487   8.523  0.0793 -0.0571 -0.0685
 4978W        W 9178   7.267   8.034   8.770  0.2565  0.2006  0.0442
 4979W        W 9179   4.745   5.258  11.244  0.0649  0.1202  0.2473
 4980W        W 9180   1.493   1.266   2.539 -0.0916 -0.0197  0.0447
 4981W        W 9181   3.355   6.106   9.995 -0.0750 -0.0925  0.2487
 4982W        W 9182   4.277  10.020   3.981  0.0914  0.1127 -0.2817
 4983W        W 9183   5.010   8.386   9.080  0.0018  0.1535  0.0147
 4984W        W 9184   8.747   5.371   1.157 -0.0788  0.1891 -0.3068
 4985W        W 9185   1.667   2.670  10.032 -0.3587  0.1107 -0.0488
 4986W        W 9186   4.846   6.141   3.516 -0.0116 -0.2967 -0.0609
 4987W        W 9187   6.906   4.699   8.721 -0.0011  0.0723  0.1514
 4988W        W 9188   6.691  10.256  10.899 -0.2499  0.0191 -0.0092
 4989W        W 9189   5.460   5.116   1.234 -0.0866 -0.1849  0.2041
 4990W        W 9190   9.462   6.721   8.892  0.0603  0.0205  0.2055
 4991W        W 9191   1.429   0.506   0.949  0.0310  0.1509 -0.0676
 4992W        W 9192   1.824   1.923   9.238  0.3526 -0.0162 -0.0356
 4993W        W 9193   3.257   3.553   2.029  0.0984 -0.1595  0.1565
 4994W        W 9194   2.807   5.166   8.577  0.3232 -0.1729 -0.1824
 4995W        W 9195   3.973   4.399  11.280 -0.4268 -0.0775  0.2887
 4996W        W 9196   1.921   6.311   9.920 -0.2164  0.2440 -0.1097
 4997W        W 9197   4.301   9.496  10.699  0.2920  0.0716  0.1350
 4998W        W 9198   5.655   5.280   2.744 -0.2376  0.0655 -0.0969
 4999W        W 9199   4.105   8.978   1.852  0.0111  0.0920  0.0751
 5000W        W 9200  10.666   9.470   3.206 -0.1889  0.1113  0.2755
 5001W        W 9201   1.305   4.860  12.435 -0.1193 -0.0108  0.1123
 5002W        W 9202   6.131   9.521  10.387  0.2214 -0.2923  0.2180
 5003W        W 9203   0.003   5.860  11.090  0.2555 -0.0926 -0.1401
 5004W        W 9204   1.115   7.070   8.793  0.0821  0.2331  0.4047
 5005W        W 9205   0.407   2.061  12.749  0.1949  0.2655  0.1529
 5006W        W 9206   2.146   4.180  10.622  0.2601 -0.0192 -0.0876
 5007W        W 9207   6.919   8.010  11.627 -0.0534  0.0852 -0.1538
 5008W        W 9208   5.316  10.219   8.640  0.1478 -0.0767  0.0562
 5009W        W 9209   8.475   9.118   0.990  0.3078 -0.0740 -0.0288
 5010W        W 9210   9.910   5.505   8.477 -0.1182  0.0739  0.1601
 5011W        W 9211   2.913   8.267   3.781  0.0744 -0.1383  0.0457
 5012W        W 9212   2.201   1.192   3.716 -0.4552 -0.1192  0.0004
 5013W        W 9213   4.392   2.307   1.966  0.1671 -0.0044  0.0083
 5014W        W 9214   6.995   8.749   1.594 -0.0759 -0.4531  0.0725
 5015W        W 9215   9.909   6.786  10.168  0.2650  0.0384 -0.2541
 5016W        W 9216   3.883   0.953   1.082  0.1257 -0.1936  0.0801
 5017W        W 9217   3.051   0.199  10.653  0.1785 -0.0011 -0.1166
 5018W        W 9218   7.774  10.645   3.401 -0.2833 -0.1740  0.1874
 5019W        W 9219   3.380   4.295   2.584  0.0752 -0.0518 -0.2917
 5020W        W 9220   1.092   6.635   1.085 -0.4251  0.1277  0.0676
 5021W        W 9221   7.537   9.747  10.202 -0.0620 -0.0311  0.4868
 5022W        W 9222   7.443   6.944   2.145 -0.1923 -0.2443  0.1275
 5023W        W 9223   1.259   0.446   2.897  0.0688  0.0772  0.1664
 5024W        W 9224   9.569   4.355  12.447  0.0010  0.3343  0.0445
 5025W        W 9225   0.988   7.418   1.522 -0.2735 -0.2866  0.4541
 5026W        W 9226   5.571   3.479   2.734  0.0849 -0.0074 -0.2734
 5027W        W 9227   4.942   7.840   2.172  0.1785  0.0110 -0.2980
 5028W        W 9228   4.938   2.458   4.699  0.2647  0.1765  0.1145
 5029W        W 9229   5.459   1.791   0.315 -0.1813  0.0766 -0.3374
 5030W        W 9230   3.780   7.400   9.363  0.1693 -0.4153  0.2377
 5031W        W 9231   6.872   9.495  12.079 -0.1240  0.0860 -0.1388
 5032W        W 9232   4.884   1.529  12.402  0.1793 -0.1197 -0.0609
 5033W        W 9233   2.895  10.020   9.589  0.0145 -0.1673 -0.2888
 5034W        W 9234   5.151   2.962  12.547 -0.1096 -0.1211 -0.2417
 5035W        W 9235   0.976   6.153  12.775  0.2554 -0.0573  0.2456
 5036W        W 9236   2.740   0.225   0.117  0.1551  0.2546  0.2623
 5037W        W 9237   7.976   2.788   2.491 -0.1982 -0.3711 -0.0079
 5038W        W 9238   2.375   0.094  10.112  0.3493  0.3523  0.4417
 5039W        W 9239   7.267   4.349   8.844 -0.1723  0.1857 -0.1761
 5040W        W 9240   6.425   9.516   0.904 -0.0982  0.1871  0.0502
 5041W        W 9241   2.509   2.420   0.033 -0.0671 -0.0834  0.0614
 5042W        W 9242   3.477   3.470   8.765  0.1613 -0.2146 -0.0942
 5043W        W 9243   9.296   4.034   2.894 -0.0890  0.3155 -0.0629
 5044W        W 9244   5.168   3.707  10.991  0.2603 -0.0408 -0.0274
 5045W        W 9245   2.058   8.814  11.754  0.0989  0.2842  0.0904
 5046W        W 9246   1.144   3.246  10.139  0.0895  0.0762 -0.1553
 5047W        W 9247   4.463   2.870  11.782  0.1222 -0.2441 -0.3722
 5048W        W 9248   0.867   9.972   0.088 -0.1218  0.0412 -0.2729
 5049W        W 9249  10.274   0.634  12.118  0.0500 -0.0138  0.3778
 5050W        W 9250   1.060   7.109   3.595  0.1402  0.2871  0.1349
 5051W        W 9251   2.552   9.515   2.317 -0.0116 -0.3247  0.0799
 5052W        W 9252   4.175   1.627  11.477 -0.1530 -0.2138 -0.1030
 5053W        W 9253   7.450   9.405   1.313 -0.1783 -0.1467  0.0060
 5054W        W 9254   3.314   8.284   8.267 -0.0259 -0.1838  0.1911
 5055W        W 9255   4.403   6.142  11.683  0.0419 -0.3080 -0.2256
 5056W        W 9256   5.183   6.002   1.707 -0.0502  0.3456 -0.2760
 5057W        W 9257   4.853   2.767   1.836  0.1311 -0.0226 -0.0412
 5058W        W 9258   8.655   6.135  10.717  0.3381  0.3176 -0.0611
 5059W        W 9259   3.546   0.421  12.600  0.1009  0.1183 -0.2065
 5060W        W 9260   9.242   7.322   3.175  0.2054  0.0638 -0.2127
 5061W        W 9261   9.611   1.535  12.046  0.1845  0.2114 -0.0755
 5062W        W 9262   8.290   0.501   2.225  0.1110  0.1492 -0.0902
 5063W        W 9263   6.996   5.965   4.402  0.1185  0.0736 -0.1027
 5064W        W 9264   9.895   9.163   3.571  0.4877  0.2013 -0.1767
 5065W        W 9265   4.826   8.965  12.348  0.1714 -0.1790  0.0941
 5066W        W 9266   3.024   1.005   3.454  0.0118  0.1816 -0.2054
 5067W        W 9267  10.551   4.217   8.999  0.2375  0.0347 -0.1211
 5068W        W 9268   4.028   1.510   8.985 -0.3377  0.0433 -0.0127
 5069W        W 9269  10.344   3.892  11.886  0.1382  0.0594  0.0416
 5070W        W 9270   7.099   0.594   3.349 -0.0171 -0.0281 -0.1955
 5071W        W 9271  10.575   7.061   9.426  0.0073 -0.1638 -0.2230
 5072W        W 9272   8.232   4.309   1.501  0.0700  0.0792 -0.1142
 5073W        W 9273   7.257  10.223   0.554 -0.2504 -0.2578 -0.1395
 5074W        W 9274   3.878   5.753   3.435  0.0974 -0.1235 -0.2231
 5075W        W 9275  10.660   1.963   0.703  0.5210 -0.1959  0.1353
 5076W        W 9276   0.699  10.351  11.406  0.1469 -0.2155 -0.0046
 5077W        W 9277   1.475   2.163  11.520 -0.1390  0.0996 -0.1938
 5078W        W 9278   4.728   3.327   1.065  0.2607 -0.0680  0.2760
 5079W        W 9279   8.442   3.456   0.542  0.0472 -0.1420 -0.0031
 5080W        W 9280   0.187   1.573   1.656  0.2033 -0.1110  0.0129
 5081W        W 9281   0.190   4.964   3.434 -0.0333 -0.0791  0.0214
 5082W        W 9282   9.869   1.145   0.001  0.1360 -0.2134  0.1235
 5083W        W 9283   4.405   6.885  12.342  0.1396 -0.2406 -0.0328
 5084W        W 9284   3.516   6.534  10.288  0.0370 -0.2212  0.2875
 5085W        W 9285   1.064   6.300   0.451  0.0722 -0.2475  0.2273
 5086W        W 9286  10.391   6.271  10.962 -0.0244 -0.0990 -0.4706
 5087W        W 9287   0.428   9.353  12.331 -0.1030 -0.1429  0.0449
 5088W        W 9288   2.264   1.400  12.341 -0.0547 -0.1231 -0.1680
 5089W        W 9289   4.239   7.524   9.603  0.0355 -0.1818 -0.0600
 5090W        W 9290   7.201   2.465  10.077  0.2284  0.1658 -0.1951
 5091W        W 9291   9.973   2.387   3.120  0.0700  0.2371 -0.1123
 5092W        W 9292   0.561   5.581  12.273  0.0933  0.0196  0.0091
 5093W        W 9293   6.988   2.028  12.745  0.2967 -0.2072 -0.1060
 5094W        W 9294   5.440   8.544  10.678 -0.2545 -0.0655  0.1016
 5095W        W 9295   5.767   0.805   9.856  0.1254  0.5776 -0.3635
 5096W        W 9296   0.785  10.061   7.762 -0.1034  0.0602  0.1958
 5097W        W 9297   3.782   0.424   0.985  0.2217  0.0722  0.1204
 5098W        W 9298   4.600   7.182  11.435 -0.1232 -0.2365 -0.0807
 5099W        W 9299  10.461   2.174  12.005  0.4264  0.0998 -0.1021
 5100W        W 9300   5.600   4.203  11.191 -0.0662  0.2208 -0.0457
 5101W        W 9301   3.035   7.942   4.215 -0.1716 -0.2330  0.1358
 5102W        W 9302   8.136   5.628   9.710 -0.0791  0.2394  0.1328
 5103W        W 9303   6.566   8.828   0.747 -0.2337 -0.1026  0.0035
 5104W        W 9304  10.501   8.777   0.101 -0.0124  0.0796  0.0026
 5105W        W 9305   7.238   6.780   8.855 -0.0743 -0.0731  0.1848
 5106W        W 9306   9.713   3.152  11.389 -0.1355  0.2651  0.4302
 5107W        W 9307   2.208   0.989  12.765  0.1691 -0.0012 -0.1197
 5108W        W 9308   3.361   3.564   3.760 -0.0664 -0.2776  0.1293
 5109W        W 9309   9.710  10.676   3.527 -0.1411  0.0432 -0.2565
 5110W        W 9310   3.566   6.008   0.860  0.0806  0.2721 -0.2225
 5111W        W 9311   1.758   8.185   7.817 -0.2206  0.3271 -0.1213
 5112W        W 9312   1.639   8.920   9.796 -0.0535  0.1133 -0.0683
 5113W        W 9313   3.144   6.634  12.363  0.0573 -0.1658  0.0085
 5114W        W 9314   6.427   6.383   2.937  0.3179  0.3717 -0.3850
 5115W        W 9315   5.542   7.633   3.925  0.1793  0.3678  0.1534
 5116W        W 9316  10.726  10.629   1.741 -0.2499 -0.2004 -0.0416
 5117W        W 9317   7.415  10.382   9.051 -0.0826 -0.5516 -0.0389
 5118W        W 9318  10.473   0.715  11.634  0.0338  0.1320 -0.0376
 5119W        W 9319   5.274   9.247  11.833 -0.1746 -0.3058 -0.0580
 5120W        W 9320   6.149   0.758  10.124  0.0142  0.0229 -0.2950
 5121W        W 9321   9.379   3.631   2.517  0.2459  0.0408  0.0511
 5122W        W 9322   9.650   7.966   0.814 -0.1100 -0.2489  0.0000
 5123W        W 9323   0.464   7.237   1.801 -0.1422  0.3620 -0.0675
 5124W        W 9324   7.374   6.803   1.560 -0.5162 -0.2461  0.0267
 5125W        W 9325   9.552   2.045   2.879 -0.1388 -0.1079 -0.3229
 5126W        W 9326   0.932   6.589   3.774  0.2479 -0.1498 -0.2712
 5127W        W 9327   9.523  10.003   9.426 -0.0776 -0.2124 -0.1294
 5128W        W 9328   6.073   6.153   9.161  0.0340 -0.0224 -0.0885
 5129W        W 9329   1.236   4.923   2.560  0.1189 -0.0928  0.0809
 5130W        W 9330   7.195   2.079   3.330 -0.0910  0.0828  0.0149
 5131W        W 9331   5.954   2.662  10.553  0.0426 -0.1734  0.2331
 5132W        W 9332   6.595   4.211  12.106  0.1851  0.0450  0.0479
 5133W        W 9333   7.415   0.379   9.154 -0.0759 -0.1371  0.0335
 5134W        W 9334  10.382   8.483   1.049 -0.1463 -0.1266 -0.0546
 5135W        W 9335   0.395   9.021   1.995 -0.3034 -0.1566 -0.3655
 5136W        W 9336   3.367   4.781  10.282  0.0464  0.0068 -0.1462
 5137W        W 9337   0.584   6.355   2.441  0.4538 -0.0752 -0.2220
 5138W        W 9338   0.149   2.413   3.711  0.1016 -0.2151  0.3329
 5139W        W 9339   9.034   6.254   1.040  0.2236 -0.1327  0.0038
 5140W        W 9340   4.964   0.297   2.556 -0.2891  0.4201 -0.1322
 5141W        W 9341   5.651   6.308   0.477 -0.4365 -0.2557  0.1721
 5142W        W 9342   5.125   6.379   1.347  0.0633 -0.0459 -0.3684
 5143W        W 9343   5.913   5.903  10.533  0.2281  0.0696 -0.0199
 5144W        W 9344   3.438   7.536   3.092 -0.0359 -0.0905 -0.0333
 5145W        W 9345   3.628   0.961   9.463 -0.0438 -0.0998  0.4081
 5146W        W 9346   7.742   7.485  11.814  0.0503 -0.1342  0.2542
 5147W        W 9347   4.417   2.796  10.018 -0.2208 -0.0339 -0.1214
 5148W        W 9348   6.546   9.750   0.139  0.2255  0.0441 -0.0222
 5149W        W 9349   8.158   1.792  10.402 -0.0873  0.0578 -0.0170
 5150W        W 9350  10.242   3.378   2.193 -0.1123 -0.0174  0.0591
 5151W        W 9351  10.433   3.978  10.981  0.0755 -0.1812 -0.1553
 5152W        W 9352   5.600   7.001  10.798 -0.0092 -0.0624 -0.2396
 5153W        W 9353   9.883   7.977   2.937  0.1911 -0.4329 -0.0155
 5154W        W 9354   9.556   9.070   1.856 -0.0745 -0.0332  0.0576
 5155W        W 9355   8.334   3.650   2.752  0.1241  0.0995 -0.0160
 5156W        W 9356   7.267  10.547   3.113 -0.1034  0.0858  0.1124
 5157W        W 9357   3.679   9.069  11.537 -0.0172 -0.0664 -0.1059
 5158W        W 9358   8.953   6.650   4.160 -0.2561 -0.1212  0.3438
 5159W        W 9359   9.077   5.236   1.986  0.1121  0.0668  0.0648
 5160W        W 9360   7.773   7.455   3.547 -0.2246  0.3170  0.1282
 5161W        W 9361   9.537   4.839   2.810  0.3662 -0.0580 -0.1009
 5162W        W 9362   8.250   0.819   1.435  0.1176  0.1130 -0.0728
 5163W        W 9363   0.681   0.945   9.741  0.0906  0.0372  0.1922
 5164W        W 9364   7.848   2.244   2.792  0.2229 -0.1758  0.2201
 5165W        W 9365   5.767   5.269  11.147  0.0595  0.0918 -0.0363
 5166W        W 9366   2.575   7.371  11.055  0.1696 -0.0921 -0.1863
 5167W        W 9367   8.691   2.046   9.476  0.2477 -0.1951 -0.0765
 5168W        W 9368   1.464   2.571   2.845 -0.1521  0.0930  0.6152
 5169W        W 9369  10.409   2.151   3.772 -0.0544  0.1131  0.0356
 5170W        W 9370   8.224   8.784  11.520  0.0639  0.0089  0.1025
 5171W        W 9371   1.411   5.706   8.406 -0.4515  0.1843  0.2069
 5172W        W 9372   3.419   4.780   2.675 -0.1202  0.0322 -0.0525
 5173W        W 9373   4.784   2.642   8.778  0.0495 -0.0994 -0.2492
 5174W        W 9374   2.527   6.330  11.339 -0.1222  0.2281 -0.1616
 5175W        W 9375   1.647   4.468  12.240 -0.1478 -0.2628 -0.2716
 5176W        W 9376   1.654   6.468   9.462 -0.2611  0.1879 -0.0155
 5177W        W 9377   7.414   5.142   1.800 -0.1004  0.3426 -0.0674
 5178W        W 9378   9.347   7.946   1.248  0.2995 -0.2311  0.0378
 5179W        W 9379   0.722   0.169  10.348  0.0213  0.3536  0.0956
 5180W        W 9380   2.195   5.314   3.577 -0.1641  0.2800  0.0072
 5181W        W 9381   2.501   1.967   7.684  0.1613 -0.0418 -0.2406
 5182W        W 9382   4.031   4.188   1.767 -0.0431 -0.1327 -0.1202
 5183W        W 9383   0.831  10.180   1.116 -0.2781 -0.1044  0.1803
 5184W        W 9384   4.427   0.706   0.880  0.1093  0.0610  0.2122
 5185W        W 9385   2.538   5.732   3.535  0.0030 -0.2276  0.0163
 5186W        W 9386   7.168   2.956   9.063 -0.0839 -0.0371 -0.2422
 5187W        W 9387   6.644   2.374  11.034 -0.3458  0.3053  0.2316
 5188W        W 9388   8.499   7.369   0.645  0.1242  0.5703  0.0024
 5189W        W 9389   8.282   3.965   0.109 -0.4090 -0.1341  0.3316
 5190W        W 9390   9.451   2.234   2.361 -0.0453 -0.0663 -0.0459
 5191W        W 9391   5.014   6.234   2.134  0.0926 -0.1106  0.2390
 5192W        W 9392   2.007   5.946   8.920  0.1582 -0.2677  0.1015
 5193W        W 9393   1.084   0.442   2.405  0.1561  0.1132  0.0029
 5194W        W 9394   0.992   1.208   0.497  0.1475  0.2156 -0.3449
 5195W        W 9395   2.287   9.558   4.702 -0.0481  0.1008 -0.0401
 5196W        W 9396   3.907   7.432  10.926  0.0924  0.0547  0.0211
 5197W        W 9397   1.590   1.146  12.561 -0.2200 -0.1296  0.3082
 5198W        W 9398  10.139   4.491   9.230 -0.1532 -0.2227  0.0691
 5199W        W 9399   9.551   9.565  10.502 -0.3052  0.0461 -0.0267
 5200W        W 9400   1.038   4.123   3.113 -0.1638 -0.0720 -0.0327
 5201W        W 9401   1.139   4.228   0.735  0.0684  0.0043  0.2046
 5202W        W 9402   9.952   0.351   1.823  0.0665 -0.1933 -0.0949
 5203W        W 9403   6.175   3.784   1.296 -0.4611 -0.0114  0.2548
 5204W        W 9404   6.638   3.964   9.813 -0.2177  0.2399 -0.3822
 5205W        W 9405   9.538   6.651   1.280 -0.1624  0.0653  0.1236
 5206W        W 9406   7.976   2.250   8.405  0.0565 -0.3227  0.0255
 5207W        W 9407   3.550   7.854   0.977  0.1675 -0.1446  0.0963
 5208W        W 9408   3.962   3.649  10.529 -0.0717  0.1378  0.1355
 5209W        W 9409   5.061   5.604  11.015  0.2960 -0.1972 -0.1130
 5210W        W 9410   5.708   7.662  10.081 -0.3631 -0.2584 -0.1335
 5211W        W 9411   3.191   9.235   8.639  0.1809  0.0051 -0.0171
 5212W        W 9412  10.180   7.322  10.861  0.0147 -0.0203 -0.1784
 5213W        W 9413   3.897   9.556  11.434  0.0306 -0.1790  0.2969
 5214W        W 9414   4.028   3.801   1.374  0.1566 -0.0472 -0.1080
 5215W        W 9415   6.193   0.863   4.579 -0.0455 -0.1091 -0.1209
 5216W        W 9416   3.598   1.003   0.456  0.1343 -0.2056  0.3685
 5217W        W 9417   2.092   7.973   1.777 -0.1240 -0.1105  0.2114
 5218W        W 9418   4.693   3.796   3.279 -0.0814  0.0098 -0.2068
 5219W        W 9419   9.323   2.358  10.575  0.0785 -0.2989 -0.0168
 5220W        W 9420   1.211   7.589   8.758  0.1305  0.0767  0.1500
 5221W        W 9421   5.142   0.366   1.523 -0.0312  0.0914  0.0240
 5222W        W 9422   2.310   5.615  11.624  0.1051 -0.1869 -0.0427
 5223W        W 9423   8.782   6.459  12.255 -0.0874  0.0414 -0.0372
 5224W        W 9424   0.989   5.874   0.771  0.6821  0.0228 -0.1902
 5225W        W 9425   5.997   6.585   7.641 -0.2334 -0.0435 -0.2399
 5226W        W 9426  10.016   5.593  11.607 -0.0599 -0.1700 -0.2066
 5227W        W 9427   8.947   0.705   0.728  0.1722  0.2050  0.0244
 5228W        W 9428   5.437   6.955  11.608  0.0763  0.0645 -0.0790
 5229W        W 9429   1.077   0.018  10.790  0.0682 -0.4640 -0.0138
 5230W        W 9430   0.513   3.939  12.557  0.2885 -0.1686  0.0831
 5231W        W 9431   2.160   4.918  10.023 -0.1806  0.0845 -0.1599
 5232W        W 9432   3.276   0.616   8.576 -0.0718 -0.1646 -0.0998
 5233W        W 9433   2.751   2.153   0.398 -0.2175  0.1131 -0.3472
 5234W        W 9434   8.492   6.292   0.635  0.5778 -0.0042 -0.1008
 5235W        W 9435   5.383   0.754  10.799  0.0103  0.1280  0.2755
 5236W        W 9436   8.886   0.701   3.119 -0.0251  0.5164  0.0494
 5237W        W 9437  10.015   7.630   1.597  0.0196 -0.2195  0.0402
 5238W        W 9438   8.615   0.340  10.628 -0.4203  0.1228  0.2674
 5239W        W 9439  10.433   6.661   8.056 -0.2166 -0.0292 -0.1506
 5240W        W 9440   6.198   1.982   1.990  0.0126 -0.1219 -0.1600
 5241W        W 9441   4.338   9.565  10.134  0.0344 -0.0597 -0.0245
 5242W        W 9442   3.611   1.709   3.748  0.2595 -0.0903  0.0366
 5243W        W 9443   5.826   1.765   1.136  0.3963  0.0285  0.1428
 5244W        W 9444   3.734   2.195   2.937  0.2087  0.0370 -0.0628
 5245W        W 9445   6.745   5.425   1.053  0.1858 -0.0566  0.0468
 5246W        W 9446   4.578   9.283   3.808 -0.1339  0.0194 -0.0933
 5247W        W 9447  10.264  10.367  10.598  0.3860 -0.3200  0.0184
 5248W        W 9448   2.150   6.880   9.716  0.3082  0.2645  0.1712
 5249W        W 9449   4.001   7.991  11.908  0.1989  0.3556  0.0231
 5250W        W 9450   8.388   0.811   0.889  0.1684 -0.1312  0.1390
 5251W        W 9451   9.973   3.902   3.370 -0.1638 -0.5147  0.1138
 5252W        W 9452   5.941   3.287  11.352  0.1227 -0.0596  0.1145
 5253W        W 9453   0.933  10.571   1.587  0.0074 -0.1998  0.1531
 5254W        W 9454   1.724   7.642   1.851  0.0344  0.0782 -0.0317
 5255W        W 9455   2.521   5.501   2.672 -0.2691 -0.0756 -0.1407
 5256W        W 9456   9.254   6.348  11.474 -0.0677 -0.3942 -0.2164
 5257W        W 9457   9.744   1.138   0.486 -0.0469  0.0035 -0.0082
 5258W        W 9458   3.000   1.305   9.811  0.5703 -0.0534  0.1433
 5259W        W 9459   8.925   3.732  10.380 -0.0914 -0.0610 -0.2114
 5260W        W 9460   9.722   2.554   2.710 -0.0108 -0.1948  0.4513
 5261W        W 9461   2.830   0.613  12.016 -0.2369 -0.0049 -0.0848
 5262W        W 9462   1.009   7.862   8.371  0.0410 -0.0547 -0.0037
 5263W        W 9463   8.406   2.366  11.480 -0.3071 -0.1432 -0.0388
 5264W        W 9464   3.159   6.323  11.968  0.3938  0.1432 -0.0375
 5265W        W 9465   7.550   9.364   9.282 -0.1665  0.4640  0.0877
 5266W        W 9466   9.533   7.562  11.921 -0.0714  0.1765 -0.0769
 5267W        W 9467   5.080   4.463   2.939  0.0038 -0.0356  0.1090
 5268W        W 9468   7.237   1.205   2.709 -0.2135 -0.1300 -0.0689
 5269W        W 9469   3.041   0.961   0.452  0.2414 -0.0262 -0.2314
 5270W        W 9470   0.358   0.533   9.116  0.3430 -0.0341 -0.1139
 5271W        W 9471   4.129   7.235   1.114 -0.1785 -0.1002  0.5990
 5272W        W 9472   5.977   9.372   9.691 -0.0598  0.0218 -0.3866
 5273W        W 9473   3.018   8.316   4.678 -0.0138  0.0297  0.1535
 5274W        W 9474   4.609   4.302   3.279 -0.1398 -0.0572 -0.0812
 5275W        W 9475   6.661   2.875   2.592  0.0202 -0.0736 -0.0534
 5276W        W 9476  10.319   5.674  10.058  0.1247  0.2459  0.1468
 5277W        W 9477   5.845   4.169   9.362 -0.0566 -0.1815  0.2201
 5278W        W 9478   1.388   0.795  11.994 -0.0114  0.0494 -0.1507
 5279W        W 9479   5.416   6.465   1.970 -0.3272  0.0982 -0.0422
 5280W        W 9480   4.800  10.549   3.501  0.0660 -0.1113  0.2781
 5281W        W 9481   2.567   1.647   2.147  0.0211 -0.0246  0.1522
 5282W        W 9482   5.858   0.508   2.276 -0.3478  0.2286 -0.2364
 5283W        W 9483   3.022   7.116  11.030 -0.1048 -0.0086 -0.2588
 5284W        W 9484   7.418   9.107   9.698  0.2753 -0.2899 -0.2009
 5285W        W 9485   5.439   2.179   1.298  0.0567 -0.0606  0.0589
 5286W        W 9486  10.176   8.826  10.622  0.0070 -0.0439 -0.1382
 5287W        W 9487  10.288   3.131   2.642  0.1095  0.2163 -0.1186
 5288W        W 9488   7.363   8.093   8.249  0.3446 -0.4332 -0.0550
 5289W        W 9489   1.360   6.574   2.484  0.0637 -0.4953  0.0811
 5290W        W 9490   9.531   5.640   7.369 -0.0732 -0.1401 -0.0525
 5291W        W 9491   4.421   6.590  10.772 -0.3283 -0.2351  0.1698
 5292W        W 9492  10.563   7.506   0.684  0.3466  0.2289  0.3522
 5293W        W 9493   0.471   3.385   2.323 -0.0772 -0.0077 -0.0362
 5294W        W 9494   5.952   4.440   2.698  0.0768 -0.1602 -0.1044
 5295W        W 9495   1.951   0.109  11.893  0.0923 -0.1911  0.2106
 5296W        W 9496   1.631   6.697   1.235  0.0542  0.2400 -0.1625
 5297W        W 9497  10.095   5.275   9.860  0.0407  0.1381  0.0759
 5298W        W 9498   8.974   9.187   1.106  0.3229 -0.2662 -0.1233
 5299W        W 9499   0.849   2.146  11.423 -0.0387  0.2280 -0.0924
 5300W        W 9500   2.312   1.761   8.929  0.3640 -0.0120  0.2430
 5301W        W 9501   2.451   7.624  11.994  0.0012 -0.2300  0.4183
 5302W        W 9502   9.224   5.172  12.510 -0.2263 -0.1386 -0.0548
 5303W        W 9503   5.721   0.699  11.311  0.2353  0.2210  0.0662
 5304W        W 9504   6.937   9.995   1.891  0.1683 -0.0589  0.0746
 5305W        W 9505   2.427   8.418   3.180  0.2468 -0.2730  0.0378
 5306W        W 9506   4.758   3.042   1.426  0.0732  0.0717 -0.1106
 5307W        W 9507   8.543   0.810   3.511 -0.1314 -0.2824 -0.1041
 5308W        W 9508   7.461   5.619  10.573  0.1455  0.2760  0.1984
 5309W        W 9509   2.954   6.483  11.518  0.0544 -0.1634  0.0093
 5310W        W 9510   7.580   6.481   0.882  0.0300  0.1363 -0.1987
 5311W        W 9511   4.391   3.027   0.312 -0.3287 -0.0023 -0.3563
 5312W        W 9512   3.991   1.693   1.746 -0.3265 -0.1301  0.0390
 5313W        W 9513   7.029   3.078   3.334 -0.1176 -0.4621  0.0321
 5314W        W 9514   8.708   5.610  10.881 -0.0222  0.4327  0.3138
 5315W        W 9515   9.352   0.058  12.434  0.1547 -0.1088 -0.0094
 5316W        W 9516   3.101   9.025   1.485 -0.0567  0.5076 -0.2982
 5317W        W 9517   4.442   6.101  10.969 -0.2253  0.1247 -0.1278
 5318W        W 9518   3.147   8.224  12.196 -0.2139  0.3924 -0.0284
 5319W        W 9519   0.642   3.761   2.620 -0.0525  0.5054 -0.3605
 5320W        W 9520   5.232   1.107   2.766  0.1519 -0.0546 -0.3090
 5321W        W 9521   7.291   2.216   2.805  0.2295 -0.0412 -0.1461
 5322W        W 9522   9.636   9.324   0.293  0.1190 -0.4375 -0.4103
 5323W        W 9523   3.459  10.395   1.920 -0.0449  0.3678 -0.2218
 5324W        W 9524   0.665   3.474  11.218  0.2417  0.2478  0.2442
 5325W        W 9525   5.564  10.483   0.007 -0.0164 -0.1753  0.1065
 5326W        W 9526   5.372   1.152   3.664 -0.2258  0.1205  0.0042
 5327W        W 9527   0.369   7.603   0.920 -0.3051 -0.0940  0.1024
 5328W        W 9528   2.040   3.793   2.820  0.2419  0.1949  0.0738
 5329W        W 9529   7.079   6.308  12.317 -0.0416  0.1641  0.2084
 5330W        W 9530   9.588   2.030  12.057  0.1240  0.1414  0.0520
 5331W        W 9531   4.828   7.637   0.712 -0.4769  0.2356 -0.1459
 5332W        W 9532   3.086   6.068   8.953  0.0248 -0.1198  0.1031
 5333W        W 9533   6.040   5.223   8.773  0.0419 -0.0625  0.0815
 5334W        W 9534   9.473   0.688   0.624  0.0496  0.1120 -0.0194
 5335W        W 9535   0.977   8.647  12.583  0.3551  0.1541  0.0845
 5336W        W 9536   2.889   4.651   3.835 -0.1702 -0.0216  0.0387
 5337W        W 9537   7.520   5.050  12.586 -0.1687  0.4806 -0.2954
 5338W        W 9538   6.282  10.007   3.981  0.3117 -0.0625 -0.2020
 5339W        W 9539   7.273  10.732   1.259 -0.1837  0.2215  0.0006
 5340W        W 9540   5.663   0.366   3.376 -0.4382  0.0094  0.1340
 5341W        W 9541   6.165   9.957  11.688 -0.2635  0.1267 -0.2178
 5342W        W 9542   5.331   0.941   0.699 -0.0106 -0.2162 -0.0120
 5343W        W 9543   0.962   2.930   3.044  0.5014  0.0275  0.3536
 5344W        W 9544   0.553   3.159   0.027  0.2783 -0.0887 -0.2603
 5345W        W 9545   4.008   9.556   1.644  0.1819  0.2265  0.0589
 5346W        W 9546   7.323   5.983   8.472 -0.1770 -0.1242 -0.0163
 5347W        W 9547   9.776   2.162  11.240  0.5075 -0.3548  0.2501
 5348W        W 9548   5.973   8.884   1.559  0.3279 -0.2833  0.3093
 5349W        W 9549   9.181   5.086  10.583 -0.0217  0.1378  0.1041
 5350W        W 9550   4.538   0.048   2.066 -0.0140  0.0424 -0.1829
 5351W        W 9551   0.541   5.543   0.882 -0.2126 -0.0753 -0.0154
 5352W        W 9552   5.630  10.660   3.680 -0.5498  0.2277  0.0593
 5353W        W 9553   9.285   7.900  12.671 -0.1194 -0.4528 -0.3040
 5354W        W 9554   6.541   3.560  10.179 -0.2030  0.1579  0.0849
 5355W        W 9555   0.021   6.129  10.131  0.0455  0.1551 -0.1317
 5356W        W 9556   7.761   3.928  12.553 -0.3057 -0.0491 -0.1507
 5357W        W 9557   3.119  10.146   2.255  0.0360 -0.0075  0.3203
 5358W        W 9558   9.365   7.663  10.623 -0.0812  0.0840 -0.0623
 5359W        W 9559   2.140   5.759  10.670 -0.5351  0.3553  0.4210
 5360W        W 9560   7.332   0.214  10.479 -0.0228 -0.2238 -0.1673
 5361W        W 9561   6.017   6.376   1.400 -0.0978  0.4046 -0.0899
 5362W        W 9562   5.103   9.850   9.972  0.2602  0.0071 -0.1086
 5363W        W 9563   3.907   6.560   3.173  0.0718  0.1437  0.1072
 5364W        W 9564   5.400   4.853   9.911  0.0792 -0.0530  0.0933
 5365W        W 9565   6.514   8.231   7.813 -0.1022 -0.1615 -0.0514
 5366W        W 9566   9.103   1.015   2.650  0.0234 -0.4365  0.0446
 5367W        W 9567   5.949   5.531   3.028 -0.0759  0.4184  0.3547
 5368W        W 9568   2.765   2.811   3.934  0.0414 -0.2018  0.0400
 5369W        W 9569   6.408   2.949   9.796  0.0489 -0.3029 -0.1555
 5370W        W 9570   0.619   2.947   2.075 -0.1823 -0.0636 -0.1271
 5371W        W 9571   2.476   5.410   9.546  0.0003 -0.2654  0.3441
 5372W        W 9572   0.641   3.075   8.861 -0.1843  0.1692 -0.1928
 5373W        W 9573   6.271   4.277  11.294  0.1165  0.0236  0.3483
 5374W        W 9574   9.778   9.514   1.898  0.1956  0.2521  0.2219
 5375W        W 9575   8.115   5.204  10.493 -0.0586  0.1058 -0.1498
 5376W        W 9576   1.309   6.173   8.094 -0.0857  0.0841 -0.2189
 5377W        W 9577   2.118   4.287  11.804  0.0834 -0.0582 -0.0512
 5378W        W 9578   5.829   5.374   0.813  0.2411  0.2049  0.1826
 5379W        W 9579  10.598   6.553   9.268 -0.3022  0.2510  0.1373
 5380W        W 9580   0.383   8.578   4.958 -0.1322 -0.1835 -0.2411
 5381W        W 9581   7.428   9.384   3.269 -0.2583  0.0942  0.1901
 5382W        W 9582   4.416   9.884  11.023 -0.3412  0.0168 -0.1014
 5383W        W 9583   7.991   7.591  10.901  0.3090 -0.3283 -0.1850
 5384W        W 9584   4.163   3.151   2.698 -0.2183 -0.4641  0.1222
 5385W        W 9585   8.254   7.334   2.782  0.0367  0.1945 -0.0075
 5386W        W 9586  10.303   0.399   8.462  0.1499 -0.1621  0.0136
 5387W        W 9587   4.784   6.479   3.834 -0.0450 -0.0647 -0.1257
 5388W        W 9588   1.780   1.582  12.334 -0.0290  0.1043  0.3712
 5389W        W 9589   1.104   7.928  12.108  0.3036 -0.2722 -0.2009
 5390W        W 9590   8.478   2.213   3.744 -0.0975 -0.0804  0.0766
 5391W        W 9591   3.218   2.611   0.936  0.0876  0.0134 -0.0819
 5392W        W 9592   4.434   1.316   1.771 -0.1949 -0.2133 -0.1667
 5393W        W 9593   7.253   9.499  10.528 -0.1007 -0.0885  0.1214
 5394W        W 9594   8.555   0.263   3.341  0.1189  0.3579  0.0188
 5395W        W 9595  10.711   6.467  12.668 -0.0048  0.1231 -0.1037
 5396W        W 9596   4.177   7.824  10.000  0.1283 -0.3558 -0.1977
 5397W        W 9597   2.472   8.297   1.708 -0.1288 -0.2241  0.0868
 5398W        W 9598   6.875   6.294   1.200  0.3364 -0.0720  0.0319
 5399W        W 9599   5.649  10.548  10.446 -0.1661 -0.1995 -0.0035
 5400W        W 9600   9.872   3.066   0.456  0.0456 -0.1873  0.2416
 5401W        W 9601   5.046   1.090  10.609 -0.2573  0.3255 -0.0305
 5402W        W 9602   1.758   3.846  10.552  0.1450 -0.0535  0.1750
 5403W        W 9603   1.151   6.806   8.336 -0.0306  0.1215  0.0415
 5404W        W 9604   2.361   5.495   4.053 -0.0430  0.0831 -0.0898
 5405W        W 9605   3.353   4.929   9.353  0.2767 -0.1337 -0.1565
 5406W        W 9606   3.679   4.217   4.440 -0.1496 -0.4055  0.0756
 5407W        W 9607   4.771   6.219   9.023  0.0280 -0.1129  0.0670
 5408W        W 9608   9.260   1.404   1.894 -0.0852  0.0624 -0.3099
 5409W        W 9609   8.552   4.457   0.034  0.0600 -0.0662 -0.0745
 5410W        W 9610   6.362   5.479   3.309 -0.3264  0.2272 -0.2179
 5411W        W 9611   4.566   5.168   1.842  0.1601  0.1932 -0.0316
 5412W        W 9612   4.241   4.919   9.127 -0.0899 -0.1471 -0.1692
 5413W        W 9613   4.789   8.893   3.497  0.1211 -0.0283  0.4464
 5414W        W 9614  10.482   2.556   1.973  0.0885  0.2153  0.1872
 5415W        W 9615   0.432   9.381  11.751 -0.0649  0.2198  0.2014
 5416W        W 9616   1.803  10.518  12.787  0.0660  0.0861  0.0246
 5417W        W 9617   9.304   4.501   3.096 -0.3126  0.1755 -0.0009
 5418W        W 9618   3.669   2.170  11.915  0.4829 -0.3403  0.3509
 5419W        W 9619   1.829   9.824   2.872  0.1531 -0.0865 -0.2201
 5420W        W 9620   6.263   6.440  10.029 -0.0700  0.0728 -0.1131
 5421W        W 9621   9.396   6.014   9.654 -0.1033 -0.0954  0.1036
 5422W        W 9622   9.617  10.421  12.111  0.0544 -0.2794 -0.1882
 5423W        W 9623   7.478   5.593   2.112  0.0303  0.1042 -0.1227
 5424W        W 9624   9.933   7.680   7.447  0.1616  0.2382 -0.0684
 5425W        W 9625   0.522   9.234   2.854 -0.2438 -0.0587 -0.0232
 5426W        W 9626   5.612   9.708   8.693  0.0912 -0.2323  0.0245
 5427W        W 9627   3.583  10.354  11.346  0.1068  0.1715 -0.0046
 5428W        W 9628   6.224   6.820   3.164  0.1700  0.2947 -0.3188
 5429W        W 9629   6.091   0.465   9.723 -0.0918 -0.0686 -0.3935
 5430W        W 9630   1.679   6.759   1.834 -0.1719 -0.1453 -0.0590
 5431W        W 9631   2.428   6.195   7.648  0.0320 -0.0271 -0.2514
 5432W        W 9632   2.065   4.676  10.816  0.1313  0.0262 -0.0059
 5433W        W 9633   0.892   8.514   2.649 -0.2505  0.0679  0.1374
 5434W        W 9634   7.918   9.466   3.162  0.0709  0.0934  0.1795
 5435W        W 9635   7.193   5.405  12.744  0.0155  0.1154  0.0798
 5436W        W 9636   2.092   6.589  11.349 -0.0654 -0.2593 -0.2631
 5437W        W 9637   7.204   5.878   9.756 -0.1805  0.0687  0.0400
 5438W        W 9638   8.234   2.302   9.209  0.1317 -0.4018  0.1632
 5439W        W 9639   5.083   7.913  11.296  0.1801 -0.0834 -0.2651
 5440W        W 9640   9.489   1.527   0.600 -0.0240  0.1282  0.0880
 5441W        W 9641   5.325   9.797  10.482  0.2269  0.0200 -0.0209
 5442W        W 9642   8.395  10.080   9.045 -0.0726  0.2346 -0.1439
 5443W        W 9643   5.698  10.477   4.232 -0.0173 -0.0260  0.3094
 5444W        W 9644   3.153   9.600   3.990 -0.2067  0.1848 -0.3073
 5445W        W 9645   2.270   9.976  12.145  0.0000 -0.0174 -0.3624
 5446W        W 9646   8.827   1.596   2.824 -0.1805  0.2058 -0.1117
 5447W        W 9647   6.766   7.327   8.696 -0.1632  0.1195  0.0651
 5448W        W 9648   3.852   2.193   7.710  0.0167 -0.2880  0.0537
 5449W        W 9649   6.827   9.321   3.202 -0.1209 -0.2424 -0.1290
 5450W        W 9650   3.335   0.686   4.936  0.0670 -0.3158 -0.0458
 5451W        W 9651   3.407   6.840   1.407 -0.0234  0.1783 -0.4269
 5452W        W 9652   6.274   2.902   2.104 -0.1599 -0.1185  0.0099
 5453W        W 9653   3.572   4.118   1.545 -0.1527  0.1089  0.1300
 5454W        W 9654   9.417   7.159   9.056 -0.2848 -0.2462  0.0002
 5455W        W 9655   9.116   8.115   0.763  0.1539  0.1668  0.2771
 5456W        W 9656   8.098   1.894   8.789  0.0023 -0.0645 -0.1415
 5457W        W 9657   7.186   1.332   1.764  0.0551  0.0620  0.2648
 5458W        W 9658   1.936   6.597   3.381 -0.0613 -0.0064  0.1534
 5459W        W 9659   0.888   5.806   0.281 -0.4134 -0.0523  0.1454
 5460W        W 9660   6.548   3.977   0.516 -0.1139 -0.1514  0.4383
 5461W        W 9661   2.264   4.952   1.466  0.1474  0.0714 -0.3429
 5462W        W 9662   1.489   9.407   2.770 -0.0298  0.0771 -0.2835
 5463W        W 9663  10.697   6.724   7.608  0.2580  0.2742 -0.0597
 5464W        W 9664   6.336   8.389   0.008 -0.0080  0.0155  0.0135
 5465W        W 9665   3.210   4.782  11.352  0.1829  0.1890 -0.0632
 5466W        W 9666   9.885   3.011   2.968 -0.2450  0.0202 -0.1307
 5467W        W 9667   7.175   5.019   2.804  0.1165  0.2318 -0.0661
 5468W        W 9668   6.944   3.176   0.344 -0.3139 -0.0414  0.0359
 5469W        W 9669   8.619   8.426  12.272 -0.1440 -0.1297  0.0500
 5470W        W 9670   9.768   0.679  12.073  0.0518 -0.1422 -0.1749
 5471W        W 9671   0.452  10.316  11.940  0.0370  0.1078  0.1422
 5472W        W 9672  10.620   7.149  11.740  0.0605  0.1556 -0.1696
 5473W        W 9673   7.444   4.995   1.242  0.1460  0.2576  0.1330
 5474W        W 9674   9.043   4.749   8.290  0.1639 -0.0818  0.1099
 5475W        W 9675   2.813   5.443  11.540  0.0149 -0.1167  0.0742
 5476W        W 9676   9.037   9.103  11.083  0.0342  0.2347  0.0931
 5477W        W 9677   1.744   7.363   1.010 -0.2611  0.7565 -0.2081
 5478W        W 9678   1.667  10.452   7.788  0.2754  0.0724 -0.0611
 5479W        W 9679   4.634   3.503   2.679  0.1377  0.3279  0.0098
 5480W        W 9680   6.058   4.570  10.608 -0.2060 -0.0717 -0.1336
 5481W        W 9681   5.152  10.304  10.668 -0.1054 -0.0662 -0.1667
 5482W        W 9682   5.121   3.309  10.084  0.1942 -0.1736 -0.0508
 5483W        W 9683   4.416   4.491   9.260  0.1688 -0.0898 -0.0685
 5484W        W 9684   5.771   2.748   1.927 -0.4032 -0.0097  0.2459
 5485W        W 9685   4.676   4.745  11.484  0.0405 -0.0063 -0.1178
 5486W        W 9686  10.472  10.369  11.843 -0.1842  0.0178  0.0019
 5487W        W 9687   3.176   8.684   3.870  0.0861 -0.1431  0.1171
 5488W        W 9688   3.790   1.286   2.967 -0.1783 -0.0378 -0.0742
 5489W        W 9689   0.725   1.656   0.719  0.0490 -0.3190 -0.1580
 5490W        W 9690   8.124   1.930   1.590  0.2112  0.0319 -0.0093
 5491W        W 9691   2.722   4.136  12.253  0.1151  0.4942 -0.3162
 5492W        W 9692   5.417   8.773   2.850  0.0419 -0.1109  0.0281
 5493W        W 9693   9.840   3.416  10.751  0.0190  0.0456  0.4601
 5494W        W 9694   4.052   5.898   2.576 -0.3603  0.1161 -0.2315
 5495W        W 9695   3.760   7.435   9.864  0.2959 -0.1067 -0.0782
 5496W        W 9696   4.940   4.619   9.782 -0.0755  0.1279  0.0036
 5497W        W 9697   6.170   2.104   9.191 -0.2440  0.2103  0.0569
 5498W        W 9698   3.714   6.757   2.505  0.1353  0.1392 -0.1667
 5499W        W 9699   1.557   0.237  12.492 -0.3828  0.3591 -0.1572
 5500W        W 9700   8.598  10.075   9.508 -0.1057  0.0377  0.0291
 5501W        W 9701   1.915   6.995  11.643 -0.0391 -0.2809  0.0764
 5502W        W 9702   5.740   6.671   3.524 -0.1391 -0.1136 -0.3280
 5503W        W 9703   8.737   0.450   9.266 -0.0027  0.0552  0.2301
 5504W        W 9704   3.670   0.158   0.551  0.0817 -0.0910  0.2570
 5505W        W 9705   8.063   0.289  10.085 -0.0561  0.1369  0.2002
 5506W        W 9706   3.298   7.425  11.744 -0.1063 -0.0891  0.1442
 5507W        W 9707  10.478   1.266  12.258  0.0623 -0.0543  0.1556
 5508W        W 9708   3.418   7.905  11.846  0.1195 -0.1720 -0.0795
 5509W        W 9709   7.090   0.501   1.179 -0.0135  0.2883 -0.2782
 5510W        W 9710   8.731   0.480   2.647 -0.0699  0.1993  0.1300
 5511W        W 9711   9.736   1.850   1.929 -0.0600 -0.1387  0.2496
 5512W        W 9712   6.792   5.582  10.668  0.2301 -0.1601 -0.4986
 5513W        W 9713   2.213   2.839   3.171 -0.2336  0.1678 -0.1963
 5514W        W 9714   8.719   5.568   1.779  0.1455 -0.4414  0.2428
 5515W        W 9715   8.649  10.412   9.855  0.3234  0.1712 -0.1110
 5516W        W 9716   0.865   6.377  11.822 -0.0916 -0.0457  0.0514
 5517W        W 9717   0.439   6.157  11.852  0.1146 -0.0110 -0.3014
 5518W        W 9718   3.807   9.016   1.032  0.2226  0.1402 -0.2365
 5519W        W 9719   9.136   9.917   1.906  0.0484 -0.0001 -0.2015
 5520W        W 9720  10.105   0.474   1.372  0.0945  0.1481  0.4498
 5521W        W 9721   0.236   9.779  11.511 -0.0394 -0.3328  0.3988
 5522W        W 9722   0.806   5.793  11.880 -0.1285 -0.0828  0.2433
 5523W        W 9723   2.738   3.684  11.140 -0.1021  0.2715 -0.3318
 5524W        W 9724   0.357   9.334   0.100 -0.1254  0.1375 -0.1750
 5525W        W 9725   6.360   2.554   8.943 -0.1354 -0.1533  0.1064
 5526W        W 9726   3.174   4.908  10.715 -0.0036 -0.0486 -0.2396
 5527W        W 9727   3.335   9.320   2.237  0.1094  0.0361 -0.3388
 5528W        W 9728   6.740   2.281   3.175  0.0917  0.3019 -0.0025
 5529W        W 9729   1.677   5.582  11.052  0.0341  0.5086 -0.0846
 5530W        W 9730   2.155   0.301   1.711  0.3431  0.2257 -0.2297
 5531W        W 9731   1.617   8.772   0.643 -0.1349 -0.0494  0.0120
 5532W        W 9732   1.761   9.215  11.836 -0.1188  0.0664 -0.1515
 5533W        W 9733   4.957   7.254   3.207  0.0298  0.2867 -0.0541
 5534W        W 9734   0.214   0.619   1.612 -0.3481  0.0636  0.0550
 5535W        W 9735   1.519   4.706  10.976 -0.2386  0.2002 -0.1522
 5536W        W 9736   7.868   3.426  11.665 -0.0283 -0.1345 -0.2810
 5537W        W 9737   7.382   5.404   0.905  0.1148 -0.0815  0.1447
 5538W        W 9738   4.515   2.714   3.517 -0.0405 -0.4449  0.0612
 5539W        W 9739   2.877   4.137   0.755 -0.1083  0.0222  0.1168
 5540W        W 9740   5.558   2.702   9.322 -0.2304  0.1752  0.1681
 5541W        W 9741   0.459  10.188   8.619 -0.1665  0.2124  0.0749
 5542W        W 9742  10.052   7.939   0.378  0.1090 -0.0989 -0.5209
 5543W        W 9743   2.689   4.734   1.660 -0.0308 -0.0265 -0.2114
 5544W        W 9744   6.537   2.725   0.990 -0.2712 -0.0659 -0.1335
 5545W        W 9745   0.208   0.926   0.220 -0.2271 -0.0594  0.2213
 5546W        W 9746   2.084   5.258  12.689  0.1155  0.0436  0.0761
 5547W        W 9747   1.544   5.230   3.453  0.0551  0.0322  0.0071
 5548W        W 9748   1.268   2.359   9.958  0.0439  0.1636  0.1023
 5549W        W 9749  10.264   3.524   0.681  0.2041 -0.3869 -0.1864
 5550W        W 9750   8.735   1.346  10.691  0.1574  0.1230 -0.0812
 5551W        W 9751   8.303   7.994   1.355 -0.0331  0.3661  0.2074
 5552W        W 9752   0.658   7.476   3.576  0.1028 -0.1494  0.0255
 5553W        W 9753   4.296   0.546   9.609  0.4055 -0.1719 -0.1886
 5554W        W 9754   8.578   3.977  11.240  0.0105  0.0429  0.1598
 5555W        W 9755   3.063   0.262   9.386 -0.0655 -0.1646  0.0194
 5556W        W 9756   5.259   6.426   0.800 -0.1543  0.1210 -0.1550
 5557W        W 9757   1.052   1.449  11.901  0.0695  0.1493  0.2265
 5558W        W 9758   6.545  10.566  11.989  0.1372  0.0995  0.3586
 5559W        W 9759   8.774   4.865  12.521 -0.0991 -0.2414  0.1253
 5560W        W 9760   4.106   5.696  12.398  0.1351 -0.1459  0.2151
 5561W        W 9761   8.565   2.842   4.954 -0.1344  0.0074  0.1977
 5562W        W 9762   0.548   8.456   9.125 -0.0841 -0.1286  0.0321
 5563W        W 9763   5.098   7.754  10.196  0.1319 -0.1337  0.0960
 5564W        W 9764   2.582   8.699  10.267 -0.0702  0.2594 -0.0215
 5565W        W 9765   6.505   8.833   2.066 -0.2156 -0.1531  0.1252
 5566W        W 9766   6.610   1.210   8.788 -0.2134  0.2023  0.2362
 5567W        W 9767   7.072   6.719  12.705 -0.3292 -0.0115  0.0767
 5568W        W 9768   3.599   8.474   8.699  0.2620 -0.0018 -0.0737
 5569W        W 9769   9.514  10.662   1.060 -0.1499  0.0318 -0.2268
 5570W        W 9770   0.641   6.901   2.800  0.0000  0.3059 -0.2043
 5571W        W 9771   3.072   1.572   3.217  0.1676  0.1533  0.1257
 5572W        W 9772   9.127   3.497  12.078  0.0429  0.1852 -0.2299
 5573W        W 9773   2.613   2.944   0.058  0.0807  0.2048 -0.0111
 5574W        W 9774   4.745   9.041  10.210 -0.1848  0.0095  0.3522
 5575W        W 9775   2.437   0.798  10.010 -0.0741 -0.1688 -0.0624
 5576W        W 9776   6.417   7.015   1.795  0.1039  0.0584  0.2935
 5577W        W 9777   6.155   0.741   0.810 -0.1968 -0.1055  0.3109
 5578W        W 9778   8.700   0.613  11.717  0.4673  0.2179  0.2104
 5579W        W 9779   4.798   6.661   9.345  0.2772 -0.1599 -0.1763
 5580W        W 9780   9.563   5.838   1.899  0.0888  0.0695  0.1527
 5581W        W 9781   1.125   2.342   8.522 -0.2321 -0.2028 -0.0347
 5582W        W 9782   6.056   7.641   9.712  0.0881  0.2842  0.3504
 5583W        W 9783   2.217   9.301  11.059 -0.0692  0.1861 -0.0176
 5584W        W 9784  10.232   7.096   0.456  0.0536  0.2226 -0.1064
 5585W        W 9785   4.604   8.514   1.122  0.3824  0.1690 -0.1487
 5586W        W 9786   4.411   5.865   0.929 -0.1443  0.0787  0.1648
 5587W        W 9787   0.486  10.429  10.340 -0.1034  0.4038 -0.3366
 5588W        W 9788   8.651  10.585   0.067  0.0725 -0.0566  0.2065
 5589W        W 9789   3.246   9.486   3.362 -0.1757 -0.1971 -0.1685
 5590W        W 9790   5.344   4.190   1.352  0.2424 -0.0405 -0.0449
 5591W        W 9791   8.779   0.752   1.235  0.3505 -0.0332  0.0440
 5592W        W 9792   8.696   7.173   2.450  0.0579 -0.1237  0.1577
 5593W        W 9793   5.287   8.677   3.352 -0.1764  0.0230 -0.1733
 5594W        W 9794   5.425   3.937   4.062  0.2958  0.1225 -0.0548
 5595W        W 9795   0.415   2.613  12.723 -0.0627  0.1232 -0.0122
 5596W        W 9796   5.950   5.120   9.819  0.0695  0.1364  0.1239
 5597W        W 9797   0.559   4.305   0.097 -0.1926  0.1005  0.1187
 5598W        W 9798   7.556   1.309   1.031 -0.2279 -0.0003 -0.0938
 5599W        W 9799   4.077   5.224  10.693 -0.0982  0.1344 -0.0835
 5600W        W 9800   0.763   2.662  10.345 -0.4451 -0.2995 -0.1484
 5601W        W 9801   5.397   5.403  12.734  0.1163  0.0061 -0.1072
 5602W        W 9802   4.468  10.113  12.334  0.0629  0.2799  0.0890
 5603W        W 9803   2.718   7.928   2.358  0.3716 -0.0645 -0.0210
 5604W        W 9804   3.321   0.664   2.138  0.0116  0.0022 -0.1881
 5605W        W 9805   9.865   2.515   1.690 -0.0711 -0.1654 -0.1213
 5606W        W 9806  10.600   8.526   1.555 -0.1491  0.0343 -0.0593
 5607W        W 9807   5.447   4.707   1.030  0.0233  0.2305  0.2876
 5608W        W 9808   8.162   8.300   1.853 -0.1655 -0.0683  0.3244
 5609W        W 9809   3.504   1.923   0.581 -0.1803  0.0382  0.0063
 5610W        W 9810   3.200   1.344  10.306 -0.1647 -0.2654 -0.0705
 5611W        W 9811   5.977   3.714  10.272  0.2443  0.4766 -0.1996
 5612W        W 9812   4.328   8.738   8.743  0.2313 -0.0763 -0.1122
 5613W        W 9813   1.245   5.696  10.765  0.2619 -0.4825  0.0662
 5614W        W 9814   0.933  10.016  11.100  0.2198 -0.3507  0.1223
 5615W        W 9815   8.198   8.241   0.914 -0.2280  0.1428  0.2865
 5616W        W 9816   1.144   1.088   2.188  0.3126 -0.1733  0.2591
 5617W        W 9817   4.641   9.207   2.332  0.1300  0.2072 -0.2189
 5618W        W 9818   4.036   6.121   1.654  0.0488 -0.0919 -0.0856
 5619W        W 9819   3.786   9.427  11.963 -0.1048 -0.2598 -0.0270
 5620W        W 9820   8.554   8.242   2.616 -0.0162  0.3622 -0.2656
 5621W        W 9821   1.720   7.502  10.434 -0.4246 -0.1513 -0.1601
 5622W        W 9822   0.291   7.457  12.628 -0.1334 -0.4891 -0.0474
 5623W        W 9823   2.456   8.005   0.773  0.3192  0.2918 -0.0266
 5624W        W 9824   9.480   8.501   4.060  0.0048 -0.2723  0.0608
 5625W        W 9825   1.481   9.151   1.609  0.0716 -0.1042 -0.0174
 5626W        W 9826  10.392   9.677  10.741  0.1603 -0.0192 -0.0306
 5627W        W 9827   8.403   7.039   1.142 -0.3044  0.1065  0.0358
 5628W        W 9828  10.024   2.935  12.807 -0.0612  0.0283  0.5358
 5629W        W 9829   9.183   3.234  11.251 -0.4712  0.0764  0.0676
 5630W        W 9830   3.518   7.112  10.703 -0.2051  0.5262  0.0340
 5631W        W 9831   6.314   8.594   1.115  0.0357 -0.0639 -0.3202
 5632W        W 9832   0.945   8.016  12.580  0.3373  0.0715  0.0937
 5633W        W 9833   8.005   8.076   3.359 -0.1104  0.1845 -0.0919
 5634W        W 9834   7.437   5.002  10.016  0.0836  0.1503 -0.1891
 5635W        W 9835   1.213   7.843  11.635  0.0568  0.1653  0.2749
 5636W        W 9836   4.385   4.577   0.392 -0.1238 -0.2247 -0.4471
 5637W        W 9837   9.954   3.953   0.106 -0.0795  0.0491  0.1144
 5638W        W 9838   0.344   0.218   3.901 -0.0377  0.1312  0.0823
 5639W        W 9839   6.239   4.250   9.039 -0.0838  0.1698  0.0337
 5640W        W 9840   1.622   0.544  10.380  0.1921 -0.2537 -0.1552
 5641W        W 9841   4.188   0.227   0.622 -0.1353  0.0198 -0.1756
 5642W        W 9842   8.783   6.436   3.641  0.1846 -0.0432 -0.0572
 5643W        W 9843  10.214   2.192   0.516  0.1963  0.0810  0.0712
 5644W        W 9844   3.670   4.910  10.647 -0.0852  0.2980  0.2066
 5645W        W 9845   7.174   9.510   8.959  0.2328 -0.0559 -0.1609
 5646W        W 9846   8.735   9.233  11.508 -0.0243 -0.0965 -0.1913
 5647W        W 9847   7.420   9.206   0.342 -0.4456 -0.0601 -0.1127
 5648W        W 9848   3.387   1.126  11.270 -0.4762  0.0851  0.3873
 5649W        W 9849   0.242   1.378   3.320 -0.0721  0.1286 -0.0960
 5650W        W 9850   4.450   1.698   5.013  0.1399 -0.0469 -0.1639
 5651W        W 9851   8.675   9.316   8.700  0.0856  0.1320  0.1649
 5652W        W 9852   7.777   6.079  11.696 -0.1557 -0.3436  0.4030
 5653W        W 9853   8.711  10.310   3.526 -0.2369  0.0848  0.1724
 5654W        W 9854   5.401   7.247   2.394 -0.2937  0.0909  0.0835
 5655W        W 9855   9.939   7.281   4.350  0.0663  0.2427  0.2234
 5656W        W 9856   0.967   6.469   2.738 -0.1236  0.1138  0.2345
 5657W        W 9857   4.830   4.351   0.644  0.2203 -0.1243 -0.0490
 5658W        W 9858   4.966   1.365  10.161  0.0936  0.1590  0.0160
 5659W        W 9859   9.586   7.172   4.023  0.0383  0.1565  0.1084
 5660W        W 9860  10.283   0.701   3.332  0.0068 -0.1423  0.0724
 5661W        W 9861   3.605   7.785   2.047 -0.1687  0.2463 -0.2052
 5662W        W 9862   8.042   6.615   0.460 -0.2604 -0.1858 -0.0338
 5663W        W 9863   0.768   9.113   8.661  0.1709  0.2208 -0.0328
 5664W        W 9864   5.201   8.601   0.315 -0.3389 -0.0196 -0.0118
 5665W        W 9865   2.037   1.642  10.280 -0.0317 -0.0317 -0.2445
 5666W        W 9866   5.091   9.025   1.680 -0.2350 -0.0122  0.2116
 5667W        W 9867   7.296   2.708   0.574  0.0412  0.1710  0.2618
 5668W        W 9868   8.361   1.401  11.904  0.3325 -0.4241 -0.2524
 5669W        W 9869   4.273   0.328   1.171 -0.0518  0.0390  0.1205
 5670W        W 9870   0.189   9.891   2.310 -0.0059 -0.0174  0.0633
 5671W        W 9871   4.597   9.143   8.907  0.2993  0.0055 -0.0453
 5672W        W 9872   6.736   7.070  12.816 -0.2725 -0.0270  0.2578
 5673W        W 9873   2.525  10.366  12.126 -0.4387 -0.0161 -0.0951
 5674W        W 9874   8.165   0.270   9.109  0.1035  0.1265  0.1682
 5675W        W 9875   1.543   1.491  10.128 -0.0370 -0.1942  0.2829
 5676W        W 9876   9.659   1.967   0.581  0.0766  0.0427 -0.0072
 5677W        W 9877   0.367   1.716   9.359  0.0988  0.2432  0.0679
 5678W        W 9878   2.149   2.352   0.678  0.1312  0.1193  0.2563
 5679W        W 9879   8.665   1.248  11.231  0.0514  0.0318  0.1015
 5680W        W 9880   2.568   7.868   1.895 -0.1918 -0.1120  0.0247
 5681W        W 9881   3.462   8.250   2.841  0.0022  0.0798  0.0744
 5682W        W 9882  10.686   1.811  10.200 -0.2998 -0.0139  0.3634
 5683W        W 9883   9.897   2.429   2.201  0.0243 -0.3011  0.2107
 5684W        W 9884   7.887   5.529  10.830  0.0201  0.2887 -0.1031
 5685W        W 9885   6.780   2.773   0.553 -0.0007  0.4615  0.2275
 5686W        W 9886   6.172  10.276  12.176 -0.1394 -0.3366 -0.1399
 5687W        W 9887   3.902   5.879   2.103  0.0365  0.0396 -0.2870
 5688W        W 9888   2.088   1.858   9.719 -0.1163  0.1068  0.3342
 5689W        W 9889   1.239   9.827   2.125  0.1024 -0.0872 -0.1580
 5690W        W 9890   7.002   6.222  11.667 -0.0994 -0.0933  0.1014
 5691W        W 9891   7.840  10.330  10.725 -0.1539 -0.1258  0.1936
 5692W        W 9892   6.189   2.860  12.632  0.0964  0.1277 -0.2870
 5693W        W 9893   3.860   7.002   9.623 -0.4372  0.3369 -0.0061
 5694W        W 9894   3.199   4.296  12.574 -0.1733 -0.0334 -0.2858
 5695W        W 9895   3.115  10.014  11.407  0.0908 -0.3098 -0.4163
 5696W        W 9896   2.414   6.753   8.940  0.0017 -0.0722 -0.0148
 5697W        W 9897   9.100   2.698  10.847  0.0238 -0.0151 -0.3007
 5698W        W 9898   4.057   4.690  10.830  0.1071  0.4100  0.0635
 5699W        W 9899   7.953   6.413  12.609  0.1392 -0.3093 -0.0874
 5700W        W 9900   6.441   0.009   3.299  0.3896 -0.2569 -0.0412
 5701W        W 9901   7.619   0.359  12.685  0.1430 -0.2302  0.3289
 5702W        W 9902   1.236   6.941   1.432  0.1323  0.0189 -0.1423
 5703W        W 9903   8.084   3.750   4.354  0.2736 -0.0131 -0.3675
 5704W        W 9904   1.082   1.780   4.309  0.0496 -0.1683 -0.3345
 5705W        W 9905   2.280   2.088  10.239 -0.2197 -0.0705  0.1983
 5706W        W 9906   8.533   6.678   0.240 -0.0634  0.1828  0.1390
 5707W        W 9907   8.867   5.917   1.403  0.0520 -0.0431  0.0691
 5708W        W 9908   4.097   7.450   2.013  0.1680 -0.2368 -0.0080
 5709W        W 9909  10.339   3.680  12.786  0.2792  0.0706 -0.3320
 5710W        W 9910   3.708   8.998   2.413  0.1543  0.2894  0.1578
 5711W        W 9911   1.881   1.798   0.598  0.0283 -0.1144 -0.3095
 5712W        W 9912   1.399   5.170  10.646  0.0042  0.0062 -0.1808
 5713W        W 9913   1.166   0.199   9.784 -0.0932 -0.1226  0.1509
 5714W        W 9914   0.527   0.192   0.761 -0.3316  0.1401  0.0766
 5715W        W 9915   7.959   1.393   1.370 -0.0310  0.0009 -0.0191
 5716W        W 9916   9.823   7.390   0.413 -0.0891 -0.1442 -0.1566
 5717W        W 9917   5.424   8.407   1.041 -0.1214 -0.1441 -0.3253
 5718W        W 9918   9.401   6.549  12.363 -0.0400  0.0380 -0.3080
 5719W        W 9919   3.391   9.493   8.071 -0.0559 -0.2106  0.0045
 5720W        W 9920   4.356   8.509   1.899 -0.1094 -0.2357 -0.0478
 5721W        W 9921   5.171   7.149   0.346 -0.1603 -0.0742 -0.1004
 5722W        W 9922   9.414   6.624   0.478  0.3874  0.0284 -0.1432
 5723W        W 9923   8.728   3.580  11.813 -0.3217 -0.0599  0.0499
 5724W        W 9924   2.512   8.359   0.430 -0.0497 -0.0220  0.1922
 5725W        W 9925   0.042   2.329  12.540 -0.1507 -0.0260  0.2782
 5726W        W 9926   1.958   1.278   0.914  0.0269 -0.0447  0.0702
 5727W        W 9927   8.488   0.377  12.249  0.1491 -0.2824 -0.2556
 5728W        W 9928   0.166   8.204   4.709  0.2949 -0.2800  0.1523
 5729W        W 9929   6.021   1.778   3.463 -0.0388  0.0669 -0.2952
 5730W        W 9930   5.406   7.445  10.972 -0.1671 -0.0302  0.1484
 5731W        W 9931  10.014   0.658   0.464 -0.2414  0.0472  0.1039
 5732W        W 9932   2.461   2.724   0.519  0.4470  0.3559  0.3249
 5733W        W 9933   0.874  10.524  12.788  0.2677 -0.0559 -0.0710
 5734W        W 9934   0.971   3.971   9.839  0.2584  0.0804  0.2309
 5735W        W 9935   4.357   6.043   9.893 -0.2434  0.0425  0.0764
 5736W        W 9936   2.407   4.787   8.796 -0.1272 -0.2544  0.4725
 5737W        W 9937  10.534   7.991   1.585 -0.1966  0.1925  0.4213
 5738W        W 9938   2.077   9.717   9.365 -0.0066  0.0033 -0.1913
 5739W        W 9939   2.120   1.297   9.923  0.1140  0.0601  0.0754
 5740W        W 9940   6.767   9.893   8.617 -0.3431 -0.1653 -0.2286
 5741W        W 9941   1.570   5.159  10.009  0.1675 -0.0268  0.2752
 5742W        W 9942   6.046   8.949   4.296  0.2368  0.0568  0.2576
 5743W        W 9943   7.066   5.798   1.105 -0.3042 -0.0970  0.1888
 5744W        W 9944   9.947   4.760   2.541  0.1494 -0.0674  0.0713
 5745W        W 9945   2.931   3.989  10.090 -0.3722  0.1375  0.4119
 5746W        W 9946   8.831   8.368  10.256 -0.0731  0.1350  0.1570
 5747W        W 9947   8.339   2.367  12.043  0.0929  0.0352 -0.0341
 5748W        W 9948   6.293   3.851  12.711  0.3286 -0.1423 -0.2928
 5749W        W 9949   0.671   2.514  11.097  0.3700  0.2411 -0.2551
 5750W        W 9950   4.858   0.411  11.649  0.0813  0.0184 -0.1927
 5751W        W 9951   3.853   5.260  12.481  0.1751 -0.1424 -0.0747
 5752W        W 9952   0.640   0.606   0.355  0.2477  0.1633 -0.3688
 5753W        W 9953   8.346   0.650   8.843 -0.2699  0.1531  0.1715
 5754W        W 9954   9.512   4.564   8.315  0.0766  0.1862 -0.1496
 5755W        W 9955   5.835   0.449  10.556 -0.1347 -0.0911  0.1998
 5756W        W 9956   8.897   3.947   9.876  0.0016  0.2028  0.2619
 5757W        W 9957   4.294   4.839   2.512  0.1186 -0.0752 -0.0262
 5758W        W 9958  10.183   6.733   9.574  0.1720 -0.1405  0.3036
 5759W        W 9959   0.271   8.457   1.858 -0.0287  0.1737 -0.1260
 5760W        W 9960   2.417   2.355  10.604  0.0763 -0.0262  0.3016
 5761W        W 9961   2.460   9.195   2.654 -0.0749 -0.2414  0.2199
 5762W        W 9962   5.765   7.817  11.908 -0.0818  0.0184 -0.2884
 5763W        W 9963   9.866   2.945   2.428  0.1722 -0.1912 -0.1245
 5764W        W 9964   8.521   0.401   3.850 -0.0010 -0.0760  0.0286
 5765W        W 9965   3.436   1.463   9.785  0.0443  0.1019 -0.0674
 5766W        W 9966   9.220   0.367  11.820  0.0007  0.2156 -0.1179
 5767W        W 9967   4.520   5.198   0.347  0.0113 -0.0690  0.0724
 5768W        W 9968   4.181   7.268   9.081 -0.4780  0.1900 -0.1073
 5769W        W 9969   4.206   2.559   7.712 -0.0948 -0.1226 -0.2778
 5770W        W 9970   6.585   7.601  12.407  0.0936 -0.0325 -0.1107
 5771W        W 9971   3.123   3.570   0.813 -0.0518  0.0180  0.0425
 5772W        W 9972   5.923   1.971  11.333 -0.0372  0.4460 -0.0382
 5773W        W 9973   1.319   2.954   2.502 -0.2399  0.3532 -0.0521
 5774W        W 9974   2.895  10.701   0.558  0.0857  0.2138  0.1787
 5775W        W 9975   0.400   0.255  10.795 -0.0308 -0.1198  0.2189
 5776W        W 9976   8.132   9.997  12.301  0.1591 -0.2728  0.2321
 5777W        W 9977   4.859   5.629   0.188  0.3228 -0.3172 -0.1663
 5778W        W 9978   8.489   6.257   9.125 -0.0107 -0.2049 -0.0353
 5779W        W 9979   2.467   9.663   2.877  0.1191 -0.0532 -0.0719
 5780W        W 9980   1.008   9.887   2.864 -0.3266 -0.0130  0.0706
 5781W        W 9981   4.769   6.666  10.444 -0.1379  0.0552  0.2059
 5782W        W 9982   3.495   8.711   9.934 -0.1280  0.3101 -0.2797
 5783W        W 9983   7.801   1.393  11.081 -0.0793 -0.3241  0.1706
 5784W        W 9984   0.725   1.979  10.964 -0.0169  0.0837  0.1830
 5785W        W 9985   1.578   6.181   4.234  0.3602  0.0690 -0.0268
 5786W        W 9986   9.569   3.264   9.759  0.0824  0.2078  0.0275
 5787W        W 9987   6.721   7.472   0.648 -0.1143 -0.0439  0.2248
 5788W        W 9988   0.194   5.678   9.861 -0.1732  0.1901  0.0009
 5789W        W 9989   2.207   2.954  11.044 -0.0077  0.0791  0.0562
 5790W        W 9990   6.725   2.157   2.146  0.4293 -0.0523  0.2374
 5791W        W 9991   4.557   5.523   9.859 -0.2255  0.3099  0.1456
 5792W        W 9992   6.074   4.761   9.055  0.2308 -0.0077  0.2319
 5793W        W 9993   6.491   8.108   1.693 -0.3158 -0.1755 -0.3253
 5794W        W 9994   4.493   0.369   2.852 -0.0284  0.2225 -0.0145
 5795W        W 9995   6.834   7.978   9.154  0.1019 -0.0751 -0.0264
 5796W        W 9996   3.391   4.020   3.411  0.0216 -0.0543 -0.1431
 5797W        W 9997   5.297   9.441   2.416 -0.2364  0.3366  0.0250
 5798W        W 9998   6.505   1.527  10.356 -0.0585  0.1370  0.1522
 5799W        W 9999   3.834   9.560   2.980  0.1589  0.0341 -0.2253
 5800W        W10000   3.559   4.519  11.574  0.0176  0.1853  0.0964
 5801W        W10001   4.309   7.112  12.810  0.1462 -0.0587 -0.3585
 5802W        W10002   7.623   7.600  11.323  0.3020  0.2105  0.3436
 5803W        W10003   8.664   8.191   8.522  0.0368  0.3826 -0.2137
 5804W        W10004   3.586  10.478   4.616  0.0089 -0.0437  0.0201
 5805W        W10005   4.646   3.020   2.750 -0.1763  0.0647 -0.0703
 5806W        W10006   7.832   4.285   9.560  0.1981 -0.0941  0.1543
 5807W        W10007   0.693   9.616  10.288  0.0985 -0.1329 -0.2025
 5808W        W10008   2.077   6.219   4.350 -0.0365  0.1648 -0.2014
 5809W        W10009   4.253   1.784   2.467  0.3119 -0.0012 -0.3792
 5810W        W10010   6.119   5.768   8.867  0.1749 -0.2956 -0.0725
 5811W        W10011   0.837   3.571  12.644 -0.1445  0.0309  0.0452
 5812W        W10012   8.528   2.585  10.254 -0.2189 -0.1476  0.2816
 5813W        W10013   9.113   9.996  11.296 -0.2035  0.0106 -0.1849
 5814W        W10014   9.036   9.865   9.293  0.1306  0.1253 -0.5043
 5815W        W10015   7.852   0.245  11.736 -0.0546  0.3016 -0.4086
 5816W        W10016   0.500   5.585   2.642 -0.3154  0.0608 -0.0537
 5817W        W10017   7.528   9.646   2.839 -0.2945  0.2974 -0.1816
 5818W        W10018   8.215   8.674  12.421  0.0321  0.0367 -0.0039
 5819W        W10019   9.484   0.760   1.818 -0.1380  0.1943  0.0792
 5820W        W10020   3.787   7.797  11.315  0.1486 -0.0597 -0.2297
 5821W        W10021   7.712   1.442  10.568 -0.1655 -0.1364 -0.0392
 5822W        W10022   9.831   3.960  11.475 -0.0416 -0.1036 -0.1391
 5823W        W10023   2.898   5.562   9.386 -0.2269  0.0510 -0.1701
 5824W        W10024   8.557   4.653   8.403  0.2286 -0.1214  0.0461
 5825W        W10025   9.079   7.490   1.508  0.2044  0.1496  0.0198
 5826W        W10026   2.892   4.823   2.657  0.2770  0.0067 -0.2466
 5827W        W10027   7.324   7.083   0.196 -0.1081 -0.1495  0.1326
 5828W        W10028   7.169   2.131   0.435  0.0613 -0.1769  0.0653
 5829W        W10029   5.785   6.222  11.448  0.0218 -0.2743 -0.2377
 5830W        W10030   0.594   5.819   7.756 -0.0844 -0.2306 -0.1388
 5831W        W10031  10.075   5.721   1.196 -0.1224 -0.0439  0.0667
 5832W        W10032   4.302   7.348   4.168 -0.2039 -0.0129  0.1788
 5833W        W10033   0.102   5.157   1.313  0.2033  0.0504  0.1834
 5834W        W10034   1.970   4.339   2.687 -0.2837  0.0354  0.0146
 5835W        W10035   5.239   8.167   1.752  0.1382  0.1494 -0.1676
 5836W        W10036   8.341   0.294   1.713 -0.1829  0.1150  0.0978
 5837W        W10037   0.923   8.511   8.704  0.0477  0.1106 -0.1493
 5838W        W10038   0.599   3.445   1.030  0.2304  0.0473 -0.3305
 5839W        W10039  10.022   1.339   1.390  0.0268  0.2521  0.2523
 5840W        W10040   9.463   6.705  10.881  0.2834  0.1286 -0.1254
 5841W        W10041   2.744   4.267   9.067  0.2605 -0.1237  0.2229
 5842W        W10042   0.083   7.097  10.271  0.1404 -0.0546  0.0009
 5843W        W10043   0.641   0.107  11.217 -0.2298  0.0628  0.0578
 5844W        W10044   8.724   4.613   1.624 -0.0353 -0.1301  0.2300
 5845W        W10045   4.984   8.188   4.304 -0.2174  0.1871  0.0371
 5846W        W10046   9.932   7.201   9.502  0.0129  0.0053 -0.0853
 5847W        W10047   0.193   8.203  10.915  0.1379 -0.1429 -0.1217
 5848W        W10048  10.202   7.421   7.037  0.1037  0.0434  0.1867
 5849W        W10049   4.390   4.111   0.736 -0.2270  0.0528  0.2175
 5850W        W10050   5.560   1.258  10.624 -0.1385  0.1119  0.1381
 5851W        W10051  10.112   1.789  11.281 -0.3495  0.1426  0.2048
 5852W        W10052   5.422  10.146   3.032  0.0399  0.3195  0.1184
 5853W        W10053   8.984   3.615  10.876  0.1823 -0.0055 -0.0204
 5854W        W10054   9.515   4.638   1.024 -0.4049 -0.1057 -0.1916
 5855W        W10055   0.709   1.222  12.209 -0.0759  0.1413  0.0587
 5856W        W10056  10.601   5.174   9.482  0.1335  0.0808 -0.1452
 5857W        W10057   8.854   9.299  10.658 -0.1207 -0.1854 -0.0581
 5858W        W10058   5.122   3.657   8.892  0.0725  0.1817 -0.0748
 5859W        W10059   5.655   6.055   8.900  0.2527 -0.1192 -0.2870
 5860W        W10060   1.944   9.807   8.427  0.0236  0.0710  0.0771
 5861W        W10061   9.486  10.507  10.822 -0.0120 -0.0732 -0.1974
 5862W        W10062   0.860   7.014   0.568 -0.1770 -0.0808  0.3326
 5863W        W10063   5.695   6.596  10.557 -0.0879 -0.0520  0.0668
 5864W        W10064   6.947   8.544   0.868  0.0416 -0.1074  0.1292
 5865W        W10065   8.968   4.886  11.481  0.2506 -0.0530 -0.2219
 5866W        W10066  10.253   8.664   1.979  0.1629 -0.0071 -0.0547
 5867W        W10067   3.953  10.226   3.160  0.2942  0.1624  0.0479
 5868W        W10068   9.803   6.673   7.474  0.3941 -0.1302 -0.1548
 5869W        W10069   6.533   7.634   1.153  0.2712  0.2586 -0.3490
 5870W        W10070   9.907   8.315  12.266 -0.0644  0.1543  0.0210
 5871W        W10071   7.197   2.316   1.472  0.1123  0.0227 -0.0446
 5872W        W10072   6.149   6.285   2.057 -0.0640 -0.2228  0.0480
 5873W        W10073   8.946   7.462  12.777  0.1136  0.1009  0.3132
 5874W        W10074   1.748   9.722   2.282  0.1150  0.0398 -0.0180
 5875W        W10075   5.731   4.693  10.274  0.2088  0.0812  0.0244
 5876W        W10076   1.935   5.433   9.768 -0.2720 -0.0210  0.3013
 5877W        W10077   7.215   9.056  10.766  0.0205  0.0685  0.1990
 5878W        W10078   9.219   7.071   8.119 -0.1113 -0.2236 -0.0345
 5879W        W10079   0.148   3.668   2.788  0.1514 -0.0707  0.0343
 5880W        W10080   6.109   6.385  10.561 -0.1558  0.0672 -0.1901
 5881W        W10081  10.315   2.720   3.016  0.1598  0.0461  0.1743
 5882W        W10082   9.716   8.978   4.140 -0.1275 -0.1019 -0.3983
 5883W        W10083   8.911   3.668   0.424  0.1246  0.0379 -0.3269
 5884W        W10084   7.573   7.169   3.186 -0.1007  0.3837 -0.0484
 5885W        W10085   3.342   0.023   0.887  0.0463  0.0047 -0.1217
 5886W        W10086  10.281   4.790  10.678  0.0318 -0.0087  0.1531
 5887W        W10087   2.439   6.214  10.403  0.1455 -0.0175 -0.3027
 5888W        W10088   7.369   1.672   9.074 -0.3237 -0.1455  0.1957
 5889W        W10089   6.053   5.832   4.023 -0.0864  0.6397 -0.1996
 5890W        W10090   7.738   0.267   3.780 -0.1500 -0.0037 -0.1795
 5891W        W10091   7.029   7.278   1.494  0.3676 -0.1414  0.2441
 5892W        W10092   1.516   8.886   3.023  0.0049  0.1692 -0.0717
 5893W        W10093   3.917   0.179   0.014  0.0031 -0.1842 -0.1347
 5894W        W10094   3.188   0.239   3.857  0.1428  0.0893 -0.4165
 5895W        W10095   3.237   1.136  10.792 -0.0807 -0.1730 -0.1645
 5896W        W10096   7.783   0.487  10.434 -0.1059  0.2943 -0.1095
 5897W        W10097   0.509   0.354  12.570 -0.1836 -0.0886  0.4612
 5898W        W10098   2.990   2.409  11.918 -0.0371  0.3047  0.1646
 5899W        W10099   2.241   4.113   8.824  0.1810  0.1993  0.2162
 5900W        W10100   7.275   9.083  10.194 -0.2610  0.1819  0.0583
 5901W        W10101   9.841   9.358   2.755  0.1099  0.0637  0.2731
 5902W        W10102   1.439   8.772  10.427  0.1063 -0.1543  0.1512
 5903W        W10103   1.926   6.101   3.197  0.1406  0.1750  0.0053
 5904W        W10104   1.166   5.033   2.069 -0.0773 -0.0237 -0.1936
 5905W        W10105   2.106   9.770  12.703 -0.3224 -0.1273  0.3426
 5906W        W10106   3.734   9.540   9.480  0.3938 -0.0434 -0.0329
 5907W        W10107   7.354   2.495  11.641  0.3139  0.0809  0.3376
 5908W        W10108   9.128   8.393  12.398  0.1739  0.0516  0.0772
 5909W        W10109   8.030   0.013   2.042  0.1198  0.3490 -0.1197
 5910W        W10110   0.001   1.115   0.778  0.3063 -0.0352  0.3127
 5911W        W10111   3.092   9.364  10.786 -0.0923 -0.2917  0.0760
 5912W        W10112   3.262   8.368   9.202 -0.2469  0.1190  0.1732
 5913W        W10113   1.399   2.439   2.318 -0.0435 -0.3295 -0.1846
 5914W        W10114   1.088   2.504   1.772  0.0760  0.3009 -0.3129
 5915W        W10115   0.029  10.442  10.183  0.1144 -0.1003  0.1645
 5916W        W10116   9.877   8.526   2.815 -0.1949  0.0119  0.1697
 5917W        W10117   1.150   0.716   0.473 -0.2666  0.0254 -0.1442
 5918W        W10118   0.110   5.233  11.500 -0.1065  0.0719  0.3602
 5919W        W10119   5.567   3.737   2.148  0.2465  0.0327  0.1563
 5920W        W10120   1.166  10.415  10.018 -0.0594 -0.1188  0.2049
 5921W        W10121   7.039   7.149  11.824 -0.2929 -0.1947  0.0592
 5922W        W10122  10.035   7.946   2.358 -0.1002 -0.2221  0.1610
 5923W        W10123   3.298   9.266  10.282 -0.4780  0.0673 -0.1456
 5924W        W10124   7.012   3.773  11.947  0.3187  0.1191  0.1242
 5925W        W10125   8.213   1.916   9.601 -0.0612 -0.0707 -0.0327
 5926W        W10126   0.838   3.815  11.622  0.0424 -0.0263  0.2051
 5927W        W10127   4.547   8.870   1.531 -0.2877 -0.3227 -0.2157
 5928W        W10128   4.803   2.194   1.190 -0.0116  0.0999 -0.0129
 5929W        W10129   8.726   9.353   2.552  0.1535 -0.3176 -0.1190
 5930W        W10130   9.445   2.742   2.246  0.1607 -0.1003  0.0232
 5931W        W10131   2.593   6.862   2.707  0.2914 -0.1474  0.2143
 5932W        W10132   0.107   2.371   9.060  0.0522 -0.2652 -0.0061
 5933W        W10133   4.774   0.702   8.831  0.0680 -0.1176 -0.1145
 5934W        W10134   7.981   9.854   9.264 -0.2023 -0.0555 -0.0212
 5935W        W10135   4.631   5.917   4.537  0.1602 -0.0848 -0.1364
 5936W        W10136   7.616   5.890   8.994 -0.0970  0.1639  0.3159
 5937W        W10137   7.218   5.524   0.478  0.3813 -0.2404  0.1392
 5938W        W10138   7.868   0.792   0.645 -0.0598 -0.1210 -0.0031
 5939W        W10139   6.175   1.173  10.492  0.2919  0.3132 -0.2567
 5940W        W10140   8.837   7.410   7.411  0.2714  0.0943 -0.1353
 5941W        W10141   6.416   8.895  12.579  0.3054 -0.1626 -0.0864
 5942W        W10142   8.016   6.017   9.344  0.3083  0.1146 -0.1504
 5943W        W10143   2.090   8.696   0.443 -0.2385  0.2410 -0.1321
 5944W        W10144   8.677   7.571   1.252 -0.1507  0.0324 -0.4921
 5945W        W10145   7.061   0.349  12.741  0.1036 -0.2074  0.0054
 5946W        W10146   9.676   9.736   1.127 -0.0829  0.1449  0.2328
 5947W        W10147   3.994   3.345   8.758 -0.0020  0.1962  0.0391
 5948W        W10148   4.649   1.425  10.814 -0.0606 -0.2729 -0.0690
 5949W        W10149   8.656   3.554   1.414  0.0104  0.1849 -0.2520
 5950W        W10150   5.858   1.390  11.955  0.0174  0.1751 -0.0660
 5951W        W10151   7.899   4.920   0.496  0.1078  0.0022  0.0146
 5952W        W10152   7.658   1.936  10.474 -0.0160  0.0173  0.1757
 5953W        W10153   1.710   1.948   3.768  0.2685  0.2474 -0.1406
 5954W        W10154   6.266   8.213   0.483  0.1120  0.0980  0.0001
 5955W        W10155   9.168   1.329  12.102 -0.1470 -0.3093  0.2323
 5956W        W10156  10.259   5.178  11.001 -0.2500 -0.0933 -0.0334
 5957W        W10157  10.078   1.707  10.168 -0.1682 -0.3089 -0.0289
 5958W        W10158   7.459   8.511  12.690  0.0675  0.0030  0.1381
 5959W        W10159   4.129  10.207  10.679 -0.0270  0.1499  0.1676
 5960W        W10160   7.338   6.883  10.611 -0.1176  0.0348  0.2943
 5961W        W10161   2.615   8.189   8.405  0.0284 -0.2261 -0.0437
 5962W        W10162   8.511   8.528  10.636  0.3355  0.0590  0.0514
 5963W        W10163   7.342   3.954  10.414 -0.1573  0.1888 -0.2282
 5964W        W10164   0.955   9.200  10.133  0.0346 -0.0970  0.2473
 5965W        W10165   1.133   5.041   0.498 -0.0665  0.2619  0.2729
 5966W        W10166   8.520   4.904   9.204 -0.2683  0.2152 -0.3194
 5967W        W10167   0.665   3.155  10.248  0.1486 -0.0731 -0.2975
 5968W        W10168   2.752   7.569   0.995  0.3289 -0.1789  0.1354
 5969W        W10169   7.276   3.243   2.895 -0.3885 -0.4367 -0.0652
 5970W        W10170   4.432   2.088   2.896  0.1621 -0.2578  0.4147
 5971W        W10171   5.637  10.086   3.900  0.0430 -0.3853  0.5603
 5972W        W10172   5.973   6.146   9.683  0.0338  0.0095 -0.0412
 5973W        W10173   5.278   2.847   2.087  0.1910  0.0372 -0.0469
 5974W        W10174   1.146   0.334  12.021 -0.1139  0.1009  0.1267
 5975W        W10175   6.233   7.289   1.340 -0.1737  0.1390  0.1771
 5976W        W10176   8.344   9.120  12.648 -0.0545  0.1953 -0.1447
 5977W        W10177   2.886   2.323   7.564  0.1877  0.1370  0.3009
 5978W        W10178   1.429   7.983   9.597  0.1126 -0.3293 -0.1255
 5979W        W10179   7.395   3.368   0.188  0.0017 -0.0591 -0.0633
 5980W        W10180   8.337   2.839   2.144  0.1803 -0.0267 -0.0823
 5981W        W10181   8.762   4.416   2.357  0.0948  0.0447 -0.0580
 5982W        W10182   3.375   1.987  11.505 -0.1792 -0.0261 -0.0737
 5983W        W10183   7.352   4.617  12.248 -0.1805 -0.1821 -0.0133
 5984W        W10184   2.384   0.894  11.426 -0.1855  0.0172  0.4207
 5985W        W10185   8.685   8.566   0.980  0.3608  0.2542  0.0111
 5986W        W10186   0.009  10.125   1.669  0.2170  0.2196  0.0086
 5987W        W10187   3.982   3.521   4.228 -0.2478 -0.2788 -0.0084
 5988W        W10188   0.425   9.891   8.064 -0.1993  0.0396  0.1157
 5989W        W10189   0.054   8.929   9.107 -0.2934  0.1295 -0.0032
 5990W        W10190   1.546   0.421   7.894 -0.3677  0.0318 -0.4049
 5991W        W10191   5.624   2.611   0.980  0.0021  0.1081 -0.1083
 5992W        W10192   4.675   5.224   3.846  0.0066 -0.2355  0.1575
 5993W        W10193   0.533   5.435   3.572 -0.0253  0.1253  0.0875
 5994W        W10194   6.179   6.214   3.779 -0.3209 -0.2399  0.1537
 5995W        W10195   5.988   8.519   9.291  0.4888 -0.0375 -0.2043
 5996W        W10196   2.862   7.339   9.493 -0.0409  0.2727  0.1673
 5997W        W10197   1.499  10.100  12.052 -0.2287  0.1119 -0.4020
 5998W        W10198   6.647   3.854  11.119 -0.0628 -0.1128  0.1251
 5999W        W10199   6.674   0.713  11.522 -0.2576  0.0723  0.1884
 6000W        W10200   8.596   7.940  10.015  0.1109  0.1418  0.1797
 6001W        W10201   0.230   6.528   8.774  0.2576 -0.1261  0.1621
 6002W        W10202   5.045   6.703   1.775  0.0660  0.0187  0.0789
 6003W        W10203   1.775   2.224   2.024  0.2363 -0.1017 -0.0773
 6004W        W10204  10.307   3.512  10.822 -0.0077  0.0983 -0.0744
 6005W        W10205   6.888   1.029   3.039  0.1882 -0.2228 -0.0041
 6006W        W10206   0.881   8.814   8.216  0.1481  0.0247  0.1285
 6007W        W10207   1.720   7.192   1.475  0.0414  0.1037  0.0931
 6008W        W10208   2.876   8.324   0.694  0.2661 -0.3972  0.3647
 6009W        W10209   7.115   2.999   3.843  0.0322 -0.0246 -0.1357
 6010W        W10210   6.845   4.618   2.909 -0.0270  0.0390 -0.2365
 6011W        W10211   8.856   6.613   1.953  0.4392 -0.0009 -0.1075
 6012W        W10212   6.018   7.534  12.682 -0.1796  0.0696  0.0440
 6013W        W10213   8.182   8.241  11.440 -0.3344  0.1904 -0.2290
 6014W        W10214   1.127   6.422  11.271 -0.5772 -0.2500  0.3570
 6015W        W10215   1.370   4.125   1.543  0.0180  0.0958  0.2826
 6016W        W10216   0.042  10.174   1.192  0.2667  0.2296 -0.0367
 6017W        W10217  10.341   8.000   0.791 -0.1454  0.2539 -0.1919
 6018W        W10218   5.261   2.984   1.587 -0.1156 -0.2455 -0.3859
 6019W        W10219   5.791   7.130   3.756 -0.2047 -0.1085 -0.2009
 6020W        W10220   1.713   7.107  11.189  0.1385 -0.1347  0.1628
 6021W        W10221   7.634   0.490   2.603  0.0688  0.1575 -0.0715
 6022W        W10222   1.024   8.535   0.672 -0.1180  0.3729  0.0879
 6023W        W10223   3.939   8.080   0.752 -0.2113  0.1780 -0.1463
 6024W        W10224   6.630   2.297   0.690 -0.2189 -0.1202  0.2562
 6025W        W10225   0.997   1.622  12.375 -0.0922  0.1738 -0.1261
 6026W        W10226   3.319   0.660  11.504 -0.2164  0.0666  0.1652
 6027W        W10227   7.732   4.801   9.617 -0.0115  0.0271 -0.0961
 6028W        W10228   0.475   7.761   9.903  0.2156 -0.2052  0.3000
 6029W        W10229   8.379   4.809  10.657  0.0284  0.1611 -0.1311
 6030W        W10230   3.797   0.698  11.665 -0.0653 -0.2247 -0.1502
 6031W        W10231   6.022   4.074   3.174  0.0251 -0.2251  0.0559
 6032W        W10232   7.776   7.411  12.313 -0.1278 -0.1222 -0.1260
 6033W        W10233   6.717   1.719   9.611  0.0534 -0.1925 -0.1287
 6034W        W10234   4.511   9.840   1.859 -0.1597 -0.2506  0.0954
 6035W        W10235   8.554   9.344   3.888 -0.1562 -0.2007  0.0475
 6036W        W10236   9.144   9.514  11.339  0.1923  0.1263 -0.0662
 6037W        W10237   8.275   5.332   9.192  0.2721  0.4790 -0.1669
 6038W        W10238  10.591   3.836   1.034  0.0503  0.0098  0.2603
 6039W        W10239   6.169   7.476  11.424 -0.0135 -0.2480  0.0688
 6040W        W10240   4.403   1.761   1.997  0.0672 -0.1159  0.1676
 6041W        W10241   2.040   9.373   2.870 -0.0012 -0.0054  0.1081
 6042W        W10242   4.616   3.170  12.723 -0.1387  0.0712 -0.3145
 6043W        W10243   8.234   1.985   2.531 -0.2173  0.1528  0.0007
 6044W        W10244   0.646  10.553   8.906  0.2614  0.0393  0.0690
 6045W        W10245   8.682   1.728   4.413 -0.1899 -0.1305 -0.1639
 6046W        W10246   7.680  10.539   0.547  0.1079  0.0048 -0.2526
 6047W        W10247   4.148   4.232   3.712 -0.2274 -0.0690  0.3122
 6048W        W10248   2.649   8.165  11.893  0.0220 -0.2079 -0.0262
 6049W        W10249   7.398   8.754   0.807 -0.1556  0.2033  0.1080
 6050W        W10250   5.641   3.916   8.845  0.3333 -0.1559 -0.1726
 6051W        W10251   1.117   3.432  11.330  0.1331  0.2986  0.0109
 6052W        W10252   5.749   7.340   1.607 -0.0511 -0.4049 -0.2590
 6053W        W10253   3.765   6.282   3.529  0.2997 -0.0956 -0.0189
 6054W        W10254   0.758   4.176   3.783 -0.3385 -0.3433 -0.3301
 6055W        W10255   5.190   9.878   3.991 -0.0075 -0.0096 -0.3290
 6056W        W10256   9.697   5.092  10.051  0.0102  0.1028  0.1677
 6057W        W10257   5.507   0.454  10.117  0.3229 -0.0311 -0.1928
 6058W        W10258   5.092   1.067   8.731  0.1744 -0.1105  0.0014
 6059W        W10259   4.142   1.125  10.458 -0.1461  0.3785 -0.2602
 6060W        W10260   4.453   7.429  10.129  0.1413 -0.0237 -0.2173
 6061W        W10261   7.440   6.450  10.882  0.1045  0.1808 -0.1204
 6062W        W10262   2.384  10.261   1.192  0.2705  0.1102 -0.0972
 6063W        W10263   2.003   3.391  10.381 -0.0571 -0.3358  0.0271
 6064W        W10264   3.034   5.736  10.448 -0.0678 -0.1576  0.0170
 6065W        W10265   8.967   1.230   7.088 -0.2153 -0.4044 -0.1099
 6066W        W10266   5.874   3.580  10.727  0.0235 -0.0824  0.2713
 6067W        W10267   6.319   7.008  11.241 -0.3653  0.0780 -0.2646
 6068W        W10268   3.194   8.925   3.328  0.0619  0.1456  0.0757
 6069W        W10269   4.767   2.977   0.649 -0.1328 -0.1940 -0.0527
 6070W        W10270   1.157   6.084   3.863 -0.1273 -0.0353 -0.0830
 6071W        W10271   8.706   6.576  11.333  0.0177  0.0535 -0.1189
 6072W        W10272   4.070   7.189   3.745  0.0661  0.5508  0.0479
 6073W        W10273   9.474   8.998   9.831  0.1830 -0.1442 -0.1230
 6074W        W10274   5.273   9.171   0.412 -0.0983 -0.1387 -0.2117
 6075W        W10275   1.069   5.947   4.331 -0.0946  0.0185  0.4389
 6076W        W10276   1.158   1.276   9.886  0.2512  0.0804 -0.2679
 6077W        W10277   6.475  10.200   9.915 -0.1149 -0.0569  0.1804
 6078W        W10278   4.483   8.925  11.247  0.0880 -0.0399  0.1847
 6079W        W10279   4.736   3.246   3.179  0.3169  0.0874 -0.5150
 6080W        W10280   0.456   7.169  12.182 -0.2924 -0.0550 -0.0317
 6081W        W10281   9.050   2.869   1.903 -0.0935 -0.0303 -0.0398
 6082W        W10282   4.184   0.895   1.888 -0.2282 -0.1727 -0.0017
 6083W        W10283   8.384   3.163   1.090 -0.2710 -0.0846 -0.1632
 6084W        W10284   2.912   9.193   1.950  0.2814  0.0676  0.4212
 6085W        W10285   0.789  10.713  11.672 -0.1229  0.0618  0.1391
 6086W        W10286   6.664   6.628  11.151 -0.1353  0.2853 -0.1546
 6087W        W10287   9.604   0.256   1.519 -0.2629 -0.1704  0.0767
 6088W        W10288   7.085   3.891  11.376  0.5231 -0.0833  0.5480
 6089W        W10289   9.077   3.887  12.609 -0.1227  0.0508  0.4249
 6090W        W10290   2.507   7.166   3.097 -0.2230  0.0971 -0.0798
 6091W        W10291   3.043   9.573   1.464 -0.1726  0.3442 -0.3777
 6092W        W10292   3.561   4.897  12.705 -0.1132  0.2333  0.2696
 6093W        W10293   3.656   0.562   0.238  0.0391 -0.2413 -0.0935
 6094W        W10294  10.167   2.700   0.410 -0.3290  0.1510  0.0188
 6095W        W10295   3.828   7.507   4.048  0.1775  0.0102  0.1204
 6096W        W10296   5.144   5.002  10.296 -0.1689  0.2684  0.0147
 6097W        W10297   9.577   3.832  12.548 -0.0697  0.1525 -0.0362
 6098W        W10298   2.407   0.098  12.003 -0.1348 -0.1299  0.0442
 6099W        W10299   6.144   3.322   1.467 -0.2747  0.2091 -0.2099
 6100W        W10300   6.633   4.692   1.591  0.1769 -0.2554  0.0864
 6101W        W10301   8.377   9.579   0.186  0.0889  0.1057 -0.0354
 6102W        W10302   8.005   2.115   4.535  0.3454 -0.2117 -0.0583
 6103W        W10303   9.956   1.273   8.953  0.1281 -0.0245 -0.0792
 6104W        W10304   6.774   4.845   3.817 -0.1279 -0.1340  0.5144
 6105W        W10305   7.417   4.835   8.397 -0.1190  0.1163  0.0221
 6106W        W10306   6.216   7.044   0.072  0.3064 -0.1200 -0.0636
 6107W        W10307   6.738   5.377   3.666  0.0364 -0.0090  0.1163
 6108W        W10308   4.378   3.574  10.198  0.0544  0.0238  0.2788
 6109W        W10309   1.260   3.650   1.586 -0.3092  0.0820  0.0832
 6110W        W10310   8.004   5.494   2.911  0.0653 -0.0436 -0.2382
 6111W        W10311   6.418   5.897  10.610  0.0558  0.0300  0.3039
 6112W        W10312   8.367   8.548   9.095  0.1102  0.1717  0.0414
 6113W        W10313   5.828   1.698   1.705 -0.1802 -0.0226  0.1016
 6114W        W10314   9.936  10.578  11.730 -0.0867  0.0069  0.0086
 6115W        W10315   3.463   3.384  10.533 -0.1006  0.0100 -0.1724
 6116W        W10316   5.934  10.090   2.921  0.0319  0.1963  0.0426
 6117W        W10317   1.400   2.763   3.352  0.1316  0.1115  0.0015
 6118W        W10318   8.329   5.292  10.961  0.1868 -0.1179  0.0888
 6119W        W10319   3.568   1.520  10.729  0.3413  0.0072 -0.1918
 6120W        W10320   3.490  10.247   2.894  0.1469 -0.0329 -0.2263
 6121W        W10321   2.210   1.693  11.564 -0.0972 -0.2210  0.0845
 6122W        W10322   7.390   2.807   1.115  0.5366 -0.3171  0.1645
 6123W        W10323   9.967   4.237  10.149 -0.0059  0.2849  0.0712
 6124W        W10324   9.959   5.185   3.328  0.2095 -0.0678 -0.1733
 6125W        W10325   3.855  10.417   1.532  0.0798  0.0021  0.3323
 6126W        W10326   0.221   6.055   3.979  0.0308 -0.4033 -0.2854
 6127W        W10327   4.221   7.047  11.032 -0.1763  0.0567 -0.4366
 6128W        W10328   5.954   9.371   8.765  0.0768  0.3539 -0.2192
 6129W        W10329   2.367   1.281  10.385 -0.0872  0.3217  0.0619
 6130W        W10330   1.648   8.423   8.437  0.0454  0.1864  0.0794
 6131W        W10331   6.561   3.195   0.670 -0.0236 -0.1035  0.0620
 6132W        W10332   3.681   7.839   0.276  0.0568  0.3331 -0.3739
 6133W        W10333   8.588   7.902   0.678 -0.1078 -0.0769 -0.0947
 6134W        W10334   3.493   6.464   3.944  0.4024  0.1113  0.1355
 6135W        W10335   9.400   5.991   1.401 -0.1234  0.1888  0.0047
 6136W        W10336   9.390   2.740   9.684  0.3848  0.3941 -0.2252
 6137W        W10337   0.077   3.540   9.543 -0.0910  0.1837 -0.0803
 6138W        W10338   9.698   6.272  11.649 -0.1491  0.4092  0.0777
 6139W        W10339   0.246   4.229   1.078 -0.0792 -0.0033 -0.0059
 6140W        W10340   7.702   4.116   4.397  0.3703  0.1307  0.1352
 6141W        W10341   0.267   7.448   2.176 -0.2819 -0.0712 -0.2012
 6142W        W10342   0.465   2.141   0.560 -0.1574 -0.0466 -0.2974
 6143W        W10343   9.661  10.377   2.424  0.1183  0.1135  0.1520
 6144W        W10344   4.006  10.137  11.258 -0.1028  0.0216  0.1346
 6145W        W10345   4.064   2.153  12.197 -0.5795  0.0128 -0.0278
 6146W        W10346   8.020   9.358   9.475  0.0347 -0.1393  0.0191
 6147W        W10347   6.837   3.193   9.944  0.1293 -0.0042 -0.4307
 6148W        W10348   3.041   3.175   3.572  0.0733 -0.2802  0.0797
 6149W        W10349   1.705   2.208   9.728  0.1160  0.0335 -0.2028
 6150W        W10350   0.860   6.461  10.106  0.2683  0.0255  0.0037
 6151W        W10351   5.101   1.763  10.538 -0.1557  0.0805 -0.2722
 6152W        W10352   2.697   5.878  11.243  0.0652 -0.0041  0.2075
 6153W        W10353  10.710  10.367   2.273  0.2649 -0.4897  0.1893
 6154W        W10354   4.224   4.650   3.307 -0.2270 -0.1122  0.0612
 6155W        W10355   3.693   2.510  10.714 -0.0998  0.1377  0.1455
 6156W        W10356   3.604   1.978   8.475  0.0267 -0.1879 -0.2125
 6157W        W10357   3.995   1.525   3.472  0.0330 -0.0576 -0.3909
 6158W        W10358   0.335   8.296   8.685 -0.0424  0.0575 -0.1539
 6159W        W10359   4.144   8.439   9.474  0.1686 -0.1403  0.0544
 6160W        W10360  10.557   3.102   1.864  0.0076  0.1539  0.0399
 6161W        W10361   5.226   4.208   8.849  0.2397  0.2209 -0.2539
 6162W        W10362   0.497   4.342   1.480  0.0940  0.1666  0.0255
 6163W        W10363   6.277  10.225   3.292  0.0940  0.3644 -0.0521
 6164W        W10364   9.859   2.915  11.815 -0.2286  0.4951  0.1737
 6165W        W10365   5.036   1.506   4.143 -0.0584 -0.1421  0.1967
 6166W        W10366   0.912   2.988   1.107 -0.1422 -0.0638 -0.2982
 6167W        W10367   2.331   9.931   9.774 -0.1493  0.0158 -0.1625
 6168W        W10368   5.650   5.391   2.276  0.1095  0.2528  0.0986
 6169W        W10369   9.005   9.884  12.207  0.0548  0.0329  0.1619
 6170W        W10370   4.088   0.585  12.113  0.0058 -0.0745  0.0655
 6171W        W10371   0.258   9.762   1.449  0.1004  0.1028  0.1443
 6172W        W10372   8.681   2.101   2.829 -0.2569 -0.1237  0.0563
 6173W        W10373   6.262   4.439   9.516  0.2598  0.2970 -0.0098
 6174W        W10374  10.148   3.884   3.891 -0.0531  0.0804 -0.2601
 6175W        W10375   3.045   3.034   2.740  0.2723  0.2046 -0.0054
 6176W        W10376   7.842   2.243  10.074  0.1178  0.2243 -0.2301
 6177W        W10377   6.300   9.977  10.731 -0.2256 -0.3855 -0.1016
 6178W        W10378   7.795   3.509   3.044  0.2907  0.3147 -0.0604
 6179W        W10379   1.015   3.935   9.302  0.2621 -0.0821  0.0103
 6180W        W10380   1.733   4.678   9.852 -0.0498  0.0727 -0.0344
 6181W        W10381   7.997   0.845   2.396 -0.0760 -0.2526  0.2136
 6182W        W10382   6.432   9.758  11.273  0.1595 -0.0484 -0.0347
 6183W        W10383   4.917   1.062   3.922 -0.2273  0.0140 -0.2096
 6184W        W10384   4.174   6.575  10.268  0.2037  0.0918  0.2773
 6185W        W10385   8.596   4.075  12.502  0.2404  0.2313 -0.1936
 6186W        W10386   3.135   4.294  11.785 -0.0611 -0.0501 -0.1022
 6187W        W10387   6.768   2.389   1.700 -0.0523  0.1717  0.0041
 6188W        W10388   4.664   3.129   8.887  0.1145 -0.2502 -0.0279
 6189W        W10389   8.074   4.403  11.901  0.0661 -0.1867 -0.2845
 6190W        W10390   9.199  10.413   2.245 -0.0440 -0.1787 -0.0995
 6191W        W10391   3.713   5.919  11.003 -0.2097 -0.3223 -0.0864
 6192W        W10392   7.442  10.353   2.593  0.0013  0.1851 -0.4907
 6193W        W10393   7.133   6.334   4.089 -0.0949 -0.2754 -0.3695
 6194W        W10394   4.690   1.703   3.198  0.0240  0.1159 -0.1539
 6195W        W10395   5.443   5.977   9.753  0.1439  0.3161 -0.2024
 6196W        W10396   7.505   3.622  10.885 -0.0719  0.3429 -0.1510
 6197W        W10397   9.698   5.761  11.961  0.0550  0.1601 -0.1938
 6198W        W10398   8.656   2.540   1.865 -0.0801  0.1137  0.1960
 6199W        W10399   1.073   2.854   8.544  0.3711  0.0735 -0.0632
 6200W        W10400  10.538   1.075   1.812  0.1315  0.2854  0.0119
 6201W        W10401   2.469   9.606  11.403 -0.2204 -0.0481  0.0965
 6202W        W10402   3.465   5.916   3.154 -0.1972  0.3806 -0.0971
 6203W        W10403   5.603   4.946  11.457 -0.0786 -0.0575  0.1974
 6204W        W10404   4.762   2.278   0.106  0.3265 -0.0708  0.2253
 6205W        W10405   8.614   8.520   9.560 -0.1280 -0.2362  0.0059
 6206W        W10406   3.362   0.456   9.779 -0.0751 -0.0985  0.1261
 6207W        W10407   1.348   9.255   0.437  0.4562  0.1236 -0.0021
 6208W        W10408   7.424   5.833   2.558  0.0427  0.3475 -0.1686
 6209W        W10409   0.773   5.017   9.338  0.2139  0.1024  0.0026
 6210W        W10410   0.301   2.778   2.450 -0.1647 -0.1840 -0.2239
 6211W        W10411   2.878   8.217   2.015 -0.2952  0.1722  0.1470
 6212W        W10412   8.151   0.552  10.803 -0.3815 -0.0787 -0.0598
 6213W        W10413   8.799   9.320  12.802  0.0174  0.2712  0.0837
 6214W        W10414   4.349   2.850   2.382  0.3395  0.4341 -0.0004
 6215W        W10415   6.335   5.479   8.412  0.3901 -0.3135  0.1730
 6216W        W10416   5.079   8.977   2.409 -0.0661  0.6501  0.2050
 6217W        W10417   6.683   4.408   2.000  0.0850  0.3917  0.3705
 6218W        W10418   9.662   7.197   3.013 -0.0208  0.0021  0.1784
 6219W        W10419  10.657   8.791   3.978 -0.1870  0.0656 -0.0730
 6220W        W10420  10.312   8.385   2.553 -0.0553  0.0727  0.1502
 6221W        W10421   2.814   6.435   2.768 -0.1320  0.1808 -0.3038
 6222W        W10422   1.052   8.126   4.549  0.0959  0.1131  0.0822
 6223W        W10423   0.785   0.482  10.988 -0.0702  0.0699  0.2587
 6224W        W10424  10.528   5.929   3.060 -0.1815  0.1690 -0.1913
 6225W        W10425   5.683   2.566   9.839  0.1474  0.1364  0.0645
 6226W        W10426   2.171   5.614   3.119 -0.0577  0.2804 -0.3334
 6227W        W10427   9.407   8.944   9.285  0.2113  0.1568 -0.0005
 6228W        W10428   8.435   2.475   2.506 -0.1899  0.0232 -0.4558
 6229W        W10429  10.502   4.890  11.335  0.1413  0.4832 -0.3962
 6230W        W10430   6.467   9.182  12.156 -0.1873 -0.0211  0.1298
 6231W        W10431   3.416   3.937   0.638  0.0793 -0.1823  0.2038
 6232W        W10432   9.116   1.497  10.373  0.3190  0.4244 -0.3857
 6233W        W10433   1.539   6.478   3.858  0.0500 -0.1072 -0.1707
 6234W        W10434   0.717   5.822   3.948  0.2843  0.0606 -0.0018
 6235W        W10435  10.496   1.020  10.689  0.1840 -0.3179 -0.1778
 6236W        W10436   3.558   0.520  12.088 -0.0605  0.1020  0.0912
 6237W        W10437   2.811   4.299   2.202  0.1578  0.1353 -0.0695
 6238W        W10438   5.999   1.984   2.620  0.3339  0.0975 -0.0977
 6239W        W10439   7.873   6.344  11.266 -0.2026  0.2906  0.3802
 6240W        W10440  10.445   5.703   1.509  0.1472  0.2271  0.2666
 6241W        W10441   7.394   9.094  12.699 -0.2868 -0.2417  0.2126
 6242W        W10442   9.110  10.352  12.214 -0.2914  0.2406 -0.1541
 6243W        W10443   5.208   2.768   0.545  0.1849  0.2807 -0.0563
 6244W        W10444   4.754   6.945  11.031  0.2442  0.0221  0.1147
 6245W        W10445   6.101   3.481  12.290  0.0333 -0.1937  0.0132
 6246W        W10446   0.893   1.885   3.312  0.0306  0.0459 -0.0337
 6247W        W10447   2.094   5.844  10.050  0.0682  0.1154 -0.0998
 6248W        W10448   3.984  10.617   9.892 -0.1450 -0.1577  0.0411
 6249W        W10449   7.262   9.580  12.451 -0.1265  0.1173  0.0478
 6250W        W10450   7.022  10.069   9.217 -0.1125  0.0255 -0.1462
 6251W        W10451   1.473  10.492  10.382  0.0437  0.0998 -0.2773
 6252W        W10452   9.392   4.875   8.952 -0.0407 -0.1948 -0.1173
 6253W        W10453   8.220  10.440  11.042  0.1363  0.0508  0.0549
 6254W        W10454   7.619   6.101   2.189 -0.0454  0.0219 -0.0896
 6255W        W10455   4.477   2.008   8.362 -0.2680  0.1314 -0.2759
 6256W        W10456  10.570   3.978  11.466  0.1830  0.0578 -0.2481
 6257W        W10457   1.779   0.701  12.773 -0.2969 -0.0244 -0.0196
 6258W        W10458   0.376   7.985  11.347 -0.0991 -0.6708  0.2529
 6259W        W10459   8.637   5.898  12.051 -0.2533  0.2029 -0.0801
 6260W        W10460   7.803   5.793   1.108 -0.1432  0.2460  0.0160
 6261W        W10461   3.735   0.469   8.671  0.1314 -0.2371 -0.0618
 6262W        W10462   5.185   0.053   1.960  0.2856  0.0586 -0.1486
 6263W        W10463   1.419   7.053  11.641  0.0616  0.1441  0.0744
 6264W        W10464   2.894   9.562   8.874 -0.0652 -0.0040  0.1475
 6265W        W10465   0.003   9.537  10.373 -0.2237  0.0400  0.1290
 6266W        W10466   5.475   8.166   2.193 -0.0916 -0.0705  0.0321
 6267W        W10467   0.586   6.504  10.636  0.2845  0.0850  0.0554
 6268W        W10468   5.367   6.965  10.268  0.4047 -0.2051 -0.0826
 6269W        W10469   7.623   6.407   1.737 -0.2664 -0.3886 -0.1706
 6270W        W10470  10.499   8.171  11.219 -0.0862 -0.0101  0.0697
 6271W        W10471   5.672   1.581  11.527  0.1208  0.1574  0.0071
 6272W        W10472   9.663   3.291  10.281  0.2144  0.1391  0.0535
 6273W        W10473   7.191   8.252   1.705 -0.1281 -0.2270 -0.0553
 6274W        W10474   7.725   5.338   9.680  0.3344  0.1071  0.0372
 6275W        W10475   2.373  10.332  10.200 -0.0578  0.1887  0.1119
 6276W        W10476   1.774   4.961  10.380 -0.1259 -0.1294 -0.2479
 6277W        W10477   4.444   5.308  10.384 -0.1914 -0.0491 -0.3844
 6278W        W10478   9.820   2.498   0.689 -0.1048  0.0423 -0.2290
 6279W        W10479   9.972  10.055  12.557 -0.0179 -0.0275 -0.0791
 6280W        W10480   3.322   1.962  10.220  0.0490  0.0306  0.1448
 6281W        W10481   6.278   4.432   8.579  0.1028  0.0923 -0.0578
 6282W        W10482   1.689   8.656  12.170  0.0364 -0.3474 -0.0459
 6283W        W10483   8.240   5.683   1.985  0.1631 -0.2599  0.0811
 6284W        W10484   1.171   5.927   1.621 -0.2116 -0.2770  0.0998
 6285W        W10485   5.828   4.431   9.832 -0.2224 -0.1078  0.1856
 6286W        W10486   0.089   6.127   9.408  0.0005  0.1354 -0.2691
 6287W        W10487   5.315   1.536  11.954 -0.1418  0.2237 -0.0943
 6288W        W10488   2.511   4.879   2.983 -0.1002  0.2828 -0.0103
 6289W        W10489   5.808   2.162  10.662 -0.2348 -0.0118  0.3427
 6290W        W10490   4.497   0.049   0.211 -0.0315 -0.5222  0.3111
 6291W        W10491   8.151   8.442  11.987 -0.3746 -0.2953 -0.1504
 6292W        W10492   9.480   1.048   2.213  0.1101 -0.1945  0.0016
 6293W        W10493   1.401   0.360  11.062  0.1369  0.1639 -0.1420
 6294W        W10494   2.901   8.007   1.523 -0.3215 -0.2955 -0.0415
 6295W        W10495   9.848   6.242   1.231 -0.1674  0.0877  0.1214
 6296W        W10496   2.572  10.693  12.548 -0.0857 -0.0173  0.2173
 6297W        W10497   1.891   4.393   0.299  0.2450 -0.1577 -0.3466
 6298W        W10498   3.932  10.153   4.725 -0.0507  0.0007 -0.2221
 6299W        W10499   6.978   6.316   8.737  0.2862  0.0836 -0.1014
 6300W        W10500  10.494   0.032  10.951  0.2934  0.1855 -0.0270
 6301W        W10501   3.438   1.991   1.098 -0.0531  0.5553 -0.1727
 6302W        W10502   8.769   7.907  11.058  0.2273  0.5513  0.2674
 6303W        W10503   5.868   6.750   8.979  0.0014 -0.0801  0.3755
 6304W        W10504   2.374  10.123   0.257  0.1791 -0.1444 -0.1947
 6305W        W10505   0.151   9.837  10.751  0.2038 -0.0813  0.2251
 6306W        W10506   5.903   4.578  11.177 -0.2687  0.2182  0.3807
 6307W        W10507   3.062   7.776   2.063  0.1975 -0.0584  0.0706
 6308W        W10508  10.218   9.129   0.757  0.0953  0.1627  0.0593
 6309W        W10509   5.954   0.178   3.956 -0.1819  0.1432  0.0122
 6310W        W10510   0.705   0.941  12.809 -0.1186 -0.0658  0.1255
 6311W        W10511   1.153  10.060   1.639 -0.1389  0.0648  0.0951
 6312W        W10512   6.218   3.266  10.423  0.0811  0.3831  0.1725
 6313W        W10513   9.778   9.609   3.407  0.0951  0.0954 -0.0629
 6314W        W10514   4.950   4.505   2.408 -0.4424  0.1806  0.2667
 6315W        W10515   5.093   2.684  10.999 -0.3741  0.0089 -0.1540
 6316W        W10516   1.739   9.545  11.395  0.1809 -0.2174 -0.3075
 6317W        W10517   5.475   3.341   8.648  0.1310  0.0488 -0.2753
 6318W        W10518   9.607   5.217   0.812 -0.3125  0.1347  0.4635
 6319W        W10519   5.995   5.136   3.315 -0.1786  0.1462 -0.0816
 6320W        W10520   0.827   5.367  10.654  0.0200  0.2568  0.0108
 6321W        W10521  10.581   7.145   7.932 -0.0410 -0.0495  0.1162
 6322W        W10522   0.405   6.674   1.970  0.0149 -0.0517  0.0262
 6323W        W10523   3.703   6.327   1.308 -0.2819  0.0283  0.1785
 6324W        W10524   8.373   6.847  10.456 -0.0776  0.1061  0.0444
 6325W        W10525   6.618   0.482   4.686 -0.0509  0.1081 -0.3531
 6326W        W10526   1.013   8.210   3.179  0.2060  0.1601 -0.0007
 6327W        W10527   0.518  10.591  12.450 -0.0342  0.2040  0.4453
 6328W        W10528   0.816   9.935   8.875  0.2703  0.1117 -0.5854
 6329W        W10529   1.001   4.108   2.586 -0.1654  0.2495  0.0866
 6330W        W10530   5.895   4.215   2.164 -0.1686  0.2737 -0.0957
 6331W        W10531   5.443  10.157  10.170  0.0732 -0.0772 -0.2685
 6332W        W10532   2.665   7.111   7.986  0.1560 -0.0919 -0.0546
 6333W        W10533   2.117   1.495  10.752  0.0955 -0.0627  0.0288
 6334W        W10534   6.131   5.286  12.422  0.1741  0.2167  0.1285
 6335W        W10535   9.702   1.702   9.784  0.0584  0.2148 -0.1519
 6336W        W10536   5.802   1.609  12.743 -0.1155  0.1223  0.2830
 6337W        W10537  10.697   4.810   2.099  0.2575  0.2993 -0.0548
 6338W        W10538   0.247   0.715   0.779 -0.0540 -0.0966 -0.1434
 6339W        W10539   4.159   3.815   2.162  0.0864 -0.1209 -0.1739
 6340W        W10540   8.455   9.961   0.558 -0.0301  0.0322 -0.2437
 6341W        W10541   6.595   9.288   0.502 -0.1529 -0.1197  0.3124
 6342W        W10542   5.573   3.782   3.194 -0.2285 -0.0639  0.2534
 6343W        W10543   2.719   2.116   8.848  0.2421  0.1507 -0.2650
 6344W        W10544   7.595  10.217  10.132  0.1898 -0.0735  0.4380
 6345W        W10545  10.082   5.444   0.669  0.1472 -0.1944  0.0010
 6346W        W10546   3.985   1.062   3.400  0.3859 -0.0516 -0.0008
 6347W        W10547  10.700   9.933   3.069  0.0507 -0.4680  0.3573
 6348W        W10548   1.968   1.509   2.569 -0.0297  0.0547 -0.1001
 6349W        W10549   4.288   8.892   0.836 -0.2903  0.1431 -0.2681
 6350W        W10550   7.292   8.689   2.004  0.1169 -0.0393  0.2952
 6351W        W10551   3.436   0.749   3.682 -0.1874 -0.2777 -0.3517
 6352W        W10552   8.536   4.153   3.336 -0.0827 -0.0646 -0.0564
 6353W        W10553   1.498  10.354   0.652 -0.0982 -0.0461  0.1074
 6354W        W10554   8.289   7.148  12.396  0.2654 -0.3635  0.0601
 6355W        W10555   7.514   9.078   1.770 -0.0765  0.0784 -0.0323
 6356W        W10556   0.471   5.230  12.601  0.1952 -0.1987  0.0792
 6357W        W10557   3.819   1.318  12.155  0.0688  0.0786 -0.1742
 6358W        W10558   1.463   9.751   8.250 -0.2613  0.1060 -0.0029
 6359W        W10559   4.283   2.554   0.149  0.1696  0.0356  0.0014
 6360W        W10560   3.846   2.065  11.451 -0.1365  0.1118 -0.0395
 6361W        W10561   9.434   8.724   1.474 -0.0881  0.0969  0.1118
 6362W        W10562   1.601   5.598  10.266  0.0358  0.1514 -0.2759
 6363W        W10563   5.300   0.532   8.729  0.0192  0.1990  0.2004
 6364W        W10564   9.795   6.534   0.787  0.1561  0.1612 -0.0003
 6365W        W10565   9.243   8.632  11.624  0.2874 -0.2540 -0.2652
 6366W        W10566   7.399   3.477  12.482 -0.1498  0.3427 -0.1600
 6367W        W10567   3.675   9.994  11.693 -0.1604 -0.2329  0.2601
 6368W        W10568   6.193   4.693  10.019  0.0503  0.0296 -0.1168
 6369W        W10569   7.789   5.713   3.360 -0.1899 -0.0333  0.5317
 6370W        W10570   3.447   6.672   3.402 -0.0625  0.1877 -0.2595
 6371W        W10571   5.080   2.983   3.636 -0.0679  0.2060 -0.3139
 6372W        W10572   7.192   7.225   0.757  0.2955  0.1922 -0.1674
 6373W        W10573   0.070   5.273  12.026 -0.4166  0.4413  0.3402
 6374W        W10574   4.228   3.944  11.196  0.2346  0.2445 -0.0799
 6375W        W10575   4.776   4.530   8.801  0.0136  0.1260  0.1931
 6376W        W10576   6.615   5.794  11.107  0.0018 -0.1295  0.2152
 6377W        W10577   4.732  10.420   0.462  0.0183  0.0499  0.2693
 6378W        W10578   3.294  10.494   0.329 -0.1050  0.1425  0.0189
 6379W        W10579  10.552   3.407  11.304 -0.0683 -0.2592 -0.1764
 6380W        W10580   7.073   4.748   0.151 -0.5731  0.1446 -0.0870
 6381W        W10581   5.132   1.920  12.187  0.2417  0.1762  0.0443
 6382W        W10582   9.794  10.219   1.007  0.0651  0.1643  0.4854
 6383W        W10583   5.124   7.347  11.509  0.0331 -0.0055  0.0894
 6384W        W10584   3.453   6.477   0.885 -0.3359 -0.1276 -0.0342
 6385W        W10585  10.175   2.014   1.905  0.1183  0.2972 -0.0493
 6386W        W10586   2.655   8.246  11.355  0.2502 -0.2194 -0.0524
 6387W        W10587   2.342   4.111   2.103  0.3014 -0.3303  0.1892
 6388W        W10588   5.546   8.899   3.745  0.1780 -0.3673  0.0472
 6389W        W10589   1.829   9.363   9.629  0.1158 -0.3839  0.2996
 6390W        W10590   8.400   4.534  12.329  0.3001  0.1602 -0.1586
 6391W        W10591  10.066   4.522   1.121  0.1510 -0.0935  0.1103
 6392W        W10592   1.409   6.810   9.218  0.1987  0.1998 -0.1374
 6393W        W10593   6.128   5.029  10.391 -0.2158  0.0883  0.2361
 6394W        W10594   2.534   2.608  11.007  0.1388 -0.0725 -0.1837
 6395W        W10595   5.764   2.139   9.633 -0.2581 -0.1979 -0.0842
 6396W        W10596   9.972   9.876   9.707 -0.1111  0.2714  0.0083
 6397W        W10597   1.223   7.921  11.135  0.1039  0.0145  0.1478
 6398W        W10598   5.963   4.996   0.471 -0.1950 -0.3483 -0.0400
 6399W        W10599   7.995   1.581   0.154  0.1341 -0.1208 -0.0245
 6400W        W10600   1.700   1.374   2.988  0.0746 -0.5088  0.1915
 6401W        W10601   3.226   7.413   0.839  0.1693  0.0667 -0.0178
 6402W        W10602   8.189   0.705  10.321 -0.1414 -0.1222 -0.2767
 6403W        W10603   8.982   4.128  10.706  0.2722  0.0982  0.2207
 6404W        W10604   3.999   0.754   0.663  0.1959  0.1798  0.0341
 6405W        W10605   4.511   3.517   0.559 -0.0671 -0.0490  0.0075
 6406W        W10606   0.281   0.806  11.033  0.2710 -0.2500  0.1093
 6407W        W10607   4.304   3.217   9.293  0.1468  0.1105 -0.0474
 6408W        W10608   8.820   2.388  12.794  0.0234 -0.2493 -0.2089
 6409W        W10609   9.182   9.490   8.623  0.0672 -0.0114 -0.0541
 6410W        W10610   0.268   4.610   2.925 -0.2127  0.0579 -0.0834
 6411W        W10611   4.858   0.213   8.966 -0.1810  0.2834 -0.2186
 6412W        W10612   4.843   9.717   9.553  0.0130 -0.0062 -0.3107
 6413W        W10613   8.368   3.275  11.600 -0.2857 -0.1961  0.0867
 6414W        W10614   6.270   7.258   2.920 -0.1483  0.0758 -0.2971
 6415W        W10615   0.294   0.977  12.470 -0.0044 -0.0791  0.0459
 6416W        W10616   6.498   5.722   2.834  0.0963  0.0356 -0.0043
 6417W        W10617   0.982   2.523   2.779 -0.1034  0.4128 -0.1223
 6418W        W10618   3.809   3.698   2.909 -0.3159  0.2482  0.0016
 6419W        W10619   8.475   4.052  11.731 -0.3734  0.0655 -0.2142
 6420W        W10620   5.531   8.050   3.609  0.0879  0.1737  0.1843
 6421W        W10621   4.649   2.392  11.042  0.0814 -0.3036 -0.1140
 6422W        W10622   1.278   1.824  11.185 -0.1145  0.0263 -0.3616
 6423W        W10623   9.242   7.850   1.816  0.0745 -0.0588  0.0895
 6424W        W10624   1.687   9.973   1.769 -0.2496  0.0488  0.0387
 6425W        W10625   7.650   2.635  10.391  0.0274  0.3423  0.1893
 6426W        W10626   0.247   2.968   9.875 -0.1440 -0.2592 -0.0327
 6427W        W10627   4.605   7.151   0.457  0.0232 -0.0811 -0.0796
 6428W        W10628   1.038   9.771  10.673 -0.2241  0.3870 -0.0205
 6429W        W10629   6.271   5.532   1.064 -0.2107  0.0632 -0.2578
 6430W        W10630  10.098   4.744  11.980 -0.3435 -0.1004  0.2305
 6431W        W10631   2.690   2.409   1.691 -0.1500  0.1032  0.1558
 6432W        W10632   9.560   2.114   1.596 -0.0786 -0.0609  0.1944
 6433W        W10633   4.597   7.979  10.790 -0.3153 -0.0969  0.1046
 6434W        W10634   0.122   9.838   9.422 -0.1798 -0.1460 -0.1488
 6435W        W10635   6.112   7.532   9.130  0.2277  0.1056  0.0680
 6436W        W10636   1.183   2.509  11.749 -0.3050  0.2286  0.4202
 6437W        W10637   8.811  10.731  11.925  0.1694 -0.1643 -0.0928
 6438W        W10638   4.651   6.887   2.982 -0.0615  0.1697  0.1868
 6439W        W10639   7.403   1.413  10.009 -0.0966 -0.1308 -0.2520
 6440W        W10640   4.063   1.540   9.922 -0.1253 -0.1706 -0.0629
 6441W        W10641   5.022   7.193   1.486  0.0394 -0.0944  0.1485
 6442W        W10642   3.043   8.326   8.771  0.2078 -0.0188 -0.2090
 6443W        W10643   3.427   2.294   7.969  0.2005 -0.0667  0.1443
 6444W        W10644   9.401   1.325  10.830  0.0538 -0.1979 -0.0550
 6445W        W10645   1.929   0.592   8.818 -0.0477  0.1121  0.0090
 6446W        W10646   1.629   4.718   2.238 -0.2779 -0.1307 -0.1665
 6447W        W10647   5.607   5.218  10.278  0.0462  0.1146  0.0350
 6448W        W10648   1.409   1.154   9.388  0.0062  0.0691  0.0670
 6449W        W10649   6.991   9.566   0.148  0.2692 -0.0722  0.2851
 6450W        W10650   3.328   9.832   1.104 -0.3982 -0.0597  0.1187
 6451W        W10651   0.514   6.073  11.080 -0.2297  0.1048  0.1009
 6452W        W10652   0.395   2.819   0.412  0.0042  0.0878  0.0700
 6453W        W10653   4.325   9.892   0.914 -0.0161  0.0785  0.3192
 6454W        W10654   7.869   1.722   2.758 -0.3257  0.1608  0.1059
 6455W        W10655   0.007   7.827  12.557  0.4575 -0.2635  0.0071
 6456W        W10656   4.318   9.049   3.448  0.0410  0.0963 -0.1796
 6457W        W10657   2.267   2.123   3.677  0.2012 -0.0972 -0.0368
 6458W        W10658   1.323   5.987   3.030 -0.2868  0.3695 -0.1330
 6459W        W10659   7.135   7.056   2.922  0.2938  0.1287  0.1353
 6460W        W10660   2.285   7.514   0.894 -0.2093 -0.2434 -0.1292
 6461W        W10661   3.751   4.348   3.490 -0.0777 -0.1038  0.4178
 6462W        W10662   1.497   4.564   1.194  0.1769 -0.3321  0.3583
 6463W        W10663   8.373   5.696  10.482  0.0600 -0.2929 -0.2645
 6464W        W10664   0.066   0.411  11.875 -0.0419  0.2686  0.0670
 6465W        W10665   4.519   9.531   8.637 -0.1895  0.4056 -0.0126
 6466W        W10666  10.280   4.405   9.741 -0.1162  0.1171  0.1480
 6467W        W10667   4.519   2.423   2.499 -0.0135  0.0920  0.1193
 6468W        W10668   4.491   0.894   9.308  0.0519  0.2421 -0.2326
 6469W        W10669   7.032   9.079   8.711 -0.0920 -0.0084 -0.0057
 6470W        W10670   6.605   8.784   2.918  0.1563  0.0864 -0.1376
 6471W        W10671   6.425   7.204  10.582 -0.0293 -0.2603  0.0817
 6472W        W10672   7.764  10.580   1.014 -0.1073  0.1777 -0.2694
 6473W        W10673   1.487   8.310   0.505  0.3414 -0.0410 -0.2177
 6474W        W10674   0.173   7.979   1.997 -0.0901  0.2055  0.1549
 6475W        W10675   9.402   7.132   0.341 -0.0593 -0.4014  0.0214
 6476W        W10676   9.225   1.309  11.293  0.1689 -0.1064 -0.0809
 6477W        W10677   2.579   8.736   0.107 -0.1054 -0.1123  0.0649
 6478W        W10678   2.759   9.890  11.064  0.0735 -0.0354  0.4390
 6479W        W10679   5.147   6.839   1.133 -0.0957 -0.0556  0.1675
 6480W        W10680   9.461   6.615  11.902 -0.0213 -0.2452  0.0467
 6481W        W10681   6.906   0.182  11.340  0.0088 -0.0803 -0.0095
 6482W        W10682   7.977   2.356   4.087 -0.1314  0.0119 -0.0940
 6483W        W10683   3.371  10.145   3.855  0.3060 -0.0372 -0.0191
 6484W        W10684   0.033   8.545   2.845 -0.2002 -0.0192  0.0211
 6485W        W10685   6.735   6.459   2.502 -0.1304 -0.1483  0.0661
 6486W        W10686   0.504   9.071  11.149  0.0177 -0.0847  0.1357
 6487W        W10687   3.837   3.807   3.427 -0.3606 -0.0762  0.1053
 6488W        W10688   0.405   2.871  10.834 -0.2120  0.1399  0.3878
 6489W        W10689   2.596  10.417   9.729 -0.1313  0.3259  0.1381
 6490W        W10690   0.670   8.041  10.924  0.0843  0.3148 -0.1894
 6491W        W10691   1.536   0.858   2.960  0.0877  0.1310  0.3455
 6492W        W10692   4.252   9.948   8.376 -0.2823 -0.3807  0.0271
 6493W        W10693   2.121   2.474   9.397  0.1038  0.3147 -0.2562
 6494W        W10694  10.059   2.906   1.969 -0.2796  0.0398 -0.0871
 6495W        W10695   5.120   8.003   8.066  0.0784  0.0667  0.0073
 6496W        W10696   5.192   2.456   9.861  0.2719  0.1429 -0.0132
 6497W        W10697   6.213   5.775  12.096  0.1213  0.1362 -0.2082
 6498W        W10698  10.134   3.326   9.125 -0.3412 -0.0169 -0.4022
 6499W        W10699   2.613   3.278   9.778 -0.3339  0.1269 -0.0659
 6500W        W10700   2.778   2.911   9.403  0.1996  0.0236  0.1048
 6501W        W10701   1.824   8.077   2.241 -0.0877 -0.1122  0.3421
 6502W        W10702   8.834   3.379   0.972  0.0032 -0.0717 -0.1668
 6503W        W10703   7.359   0.694  10.566 -0.3093 -0.2785 -0.1757
 6504W        W10704   5.126   9.720   8.419 -0.2843 -0.1576  0.0363
 6505W        W10705   5.194   6.646  10.695 -0.0848  0.0658 -0.1862
 6506W        W10706   7.077   9.984   2.776  0.3724  0.1025 -0.1100
 6507W        W10707   9.833   8.792   1.084 -0.0589 -0.1924 -0.1189
 6508W        W10708   3.930   5.982   9.186  0.2485  0.0661 -0.3815
 6509W        W10709   6.325   4.266   2.356 -0.0666  0.0232 -0.1432
 6510W        W10710   8.663   4.039   1.510 -0.0517  0.1316 -0.0048
 6511W        W10711   9.464   2.710   3.100 -0.2098 -0.0242  0.1877
 6512W        W10712   8.018   7.098  11.924 -0.1174  0.1450 -0.0204
 6513W        W10713   0.303   4.887  12.335 -0.1314 -0.0520  0.1404
 6514W        W10714   1.971   6.593  11.864 -0.0701 -0.0865 -0.2744
 6515W        W10715   7.970   1.736   2.071 -0.1971 -0.1260 -0.0823
 6516W        W10716   8.251   5.334   0.413 -0.1410 -0.3839 -0.0440
 6517W        W10717   6.790   8.326   1.357  0.1848 -0.1768  0.2597
 6518W        W10718   4.362   2.614   0.614 -0.0635 -0.1262  0.1581
 6519W        W10719   2.330   2.954   3.679 -0.1639 -0.0452 -0.0765
 6520W        W10720   1.190   6.696   9.688  0.1296  0.0933  0.0050
 6521W        W10721   2.186   5.885  11.219  0.0503  0.3495  0.1606
 6522W        W10722   9.449   3.149   3.287  0.1861  0.0262 -0.1407
 6523W        W10723   6.097  10.419   3.800  0.1978  0.0204 -0.1142
 6524W        W10724   0.083   6.203   1.137  0.1451 -0.0937  0.0280
 6525W        W10725   0.054   6.237   1.666 -0.3426 -0.3813  0.1256
 6526W        W10726   3.041   4.493   9.955 -0.2077 -0.2673  0.4010
 6527W        W10727   7.101   1.670   0.225 -0.1662  0.2794  0.1377
 6528W        W10728   0.658   9.921  11.662 -0.1278 -0.2055 -0.2738
 6529W        W10729   8.718   4.852   1.158 -0.2754  0.0040  0.4094
 6530W        W10730   9.268   0.785   1.151  0.2216 -0.0144 -0.1014
 6531W        W10731   9.748   9.464  10.041  0.0057  0.1625  0.1304
 6532W        W10732   5.570   0.407   9.628  0.0838  0.2017  0.0676
 6533W        W10733   6.811   8.913  11.050 -0.2799  0.0580  0.2101
 6534W        W10734   2.264   0.946   4.122  0.2606 -0.2949  0.2020
 6535W        W10735   4.189   3.866   9.848 -0.0411 -0.1915 -0.1988
 6536W        W10736   7.678   0.039   2.398  0.0489  0.0428 -0.2389
 6537W        W10737   1.343   8.295  12.399 -0.1369  0.1903 -0.2814
 6538W        W10738   1.612   6.605  11.096 -0.2781  0.1917 -0.0687
 6539W        W10739   1.455   2.130   4.222  0.4337  0.2838 -0.1198
 6540W        W10740   4.926   5.120   0.563  0.1842  0.3273 -0.0918
 6541W        W10741   4.204   6.320   3.946 -0.2029  0.0125  0.1653
 6542W        W10742   2.567   9.638   1.152  0.0863 -0.1198 -0.2181
 6543W        W10743   7.274   2.021   8.378  0.0544 -0.2931 -0.1827
 6544W        W10744   6.668   2.726   3.504  0.1212  0.4773 -0.2610
 6545W        W10745   0.038   3.090   2.827 -0.0141  0.1619  0.0867
 6546W        W10746   5.636   0.111   1.327 -0.1308 -0.1127  0.2133
 6547W        W10747   4.301   4.488   2.863 -0.1897  0.1506 -0.4282
 6548W        W10748   9.350   4.617  11.244 -0.2332  0.1532  0.0009
 6549W        W10749   1.632   0.245   3.701  0.0476  0.0656  0.4303
 6550W        W10750   1.563   4.210   2.406 -0.4617 -0.1375 -0.0910
 6551W        W10751   3.347   0.590   0.681  0.0067 -0.1213 -0.1466
 6552W        W10752   5.721   0.543   4.156 -0.0752 -0.0035  0.3224
 6553W        W10753   0.930   0.154  12.422 -0.1454 -0.1107  0.1204
 6554W        W10754   0.163   7.133   2.600  0.0195 -0.1633  0.0605
 6555W        W10755   0.618   8.554  11.204 -0.2437  0.4361  0.1939
 6556W        W10756   5.218   6.553  12.606 -0.1652 -0.1616  0.0395
 6557W        W10757   4.722  10.606   8.505 -0.1600 -0.3641  0.2182
 6558W        W10758   0.473   0.811  11.914  0.0025  0.0203 -0.2398
 6559W        W10759   9.037   8.542   0.522  0.2340 -0.1352 -0.0854
 6560W        W10760   6.849   2.354   2.629  0.0018 -0.3333 -0.0559
 6561W        W10761   1.475   1.039   0.214  0.0250 -0.4329  0.2934
 6562W        W10762   6.078  10.628  10.704 -0.2268 -0.2024 -0.2330
 6563W        W10763   1.985   1.402  11.907  0.0080 -0.1110  0.1175
 6564W        W10764   5.813   7.344   2.769 -0.1446 -0.0540  0.0033
 6565W        W10765   4.112   4.108   9.420  0.0659  0.2316  0.1049
 6566W        W10766   9.316   2.601   4.582 -0.0813  0.0592 -0.2789
 6567W        W10767   1.706  10.091   9.186  0.2290  0.1047 -0.0523
 6568W        W10768   5.159   9.347  10.717  0.1056 -0.2802 -0.3159
 6569W        W10769   3.843   4.698   8.683  0.2551 -0.2137 -0.0925
 6570W        W10770   0.061   2.038  10.728  0.0808  0.0780 -0.2232
 6571W        W10771   5.171   9.596   7.528  0.2076 -0.1590  0.0246
 6572W        W10772   4.556   7.505   2.097  0.1017  0.0186 -0.0666
 6573W        W10773   8.300  10.648   1.056  0.3192  0.1163  0.0326
 6574W        W10774   1.663   2.407   9.068 -0.0447  0.1242  0.3862
 6575W        W10775   8.944   7.813   3.094  0.1392  0.0639  0.4037
 6576W        W10776   8.027   3.331   0.807  0.1977  0.0818  0.1535
 6577W        W10777   6.162   5.540   9.751 -0.0575 -0.2297  0.0061
 6578W        W10778   0.682   6.328   4.088 -0.1964 -0.3861  0.2432
 6579W        W10779   6.061   3.778   9.173 -0.0997  0.2679 -0.0937
 6580W        W10780   6.336   4.585   2.995  0.1427 -0.4774  0.1187
 6581W        W10781   4.315   2.750  12.231  0.1413  0.0429 -0.2056
 6582W        W10782   3.440   3.551   3.233  0.1217  0.0976 -0.2397
 6583W        W10783   5.680   8.468   0.597 -0.1237 -0.3893  0.0235
 6584W        W10784   9.267   4.138   9.428 -0.0263 -0.1739 -0.0524
 6585W        W10785   9.896   4.210  11.939  0.1845 -0.1741  0.3206
 6586W        W10786   5.303   7.895   8.867  0.0131  0.1598 -0.1506
 6587W        W10787   9.132   7.391   2.594 -0.1350  0.2038 -0.1925
 6588W        W10788   5.118   8.990   8.153 -0.2491 -0.0751 -0.0013
 6589W        W10789   0.212   0.428   8.637  0.0427 -0.1774 -0.0307
 6590W        W10790   0.443   8.813  12.510  0.2486 -0.0588  0.0179
 6591W        W10791   1.189   0.012   3.126  0.0910 -0.0120  0.0472
 6592W        W10792   3.857   3.316   1.127 -0.0832 -0.0359  0.1627
 6593W        W10793   5.508   1.153  11.710  0.2500 -0.1783  0.0003
 6594W        W10794   9.875   7.230   8.979 -0.5136 -0.4030 -0.3559
 6595W        W10795  10.061   5.332   1.491 -0.3928 -0.0540 -0.0804
 6596W        W10796  10.128   2.929   0.852  0.1232  0.3813 -0.2486
 6597W        W10797  10.125   8.591  12.678  0.1242  0.1342 -0.0336
 6598W        W10798   2.637   6.713  11.026  0.1145  0.1124 -0.0283
 6599W        W10799   6.261   6.175   0.032  0.0509  0.0581  0.0644
 6600W        W10800   6.118   9.095  10.156 -0.3003  0.1723  0.0055
 6601W        W10801   7.172   2.051   3.865 -0.0082  0.0994 -0.0727
 6602W        W10802   8.213   1.105   8.870  0.0975 -0.0483  0.0826
 6603W        W10803   4.826   6.051  11.243 -0.4218 -0.4028 -0.1335
 6604W        W10804   1.679   6.952  12.046  0.2626  0.1663 -0.1862
 6605W        W10805   3.020   8.800  10.828  0.0206 -0.0994 -0.0269
 6606W        W10806   4.806   6.869  12.771 -0.1261  0.2586 -0.0340
 6607W        W10807   6.938   1.966   1.196  0.0715  0.3806  0.3278
 6608W        W10808   7.640   2.314   0.413 -0.0267  0.1423 -0.0332
 6609W        W10809   1.001   5.431  11.589 -0.2175  0.2389 -0.3267
 6610W        W10810   4.575   6.955  10.091 -0.0610  0.1589 -0.2637
 6611W        W10811   9.090   2.742   4.113 -0.0211 -0.0569 -0.0435
 6612W        W10812   5.175   0.692   3.463  0.1136 -0.3078  0.2081
 6613W        W10813   2.336   0.620  12.265 -0.2367 -0.1258  0.2974
 6614W        W10814   6.245   9.469   3.896 -0.0207  0.0221 -0.1437
 6615W        W10815   8.010   2.577   3.103  0.2022 -0.0647  0.6040
 6616W        W10816   5.564   7.697   2.385 -0.2095  0.1097  0.1364
 6617W        W10817   8.609   3.778   2.321  0.0498  0.0778  0.4595
 6618W        W10818   2.863   3.899  12.617 -0.1547  0.1578  0.1133
 6619W        W10819   3.313   2.645   9.360  0.0473 -0.0464  0.1519
 6620W        W10820   5.856  10.234   0.821  0.2176  0.0240 -0.2193
 6621W        W10821   3.901   8.547   2.182  0.1405 -0.1944  0.2223
 6622W        W10822   9.563   8.490   3.300 -0.1885 -0.0277 -0.1346
 6623W        W10823  10.403   1.551   0.844  0.1677  0.3427  0.0927
 6624W        W10824   6.889   3.323  12.185  0.0141 -0.1954 -0.1751
 6625W        W10825   1.285   4.650   8.813  0.0896 -0.2139 -0.1801
 6626W        W10826   6.300   3.998   2.765  0.1654  0.0747  0.1701
 6627W        W10827   8.936   1.920  12.611  0.1418 -0.1948  0.0228
 6628W        W10828   0.557   4.463  12.343 -0.0355 -0.0207 -0.1274
 6629W        W10829   0.375   7.272   9.845  0.0046  0.2641  0.1789
 6630W        W10830   3.971   4.284   0.458 -0.1212 -0.3259  0.0700
 6631W        W10831   1.349   7.022   2.242  0.0494 -0.2471  0.1092
 6632W        W10832   8.793   1.998   0.314  0.2034  0.2055  0.2817
 6633W        W10833   9.393   8.515   2.654  0.0733 -0.1957 -0.2272
 6634W        W10834   1.950   7.261  10.040  0.0134  0.4333 -0.2919
 6635W        W10835   3.493   3.048  11.329  0.2606  0.0097  0.1153
 6636W        W10836   3.999   2.860   9.608 -0.5071 -0.1063  0.2065
 6637W        W10837   5.269   4.998   2.317 -0.1989  0.0670 -0.0507
 6638W        W10838  10.269   8.681  11.244 -0.2198 -0.2104  0.0079
 6639W        W10839   5.955   0.869  12.374 -0.0204  0.2530  0.0173
 6640W        W10840   9.526   9.542  11.070  0.0228  0.2563 -0.0545
 6641W        W10841   0.748   0.344   3.626 -0.3839  0.0325  0.0690
 6642W        W10842   4.135   5.660  10.166 -0.0059  0.0153  0.3965
 6643W        W10843   8.829   4.109   0.221  0.2617 -0.2277 -0.3062
 6644W        W10844   3.707   1.958   9.930  0.0754 -0.1582  0.1768
 6645W        W10845  10.263   2.204  11.548 -0.0423 -0.1299 -0.1564
 6646W        W10846   2.501   8.460  12.545  0.1324 -0.0552  0.2102
 6647W        W10847   1.465   3.054   3.848  0.1536  0.1141 -0.3052
 6648W        W10848   8.658   6.926  10.860  0.2290  0.1870 -0.1887
 6649W        W10849   4.523   1.175   8.875 -0.1220 -0.3494 -0.2693
 6650W        W10850   0.877   5.028   3.577 -0.2917 -0.2334  0.0237
 6651W        W10851   9.617   9.261   2.308  0.1048  0.0174 -0.0926
 6652W        W10852   3.126   6.094   2.424  0.4136  0.0691 -0.0309
 6653W        W10853   7.102   9.972  10.210 -0.2245  0.2882  0.1513
 6654W        W10854   3.795   1.410  12.623  0.3298 -0.0847 -0.4280
 6655W        W10855   1.241   6.077   2.555 -0.2962 -0.0587 -0.2679
 6656W        W10856   6.963   3.054   0.913 -0.0374  0.0117  0.0623
 6657W        W10857   1.237   1.678   1.602  0.4541  0.0590 -0.3378
 6658W        W10858   0.955   6.257   2.158  0.3939 -0.1395  0.1001
 6659W        W10859   8.787   8.725  11.319 -0.3146 -0.1953  0.2924
 6660W        W10860   8.554   7.051  11.980  0.1250  0.0977 -0.0417
 6661W        W10861   1.448   7.360  10.027  0.1652 -0.0188 -0.0330
 6662W        W10862   2.781   1.861   1.137  0.1447  0.1400 -0.1016
 6663W        W10863  10.660   4.345   2.239  0.0686  0.1999  0.0307
 6664W        W10864   1.166   4.294  10.188  0.1730  0.0421  0.1729
 6665W        W10865   0.224   6.111   0.027  0.1194  0.1126 -0.0034
 6666W        W10866   7.180  10.591  12.390 -0.0992 -0.1881  0.0912
 6667W        W10867   9.087   9.704  10.332 -0.2428  0.2216  0.0679
 6668W        W10868   9.174   6.236   8.953 -0.2149 -0.0427  0.3740
 6669W        W10869   1.999   0.457   9.315  0.1435  0.1831  0.2786
 6670W        W10870   3.827   9.915  12.190  0.2532 -0.1634 -0.0059
 6671W        W10871   2.953   1.807   9.728  0.1177 -0.1841 -0.1721
 6672W        W10872   3.993   8.324   2.992  0.0136 -0.2301  0.0157
 6673W        W10873   9.020   0.146   2.946 -0.1738 -0.1783 -0.0309
 6674W        W10874   8.524  10.733   2.120  0.0838  0.4185 -0.3530
 6675W        W10875   4.661   3.952  12.588  0.1153  0.4332  0.2204
 6676W        W10876   8.497   0.903   1.870  0.1628  0.4654 -0.0530
 6677W        W10877   2.916  10.346  11.101 -0.1049 -0.1302 -0.1440
 6678W        W10878   1.934   0.224   0.233 -0.1875  0.0996  0.0046
 6679W        W10879   0.703   0.854  11.312 -0.0565  0.3689  0.0636
 6680W        W10880   2.143   9.518   9.986 -0.1254 -0.1156 -0.0691
 6681W        W10881   8.126   7.742  11.582  0.0340 -0.3088  0.1765
 6682W        W10882   0.480   3.298   2.869 -0.2701 -0.0848  0.0915
 6683W        W10883   3.718  10.462   9.505 -0.2731  0.1876  0.0232
 6684W        W10884   0.323   4.644  10.445  0.0913 -0.1894  0.0092
 6685W        W10885   9.129   2.740   0.293  0.2125 -0.2737  0.3153
 6686W        W10886   4.331   4.292  10.206  0.1026  0.1145  0.3707
 6687W        W10887   8.065   9.928   2.948  0.0427 -0.1096 -0.0390
 6688W        W10888   6.977   8.537  10.021  0.2153 -0.0207  0.0040
 6689W        W10889   8.952   8.683  12.017 -0.0350  0.2285  0.1534
 6690W        W10890   3.980   3.259   0.320  0.3431  0.0253 -0.2331
 6691W        W10891   8.078   4.542   2.876  0.2267  0.2774 -0.1311
 6692W        W10892   4.289   9.503   9.191 -0.0897 -0.2032  0.2036
 6693W        W10893   0.063   7.584   8.093  0.1133 -0.1158 -0.0514
 6694W        W10894   8.100   3.173  12.156 -0.1798 -0.2911  0.1491
 6695W        W10895   9.345  10.127  10.477 -0.0028  0.0590  0.1353
 6696W        W10896   8.116   2.635  10.008  0.1262 -0.1222 -0.0768
 6697W        W10897  10.582   5.361   2.074  0.2609  0.0487 -0.0180
 6698W        W10898   5.266   8.935  10.373  0.2761  0.0010  0.1147
 6699W        W10899   8.271   4.683   1.856  0.0723 -0.1877  0.0966
 6700W        W10900   3.932   1.194  11.564 -0.1061  0.0402  0.2684
 6701W        W10901   3.956   4.233  12.275 -0.0226 -0.1402  0.0718
 6702W        W10902   5.080  10.085  11.696 -0.1227  0.2856 -0.3157
 6703W        W10903   6.802   8.743   8.969 -0.2848 -0.1561 -0.0061
 6704W        W10904   1.829   5.419   1.578 -0.0627  0.1106 -0.1563
 6705W        W10905   9.368   3.273  10.804 -0.2356  0.0723  0.2836
 6706W        W10906   5.688   0.108   1.896  0.0822 -0.4560 -0.1323
 6707W        W10907   7.614   2.034   8.773 -0.0996  0.1215  0.0763
 6708W        W10908  10.526   0.258   3.149 -0.2155  0.3007  0.1429
 6709W        W10909   6.802   3.420   8.899  0.1651  0.2576 -0.0029
 6710W        W10910   1.505   9.907  10.463  0.0700 -0.0962 -0.1775
 6711W        W10911   0.052   1.293   9.017 -0.3168  0.1613 -0.2612
 6712W        W10912   5.133   8.872  11.130 -0.1605 -0.3408 -0.1636
 6713W        W10913   9.746   7.514   1.159 -0.1103 -0.1514  0.2156
 6714W        W10914   8.079   2.392   2.196 -0.2926  0.4799 -0.0553
 6715W        W10915   2.497   1.540  11.881 -0.2560 -0.0041 -0.1980
 6716W        W10916   8.400   1.715   0.490  0.3023  0.0471 -0.0815
 6717W        W10917   9.423   0.257   0.197  0.1226  0.1237  0.1851
 6718W        W10918   3.058   6.441   0.550  0.3673  0.2138  0.4331
 6719W        W10919   4.041   0.306   3.818 -0.0572 -0.0753  0.2553
 6720W        W10920   1.898   5.871   2.759  0.0188 -0.0013 -0.1146
 6721W        W10921  10.044   4.749   3.072 -0.4134  0.3836  0.2654
 6722W        W10922   4.891   9.877  10.748  0.1516 -0.1112 -0.0486
 6723W        W10923   0.642   2.510   9.919 -0.2503  0.0224 -0.1059
 6724W        W10924   5.999   9.412  11.868  0.0688 -0.0472  0.1170
 6725W        W10925   5.300   3.004   8.999  0.2886  0.0997  0.3568
 6726W        W10926   0.057   8.011   2.998  0.0825  0.3175 -0.3859
 6727W        W10927   8.557   0.328   1.250 -0.0602  0.1671 -0.0215
 6728W        W10928  10.664   6.975  12.234  0.2282 -0.0365 -0.0235
 6729W        W10929   5.044   2.700  12.114 -0.0813 -0.3859  0.0499
 6730W        W10930   4.805   8.451   4.780  0.1005 -0.0788  0.2041
 6731W        W10931   8.208   7.208   9.977  0.1055 -0.1638 -0.3046
 6732W        W10932   0.836   1.626  10.134 -0.2390  0.2419 -0.3115
 6733W        W10933   0.740   2.001  11.959 -0.1489 -0.0268 -0.0610
 6734W        W10934   3.852   9.705   1.040 -0.1761 -0.2650  0.0622
 6735W        W10935   0.025   1.264  11.025  0.0276  0.0810 -0.0220
 6736W        W10936   0.135   7.628   1.578  0.0601 -0.0413 -0.1229
 6737W        W10937   8.147  10.342   3.282 -0.0540 -0.1817 -0.0251
 6738W        W10938   2.829   0.097   2.528 -0.0808  0.3655 -0.1192
 6739W        W10939   1.237   0.239   4.052 -0.1854  0.0397 -0.2330
 6740W        W10940   1.352   4.379   9.770  0.0271 -0.4238 -0.0836
 6741W        W10941   9.525   1.098  12.395 -0.1405  0.3686  0.1079
 6742W        W10942   8.494   8.317   3.124 -0.2556  0.3187 -0.1826
 6743W        W10943   3.010   0.031   9.955 -0.2186  0.0480 -0.1801
 6744W        W10944   1.948   4.135   3.202  0.1817 -0.3265 -0.1653
 6745W        W10945   0.327   1.220   2.537 -0.3912 -0.0995  0.0176
 6746W        W10946   7.431   1.786  10.870  0.1585  0.1828  0.0731
 6747W        W10947   8.459   3.713  10.089  0.2051 -0.1903  0.1268
 6748W        W10948   6.131   1.175   8.576  0.0399  0.2342 -0.0729
 6749W        W10949   3.739   0.384   4.736  0.2580  0.0222 -0.4663
 6750W        W10950   3.441   5.018   3.910 -0.0680  0.0713  0.0772
 6751W        W10951   5.133   8.346   2.959 -0.2488  0.0061 -0.0123
 6752W        W10952   9.151   0.660   0.259 -0.0682 -0.0939 -0.0040
 6753W        W10953   9.179   3.206   2.232 -0.2208  0.0993 -0.1421
 6754W        W10954   3.632   0.394   4.048 -0.1419 -0.1733 -0.1216
 6755W        W10955   6.218   1.835  12.187  0.1389 -0.0293 -0.2334
 6756W        W10956   1.676   6.471  12.287 -0.0091 -0.0366  0.1076
 6757W        W10957   5.722  10.539  12.359  0.1828 -0.3488 -0.3213
 6758W        W10958   3.865   4.868   3.667  0.0879  0.4633  0.2234
 6759W        W10959   7.659  10.041   0.771  0.1105  0.1646 -0.0727
 6760W        W10960   1.537   3.850   8.866  0.4363 -0.2642  0.0028
 6761W        W10961   6.038   9.059   9.203 -0.2773  0.2502  0.0212
 6762W        W10962   5.968   3.099  10.859  0.0683  0.0380 -0.2195
 6763W        W10963   1.299   3.470  12.328 -0.0173  0.1803  0.0038
 6764W        W10964   5.055   8.765   1.152 -0.2462  0.2758 -0.0346
 6765W        W10965   1.648   4.377  10.507 -0.0814 -0.1628 -0.0133
 6766W        W10966   7.785   4.480   0.760 -0.0858  0.1396 -0.2197
 6767W        W10967   3.740   4.731   3.095  0.1941  0.0158 -0.2004
 6768W        W10968   3.389   3.771  10.129 -0.1971  0.2912 -0.3325
 6769W        W10969   0.478   5.143   8.648 -0.0130 -0.1597 -0.1638
 6770W        W10970   5.629   6.125   8.362  0.2351  0.2449  0.0526
 6771W        W10971   7.590   4.909  11.313 -0.1662  0.2170 -0.1839
 6772W        W10972   9.671   1.086  11.256 -0.0357  0.0976  0.3859
 6773W        W10973   0.356   6.377   9.798 -0.0062 -0.2300  0.3826
 6774W        W10974   7.098   2.746   2.440  0.1976  0.1136 -0.2906
 6775W        W10975   2.988   5.149   2.280 -0.1001  0.3808  0.1368
 6776W        W10976   5.554   4.655   2.019 -0.0195  0.0977  0.1932
 6777W        W10977   8.848   8.846   9.163 -0.3691 -0.0439 -0.2594
 6778W        W10978   2.183   4.633  12.720  0.0518 -0.0723  0.1797
 6779W        W10979   3.747   4.161   2.969 -0.0819 -0.0587 -0.2230
 6780W        W10980   9.328   4.631  10.669 -0.3335 -0.0992  0.0196
 6781W        W10981  10.382   5.696  10.542  0.1245 -0.2622  0.3702
 6782W        W10982   8.186  10.527   8.770 -0.0559 -0.0930 -0.1181
 6783W        W10983   0.525   1.829  10.507  0.0166  0.3381  0.3587
 6784W        W10984  10.129   8.499  11.795  0.4511  0.1861  0.0186
 6785W        W10985   8.668   9.445   0.554  0.2049  0.2532 -0.3585
 6786W        W10986   8.799   1.461  11.717 -0.1521  0.1424  0.2798
 6787W        W10987   7.564   2.672   9.810  0.0748 -0.0242 -0.0814
 6788W        W10988   7.913   2.077   0.053  0.0911 -0.0403  0.1686
 6789W        W10989   8.739   6.681   9.500  0.1006  0.0578 -0.3074
 6790W        W10990   2.241   6.435   9.346 -0.2085 -0.0673  0.0089
 6791W        W10991   4.971   0.202  12.089 -0.0285  0.1782  0.0744
 6792W        W10992   3.181   9.607   9.515  0.1255 -0.1242  0.0414
 6793W        W10993   9.796   5.647   3.084  0.0036  0.0462  0.3770
 6794W        W10994   3.204   7.169   3.394  0.1205  0.0784 -0.1703
 6795W        W10995   4.846   7.558   1.261  0.0980  0.0491 -0.1275
 6796W        W10996   6.467   0.030   3.886  0.2649 -0.0209  0.1749
 6797W        W10997   2.734  10.112  10.570 -0.0993  0.2291 -0.1342
 6798W        W10998   8.977   2.908   3.350 -0.0185  0.1499 -0.0386
 6799W        W10999  10.364   5.254   8.612 -0.0530  0.2432  0.2494
 6800W        W11000   6.618   9.794   3.014 -0.0925  0.1819 -0.1080
 6801W        W11001   3.801   5.359   9.516  0.0376  0.3668 -0.0970
 6802W        W11002   0.877   5.646   1.276 -0.2222 -0.0251  0.3067
 6803W        W11003   7.239   5.923   1.812 -0.1739 -0.4260  0.1430
 6804W        W11004   3.588   1.654   3.185 -0.0020  0.0136 -0.1007
 6805W        W11005   5.282   8.454  10.103  0.0224  0.2636  0.1852
 6806W        W11006   7.221   6.276   2.610  0.0611  0.0147  0.1555
 6807W        W11007   0.723   4.562   2.645 -0.2666 -0.1637  0.1767
 6808W        W11008   3.924   1.996   3.452 -0.0461 -0.3966  0.0633
 6809W        W11009   5.755   8.514   4.241  0.1982  0.0791 -0.0030
 6810W        W11010   8.331   6.132  11.301 -0.0859 -0.2331 -0.0641
 6811W        W11011   0.973   0.453  11.543 -0.3198  0.0152  0.3765
 6812W        W11012   4.313  10.358   1.808  0.0599  0.0553  0.1531
 6813W        W11013   8.980   5.507   3.066 -0.1641 -0.1150  0.1646
 6814W        W11014   7.240   4.759   3.994 -0.2348  0.0143 -0.1086
 6815W        W11015   4.087   0.992   9.591  0.1292  0.1725 -0.0857
 6816W        W11016   9.438   4.663   0.009  0.2797 -0.0203 -0.0095
 6817W        W11017   5.285  10.478  11.986  0.2163  0.2159  0.3831
 6818W        W11018   7.097   5.676  11.110 -0.1409 -0.0069  0.2690
 6819W        W11019   8.440   2.598   4.035  0.1588  0.0699  0.1974
 6820W        W11020   9.498   9.222   8.141  0.1320  0.1992  0.0044
 6821W        W11021   5.167   2.865   8.400 -0.0511 -0.1278 -0.1169
 6822W        W11022   0.296   4.875   9.416  0.1922  0.0841  0.1888
 6823W        W11023   3.439   9.689   9.993 -0.1948 -0.1614  0.0480
 6824W        W11024   9.450   5.044  11.551 -0.2389 -0.0128  0.0880
 6825W        W11025   2.245   9.190  10.400 -0.0016 -0.0319  0.0891
 6826W        W11026   4.999   7.475   8.940  0.3739 -0.0545  0.2809
 6827W        W11027  10.399   8.976   4.416 -0.1533  0.2552 -0.0384
 6828W        W11028   1.344   2.812   1.365 -0.1986  0.0223 -0.2157
 6829W        W11029   1.836   0.471   2.183 -0.0370 -0.1111 -0.0582
 6830W        W11030   3.851   8.972  11.092  0.0299 -0.1534  0.1458
 6831W        W11031   5.478   3.637  11.886  0.0250  0.1472  0.0996
 6832W        W11032   4.001   9.782   3.428 -0.1483  0.0011 -0.1294
 6833W        W11033   7.251   0.546   0.635 -0.1342  0.2510  0.2617
 6834W        W11034   9.073   7.927  10.270 -0.0154  0.0266  0.0882
 6835W        W11035   6.367   1.023  11.155  0.1751 -0.0248 -0.0317
 6836W        W11036   3.830   4.895   4.163 -0.0776 -0.5479  0.0761
 6837W        W11037   0.413   3.333   0.568  0.1849 -0.1418  0.4045
 6838W        W11038   5.937  10.163  12.649  0.0345  0.1391  0.0666
 6839W        W11039   6.290   1.955   3.115  0.0215 -0.2171  0.0058
 6840W        W11040   4.805  10.119   8.721  0.0195 -0.1146  0.2422
 6841W        W11041   0.001   1.736  12.080  0.1691 -0.0947 -0.1236
 6842W        W11042   4.640   6.785   1.424  0.0015 -0.3275  0.0337
 6843W        W11043   5.434   7.446  10.422  0.0471  0.2447 -0.0644
 6844W        W11044  10.492   5.503   0.321 -0.1436  0.4163 -0.0941
 6845W        W11045   4.922   9.598  11.727  0.1234 -0.0009  0.2381
 6846W        W11046   0.922   2.959   3.675 -0.2331 -0.0037 -0.0255
 6847W        W11047   5.737   5.728  11.374  0.1857  0.1590  0.0701
 6848W        W11048   7.328   1.138  11.434 -0.4332  0.1249  0.1512
 6849W        W11049   7.570   9.424  11.673  0.1182 -0.0981  0.0866
 6850W        W11050   3.002   5.718   9.875  0.2703 -0.1038 -0.3189
 6851W        W11051   5.897  10.672   3.219 -0.1549  0.2509 -0.2858
 6852W        W11052   4.480   1.688   8.898 -0.0457  0.0352 -0.0804
 6853W        W11053   0.142   6.840   9.709 -0.0939  0.1765 -0.1561
 6854W        W11054   4.469   4.039   0.238 -0.2125 -0.0634 -0.1181
 6855W        W11055   3.217   0.138   8.389 -0.0273 -0.1456  0.0745
 6856W        W11056   6.169   0.242   0.991  0.0812  0.1341  0.0968
 6857W        W11057  10.514   8.523  10.829  0.1953 -0.0029 -0.1276
 6858W        W11058   9.403  10.098  12.505 -0.0448 -0.1030 -0.0551
 6859W        W11059   9.321   3.994  12.135 -0.3088 -0.1574  0.2439
 6860W        W11060   2.040   7.337  12.036 -0.1341  0.0383  0.0406
 6861W        W11061   7.900   5.020  10.091 -0.1119  0.1095 -0.3244
 6862W        W11062   1.599   6.013   9.267  0.0599  0.2224 -0.1820
 6863W        W11063   0.304   5.202   9.793  0.2804 -0.1777 -0.0691
 6864W        W11064   5.091   4.120   9.789  0.1776  0.1777  0.3250
 6865W        W11065   7.323   4.586   9.710  0.2244  0.0923  0.1763
 6866W        W11066  10.270  10.267   1.393 -0.2759  0.0276 -0.0325
 6867W        W11067   2.668   0.322   9.779  0.1175 -0.0356  0.2881
 6868W        W11068   4.164   1.174   8.049  0.1581 -0.0622 -0.1725
 6869W        W11069   1.213   5.657   3.412  0.1734  0.1887 -0.2100
 6870W        W11070   3.516   4.377   0.885 -0.1252 -0.1213 -0.2282
 6871W        W11071   5.526   5.361  11.665  0.3756 -0.2814  0.0208
 6872W        W11072   8.174   5.003   9.623  0.0815 -0.2122  0.0769
 6873W        W11073   3.662  10.245   2.432  0.1813 -0.1324 -0.1034
 6874W        W11074   6.528   4.458   3.449  0.2073  0.0831  0.3351
 6875W        W11075   4.345   4.215   1.421  0.0119 -0.1279 -0.3747
 6876W        W11076   9.191   6.929   2.260 -0.0264  0.2882 -0.1110
 6877W        W11077   0.631   1.291  11.628  0.3205  0.1908  0.0462
 6878W        W11078   0.709   5.301   2.033  0.0768  0.1089 -0.1637
 6879W        W11079   8.895   5.192   3.978  0.1039  0.2487 -0.1496
 6880W        W11080   1.636   8.461  10.034 -0.4127 -0.2263 -0.0861
 6881W        W11081   9.152   1.966   4.589 -0.0727  0.1892  0.1895
 6882W        W11082   8.362   6.769   9.938  0.0332 -0.0447 -0.2333
 6883W        W11083   9.042   6.570   1.461 -0.2927  0.2462 -0.1255
 6884W        W11084   0.500   6.508  11.430  0.0200  0.2487 -0.0251
 6885W        W11085   7.535   1.835   4.135  0.0494  0.1348 -0.0336
 6886W        W11086   3.151   6.974  11.543 -0.1882  0.0242  0.0888
 6887W        W11087   9.851   8.707   8.903  0.2531  0.0601  0.0458
 6888W        W11088   4.019   6.411  11.684  0.0505 -0.1752  0.1386
 6889W        W11089   0.058   2.508  10.907  0.1254 -0.3035 -0.2681
 6890W        W11090   4.367   5.692   2.255 -0.3498  0.0605  0.2897
 6891W        W11091   0.377   8.838   1.549  0.0135  0.2793  0.1744
 6892W        W11092   4.490   0.229  12.138 -0.0817 -0.2575 -0.0433
 6893W        W11093   5.063   5.058  11.570  0.2395 -0.0954  0.0639
 6894W        W11094   7.171   1.486   3.180  0.0200 -0.0047  0.2770
 6895W        W11095   5.449   4.959  10.681 -0.1420  0.1541  0.0343
 6896W        W11096   3.249   6.526   9.093 -0.0819  0.0159 -0.4791
 6897W        W11097   7.052   1.144   1.154  0.0747 -0.0979  0.1356
 6898W        W11098   2.467   9.374   0.736  0.0742 -0.1894 -0.0054
 6899W        W11099   2.376   9.487  12.358  0.1757 -0.1960  0.2281
 6900W        W11100   5.382   0.255  12.656  0.2741 -0.0546 -0.0723
 6901W        W11101   5.118   6.090   3.932  0.0509 -0.2048 -0.0223
 6902W        W11102   9.694   8.012   8.798  0.2255 -0.1291  0.0071
 6903W        W11103   0.331   2.201  12.108 -0.0563 -0.2771  0.0617
 6904W        W11104   9.638   7.357   2.538 -0.0550  0.2361 -0.2021
 6905W        W11105   9.002   4.044  11.728  0.2213  0.0399 -0.0233
 6906W        W11106   8.873   5.602  11.718 -0.2246  0.0208 -0.0208
 6907W        W11107   9.018   7.824   8.242  0.1774 -0.0174 -0.2041
 6908W        W11108   6.838   7.998   0.945 -0.6010  0.1613 -0.0551
 6909W        W11109   7.597   8.025   3.045  0.0320 -0.1652  0.0751
 6910W        W11110   4.324   0.655   3.536 -0.2422 -0.0602 -0.2561
 6911W        W11111   9.177   8.986   0.356 -0.1934 -0.2502  0.0097
 6912W        W11112   6.862   6.506   4.438 -0.0993 -0.0232 -0.1978
 6913W        W11113  10.631   0.447  10.780 -0.0068 -0.0352 -0.2119
 6914W        W11114   0.508   5.879   9.313  0.4707 -0.2108 -0.0885
 6915W        W11115   3.132   1.500   1.005 -0.0221 -0.3049 -0.0350
 6916W        W11116   7.679   1.995   2.400 -0.2738 -0.1580  0.2219
 6917W        W11117   7.291   9.998   2.271 -0.0626 -0.2268 -0.1988
 6918W        W11118   5.827   8.007   0.517 -0.0028 -0.0488  0.0738
 6919W        W11119  10.115   5.726  11.045 -0.0588 -0.4035  0.1833
 6920W        W11120   7.452   5.280   3.092 -0.1901  0.0029  0.2381
 6921W        W11121   0.011   9.073  11.303 -0.0978 -0.3083  0.3833
 6922W        W11122  10.728   1.401   9.619 -0.4641  0.1281 -0.1907
 6923W        W11123   9.946   1.498  12.400  0.0503 -0.1557  0.1462
 6924W        W11124   0.460   1.723  12.320  0.1247  0.2805 -0.1538
 6925W        W11125   2.527   9.466  10.752  0.0979  0.1179 -0.2258
 6926W        W11126   1.747   6.554  10.589 -0.0276  0.0486 -0.0473
 6927W        W11127   3.928   1.649   8.299 -0.0105 -0.2677 -0.1911
 6928W        W11128   2.470   0.838   3.444 -0.3451 -0.0235 -0.0885
 6929W        W11129   5.998   9.213   1.184  0.0475 -0.0059 -0.0084
 6930W        W11130   8.710   5.932  12.523  0.2359 -0.0665  0.2293
 6931W        W11131   4.096   8.697   1.382 -0.1646 -0.2422 -0.1780
 6932W        W11132   9.967  10.570  12.512  0.0896 -0.1591 -0.3051
 6933W        W11133   3.730   1.563  11.266 -0.0451 -0.2812 -0.1362
 6934W        W11134   1.653   9.687   8.871  0.0765 -0.2973  0.0926
 6935W        W11135   9.801   3.901   2.946  0.3475 -0.0535  0.0188
 6936W        W11136   1.527   1.442  10.971  0.4860 -0.0116  0.1033
 6937W        W11137   4.274   3.883   2.661  0.1925 -0.0053  0.0238
 6938W        W11138   6.387   8.456   8.315  0.0874 -0.1029 -0.1400
 6939W        W11139   6.673   7.966  12.772 -0.3106  0.1885 -0.1223
 6940W        W11140  10.467   2.802  10.115 -0.1049 -0.0897 -0.1329
 6941W        W11141   4.290   7.284   2.468  0.0451  0.3568  0.0659
 6942W        W11142   8.301   3.720   1.054  0.0872 -0.0762 -0.4619
 6943W        W11143   6.056   7.719   2.404 -0.0138  0.3076  0.0021
 6944W        W11144   6.011   0.870   3.228  0.0431  0.4956  0.4591
 6945W        W11145   5.310   7.469   9.799  0.1352  0.0971  0.1506
 6946W        W11146   7.687   6.711   8.573 -0.0893  0.1393  0.0732
 6947W        W11147   5.055   4.075  10.602 -0.1506  0.3065 -0.1207
 6948W        W11148   8.236   0.979   0.366  0.0054 -0.2572 -0.2040
 6949W        W11149   2.020   4.694   3.129 -0.3951 -0.0226 -0.2568
 6950W        W11150  10.027   6.051   3.380  0.1565 -0.0496 -0.1738
 6951W        W11151   3.250   5.316   0.445 -0.1495  0.0768  0.2771
 6952W        W11152   4.240  10.378   0.726 -0.1019  0.1111 -0.2808
 6953W        W11153   0.286  10.378   8.180 -0.0439 -0.3072  0.0555
 6954W        W11154   6.520   9.854  12.132 -0.1166 -0.0073  0.1311
 6955W        W11155   1.719  10.580   2.850 -0.4198 -0.1658 -0.2951
 6956W        W11156   3.042   5.449   7.866  0.0991  0.0003  0.0464
 6957W        W11157   3.824   4.895   2.223  0.1735  0.2761 -0.0037
 6958W        W11158   7.722   6.409   9.387  0.1880 -0.0103  0.3207
 6959W        W11159   5.171   5.040   3.729  0.1018  0.1541 -0.1816
 6960W        W11160   9.631   5.105   0.091  0.0782 -0.0594 -0.3994
 6961W        W11161   9.023  10.230   3.169  0.1208 -0.0965  0.0613
 6962W        W11162   7.325   3.856  12.764  0.0408  0.3018  0.0334
 6963W        W11163   5.945   8.879  12.749 -0.0728  0.1723 -0.2339
 6964W        W11164   5.867  10.075   8.510  0.2268  0.2279  0.1375
 6965W        W11165   4.169   5.220   9.906 -0.1306 -0.0288  0.2534
 6966W        W11166   9.484   1.598  12.574  0.1135 -0.1917  0.0020
 6967W        W11167   3.382   8.441   2.072  0.1444 -0.0836  0.2169
 6968W        W11168   4.875   4.346  12.355 -0.1489  0.4133  0.1900
 6969W        W11169   3.847   0.802   8.334  0.4326 -0.0945 -0.1769
 6970W        W11170   3.938   0.611   1.403 -0.2235 -0.4013  0.1124
 6971W        W11171   0.775   7.416  10.082  0.0806 -0.1152 -0.1676
 6972W        W11172  10.597   0.647  12.785  0.1826 -0.0195  0.0241
 6973W        W11173   8.082   0.273   2.615 -0.0471 -0.1747  0.0254
 6974W        W11174   1.957   0.557  10.828  0.4477 -0.1039 -0.1771
 6975W        W11175   2.115   9.355   8.576  0.1348  0.1810  0.0480
 6976W        W11176   7.374  10.246   1.216  0.0585 -0.1686 -0.2369
 6977W        W11177   1.267  10.349   2.634  0.1799  0.4015 -0.1159
 6978W        W11178   8.730   6.101   2.356 -0.1899 -0.3169  0.4041
 6979W        W11179   1.996   8.427   9.139  0.0622 -0.0312 -0.2050
 6980W        W11180   0.872   9.188   9.583  0.1057  0.2701 -0.0090
 6981W        W11181   9.997   9.429  10.814  0.1574 -0.0270 -0.1224
 6982W        W11182   4.372   1.524   8.460 -0.3181  0.2083 -0.1985
 6983W        W11183   4.064   1.308   0.735 -0.1602  0.3023 -0.0637
 6984W        W11184   6.469   8.737   1.568  0.0568  0.1231  0.2300
 6985W        W11185   7.964   5.303   8.746 -0.1357  0.3961 -0.4292
 6986W        W11186   3.538   9.883  11.242 -0.2467 -0.0872 -0.0044
 6987W        W11187   6.611   7.568   1.723 -0.2412  0.0918  0.0858
 6988W        W11188   3.256   0.212   0.221 -0.2556  0.3606  0.1608
 6989W        W11189   5.987   7.059   9.442  0.1357  0.1591 -0.1278
 6990W        W11190   5.119  10.505   2.610  0.2476 -0.2295 -0.0923
 6991W        W11191   5.208   3.455   3.957  0.1123 -0.0938 -0.0891
 6992W        W11192  10.481   5.671   9.593 -0.1260 -0.0936  0.0675
 6993W        W11193   2.951   4.589  12.171 -0.1362 -0.2295  0.0182
 6994W        W11194   0.736   6.490   0.778 -0.1247 -0.3775  0.1664
 6995W        W11195   0.416   6.748   0.400 -0.1694 -0.2604 -0.1788
 6996W        W11196   0.438   0.353   2.463  0.0061 -0.0651  0.1016
 6997W        W11197   3.825   7.619   1.620  0.2210  0.0258  0.1359
 6998W        W11198  10.424   9.398   9.558 -0.2002  0.3330 -0.2312
 6999W        W11199   8.874   7.187   0.971  0.1357 -0.3167  0.2343
 7000W        W11200   6.499   9.165   1.270  0.3872  0.1042  0.2841
 7001W        W11201   3.489  10.639  12.707  0.1253 -0.0635 -0.0647
 7002W        W11202   1.852   8.484  11.293  0.0580  0.1016 -0.1279
 7003W        W11203   3.679   2.389   0.979  0.0058 -0.3178 -0.1140
 7004W        W11204   6.859   8.705  12.380  0.0641 -0.1970 -0.1661
 7005W        W11205   7.946   3.411  10.736  0.0800 -0.0009  0.0938
 7006W        W11206   8.413  10.066  12.817  0.3385 -0.1201  0.3411
 7007W        W11207   1.565   9.978  11.435  0.0629 -0.1483 -0.5488
 7008W        W11208   3.595   2.454  10.101 -0.1091  0.1721  0.0407
 7009W        W11209   6.646   5.263  11.534  0.0209 -0.0799 -0.0034
 7010W        W11210   2.231   3.852   3.839  0.1686  0.1238  0.0668
 7011W        W11211   5.419   4.592   2.556 -0.1592 -0.0314  0.0794
 7012W        W11212   3.298   8.928   0.842  0.1304 -0.0141 -0.0053
 7013W        W11213   5.255   6.457   3.602 -0.0666  0.1765  0.1428
 7014W        W11214   9.049   8.811  10.632  0.2059  0.1810  0.0256
 7015W        W11215   1.129   8.279   9.245 -0.0683 -0.2800 -0.1655
 7016W        W11216   4.925   1.580   1.915 -0.0168  0.2032 -0.1832
 7017W        W11217   7.051   9.583  11.572 -0.0799 -0.0843  0.0490
 7018W        W11218   3.276   6.899   8.781 -0.1058  0.1299  0.1869
 7019W        W11219   4.620  10.656   0.885  0.1779 -0.0913 -0.1652
 7020W        W11220   6.553   5.984   0.893 -0.1512  0.1233  0.0859
 7021W        W11221   7.370   8.684  12.194  0.2793 -0.0695  0.0928
 7022W        W11222   0.569   5.344   3.062  0.0028  0.0614 -0.1572
 7023W        W11223   8.859   4.406  11.390  0.1055 -0.3677 -0.2858
 7024W        W11224   8.047   2.700   8.048 -0.0162 -0.0941 -0.1613
 7025W        W11225   5.541   5.824   2.647 -0.0477  0.1658  0.0267
 7026W        W11226   5.332   4.404  12.100  0.0153  0.1517  0.2377
 7027W        W11227   7.645   7.355   0.465 -0.1710  0.4164 -0.0834
 7028W        W11228   1.814   3.522   1.433 -0.3729  0.4039 -0.1191
 7029W        W11229  10.561   8.488   8.706  0.0084  0.0626  0.0507
 7030W        W11230   4.450   9.690  11.508 -0.1856 -0.1238  0.0155
 7031W        W11231   7.709   4.255   2.953  0.2875  0.1768  0.0529
 7032W        W11232   1.818   6.050  10.435  0.3251  0.1168  0.1378
 7033W        W11233   1.334   7.327  12.101 -0.0890  0.0167  0.0314
 7034W        W11234   9.746   1.635   0.134 -0.2649  0.0957  0.0695
 7035W        W11235   3.557   1.855   0.002  0.0122 -0.0664 -0.2521
 7036W        W11236   2.944   6.937   4.274  0.0199  0.2086  0.2463
 7037W        W11237   7.374   3.771   2.955 -0.1592  0.0298 -0.0843
 7038W        W11238   2.965   1.609  12.687 -0.2372  0.3768  0.0121
 7039W        W11239   1.297   2.151   9.358 -0.3241  0.1057  0.1087
 7040W        W11240   9.759   0.904   1.414 -0.3715 -0.0811  0.0785
 7041W        W11241   7.348   0.156   3.473 -0.3098  0.0304  0.2391
 7042W        W11242   0.146   4.326   9.625 -0.1134  0.0254  0.0959
 7043W        W11243   4.108   1.798   3.884  0.1296 -0.0180  0.0789
 7044W        W11244   9.234   8.110   8.649  0.3562 -0.0041 -0.0353
 7045W        W11245   8.023   9.925  10.357  0.0590 -0.1231  0.1227
 7046W        W11246   3.455   7.373  11.138  0.0407  0.1777 -0.2239
 7047W        W11247   3.067   7.780   2.789  0.1379  0.1405 -0.3603
 7048W        W11248   2.431   9.437   8.978  0.1545  0.0410 -0.0551
 7049W        W11249   4.751   8.794   2.072  0.3239 -0.2618 -0.2261
 7050W        W11250   4.171   0.896  11.243  0.1149  0.0248  0.0719
 7051W        W11251   0.372   7.914   9.081  0.2602 -0.0201 -0.4386
 7052W        W11252   3.171   1.051   4.573  0.0694 -0.2978 -0.2481
 7053W        W11253   9.779   6.791   9.254  0.1076 -0.0482 -0.3504
 7054W        W11254   8.350   2.804  11.737  0.4447  0.4116 -0.1086
 7055W        W11255   7.784   3.788   2.636  0.1743 -0.0274 -0.2528
 7056W        W11256   5.505  10.491   9.704  0.0214  0.3303 -0.3583
 7057W        W11257   3.686   8.594   1.713  0.0709 -0.0239  0.1760
 7058W        W11258   3.578   6.867   9.217  0.1584 -0.1347 -0.2506
 7059W        W11259   5.641   9.082  10.934  0.0266 -0.1106 -0.1443
 7060W        W11260   1.039   3.896  11.195 -0.0060 -0.0322  0.1901
 7061W        W11261   0.068   8.358   0.808  0.1381  0.0114  0.1884
 7062W        W11262   2.463   5.056  11.424 -0.0260 -0.4396 -0.1299
 7063W        W11263   7.181   1.329   9.597  0.4158  0.3460  0.0508
 7064W        W11264   1.355  10.105   8.597  0.2162  0.1253 -0.1906
 7065W        W11265   2.273   2.419   1.314 -0.2463  0.0491 -0.3245
 7066W        W11266   5.272   8.654   1.998 -0.0225 -0.0143  0.1406
 7067W        W11267   2.739   6.982   9.830  0.0814  0.0037  0.0791
 7068W        W11268   5.117   9.604  12.744  0.4390 -0.1428 -0.3132
 7069W        W11269   0.745   9.420   0.853 -0.1023 -0.0355 -0.1866
 7070W        W11270  10.603   0.317   1.491  0.0917 -0.1639 -0.0759
 7071W        W11271   6.715   8.703   7.952  0.0752 -0.0580  0.0843
 7072W        W11272   8.624   4.164  10.389  0.0344  0.1653 -0.1713
 7073W        W11273   6.069   5.762  10.993 -0.2468  0.4357  0.2269
 7074W        W11274   1.291   6.725   0.497  0.0995 -0.1290  0.1040
 7075W        W11275   5.572   8.691  11.254  0.2075 -0.1977  0.0252
 7076W        W11276   6.628   5.152  10.996  0.0845  0.0658  0.3368
 7077W        W11277   4.019   5.788   8.116 -0.0339  0.1195  0.3888
 7078W        W11278   3.008   1.515  11.090 -0.1511 -0.2986 -0.1141
 7079W        W11279  10.659   8.561   3.302  0.1198 -0.1150 -0.0844
 7080W        W11280   4.514   8.571  12.411  0.1657 -0.2927  0.1329
 7081W        W11281   3.455   3.324   9.758  0.0259 -0.2738  0.0415
 7082W        W11282   1.489   5.618   4.384  0.0199 -0.2338  0.2008
 7083W        W11283   7.847   0.965  10.662  0.0176 -0.3447 -0.0428
 7084W        W11284   8.588   1.008   9.237 -0.3513  0.1357  0.1178
 7085W        W11285   4.826   4.746   3.924 -0.2807 -0.0647 -0.1367
 7086W        W11286   7.472   5.916   0.788 -0.2432  0.0189  0.0906
 7087W        W11287   7.628   3.921  11.191  0.0077 -0.1321 -0.1029
 7088W        W11288   7.255   1.576   1.310  0.0431  0.0897  0.0401
 7089W        W11289   3.966   0.909   4.785 -0.0725 -0.3382 -0.1442
 7090W        W11290   4.380   6.358   0.655  0.0482 -0.2799  0.0157
 7091W        W11291   6.024   9.805   3.583  0.0286 -0.3178  0.0082
 7092W        W11292   4.704   7.445   3.840 -0.0778  0.2090  0.1175
 7093W        W11293   4.219   0.727   8.715  0.0128  0.0490  0.0037
 7094W        W11294   2.640   9.173   8.571  0.1560 -0.0417 -0.0879
 7095W        W11295   8.112   0.728   9.821  0.0298  0.1085 -0.0338
 7096W        W11296   6.551   7.108   3.757  0.0007 -0.0448 -0.1561
 7097W        W11297   8.665   3.586  12.311 -0.2039  0.3621  0.1863
 7098W        W11298   5.633   8.107   9.923  0.0153  0.0306 -0.0410
 7099W        W11299   1.602   7.624  11.028 -0.1935  0.1045 -0.0419
 7100W        W11300  10.412   0.016   2.169  0.1340  0.2009 -0.2432
 7101W        W11301   8.462   5.765   9.358  0.2526  0.1065  0.0775
 7102W        W11302   6.334   7.141  12.412  0.0286  0.2091 -0.0311
 7103W        W11303   4.403   3.589   0.059 -0.0613  0.2849 -0.1288
 7104W        W11304   5.651   9.269   0.057 -0.0662  0.3643  0.2906
 7105W        W11305   4.564  10.187   2.664  0.1275  0.1543  0.2351
 7106W        W11306   4.926   1.885  11.021 -0.0609 -0.0885  0.0520
 7107W        W11307   2.158   9.021   9.942  0.4120 -0.0141  0.4365
 7108W        W11308   7.967   9.872   0.400  0.0606  0.1775 -0.2500
 7109W        W11309   8.535   7.639  12.543 -0.0723 -0.1497  0.4449
 7110W        W11310   5.593   5.751  10.932  0.1077  0.2338  0.3067
 7111W        W11311   7.538   6.091   3.655 -0.0813 -0.1514 -0.0958
 7112W        W11312   2.839   3.385   1.775  0.1871  0.0293  0.1632
 7113W        W11313   0.358   5.598  10.815  0.3101 -0.1157  0.1062
 7114W        W11314   1.777   3.021  11.772  0.2376 -0.0803 -0.4018
 7115W        W11315   8.809   8.761   1.454  0.0870  0.2910  0.3121
 7116W        W11316   4.343   8.318   9.882 -0.3549  0.2553  0.1210
 7117W        W11317   2.187   2.217   8.980 -0.0962 -0.0319  0.2656
 7118W        W11318   1.210   5.487   9.809  0.0972 -0.3444  0.0080
 7119W        W11319   6.692   4.768  12.290  0.0503  0.3993  0.0962
 7120W        W11320   7.664  10.235   3.069 -0.0168  0.0511 -0.0085
 7121W        W11321   2.000   5.212  11.776 -0.0828  0.0711  0.1348
 7122W        W11322   8.664  10.612   1.446  0.1863 -0.0118  0.1968
 7123W        W11323   0.391   8.243   3.297  0.2433 -0.1560  0.2782
 7124W        W11324   2.173   4.570   4.292  0.1013 -0.4414 -0.0500
 7125W        W11325   2.841  10.584   1.096  0.1005  0.1611 -0.1089
 7126W        W11326   2.095   3.438  11.841  0.2817 -0.3032  0.3388
 7127W        W11327   6.041   6.580   9.468 -0.0043  0.0326  0.0295
 7128W        W11328   4.288   8.400  10.683  0.0169 -0.1722 -0.2711
 7129W        W11329   5.908   8.640   2.813 -0.0223 -0.0686 -0.0928
 7130W        W11330   8.933   6.784  11.685 -0.4063 -0.2165  0.1910
 7131W        W11331   6.064   3.745   0.437  0.0190  0.1642  0.3080
 7132W        W11332   3.249   5.373  10.193 -0.1091 -0.0361 -0.2451
 7133W        W11333  10.684   1.131   2.825  0.1007 -0.0491  0.0356
 7134W        W11334   3.347   9.728   8.604  0.1186  0.0947  0.2685
 7135W        W11335   4.758   6.336   8.138  0.0182  0.0224 -0.1945
 7136W        W11336   1.152   8.740   3.366 -0.2834  0.2446 -0.2976
 7137W        W11337   7.211   4.612   1.600 -0.2765  0.3721  0.0408
 7138W        W11338   2.910   4.344   3.423  0.2167  0.2036 -0.0030
 7139W        W11339   6.954   6.366   9.630 -0.0036  0.0106  0.0133
 7140W        W11340   8.550   5.489   4.096  0.0412  0.0824  0.0509
 7141W        W11341  10.264   0.286   3.655  0.1845  0.1958 -0.1212
 7142W        W11342   9.787   7.544   8.623  0.0231  0.1034 -0.3384
 7143W        W11343   7.541   6.648   2.970 -0.1582  0.0335 -0.3305
 7144W        W11344   9.226   8.883   3.223 -0.0462 -0.2561 -0.0466
 7145W        W11345   4.206   9.332  11.137  0.1580  0.1609  0.2020
 7146W        W11346   9.948  10.070   2.133 -0.3083  0.1466 -0.2180
 7147W        W11347   8.931  10.486   2.694 -0.0147 -0.0848  0.2096
 7148W        W11348   9.572   1.667  11.273 -0.0014 -0.1594 -0.3289
 7149W        W11349   4.593   0.878   2.726  0.1426 -0.1837 -0.2657
 7150W        W11350  10.454   5.462   9.109  0.0428 -0.0376  0.1432
 7151W        W11351   3.809   1.560   0.268  0.0680  0.1998  0.1986
 7152W        W11352   9.384   6.730   3.268 -0.1025  0.2671 -0.1381
 7153W        W11353   4.897   6.225  10.714  0.2658 -0.0647 -0.1231
 7154W        W11354   8.514   5.384   8.734 -0.2028 -0.0416  0.0085
 7155W        W11355   5.374   4.218   2.236  0.2772 -0.0064  0.1016
 7156W        W11356   7.006   3.827   8.632  0.2138 -0.1490 -0.1911
 7157W        W11357   7.417   4.485  10.270  0.3714  0.1923  0.5584
 7158W        W11358   9.835   1.981  12.475  0.0617 -0.0130 -0.0311
 7159W        W11359   7.924   6.251   3.266  0.0880  0.2043 -0.1906
 7160W        W11360  10.206   7.796   3.676 -0.0672  0.2762  0.1250
 7161W        W11361   8.017   0.339   3.244  0.1304 -0.0758 -0.0159
 7162W        W11362   2.282   0.511   1.299 -0.5631  0.3360 -0.5298
 7163W        W11363   3.131   6.758  10.013  0.1637 -0.2719  0.0581
 7164W        W11364   1.365  10.087   1.100 -0.2187 -0.0664  0.0486
 7165W        W11365   4.015   7.920   9.469 -0.0719 -0.0481  0.0213
 7166W        W11366   6.913  10.153  12.075 -0.0390 -0.0462 -0.2382
 7167W        W11367   3.969   9.776  10.420  0.3062  0.0509  0.0012
 7168W        W11368   9.595   4.854   3.324 -0.0446 -0.0575 -0.2024
 7169W        W11369   5.451  10.350   1.638 -0.1001 -0.2549 -0.0937
 7170W        W11370   4.801   1.786   0.381 -0.1102 -0.2059 -0.0684
 7171W        W11371   9.850   9.057  11.139 -0.0342 -0.1688 -0.2625
 7172W        W11372   7.083   0.151   8.770  0.0792 -0.3204 -0.1691
 7173W        W11373   6.908   4.718   4.336 -0.1797  0.1296  0.1086
 7174W        W11374   0.739   8.060   0.256 -0.0664 -0.0692 -0.0928
 7175W        W11375   5.047   1.044  12.037  0.0033  0.2403 -0.3823
 7176W        W11376   0.593   5.315  11.878 -0.3058  0.2283 -0.2240
 7177W        W11377   4.057   6.329   8.815  0.1144  0.2189 -0.1246
 7178W        W11378   5.390  10.034  11.055 -0.3567 -0.1948 -0.1362
 7179W        W11379   5.554   2.815  11.163 -0.1478 -0.2529 -0.0643
 7180W        W11380   5.814   8.924  10.520  0.0512  0.1146  0.3149
 7181W        W11381   1.369   1.174   4.378  0.3772  0.0241 -0.2136
 7182W        W11382   0.873   4.643  12.669 -0.0637  0.1357  0.1531
 7183W        W11383   1.147   7.707   0.151 -0.1397  0.3766  0.0445
 7184W        W11384  10.464   0.556   1.872 -0.2275  0.3623  0.0455
 7185W        W11385   1.933   1.018  10.989  0.1711  0.1283 -0.1354
 7186W        W11386  10.640   4.178   2.767 -0.0273  0.0309  0.1209
 7187W        W11387   9.210   9.772   4.272 -0.2333  0.2048 -0.2064
 7188W        W11388   2.173   6.084   0.179 -0.0774 -0.1155  0.1380
 7189W        W11389   6.326   0.992   0.398  0.3147 -0.0946  0.0438
 7190W        W11390   4.120   0.810   2.533 -0.0763  0.2169 -0.1274
 7191W        W11391   5.536   5.296   3.377  0.2101  0.1433  0.1001
 7192W        W11392   8.937   4.106   1.966  0.0071  0.1587 -0.1501
 7193W        W11393   1.680   1.551   9.600 -0.0984 -0.1747 -0.1404
 7194W        W11394   2.273   9.143   0.324 -0.2002  0.0823 -0.2294
 7195W        W11395   4.612   1.448   2.421  0.3336  0.1571 -0.1587
 7196W        W11396   4.857   4.392  10.205  0.2221  0.3550 -0.1759
 7197W        W11397   0.162   9.262   9.527  0.1093  0.1530  0.0196
 7198W        W11398   4.831   4.782   0.169  0.2899  0.0596  0.2382
 7199W        W11399   3.399   0.629   9.167  0.1645  0.0970  0.1523
 7200W        W11400   4.149   0.541   0.268 -0.2121 -0.0777  0.1600
 7201W        W11401   3.480   6.127  11.696  0.0474  0.0391 -0.0882
 7202W        W11402   4.845   1.052   9.695 -0.1439 -0.1391 -0.4021
 7203W        W11403   5.361   8.127  12.114 -0.1504 -0.2220 -0.1278
 7204W        W11404   3.071  10.475   9.529  0.2581 -0.0974 -0.2446
 7205W        W11405   2.138   0.684   3.115 -0.0493  0.1769 -0.0576
 7206W        W11406   1.280   5.255  11.162  0.0588 -0.2885  0.2042
 7207W        W11407   2.582   9.848   3.381 -0.4823  0.1612 -0.0604
 7208W        W11408   2.612   2.706  12.136 -0.0103  0.3995 -0.1878
 7209W        W11409   4.415   3.668  10.686  0.0094 -0.1946 -0.0815
 7210W        W11410   6.913  10.712  10.551  0.2854  0.0547  0.0212
 7211W        W11411   2.314   2.972   2.284  0.1971 -0.0074  0.0644
 7212W        W11412   7.866   7.249  12.771 -0.0839  0.1265 -0.4073
 7213W        W11413   4.772   5.332   2.758 -0.1833  0.0225 -0.3393
 7214W        W11414   7.370   3.132  10.970 -0.2756 -0.0256  0.0196
 7215W        W11415   3.368   3.547   2.626  0.4766  0.0581 -0.1804
 7216W        W11416   5.813   5.778  12.429  0.1716 -0.2223 -0.0966
 7217W        W11417   8.492  10.697   2.600 -0.0944  0.1802 -0.0401
 7218W        W11418   8.563   2.641   0.953 -0.1890  0.0699 -0.0976
 7219W        W11419   5.836   2.187  10.144 -0.6307 -0.2428  0.3353
 7220W        W11420   2.921   0.581   8.974 -0.0552 -0.0578  0.3040
 7221W        W11421   4.274   3.036   3.160 -0.1527  0.3871 -0.0169
 7222W        W11422  10.081   8.990  11.686  0.2741  0.3294  0.1030
 7223W        W11423   3.509   9.901   3.263 -0.0193 -0.1185 -0.0746
 7224W        W11424   8.498   6.756   1.522  0.0492 -0.4073 -0.1740
 7225W        W11425   7.047   4.373  10.742  0.0559 -0.1497 -0.0588
 7226W        W11426   9.419   9.818   0.695  0.0330 -0.0141 -0.0131
 7227W        W11427  10.411   3.069  12.084  0.1009  0.0579  0.0869
 7228W        W11428   1.180   6.677   1.897  0.1908  0.1493 -0.3524
 7229W        W11429   3.357   7.005  12.082  0.1270 -0.0629 -0.0192
 7230W        W11430   9.720   0.470   1.018  0.1234 -0.1505  0.4388
 7231W        W11431   3.313   1.147   2.139  0.2455 -0.1255  0.5181
 7232W        W11432   1.220   0.116   1.838  0.0031  0.0846 -0.1562
 7233W        W11433   5.300   5.395   9.913 -0.1647 -0.0607 -0.0877
 7234W        W11434   8.838   7.065   1.448 -0.2221 -0.1652 -0.1588
 7235W        W11435   4.343   7.614   0.704  0.2464 -0.2482 -0.0547
 7236W        W11436   9.682  10.045   8.413  0.2744  0.0492  0.0699
 7237W        W11437   7.394   8.733   2.449 -0.0204  0.0251 -0.0487
 7238W        W11438   0.200   5.540   9.366  0.3346  0.2277  0.2196
 7239W        W11439   4.541   5.775   2.717  0.2198  0.0534  0.0755
 7240W        W11440  10.114   8.449   8.512  0.4809 -0.0915  0.2681
 7241W        W11441   9.047   1.763   9.085 -0.0565  0.0282 -0.2210
 7242W        W11442   4.673   2.007   2.282 -0.1984  0.0073 -0.3389
 7243W        W11443   4.132   4.766  11.549  0.0639 -0.1757  0.1162
 7244W        W11444   0.593   4.440   0.547  0.0860 -0.1096 -0.0790
 7245W        W11445   1.971   8.265   3.407 -0.1353 -0.0763 -0.1693
 7246W        W11446   5.235   4.690   1.467 -0.0295  0.0522  0.1137
 7247W        W11447   7.050   8.430  11.945 -0.0209  0.2301 -0.2415
 7248W        W11448   6.310   1.273  11.811 -0.1070 -0.1228  0.3436
 7249W        W11449   9.423   4.112   0.104 -0.2706 -0.1298  0.0205
 7250W        W11450   6.046   8.957   8.335 -0.0389 -0.1195 -0.3577
 7251W        W11451   9.207   3.030  10.021  0.0188 -0.0822 -0.2319
 7252W        W11452   1.833   1.431   9.008  0.1703  0.2063 -0.0228
 7253W        W11453   6.582   6.210   0.433  0.0498 -0.1439 -0.0216
 7254W        W11454   8.169   7.451   1.344  0.0758  0.3782  0.2768
 7255W        W11455  10.248  10.332   9.692  0.2481 -0.1272 -0.1391
 7256W        W11456   3.736   6.903   0.911 -0.0614 -0.2267  0.1433
 7257W        W11457   4.922   0.761   0.830 -0.0615 -0.1271  0.0492
 7258W        W11458   7.816   2.924   0.566  0.0610  0.0788 -0.4044
 7259W        W11459   2.946   1.127  12.763 -0.1026  0.0165 -0.1175
 7260W        W11460   2.923   2.987   8.409 -0.0381 -0.0654  0.2866
 7261W        W11461   8.583   5.704   9.845 -0.2916 -0.0810  0.0204
 7262W        W11462   3.469   5.277   2.101 -0.2511  0.0199  0.2045
 7263W        W11463   1.105   0.682   9.649 -0.0996 -0.1032 -0.2814
 7264W        W11464   2.417   7.126  10.242  0.0889  0.1720  0.0320
 7265W        W11465   7.040   3.630  10.037 -0.0687  0.0316  0.5180
 7266W        W11466   8.874   5.553  12.758 -0.1258  0.0480 -0.1843
 7267W        W11467   2.484   9.942   0.800  0.0667 -0.1414 -0.2245
 7268W        W11468   2.958   6.214   9.677 -0.0685 -0.0466 -0.0762
 7269W        W11469   5.751   3.683   9.566  0.0801  0.1499 -0.0735
 7270W        W11470   0.964   0.602  10.091  0.1506  0.2234 -0.1713
 7271W        W11471   0.712   7.037   3.998 -0.1965  0.0748  0.1265
 7272W        W11472   1.331   2.840   2.046 -0.3587  0.0307  0.1314
 7273W        W11473   4.018   7.502   0.254  0.1533  0.2233  0.0087
 7274W        W11474   5.837   1.743   9.950 -0.1492  0.0719  0.0112
 7275W        W11475   6.523   3.577   1.641 -0.3912 -0.2438  0.2592
 7276W        W11476   7.129   4.107   9.696 -0.1476  0.0041 -0.1549
 7277W        W11477   9.584   1.600   1.503  0.2699 -0.2086  0.0737
 7278W        W11478   3.528   9.689  12.636 -0.1125  0.0265 -0.0594
 7279W        W11479   0.603   6.271   8.990  0.0279 -0.0472  0.0418
 7280W        W11480   3.952   6.704   3.749  0.0225 -0.1215  0.1465
 7281W        W11481   3.296   6.194  10.634  0.0898 -0.1029 -0.0596
 7282W        W11482   5.402   5.079   0.724  0.1599  0.3554 -0.0164
 7283W        W11483   2.283   7.490   1.759  0.0923  0.0300  0.1790
 7284W        W11484   0.883   4.593   9.824 -0.1228  0.2266 -0.0214
 7285W        W11485   2.155   3.644   3.400  0.1517 -0.0231  0.1299
 7286W        W11486   5.355   3.463  10.560  0.0289  0.1832  0.3387
 7287W        W11487   3.509   4.330  10.106 -0.0254 -0.0770 -0.1450
 7288W        W11488   7.497   4.532   2.117 -0.0035 -0.0952  0.0561
 7289W        W11489   3.014   9.493  12.561  0.1485  0.2358 -0.0382
 7290W        W11490   8.857   2.580   3.720  0.0868 -0.0252  0.3004
 7291W        W11491   2.786   4.886  11.788 -0.2109 -0.1365 -0.0960
 7292W        W11492  10.390   1.564   8.837  0.1429 -0.2650 -0.1395
 7293W        W11493   2.462   4.308   3.008  0.1719 -0.6131 -0.2382
 7294W        W11494   4.212   1.295   2.724  0.0467 -0.0595 -0.2005
 7295W        W11495   4.343   7.028   9.629 -0.0216  0.0246 -0.1195
 7296W        W11496  10.545   4.539   3.140 -0.1401 -0.2389  0.0176
 7297W        W11497  10.449   7.133   1.524 -0.0283 -0.4422 -0.3095
 7298W        W11498   0.122   9.016   3.019 -0.2801 -0.0042 -0.2182
 7299W        W11499   5.695   2.825   2.408 -0.4530 -0.1886 -0.0669
 7300W        W11500  10.058   6.408   8.947 -0.2091  0.0422  0.1585
 7301W        W11501   3.416   8.093   7.725  0.2279 -0.1496  0.3404
 7302W        W11502   0.365   7.177   0.708  0.1320  0.0817 -0.1067
 7303W        W11503   7.008   5.477   2.590 -0.0141  0.0702 -0.0956
 7304W        W11504   0.792   6.026   2.786  0.2748 -0.3197 -0.0953
 7305W        W11505   9.464   7.253  10.190  0.0437 -0.1585 -0.2573
 7306W        W11506   8.428   5.928   7.766  0.2163  0.1080  0.1547
 7307W        W11507  10.251   0.398  11.140 -0.2671 -0.2544 -0.1378
 7308W        W11508   9.415   0.007   2.615 -0.0120  0.1892 -0.0212
 7309W        W11509   1.843   6.064  12.051 -0.0401 -0.1362 -0.4297
 7310W        W11510   8.600   2.833   9.361 -0.0767 -0.0582 -0.5957
 7311W        W11511   2.083   4.509   9.106  0.3528 -0.1741 -0.0235
 7312W        W11512   7.402   2.102  11.285 -0.0468  0.1222 -0.2366
 7313W        W11513   3.917   4.895   9.562 -0.2398 -0.0933  0.1972
 7314W        W11514   3.036   2.154   0.800  0.2728 -0.1700 -0.1226
 7315W        W11515   7.662   3.778   2.153  0.2528  0.1497  0.1255
 7316W        W11516   5.395   3.079   3.262  0.2348 -0.0848  0.1480
 7317W        W11517   0.971   2.152   0.574 -0.2529  0.0605 -0.1173
 7318W        W11518   9.636   5.735   9.320  0.1175  0.1405  0.0605
 7319W        W11519   3.394   0.014  12.212  0.0081 -0.0364  0.0048
 7320W        W11520   5.357   7.493   1.299 -0.1948  0.1912 -0.1023
 7321W        W11521   0.434   1.270   0.610 -0.3153 -0.1573 -0.2090
 7322W        W11522   4.860   8.997  11.594  0.1207  0.0168 -0.1199
 7323W        W11523   8.665   9.810  10.623 -0.3868  0.0522  0.0811
 7324W        W11524   4.805   4.956   9.142  0.1541 -0.0342  0.0587
 7325W        W11525   9.480  10.049  10.932 -0.0774  0.1723  0.3154
 7326W        W11526   4.696   2.987  11.229 -0.0914 -0.5754 -0.0878
 7327W        W11527   0.008   3.576  10.378  0.4221 -0.1714  0.2054
 7328W        W11528   9.730   7.502  10.942 -0.0079  0.1093  0.0059
 7329W        W11529   8.433   9.536   2.968  0.3040 -0.0241  0.0022
 7330W        W11530   5.898   0.897  11.878 -0.3064 -0.0420  0.1506
 7331W        W11531  10.071   7.521  12.799  0.2543 -0.0238 -0.2366
 7332W        W11532   8.344   4.414   3.753  0.1254  0.1832 -0.2176
 7333W        W11533  10.245   0.171   2.682 -0.0531 -0.0926  0.1911
 7334W        W11534   3.744   6.382   2.778 -0.0225  0.3362 -0.1576
 7335W        W11535   3.109   4.992   9.870  0.0301 -0.1563  0.1360
 7336W        W11536   2.840   3.814   2.044  0.1381  0.1384  0.1145
 7337W        W11537  10.276   6.552   3.158  0.3144  0.0282 -0.1203
 7338W        W11538   2.742   9.966   2.603  0.3540 -0.0506  0.0115
 7339W        W11539   3.008   3.015   1.408  0.3339 -0.0675  0.1375
 7340W        W11540   1.679   9.569   3.704 -0.0496  0.2931 -0.2342
 7341W        W11541   5.511   6.548   8.612  0.0579 -0.1433 -0.3429
 7342W        W11542   0.735   4.035   1.100 -0.0071 -0.2148 -0.2365
 7343W        W11543   7.905   0.043  11.235  0.0876  0.1028  0.0283
 7344W        W11544   8.587  10.554   3.131 -0.0599  0.1878  0.4420
 7345W        W11545   3.320   2.568   8.470  0.0648  0.4367  0.0176
 7346W        W11546   4.426   7.536  11.036 -0.2031 -0.1062 -0.3602
 7347W        W11547  10.491  10.584   0.983  0.0306 -0.2430 -0.3076
 7348W        W11548   7.026   2.471   0.932  0.2115 -0.1895 -0.0933
 7349W        W11549  10.455   8.700  12.279  0.2052  0.0022  0.2530
 7350W        W11550   4.249   1.400   9.402 -0.4131 -0.0128  0.1719
 7351W        W11551   1.899   2.772   0.538  0.1454  0.1085  0.0565
 7352W        W11552   5.429   7.783   0.881  0.0304  0.3983  0.0662
 7353W        W11553   4.520   4.519  11.108  0.2304 -0.2078 -0.0903
 7354W        W11554   8.645   3.179  12.577 -0.2383 -0.0963  0.0806
 7355W        W11555   2.547   7.780   2.833 -0.1257  0.1355 -0.0720
 7356W        W11556   4.714   6.982   8.730  0.1223 -0.4111 -0.2208
 7357W        W11557   4.964   1.035  11.122  0.1199 -0.1581 -0.0318
 7358W        W11558   5.581   8.147  11.120 -0.2318  0.0362  0.1368
 7359W        W11559   3.890   9.113   0.157  0.0938 -0.1153  0.2113
 7360W        W11560   8.196   6.806  12.764  0.2623  0.2204 -0.0561
 7361W        W11561   9.608   5.577   1.306  0.2186  0.2872  0.0284
 7362W        W11562   9.196   4.802  10.121 -0.1629  0.0785 -0.1137
 7363W        W11563   0.707   0.776   2.367  0.0517 -0.0226  0.0554
 7364W        W11564   5.716   5.651   9.998 -0.0155  0.1840  0.0315
 7365W        W11565   7.180   1.119  12.236 -0.0613 -0.0425  0.2131
 7366W        W11566   0.727  10.125  12.507  0.0831 -0.1141  0.0987
 7367W        W11567   5.769   6.536   0.965 -0.0184  0.0834 -0.0673
 7368W        W11568   7.462   8.925   8.970 -0.2733  0.1294  0.1791
 7369W        W11569   9.900   3.459   2.656  0.3050 -0.2040  0.1457
 7370W        W11570   6.211   1.510   3.865 -0.0580  0.1892  0.2324
 7371W        W11571   5.309  10.688  11.026 -0.1364  0.0571  0.4147
 7372W        W11572   7.375   6.141   3.121  0.0097  0.0120 -0.1748
 7373W        W11573   3.315   6.416   2.995 -0.3685  0.2721 -0.3371
 7374W        W11574   1.533   1.280  11.974  0.2898 -0.0189  0.3928
 7375W        W11575   2.721   5.279   9.960 -0.1331 -0.0458 -0.1692
 7376W        W11576   6.422   3.625   9.502 -0.0885 -0.1044  0.0870
 7377W        W11577   0.612   4.847   0.230  0.1261  0.1253 -0.1872
 7378W        W11578   4.461   9.179   0.478 -0.2375 -0.1140  0.1963
 7379W        W11579   2.884   4.863  10.282 -0.2378 -0.3031 -0.2483
 7380W        W11580   1.396   6.500   3.023 -0.3050  0.2604 -0.1218
 7381W        W11581   2.519   0.646   1.732  0.2189 -0.0047 -0.2519
 7382W        W11582   5.745   2.147   3.192 -0.1173 -0.0947  0.0825
 7383W        W11583   1.145  10.577   0.983 -0.1102 -0.4211 -0.1434
 7384W        W11584   6.513   1.240   2.271  0.1296  0.0212  0.0330
 7385W        W11585   4.447   1.364   3.727  0.0476  0.0486 -0.0633
 7386W        W11586   8.837   1.115  10.221 -0.1048 -0.1489 -0.0129
 7387W        W11587   1.068   7.168   0.155  0.2523 -0.1652 -0.0897
 7388W        W11588   9.205   0.428   9.541  0.1680 -0.0086 -0.0555
 7389W        W11589   7.047  10.268   0.084 -0.1021 -0.0650  0.0803
 7390W        W11590   8.823   8.322   0.022 -0.1397  0.1810  0.0648
 7391W        W11591   3.308   2.414  11.065 -0.1130  0.2525 -0.3764
 7392W        W11592   3.945   8.889   9.791 -0.0409 -0.0314 -0.0235
 7393W        W11593   9.763   6.715   2.964 -0.0871 -0.2038 -0.1397
 7394W        W11594   3.497   5.546   0.035  0.3274  0.2680 -0.0667
 7395W        W11595   7.030   3.545   3.235 -0.0337 -0.2164 -0.0384
 7396W        W11596   1.488   1.353   0.737 -0.1466  0.1296 -0.0422
 7397W        W11597   1.153   2.583  11.167 -0.0178  0.2164 -0.0675
 7398W        W11598   4.814   0.761   1.318  0.0558 -0.0049 -0.0912
 7399W        W11599   2.754   3.591  12.248  0.1915  0.0627  0.0394
 7400W        W11600   0.069   2.721   9.482 -0.0425 -0.0054  0.1469
 7401W        W11601   4.310   0.568  11.666 -0.0873  0.2316 -0.0886
 7402W        W11602   3.164   3.909  12.224  0.1278  0.0465  0.0275
 7403W        W11603   7.758   4.821   3.209 -0.3649 -0.0299 -0.3613
 7404W        W11604  10.015   0.365  11.610 -0.0896  0.0946 -0.0961
 7405W        W11605   0.613   8.480  10.659 -0.1089 -0.0691 -0.0544
 7406W        W11606   6.298   6.748  12.064 -0.2158  0.2901 -0.0335
 7407W        W11607   7.954   6.897   3.356 -0.1852  0.3230 -0.0963
 7408W        W11608   0.855   9.730   1.282  0.2771 -0.0011  0.1924
 7409W        W11609   4.661   1.922  12.222  0.1344 -0.0830  0.3613
 7410W        W11610   1.691   8.354  10.576  0.1772 -0.2764  0.1786
 7411W        W11611   9.729   0.618   2.223  0.1001  0.0505  0.0119
 7412W        W11612   2.127   5.377   0.352 -0.0190  0.1531  0.0811
 7413W        W11613   7.601   8.614   2.969  0.1121 -0.2330 -0.3475
 7414W        W11614   7.495   3.784  11.736 -0.4257  0.0991 -0.2424
 7415W        W11615   5.352   5.447  10.644 -0.1948 -0.1593  0.1195
 7416W        W11616   8.222   5.232   2.415  0.3187 -0.1126 -0.0326
 7417W        W11617  10.289   5.834   7.709 -0.1616  0.0888 -0.0781
 7418W        W11618   9.338  10.532   9.244  0.0718 -0.2508 -0.2777
 7419W        W11619   5.971   0.783   2.712  0.3478 -0.0007 -0.2321
 7420W        W11620   7.278   9.759  11.956  0.0194 -0.2673  0.1187
 7421W        W11621   2.761   6.425   9.277 -0.2569 -0.3474 -0.1555
 7422W        W11622   2.659   1.310   3.923 -0.2552  0.0244  0.0652
 7423W        W11623   5.730   8.420   1.886  0.0821 -0.3071 -0.0552
 7424W        W11624   5.607   4.801  12.390  0.0053  0.1226  0.2138
 7425W        W11625   7.941   1.892   0.662 -0.2508  0.2487  0.0748
 7426W        W11626   3.328   3.053   3.178  0.0436  0.1449  0.0079
 7427W        W11627   7.789   3.127  12.679 -0.0084 -0.1395  0.1947
 7428W        W11628   0.567   4.773  11.835 -0.0245 -0.2800  0.0485
 7429W        W11629   6.760   6.126   1.899  0.0588  0.0009  0.3177
 7430W        W11630   1.848   1.783  11.142 -0.0208  0.1202  0.0673
 7431W        W11631   7.636   2.347  10.818  0.3150 -0.3361  0.2325
 7432W        W11632   9.870   4.843   0.522 -0.1709  0.1046 -0.0519
 7433W        W11633   4.296   3.077   4.364 -0.2598  0.1271  0.0856
 7434W        W11634   6.849   2.899  11.001 -0.0443  0.0981  0.1487
 7435W        W11635   8.583   7.084  11.282 -0.2012 -0.0109 -0.2721
 7436W        W11636   6.468   6.629   0.204  0.1339 -0.2809  0.0975
 7437W        W11637   0.715  10.507   7.981 -0.1849 -0.3155  0.1336
 7438W        W11638   5.694   8.623   7.667  0.0822 -0.0297  0.1640
 7439W        W11639   9.110   8.015   9.149 -0.2617  0.4162  0.0467
 7440W        W11640   3.931   6.068  12.052 -0.0414 -0.0444  0.2483
 7441W        W11641  10.512   1.039   2.338  0.0388 -0.2096 -0.1832
 7442W        W11642   8.065   5.322  11.382  0.2834  0.2282  0.0285
 7443W        W11643   0.680   6.947   0.992  0.1447  0.3224 -0.0664
 7444W        W11644   5.617   5.126   4.657  0.1165 -0.3158  0.0625
 7445W        W11645   0.608   7.213   4.494  0.3237 -0.1794 -0.2162
 7446W        W11646   3.375   3.955  10.574  0.0464 -0.0972  0.3290
 7447W        W11647  10.385   9.320   2.767  0.1846  0.0541 -0.2151
 7448W        W11648   7.243   7.763  10.361 -0.2736 -0.0936  0.3170
 7449W        W11649   4.328   2.353   8.761 -0.0293 -0.2884 -0.0868
 7450W        W11650   9.180   1.665   0.134 -0.2280  0.0386  0.1388
 7451W        W11651   8.280   0.983  11.612  0.0099 -0.1763  0.2868
 7452W        W11652   5.118   3.832   1.106 -0.2530  0.0578  0.0375
 7453W        W11653   9.449   3.678   9.528  0.2024 -0.0221 -0.0821
 7454W        W11654   7.598   1.419  12.236  0.0179  0.2546 -0.0145
 7455W        W11655   9.920   3.726  10.372 -0.0225 -0.2400  0.0162
 7456W        W11656   5.756   0.215   0.116  0.0389  0.1552 -0.0811
 7457W        W11657   4.046   0.689  10.784 -0.1660  0.5392  0.0906
 7458W        W11658   5.715   7.641   3.409  0.0736 -0.0512 -0.2642
 7459W        W11659   1.379   7.861  10.144 -0.1695  0.1653 -0.3503
 7460W        W11660   2.204   3.131   1.566  0.0276 -0.0117 -0.0420
 7461W        W11661   8.337   2.945   0.559 -0.0204 -0.0366 -0.1554
 7462W        W11662  10.154   4.963   8.993  0.2732 -0.0246 -0.0753
 7463W        W11663   9.296   8.803   0.866 -0.1713 -0.0001  0.4135
 7464W        W11664  10.327   8.894   8.846 -0.1388  0.0037 -0.2170
 7465W        W11665   8.079   0.446   1.075 -0.1168 -0.0789  0.0525
 7466W        W11666   7.693   5.680  11.990  0.1812  0.0018  0.1859
 7467W        W11667   8.281   8.194   9.464 -0.4009 -0.3022  0.2087
 7468W        W11668  10.058   4.275  10.680 -0.1553  0.0984  0.1509
 7469W        W11669   2.552   9.909   9.018  0.0293  0.3173  0.2250
 7470W        W11670   5.767   8.779   4.784 -0.0348 -0.0581  0.0143
 7471W        W11671   9.745   7.023   0.803  0.3388 -0.0778  0.2116
 7472W        W11672   8.447   6.943   2.026  0.0572 -0.4596 -0.0546
 7473W        W11673   2.449   1.051  11.938  0.1082 -0.3650  0.0112
 7474W        W11674   7.497   3.619   4.380 -0.2306 -0.0694 -0.1261
 7475W        W11675   9.153   2.007  10.285 -0.3471  0.0548  0.0001
 7476W        W11676  10.726   9.516  11.093  0.0183  0.2009 -0.0125
 7477W        W11677   3.653   4.250   8.781 -0.2066  0.0251  0.2311
 7478W        W11678   1.533   3.218   1.663 -0.1057  0.2794 -0.0284
 7479W        W11679   9.200   1.088   0.560  0.0972  0.0151  0.2447
 7480W        W11680   0.614   9.215   4.172 -0.2265  0.1211 -0.1496
 7481W        W11681   3.780   9.572   0.256 -0.0117  0.0826  0.1533
 7482W        W11682   4.349   8.672   2.922  0.0821  0.2328 -0.2503
 7483W        W11683   5.378   4.955  11.943  0.2386 -0.2640 -0.2832
 7484W        W11684   0.753   3.741   2.088 -0.1019  0.0660  0.0047
 7485W        W11685   0.245   8.309   0.266 -0.1406  0.2445  0.1825
 7486W        W11686   0.294   4.204  10.822  0.3567  0.0166 -0.1655
 7487W        W11687  10.622   4.829  10.315  0.2405 -0.0387 -0.3187
 7488W        W11688   2.511   1.993   9.334 -0.0759  0.0264  0.0510
 7489W        W11689   4.057   6.513  11.114 -0.0895  0.0760 -0.5532
 7490W        W11690   0.418   1.081   1.587 -0.0091 -0.3290  0.1206
 7491W        W11691  10.321   0.474   9.563 -0.2499  0.0835 -0.5174
 7492W        W11692   2.843   5.026   9.474 -0.0818 -0.1423 -0.1802
 7493W        W11693   6.788   8.804   2.457 -0.0427  0.1154  0.1694
 7494W        W11694  10.262   2.264  11.058 -0.1629  0.0690  0.1172
 7495W        W11695   4.779   9.448   9.944  0.0222 -0.0661  0.1757
 7496W        W11696   1.744   9.490   0.143  0.2200 -0.1849  0.0670
 7497W        W11697   7.934   8.462   0.500  0.0134  0.1247  0.2947
 7498W        W11698   9.424  10.496   3.046  0.2341 -0.1561  0.1063
 7499W        W11699   2.283   8.972   4.663  0.0317 -0.1670  0.2390
 7500W        W11700   1.147   6.191   9.112  0.1385 -0.0008 -0.2444
 7501W        W11701   5.616   2.131   9.077  0.0706 -0.2906 -0.2778
 7502W        W11702   7.666   2.069  11.755  0.2366  0.2352 -0.0632
 7503W        W11703   1.833   5.092   1.179  0.1288 -0.1032  0.0098
 7504W        W11704   7.102   8.088   7.379  0.0569 -0.0544  0.0460
 7505W        W11705   9.107   5.846  10.708 -0.1550  0.0260 -0.3097
 7506W        W11706   9.579   4.418   0.529  0.2376 -0.0244  0.1263
 7507W        W11707   3.050   4.041  10.946  0.2324  0.0158 -0.2035
 7508W        W11708   8.154   9.848   0.994  0.1262  0.0018 -0.0913
 7509W        W11709   5.927   3.442   8.774 -0.0736 -0.0254  0.0326
 7510W        W11710   5.025  10.645   1.226  0.0468  0.2137  0.0926
 7511W        W11711   9.180   5.716  12.373  0.1510  0.0326 -0.2278
 7512W        W11712   1.997   4.919  12.261 -0.1574 -0.3443 -0.3408
 7513W        W11713   4.580   1.309   0.918 -0.0968  0.3095  0.0461
 7514W        W11714   1.414   9.886   2.598  0.0397 -0.2929  0.2013
 7515W        W11715   9.202   7.572  12.351 -0.2927  0.2887  0.1333
 7516W        W11716   1.371   4.869   3.748  0.2137  0.0031 -0.1091
 7517W        W11717   2.700   6.692  10.319  0.1294 -0.2117 -0.0004
 7518W        W11718  10.582   4.397  10.606 -0.4753 -0.3014 -0.1254
 7519W        W11719   2.543   4.416   1.203 -0.0993 -0.1497 -0.0373
 7520W        W11720   1.921  10.658   9.211 -0.2081 -0.2666  0.0215
 7521W        W11721   6.405   8.765   9.535  0.0377 -0.2286  0.2337
 7522W        W11722   7.085   0.671  11.262  0.0712 -0.1896 -0.2812
 7523W        W11723   8.638   6.478   7.807  0.2387  0.1529  0.0847
 7524W        W11724   6.412   1.566   1.893  0.0652 -0.2333  0.0906
 7525W        W11725   1.967   3.901   0.210  0.0188 -0.2557  0.2037
 7526W        W11726   8.403  10.542   0.508 -0.1520 -0.1305 -0.1382
 7527W        W11727   2.694   5.138   3.890 -0.0231 -0.0345  0.1680
 7528W        W11728   2.536   9.396   0.008 -0.0969  0.0181 -0.2052
 7529W        W11729   6.412   9.297   2.312 -0.2969 -0.0019  0.0513
 7530W        W11730   9.066   1.225   9.055 -0.2585 -0.1525  0.1747
 7531W        W11731   1.095   7.055   2.726 -0.1369  0.0553 -0.1058
 7532W        W11732   5.055   1.236   1.039  0.1861 -0.0825  0.1284
 7533W        W11733   7.429   6.411  11.897  0.1482 -0.1829 -0.0827
 7534W        W11734   6.708   7.569   4.093  0.4702  0.1659  0.0172
 7535W        W11735   7.807   7.126   2.768 -0.0017  0.0754 -0.1855
 7536W        W11736   5.838   1.227  10.156 -0.1244 -0.0890  0.2162
 7537W        W11737   9.508   6.151   0.875  0.2773  0.1264 -0.2176
 7538W        W11738  10.613   4.167   1.649  0.0724  0.1538 -0.0816
 7539W        W11739   8.224   8.069   0.333  0.0194  0.2099 -0.0471
 7540W        W11740   2.608   9.197  10.059 -0.1009  0.0594 -0.0484
 7541W        W11741   5.996   3.235   0.521  0.1185  0.1120 -0.2755
 7542W        W11742   8.061   3.469   1.447 -0.1723 -0.1901  0.1564
 7543W        W11743   2.044   5.459   9.285  0.0265  0.3586  0.3774
 7544W        W11744   1.149   7.467  10.388  0.0884 -0.0940  0.1436
 7545W        W11745   7.271   4.014   1.242  0.1133 -0.0180 -0.0138
 7546W        W11746   8.395   0.288  12.749  0.1310 -0.3753 -0.0331
 7547W        W11747   7.148   0.879  12.648  0.0788 -0.1213 -0.5194
 7548W        W11748   0.028   2.378  11.672 -0.0072 -0.0705  0.0079
 7549W        W11749   4.352   5.625   3.240  0.0800 -0.1640  0.1064
 7550W        W11750   2.892   5.090  11.129  0.4511 -0.0423  0.0845
 7551W        W11751   5.745   0.009   0.836 -0.1051 -0.0004 -0.0224
 7552W        W11752   9.798   7.004  11.048  0.1414 -0.2262  0.1847
 7553W        W11753   5.586   0.590   1.541 -0.2524  0.3165 -0.0485
 7554W        W11754   8.898   6.582   3.070  0.0151  0.2510  0.2794
 7555W        W11755   5.504   9.522  12.371 -0.0244  0.0364 -0.2252
 7556W        W11756   3.346   7.565   4.120 -0.1161  0.0617 -0.3456
 7557W        W11757   3.409   4.688   3.487  0.0105 -0.1145 -0.0573
 7558W        W11758   4.548   4.736   2.095 -0.0639  0.1139  0.0086
 7559W        W11759   8.018   7.303   0.818 -0.1988 -0.0386 -0.0030
 7560W        W11760   2.501   4.197  10.963  0.3468  0.0888 -0.2922
 7561W        W11761   3.658   2.674   1.809  0.0041  0.0701  0.2961
 7562W        W11762   1.654   0.466   1.673 -0.1513 -0.3117  0.1117
 7563W        W11763   5.502   7.691  11.427 -0.1209 -0.1468 -0.0203
 7564W        W11764   2.095  10.681   0.908  0.0007 -0.5232  0.1684
 7565W        W11765   6.272   8.564  10.345  0.0132  0.0379  0.0376
 7566W        W11766   3.941  10.591   3.508 -0.0778 -0.1319 -0.0677
 7567W        W11767   4.284   8.399   0.674 -0.1277  0.0435 -0.1104
 7568W        W11768   4.950   8.495   1.584 -0.1161 -0.1939  0.0904
 7569W        W11769   5.220   9.440  11.353  0.1494  0.0639 -0.0554
 7570W        W11770   5.106   3.610   3.006 -0.0877  0.1282  0.3803
 7571W        W11771   1.602   0.575   9.885 -0.1609 -0.0928  0.0361
 7572W        W11772   9.544   7.449  12.817 -0.2955 -0.0426  0.2890
 7573W        W11773   9.055   8.236  11.380 -0.0026 -0.2731  0.0515
 7574W        W11774   8.621   3.090  12.038 -0.1462 -0.0207 -0.0891
 7575W        W11775  10.303   6.793  11.028 -0.1669 -0.1023 -0.3048
 7576W        W11776   8.009   7.164   9.472 -0.0985  0.2501 -0.0261
 7577W        W11777   2.802   0.993   0.896 -0.0118  0.1875  0.0997
 7578W        W11778   9.771   8.963   3.106 -0.3502 -0.0504 -0.0058
 7579W        W11779   8.360   4.726  10.104  0.0981  0.0484 -0.0176
 7580W        W11780  10.718   0.882  12.059  0.1259  0.1952 -0.0998
 7581W        W11781   4.606   2.966   8.442 -0.0904 -0.2925  0.0121
 7582W        W11782   3.939   8.460   3.531 -0.0907 -0.0014 -0.0526
 7583W        W11783   0.054   9.984  11.914  0.0221 -0.0217  0.1468
 7584W        W11784   5.467  10.651   2.963 -0.1654 -0.4338  0.1291
 7585W        W11785   8.899   9.762   2.907 -0.0745 -0.2115  0.0635
 7586W        W11786   9.699   7.076  11.795 -0.1675 -0.1310  0.1673
 7587W        W11787  10.372   9.578   0.618 -0.0875  0.2430 -0.2125
 7588W        W11788   0.598   2.115   1.031  0.0468  0.2499  0.2173
 7589W        W11789   2.740   4.217   9.628  0.0706 -0.3798  0.1108
 7590W        W11790   2.881   6.159  10.226  0.0401  0.2002 -0.0412
 7591W        W11791   6.947   7.759  10.936 -0.1550 -0.0919 -0.1435
 7592W        W11792   0.407  10.187   9.808 -0.0102 -0.2671  0.0476
 7593W        W11793   4.678   0.899   2.009 -0.0104 -0.2259  0.1985
 7594W        W11794   1.720   1.003   2.160  0.0942  0.0164  0.0105
 7595W        W11795   4.936   4.712  10.998 -0.0522 -0.1112 -0.0825
 7596W        W11796   9.087   8.855   4.097  0.1731  0.2269 -0.1280
 7597W        W11797   4.118   4.324   8.916  0.0135 -0.0400  0.2695
 7598W        W11798   4.527   5.403   9.358 -0.3304 -0.0368  0.3061
 7599W        W11799   6.814   1.049   9.208  0.0946 -0.0996  0.0160
 7600W        W11800   9.110   8.322   1.625  0.1898  0.2214 -0.1760
 7601W        W11801   4.142   2.477  11.843  0.1078 -0.0423  0.2484
 7602W        W11802   8.831   6.667   2.512  0.0795 -0.3645  0.2617
 7603W        W11803   9.323   1.155   1.481  0.0954 -0.1104 -0.1380
 7604W        W11804   7.599   8.767  10.895 -0.0413  0.0841  0.1820
 7605W        W11805   6.142   3.909   1.815 -0.1762  0.3235 -0.0124
 7606W        W11806  10.413   6.931  10.041  0.0092 -0.3807  0.0862
 7607W        W11807  10.043   1.847   1.456  0.2879  0.2091 -0.0331
 7608W        W11808   1.195   1.181  12.295  0.0738  0.2191 -0.0756
 7609W        W11809  10.312   8.526   9.209 -0.0769 -0.2270  0.2146
 7610W        W11810   8.620   9.559   9.699 -0.0765 -0.0331  0.0288
 7611W        W11811   5.956   4.926   1.101  0.1332  0.1858  0.1769
 7612W        W11812   7.927   5.520  10.151  0.2542 -0.0888  0.3618
 7613W        W11813   0.587   6.978   3.450 -0.1383  0.0619  0.1538
 7614W        W11814   3.984   1.218   1.575 -0.1441 -0.0315  0.0345
 7615W        W11815   6.863   6.096   2.862 -0.1236 -0.0125  0.2592
 7616W        W11816   1.149   4.503  12.061 -0.0201  0.2514 -0.0400
 7617W        W11817   6.353   7.818  11.917  0.1239 -0.0652  0.1276
 7618W        W11818   9.607   5.295   1.877 -0.0426 -0.1046  0.5212
 7619W        W11819   8.200   3.560  11.238 -0.0049 -0.3202 -0.2727
 7620W        W11820   8.838   1.890   4.941  0.2379  0.0422  0.1696
 7621W        W11821  10.197   7.320   3.410  0.1042  0.1556 -0.0167
 7622W        W11822   1.360  10.185   3.681 -0.2130 -0.2751 -0.2089
 7623W        W11823   3.459  10.083  10.390 -0.1215 -0.0722 -0.0549
 7624W        W11824   6.347   2.781  10.894 -0.1774 -0.0476  0.1436
 7625W        W11825   5.447   1.292   0.268 -0.0269  0.3761  0.1265
 7626W        W11826   6.033   3.570   2.958 -0.1615  0.2944  0.3838
 7627W        W11827   7.505   6.362   8.879  0.0484 -0.2912  0.1444
 7628W        W11828   9.634   9.747  11.536  0.0706 -0.2088 -0.0720
 7629W        W11829   8.484   7.347  10.661 -0.3878  0.2557 -0.1116
 7630W        W11830  10.250   8.118  12.634  0.0025 -0.1809 -0.0393
 7631W        W11831   2.290   8.778   2.407  0.1111 -0.2901  0.1089
 7632W        W11832   7.019   3.924   1.637  0.1363 -0.1250  0.2739
 7633W        W11833   3.524   7.006   3.763 -0.4488 -0.0041  0.2624
 7634W        W11834   2.954   7.851  10.337 -0.0963  0.0615 -0.1731
 7635W        W11835   5.534   6.191  12.214 -0.2105  0.1228 -0.3685
 7636W        W11836  10.714   4.909  10.888  0.0897  0.1151 -0.0190
 7637W        W11837  10.630   8.705   2.326  0.3525  0.3032  0.1365
 7638W        W11838   5.177  10.521  12.455  0.2867 -0.1633  0.1984
 7639W        W11839   6.473   6.046   2.338 -0.1545  0.0405 -0.2730
 7640W        W11840   5.870   8.466   3.648 -0.1069  0.3203 -0.1482
 7641W        W11841   1.474   8.206   1.887 -0.2070  0.0531  0.0337
 7642W        W11842   1.532   0.945   1.664 -0.2645 -0.1303  0.0778
 7643W        W11843   2.562   2.229  12.240 -0.0334  0.3206  0.0213
 7644W        W11844   1.847   0.041  11.363  0.0863 -0.1761 -0.1647
 7645W        W11845   0.076   6.795  10.702  0.5045  0.3625 -0.0163
 7646W        W11846  10.601   6.555   3.784 -0.2651 -0.3071  0.2256
 7647W        W11847   6.284   1.987  10.169 -0.2491  0.2659 -0.0980
 7648W        W11848   7.184   7.720   0.643 -0.1691  0.2580 -0.4800
 7649W        W11849   2.718   7.382   2.635 -0.0482  0.1127 -0.0173
 7650W        W11850   8.958   8.158  11.930  0.1024  0.0531 -0.0561
 7651W        W11851   2.358   8.274   2.163  0.1307  0.0453 -0.2653
 7652W        W11852   5.703   1.718   2.970  0.0130  0.0631  0.2337
 7653W        W11853   2.954   8.483  12.764 -0.0138  0.1195  0.1887
 7654W        W11854   8.003   1.090  12.161 -0.0756  0.1036 -0.2861
 7655W        W11855   8.243  10.194   2.187 -0.2179  0.2306 -0.0584
 7656W        W11856   8.126   4.252  10.447  0.1894 -0.0925  0.0640
 7657W        W11857   7.144   6.781  11.131  0.3192  0.0129 -0.0006
 7658W        W11858   6.998   4.076   3.111  0.0106 -0.0700  0.1265
 7659W        W11859   4.912   2.283  10.653 -0.0071 -0.1525 -0.2282
 7660W        W11860   3.496   6.081   1.741  0.0139  0.0975  0.0717
 7661W        W11861   8.843  10.143  12.679  0.1710 -0.0237  0.1689
 7662W        W11862   5.100   3.622   2.449 -0.1246  0.2130 -0.4301
 7663W        W11863   4.800   0.338   1.063  0.0276 -0.2560 -0.0615
 7664W        W11864   4.382   7.978   2.005 -0.0238 -0.1377  0.1693
 7665W        W11865   8.390   7.046   9.072  0.0023  0.5312 -0.2168
 7666W        W11866   5.824   2.429   2.715 -0.0946  0.3158  0.0229
 7667W        W11867   4.643   6.487   9.894  0.0664 -0.0468  0.1137
 7668W        W11868   5.475   7.685   9.313 -0.2170  0.2665  0.0778
 7669W        W11869   6.866   7.597   9.575  0.1502  0.3128 -0.0471
 7670W        W11870   8.153   2.491   1.705 -0.0114 -0.2708  0.1007
 7671W        W11871   3.430   2.443   0.538 -0.2113  0.0958  0.1699
 7672W        W11872   2.185   1.533   9.326 -0.0282  0.3876  0.2061
 7673W        W11873   3.951   9.218   3.697  0.0919 -0.1897  0.0137
 7674W        W11874   8.131  10.102  11.331 -0.0195  0.3651 -0.1589
 7675W        W11875   8.197   8.329   8.685 -0.1486  0.4496  0.0994
 7676W        W11876   6.536   9.212   9.401 -0.1059 -0.1602 -0.2590
 7677W        W11877   0.424   2.793   2.921 -0.3046  0.0038 -0.0033
 7678W        W11878   4.266   3.336   2.261  0.0612 -0.0459 -0.0024
 7679W        W11879   7.157  10.498   2.190 -0.2131 -0.1405 -0.0777
 7680W        W11880   2.111   0.093   2.339 -0.0952  0.3312 -0.1071
 7681W        W11881   6.513   1.890   3.518  0.3400 -0.1286  0.0406
 7682W        W11882   1.775   2.712  12.278 -0.0322 -0.2582 -0.2313
 7683W        W11883   0.354   5.607   2.156 -0.1199 -0.2460  0.0146
 7684W        W11884   4.080   1.036   0.174  0.3005 -0.1167 -0.1948
 7685W        W11885   5.589  10.264   9.303 -0.1197  0.1324  0.3656
 7686W        W11886   6.799   5.057   2.379  0.2592  0.1039 -0.1141
 7687W        W11887   3.856   5.733   8.728  0.3994 -0.2082 -0.1574
 7688W        W11888   4.779   0.080  12.546 -0.1923  0.2576 -0.0802
 7689W        W11889   1.503   7.416   3.682  0.2853 -0.1722 -0.3141
 7690W        W11890   2.846  10.033   8.635  0.3912  0.1801  0.2288
 7691W        W11891   5.136   8.996   9.921 -0.1615 -0.0737 -0.0774
 7692W        W11892   8.000   7.108   8.694 -0.1542 -0.2886  0.0472
 7693W        W11893   2.715   1.423   1.311  0.1841  0.2170 -0.1617
 7694W        W11894   9.117  10.148   8.277 -0.0535 -0.4509 -0.0081
 7695W        W11895   6.879   0.696   2.027 -0.0839 -0.0626  0.2389
 7696W        W11896   8.629   4.730   2.809 -0.3737  0.2617 -0.2462
 7697W        W11897   9.335   5.832   2.922  0.0496  0.0433  0.0227
 7698W        W11898   3.697   1.832  12.359  0.1059  0.0782  0.2295
 7699W        W11899   8.945   4.317   8.489  0.0464  0.0161  0.1760
 7700W        W11900  10.656   2.229   3.257  0.3078 -0.0217  0.1772
 7701W        W11901  10.038   4.983  11.489  0.0339 -0.7336  0.0415
 7702W        W11902   4.204   5.392   2.805 -0.2105 -0.0180 -0.0420
 7703W        W11903  10.363   7.327   9.052 -0.1191  0.2069 -0.0139
 7704W        W11904   2.582   8.738   9.709  0.0062  0.1453 -0.2365
 7705W        W11905   7.944  10.525   9.184 -0.2013 -0.1768 -0.2651
 7706W        W11906   4.686   4.039   2.863 -0.2596 -0.1663 -0.0648
 7707W        W11907   8.898  10.386   0.557  0.0938  0.0122  0.2122
 7708W        W11908   6.658   5.554  10.175  0.0678  0.3705 -0.0276
 7709W        W11909   4.218   2.794   1.866 -0.1538 -0.0277  0.1672
 7710W        W11910   5.413  10.306   0.563  0.2157 -0.0099 -0.1460
 7711W        W11911  10.126   4.023   0.980 -0.0116 -0.0859  0.2688
 7712W        W11912   3.654   0.869   2.647  0.1405 -0.2494 -0.0790
 7713W        W11913   2.950   3.652   3.465  0.1585  0.1744  0.0205
 7714W        W11914   0.486   6.054   0.814  0.0135 -0.5827  0.2306
 7715W        W11915   8.620   9.195   1.468  0.0518 -0.2777  0.3582
 7716W        W11916   6.368   0.435  12.397 -0.2265 -0.1391 -0.1378
 7717W        W11917   6.711   8.827   8.433  0.1544 -0.2749 -0.1604
 7718W        W11918   3.560   7.544   3.594  0.4465 -0.1610 -0.1242
 7719W        W11919   6.563   5.364   9.473  0.0045  0.1228 -0.2192
 7720W        W11920   4.266   9.431   2.161 -0.1978 -0.3070  0.0570
 7721W        W11921   9.780   5.561   3.565 -0.1295  0.0599 -0.1428
 7722W        W11922   6.624   7.499   9.146 -0.0232  0.2558 -0.0157
 7723W        W11923   3.181   9.577   0.255 -0.0310  0.0579 -0.0274
 7724W        W11924   7.141   7.590   1.107  0.0581  0.0437  0.5458
 7725W        W11925   8.301  10.675  10.323  0.0461  0.1579 -0.1643
 7726W        W11926   5.830   4.208  10.316  0.0955  0.0721 -0.1038
 7727W        W11927   1.208   6.922  11.097 -0.0844 -0.2825  0.3210
 7728W        W11928   9.506   7.836   0.379 -0.1580 -0.0030  0.1569
 7729W        W11929   8.080   8.629   3.200  0.2754 -0.1473 -0.0353
 7730W        W11930   9.624   0.515   9.903  0.1009 -0.3792  0.2221
 7731W        W11931   6.420   8.697  11.266  0.0338 -0.1236 -0.2296
 7732W        W11932   5.063   1.805   9.069  0.0881 -0.0979  0.1549
 7733W        W11933   6.906   3.566   9.586 -0.1496  0.3289  0.3301
 7734W        W11934   8.457   8.898  12.022  0.1843  0.1370  0.0393
 7735W        W11935   1.136   4.934  11.854  0.5095 -0.1381  0.2032
 7736W        W11936   2.849   9.229   3.045 -0.2789 -0.0039  0.1532
 7737W        W11937   5.374   2.375  12.375  0.0809 -0.0844 -0.0188
 7738W        W11938   4.281   2.746  10.990  0.6608  0.0592  0.1598
 7739W        W11939   4.148   9.133   7.902  0.4655  0.2535  0.2140
 7740W        W11940   3.768   6.049   4.028  0.2297  0.2385  0.2106
 7741W        W11941   5.292   4.710   3.359 -0.4753  0.4122  0.2714
 7742W        W11942   6.013   7.219   0.896 -0.1280  0.3844 -0.0972
 7743W        W11943   0.400   4.159   2.759  0.2450 -0.0441 -0.0840
 7744W        W11944   0.594   3.749   8.571 -0.1279  0.1191  0.1312
 7745W        W11945   6.840   8.640  11.498  0.3303  0.2338 -0.0596
 7746W        W11946  10.367   2.706  12.422  0.4169 -0.0973 -0.0094
 7747W        W11947   0.249  10.727  11.629  0.0228 -0.0727 -0.1139
 7748W        W11948   2.520   6.601   3.200 -0.1941  0.0878 -0.0785
 7749W        W11949   9.038   5.132   2.482  0.1946  0.0625  0.1347
 7750W        W11950   5.519   3.150   0.705 -0.2227  0.0700 -0.1096
 7751W        W11951   4.640   0.682  11.265 -0.3202  0.0502  0.4131
 7752W        W11952   5.569   8.281   8.922 -0.0818 -0.1746 -0.0989
 7753W        W11953   6.000  10.387   9.683 -0.0586  0.2577 -0.2229
 7754W        W11954   3.272   7.332   9.192  0.0128  0.0796  0.2187
 7755W        W11955   4.728   1.317   2.866 -0.0972  0.1893  0.1385
 7756W        W11956  10.292   8.683   0.587 -0.1350 -0.0938 -0.0058
 7757W        W11957   2.149   6.837   2.975  0.0444  0.2859 -0.1066
 7758W        W11958   6.561   2.321   1.266 -0.1407 -0.2766 -0.0382
 7759W        W11959  10.400   0.107  10.474 -0.3240 -0.0705 -0.1064
 7760W        W11960   2.173   1.712   1.259 -0.2383 -0.2832 -0.0334
 7761W        W11961   9.393   5.259  12.015  0.0777 -0.0253  0.0389
 7762W        W11962  10.556   4.363   0.298  0.1364  0.0961 -0.1399
 7763W        W11963   4.709   9.733   2.312  0.1296 -0.2473  0.0671
 7764W        W11964   4.015   1.998   8.712  0.1416  0.0300  0.0881
 7765W        W11965   0.644   2.412   3.642 -0.1428 -0.2840 -0.2071
 7766W        W11966   3.184   5.536   0.917  0.0600 -0.1687  0.2609
 7767W        W11967   9.112   8.746   1.933  0.0427 -0.1811 -0.0467
 7768W        W11968   8.363   1.646   9.961 -0.0875  0.3734 -0.2313
 7769W        W11969   8.843   0.179  11.425 -0.1071 -0.1534  0.0458
 7770W        W11970   8.266   9.260  11.339 -0.1368  0.1457  0.2531
 7771W        W11971   4.339   4.723   8.616 -0.0017  0.0575  0.1699
 7772W        W11972   5.060   5.307   1.003 -0.0870  0.0357  0.1785
 7773W        W11973   1.095   0.131   0.498  0.2589 -0.0872 -0.0483
 7774W        W11974   6.735   1.284   0.362 -0.0169 -0.0768  0.3732
 7775W        W11975   0.036   8.012   1.112 -0.2550 -0.1754 -0.2503
 7776W        W11976   8.101   3.926   0.588  0.5213  0.3279  0.1701
 7777W        W11977   3.316   0.924  10.007  0.2294  0.0342 -0.0658
 7778W        W11978   1.400   4.981   0.920  0.1061 -0.1010  0.0633
 7779W        W11979   7.431   2.853   1.613 -0.1185 -0.1450  0.1353
 7780W        W11980   2.944   0.493   3.435 -0.0723 -0.1736 -0.2825
 7781W        W11981   5.388   6.401   2.625 -0.1197 -0.3469 -0.1438
 7782W        W11982   1.715   9.185  10.196 -0.0268  0.0594  0.1272
 7783W        W11983   7.401   7.436   9.742 -0.4418 -0.1317  0.0444
 7784W        W11984   5.068   1.970   8.286  0.2940 -0.0031  0.0911
 7785W        W11985   2.922   9.262   0.526 -0.0193 -0.2111 -0.0423
 7786W        W11986   5.394   5.995  11.709  0.0862  0.1171  0.1341
 7787W        W11987   4.211   8.041   3.407  0.4510  0.2774  0.1547
 7788W        W11988   3.289  10.288   0.811 -0.1810  0.0142 -0.1788
 7789W        W11989   1.172   4.481   8.362  0.1549 -0.1184  0.1441
 7790W        W11990   6.548   4.632   9.158 -0.2135 -0.0680 -0.1679
 7791W        W11991   6.682   4.464   9.803 -0.0878 -0.0214 -0.1870
 7792W        W11992   6.820   8.279  11.203  0.0587 -0.0524  0.3873
 7793W        W11993   4.451   4.543   1.036 -0.2682  0.0678  0.1901
 7794W        W11994   8.691  10.654  10.899 -0.1235  0.1001  0.1117
 7795W        W11995   0.474   3.076   1.368  0.3382  0.0874 -0.1894
 7796W        W11996   3.534   9.952   9.026 -0.1395  0.1976  0.1700
 7797W        W11997   7.663   9.819   1.251 -0.0117  0.1373 -0.1957
 7798W        W11998   8.641   8.906  10.202 -0.0015  0.2543  0.0417
 7799W        W11999   6.172   6.836  10.354 -0.1140  0.0148  0.1875
 7800W        W12000   2.265   3.955  10.207  0.2883 -0.0858  0.2984
 7801W        W12001   4.867   9.509   0.563 -0.1563 -0.2563  0.0635
 7802W        W12002   1.445   7.582   1.351 -0.1421  0.0128 -0.0562
 7803W        W12003   5.563   3.191   9.493 -0.3369 -0.1621 -0.1621
 7804W        W12004   9.801   0.869  10.354  0.2552  0.0015  0.2105
 7805W        W12005   6.151   4.741   2.067 -0.1032 -0.2529 -0.2231
 7806W        W12006   4.522   6.551  11.416 -0.2207 -0.0807 -0.2184
 7807W        W12007   1.125   4.569   2.955 -0.1916 -0.0028 -0.3151
 7808W        W12008   4.914   7.450  11.083 -0.2258  0.2839 -0.2036
 7809W        W12009   7.259  10.703   0.794 -0.2735  0.0158 -0.1511
 7810W        W12010   2.558   0.772   0.285  0.0724 -0.0843  0.1492
 7811W        W12011   6.056   8.241  12.024 -0.2084 -0.0450  0.0590
 7812W        W12012   9.638   5.156   7.560  0.5391 -0.1566  0.0451
 7813W        W12013   3.649   9.927   1.469 -0.1968 -0.0680 -0.3057
 7814W        W12014  10.070   3.539  11.381 -0.0550  0.1933  0.0585
 7815W        W12015   6.636   6.909   2.854 -0.0358  0.1229  0.0219
 7816W        W12016   4.153   5.808   3.853  0.0627 -0.1501 -0.1033
 7817W        W12017   9.720   0.417  11.059 -0.1819  0.1801  0.0042
 7818W        W12018   9.950   7.387   2.105  0.1181 -0.0680  0.1692
 7819W        W12019   4.669   1.132  12.332 -0.1743  0.2725 -0.1727
 7820W        W12020   8.219   5.471   0.938 -0.0458  0.1805  0.0276
 7821W        W12021   4.973  10.330  11.165 -0.0059 -0.2779 -0.0041
 7822W        W12022   5.189   2.846   1.069  0.2289  0.0816 -0.3295
 7823W        W12023   6.862   6.999   0.439  0.1464 -0.4573  0.0759
 7824W        W12024   2.512   2.038  11.768  0.1378 -0.3634 -0.1040
 7825W        W12025   2.868   8.715   1.010  0.2034 -0.1885  0.0627
 7826W        W12026   9.061   6.499   8.326 -0.2453  0.1220 -0.3276
 7827W        W12027   7.172   8.614   8.571 -0.0531 -0.0225 -0.1249
 7828W        W12028   2.217   8.901   8.944 -0.1370  0.0588 -0.0665
 7829W        W12029   2.077  10.329   3.228  0.1512  0.0558 -0.0934
 7830W        W12030   2.853   8.315  10.506  0.0012 -0.0404 -0.0590
 7831W        W12031   6.211   7.766   1.548 -0.0768  0.3088 -0.1655
 7832W        W12032   3.069   3.866   1.594  0.3894 -0.0151  0.0676
 7833W        W12033   2.883   0.958  11.134 -0.2235 -0.5838  0.0213
 7834W        W12034   1.225   4.927   1.552 -0.0112  0.0251  0.1156
 7835W        W12035  10.025   4.027  12.439 -0.1928 -0.3153 -0.2471
 7836W        W12036   7.063   4.843  10.497 -0.0709 -0.3207 -0.0692
 7837W        W12037   4.355   1.319   4.226 -0.1265  0.3006 -0.4844
 7838W        W12038   4.553  10.536  10.036  0.1089  0.2704  0.0868
 7839W        W12039   7.822   5.250   1.428  0.1057  0.1664 -0.2732
 7840W        W12040   6.486   6.144   7.963  0.1062 -0.1280 -0.0640
 7841W        W12041   7.548   3.169   1.966  0.0703  0.0509 -0.0758
 7842W        W12042   9.244   0.223  10.175  0.1724 -0.0545 -0.2626
 7843W        W12043   7.770   5.959   9.791  0.0255 -0.2468 -0.1381
 7844W        W12044   1.360   0.157   1.348  0.2513  0.4710 -0.2899
 7845W        W12045   4.972   5.012   8.664 -0.1953  0.0076  0.0232
 7846W        W12046   0.417   9.221   9.976  0.0435 -0.3198 -0.2657
 7847W        W12047   4.062   6.937   2.022  0.1625 -0.0634 -0.1374
 7848W        W12048   2.852   7.932   9.763  0.1814  0.0223  0.0467
 7849W        W12049   7.389   4.511   1.163 -0.0695  0.0052  0.3216
 7850W        W12050   8.141  10.306   9.577 -0.2170  0.1089 -0.1501
 7851W        W12051   4.293   2.308   1.114  0.1994 -0.0442 -0.1878
 7852W        W12052   0.036   8.878   0.582  0.0823  0.1163 -0.1165
 7853W        W12053   0.485   0.241  12.053  0.1213 -0.0917 -0.0086
 7854W        W12054   9.597   4.689  11.878  0.0972  0.4399  0.0595
 7855W        W12055   4.161   0.075   9.386 -0.2848  0.1821 -0.1911
 7856W        W12056   2.111   9.114   1.621  0.1258  0.3719  0.0876
 7857W        W12057   7.898  10.403  12.126  0.0651  0.1046 -0.1905
 7858W        W12058   3.082   1.046   1.364  0.3492  0.2573 -0.0096
 7859W        W12059   5.839   6.191  10.944 -0.1661 -0.1086  0.2437
 7860W        W12060   1.744   2.628   1.074 -0.1032  0.3842 -0.0267
 7861W        W12061   0.728   3.186  12.348  0.0212  0.0053  0.0643
 7862W        W12062  10.007   4.185   8.716 -0.1736 -0.0047 -0.1738
 7863W        W12063   6.938   0.243   0.401 -0.1451  0.5616 -0.1906
 7864W        W12064   8.211   8.774   3.910  0.4840  0.1942  0.2594
 7865W        W12065   1.351   9.097   9.414  0.3555  0.2664 -0.1817
 7866W        W12066   7.671   6.099  12.267 -0.0686  0.0481 -0.2384
 7867W        W12067   5.169   8.382  11.130 -0.0924  0.0035 -0.1502
 7868W        W12068   7.911   7.108   2.296  0.1148 -0.1503  0.0480
 7869W        W12069   0.071   5.584  12.761 -0.3009 -0.0667 -0.1800
 7870W        W12070   4.691  10.348   2.208 -0.3660  0.0578 -0.1362
 7871W        W12071   5.364   5.862  10.312 -0.2789 -0.0058  0.2672
 7872W        W12072   4.986   9.402   1.981  0.1669 -0.1613  0.0402
 7873W        W12073   1.123   4.411  11.103 -0.3601 -0.2393 -0.0037
 7874W        W12074  10.086   0.877   9.339  0.2334 -0.2455  0.1258
 7875W        W12075   5.869   8.879   8.767  0.0859 -0.1763 -0.3811
 7876W        W12076   9.144  10.630   1.422  0.1310  0.2022  0.0317
 7877W        W12077   7.394   7.839   2.034 -0.2667 -0.0315 -0.1368
 7878W        W12078   1.202   8.238   0.115  0.0964  0.1691 -0.0292
 7879W        W12079   7.024   7.345  10.634 -0.1820 -0.2377 -0.1239
 7880W        W12080   4.967   4.696  11.977  0.4536 -0.2793  0.0379
 7881W        W12081   0.413   9.322   3.671 -0.1516  0.2178  0.0741
 7882W        W12082  10.262   6.866   9.084  0.1457 -0.1535 -0.3612
 7883W        W12083   9.242   4.485   9.724 -0.0499 -0.1578 -0.2240
 7884W        W12084   6.713   3.074   9.394 -0.0277  0.0817 -0.3222
 7885W        W12085   4.444   7.720  12.029  0.2746  0.2228  0.2561
 7886W        W12086   4.538   6.145  10.356  0.2719 -0.5911 -0.3785
 7887W        W12087   4.273   3.130   0.783 -0.0359  0.0418  0.0832
 7888W        W12088   3.217   7.890   8.619  0.2233  0.1566 -0.3250
 7889W        W12089   2.984   4.728  12.633 -0.1664  0.2628 -0.1243
 7890W        W12090   2.094   2.020  10.759 -0.1522 -0.0447  0.0709
 7891W        W12091   6.656   1.746  11.775 -0.0321 -0.0312  0.0288
 7892W        W12092   2.257   2.539  12.490 -0.3702  0.3274 -0.1873
 7893W        W12093   8.995  10.232  10.789 -0.2647 -0.2619  0.0799
 7894W        W12094   4.857   3.880   0.719 -0.0416 -0.1667  0.2508
 7895W        W12095   3.779  10.503  10.328  0.0595 -0.0695 -0.0004
 7896W        W12096   0.537   9.823   2.778  0.0324  0.0621 -0.0942
 7897W        W12097   9.153   8.601   3.629  0.2167  0.0319  0.0540
 7898W        W12098   5.768   4.640   1.519  0.0701  0.1143  0.0483
 7899W        W12099   3.210   0.601  10.992  0.2216 -0.2853  0.4625
 7900W        W12100  10.157   9.259   2.195  0.1670  0.1134  0.0504
 7901W        W12101   6.401   6.515   1.611  0.2660 -0.1564  0.3099
 7902W        W12102   2.770  10.444   0.121 -0.2702 -0.4573 -0.0555
 7903W        W12103   0.155   5.688  10.377  0.1290  0.1309  0.0635
 7904W        W12104   5.874   9.283   3.374 -0.1823 -0.1995  0.2713
 7905W        W12105   0.215   8.623  12.121  0.0020 -0.1604 -0.1708
 7906W        W12106   8.087   7.987   9.942 -0.3328 -0.0263 -0.1586
 7907W        W12107   2.498  10.502   3.452  0.2086 -0.0811  0.1440
 7908W        W12108   5.401  10.345  11.463 -0.1847 -0.3521  0.0777
 7909W        W12109   9.840   9.395  12.040  0.0247 -0.0827  0.2501
 7910W        W12110   8.635   8.064   9.107  0.3090 -0.0181 -0.2483
 7911W        W12111   2.703   1.589   8.755 -0.1721 -0.0400  0.0914
 7912W        W12112  10.367   1.543   1.816  0.0574  0.1067  0.0825
 7913W        W12113   3.251   0.008   7.880 -0.1675 -0.0723 -0.3546
 7914W        W12114   3.392   7.200   9.666  0.0879  0.1675 -0.0625
 7915W        W12115   5.386   6.474  11.541 -0.1767 -0.2280  0.0583
 7916W        W12116   7.925   4.329   1.980 -0.0927  0.0490  0.1968
 7917W        W12117   6.468   1.900   0.949 -0.1328 -0.0427  0.0213
 7918W        W12118   6.387   5.708  11.627 -0.1326 -0.2698 -0.2944
 7919W        W12119   7.920   2.819  10.808  0.1713 -0.4590  0.0917
 7920W        W12120   0.016   7.167   0.321 -0.5315  0.0321  0.0879
 7921W        W12121   7.098   5.849  12.540  0.1007 -0.2280 -0.2767
 7922W        W12122   9.046   2.602  10.238  0.1593 -0.2433  0.1652
 7923W        W12123   8.715   4.399   9.963 -0.0272 -0.0127 -0.3646
 7924W        W12124   4.859   5.749   2.227  0.2418  0.1337  0.0988
 7925W        W12125   2.601   6.155  12.707 -0.0952 -0.0673  0.0972
 7926W        W12126   4.676   7.939   8.896 -0.0909  0.0064  0.0945
 7927W        W12127  10.032   0.873  10.939  0.2617 -0.4341 -0.1028
 7928W        W12128   0.493   1.268  11.128  0.0365 -0.0053  0.1163
 7929W        W12129   4.975   6.054   2.606  0.1582  0.0748  0.2266
 7930W        W12130   3.771   4.948  11.194  0.0159 -0.0006  0.2577
 7931W        W12131   5.850   7.815   8.842 -0.0827 -0.1100 -0.2786
 7932W        W12132   2.364   6.642  12.805 -0.2585  0.1285 -0.2036
 7933W        W12133   5.496   3.175  11.610 -0.1310 -0.1347  0.0034
 7934W        W12134   2.999   2.598   8.871 -0.2935 -0.0103 -0.1579
 7935W        W12135   7.521   4.154   1.698  0.0429 -0.1963  0.1582
 7936W        W12136   3.094   0.818  12.429  0.0419 -0.1837 -0.0124
 7937W        W12137   1.092   8.307  10.410  0.1626 -0.0607 -0.0498
 7938W        W12138   2.157   1.545   8.478 -0.1459  0.4347  0.2429
 7939W        W12139   2.513   3.476  11.589 -0.1321  0.1516  0.3277
 7940W        W12140   8.521   1.258   0.656  0.0545 -0.2739 -0.2605
 7941W        W12141  10.051   4.410   0.660 -0.2231  0.0817  0.0969
 7942W        W12142   8.786   3.506   4.035  0.1964  0.2460 -0.0277
 7943W        W12143   1.268   8.326  11.886  0.0452  0.2924  0.0968
 7944W        W12144   7.608   9.801   3.434 -0.0239 -0.0226 -0.3328
 7945W        W12145   2.095   6.651   8.098 -0.1076  0.3153  0.2313
 7946W        W12146   7.497   9.922   1.812  0.1315  0.1309 -0.0958
 7947W        W12147   5.014   6.496  11.166  0.0905 -0.3526  0.2550
 7948W        W12148   9.597   8.128   1.633 -0.3020  0.0932 -0.0092
 7949W        W12149   6.139   3.363   1.971 -0.1878  0.0899 -0.0357
 7950W        W12150   5.922   8.067   4.530  0.4242 -0.0529 -0.0075
 7951W        W12151   3.856   8.557   0.885 -0.3809 -0.0903 -0.1857
 7952W        W12152   6.530   9.318   2.777  0.0602  0.1965 -0.2665
 7953W        W12153   8.666   5.116   3.253 -0.2191 -0.3593  0.3133
 7954W        W12154   3.239   8.666   7.882 -0.0288 -0.0358 -0.3593
 7955W        W12155   6.409   1.064   2.858  0.0462  0.1132 -0.0767
 7956W        W12156   7.740   3.040  10.047 -0.0195 -0.0000  0.0756
 7957W        W12157   1.625   4.699   9.193 -0.3662 -0.3918  0.1530
 7958W        W12158   3.846   9.552   2.455 -0.0261 -0.0937 -0.0321
 7959W        W12159   9.553   4.171  10.534  0.1670 -0.0435  0.2346
 7960W        W12160   9.466   8.497  12.033  0.0150 -0.1059  0.0485
 7961W        W12161   7.562   5.697   8.082 -0.0769 -0.3726  0.2220
 7962W        W12162   5.572   4.009   9.920  0.3770 -0.0845 -0.0985
 7963W        W12163   7.964   4.718   3.708  0.2531 -0.2910 -0.1897
 7964W        W12164   0.437   2.245   9.490  0.1400 -0.1640 -0.0445
 7965W        W12165   4.187   9.148  10.278 -0.1134  0.0115 -0.4716
 7966W        W12166   1.854   4.944   8.654 -0.1311  0.3470  0.0772
 7967W        W12167   1.656   5.917   1.690  0.0314  0.1633 -0.0418
 7968W        W12168   2.687   7.374   0.546  0.0366 -0.1146 -0.1776
 7969W        W12169   0.453   3.699   0.180  0.3070 -0.0490  0.1217
 7970W        W12170   2.198   2.623   1.778 -0.1180  0.3518 -0.0862
 7971W        W12171   6.203   7.871   7.922  0.1989 -0.1215 -0.1419
 7972W        W12172   8.219   1.488  11.399  0.4293  0.2247  0.0807
 7973W        W12173   0.087   0.683   3.056 -0.2172 -0.0420  0.0112
 7974W        W12174   4.378   1.990   1.502  0.0485 -0.0275 -0.2274
 7975W        W12175   3.979   4.067   0.030  0.0730  0.4089 -0.2123
 7976W        W12176   9.714   8.979   0.648 -0.2697  0.1765  0.1134
 7977W        W12177   8.659   5.853   8.904  0.2122  0.0568  0.0755
 7978W        W12178  10.419   3.952  10.427 -0.3428 -0.0165 -0.2328
 7979W        W12179   6.973   6.920   1.844 -0.1025  0.5157 -0.1092
 7980W        W12180   2.472  10.452   0.685  0.1461 -0.0979 -0.1322
 7981W        W12181   7.489  10.570   3.879  0.0192 -0.3278 -0.1107
 7982W        W12182   7.135   1.644   4.669 -0.0452 -0.1419 -0.0278
 7983W        W12183   2.202   8.253  11.591 -0.0320  0.2609  0.0430
 7984W        W12184   1.849   0.829   1.258  0.1371  0.2358  0.1589
 7985W        W12185   8.055   0.135   0.595  0.1600 -0.2028 -0.1283
 7986W        W12186   9.439   3.603  11.674 -0.2123 -0.0064  0.1538
 7987W        W12187   0.472   6.537  12.629  0.0729 -0.0068  0.0076
 7988W        W12188   0.339   2.130  10.175  0.0565  0.0123  0.3802
 7989W        W12189   2.248   3.277   8.910  0.0466  0.1468  0.3286
 7990W        W12190   0.617   2.638   1.684  0.2884 -0.0814  0.1016
 7991W        W12191   0.821   5.861   8.879 -0.2511  0.4450  0.0105
 7992W        W12192   6.360   2.434  12.491 -0.3120 -0.2036  0.0277
 7993W        W12193   1.310   4.823   0.094  0.2357 -0.3406 -0.0157
 7994W        W12194   6.011   6.344   8.659  0.0434 -0.1707  0.2209
 7995W        W12195  10.406   9.217   3.599 -0.6032  0.0688 -0.4610
 7996W        W12196   2.595   4.383  12.657 -0.0495  0.0262  0.1609
 7997W        W12197   7.323   2.197   9.209 -0.0728 -0.0896 -0.3685
 7998W        W12198   9.960   8.792  12.193  0.1673 -0.0218 -0.0826
 7999W        W12199   0.470   3.024   3.932 -0.5236  0.1420  0.3791
 8000W        W12200   7.153   4.397   8.339  0.0504  0.0166  0.0417
 8001W        W12201   1.212   7.744   2.000  0.2738  0.1353 -0.0909
 8002W        W12202   2.060   9.048  12.178  0.0128  0.2132  0.1785
 8003W        W12203   9.595   2.591   4.080 -0.1917  0.2254 -0.1085
 8004W        W12204   5.612   1.951  11.821  0.1589 -0.1184 -0.1264
 8005W        W12205   9.413   6.648   7.232 -0.0295 -0.0341  0.1729
 8006W        W12206   8.857   9.296   3.085  0.2303  0.1528 -0.0025
 8007W        W12207   4.810   5.609   1.717  0.1462  0.0892 -0.2069
 8008W        W12208   2.349   3.955  12.661 -0.0237  0.1778  0.1087
 8009W        W12209   8.824   4.440   3.779 -0.2945 -0.1023  0.1212
 8010W        W12210   1.658   7.675   9.050  0.3131 -0.0523 -0.3439
 8011W        W12211   0.015   3.460  11.939  0.1430 -0.0732 -0.1684
 8012W        W12212   6.789   7.140   1.060  0.1052 -0.2770  0.0812
 8013W        W12213   4.915   7.045   4.064  0.1516  0.0818 -0.3937
 8014W        W12214   5.182   0.468   0.211 -0.0288 -0.0175  0.0996
 8015W        W12215   0.802   9.326   2.081  0.0053 -0.0460 -0.0987
 8016W        W12216   0.454   8.632   2.344  0.1656 -0.0213 -0.0613
 8017W        W12217   5.818   4.451   3.981  0.0248  0.0002 -0.0123
 8018W        W12218   4.130   5.511   0.697  0.3623  0.2898  0.0398
 8019W        W12219   0.314   3.817  11.448  0.2513 -0.0828  0.1081
 8020W        W12220   3.599   8.839   3.593  0.0133  0.1286 -0.1159
 8021W        W12221   4.311   6.730   2.416  0.1951 -0.2913 -0.0537
 8022W        W12222  10.092   7.067   2.489 -0.1314 -0.2419 -0.0033
 8023W        W12223   4.161   8.719   0.334 -0.0198  0.2860  0.1101
 8024W        W12224   9.308   7.089   1.254  0.1917  0.0332 -0.3371
 8025W        W12225   8.742   5.094  10.819  0.2258 -0.1645 -0.0465
 8026W        W12226   2.415   3.103   4.213 -0.2169 -0.3472  0.0108
 8027W        W12227   9.368   4.339   2.317  0.1731  0.3701 -0.0283
 8028W        W12228   8.355   9.566   1.690 -0.0009  0.0441  0.1787
 8029W        W12229  10.319   6.620  12.402  0.0263 -0.1103  0.1218
 8030W        W12230   9.529   8.456   8.480 -0.1624 -0.4987 -0.2209
 8031W        W12231   1.617   2.815   0.121  0.1804 -0.2538  0.2928
 8032W        W12232   5.208   5.990   0.353 -0.3647  0.3221  0.4256
 8033W        W12233   1.372   7.250   1.815  0.2141  0.1081  0.1857
 8034W        W12234   0.802   0.294   1.542 -0.1353  0.0771  0.0876
 8035W        W12235   3.794   8.305  11.031 -0.1299 -0.3642  0.1516
 8036W        W12236   2.176   3.458   1.068  0.1074  0.1338 -0.1583
 8037W        W12237   0.159   2.485   0.748  0.3106  0.2469  0.1200
 8038W        W12238   3.445   4.683   1.278  0.0400 -0.0919  0.1180
 8039W        W12239   0.437  10.233   0.074 -0.1569 -0.0267 -0.1490
 8040W        W12240  10.281  10.210   3.032 -0.0375 -0.0498 -0.0666
 8041W        W12241  10.096   6.015   0.790 -0.0407 -0.0483  0.1514
 8042W        W12242   5.833   7.719  10.604 -0.3080 -0.3879  0.2310
 8043W        W12243   7.265   7.571  11.617 -0.0575  0.2048  0.2251
 8044W        W12244   7.857   8.297   0.037  0.0842 -0.0367 -0.0095
 8045W        W12245   1.457   3.822  11.462 -0.1528 -0.0203  0.3414
 8046W        W12246   5.249   2.264   9.402  0.1307 -0.0138  0.0601
 8047W        W12247   8.113   9.967  10.842  0.1172  0.0349 -0.0633
 8048W        W12248   7.853   6.914  12.408  0.0253 -0.1169 -0.2741
 8049W        W12249   7.871   6.203   2.717 -0.1023 -0.1313 -0.2748
 8050W        W12250   0.700   6.710  11.044 -0.1183  0.0053 -0.0076
 8051W        W12251   5.543   0.959   8.955 -0.3381  0.1432 -0.1375
 8052W        W12252   4.602   7.125   9.207 -0.1488 -0.0769 -0.0428
 8053W        W12253   3.909   2.236   1.764  0.0382  0.0150 -0.3805
 8054W        W12254   3.474   3.049   0.456  0.2894 -0.1267 -0.0638
 8055W        W12255   9.773   8.572   1.829 -0.3214 -0.1581 -0.2243
 8056W        W12256   6.587   3.881   2.034  0.0444  0.1794 -0.1648
 8057W        W12257   0.537   7.369   1.334 -0.2355 -0.3833  0.0038
 8058W        W12258   3.358   3.090   1.800  0.0364 -0.0080  0.2460
 8059W        W12259   6.139   5.491  10.240 -0.2044 -0.3063 -0.0134
 8060W        W12260   9.423   3.094  11.769  0.3094 -0.1941  0.1825
 8061W        W12261   6.867   1.349  10.640 -0.0311 -0.1088  0.3668
 8062W        W12262   8.876   0.184   1.816 -0.4043  0.0773 -0.1297
 8063W        W12263   2.811   4.009   3.817  0.0144  0.4020 -0.1882
 8064W        W12264   5.893   7.280   8.711 -0.1919 -0.0833 -0.2835
 8065W        W12265   5.792   1.229   2.725 -0.4261  0.1053 -0.2106
 8066W        W12266   8.757   1.052  11.989  0.0165  0.0292 -0.2550
 8067W        W12267   0.184   0.246   2.030  0.0498 -0.2455  0.2596
 8068W        W12268  10.420   3.009   8.746 -0.2505  0.1626  0.2968
 8069W        W12269   6.949   4.195  10.161  0.0230  0.3680  0.0522
 8070W        W12270   5.608   9.556   1.182 -0.2103  0.0684  0.0321
 8071W        W12271   0.555   3.595   9.097  0.1701  0.0496 -0.0131
 8072W        W12272   9.401   1.980   1.151  0.0883  0.0674  0.0492
 8073W        W12273   2.749   0.658   1.301 -0.0023  0.1485  0.0228
 8074W        W12274   3.632   1.130  10.496  0.1298 -0.0026  0.2990
 8075W        W12275   8.182   5.958  10.083  0.3727  0.0498 -0.0084
 8076W        W12276   3.859   5.406  11.095  0.1068  0.1489  0.2220
 8077W        W12277   5.610   9.223   2.947  0.0085  0.3505 -0.2810
 8078W        W12278   3.520   9.794   2.179  0.1735  0.0064  0.1481
 8079W        W12279   5.248   2.743  11.535 -0.1226  0.1022 -0.0985
 8080W        W12280   0.933   7.609   4.521 -0.1223 -0.2043  0.2788
 8081W        W12281   9.895   7.347   9.956  0.0578 -0.0611 -0.0695
 8082W        W12282   2.404   2.250   3.207  0.0002  0.1800 -0.1307
 8083W        W12283   0.044   3.281   1.456  0.0295  0.0187 -0.3347
 8084W        W12284   4.153   5.702   9.602  0.0485 -0.2567  0.2838
 8085W        W12285  10.083   1.103  11.981 -0.3049  0.0168 -0.2196
 8086W        W12286   9.017   7.502   0.559  0.0806  0.0433 -0.1121
 8087W        W12287   6.809  10.162   1.426  0.2079 -0.2134 -0.1826
 8088W        W12288   0.824   6.348   1.643  0.2055 -0.0913  0.1392
 8089W        W12289   5.745   0.271   8.942 -0.1920  0.1513 -0.3369
 8090W        W12290   5.747   9.928   9.673  0.1598 -0.3112  0.1107
 8091W        W12291   2.553   0.342   3.188  0.0840 -0.0060  0.2509
 8092W        W12292   1.444   4.218   9.163 -0.1209  0.0282  0.0536
 8093W        W12293  10.352   2.127   9.980  0.0323  0.0367 -0.1878
 8094W        W12294   2.389  10.229  11.298 -0.0384 -0.0300 -0.1665
 8095W        W12295   3.292   7.406  12.326 -0.2160  0.0177 -0.3226
 8096W        W12296   9.317   1.548   2.796  0.2205 -0.1434 -0.1828
 8097W        W12297   8.415   9.793   2.525  0.0871 -0.0749 -0.0097
 8098W        W12298   5.884   3.264   3.329 -0.4016  0.0904  0.0800
 8099W        W12299   5.525   6.445   3.113  0.1881  0.3430 -0.0169
 8100W        W12300   4.870  10.723  10.743  0.0590  0.0103  0.0342
 8101W        W12301   5.504   9.187   8.876  0.1541  0.0462 -0.2661
 8102W        W12302   8.183   3.553  12.550  0.0045  0.0678 -0.2046
 8103W        W12303   2.404   1.095  10.987 -0.2787  0.3464  0.2229
 8104W        W12304   0.109   3.332   0.099  0.1132 -0.1047 -0.1102
 8105W        W12305   4.888   5.192  12.745 -0.2141  0.2570 -0.3410
 8106W        W12306   9.438   2.643   1.473  0.2762 -0.3463  0.0059
 8107W        W12307   1.735   2.013  10.185 -0.1604 -0.1597  0.3672
 8108W        W12308   9.953   6.296  12.489 -0.2108  0.1769 -0.2627
 8109W        W12309   4.724   1.467  11.298 -0.0100 -0.2238  0.0454
 8110W        W12310   7.525   1.820   3.100 -0.0923  0.0705  0.0986
 8111W        W12311   5.058   3.402  11.370 -0.0358 -0.0141 -0.1717
 8112W        W12312   6.584   9.674   1.519  0.0392  0.1774 -0.2779
 8113W        W12313   1.602   9.245   1.071  0.0679  0.2874 -0.3012
 8114W        W12314   7.202   3.465  10.495  0.4388  0.0759  0.2393
 8115W        W12315   0.508  10.620   1.874 -0.0102 -0.0983  0.2792
 8116W        W12316   8.412   3.180   1.732 -0.0168 -0.0560  0.0385
 8117W        W12317   7.833   7.511  10.002  0.0843 -0.0646  0.1030
 8118W        W12318   1.717   8.722   3.451 -0.0905 -0.0176 -0.0850
 8119W        W12319   6.526   3.035   1.734 -0.5531 -0.1972 -0.2765
 8120W        W12320   6.154   6.346  12.405 -0.0983  0.5800 -0.0764
 8121W        W12321   5.094   8.179   3.393  0.1403 -0.1667  0.0266
 8122W        W12322   2.945   5.248  12.758  0.2115 -0.2263 -0.1780
 8123W        W12323   1.618  10.208  10.047 -0.0426  0.1473  0.0720
 8124W        W12324   1.294   3.907   3.937  0.0350  0.1896 -0.1178
 8125W        W12325   2.219   4.846   0.350 -0.1608 -0.1821  0.0597
 8126W        W12326   2.849   0.930  11.624 -0.1673 -0.2390  0.0770
 8127W        W12327   2.983   3.770   0.354 -0.0984  0.1661 -0.1670
 8128W        W12328   5.516   9.082   1.249  0.1461 -0.1598 -0.0660
 8129W        W12329   7.801   3.620  12.169 -0.0075  0.0841 -0.1340
 8130W        W12330   4.954   8.205  10.573 -0.1740 -0.3512 -0.1854
 8131W        W12331   7.028   5.967   2.243 -0.1749  0.1652 -0.4934
 8132W        W12332   3.439   5.747   2.152  0.0037 -0.2004  0.1654
 8133W        W12333   7.207   3.440   9.192  0.0592 -0.1710  0.0338
 8134W        W12334  10.174   3.012  11.015  0.0193  0.1310 -0.0065
 8135W        W12335   4.670   6.437   0.232 -0.0087 -0.1690  0.1446
 8136W        W12336  10.052   8.289  10.980  0.1538 -0.0400  0.1430
 8137W        W12337   3.422   2.235   8.915  0.1564 -0.1929 -0.0900
 8138W        W12338   8.590  10.058  11.116  0.0624 -0.0636  0.2054
 8139W        W12339   6.924   6.478  10.747  0.0540  0.1302 -0.1304
 8140W        W12340   3.378   5.240   2.617 -0.0163 -0.1744 -0.0766
 8141W        W12341   6.480   6.670  10.710 -0.0830 -0.1422  0.2063
 8142W        W12342   9.877  10.559   2.903 -0.3020 -0.1427  0.3874
 8143W        W12343  10.073   0.834   1.900 -0.0137  0.2435 -0.0793
 8144W        W12344   4.070   2.673   2.755  0.0235  0.1557 -0.0831
 8145W        W12345   4.493   7.573   0.215  0.0939  0.0809 -0.1880
 8146W        W12346   3.270   8.156   0.329 -0.1935  0.1910  0.0979
 8147W        W12347   9.760   9.934  11.987  0.0953  0.0292  0.1432
 8148W        W12348   6.025   6.360   3.294 -0.4356 -0.1880  0.2338
 8149W        W12349   7.671   7.858   0.327  0.1294 -0.2111 -0.1237
 8150W        W12350   0.006   2.909  11.672  0.2633 -0.3204 -0.1897
 8151W        W12351   6.566   3.235   1.203 -0.1027  0.0721 -0.2722
 8152W        W12352   4.281   1.961  11.079  0.3046 -0.1063  0.0589
 8153W        W12353   0.837   6.035  11.455 -0.0660  0.1510 -0.1954
 8154W        W12354   8.934   8.609   8.424  0.0985 -0.5255  0.0130
 8155W        W12355   6.295   4.947   9.495  0.1146 -0.0300 -0.1344
 8156W        W12356   9.275  10.430  10.065  0.0592 -0.1510  0.0046
 8157W        W12357   3.449   0.683   1.277 -0.2269 -0.2412 -0.3039
 8158W        W12358   7.569   6.950  12.007 -0.0847 -0.1927 -0.2084
 8159W        W12359   8.838   6.022   2.900  0.1788 -0.1302  0.1084
 8160W        W12360  10.485   0.869  11.181  0.0173  0.3786  0.0845
 8161W        W12361   9.629   6.350  10.545  0.0848  0.0104 -0.2388
 8162W        W12362   7.058   4.993  12.499  0.0416  0.0091  0.4389
 8163W        W12363   2.589   8.827   0.579  0.1791 -0.0766 -0.2854
 8164W        W12364  10.723   2.497   2.825  0.0303  0.0705 -0.1575
 8165W        W12365   1.408   2.321   1.341  0.0456 -0.3593  0.0357
 8166W        W12366  10.234   3.078  11.569  0.3152 -0.2290 -0.0411
 8167W        W12367   6.695   8.627   7.453  0.1750  0.1773 -0.3789
 8168W        W12368   9.667   4.383   2.726  0.0386  0.1319  0.1261
 8169W        W12369   0.979   4.728   0.776  0.0901 -0.0151  0.1752
 8170W        W12370   3.380  10.463   9.067  0.0960  0.0852 -0.1409
 8171W        W12371   0.043   6.467   3.281  0.0191 -0.2897  0.1956
 8172W        W12372   9.105   2.010   2.631  0.0835 -0.2905 -0.2416
 8173W        W12373   7.637   9.617   2.187  0.1812 -0.1786  0.0461
 8174W        W12374   8.574  10.178   2.785  0.2566  0.3365  0.0070
 8175W        W12375   9.695   6.191   9.187  0.4231 -0.0890 -0.0112
 8176W        W12376   6.338   7.984   8.916  0.3694 -0.0237 -0.2911
 8177W        W12377   6.323   2.373  10.554 -0.2516  0.0553  0.0927
 8178W        W12378   7.894   4.698  10.484 -0.0219 -0.1199 -0.2144
 8179W        W12379   0.955   4.910  10.986  0.1386  0.0857  0.0817
 8180W        W12380   3.579   6.287   0.462  0.2063 -0.1003 -0.1470
 8181W        W12381   8.214   6.024   2.374  0.4815  0.1010 -0.1885
 8182W        W12382   8.299   6.665  12.294  0.1498 -0.3565  0.0618
 8183W        W12383   8.633   2.774   8.851 -0.2042 -0.2803 -0.0455
 8184W        W12384   3.461  10.382   3.414  0.1436  0.0805  0.0682
 8185W        W12385   6.616   9.494  12.509 -0.1022 -0.0398 -0.0023
 8186W        W12386   2.810   7.468   1.609  0.2308 -0.0384  0.1235
 8187W        W12387   3.424   5.814   3.729 -0.3486  0.0619 -0.1325
 8188W        W12388   8.811   7.268  12.318 -0.1790 -0.1504 -0.1909
 8189W        W12389   3.298   9.768  12.127  0.3775 -0.0260 -0.0300
 8190W        W12390   2.409   0.714   8.714 -0.2972 -0.4116 -0.0596
 8191W        W12391   4.150   9.189   1.357 -0.0019  0.1890  0.0172
 8192W        W12392   0.917   0.130   8.664  0.0336  0.0842  0.0487
 8193W        W12393   3.482   1.153   4.072 -0.1086 -0.2254 -0.0562
 8194W        W12394   7.744   7.644   2.674  0.0929  0.0685  0.0916
 8195W        W12395   0.757   0.938  10.835  0.2390  0.2193  0.1430
 8196W        W12396   0.549   4.194  11.896  0.1116  0.0179  0.1898
 8197W        W12397   1.842   0.259   1.305 -0.0282  0.1780  0.4550
 8198W        W12398   5.955   4.899  11.954 -0.2395 -0.1200 -0.2393
 8199W        W12399   8.748   4.978  11.992 -0.1228 -0.2603  0.2690
 8200W        W12400   6.449   1.610   9.007 -0.0755  0.4188  0.0721
 8201W        W12401  10.340   0.235  12.594 -0.3100  0.2445  0.1455
 8202W        W12402   2.075   7.966   4.701  0.2416  0.0812  0.1425
 8203W        W12403   5.019   9.930   1.883  0.0172 -0.0434 -0.1628
 8204W        W12404   9.713   4.433   1.459  0.0468  0.1440 -0.0205
 8205W        W12405   4.079   5.400   1.346 -0.5228 -0.0442 -0.0560
 8206W        W12406  10.190   7.785  11.039 -0.2743 -0.1925 -0.1232
 8207W        W12407  10.187   7.189   8.611 -0.2226 -0.0716  0.3608
 8208W        W12408   4.136   6.461   9.749 -0.0707  0.0579  0.1286
 8209W        W12409   7.572   6.559   3.523 -0.1205  0.2352 -0.2740
 8210W        W12410   6.933   1.665   3.566 -0.0144 -0.1067  0.0211
 8211W        W12411   9.408   4.927   8.009 -0.2392 -0.2242  0.2538
 8212W        W12412   3.663   3.781   1.919 -0.0862  0.2825  0.2138
 8213W        W12413   5.658   2.398   0.460  0.0091 -0.0784 -0.2307
 8214W        W12414   2.698   9.789   0.382 -0.0252  0.1597 -0.0889
 8215W        W12415   0.495   3.580  11.987 -0.4093  0.0630 -0.1065
 8216W        W12416  10.279  10.024   0.273  0.0495  0.2406  0.0796
 8217W        W12417   8.300  10.160  11.817 -0.1597  0.0906  0.0679
 8218W        W12418   8.163   7.099  10.899  0.3261  0.3812  0.0965
 8219W        W12419   6.917   0.156   2.003  0.0859  0.1782  0.3996
 8220W        W12420   8.799   1.652   1.028 -0.2017  0.1133 -0.1818
 8221W        W12421   2.438   9.078  11.860  0.0790  0.0350 -0.1224
 8222W        W12422   6.586   6.661  11.626 -0.1063 -0.1084  0.3890
 8223W        W12423  10.107  10.302  12.140  0.0162  0.2959  0.0721
 8224W        W12424   2.557   3.434   3.641 -0.3092 -0.1040  0.0223
 8225W        W12425   5.529   0.790   3.066  0.4440  0.0665 -0.0612
 8226W        W12426   9.081   5.945  10.016  0.0092  0.0903 -0.0254
 8227W        W12427   9.337   3.719   0.728  0.1653  0.2816  0.3258
 8228W        W12428   7.389   5.126   0.282 -0.1584  0.2465 -0.2745
 8229W        W12429   3.289   2.345  10.510  0.0488  0.0658 -0.1194
 8230W        W12430   0.708   4.756   2.147 -0.0797 -0.2040 -0.1387
 8231W        W12431   2.593   8.992  12.496  0.0434 -0.0984  0.1579
 8232W        W12432   6.066  10.500   1.232 -0.2833 -0.0756  0.3836
 8233W        W12433   3.877   3.067   1.564 -0.2376  0.0806 -0.1387
 8234W        W12434   7.898   6.270  10.767  0.1835 -0.0208  0.0596
 8235W        W12435   0.504   6.067  10.261  0.1549 -0.1020  0.1940
 8236W        W12436   9.484   4.982   2.312 -0.1623 -0.1251 -0.3894
 8237W        W12437   5.753   0.832   0.406 -0.1911  0.0645  0.1275
 8238W        W12438   2.096   2.574  11.487  0.1560 -0.0486  0.1284
 8239W        W12439  10.244  10.715   1.589 -0.0201  0.1390 -0.0384
 8240W        W12440   6.110  10.603   2.753 -0.1586 -0.2456 -0.1442
 8241W        W12441   4.294   1.560   1.306  0.2030  0.2233 -0.1098
 8242W        W12442   6.026   7.285  10.882 -0.0380  0.1117  0.1749
 8243W        W12443   8.242   8.125  10.385  0.0084 -0.2536 -0.4008
 8244W        W12444   8.069   8.949  10.782  0.2173  0.7333  0.2197
 8245W        W12445   1.173   0.799  11.133  0.2009  0.3300  0.2172
 8246W        W12446   6.101   2.849   1.562 -0.3149  0.0534 -0.0476
 8247W        W12447   2.221   5.802   2.393  0.4342 -0.1416  0.0827
 8248W        W12448   4.604   6.057   4.042  0.2470 -0.1645  0.0279
 8249W        W12449   2.029   3.885   9.729 -0.2019  0.1801 -0.1294
 8250W        W12450   8.585   8.816   8.743 -0.0139  0.1539  0.3090
 8251W        W12451   6.809   3.795  10.476  0.1552 -0.0522  0.3148
 8252W        W12452   9.506   8.498   9.566  0.1653 -0.2232 -0.0289
 8253W        W12453   8.109   1.555   9.182  0.1858 -0.1053  0.0765
 8254W        W12454   9.287   2.414   1.914  0.1231 -0.0150  0.0893
 8255W        W12455   4.750   5.971   0.579 -0.2449 -0.2055  0.0123
 8256W        W12456  10.514   7.923   2.609 -0.0678  0.0616  0.1470
 8257W        W12457   3.650  10.157  10.823  0.0121 -0.1096 -0.2850
 8258W        W12458  10.054  10.502   0.645  0.0167 -0.0706  0.0905
 8259W        W12459   2.425   4.993  10.440 -0.1998  0.0053  0.1343
 8260W        W12460   0.913   4.156   4.264  0.1762  0.1707 -0.0714
 8261W        W12461   0.033   4.005   3.218 -0.3778 -0.1533  0.2320
 8262W        W12462   9.371   5.571  12.812 -0.0453 -0.0391  0.2519
 8263W        W12463   3.972   0.223   8.321 -0.0679  0.0253 -0.1053
 8264W        W12464   7.097   9.047   1.082 -0.2852  0.1474  0.1465
 8265W        W12465   1.157   1.249   3.064 -0.4392  0.1417  0.1686
 8266W        W12466   2.177   7.915   3.143  0.0519 -0.0638  0.2259
 8267W        W12467   4.577   1.840  12.740 -0.1676 -0.2428  0.2068
 8268W        W12468   9.119   5.380   8.746  0.0923 -0.1397 -0.1319
 8269W        W12469   6.467   8.462  10.801 -0.0309  0.0494 -0.1408
 8270W        W12470   3.909   4.003   0.924 -0.3923  0.0586  0.0170
 8271W        W12471   8.058   1.426   0.868 -0.2470 -0.2313 -0.1198
 8272W        W12472   3.815   7.525  11.941  0.2355  0.2367 -0.3120
 8273W        W12473   4.957   3.880   3.713 -0.3188 -0.2661 -0.0014
 8274W        W12474   5.397   9.848   2.133  0.2520  0.4252 -0.1228
 8275W        W12475   0.932   5.075   1.139 -0.1259 -0.2627  0.3746
 8276W        W12476   7.537   0.871   3.995 -0.1223 -0.1927 -0.0604
 8277W        W12477   2.122   5.879   1.468  0.1874  0.3363  0.1297
 8278W        W12478   8.912   2.631   1.360 -0.1231  0.0265 -0.0637
 8279W        W12479   8.847   6.543   9.998 -0.2203 -0.0672 -0.0827
 8280W        W12480   6.177   1.330   3.200 -0.1558  0.3060  0.2463
 8281W        W12481   6.953   8.577   9.465 -0.1050  0.2204 -0.0069
 8282W        W12482   7.454   5.538  10.041  0.3295  0.0016 -0.0903
 8283W        W12483   3.019   1.873   2.561 -0.1639  0.5587 -0.1172
 8284W        W12484   3.865   0.124  12.339 -0.1049  0.1191  0.0131
 8285W        W12485   8.077   3.950   3.085  0.1752 -0.1338  0.3337
 8286W        W12486   6.340   9.004  10.621  0.0603  0.1050 -0.1752
 8287W        W12487   8.374   8.542  11.090  0.3267 -0.3022 -0.1294
 8288W        W12488   0.897   7.316   8.411  0.1202  0.0582  0.3113
 8289W        W12489   0.460   3.400  10.627  0.1838  0.3088 -0.0023
 8290W        W12490   5.383   3.992   9.294 -0.1641 -0.0345 -0.1931
 8291W        W12491   0.789   0.279   4.258  0.1057  0.2105 -0.1355
 8292W        W12492   6.191   5.372   3.808  0.3100 -0.1845 -0.1059
 8293W        W12493   2.963   5.728  12.555 -0.0447 -0.0489 -0.0406
 8294W        W12494   6.823   4.894   9.527  0.0094  0.1017  0.0343
 8295W        W12495   5.156  10.091   1.359  0.0370  0.1720  0.0362
 8296W        W12496   2.340   6.189   3.478 -0.0931  0.1076  0.0825
 8297W        W12497   4.052   0.149  11.822  0.3016 -0.0213  0.2094
 8298W        W12498   4.771   3.852   9.974 -0.3097 -0.0070  0.2523
 8299W        W12499   6.088   3.952   9.853  0.4372 -0.0387  0.0236
 8300W        W12500   6.413   0.155  11.540 -0.2563  0.0113  0.1685
 8301W        W12501   9.232   6.556   9.588  0.0186  0.0181 -0.2071
 8302W        W12502   5.894   0.665   9.285  0.1748  0.0611  0.0726
 8303W        W12503   3.619   3.435   1.550 -0.2802  0.0976 -0.0564
 8304W        W12504   2.124   0.260   3.435 -0.0271  0.3078  0.0339
 8305W        W12505   9.117   8.180   7.645 -0.0086  0.2547 -0.2587
 8306W        W12506   0.085   4.757   0.958 -0.2450 -0.1591  0.0445
 8307W        W12507   1.197   5.303   9.299 -0.1466  0.1997 -0.1631
 8308W        W12508   9.407   7.956   9.601 -0.0119 -0.0652  0.1724
 8309W        W12509   9.687   9.355   9.458 -0.1880  0.2522 -0.1854
 8310W        W12510   9.505   0.200   3.148 -0.1090  0.1250  0.0222
 8311W        W12511   7.793  10.638  10.351  0.1438 -0.0913  0.2248
 8312W        W12512  10.305   7.537   8.222  0.2397  0.0713  0.1352
 8313W        W12513   6.899   8.287   8.190  0.0695 -0.3695 -0.1516
 8314W        W12514   1.538   6.100  10.906  0.2704  0.0719  0.1214
 8315W        W12515   6.470   3.690  12.002  0.1899  0.0193 -0.0579
 8316W        W12516   5.583   9.826  12.818 -0.1942 -0.0058 -0.3907
 8317W        W12517   3.167   5.015   1.720 -0.0453 -0.0321 -0.2637
 8318W        W12518   1.141   7.782   9.192 -0.2837 -0.1865 -0.1049
 8319W        W12519   1.458   9.667   1.403 -0.3390  0.1578 -0.1775
 8320W        W12520   3.368   4.116  11.316  0.1220  0.1881 -0.3930
 8321W        W12521   1.181   2.024   1.926 -0.0121  0.0614  0.1478
 8322W        W12522  10.390   8.187  12.167 -0.1109  0.3161  0.3804
 8323W        W12523   8.450   6.380   2.702  0.4117  0.1258  0.3722
 8324W        W12524   1.339   5.674  11.822 -0.2554 -0.0496 -0.0128
 8325W        W12525   0.602   6.658   7.512  0.0404  0.1004  0.2053
 8326W        W12526   2.557   5.332   3.270  0.2047  0.0092  0.5234
 8327W        W12527   6.276   8.857   2.514  0.2363  0.0930 -0.0023
 8328W        W12528   6.985   9.173  12.465  0.4529  0.3522  0.1253
 8329W        W12529  10.172  10.286   8.861  0.1790  0.1242  0.0798
 8330W        W12530   9.399   3.100   2.713  0.1597  0.0093 -0.3810
 8331W        W12531   7.211   1.813   9.601 -0.0099 -0.1990  0.1868
 8332W        W12532   8.006   9.609  11.764 -0.1969 -0.1568 -0.1604
 8333W        W12533   4.841   3.081   2.271 -0.1117  0.0651  0.0217
 8334W        W12534   3.819   3.050   2.148 -0.0692 -0.1194 -0.1502
 8335W        W12535   8.173   6.265   0.169  0.1643  0.0830 -0.0847
 8336W        W12536   9.583   8.970  11.913 -0.1669 -0.0083 -0.0857
 8337W        W12537   9.846   6.776   0.355  0.0549 -0.0414  0.2534
 8338W        W12538   1.991   6.203   2.006  0.0260 -0.1416 -0.3596
 8339W        W12539   6.214   8.243   9.656 -0.0358 -0.1734  0.0291
 8340W        W12540   5.149   3.518   3.477 -0.0326  0.2251  0.1687
 8341W        W12541   1.017   2.414   3.298  0.2286  0.0506 -0.3575
 8342W        W12542   2.026   8.018   1.044 -0.2090  0.1511  0.0806
 8343W        W12543   6.443   3.484   8.514  0.1264 -0.0318 -0.2282
 8344W        W12544   8.898   1.226   9.594 -0.4411 -0.0601  0.3717
 8345W        W12545   4.823   9.215   0.072  0.0324  0.0652 -0.0193
 8346W        W12546   9.622   4.912  12.416 -0.1334 -0.1424  0.0750
 8347W        W12547   1.977   8.593   8.114  0.0372 -0.1494 -0.0946
 8348W        W12548   5.113   2.258  11.313  0.1722  0.0599 -0.2637
 8349W        W12549   0.469  10.294   1.482 -0.0021 -0.0687 -0.0748
 8350W        W12550   6.177   0.066   8.603  0.0728  0.1340 -0.6250
 8351W        W12551   4.430   8.512   3.430  0.2764 -0.0138  0.0816
 8352W        W12552   3.232   6.356   1.347 -0.1859  0.2968  0.1367
 8353W        W12553   1.976   5.758   3.615  0.3088 -0.0236  0.0205
 8354W        W12554   9.848   8.200   9.828 -0.1514 -0.2116  0.1847
 8355W        W12555   2.663   6.035  11.750 -0.2268 -0.1126  0.0152
 8356W        W12556   9.805   2.190  10.600 -0.0944 -0.0500  0.2320
 8357W        W12557   8.183   9.828   9.700  0.1441 -0.2179 -0.1806
 8358W        W12558   5.603   6.576  11.091 -0.2364  0.1226  0.0548
 8359W        W12559   5.930   8.210   1.007 -0.1645  0.0296  0.0913
 8360W        W12560   6.884   1.351  10.104 -0.0723  0.3433 -0.2706
 8361W        W12561   2.043   5.456  12.211  0.0849 -0.1322 -0.1448
 8362W        W12562   8.200   6.694   8.445 -0.0331 -0.0625  0.0201
 8363W        W12563   0.604   1.667   4.212 -0.0643  0.0942  0.0641
 8364W        W12564   4.302   4.974   1.330  0.2303 -0.0714  0.0481
 8365W        W12565   4.041   2.860   3.589  0.1028  0.0576  0.0533
 8366W        W12566   9.668   1.697   3.170  0.1479  0.2155 -0.1410
 8367W        W12567   7.751   0.582   1.492  0.2684 -0.1370  0.0591
 8368W        W12568   5.713  10.437  10.975  0.1052  0.2174 -0.3773
 8369W        W12569   9.559   0.396  10.511  0.0757  0.2537 -0.1605
 8370W        W12570   5.857   8.402   0.130  0.1079 -0.2305 -0.3033
 8371W        W12571   7.862   6.756  10.674 -0.2673  0.2423  0.1406
 8372W        W12572   7.769   9.526   1.667 -0.0735  0.3180 -0.1499
 8373W        W12573   2.929   5.695   8.428  0.2277  0.0056  0.1609
 8374W        W12574   8.549   2.292   1.465  0.1938  0.1748 -0.1428
 8375W        W12575   6.991   2.026  10.957 -0.2216  0.2439 -0.2391
 8376W        W12576   5.617   8.329   3.217 -0.0735  0.1198  0.0230
 8377W        W12577   1.613   6.408   8.369 -0.0309 -0.0194 -0.2999
 8378W        W12578   7.730   0.526  12.135  0.2080  0.4533  0.1916
 8379W        W12579   3.554   6.574   9.738  0.1257 -0.1552  0.0585
 8380W        W12580   8.716   2.386  10.996 -0.0812 -0.3008  0.2317
 8381W        W12581   2.184   4.982   9.543 -0.4158  0.0264 -0.0624
 8382W        W12582   4.135   3.173  10.314  0.3045  0.0518  0.0561
 8383W        W12583   2.196  10.160   1.669 -0.1551 -0.0612 -0.1909
 8384W        W12584   6.784   6.718   1.387 -0.0183  0.0518 -0.0288
 8385W        W12585   8.715   6.003   3.406  0.0484 -0.3535  0.2709
 8386W        W12586  10.025   5.837   9.672  0.2286  0.3259  0.2167
 8387W        W12587   5.927   6.880   0.546  0.0800 -0.2795  0.0926
 8388W        W12588   0.492   7.925   1.343  0.0335 -0.3416 -0.0375
 8389W        W12589   4.838   5.071   1.427  0.2351 -0.2122  0.2965
 8390W        W12590   8.068   1.494  12.426 -0.1213 -0.1779 -0.0567
 8391W        W12591   3.954   6.910  11.988  0.0545 -0.1419 -0.0051
 8392W        W12592   9.701   5.141  10.517 -0.0442  0.2199 -0.1192
 8393W        W12593   3.582   0.861   7.825  0.1469  0.3295 -0.0394
 8394W        W12594   2.740   1.615  10.182 -0.1652  0.3258  0.0908
 8395W        W12595   8.215   5.071   2.958 -0.0136 -0.0038  0.0892
 8396W        W12596   0.048   7.535   3.312  0.0607 -0.1932  0.1394
 8397W        W12597   1.002   7.312   1.023 -0.2697  0.0056 -0.0665
 8398W        W12598   2.152   6.825  12.352 -0.0100 -0.2766 -0.2862
 8399W        W12599   7.960   2.615   3.602 -0.2108  0.2994  0.2628
 8400W        W12600   0.102   8.211   9.986  0.0451  0.1138 -0.1236
 8401W        W12601   8.644   5.441   2.254  0.0991 -0.2492 -0.0102
 8402W        W12602   0.111   1.524  10.591 -0.0247 -0.1902 -0.0050
 8403W        W12603   7.913   9.442  10.360 -0.0039  0.2658  0.1823
 8404W        W12604   7.062   0.832  11.807 -0.2193 -0.4029 -0.4331
 8405W        W12605   2.033   7.436   3.142 -0.1208 -0.0376 -0.1803
 8406W        W12606   3.988   6.706  12.682 -0.1225 -0.1433 -0.1060
 8407W        W12607   4.628  10.316  10.746  0.0090 -0.0810 -0.3006
 8408W        W12608   6.940   9.401  11.100  0.0353 -0.2463 -0.1458
 8409W        W12609   9.562   0.825  10.802  0.1403 -0.1130  0.0459
 8410W        W12610   8.385   3.647   3.331  0.0102  0.2220 -0.0364
 8411W        W12611   9.116   8.719  12.750  0.1272  0.2139 -0.1560
 8412W        W12612   4.693   3.119   4.650  0.0020  0.1773 -0.0843
 8413W        W12613   2.521   3.989   3.436 -0.0110  0.1098 -0.1289
 8414W        W12614   5.692   0.777   3.720 -0.4671  0.1091 -0.1930
 8415W        W12615   6.621   1.537   3.086  0.1142  0.1822 -0.1351
 8416W        W12616   9.989   2.085   1.001  0.0198 -0.1540  0.1120
 8417W        W12617   8.869   9.820   2.354  0.0952  0.1818  0.1575
 8418W        W12618   5.266   0.022   4.626  0.2482 -0.1223 -0.2569
 8419W        W12619   4.967   5.206   3.248 -0.0059 -0.2859  0.0709
 8420W        W12620   5.322   2.578   3.485  0.0201  0.1927 -0.0642
 8421W        W12621   4.395   6.458  12.651 -0.0425  0.2023  0.2218
 8422W        W12622   0.849   4.270   1.875 -0.3598 -0.0611  0.1135
 8423W        W12623   4.066   6.001  11.383  0.0891  0.4081 -0.0678
 8424W        W12624   1.142   9.699  11.624 -0.0334 -0.2667  0.0847
 8425W        W12625   3.071   7.885   0.742 -0.0429  0.0452 -0.0764
 8426W        W12626   0.440   4.738   9.925 -0.0915 -0.1983 -0.0296
 8427W        W12627   9.658  10.256   8.867  0.4997 -0.2433 -0.2023
 8428W        W12628   7.660   6.303   0.404  0.1673  0.0280 -0.3274
 8429W        W12629   0.661   5.913   9.777  0.0691  0.1452  0.0411
 8430W        W12630   4.076   7.498   8.562 -0.1843 -0.1337  0.3239
 8431W        W12631   3.053   3.926   2.482  0.0168 -0.0361  0.2209
 8432W        W12632  10.601   3.683   3.565  0.3882  0.1751 -0.0757
 8433W        W12633   5.260   4.957   9.402 -0.2923 -0.0487  0.0313
 8434W        W12634   5.773   4.424  11.651 -0.2010 -0.0217 -0.2192
 8435W        W12635   2.139   5.631   1.896 -0.0236  0.0148  0.1312
 8436W        W12636   1.863   3.172   2.048  0.1120 -0.1288  0.1254
 8437W        W12637   7.489  10.665  10.954  0.0393 -0.2735 -0.1718
 8438W        W12638   1.393   2.052   8.806 -0.3590 -0.0161 -0.0477
 8439W        W12639   1.464   5.648   2.681 -0.2411 -0.3380  0.1790
 8440W        W12640   7.380   9.708  11.209  0.1257 -0.0880  0.1187
 8441W        W12641   3.340   3.918   8.564 -0.0034  0.0767 -0.0283
 8442W        W12642   4.758   7.766  11.619 -0.0457 -0.5606 -0.0473
 8443W        W12643   9.219   6.106   0.422 -0.2867 -0.1281  0.0822
 8444W        W12644   7.485   2.809   0.110 -0.3490  0.2195  0.0337
 8445W        W12645   5.770  10.720   9.345  0.0605  0.0277 -0.0589
 8446W        W12646   5.593   3.483  10.051  0.1221  0.1121 -0.0495
 8447W        W12647   6.709   7.953   0.472 -0.0378 -0.0662  0.1858
 8448W        W12648   1.971   5.151   3.166  0.0645 -0.0113 -0.0757
 8449W        W12649   0.435   9.405   2.355  0.1724  0.1429 -0.0238
 8450W        W12650   2.093   6.877   1.490  0.0841  0.0331 -0.0658
 8451W        W12651   2.348   1.180   9.011  0.1178  0.3271 -0.0229
 8452W        W12652   1.537   6.161   3.478 -0.0404  0.3823 -0.1894
 8453W        W12653   0.573   6.454   1.215  0.2238 -0.2024 -0.1164
 8454W        W12654   7.224   7.301  11.115  0.2184  0.1577  0.1124
 8455W        W12655   5.861  10.240  11.392 -0.2434  0.0606 -0.1644
 8456W        W12656   0.504   8.702   2.818  0.1684 -0.0663 -0.2388
 8457W        W12657  10.032   9.389   1.226  0.0813 -0.1591  0.0739
 8458W        W12658   8.225   3.289   9.983  0.1418 -0.1567 -0.1442
 8459W        W12659   1.014   7.565   7.916  0.0119  0.2005 -0.1294
 8460W        W12660   8.978   1.726  11.317  0.0572 -0.1140 -0.1421
 8461W        W12661   5.644   0.322  10.987 -0.0342  0.0477 -0.1889
 8462W        W12662   0.202   6.612   0.842  0.1044 -0.0672 -0.1562
 8463W        W12663   9.414   3.542   1.191  0.0454 -0.2832  0.1294
 8464W        W12664   0.010   8.998  12.557  0.0313  0.1232 -0.1754
 8465W        W12665   7.221  10.167  10.874  0.0683  0.0282 -0.0183
 8466W        W12666   8.924   6.633   0.538 -0.0396 -0.2536  0.4208
 8467W        W12667   0.298   4.518   8.648  0.2994  0.0027  0.0926
 8468W        W12668   7.703   9.621   9.749 -0.2908  0.0304  0.1529
 8469W        W12669   6.872   1.098  11.301  0.1245  0.1133  0.4332
 8470W        W12670   0.081   4.333  12.305  0.0589 -0.2045  0.0310
 8471W        W12671  10.379   7.643   1.236 -0.3781  0.0835 -0.0123
 8472W        W12672   0.757   1.279   3.412 -0.1162 -0.1393 -0.1343
 8473W        W12673   6.393   7.869   9.381  0.1477  0.1450  0.0206
 8474W        W12674   3.639   7.575   8.376  0.0441  0.0590  0.0423
 8475W        W12675   7.257   6.787   2.553  0.0849  0.2136 -0.3889
 8476W        W12676   6.547   4.094   1.601  0.0146  0.0315  0.2744
 8477W        W12677  10.423   5.758   8.700  0.0220 -0.0449  0.2510
 8478W        W12678   4.514   8.154   3.016  0.0322  0.0801 -0.0316
 8479W        W12679   2.271   4.365   9.819  0.0629 -0.2579  0.0209
 8480W        W12680   0.767   7.200  11.168  0.1178 -0.3275  0.0525
 8481W        W12681   6.710   4.428   0.275  0.0592  0.1132  0.1338
 8482W        W12682   8.894   9.651  11.742  0.1131 -0.0849 -0.1600
 8483W        W12683   4.852   4.262   1.156 -0.0161 -0.2272 -0.1157
 8484W        W12684   3.963   1.860   9.525 -0.0410 -0.3468  0.1501
 8485W        W12685   9.986   7.717   9.097  0.0759  0.3000 -0.2507
 8486W        W12686   7.201   7.408   3.483  0.2979  0.1875 -0.0699
 8487W        W12687   4.451   0.879   4.418 -0.0561  0.4852  0.0222
 8488W        W12688   2.435   6.988  11.940  0.0990  0.2017 -0.2674
 8489W        W12689   5.011   7.733   1.740  0.2958 -0.1768  0.1489
 8490W        W12690   8.435   9.127   8.279 -0.0188  0.3948 -0.0412
 8491W        W12691   1.633   0.165   9.565  0.3669 -0.2862  0.1222
 8492W        W12692   2.053   5.148   2.151  0.0821 -0.1497  0.1147
 8493W        W12693   4.857   1.230   1.529 -0.3442  0.0756 -0.0171
 8494W        W12694   8.725   6.028   0.212 -0.1071  0.3427  0.1064
 8495W        W12695  10.020   0.965   2.383  0.0828 -0.0415 -0.3903
 8496W        W12696   9.659   4.308  11.000  0.1906 -0.2817 -0.0972
 8497W        W12697   9.807   0.203   0.562  0.5482 -0.1739 -0.0878
 8498W        W12698   8.547   9.811  12.035  0.4995 -0.1733 -0.3140
 8499W        W12699   7.252   3.540   1.070  0.3885  0.1238 -0.0450
 8500W        W12700  10.489   9.723   1.391 -0.1572 -0.1611  0.1984
 8501W        W12701   9.239   4.322   1.262  0.0998  0.4650 -0.0124
 8502W        W12702   6.415   6.050   1.372  0.1134  0.0544  0.0577
 8503W        W12703   1.360   9.169   3.423 -0.0723 -0.1721  0.1094
 8504W        W12704   0.077   9.120  12.059 -0.0799 -0.1779  0.0195
 8505W        W12705   0.913   6.764   9.224 -0.0373 -0.1353 -0.1994
 8506W        W12706   7.945   1.823  10.882  0.0597 -0.2666  0.4847
 8507W        W12707   5.817   0.396  11.674  0.0853  0.3189 -0.1327
 8508W        W12708   8.177   6.385  10.310  0.0740  0.1625 -0.0915
 8509W        W12709   2.031   7.664  12.391  0.3445  0.0985  0.2735
 8510W        W12710   5.690   4.109   3.603  0.1425 -0.2489  0.1213
 8511W        W12711   8.225   1.496   8.543  0.0373 -0.1609  0.0157
 8512W        W12712   0.015   7.082   1.931 -0.2604  0.0415  0.1122
 8513W        W12713   3.869   2.765   0.256 -0.1777  0.1184 -0.0132
 8514W        W12714   6.938   3.456  10.888 -0.2218  0.0620  0.1063
 8515W        W12715   5.577   0.256  12.075  0.0888  0.1071 -0.0188
 8516W        W12716   8.856   2.218   4.102 -0.0172 -0.2018 -0.0662
 8517W        W12717   7.688   1.327   0.485  0.2012  0.0840 -0.1336
 8518W        W12718   7.023   7.518   0.228 -0.1691  0.0700  0.2545
 8519W        W12719   5.763   3.444   4.216  0.0893  0.0891  0.4188
 8520W        W12720   9.320   6.469   2.772 -0.0888 -0.0641 -0.2651
 8521W        W12721   4.594   4.080   9.053  0.1308 -0.1079  0.1364
 8522W        W12722   1.647   6.686   4.325  0.4736  0.1157  0.2343
 8523W        W12723   0.721   5.438   9.539 -0.1948  0.1526 -0.3873
 8524W        W12724   3.842   7.304  11.504  0.0530 -0.2101  0.1473
 8525W        W12725   4.048   9.439   0.660 -0.0749 -0.1675  0.0108
 8526W        W12726   5.521   3.105   3.770 -0.0178  0.1221 -0.2174
 8527W        W12727   7.134   1.679  12.277 -0.1546 -0.0672 -0.0357
 8528W        W12728  10.671   7.651  11.242  0.1437  0.2764 -0.0026
 8529W        W12729   8.383   7.169   4.258 -0.1449 -0.0144  0.1888
 8530W        W12730   6.013   7.459   0.371 -0.1708  0.1379  0.1068
 8531W        W12731   0.001   0.466  12.341  0.4784  0.2310 -0.0467
 8532W        W12732  10.085   6.086  10.612 -0.1224 -0.1819  0.1562
 8533W        W12733   8.495   4.369  10.926 -0.1110 -0.2667  0.0769
 8534W        W12734   0.391   2.403   3.257 -0.0266 -0.1213  0.1765
 8535ION    NA+12735  10.614   1.790   9.342  0.1359 -0.1399  0.3693
 8536ION    NA+12736   9.799   4.873  10.938  0.5068 -0.0675 -0.0270
 8537ION    NA+12737   2.926   7.715  10.993  0.1610 -0.0905  0.2950
 8538ION    NA+12738   7.584   5.129   4.025 -0.1286 -0.1213 -0.0685
 8539ION    NA+12739   2.621   3.062  11.263 -0.0577 -0.2155 -0.2424
 8540ION    NA+12740   3.837   0.028   7.889  0.1147  0.3505  0.0004
 8541ION    NA+12741   2.636   4.367  10.145  0.2479 -0.2536  0.1886
 8542ION    NA+12742   8.094   9.487   7.825 -0.0365 -0.1823 -0.1117
 8543ION    NA+12743   9.994   6.808   4.136  0.0287  0.1575 -0.0739
 8544ION    NA+12744   8.973   1.398   4.152  0.0131 -0.1494 -0.1074
 8545ION    NA+12745   1.303   2.963  11.488  0.0201  0.0850  0.0214
 8546ION    NA+12746   1.942   9.589  10.484  0.0505 -0.1762 -0.1503
 8547ION    NA+12747   9.240   9.479   2.596  0.0235  0.0404  0.3773
 8548ION    NA+12748   4.455   5.158  12.291 -0.0024  0.0917  0.1848
 8549ION    NA+12749   8.237   1.919   4.097 -0.0055  0.2500  0.1724
 8550ION    NA+12750   0.457   0.457   1.199  0.1564  0.2401 -0.0574
 8551ION    NA+12751   7.168   1.219   8.855  0.0232 -0.0493 -0.0093
 8552ION    NA+12752   0.978   9.688   9.582 -0.3860 -0.1415  0.0860
 8553ION    NA+12753   8.700   6.134   1.841  0.0680 -0.0675  0.3139
 8554ION    NA+12754   0.081   9.813   0.275  0.0968  0.0408 -0.0297
 8555ION    NA+12755   7.716   6.578   2.413  0.3411 -0.0013  0.0527
 8556ION    NA+12756   8.770   2.611  11.911 -0.1407  0.1354 -0.0597
 8557ION    NA+12757   0.919   4.945   8.380  0.3577  0.0897 -0.1654
 8558ION    NA+12758   9.060   0.986  12.456  0.1516 -0.1282  0.0190
 8559ION    NA+12759   8.083   7.764   1.704 -0.3399  0.1687  0.1185
 8560ION    NA+12760   4.185   4.941   0.619  0.0619  0.0062 -0.0541
 8561ION    NA+12761   9.549   2.972   1.826 -0.2231  0.1443 -0.0887
 8562ION    NA+12762   1.102   5.333   8.098 -0.0505  0.0658  0.0574
 8563ION    NA+12763   9.607   2.513  10.217  0.0024 -0.1926 -0.1588
 8564ION    NA+12764   4.451   1.514  10.309 -0.1930  0.0275  0.1280
 8565ION    NA+12765   6.186   5.641  12.812  0.1060  0.2646 -0.0957
 8566ION    NA+12766   5.512   2.805  10.686 -0.1743  0.1901  0.1513
 8567ION    NA+12767   5.761   7.946  12.409  0.0307  0.1936 -0.3261
 8568ION    NA+12768   6.667   1.955  10.579 -0.1505 -0.1459  0.0772
 8569ION    NA+12769   4.850   3.585  10.456 -0.0169  0.1974  0.1485
 8570ION    NA+12770   4.461   8.181  11.873  0.1205  0.2508  0.1017
 8571ION    NA+12771   4.679  10.174   9.372 -0.1177 -0.0239 -0.1319
 8572ION    NA+12772   8.654   7.685   2.599  0.2389  0.1269  0.0061
 8573ION    NA+12773   2.929   9.088   0.056 -0.0920  0.1460 -0.2404
 8574ION    NA+12774   1.558   9.497   4.198 -0.2654  0.2050  0.0077
 8575ION    NA+12775   1.321   9.720   0.293  0.0931 -0.5693  0.3856
 8576ION    NA+12776   2.668   3.065  10.203 -0.3335 -0.0478  0.2199
 8577ION    NA+12777   0.882   9.297  11.434 -0.0577  0.1836  0.2927
 8578ION    NA+12778   7.483   6.555  12.377 -0.0164 -0.0646 -0.1720
 8579ION    NA+12779   5.404   2.528   4.466 -0.3661 -0.0798  0.2562
 8580ION    NA+12780   4.497   5.109   8.323 -0.0493 -0.1916 -0.0617
 8581ION    NA+12781   2.692   3.102   3.225  0.2066 -0.0806  0.0476
 8582ION    NA+12782   7.619   8.273   2.575  0.1859  0.1437 -0.1263
 8583ION    NA+12783   7.105   8.233  12.444  0.0651  0.0705  0.0141
 8584ION    NA+12784   2.989   7.150  10.356 -0.1492  0.6380 -0.4918
 8585ION    NA+12785   0.047  10.386   9.562  0.1362 -0.1385 -0.1309
 8586ION    NA+12786   4.073   2.324  10.025  0.2546  0.3076  0.1302
 8587ION    NA+12787   6.880   6.100   7.582  0.2434  0.0555  0.0658
 8588ION    NA+12788   8.180   2.969  10.385  0.5024  0.3765 -0.0876
 8589ION    NA+12789   8.189   3.201   0.138  0.1010 -0.2631 -0.1589
 8590ION    NA+12790   0.453   0.484  10.069  0.1807 -0.1982  0.2019
 8591ION    NA+12791   6.989   8.909   0.499 -0.0372  0.3177  0.0764
 8592ION    NA+12792   5.366   5.052   0.251  0.2968  0.1078  0.0995
 8593ION    NA+12793   1.280   3.968   2.018  0.1254  0.0923 -0.3249
 8594ION    NA+12794   0.411   0.758   3.508  0.2005  0.2166 -0.1357
 8595ION    NA+12795   1.323   7.397   4.741  0.3435 -0.2126  0.2331
 8596ION    NA+12796   6.081   8.793  12.109 -0.2339 -0.1075 -0.0663
 8597ION    NA+12797   9.501   3.256  12.401 -0.0660  0.0458  0.0265
 8598ION    NA+12798   1.148   0.888   8.436 -0.3154 -0.1325  0.0329
 8599ION    NA+12799   3.371   3.111  12.330  0.1831 -0.0364 -0.2135
 8600ION    NA+12800   0.195   6.171  10.669 -0.0665 -0.0076 -0.2438
 8601ION    NA+12801   3.018   1.442   8.322 -0.0880  0.0201  0.3139
 8602ION    NA+12802   5.966   9.693   0.823  0.0806  0.1831 -0.1577
 8603ION    NA+12803   2.451   1.403   0.800 -0.2664  0.4783 -0.1731
 8604ION    NA+12804   6.708   7.175   7.835  0.0263 -0.1420  0.2302
 8605ION    NA+12805   4.180   7.740   9.029  0.0636  0.0551 -0.2139
 8606ION    NA+12806   0.161   5.709  11.778  0.0954 -0.5344 -0.0462
 8607ION    NA+12807   4.455   7.066   4.841 -0.1257 -0.0388 -0.1739
 8608ION    NA+12808   3.005  10.393   2.732 -0.0046  0.1911 -0.0892
 8609ION    NA+12809   2.642   5.561   2.166  0.1279 -0.2444  0.0686
 8610ION    NA+12810   8.368   0.228  11.107  0.1608 -0.1100  0.2571
 8611ION    NA+12811   8.122   0.643  12.453 -0.1894  0.0830 -0.0635
 8612ION    NA+12812   9.026   0.950  10.921 -0.2519  0.2551 -0.1519
 8613ION    NA+12813   9.964  10.271  10.993 -0.0969  0.0024  0.0684
 8614ION    NA+12814   9.948   8.178   3.914 -0.3812 -0.3042  0.2574
 8615ION    NA+12815   6.835  10.488   0.467 -0.0454 -0.3839  0.0817
 8616ION    NA+12816   2.326   2.466   2.757 -0.2914  0.1120 -0.1790
 8617ION    NA+12817   8.929   7.231   8.939 -0.0379  0.0566  0.1526
 8618ION    NA+12818   0.000   0.795   1.175 -0.0347 -0.0890 -0.1165
 8619ION    NA+12819  10.610   1.312  10.226  0.1658 -0.3572  0.2902
 8620ION    NA+12820  10.117   6.540   2.185  0.2835 -0.1655  0.1229
 8621ION    NA+12821   7.755   0.494   2.069  0.2518 -0.0595 -0.3164
 8622ION    NA+12822   6.010   5.350   1.867  0.1603  0.1073 -0.0660
 8623ION    NA+12823   2.500   1.529   9.751 -0.2427 -0.1979  0.1056
 8624ION    NA+12824   5.580   7.605   4.628 -0.1590 -0.1245  0.0863
 8625ION    CL-12825   8.462   6.468   2.200  0.3685  0.2785 -0.0600
 8626ION    CL-12826   1.344   3.528   9.239 -0.0671 -0.3750 -0.1606
 8627ION    CL-12827   2.335   2.846  10.573  0.4412  0.2818 -0.2135
 8628ION    CL-12828   0.766   9.051  12.747  0.3542 -0.2571 -0.2335
 8629ION    CL-12829   6.993   8.545   0.022 -0.2334 -0.1727 -0.2049
 8630ION    CL-12830   8.441   0.979   2.420 -0.3872  0.2060 -0.0315
 8631ION    CL-12831   6.316   9.242   1.728  0.1324  0.1277 -0.0856
 8632ION    CL-12832   8.215   9.736   8.771  0.0936  0.1408  0.1965
 8633ION    CL-12833   0.506   6.267   3.538  0.1740  0.2127 -0.1416
 8634ION    CL-12834   7.554   0.051   1.903  0.1377  0.0612 -0.1552
 8635ION    CL-12835   1.265   3.119  11.031 -0.1928  0.0176 -0.2073
 8636ION    CL-12836   4.634   3.129  10.335  0.0577 -0.0486  0.1586
 8637ION    CL-12837   6.255   5.184   0.094  0.1588 -0.0227 -0.1016
 8638ION    CL-12838  10.394   3.734   3.065  0.2098  0.2268  0.0411
 8639ION    CL-12839   3.984  10.484   9.029  0.0453 -0.0073 -0.0989
 8640ION    CL-12840   1.585   5.816   3.901  0.0329 -0.0521  0.1237
 8641ION    CL-12841   7.203   1.654  10.438 -0.4061 -0.0114  0.1797
 8642ION    CL-12842   1.320   5.601   8.873 -0.2141  0.2352 -0.0601
 8643ION    CL-12843   8.607   6.907   8.648 -0.0600 -0.0319  0.0063
 8644ION    CL-12844   1.483   9.606   9.325  0.1300  0.0086  0.0774
 8645ION    CL-12845   9.738   5.301  11.205  0.3338  0.1150  0.1070
 8646ION    CL-12846   9.305   9.244  10.261  0.3492 -0.0939  0.0621
 8647ION    CL-12847  10.069   9.774  11.154 -0.1434 -0.1376  0.4068
 8648ION    CL-12848   8.661   0.730  12.598  0.0634  0.1803  0.2967
 8649ION    CL-12849   5.919  10.009   9.033  0.1107 -0.1038  0.2193
 8650ION    CL-12850   4.559   8.077  11.294  0.1000  0.3213  0.0227
 8651ION    CL-12851   6.363   0.747  10.631 -0.3784 -0.2175  0.1707
 8652ION    CL-12852   0.005  10.204   9.057 -0.4490 -0.0402 -0.0550
 8653ION    CL-12853  10.722   0.326   0.892 -0.1257 -0.0930  0.0817
 8654ION    CL-12854   5.629   4.949   9.001 -0.0732  0.1851  0.1349
 8655ION    CL-12855   1.793   3.952   1.769  0.3455  0.1228  0.1078
 8656ION    CL-12856   7.039   9.483   2.792 -0.2070 -0.1363 -0.4236
 8657ION    CL-12857   8.544  10.467  11.422  0.0136 -0.2885 -0.0446
 8658ION    CL-12858   0.393   8.778   8.738  0.1938  0.0014  0.1348
 8659ION    CL-12859   3.351   8.597  11.103 -0.3048 -0.0681  0.0254
 8660ION    CL-12860   1.334   3.325   3.404  0.4652  0.6440  0.0696
 8661ION    CL-12861   2.647   3.015   8.926 -0.1204 -0.0471  0.0534
 8662ION    CL-12862   6.069   7.429  12.048  0.1314 -0.2487 -0.2572
 8663ION    CL-12863   0.524   0.636  10.509  0.0216  0.4218  0.0457
 8664ION    CL-12864   6.034   9.272  12.356  0.0198  0.1229  0.0092
 8665ION    CL-12865   6.891   1.540   9.185  0.2624  0.1598  0.3790
 8666ION    CL-12866  10.489   0.953   9.764 -0.0185  0.1369  0.1609
 8667ION    CL-12867  10.697   0.533   3.523  0.1202 -0.2070 -0.1306
 8668ION    CL-12868   1.680  10.240   8.247 -0.1516  0.0351  0.1117
 8669ION    CL-12869   5.604   3.671  11.416 -0.1711 -0.0814  0.1027
 8670ION    CL-12870   5.269   0.025   9.420  0.0245  0.1008 -0.0711
 8671ION    CL-12871  10.075   9.533   9.185 -0.1134  0.0490 -0.0561
 8672ION    CL-12872   2.829   3.096  12.406  0.1022  0.1417 -0.2329
 8673ION    CL-12873   5.789   2.605   3.562  0.1575 -0.0238 -0.1689
 8674ION    CL-12874   9.415   8.138   2.982  0.2903 -0.2310  0.3845
 8675ION    CL-12875   6.547   6.351   8.504 -0.2790  0.1464  0.4499
 8676ION    CL-12876   8.738   7.359   2.969 -0.0014  0.1646  0.1118
 8677ION    CL-12877   3.327   4.929   0.828 -0.0570  0.0616  0.1304
 8678ION    CL-12878   7.595   0.314   1.078 -0.1014  0.0559  0.0930
 8679ION    CL-12879   5.947   8.456  12.431  0.0071  0.0308 -0.0925
 8680ION    CL-12880   2.916   2.252   3.352  0.0976  0.0345 -0.1921
 8681ION    CL-12881   1.360   3.659   0.712 -0.0460 -0.2276 -0.1035
 8682ION    CL-12882   7.985   1.501   3.202 -0.2882  0.1085  0.0488
 8683ION    CL-12883   3.549  10.416   8.179  0.1096  0.2020 -0.1214
 8684ION    CL-12884   4.233   5.579   1.780 -0.0092  0.0682  0.1654
 8685ION    CL-12885   5.017   4.444   9.309  0.2588 -0.3553  0.0848
 8686ION    CL-12886   0.236  10.196   2.688  0.1985  0.0129 -0.2147
 8687ION    CL-12887   5.109  10.350   9.129 -0.0337 -0.2074  0.0727
 8688ION    CL-12888   3.066   5.631   3.330  0.2455  0.0065 -0.0939
 8689ION    CL-12889   0.151   1.862   9.757  0.0043 -0.1812 -0.0310
 8690ION    CL-12890   0.005   4.959   8.925 -0.0248 -0.0989  0.0707
 8691ION    CL-12891   6.064   7.979   3.543  0.0238 -0.0419 -0.3829
 8692ION    CL-12892   4.206   1.921  10.253 -0.0249 -0.4228 -0.2316
 8693ION    CL-12893   2.207   3.077  11.534 -0.0601 -0.0404  0.0889
 8694ION    CL-12894   0.670   0.433   9.611 -0.0181  0.0828 -0.1310
 8695ION    CL-12895   7.067   5.460  12.264 -0.0426  0.1621  0.0119
 8696ION    CL-12896   4.183   8.250   8.888 -0.1929  0.1187 -0.3033
 8697ION    CL-12897   7.967   1.109   4.023 -0.0171 -0.2404 -0.3644
 8698ION    CL-12898   3.061   8.772   0.408 -0.0991  0.1623 -0.2368
 8699ION    CL-12899   2.833   1.066   9.073  0.2379 -0.0066 -0.2847
 8700ION    CL-12900  10.650   0.857   9.291  0.0866 -0.1047 -0.2410
 8701ION    CL-12901  10.227   7.051   1.959 -0.1545 -0.0021  0.2235
 8702ION    CL-12902   6.245   1.873  10.949 -0.1728 -0.3776 -0.2843
 8703ION    CL-12903   7.573   2.844   3.330  0.0172  0.0660 -0.1352
 8704ION    CL-12904   8.599   0.684  11.237 -0.1870  0.2190 -0.1113
 8705ION    CL-12905  10.079   3.348   1.669  0.2281 -0.0693 -0.1954
 8706ION    CL-12906   8.359   2.604  10.753 -0.1447 -0.0484  0.1209
 8707ION    CL-12907   0.532   9.735  11.135  0.0028 -0.0607 -0.1730
 8708ION    CL-12908   0.563   3.739   9.729 -0.0332  0.2877 -0.1522
 8709ION    CL-12909  10.018   7.014   8.165 -0.0824 -0.0030  0.0099
 8710ION    CL-12910   2.698   7.472  10.560 -0.1931 -0.1038  0.1031
 8711ION    CL-12911   4.792   5.558  12.369 -0.2497  0.2101  0.0686
 8712ION    CL-12912   0.724   7.987   3.611 -0.0984 -0.2686  0.1527
 8713ION    CL-12913   1.297   0.760  12.540 -0.0257 -0.1540 -0.2112
 8714ION    CL-12914   8.701   2.707  12.374  0.4339  0.0925  0.3096
  10.73287  10.73287  12.82487
