Protein in INSANE! Membrane UpperLeaflet>POPC=1.0 LowerLeaflet>POPC=1.0
12914
    1AU     AUC    1   7.928   9.327   6.865 -0.0379 -0.0751  0.0350
    1AU     AUC    2   8.189   9.305   6.644 -0.0283  0.0252  0.0014
    1AU     AUC    3   7.967   9.551   6.633 -0.0570  0.0502 -0.0566
    1AU     AUC    4   7.829   9.145   7.096 -0.0640  0.0155  0.0827
    1AU     AUC    5   7.606   9.378   6.973 -0.0906 -0.0184 -0.0055
    1AU     AUC    6   7.654   9.117   6.794 -0.0757  0.0411  0.0433
    1AU     AUC    7   7.882   9.240   6.535 -0.1102  0.0388 -0.0108
    1AU     AUC    8   7.928   9.437   7.150  0.0015  0.0236 -0.0234
    1AU     AUC    9   8.154   9.557   6.897  0.0290  0.0612  0.0504
    1AU     AUC   10   7.838   9.654   6.914  0.0378  0.0386  0.0899
    1AU     AUC   11   7.658   9.439   6.682  0.0385 -0.0287 -0.0032
    1AU     AUC   12   8.172   9.238   7.005 -0.0945  0.0131  0.0035
    1AU     AUC   13   8.044   9.049   6.780  0.0111  0.0605  0.0724
    1AU     AUC   14   8.468   9.280   6.436 -0.1102  0.0036 -0.0381
    1AU     AUC   15   8.277   9.544   6.409  0.0274  0.0665 -0.0290
    1AU     AUC   16   8.033   9.809   6.400  0.0035 -0.1008  0.0277
    1AU     AUC   17   7.764   8.926   7.362  0.0523 -0.0030  0.0234
    1AU     AUC   18   7.510   9.148   7.270  0.0785 -0.0153  0.0429
    1AU     AUC   19   7.322   9.414   7.142  0.0844 -0.0603  0.0168
    1AU     AUC   20   7.435   8.881   6.745  0.1234 -0.0050  0.0321
    1AU     AUC   21   7.639   8.947   6.445  0.0127  0.0406  0.0553
    1AU     AUC   22   7.836   9.102   6.227 -0.0021 -0.0417 -0.0516
    1AU     AUC   23   7.974   9.570   7.463 -0.0583  0.0818  0.0156
    1AU     AUC   24   8.207   9.675   7.235  0.1213 -0.0829 -0.1048
    1AU     AUC   25   8.419   9.801   6.953  0.0310  0.0083  0.0414
    1AU     AUC   26   7.715   9.986   6.964  0.1015  0.0698  0.0014
    1AU     AUC   27   7.533   9.797   6.730 -0.1198  0.1053  0.0423
    1AU     AUC   28   7.397   9.547   6.482  0.0796  0.0216  0.0544
    1AU     AUC   29   8.463   9.140   7.168  0.0427  0.0155 -0.0530
    1AU     AUC   30   8.310   8.894   6.954 -0.0582  0.0503  0.0145
    1AU     AUC   31   8.109   8.714   6.765  0.1196 -0.0931  0.0182
    1AU     AUC   32   7.879   9.918   6.667 -0.0192 -0.0217  0.0662
    1AU     AUC   33   7.695   9.713   6.420  0.0094 -0.1181  0.0157
    1AU     AUC   34   8.508   9.183   6.787  0.0741  0.0346 -0.0516
    1AU     AUC   35   8.291   8.983   6.562  0.0502 -0.0543  0.0610
    1AU     AUC   36   7.504   9.709   7.040 -0.0621  0.0520  0.0357
    1AU     AUC   37   7.317   9.490   6.786  0.0622 -0.0645 -0.0157
    1AU     AUC   38   8.118   9.015   7.279  0.0411 -0.0838 -0.0163
    1AU     AUC   39   7.972   8.816   7.101  0.0002  0.0287 -0.0028
    1AU     AUC   40   8.168   9.199   6.274 -0.0997 -0.0197 -0.0239
    1AU     AUC   41   7.934   9.479   6.280  0.0679  0.0702  0.0104
    1AU     AUC   42   7.562   8.900   7.062  0.0510  0.0687  0.0159
    1AU     AUC   43   7.315   9.147   6.965 -0.0558  0.0910 -0.0132
    1AU     AUC   44   8.472   9.541   6.703  0.0059 -0.0065 -0.0596
    1AU     AUC   45   8.244   9.818   6.697  0.1119  0.0102 -0.0321
    1AU     AUC   46   7.825   9.260   7.458  0.0188  0.0615 -0.0156
    1AU     AUC   47   7.641   9.500   7.297 -0.0543  0.0441 -0.0047
    1AU     AUC   48   7.381   9.178   6.585  0.0917 -0.0727 -0.0466
    1AU     AUC   49   7.589   9.313   6.333  0.0281  0.0346 -0.0051
    1AU     AUC   50   7.853   9.760   7.218  0.0778  0.0152  0.0262
    1AU     AUC   51   8.074   9.881   7.013 -0.0004  0.0769 -0.0014
    1AU     AUC   52   7.782   8.816   6.769  0.0676 -0.0504 -0.1535
    1AU     AUC   53   7.993   8.897   6.482  0.0244  0.0287  0.0737
    1AU     AUC   54   8.222   9.346   7.359  0.0038  0.0792  0.0506
    1AU     AUC   55   8.472   9.460   7.046 -0.0428 -0.0154 -0.0717
    1AU    AUSL   56   7.820  10.112   6.373 -0.0734 -0.0305 -0.0024
    1AU    AUSL   57   7.934  10.226   6.835  0.0182 -0.0396  0.0692
    1AU     AUL   58   7.984  10.400   6.471  0.0836  0.0169  0.1044
    1AU       S   59   8.258  10.506   6.833 -0.1927  0.1164  0.0627
    1AU     LIG   60   7.942  10.808   6.830 -0.0729  0.1035  0.2706
    1AU     LIG   61   7.525  10.963   6.772  0.1163 -0.2675  0.0231
    1AU     LIG   62   7.283  11.251   6.560  0.4318 -0.0598  0.0228
    1AU     LIG   63   7.038  11.473   6.278  0.1327 -0.1053 -0.2419
    1AU     LIG   64   7.022  11.606   5.797  0.3061  0.0389  0.2071
    1AU       S   65   7.537  10.546   6.412 -0.3511  0.5393 -0.1822
    1AU     LIG   66   7.156  10.792   6.427  0.1855  0.2170 -0.1133
    1AU     LIG   67   6.745  10.574   6.609  0.0831 -0.1649  0.0930
    1AU     LIG   68   6.382  10.578   6.667  0.2302  0.0624  0.4011
    1AU     LIG   69   6.260  10.988   6.856  0.8022  0.1119  0.1751
    1AU     LIG   70   6.048  11.226   7.108 -0.1633 -0.0024 -0.1341
    1AU    AUSL   71   7.522  10.174   6.703  0.0802 -0.0151 -0.0347
    1AU    AUSL   72   7.158   9.889   6.655  0.0098 -0.0053  0.0132
    1AU     AUL   73   7.180  10.256   6.488 -0.0342 -0.0414 -0.0902
    1AU       S   74   7.525  10.442   6.800  0.2074  0.3465  0.0743
    1AU     LIG   75   7.566  10.684   7.203 -0.1477  0.0921 -0.2172
    1AU     LIG   76   7.235  10.886   7.500  0.0248  0.0355 -0.0802
    1AU     LIG   77   6.919  11.306   7.451  0.0029  0.0975  0.2954
    1AU     LIG   78   6.927  11.768   7.347  0.4678 -0.3800 -0.0574
    1AU     LIG   79   6.841  12.214   7.380  0.2860  0.2387 -0.1348
    1AU       S   80   7.050  10.151   6.888  0.2837  0.3307 -0.5422
    1AU     LIG   81   6.644  10.089   6.513  0.2143 -0.0483  0.0293
    1AU     LIG   82   6.243   9.997   6.381  0.3125 -0.0829 -0.1749
    1AU     LIG   83   6.071   9.903   5.991 -0.2484 -0.5224 -0.1166
    1AU     LIG   84   6.231   9.927   5.522  0.0440 -0.0854  0.0644
    1AU     LIG   85   6.365   9.677   5.223  0.1063 -0.1193  0.1125
    1AU    AUSL   86   7.517   9.816   6.447 -0.0109 -0.0115  0.0314
    1AU    AUSL   87   7.751   9.829   6.043  0.0334 -0.0708  0.0006
    1AU     AUL   88   7.496  10.093   6.190 -0.0626  0.0139 -0.0120
    1AU       S   89   7.023   9.929   6.231 -0.1133  0.1986  0.2807
    1AU     LIG   90   6.845  10.358   6.165  0.2373 -0.1254  0.1711
    1AU     LIG   91   6.396  10.506   6.199 -0.0361  0.0143 -0.0696
    1AU     LIG   92   6.321  10.986   6.255  0.5044 -0.0576  0.0775
    1AU     LIG   93   5.953  11.203   6.410 -0.0158  0.4027 -0.2163
    1AU     LIG   94   5.741  11.522   6.266 -0.1614 -0.2961  0.1536
    1AU       S   95   7.621   9.924   5.779  0.1148  0.1233 -0.2320
    1AU     LIG   96   7.629  10.287   5.774 -0.1059  0.1164  0.1184
    1AU     LIG   97   7.766  10.651   6.012 -0.0349  0.0555  0.2770
    1AU     LIG   98   7.779  10.956   6.299  0.0008 -0.3580 -0.0281
    1AU     LIG   99   7.783  11.309   6.410  0.1655  0.0867  0.1020
    1AU     LIG  100   7.955  11.705   6.363  0.2338  0.2951 -0.1014
    1AU    AUSL  101   8.560   9.002   6.563  0.0664 -0.0039 -0.0305
    1AU    AUSL  102   8.291   8.686   6.373  0.0370 -0.0805  0.0971
    1AU     AUL  103   8.660   8.689   6.310  0.0791  0.0237 -0.0580
    1AU       S  104   8.792   8.473   6.668  0.0918  0.5388  0.3123
    1AU     LIG  105   8.905   8.145   6.997  0.0346 -0.1717 -0.1025
    1AU     LIG  106   8.988   7.790   7.131  0.1650 -0.0513 -0.1679
    1AU     LIG  107   9.107   7.326   6.971 -0.0817 -0.4908  0.0504
    1AU     LIG  108   9.170   6.934   6.901  0.0635  0.2564  0.6048
    1AU     LIG  109   9.124   6.599   7.112 -0.0278  0.0762  0.0076
    1AU       S  110   8.403   8.563   5.979 -0.3404 -0.2755  0.2619
    1AU     LIG  111   8.255   8.210   5.777  0.1262  0.2885 -0.1288
    1AU     LIG  112   7.866   7.981   5.920  0.6353  0.2209 -0.1866
    1AU     LIG  113   7.794   7.594   6.086  0.2477 -0.1584 -0.2584
    1AU     LIG  114   7.832   7.154   6.280  0.2071  0.2489 -0.1734
    1AU     LIG  115   7.865   6.684   6.306  0.0302  0.2541 -0.0655
    1AU    AUSL  116   8.772   8.874   6.926  0.0893  0.0074 -0.0475
    1AU    AUSL  117   8.860   9.309   6.580  0.0373 -0.0370  0.0520
    1AU     AUL  118   8.911   8.994   6.580 -0.0466 -0.1101  0.0720
    1AU       S  119   9.200   9.339   6.747 -0.3607  0.3077  0.1173
    1AU     LIG  120   9.447   9.104   6.430 -0.4697 -0.0005  0.0763
    1AU     LIG  121   9.577   9.253   6.014 -0.0940  0.0680 -0.0545
    1AU     LIG  122   9.481   9.467   5.748 -0.0960 -0.0742 -0.0660
    1AU     LIG  123   9.339   9.857   5.683  0.3086  0.0964  0.1109
    1AU     LIG  124   9.029  10.128   5.721 -0.2729  0.1220  0.3466
    1AU       S  125   8.915   8.577   6.723 -0.0003  0.3140  0.0217
    1AU     LIG  126   9.329   8.700   6.795 -0.1914  0.1471  0.1042
    1AU     LIG  127   9.831   8.763   6.709  0.0663 -0.2951 -0.0468
    1AU     LIG  128  10.231   8.610   6.761  0.3866 -0.2446 -0.1158
    1AU     LIG  129  10.599   8.437   6.943 -0.1142  0.0213  0.0895
    1AU     LIG  130  10.889   8.797   6.982  0.1732 -0.0066 -0.0850
    1AU    AUSL  131   8.387   8.700   6.789  0.0416 -0.0067  0.0711
    1AU    AUSL  132   8.476   8.805   7.219  0.1033 -0.0315  0.0807
    1AU     AUL  133   8.668   8.598   7.081 -0.0247  0.0459  0.0331
    1AU       S  134   8.499   8.394   7.451 -0.0476 -0.0562 -0.3036
    1AU     LIG  135   8.863   8.290   7.476  0.3687 -0.2408  0.0928
    1AU     LIG  136   9.133   8.439   7.275 -0.1152 -0.1835  0.1955
    1AU     LIG  137   9.458   8.746   7.292  0.3029 -0.0006  0.1180
    1AU     LIG  138   9.935   8.779   7.282 -0.1230 -0.1066 -0.0558
    1AU     LIG  139  10.296   8.913   7.267 -0.3287 -0.0575  0.1078
    1AU       S  140   8.543   8.388   6.710  0.0838  0.1630  0.0487
    1AU     LIG  141   8.753   7.964   6.565  0.0581 -0.2282  0.1036
    1AU     LIG  142   8.636   7.659   6.290  0.0593 -0.3616  0.1144
    1AU     LIG  143   8.269   7.322   6.382 -0.3423 -0.1584  0.0642
    1AU     LIG  144   8.100   7.037   6.727 -0.1632 -0.3486  0.0542
    1AU     LIG  145   7.983   6.926   7.224  0.4454 -0.1319 -0.0817
    1AU    AUSL  146   7.051   9.683   7.017  0.0696  0.0118 -0.0265
    1AU    AUSL  147   7.098   9.473   6.594 -0.0563  0.1162 -0.0281
    1AU     AUL  148   6.853   9.724   6.673 -0.0483 -0.0382 -0.0045
    1AU       S  149   6.873  10.090   6.997 -0.1165 -0.0605 -0.0678
    1AU     LIG  150   6.645  10.517   7.076  0.0144 -0.4147 -0.0768
    1AU     LIG  151   6.649  10.953   7.097  0.1079  0.0629 -0.1936
    1AU     LIG  152   6.610  11.334   7.049 -0.1158  0.1495  0.0307
    1AU     LIG  153   6.426  11.734   7.152  0.0242  0.1090 -0.2155
    1AU     LIG  154   6.355  12.224   7.250  0.0002 -0.0595  0.3917
    1AU       S  155   6.691   9.284   6.675 -0.0972  0.3735  0.2324
    1AU     LIG  156   6.204   9.402   6.707 -0.3628 -0.4227 -0.2047
    1AU     LIG  157   5.962   9.383   7.072 -0.2797 -0.1799 -0.2092
    1AU     LIG  158   5.592   9.229   7.064 -0.0957  0.0575 -0.0732
    1AU     LIG  159   5.217   9.005   7.217  0.0118  0.0771  0.1546
    1AU     LIG  160   4.822   8.914   6.920 -0.0758  0.2119  0.6821
    1AU    AUSL  161   7.437   9.857   6.981 -0.0760 -0.0444  0.0483
    1AU    AUSL  162   7.283   9.778   7.388 -0.0257  0.0279  0.0322
    1AU     AUL  163   7.054   9.774   7.275 -0.0529 -0.0020  0.0093
    1AU       S  164   7.190  10.090   7.572 -0.0789 -0.1486 -0.1151
    1AU     LIG  165   6.694  10.102   7.441 -0.4538 -0.3103  0.0247
    1AU     LIG  166   6.306  10.283   7.425  0.0178  0.0612  0.0076
    1AU     LIG  167   5.876  10.144   7.436 -0.1371 -0.1060 -0.4077
    1AU     LIG  168   5.517  10.488   7.379 -0.0513 -0.0166  0.2042
    1AU     LIG  169   5.161  10.545   7.009 -0.0171 -0.2388 -0.5255
    1AU       S  170   7.150  10.170   7.049 -0.1110 -0.1286  0.1832
    1AU     LIG  171   7.109  10.643   6.972  0.4263 -0.1481  0.2203
    1AU     LIG  172   7.139  11.139   7.024 -0.2207  0.2724  0.2606
    1AU     LIG  173   7.001  11.563   6.786  0.2710  0.1466  0.3933
    1AU     LIG  174   7.129  12.008   6.946 -0.2499 -0.0522  0.4758
    1AU     LIG  175   7.517  12.220   6.992 -0.2516  0.0512 -0.3708
    1AU    AUSL  176   8.115   8.718   7.415 -0.0624  0.0194  0.0347
    1AU    AUSL  177   8.300   9.108   7.488 -0.0335 -0.0159 -0.0878
    1AU     AUL  178   8.549   8.844   7.534 -0.0012  0.0347  0.0172
    1AU       S  179   8.340   8.460   7.574  0.1212  0.6086 -0.3512
    1AU     LIG  180   8.494   8.505   7.955 -0.1288 -0.2955  0.0980
    1AU     LIG  181   8.392   8.615   8.301  0.5158 -0.2587 -0.1815
    1AU     LIG  182   8.373   9.022   8.416 -0.2307 -0.0113  0.3282
    1AU     LIG  183   8.843   9.243   8.468  0.1138  0.3286  0.2821
    1AU     LIG  184   9.299   9.456   8.384 -0.1794 -0.3818 -0.0001
    1AU       S  185   8.250   8.925   7.878  0.2026 -0.2818 -0.0839
    1AU     LIG  186   8.649   8.971   8.027 -0.0290  0.0930  0.3674
    1AU     LIG  187   9.028   9.040   8.033 -0.0551 -0.2807 -0.6162
    1AU     LIG  188   9.489   9.072   7.978 -0.0509 -0.0461  0.1452
    1AU     LIG  189   9.780   9.181   7.684  0.1751  0.3429  0.1595
    1AU     LIG  190   9.990   9.328   7.415 -0.2157  0.2335 -0.1872
    1AU    AUSL  191   8.215   8.451   7.079  0.0144  0.0976  0.0048
    1AU    AUSL  192   7.731   8.555   7.319 -0.0031 -0.0104  0.0034
    1AU     AUL  193   7.999   8.341   7.298  0.0589  0.0322 -0.0389
    1AU       S  194   7.582   8.248   7.483  0.3904 -0.1989  0.1805
    1AU     LIG  195   7.153   8.084   7.393 -0.1917 -0.0616  0.3525
    1AU     LIG  196   6.949   7.881   7.075 -0.0076  0.0384  0.3431
    1AU     LIG  197   6.680   7.785   6.865  0.0238 -0.0490 -0.2511
    1AU     LIG  198   6.534   7.440   6.615 -0.1983 -0.2526 -0.0484
    1AU     LIG  199   6.523   7.046   6.774 -0.0125  0.1468  0.2265
    1AU       S  200   8.435   8.209   7.219 -0.1397 -0.1478 -0.3613
    1AU     LIG  201   8.442   7.911   6.983  0.1404 -0.0518  0.0151
    1AU     LIG  202   8.529   7.558   6.731 -0.2813  0.6041 -0.1225
    1AU     LIG  203   8.689   7.026   6.694 -0.1395  0.3147 -0.0524
    1AU     LIG  204   8.904   6.592   6.624  0.2499  0.1532 -0.0192
    1AU     LIG  205   9.281   6.431   6.675 -0.2232  0.2425 -0.1770
    1AU    AUSL  206   8.120   9.300   5.938 -0.0395 -0.1762 -0.0444
    1AU    AUSL  207   8.443   9.044   6.159  0.0436 -0.0057 -0.0599
    1AU     AUL  208   8.431   9.168   5.729 -0.0447  0.0577  0.0468
    1AU       S  209   8.403   8.767   5.898 -0.1619 -0.0225  0.3650
    1AU     LIG  210   8.844   8.925   5.924  0.1695 -0.0711 -0.3557
    1AU     LIG  211   9.043   9.233   6.091  0.0269  0.1289 -0.0951
    1AU     LIG  212   9.248   9.593   6.256  0.2324  0.2456 -0.1615
    1AU     LIG  213   9.631   9.712   6.573 -0.1262 -0.0748 -0.0662
    1AU     LIG  214   9.815   9.608   7.020 -0.0015  0.3166  0.0371
    1AU       S  215   8.268   9.632   5.730  0.1389  0.6371  0.0330
    1AU     LIG  216   8.121   9.510   5.297  0.2362  0.0688  0.0827
    1AU     LIG  217   7.991   9.483   4.883  0.0081 -0.1385  0.0947
    1AU     LIG  218   8.336   9.348   4.715 -0.2577 -0.1494 -0.1847
    1AU     LIG  219   8.848   9.197   4.736 -0.5215  0.0742  0.2720
    1AU     LIG  220   9.150   9.118   5.114  0.1289  0.2136  0.3718
    1AU    AUSL  221   8.501   9.450   6.111 -0.0493 -0.0781  0.1204
    1AU    AUSL  222   8.461   9.896   6.270 -0.0004 -0.0069  0.0691
    1AU     AUL  223   8.767   9.728   6.115  0.0016 -0.0448 -0.0476
    1AU       S  224   8.409   9.681   5.811 -0.2197  0.1578  0.0378
    1AU     LIG  225   8.614   9.853   5.447 -0.0646 -0.1835 -0.1330
    1AU     LIG  226   8.788  10.135   5.273 -0.0449 -0.3842  0.0401
    1AU     LIG  227   8.875  10.478   5.483 -0.0209  0.1421  0.1286
    1AU     LIG  228   8.929  10.626   5.953  0.2993  0.1171 -0.3047
    1AU     LIG  229   9.165  10.555   6.411 -0.2959 -0.0936  0.0197
    1AU       S  230   8.815  10.188   6.214  0.1918 -0.1790  0.1535
    1AU     LIG  231   8.530  10.167   5.838 -0.3643 -0.1998 -0.1021
    1AU     LIG  232   8.330  10.457   5.438  0.0374  0.0398 -0.0651
    1AU     LIG  233   8.026  10.352   5.119 -0.1141 -0.0303 -0.1178
    1AU     LIG  234   7.794  10.788   5.012  0.0186  0.1645 -0.3182
    1AU     LIG  235   7.768  11.208   4.904 -0.0714 -0.3650  0.0678
    1AU    AUSL  236   8.116   9.660   6.192  0.0156  0.0192 -0.0656
    1AU    AUSL  237   7.741   9.400   6.119  0.0000 -0.0080 -0.0409
    1AU     AUL  238   7.841   9.514   5.840  0.0234  0.0161  0.0355
    1AU       S  239   7.438   9.715   5.676 -0.0179 -0.1260  0.1772
    1AU     LIG  240   7.286   9.375   5.433 -0.1792 -0.2866  0.1176
    1AU     LIG  241   6.862   9.629   5.391  0.2287  0.1462  0.1741
    1AU     LIG  242   6.764   9.987   5.508  0.1748  0.0908  0.0402
    1AU     LIG  243   6.950  10.345   5.388  0.1142  0.0917  0.2299
    1AU     LIG  244   7.221  10.620   5.473 -0.3157 -0.0486  0.0209
    1AU       S  245   8.187   9.809   5.914 -0.2186  0.4518 -0.1286
    1AU     LIG  246   8.092  10.189   5.985  0.1094  0.2181 -0.5285
    1AU     LIG  247   8.255  10.562   6.010 -0.4548  0.0710 -0.5840
    1AU     LIG  248   8.230  11.003   6.197 -0.1585 -0.1526 -0.1021
    1AU     LIG  249   8.242  11.142   6.545 -0.1552 -0.0704 -0.1773
    1AU     LIG  250   8.081  11.472   6.826  0.1806  0.2523  0.0331
    1AU    AUSL  251   7.199   8.819   6.987 -0.0415 -0.1103  0.0023
    1AU    AUSL  252   7.123   9.268   6.978 -0.0268 -0.0234  0.0743
    1AU     AUL  253   6.846   8.916   7.025 -0.0063  0.0608 -0.0441
    1AU       S  254   6.769   9.348   6.932 -0.2705 -0.0288  0.4904
    1AU     LIG  255   6.477   9.700   6.996 -0.0557 -0.2565 -0.0969
    1AU     LIG  256   6.381  10.126   6.937  0.1139 -0.0407  0.4186
    1AU     LIG  257   6.075  10.489   7.068 -0.1244 -0.3063  0.0164
    1AU     LIG  258   5.766  10.802   6.908  0.0339  0.0363  0.0961
    1AU     LIG  259   5.395  10.957   7.188  0.1131  0.2337 -0.1044
    1AU       S  260   7.081   8.568   6.753  0.0974  0.0379 -0.1550
    1AU     LIG  261   6.880   8.392   7.078  0.3287  0.1859 -0.0401
    1AU     LIG  262   6.622   8.080   7.432  0.0599  0.2043 -0.1340
    1AU     LIG  263   6.621   7.772   7.587 -0.0136  0.4257 -0.0378
    1AU     LIG  264   7.053   7.523   7.462 -0.0420  0.2648  0.4750
    1AU     LIG  265   7.246   7.443   7.810 -0.1660  0.4340 -0.3359
    1AU    AUSL  266   7.489   8.892   7.306  0.0553  0.0358  0.1279
    1AU    AUSL  267   7.490   8.505   6.961 -0.0085  0.0349 -0.0049
    1AU     AUL  268   7.311   8.541   7.243 -0.0476 -0.0571  0.0203
    1AU       S  269   7.630   8.636   7.764  0.0715  0.1035 -0.2231
    1AU     LIG  270   7.185   8.386   7.803  0.3237  0.0323 -0.2307
    1AU     LIG  271   6.815   8.486   7.670  0.3498 -0.3544  0.0935
    1AU     LIG  272   6.699   8.708   7.463 -0.2320 -0.3691  0.0016
    1AU     LIG  273   6.362   8.564   7.140  0.2186  0.0281 -0.0339
    1AU     LIG  274   6.217   8.108   7.144  0.1023  0.2285 -0.1212
    1AU       S  275   7.405   8.137   6.993 -0.1822 -0.0932 -0.2095
    1AU     LIG  276   7.493   7.926   6.718 -0.0909 -0.0386  0.2602
    1AU     LIG  277   7.611   7.579   6.611  0.1847 -0.1257 -0.4280
    1AU     LIG  278   7.579   7.190   6.809 -0.1456 -0.0679 -0.3386
    1AU     LIG  279   7.592   6.799   6.729  0.0066  0.2210 -0.3069
    1AU     LIG  280   7.618   6.395   6.846 -0.2909 -0.1945  0.2237
    1AU    AUSL  281   7.116   9.099   7.360  0.0244 -0.0256  0.0267
    1AU    AUSL  282   7.468   9.068   7.686 -0.0236 -0.0621 -0.0707
    1AU     AUL  283   7.196   8.839   7.609  0.0989 -0.0461  0.0255
    1AU       S  284   7.207   9.243   7.826  0.0927  0.2608 -0.5819
    1AU     LIG  285   6.849   9.041   7.907 -0.1303 -0.4276 -0.3243
    1AU     LIG  286   6.500   9.132   7.705  0.0425  0.1910 -0.2061
    1AU     LIG  287   6.096   9.025   7.547  0.0750 -0.2949 -0.2260
    1AU     LIG  288   5.665   9.020   7.521  0.1833  0.3611 -0.0956
    1AU     LIG  289   5.368   8.796   7.766  0.0849 -0.0873  0.3468
    1AU       S  290   6.877   9.209   7.392  0.2242 -0.1327 -0.1234
    1AU     LIG  291   6.443   9.141   7.212  0.0098 -0.0936 -0.1189
    1AU     LIG  292   6.105   8.916   6.930  0.0114  0.1345 -0.1947
    1AU     LIG  293   6.035   8.534   6.711  0.0392 -0.0553  0.2005
    1AU     LIG  294   5.768   8.134   6.882 -0.2528 -0.3811  0.2146
    1AU     LIG  295   5.369   8.043   6.874  0.2907 -0.0822  0.0440
    1AU    AUSL  296   8.603   9.940   6.687 -0.0420  0.0476 -0.0627
    1AU    AUSL  297   8.179   9.979   6.565  0.0547  0.0382  0.0478
    1AU     AUL  298   8.393  10.163   6.355 -0.0680  0.0617 -0.0872
    1AU       S  299   8.807  10.143   6.626  0.4016 -0.1012 -0.1206
    1AU     LIG  300   9.234   9.977   6.811  0.4040  0.1350  0.1540
    1AU     LIG  301   9.682  10.059   7.124  0.3706 -0.5276  0.1409
    1AU     LIG  302   9.931  10.321   7.293 -0.0508 -0.0964 -0.0784
    1AU     LIG  303  10.194  10.559   7.318 -0.2062  0.0254 -0.1049
    1AU     LIG  304  10.551  10.550   7.576  0.0975 -0.1922 -0.1530
    1AU       S  305   8.407  10.458   6.695  0.1465  0.0944  0.2232
    1AU     LIG  306   8.557  10.586   6.403 -0.0621 -0.0838 -0.2916
    1AU     LIG  307   8.732  10.998   6.242 -0.0465 -0.1217  0.0350
    1AU     LIG  308   9.115  11.363   6.243  0.3501 -0.2411 -0.1075
    1AU     LIG  309   9.362  11.609   6.425 -0.2109 -0.3018 -0.2794
    1AU     LIG  310   9.335  11.941   6.634 -0.2183 -0.0217  0.1359
    1AU    AUSL  311   8.543   9.560   6.520  0.0404 -0.0437 -0.0829
    1AU    AUSL  312   8.842   9.625   6.856  0.0418  0.1056 -0.0675
    1AU     AUL  313   8.886   9.689   6.566  0.0916 -0.0093  0.0329
    1AU       S  314   8.958  10.060   6.382  0.3164 -0.0190 -0.1293
    1AU     LIG  315   9.310  10.114   6.114  0.2262 -0.2447  0.4301
    1AU     LIG  316   9.598  10.330   5.873 -0.1746 -0.0791  0.0394
    1AU     LIG  317   9.957  10.437   6.024 -0.0952  0.0561 -0.1524
    1AU     LIG  318  10.157  10.433   6.389  0.2336 -0.1850  0.0433
    1AU     LIG  319   9.990  10.442   6.818  0.2797  0.0387 -0.1003
    1AU       S  320   9.242   9.432   6.843 -0.0417 -0.0968 -0.2228
    1AU     LIG  321   9.307   9.741   7.244  0.0689  0.2893  0.3477
    1AU     LIG  322   9.236  10.154   7.387  0.3236 -0.0429  0.1330
    1AU     LIG  323   9.491  10.539   7.254  0.0846 -0.3163 -0.3030
    1AU     LIG  324   9.717  10.900   7.487 -0.3318 -0.0876  0.0037
    1AU     LIG  325   9.755  11.285   7.682  0.0253  0.1052  0.0245
    1AU    AUSL  326   7.694   9.438   7.701 -0.0760 -0.0184 -0.0297
    1AU    AUSL  327   7.877   9.021   7.557  0.0121 -0.0404  0.0583
    1AU     AUL  328   7.676   9.147   7.912 -0.0324 -0.0157  0.0543
    1AU       S  329   8.050   8.872   7.885 -0.4029 -0.3269 -0.2144
    1AU     LIG  330   7.973   8.501   8.048  0.0620  0.0941  0.1199
    1AU     LIG  331   8.074   8.093   7.726  0.0978  0.1478 -0.1310
    1AU     LIG  332   8.174   7.913   7.417  0.0475 -0.2190 -0.1588
    1AU     LIG  333   7.966   7.859   7.050 -0.0423 -0.0712 -0.2200
    1AU     LIG  334   8.037   7.826   6.585  0.2432  0.1131 -0.1277
    1AU       S  335   7.307   9.431   7.966 -0.3856  0.4452  0.1236
    1AU     LIG  336   7.164   9.759   8.097 -0.2722 -0.0520 -0.1873
    1AU     LIG  337   6.869  10.008   7.923  0.3445 -0.2380 -0.1582
    1AU     LIG  338   6.596  10.427   7.839  0.1203  0.0597 -0.3172
    1AU     LIG  339   6.188  10.606   7.837 -0.0559  0.0830 -0.0187
    1AU     LIG  340   5.815  10.492   7.801  0.1006  0.1471 -0.0554
    1AU    AUSL  341   7.420   9.382   7.382 -0.0031  0.1018  0.1434
    1AU    AUSL  342   7.710   9.752   7.423  0.0627 -0.0286 -0.0946
    1AU     AUL  343   7.510   9.696   7.678  0.0136 -0.0340  0.0181
    1AU       S  344   7.346  10.130   7.681  0.0785  0.0630  0.1907
    1AU     LIG  345   7.656  10.043   8.027 -0.0976 -0.0069  0.0469
    1AU     LIG  346   8.099  10.116   8.180  0.1048 -0.3658  0.1474
    1AU     LIG  347   8.281  10.375   8.130  0.3553  0.0458  0.4282
    1AU     LIG  348   8.469  10.744   7.759 -0.0156 -0.0956 -0.2810
    1AU     LIG  349   8.572  11.074   7.458  0.2227 -0.0248  0.1790
    1AU       S  350   7.177   9.410   7.757  0.1746  0.4173 -0.5640
    1AU     LIG  351   6.807   9.548   7.790  0.1732  0.2220  0.0667
    1AU     LIG  352   6.541   9.564   7.485 -0.1754 -0.1233 -0.0640
    1AU     LIG  353   6.182   9.790   7.375 -0.1949 -0.0620 -0.3537
    1AU     LIG  354   5.844   9.974   6.988 -0.1939 -0.1732  0.4094
    1AU     LIG  355   5.522   9.718   6.883 -0.2096  0.0588  0.1242
    1AU    AUSL  356   7.340   9.252   6.316  0.0380  0.0462  0.1054
    1AU    AUSL  357   7.111   9.025   6.618  0.0088  0.0370  0.0242
    1AU     AUL  358   7.009   9.324   6.300 -0.0100 -0.0691 -0.0315
    1AU       S  359   6.863   8.981   6.582  0.1743  0.1993  0.2538
    1AU     LIG  360   6.477   8.863   6.554  0.1430 -0.1221  0.0112
    1AU     LIG  361   6.053   8.936   6.367 -0.0096 -0.1816  0.0987
    1AU     LIG  362   5.637   9.060   6.568  0.0571  0.4358 -0.2063
    1AU     LIG  363   5.208   8.918   6.449  0.0315  0.0129  0.3601
    1AU     LIG  364   4.935   8.610   6.148 -0.6149  0.1213  0.1310
    1AU       S  365   7.067   9.023   5.969 -0.1010 -0.0031  0.2992
    1AU     LIG  366   6.663   9.095   6.069  0.3009 -0.0929  0.0852
    1AU     LIG  367   6.427   8.712   6.030 -0.1601 -0.0991 -0.6590
    1AU     LIG  368   6.254   8.462   6.246 -0.2280  0.2785 -0.0789
    1AU     LIG  369   5.960   8.123   6.346 -0.1031 -0.2081  0.0574
    1AU     LIG  370   5.784   7.693   6.118  0.1221 -0.0761  0.2296
    1AU    AUSL  371   7.325   8.812   6.312  0.0680  0.0151  0.0623
    1AU    AUSL  372   7.736   8.647   6.214 -0.0427  0.0267 -0.0661
    1AU     AUL  373   7.446   8.519   6.018  0.0160 -0.0826 -0.0501
    1AU       S  374   7.137   8.853   6.176  0.2534 -0.0291  0.0161
    1AU     LIG  375   6.837   8.551   6.337  0.0628 -0.0333  0.0884
    1AU     LIG  376   6.605   8.342   6.634 -0.0461  0.1334 -0.0613
    1AU     LIG  377   6.230   7.899   6.696 -0.0389  0.1331 -0.0387
    1AU     LIG  378   5.957   7.621   6.709 -0.2645  0.0830 -0.2903
    1AU     LIG  379   5.544   7.597   7.065 -0.2004 -0.0239  0.1629
    1AU       S  380   7.656   8.186   6.319  0.2136 -0.0404  0.2911
    1AU     LIG  381   7.369   7.862   6.233 -0.1286 -0.3711  0.1781
    1AU     LIG  382   7.326   7.381   6.255 -0.0929  0.2659  0.5652
    1AU     LIG  383   7.361   6.936   6.270  0.3015 -0.2137  0.1173
    1AU     LIG  384   7.400   6.496   6.385  0.1543 -0.0745 -0.0577
    1AU     LIG  385   7.436   6.082   6.550 -0.1158 -0.0856 -0.0883
    1AU    AUSL  386   7.594   9.012   6.028  0.0497  0.0477  0.0020
    1AU    AUSL  387   7.362   9.622   6.119  0.0814 -0.0421  0.0022
    1AU     AUL  388   7.453   9.297   5.885 -0.0133  0.0755  0.0098
    1AU       S  389   7.284   9.783   5.805 -0.4174  0.1914 -0.2675
    1AU     LIG  390   7.138  10.093   5.828  0.0100 -0.1353  0.4358
    1AU     LIG  391   7.257  10.545   6.011  0.1104 -0.1197  0.0793
    1AU     LIG  392   7.277  10.925   6.009 -0.0368 -0.0475  0.3117
    1AU     LIG  393   7.485  11.273   5.976 -0.0993 -0.0619  0.0539
    1AU     LIG  394   7.462  11.681   6.162 -0.2275 -0.1101  0.2124
    1AU       S  395   7.241   8.914   5.843 -0.3251 -0.2414 -0.3306
    1AU     LIG  396   6.950   8.509   5.803  0.0634  0.1265  0.2383
    1AU     LIG  397   6.606   8.173   5.936 -0.2095 -0.0965 -0.0145
    1AU     LIG  398   6.544   7.969   6.323  0.4403  0.6918 -0.1777
    1AU     LIG  399   6.242   7.612   6.296  0.2561 -0.0171 -0.0458
    1AU     LIG  400   6.135   7.390   5.949 -0.1035  0.2171 -0.0013
    1AU    AUSL  401   7.964  10.058   7.237  0.0076  0.0172 -0.0667
    1AU    AUSL  402   8.303  10.069   6.974 -0.0267  0.0310  0.0016
    1AU     AUL  403   7.954  10.365   7.107  0.0335 -0.0913 -0.1232
    1AU       S  404   8.180  10.394   7.503  0.0594 -0.1393 -0.2864
    1AU     LIG  405   8.087  10.777   7.400 -0.3812  0.2526 -0.0342
    1AU     LIG  406   7.873  11.131   7.169 -0.1124 -0.1343 -0.1024
    1AU     LIG  407   7.611  11.422   6.943 -0.2274 -0.1937  0.3376
    1AU     LIG  408   7.527  11.816   6.624  0.0844 -0.0881  0.1214
    1AU     LIG  409   7.466  12.246   6.456  0.3864  0.1064  0.0488
    1AU       S  410   8.448  10.306   6.941  0.1983  0.0448 -0.1741
    1AU     LIG  411   8.592  10.659   7.159  0.0423 -0.2447 -0.0324
    1AU     LIG  412   8.380  11.055   7.017 -0.0005 -0.0378  0.1680
    1AU     LIG  413   8.432  11.471   7.205 -0.3587  0.0077  0.1010
    1AU     LIG  414   8.428  11.976   7.087  0.2418 -0.1536  0.0644
    1AU     LIG  415   8.099  12.295   7.126  0.0033  0.0520 -0.0950
    1AU    AUSL  416   8.050   9.868   7.627  0.0257  0.0526  0.0130
    1AU    AUSL  417   7.559  10.147   7.240 -0.0037 -0.0577 -0.0291
    1AU     AUL  418   7.764  10.069   7.549  0.0256 -0.0363  0.1252
    1AU       S  419   8.154  10.270   7.697 -0.5651  0.1980  0.1561
    1AU     LIG  420   7.746  10.534   7.751  0.0356  0.2007 -0.0067
    1AU     LIG  421   7.670  10.957   7.694  0.0175 -0.2357  0.1795
    1AU     LIG  422   7.426  11.354   7.508  0.4445 -0.2137  0.0666
    1AU     LIG  423   7.488  11.729   7.258  0.0664  0.0793 -0.0008
    1AU     LIG  424   7.895  11.892   7.004  0.0314  0.0489  0.1538
    1AU       S  425   7.395  10.344   7.454 -0.5496  0.2487 -0.2849
    1AU     LIG  426   6.932  10.505   7.447 -0.1599 -0.0091 -0.1969
    1AU     LIG  427   6.743  10.855   7.587  0.1243 -0.0231  0.0401
    1AU     LIG  428   6.246  10.821   7.385 -0.5750 -0.1894 -0.3634
    1AU     LIG  429   5.786  10.907   7.465  0.0417  0.1245  0.1271
    1AU     LIG  430   5.459  11.213   7.721  0.1266  0.2918  0.0916
    1AU    AUSL  431   8.375  10.000   7.382  0.0490 -0.0952  0.0620
    1AU    AUSL  432   8.316   9.564   7.484 -0.0131  0.0157  0.0130
    1AU     AUL  433   8.302   9.804   7.783 -0.0732  0.0118  0.0691
    1AU       S  434   8.727   9.817   7.655  0.0629 -0.1564 -0.2450
    1AU     LIG  435   8.670  10.147   7.934  0.0954  0.2011 -0.3127
    1AU     LIG  436   8.780  10.466   8.057 -0.3515 -0.0382 -0.2192
    1AU     LIG  437   8.484  10.822   8.219 -0.4550 -0.1982  0.0100
    1AU     LIG  438   8.449  11.224   8.005  0.0859 -0.3530  0.0741
    1AU     LIG  439   8.164  11.191   7.640  0.0687 -0.0417  0.0068
    1AU       S  440   8.420  10.220   7.420  0.1749  0.0553 -0.0010
    1AU     LIG  441   8.787  10.424   7.554 -0.2825  0.0326 -0.3365
    1AU     LIG  442   8.986  10.788   7.435  0.2400  0.2210 -0.2889
    1AU     LIG  443   9.240  11.012   7.139  0.0159 -0.1217 -0.0323
    1AU     LIG  444   9.625  11.310   7.172 -0.0153 -0.3400  0.1066
    1AU     LIG  445   9.848  11.713   7.257  0.2458 -0.0806  0.1026
    1AU    AUSL  446   7.977   8.488   6.586 -0.0657  0.0260  0.0723
    1AU    AUSL  447   8.026   8.949   6.158 -0.0648 -0.0332 -0.1479
    1AU     AUL  448   8.027   8.542   6.200  0.0588 -0.0317  0.0252
    1AU       S  449   7.813   8.207   6.413 -0.4861 -0.0789  0.0440
    1AU     LIG  450   8.317   8.145   6.301  0.1265 -0.0261  0.3681
    1AU     LIG  451   8.690   8.199   6.096 -0.1829  0.2142 -0.4306
    1AU     LIG  452   9.083   8.157   6.206 -0.1661  0.1164 -0.0518
    1AU     LIG  453   9.294   8.191   6.578 -0.0108  0.2477  0.0924
    1AU     LIG  454   9.413   8.047   7.033  0.0032  0.2207  0.2830
    1AU       S  455   8.127   8.822   5.861 -0.0090  0.0433  0.1559
    1AU     LIG  456   7.864   8.630   5.699  0.0069 -0.3734  0.1746
    1AU     LIG  457   7.670   8.272   5.568 -0.3400 -0.1608 -0.0198
    1AU     LIG  458   7.324   8.087   5.789  0.1356  0.1307  0.0603
    1AU     LIG  459   6.994   7.793   5.879  0.1768 -0.2579 -0.2014
    1AU     LIG  460   6.648   7.433   6.036 -0.1433  0.0144 -0.1510
    1AU    AUSL  461   7.598   8.705   6.616 -0.1233 -0.0709 -0.1201
    1AU    AUSL  462   7.895   8.680   6.947  0.0214  0.0225  0.0185
    1AU     AUL  463   7.776   8.370   6.846  0.0066 -0.0416 -0.0480
    1AU       S  464   7.472   8.352   6.525 -0.0028  0.2362  0.3043
    1AU     LIG  465   7.065   8.173   6.461  0.3885  0.1701  0.2686
    1AU     LIG  466   7.030   7.648   6.511 -0.3660 -0.1678 -0.0844
    1AU     LIG  467   7.005   7.141   6.549 -0.1798  0.3044  0.0008
    1AU     LIG  468   6.795   6.667   6.707 -0.3009  0.1248 -0.1513
    1AU     LIG  469   6.448   6.353   6.892 -0.2694  0.0568  0.5272
    1AU       S  470   7.585   8.136   7.210 -0.3083  0.2121 -0.0314
    1AU     LIG  471   7.467   7.696   7.161  0.2602  0.2306 -0.4112
    1AU     LIG  472   7.165   7.398   7.003 -0.0150  0.0761 -0.0333
    1AU     LIG  473   6.806   7.308   7.039  0.3285 -0.0807  0.2781
    1AU     LIG  474   6.413   7.416   7.215 -0.1701  0.2563 -0.2131
    1AU     LIG  475   6.050   7.682   7.403  0.2562  0.2080  0.1678
    1AU    AUSL  476   8.663   9.336   7.379 -0.0149 -0.0764  0.0255
    1AU    AUSL  477   8.102   9.357   7.764 -0.0651  0.0315  0.0351
    1AU     AUL  478   8.500   9.325   7.712  0.0338  0.0148 -0.0816
    1AU       S  479   8.125   9.234   8.007  0.3265 -0.1321  0.0522
    1AU     LIG  480   8.542   9.482   8.176 -0.0087  0.2753 -0.0635
    1AU     LIG  481   8.946   9.686   8.093 -0.0089 -0.4285  0.5862
    1AU     LIG  482   9.202   9.940   7.842 -0.1193  0.0736 -0.0703
    1AU     LIG  483   9.646  10.106   7.697  0.3682  0.4389 -0.1851
    1AU     LIG  484   9.848  10.530   7.747  0.5451 -0.1959  0.3667
    1AU       S  485   8.840   9.603   7.601 -0.2346  0.0415 -0.0768
    1AU     LIG  486   9.203   9.388   7.670  0.1387 -0.3155 -0.0059
    1AU     LIG  487   9.419   9.278   7.366  0.1218 -0.2783  0.1618
    1AU     LIG  488   9.653   9.169   7.051 -0.1408  0.2383 -0.0522
    1AU     LIG  489  10.033   9.198   6.822 -0.0183  0.2333 -0.0050
    1AU     LIG  490  10.429   9.097   6.828 -0.0566  0.1117  0.1017
    1AU    AUSL  491   8.529   9.690   7.135  0.0546 -0.0689 -0.0287
    1AU    AUSL  492   8.653   9.257   6.977  0.0951  0.0870  0.0220
    1AU     AUL  493   8.884   9.484   7.171 -0.0512 -0.0181  0.0023
    1AU       S  494   8.806   9.861   7.443  0.0836 -0.0329  0.0226
    1AU     LIG  495   8.831  10.036   7.144 -0.1323 -0.4502  0.1399
    1AU     LIG  496   9.033  10.433   6.974  0.2655 -0.2496  0.1477
    1AU     LIG  497   9.012  10.703   6.850 -0.1782  0.0454  0.2569
    1AU     LIG  498   8.764  11.185   6.721  0.4137 -0.3316 -0.1749
    1AU     LIG  499   8.756  11.522   6.759 -0.3309 -0.2028 -0.1421
    1AU       S  500   9.131   9.148   6.968  0.3663 -0.1301 -0.0137
    1AU     LIG  501   8.984   8.953   7.359  0.0138  0.0361  0.0509
    1AU     LIG  502   9.074   8.688   7.706 -0.1579 -0.2931  0.0999
    1AU     LIG  503   9.374   8.343   7.665  0.2139  0.5195  0.3943
    1AU     LIG  504   9.795   8.340   7.438  0.0172 -0.3649 -0.2328
    1AU     LIG  505   9.848   8.372   7.014 -0.0052  0.3816 -0.2493
    2POPC   NC3  506   2.113   6.381   9.149  0.1104 -0.3236  0.0553
    2POPC   PO4  507   2.398   6.089   8.928 -0.0258  0.0506  0.0492
    2POPC   GL1  508   2.561   6.164   8.614 -0.0823 -0.1948  0.2203
    2POPC   GL2  509   2.464   6.463   8.491  0.0062  0.0163 -0.1419
    2POPC   C1A  510   2.616   6.003   8.277 -0.1830  0.1673 -0.0219
    2POPC   D2A  511   2.726   6.066   7.942  0.2594 -0.1828 -0.0222
    2POPC   C3A  512   2.441   6.141   7.643 -0.3065  0.0893 -0.0035
    2POPC   C4A  513   2.151   6.286   7.299  0.0167  0.2527  0.1108
    2POPC   C1B  514   2.343   6.409   8.117  0.3434 -0.0194 -0.0819
    2POPC   C2B  515   2.002   6.416   7.768  0.2231 -0.1097  0.0291
    2POPC   C3B  516   1.693   6.709   7.579 -0.0053 -0.3623 -0.0941
    2POPC   C4B  517   1.557   6.966   7.260  0.2377  0.1126  0.0643
    3POPC   NC3  518   6.423   6.590   9.332 -0.2131 -0.1085  0.4180
    3POPC   PO4  519   6.445   6.468   8.930 -0.1664 -0.3088 -0.1640
    3POPC   GL1  520   6.676   6.629   8.463  0.1337  0.2080 -0.0878
    3POPC   GL2  521   6.668   6.764   8.129 -0.2216 -0.2204  0.0897
    3POPC   C1A  522   6.839   6.312   8.110  0.1175 -0.2569  0.4511
    3POPC   D2A  523   6.769   6.312   7.559 -0.0423  0.0422 -0.0878
    3POPC   C3A  524   7.050   6.422   7.357 -0.0883 -0.0053  0.2073
    3POPC   C4A  525   7.111   6.330   6.939 -0.0434  0.0510  0.2366
    3POPC   C1B  526   6.567   6.743   7.720  0.0239 -0.2350 -0.0690
    3POPC   C2B  527   6.753   6.857   7.270 -0.2789 -0.1787 -0.1801
    3POPC   C3B  528   7.148   6.847   7.010 -0.0677  0.1330  0.0827
    3POPC   C4B  529   7.481   6.759   7.194  0.1151 -0.1693  0.5064
    4POPC   NC3  530   3.072   6.848   9.085 -0.1569 -0.0120  0.0115
    4POPC   PO4  531   3.207   7.014   8.668 -0.0247  0.1079 -0.0282
    4POPC   GL1  532   3.170   7.309   8.386 -0.1392  0.1183  0.1444
    4POPC   GL2  533   2.905   7.269   8.358  0.1723  0.0084 -0.0575
    4POPC   C1A  534   3.085   7.634   8.067  0.0950  0.2775  0.0424
    4POPC   D2A  535   3.014   7.597   7.604  0.0195 -0.2184  0.0479
    4POPC   C3A  536   2.619   7.495   7.514  0.2657 -0.3332  0.2157
    4POPC   C4A  537   2.490   7.222   7.175 -0.3090  0.0514  0.0666
    4POPC   C1B  538   2.680   6.887   8.127  0.2479 -0.1587  0.0744
    4POPC   C2B  539   2.879   6.535   8.016  0.1295 -0.0061  0.1798
    4POPC   C3B  540   3.040   6.247   7.641 -0.0091 -0.1832  0.1130
    4POPC   C4B  541   2.949   5.789   7.530 -0.1700  0.3513  0.1181
    5POPC   NC3  542  10.084   6.512   8.603  0.1347  0.0792 -0.1978
    5POPC   PO4  543   9.679   6.652   8.734  0.1214 -0.0798 -0.0254
    5POPC   GL1  544   9.678   6.632   8.296  0.1399 -0.1677  0.0463
    5POPC   GL2  545   9.548   6.319   8.193  0.0595  0.1275  0.2537
    5POPC   C1A  546   9.879   6.677   7.872 -0.1371  0.3858 -0.1790
    5POPC   D2A  547   9.938   6.577   7.446  0.1699 -0.1751 -0.2794
    5POPC   C3A  548  10.340   6.376   7.407  0.1262 -0.0576  0.0111
    5POPC   C4A  549  10.462   6.142   7.045  0.1184 -0.3405 -0.4060
    5POPC   C1B  550   9.379   6.552   7.925  0.0697  0.3062 -0.2926
    5POPC   C2B  551   9.382   6.842   7.526  0.1707  0.2287 -0.0713
    5POPC   C3B  552   9.636   6.984   7.095 -0.1434 -0.1883 -0.2751
    5POPC   C4B  553  10.152   7.075   7.057  0.0817 -0.1196  0.0982
    6POPC   NC3  554   1.263   8.369   8.914  0.2728 -0.3191  0.0401
    6POPC   PO4  555   0.925   8.554   9.050 -0.1680 -0.0866 -0.0450
    6POPC   GL1  556   1.113   8.770   8.603  0.1768  0.0163 -0.0306
    6POPC   GL2  557   1.073   9.140   8.663  0.0561 -0.4868  0.0869
    6POPC   C1A  558   1.333   8.664   8.235  0.2304 -0.0109  0.1881
    6POPC   D2A  559   1.138   8.381   7.926  0.1412  0.0311  0.0624
    6POPC   C3A  560   1.064   8.447   7.491 -0.0437  0.1215 -0.0753
    6POPC   C4A  561   1.173   8.778   7.104  0.1861  0.0044  0.0749
    6POPC   C1B  562   1.162   9.098   8.210  0.2473  0.0651 -0.3287
    6POPC   C2B  563   1.160   9.042   7.688  0.1232 -0.0665 -0.1404
    6POPC   C3B  564   1.086   9.246   7.191  0.1145  0.0357  0.0662
    6POPC   C4B  565   0.832   9.139   6.869 -0.3047  0.1794 -0.1375
    7POPC   NC3  566   2.266   5.125   8.713 -0.0224 -0.2549  0.0724
    7POPC   PO4  567   2.470   4.751   8.937  0.2403 -0.2216  0.1550
    7POPC   GL1  568   2.451   4.690   8.505  0.3222  0.0973 -0.1876
    7POPC   GL2  569   2.143   4.745   8.270  0.2399  0.0156 -0.0955
    7POPC   C1A  570   2.387   4.338   8.288 -0.0984  0.3480  0.0610
    7POPC   D2A  571   2.285   4.075   7.884  0.0893  0.0715 -0.4412
    7POPC   C3A  572   2.273   4.200   7.477 -0.1014 -0.2002  0.1888
    7POPC   C4A  573   2.341   4.002   7.071  0.0700  0.1494  0.0984
    7POPC   C1B  574   1.912   4.397   8.060 -0.1036 -0.2553  0.2948
    7POPC   C2B  575   1.775   4.091   7.725  0.0450 -0.4995 -0.3561
    7POPC   C3B  576   1.806   4.317   7.266 -0.1476 -0.0389 -0.6395
    7POPC   C4B  577   2.122   4.490   7.027 -0.2133  0.2160 -0.0106
    8POPC   NC3  578   9.766   2.553   8.485 -0.2822  0.2619  0.0169
    8POPC   PO4  579   9.549   2.463   8.885 -0.1290 -0.0525 -0.1769
    8POPC   GL1  580   9.342   2.309   8.473  0.2177  0.0069 -0.0991
    8POPC   GL2  581   9.582   2.066   8.356 -0.2220 -0.1172  0.1848
    8POPC   C1A  582   9.031   2.457   8.137 -0.1921 -0.1008 -0.1267
    8POPC   D2A  583   8.803   2.494   7.684  0.1962  0.0098 -0.0817
    8POPC   C3A  584   8.768   2.185   7.563  0.2400  0.0874 -0.2851
    8POPC   C4A  585   8.591   2.054   7.194  0.0640  0.1088 -0.0227
    8POPC   C1B  586   9.280   2.010   8.062 -0.1511 -0.1500  0.1832
    8POPC   C2B  587   9.080   1.876   7.826  0.0663 -0.0375  0.1264
    8POPC   C3B  588   8.989   1.653   7.434 -0.0981  0.0828  0.0227
    8POPC   C4B  589   8.732   1.358   7.435  0.3776  0.0058 -0.2123
    9POPC   NC3  590   6.042   3.737   9.184  0.0390  0.2083  0.3726
    9POPC   PO4  591   5.878   3.995   8.838  0.5100  0.0972 -0.0239
    9POPC   GL1  592   5.940   4.041   8.463  0.0559  0.1075 -0.3000
    9POPC   GL2  593   6.234   3.951   8.357  0.2313 -0.0085 -0.0892
    9POPC   C1A  594   5.683   3.983   8.092 -0.0344 -0.0063 -0.6274
    9POPC   D2A  595   5.437   3.782   7.756 -0.0207  0.1963 -0.2594
    9POPC   C3A  596   5.386   3.884   7.456 -0.0056  0.1469  0.3089
    9POPC   C4A  597   5.014   3.679   7.212 -0.0040  0.0964  0.1682
    9POPC   C1B  598   6.348   4.129   7.930  0.0027  0.0834  0.1332
    9POPC   C2B  599   6.278   3.818   7.709  0.1130  0.1306 -0.1173
    9POPC   C3B  600   6.005   3.468   7.779  0.1437 -0.0614  0.0396
    9POPC   C4B  601   6.110   3.255   8.106  0.4455 -0.0652  0.1105
   10POPC   NC3  602   2.541   2.386   9.948  0.0665 -0.1280 -0.0894
   10POPC   PO4  603   2.868   2.264   9.682 -0.1769  0.3666 -0.0948
   10POPC   GL1  604   3.109   2.180   9.229  0.0805 -0.5996 -0.2303
   10POPC   GL2  605   3.042   1.941   9.056 -0.1447 -0.2436  0.0797
   10POPC   C1A  606   3.259   2.376   8.739  0.1156  0.1694  0.0328
   10POPC   D2A  607   3.369   2.642   8.493 -0.0357  0.1140 -0.1043
   10POPC   C3A  608   3.507   2.568   8.128 -0.0886 -0.0156 -0.2040
   10POPC   C4A  609   3.885   2.651   7.946  0.2175 -0.2147 -0.1059
   10POPC   C1B  610   2.784   2.098   8.700  0.0293 -0.4097 -0.3557
   10POPC   C2B  611   2.766   1.988   8.277  0.0587 -0.0290 -0.1391
   10POPC   C3B  612   2.573   2.311   7.943  0.0020 -0.1939 -0.1197
   10POPC   C4B  613   2.329   2.594   7.846 -0.1290  0.0151  0.3115
   11POPC   NC3  614   5.405   2.152   9.054 -0.2615  0.2312  0.1889
   11POPC   PO4  615   5.128   1.733   9.111 -0.3588  0.0160  0.0557
   11POPC   GL1  616   5.204   1.569   8.735  0.2385  0.0970 -0.2617
   11POPC   GL2  617   5.529   1.701   8.830  0.1909  0.2359  0.1646
   11POPC   C1A  618   5.104   1.650   8.256 -0.3985  0.1325 -0.0745
   11POPC   D2A  619   5.250   1.730   7.851 -0.1895 -0.0497 -0.0993
   11POPC   C3A  620   5.290   2.142   7.639 -0.1529 -0.0484 -0.5445
   11POPC   C4A  621   5.009   2.314   7.351 -0.0933  0.1231  0.2850
   11POPC   C1B  622   5.512   1.816   8.434 -0.1257 -0.2131 -0.0383
   11POPC   C2B  623   5.698   1.610   8.131  0.0203  0.0697  0.2790
   11POPC   C3B  624   5.979   1.512   7.766  0.1990 -0.0814  0.0292
   11POPC   C4B  625   6.396   1.362   7.645 -0.0792  0.1590 -0.0433
   12POPC   NC3  626   4.740   9.666   9.515 -0.1115 -0.0704 -0.1868
   12POPC   PO4  627   4.931  10.069   9.354  0.0357  0.1336 -0.3285
   12POPC   GL1  628   4.929   9.969   8.840  0.0485  0.2126  0.4173
   12POPC   GL2  629   5.156   9.727   8.712 -0.2919 -0.0294  0.0637
   12POPC   C1A  630   4.793  10.065   8.405 -0.1244 -0.2468 -0.1474
   12POPC   D2A  631   4.822  10.168   8.028  0.2509  0.1728  0.1729
   12POPC   C3A  632   5.256  10.296   7.879 -0.2682 -0.1427 -0.0376
   12POPC   C4A  633   5.391  10.752   7.786  0.0718  0.1678  0.1446
   12POPC   C1B  634   5.174   9.796   8.260 -0.1488  0.0381 -0.0837
   12POPC   C2B  635   5.223   9.778   7.880 -0.0125 -0.3151  0.1288
   12POPC   C3B  636   5.215  10.018   7.457  0.0175  0.1131 -0.0798
   12POPC   C4B  637   5.394  10.132   7.066  0.0107  0.0028  0.0122
   13POPC   NC3  638   5.851   6.257   8.863  0.1961 -0.4155  0.2184
   13POPC   PO4  639   5.795   6.189   8.361  0.0680 -0.0548  0.4096
   13POPC   GL1  640   5.823   6.465   8.009 -0.0307  0.1766 -0.0614
   13POPC   GL2  641   5.927   6.714   8.151 -0.1259 -0.2096  0.1299
   13POPC   C1A  642   5.816   6.431   7.529 -0.0406 -0.1797 -0.1510
   13POPC   D2A  643   5.912   6.043   7.252  0.0583  0.1146  0.2189
   13POPC   C3A  644   6.336   6.014   7.205  0.2562  0.2107 -0.1064
   13POPC   C4A  645   6.751   5.989   7.141 -0.0383  0.0390  0.2322
   13POPC   C1B  646   6.012   6.864   7.796 -0.0021 -0.0043 -0.1617
   13POPC   C2B  647   6.054   7.155   7.555  0.1726 -0.0953 -0.0970
   13POPC   C3B  648   5.936   7.265   7.077  0.0241 -0.1026 -0.2549
   13POPC   C4B  649   5.961   7.027   6.677  0.0222  0.2279 -0.1336
   14POPC   NC3  650   1.712   8.453   9.282  0.0741 -0.0672  0.1631
   14POPC   PO4  651   1.450   8.810   8.987  0.1654 -0.2288 -0.0890
   14POPC   GL1  652   1.570   9.064   8.568  0.1045 -0.1243  0.0616
   14POPC   GL2  653   1.773   8.936   8.337  0.2382  0.3367 -0.1398
   14POPC   C1A  654   1.364   9.507   8.393 -0.2202  0.4520 -0.1294
   14POPC   D2A  655   1.107   9.650   8.041 -0.3951 -0.4909 -0.0239
   14POPC   C3A  656   1.180   9.996   7.744 -0.1333  0.2165  0.0002
   14POPC   C4A  657   1.358  10.154   7.420 -0.0801  0.1884  0.4872
   14POPC   C1B  658   1.584   9.255   7.936  0.1036  0.1680  0.3369
   14POPC   C2B  659   1.337   9.527   7.620  0.0466  0.2079  0.2278
   14POPC   C3B  660   1.207   9.735   7.255 -0.1961  0.1638  0.0579
   14POPC   C4B  661   1.223   9.928   6.905 -0.1218 -0.0561  0.0560
   15POPC   NC3  662   4.437   8.269   8.494 -0.0838 -0.3674  0.2566
   15POPC   PO4  663   4.666   8.088   8.593 -0.0500 -0.1842  0.0880
   15POPC   GL1  664   4.923   8.024   8.295 -0.1674 -0.0193  0.0274
   15POPC   GL2  665   4.728   8.149   8.071 -0.1749  0.1300 -0.0557
   15POPC   C1A  666   5.282   8.134   8.072  0.3211 -0.1233 -0.1003
   15POPC   D2A  667   5.476   8.314   7.778  0.1600 -0.2697 -0.1321
   15POPC   C3A  668   5.360   8.503   7.328  0.4088 -0.2877  0.0367
   15POPC   C4A  669   5.461   8.749   6.918 -0.1733  0.0824 -0.0453
   15POPC   C1B  670   4.814   8.334   7.661 -0.1538 -0.0572 -0.0076
   15POPC   C2B  671   4.850   8.516   7.225  0.1851 -0.1427  0.2479
   15POPC   C3B  672   5.036   8.472   6.927  0.0040  0.1054 -0.0036
   15POPC   C4B  673   5.256   8.408   6.554 -0.0327  0.1377  0.0316
   16POPC   NC3  674   8.551   0.539   9.598  0.3222 -0.2128  0.1752
   16POPC   PO4  675   8.160   0.892   9.582  0.0260 -0.0924  0.0551
   16POPC   GL1  676   8.058   1.008   9.266 -0.3418 -0.1300 -0.0334
   16POPC   GL2  677   8.319   1.159   9.122  0.0167  0.0001 -0.0029
   16POPC   C1A  678   7.813   0.803   8.960  0.2756  0.3523  0.1774
   16POPC   D2A  679   7.710   0.518   9.085 -0.1171  0.6318 -0.2249
   16POPC   C3A  680   7.841   0.135   9.089 -0.2618  0.2321  0.0248
   16POPC   C4A  681   7.936  -0.273   8.991  0.1932 -0.0960  0.0294
   16POPC   C1B  682   8.038   1.197   8.737  0.0636  0.2047 -0.0448
   16POPC   C2B  683   7.856   1.090   8.441 -0.1006 -0.1752  0.0507
   16POPC   C3B  684   7.961   1.013   8.014 -0.1227  0.1325  0.0799
   16POPC   C4B  685   7.861   1.188   7.664  0.0436 -0.0845 -0.1243
   17POPC   NC3  686  10.153   5.585   8.950  0.0689 -0.1223  0.0711
   17POPC   PO4  687   9.775   5.732   8.833 -0.0341 -0.0232 -0.3167
   17POPC   GL1  688   9.665   5.430   8.642  0.2972 -0.1851  0.0905
   17POPC   GL2  689   9.855   5.493   8.325  0.3294  0.1043 -0.0601
   17POPC   C1A  690   9.384   5.293   8.217 -0.2002 -0.0823 -0.1069
   17POPC   D2A  691   9.636   5.472   7.794  0.3351 -0.0667 -0.0399
   17POPC   C3A  692   9.660   5.371   7.346  0.2130 -0.0562  0.1369
   17POPC   C4A  693   9.611   4.946   7.205  0.0411  0.0724  0.0860
   17POPC   C1B  694   9.583   5.810   8.121  0.0500 -0.4838  0.1100
   17POPC   C2B  695   9.629   6.079   7.730  0.0530  0.0876 -0.0852
   17POPC   C3B  696   9.455   6.250   7.295 -0.1989 -0.1756  0.0684
   17POPC   C4B  697   9.680   6.300   6.944 -0.2169 -0.1331 -0.3107
   18POPC   NC3  698   4.749   3.758   9.243  0.0573 -0.0417  0.0455
   18POPC   PO4  699   5.065   3.477   8.971  0.1071 -0.0527  0.0098
   18POPC   GL1  700   5.214   3.474   8.620  0.4000 -0.3064 -0.0592
   18POPC   GL2  701   4.954   3.559   8.344  0.0977  0.2770  0.1559
   18POPC   C1A  702   5.467   3.472   8.238  0.2303 -0.0787 -0.3976
   18POPC   D2A  703   5.530   3.206   7.888  0.0991 -0.2163 -0.2084
   18POPC   C3A  704   5.402   3.341   7.449 -0.1844 -0.2923 -0.0830
   18POPC   C4A  705   5.135   3.169   7.018  0.1169 -0.0435  0.0481
   18POPC   C1B  706   5.148   3.918   8.220 -0.1113 -0.1562  0.2134
   18POPC   C2B  707   5.293   4.244   7.792  0.1338 -0.2013 -0.1566
   18POPC   C3B  708   5.121   4.339   7.459 -0.1645  0.1032 -0.0734
   18POPC   C4B  709   5.109   4.160   7.077  0.1096 -0.2251 -0.0847
   19POPC   NC3  710   0.872  10.430   9.566  0.0700 -0.4292  0.0532
   19POPC   PO4  711   1.086  10.769   9.302  0.0001 -0.0252 -0.0829
   19POPC   GL1  712   1.113  10.723   8.831  0.0720 -0.1102  0.0395
   19POPC   GL2  713   1.431  10.771   8.681  0.0333 -0.0225  0.0977
   19POPC   C1A  714   0.901  10.486   8.618 -0.2493 -0.2499 -0.0001
   19POPC   D2A  715   0.598  10.270   8.650  0.0496 -0.0560  0.4678
   19POPC   C3A  716   0.477   9.835   8.312 -0.0498  0.1400  0.1616
   19POPC   C4A  717   0.698   9.886   7.929 -0.1329 -0.0298 -0.1291
   19POPC   C1B  718   1.452  10.320   8.602  0.0084 -0.0961 -0.1150
   19POPC   C2B  719   1.526   9.995   8.267 -0.0011  0.0339  0.1977
   19POPC   C3B  720   1.592   9.731   7.967 -0.1295 -0.0704  0.0095
   19POPC   C4B  721   1.774   9.915   7.675 -0.3625 -0.1002 -0.0583
   20POPC   NC3  722   0.628   8.900   9.427 -0.2036  0.1545 -0.0609
   20POPC   PO4  723   0.209   8.837   9.444  0.1106 -0.0037  0.2623
   20POPC   GL1  724  -0.013   8.605   9.046 -0.0449 -0.0492 -0.0579
   20POPC   GL2  725   0.160   8.444   8.790  0.0025 -0.0058 -0.1241
   20POPC   C1A  726  -0.369   8.542   8.957 -0.2496 -0.1277  0.2403
   20POPC   D2A  727  -0.793   8.247   8.836  0.2018  0.0182  0.2308
   20POPC   C3A  728  -1.278   8.394   8.626 -0.1315 -0.1880  0.1637
   20POPC   C4A  729  -1.617   8.727   8.480 -0.0382  0.1130 -0.1941
   20POPC   C1B  730   0.287   8.316   8.380 -0.2693 -0.1832  0.3508
   20POPC   C2B  731   0.331   8.443   7.906 -0.1834 -0.2184 -0.0247
   20POPC   C3B  732   0.303   8.773   7.604 -0.1090  0.0286  0.2442
   20POPC   C4B  733   0.680   9.085   7.461  0.1994  0.0105  0.0894
   21POPC   NC3  734   6.870   6.737   8.927 -0.3243 -0.0676 -0.1549
   21POPC   PO4  735   6.471   6.976   8.802  0.2520 -0.1688  0.0481
   21POPC   GL1  736   6.227   7.132   8.425  0.0669  0.0744 -0.2180
   21POPC   GL2  737   6.013   7.355   8.333  0.1658  0.1813  0.0837
   21POPC   C1A  738   6.429   7.221   7.997  0.0478  0.1865 -0.2252
   21POPC   D2A  739   6.784   7.164   7.677  0.4284 -0.3623  0.0571
   21POPC   C3A  740   7.192   6.831   7.714 -0.1568 -0.3553 -0.1785
   21POPC   C4A  741   7.205   6.339   7.800 -0.0413  0.1153  0.0425
   21POPC   C1B  742   5.824   7.380   7.910 -0.2118  0.0526  0.0770
   21POPC   C2B  743   5.643   7.393   7.495  0.2058 -0.2247 -0.0566
   21POPC   C3B  744   5.273   7.131   7.302 -0.4341  0.0992 -0.0502
   21POPC   C4B  745   4.835   7.110   7.137  0.1371 -0.1292 -0.0614
   22POPC   NC3  746   2.889  10.404   9.500  0.2795  0.2663  0.5060
   22POPC   PO4  747   3.139  10.412   9.101  0.0579 -0.1221  0.2160
   22POPC   GL1  748   3.145  10.443   8.678 -0.3598 -0.0441 -0.1990
   22POPC   GL2  749   3.038  10.145   8.601 -0.0538  0.1832 -0.2386
   22POPC   C1A  750   3.465  10.334   8.282 -0.1825 -0.0704  0.0837
   22POPC   D2A  751   3.379  10.164   7.804 -0.0935  0.2596  0.2955
   22POPC   C3A  752   3.221   9.971   7.480 -0.0821  0.0615 -0.0184
   22POPC   C4A  753   2.870   9.742   7.218 -0.2464 -0.0500  0.0925
   22POPC   C1B  754   3.214   9.944   8.203 -0.3795 -0.1184  0.0555
   22POPC   C2B  755   3.385   9.676   7.890 -0.0646  0.1098 -0.1276
   22POPC   C3B  756   3.512   9.479   7.480 -0.0257 -0.0413 -0.1519
   22POPC   C4B  757   3.599   9.067   7.390  0.4978 -0.1399  0.2885
   23POPC   NC3  758   3.661   3.847   8.627 -0.0904 -0.2347 -0.0600
   23POPC   PO4  759   3.991   4.106   8.559  0.1563 -0.1623  0.0999
   23POPC   GL1  760   3.879   4.072   8.099 -0.0967 -0.0780 -0.1053
   23POPC   GL2  761   4.115   3.761   8.068  0.2745  0.0895  0.2727
   23POPC   C1A  762   3.489   4.047   7.807 -0.3141  0.0464  0.3129
   23POPC   D2A  763   3.353   3.847   7.471  0.1959  0.2697  0.1766
   23POPC   C3A  764   3.510   3.350   7.402 -0.1387 -0.3687 -0.0024
   23POPC   C4A  765   3.473   2.977   7.268 -0.0116  0.2491  0.0192
   23POPC   C1B  766   3.897   3.781   7.669  0.0319 -0.1095 -0.0979
   23POPC   C2B  767   3.839   3.816   7.231 -0.0769  0.1293 -0.2009
   23POPC   C3B  768   3.886   3.872   6.781  0.3338  0.1943  0.1330
   23POPC   C4B  769   4.192   3.693   6.355  0.1267  0.2810  0.1351
   24POPC   NC3  770   1.810   9.621   9.241  0.2848  0.0040  0.4015
   24POPC   PO4  771   1.791   9.141   9.146 -0.0217  0.0111 -0.1073
   24POPC   GL1  772   1.918   9.318   8.777 -0.1421  0.0041 -0.2585
   24POPC   GL2  773   2.167   9.146   8.535 -0.5061 -0.2138 -0.1608
   24POPC   C1A  774   1.858   9.471   8.282  0.3469 -0.1061 -0.0659
   24POPC   D2A  775   2.057   9.554   7.850 -0.0923  0.2618  0.1565
   24POPC   C3A  776   1.921   9.491   7.438  0.1265  0.4345  0.0033
   24POPC   C4A  777   1.653   9.585   7.079  0.1752 -0.1141  0.3470
   24POPC   C1B  778   2.350   9.524   8.350  0.3679  0.0849 -0.2541
   24POPC   C2B  779   2.586   9.810   8.055 -0.4230  0.0949 -0.1065
   24POPC   C3B  780   2.880   9.804   7.784  0.1680  0.2464  0.2580
   24POPC   C4B  781   3.020   9.462   7.568  0.1780  0.1474  0.1334
   25POPC   NC3  782   6.660   0.257  10.093  0.0330 -0.1685  0.0143
   25POPC   PO4  783   6.242   0.193   9.949 -0.0456 -0.2695 -0.0988
   25POPC   GL1  784   6.397   0.061   9.547 -0.1131  0.2948  0.0262
   25POPC   GL2  785   6.229   0.140   9.285 -0.1372 -0.1824  0.0530
   25POPC   C1A  786   6.400  -0.377   9.198 -0.2672  0.2178  0.1060
   25POPC   D2A  787   6.779  -0.422   8.826 -0.0827 -0.2992 -0.1500
   25POPC   C3A  788   6.824  -0.648   8.379  0.0562  0.0001  0.0325
   25POPC   C4A  789   6.798  -1.014   8.284 -0.1512  0.0825 -0.1031
   25POPC   C1B  790   6.206   0.019   8.859 -0.0584  0.2176 -0.3603
   25POPC   C2B  791   6.376  -0.219   8.581 -0.2257  0.0874  0.1824
   25POPC   C3B  792   6.636  -0.169   8.295  0.0358 -0.1923 -0.0015
   25POPC   C4B  793   7.114  -0.215   8.378 -0.1062 -0.0363  0.2775
   26POPC   NC3  794   3.052   1.433   9.342 -0.1164 -0.1400 -0.1028
   26POPC   PO4  795   3.160   1.036   9.234  0.0619  0.0246  0.2703
   26POPC   GL1  796   3.291   1.164   8.878  0.0039  0.1162 -0.1429
   26POPC   GL2  797   3.136   1.523   8.797  0.3396  0.2943 -0.0117
   26POPC   C1A  798   3.228   1.007   8.384 -0.1734 -0.0511  0.0377
   26POPC   D2A  799   3.285   0.832   7.892  0.0761 -0.0575  0.1385
   26POPC   C3A  800   2.891   0.461   7.910 -0.1933 -0.0484 -0.0826
   26POPC   C4A  801   2.471   0.469   8.079  0.2176  0.1941 -0.0254
   26POPC   C1B  802   3.166   1.695   8.419  0.0552  0.2597  0.0438
   26POPC   C2B  803   3.111   1.767   7.873 -0.2607 -0.2866 -0.0268
   26POPC   C3B  804   2.857   2.088   7.621 -0.2290  0.1826  0.3988
   26POPC   C4B  805   2.854   2.193   7.230 -0.0096 -0.0193  0.0388
   27POPC   NC3  806   6.654   4.498   9.414  0.1280 -0.1653  0.1258
   27POPC   PO4  807   7.020   4.568   9.148  0.0507 -0.1043 -0.1648
   27POPC   GL1  808   7.149   4.507   8.655 -0.3588  0.1629  0.1436
   27POPC   GL2  809   7.382   4.267   8.631  0.0963  0.0855 -0.1997
   27POPC   C1A  810   7.100   4.734   8.182  0.1308  0.0586  0.1002
   27POPC   D2A  811   7.053   4.866   7.774 -0.0486 -0.1034  0.0933
   27POPC   C3A  812   7.249   5.180   7.510 -0.3165 -0.1135 -0.0861
   27POPC   C4A  813   7.446   5.261   7.068 -0.2735  0.0651 -0.2171
   27POPC   C1B  814   7.198   4.129   8.313 -0.1177  0.0081  0.0673
   27POPC   C2B  815   7.274   3.961   7.837 -0.1018 -0.0759  0.0516
   27POPC   C3B  816   6.939   3.730   7.646 -0.0730  0.3214 -0.0824
   27POPC   C4B  817   6.816   3.767   7.147 -0.0104  0.0191  0.4513
   28POPC   NC3  818   5.288   0.545   9.413  0.1379  0.1652  0.0426
   28POPC   PO4  819   5.497   0.797   9.222  0.0577  0.0414 -0.3390
   28POPC   GL1  820   5.372   0.698   8.826  0.0883  0.0648 -0.0785
   28POPC   GL2  821   5.055   0.478   8.892  0.4749  0.1391  0.1496
   28POPC   C1A  822   5.299   0.615   8.407 -0.3219  0.3879 -0.1566
   28POPC   D2A  823   5.107   0.780   8.067 -0.0761  0.0999  0.0513
   28POPC   C3A  824   5.227   1.206   7.999 -0.2776 -0.1423 -0.2623
   28POPC   C4A  825   5.501   1.293   7.763  0.0586 -0.2304 -0.2093
   28POPC   C1B  826   4.804   0.582   8.582 -0.1007 -0.1239 -0.1581
   28POPC   C2B  827   4.812   0.384   8.171 -0.0510  0.0954 -0.1124
   28POPC   C3B  828   4.893   0.205   7.940  0.1741  0.3017 -0.0380
   28POPC   C4B  829   4.972   0.059   7.527  0.0591  0.0746 -0.0086
   29POPC   NC3  830   8.959   8.429   9.953 -0.0697  0.3454 -0.1226
   29POPC   PO4  831   8.776   7.993   9.853  0.0102 -0.0743 -0.0279
   29POPC   GL1  832   8.822   8.244   9.401  0.3617 -0.0027 -0.1275
   29POPC   GL2  833   8.830   8.128   8.993  0.1461  0.1153 -0.1943
   29POPC   C1A  834   8.916   8.620   9.120  0.0472 -0.0222 -0.3581
   29POPC   D2A  835   9.367   8.695   8.962 -0.0753  0.0980  0.0207
   29POPC   C3A  836   9.711   8.718   8.605  0.0024  0.4234 -0.2152
   29POPC   C4A  837  10.170   8.873   8.627 -0.1504 -0.1728 -0.2377
   29POPC   C1B  838   8.998   7.905   8.543 -0.2821 -0.3064 -0.3251
   29POPC   C2B  839   8.724   7.797   8.262 -0.2282  0.3338 -0.2953
   29POPC   C3B  840   8.804   7.548   7.866 -0.2125  0.1730 -0.3828
   29POPC   C4B  841   8.921   7.218   7.538 -0.1571  0.0506 -0.0936
   30POPC   NC3  842   8.998   6.135   8.888 -0.0209 -0.0679 -0.1496
   30POPC   PO4  843   8.782   5.928   8.724 -0.0858 -0.0142  0.1604
   30POPC   GL1  844   8.906   6.039   8.367 -0.1794 -0.2452  0.2605
   30POPC   GL2  845   9.169   6.334   8.471 -0.0193  0.0422 -0.1370
   30POPC   C1A  846   9.145   6.061   7.981  0.0739  0.1280 -0.3804
   30POPC   D2A  847   9.097   6.324   7.622 -0.1873  0.2084 -0.0808
   30POPC   C3A  848   8.991   6.103   7.172  0.1947  0.1102  0.0486
   30POPC   C4A  849   8.787   6.242   6.925  0.2109  0.4448 -0.1730
   30POPC   C1B  850   8.946   6.510   8.171 -0.0457  0.0168 -0.0583
   30POPC   C2B  851   8.871   6.737   7.775 -0.0398  0.1450 -0.2823
   30POPC   C3B  852   8.751   6.714   7.363 -0.1340 -0.0519 -0.0570
   30POPC   C4B  853   8.450   6.680   7.097 -0.0436 -0.0315  0.1517
   31POPC   NC3  854   2.967   7.892   9.175  0.1585  0.1128  0.1702
   31POPC   PO4  855   2.567   8.180   9.192 -0.0975  0.1070  0.1065
   31POPC   GL1  856   2.702   8.177   8.859  0.0889  0.0989 -0.2674
   31POPC   GL2  857   2.901   8.147   8.741 -0.3270  0.0227 -0.2365
   31POPC   C1A  858   2.497   8.213   8.382 -0.0230 -0.1484  0.1209
   31POPC   D2A  859   2.386   8.423   7.914 -0.0175  0.2295 -0.2593
   31POPC   C3A  860   2.496   8.673   7.686  0.3011 -0.0019 -0.0972
   31POPC   C4A  861   2.566   8.929   7.346 -0.2779  0.1746  0.0662
   31POPC   C1B  862   2.974   8.386   8.343 -0.2087 -0.1595  0.1331
   31POPC   C2B  863   2.974   8.134   8.068 -0.0745  0.1435  0.0749
   31POPC   C3B  864   3.130   8.153   7.735 -0.1713 -0.1943 -0.2127
   31POPC   C4B  865   3.029   8.083   7.230  0.1092 -0.0513 -0.0608
   32POPC   NC3  866   6.583   5.795   9.304 -0.0141  0.3614 -0.2308
   32POPC   PO4  867   6.429   5.964   8.961  0.0894 -0.3055 -0.0926
   32POPC   GL1  868   6.447   6.156   8.532  0.0718  0.0011  0.2996
   32POPC   GL2  869   6.513   5.906   8.453 -0.0658  0.0790  0.2499
   32POPC   C1A  870   6.340   6.411   8.148  0.1042 -0.2886 -0.2429
   32POPC   D2A  871   6.293   6.285   7.679 -0.3174 -0.0737  0.1109
   32POPC   C3A  872   6.318   6.530   7.318  0.3123  0.1281  0.3201
   32POPC   C4A  873   5.990   6.574   6.910 -0.0354  0.0952 -0.0732
   32POPC   C1B  874   6.886   5.827   8.242 -0.2565 -0.0770  0.2018
   32POPC   C2B  875   6.904   5.605   7.749 -0.0812 -0.1717 -0.0986
   32POPC   C3B  876   6.919   5.487   7.315  0.0019  0.2996  0.3417
   32POPC   C4B  877   6.863   5.466   6.856  0.0593 -0.3431  0.0759
   33POPC   NC3  878   3.671   8.668   8.846 -0.2040 -0.0031 -0.0439
   33POPC   PO4  879   4.160   8.654   8.637  0.0307  0.0049  0.1457
   33POPC   GL1  880   4.296   8.848   8.300  0.0475 -0.0776 -0.1181
   33POPC   GL2  881   4.501   8.599   8.134 -0.2863  0.3059  0.0581
   33POPC   C1A  882   4.663   9.115   8.065  0.0729  0.1280  0.1550
   33POPC   D2A  883   5.061   9.292   8.023 -0.0824 -0.1694  0.0015
   33POPC   C3A  884   5.169   9.295   7.621 -0.0469 -0.0965  0.2149
   33POPC   C4A  885   5.083   9.595   7.211 -0.2172 -0.0541 -0.1420
   33POPC   C1B  886   4.334   8.385   7.720 -0.2093  0.0839  0.0888
   33POPC   C2B  887   4.363   8.405   7.246  0.0804 -0.2051  0.0197
   33POPC   C3B  888   4.403   8.416   6.880  0.3579  0.0344  0.0345
   33POPC   C4B  889   4.678   8.504   6.566  0.1067  0.1714  0.1044
   34POPC   NC3  890   7.467   2.048   9.720 -0.0490 -0.1770  0.1353
   34POPC   PO4  891   7.115   1.669   9.609 -0.1732 -0.1337 -0.1544
   34POPC   GL1  892   7.071   1.628   9.111 -0.1577 -0.2822  0.4103
   34POPC   GL2  893   6.958   2.051   9.158  0.3413 -0.0066  0.0230
   34POPC   C1A  894   7.208   1.788   8.726  0.3351  0.0897 -0.1259
   34POPC   D2A  895   7.361   1.944   8.440 -0.1806 -0.2992  0.0042
   34POPC   C3A  896   7.659   1.505   8.302  0.0159  0.3016 -0.1780
   34POPC   C4A  897   7.481   1.220   8.022 -0.1592  0.1253 -0.0694
   34POPC   C1B  898   7.389   2.152   8.949  0.0871  0.4468 -0.3650
   34POPC   C2B  899   7.795   1.985   8.806  0.2483  0.3305 -0.0048
   34POPC   C3B  900   7.881   1.988   8.413 -0.3755  0.4069  0.1006
   34POPC   C4B  901   7.708   1.910   8.054 -0.1969  0.0330  0.2577
   35POPC   NC3  902   0.462   8.749   9.000  0.0122 -0.0921 -0.0796
   35POPC   PO4  903   0.601   9.193   8.928 -0.0420 -0.0834  0.0481
   35POPC   GL1  904   0.430   9.476   8.701  0.0283 -0.0278  0.2464
   35POPC   GL2  905   0.090   9.475   8.698  0.0548 -0.0109 -0.0294
   35POPC   C1A  906   0.222   9.906   8.752 -0.0417  0.3218  0.2394
   35POPC   D2A  907   0.189  10.260   9.000 -0.1158  0.2041 -0.1068
   35POPC   C3A  908   0.266  10.695   8.727  0.1487 -0.0897 -0.1555
   35POPC   C4A  909   0.049  10.808   8.253 -0.1411  0.2318 -0.0707
   35POPC   C1B  910  -0.055   9.275   8.323  0.1916 -0.2833 -0.2200
   35POPC   C2B  911  -0.164   9.397   7.976  0.0187 -0.2588 -0.1446
   35POPC   C3B  912  -0.304   9.643   7.759  0.2995 -0.4781  0.3110
   35POPC   C4B  913  -0.395   9.851   7.415 -0.3607  0.2678 -0.1776
   36POPC   NC3  914   3.582   9.777   9.299 -0.1484 -0.0057 -0.1014
   36POPC   PO4  915   3.500   9.611   8.944 -0.1018  0.6117  0.1380
   36POPC   GL1  916   3.494   9.708   8.575  0.3912 -0.2983 -0.0342
   36POPC   GL2  917   3.662   9.455   8.484  0.1825  0.1469  0.0878
   36POPC   C1A  918   3.711   9.879   8.184  0.4111  0.2270  0.0305
   36POPC   D2A  919   4.122  10.069   8.091 -0.0983 -0.0405  0.1560
   36POPC   C3A  920   4.349   9.831   7.893  0.2541 -0.0877  0.0041
   36POPC   C4A  921   4.327   9.685   7.460 -0.1109 -0.3504  0.3041
   36POPC   C1B  922   3.766   9.363   8.028 -0.1696  0.4033 -0.0652
   36POPC   C2B  923   3.896   9.648   7.734 -0.1326 -0.2526 -0.0347
   36POPC   C3B  924   3.937  10.015   7.615  0.0618 -0.0057 -0.1311
   36POPC   C4B  925   4.158  10.157   7.249  0.2494 -0.3885  0.2093
   37POPC   NC3  926  10.095   3.068   9.242 -0.1904  0.1507  0.1897
   37POPC   PO4  927   9.955   2.871   8.826 -0.2021 -0.1016 -0.2335
   37POPC   GL1  928  10.135   2.856   8.313  0.0692 -0.0990 -0.3310
   37POPC   GL2  929   9.942   3.045   8.052  0.1808 -0.2589 -0.0062
   37POPC   C1A  930  10.305   2.678   7.981  0.0486  0.2383  0.3054
   37POPC   D2A  931  10.351   2.364   7.599 -0.0826  0.2714  0.2785
   37POPC   C3A  932  10.236   1.907   7.799 -0.0662 -0.5489  0.1466
   37POPC   C4A  933  10.068   1.423   7.746  0.0149 -0.1060  0.2549
   37POPC   C1B  934   9.979   3.026   7.596 -0.1358 -0.2027  0.0950
   37POPC   C2B  935  10.027   2.904   7.196 -0.2949  0.0741 -0.1293
   37POPC   C3B  936  10.164   2.772   6.763 -0.2418 -0.0546  0.1931
   37POPC   C4B  937   9.959   2.561   6.425 -0.1371 -0.3174  0.1266
   38POPC   NC3  938   1.129   6.403   9.445  0.0753 -0.0936 -0.1410
   38POPC   PO4  939   1.127   6.071   9.092 -0.4302 -0.1088  0.0675
   38POPC   GL1  940   1.052   6.029   8.649  0.0902  0.0487  0.2816
   38POPC   GL2  941   1.252   6.106   8.583  0.1172 -0.1889  0.0722
   38POPC   C1A  942   0.804   5.847   8.284 -0.0951  0.1704 -0.3418
   38POPC   D2A  943   0.472   5.783   8.067  0.0900 -0.3579 -0.2504
   38POPC   C3A  944   0.531   5.573   7.615 -0.0226  0.0763 -0.0403
   38POPC   C4A  945   0.685   5.371   7.262  0.0073  0.0480  0.1668
   38POPC   C1B  946   1.180   6.168   8.099 -0.0442  0.3203 -0.0209
   38POPC   C2B  947   1.103   6.425   7.596 -0.0140  0.0117  0.2568
   38POPC   C3B  948   1.311   6.528   7.191 -0.1915 -0.1362 -0.1435
   38POPC   C4B  949   1.774   6.614   7.065  0.0748  0.0424 -0.0476
   39POPC   NC3  950   3.573   2.235   9.455  0.0290  0.1009 -0.1632
   39POPC   PO4  951   3.626   2.076   9.122 -0.3562  0.0546  0.3972
   39POPC   GL1  952   3.787   2.301   8.860 -0.2098  0.1547  0.2503
   39POPC   GL2  953   4.065   2.168   8.827 -0.2399  0.1369 -0.2581
   39POPC   C1A  954   3.985   2.365   8.377  0.0318 -0.1873  0.0407
   39POPC   D2A  955   3.992   2.083   8.015  0.1417 -0.0332  0.1023
   39POPC   C3A  956   3.598   2.199   7.764  0.1997  0.6266 -0.1256
   39POPC   C4A  957   3.285   1.941   7.378 -0.0199  0.0497  0.3052
   39POPC   C1B  958   3.997   1.830   8.528 -0.3055 -0.2154  0.0301
   39POPC   C2B  959   4.045   1.473   8.303 -0.2265 -0.1781 -0.3136
   39POPC   C3B  960   4.107   1.438   7.848  0.1045 -0.2204 -0.4140
   39POPC   C4B  961   4.169   1.395   7.477 -0.2303 -0.2047 -0.1498
   40POPC   NC3  962   1.978   6.110   8.619  0.1841 -0.2413 -0.2065
   40POPC   PO4  963   1.936   6.525   8.732 -0.2702 -0.0151  0.0500
   40POPC   GL1  964   1.831   6.539   8.395 -0.0015  0.2453  0.2215
   40POPC   GL2  965   1.552   6.467   8.328  0.0573 -0.1248 -0.1604
   40POPC   C1A  966   1.929   6.813   8.025  0.2780 -0.0649  0.0445
   40POPC   D2A  967   2.138   6.941   7.729  0.0948 -0.1283  0.2318
   40POPC   C3A  968   2.191   6.761   7.385 -0.2452 -0.1706 -0.0338
   40POPC   C4A  969   2.287   6.883   6.915 -0.0904  0.0817 -0.1701
   40POPC   C1B  970   1.652   6.133   8.026  0.2343  0.0220  0.0011
   40POPC   C2B  971   1.509   6.157   7.650  0.0007 -0.0210 -0.0621
   40POPC   C3B  972   1.187   5.926   7.389 -0.1211 -0.2338  0.0739
   40POPC   C4B  973   0.761   5.819   7.241  0.1631 -0.1630 -0.4426
   41POPC   NC3  974   9.066   6.911   9.255  0.4093 -0.2812 -0.1011
   41POPC   PO4  975   8.917   6.553   9.067  0.0925 -0.0152  0.0514
   41POPC   GL1  976   8.757   6.529   8.638  0.0986  0.0514  0.0867
   41POPC   GL2  977   8.474   6.299   8.520  0.1610 -0.0484  0.1685
   41POPC   C1A  978   8.520   6.728   8.284 -0.0687  0.1722 -0.1294
   41POPC   D2A  979   8.345   6.609   7.963  0.0317  0.0868 -0.2475
   41POPC   C3A  980   8.436   6.473   7.615 -0.3844 -0.0249  0.2184
   41POPC   C4A  981   8.573   6.244   7.364  0.2508 -0.2636 -0.2140
   41POPC   C1B  982   8.484   6.127   8.128 -0.5391 -0.0746 -0.0397
   41POPC   C2B  983   8.660   6.015   7.781  0.0264  0.1089  0.3239
   41POPC   C3B  984   8.703   5.771   7.375  0.1522 -0.0578 -0.2327
   41POPC   C4B  985   8.531   5.522   7.227 -0.0461  0.0047 -0.2331
   42POPC   NC3  986   3.848   5.107   8.511 -0.0043 -0.1551  0.2435
   42POPC   PO4  987   4.170   4.884   8.531 -0.1190 -0.0933  0.0575
   42POPC   GL1  988   4.083   4.912   8.068  0.0473  0.4179 -0.2144
   42POPC   GL2  989   4.105   5.238   8.037 -0.2488 -0.1624 -0.3584
   42POPC   C1A  990   3.941   4.920   7.669  0.2739  0.0504 -0.3341
   42POPC   D2A  991   3.835   5.200   7.413  0.1905 -0.1105 -0.3563
   42POPC   C3A  992   3.747   5.267   6.996  0.1874 -0.1078 -0.0423
   42POPC   C4A  993   3.524   5.518   6.613 -0.1245 -0.1004 -0.1872
   42POPC   C1B  994   4.394   5.139   7.694  0.3069 -0.3756  0.0567
   42POPC   C2B  995   4.285   5.036   7.226  0.1633 -0.0739  0.2277
   42POPC   C3B  996   4.205   4.814   6.828 -0.0222 -0.0791 -0.2932
   42POPC   C4B  997   3.821   4.869   6.620 -0.3063 -0.0442  0.1500
   43POPC   NC3  998   8.396   5.103   8.416  0.0669  0.3091  0.0254
   43POPC   PO4  999   8.605   5.186   8.811  0.5525  0.1299  0.1251
   43POPC   GL1 1000   8.799   5.420   8.491  0.2997 -0.0573 -0.0910
   43POPC   GL2 1001   8.450   5.638   8.368 -0.1151 -0.0058 -0.0503
   43POPC   C1A 1002   8.884   5.602   8.189 -0.0575 -0.1226  0.0724
   43POPC   D2A 1003   9.015   5.653   7.726 -0.1569 -0.1805  0.2342
   43POPC   C3A 1004   9.302   5.783   7.424 -0.1329  0.3555 -0.1099
   43POPC   C4A 1005   9.465   5.797   7.089 -0.3401 -0.0756 -0.1995
   43POPC   C1B 1006   8.313   5.698   7.960 -0.1522 -0.0415 -0.0706
   43POPC   C2B 1007   8.186   5.995   7.643 -0.0072  0.3829  0.1236
   43POPC   C3B 1008   8.254   5.905   7.203 -0.1114  0.1406 -0.2990
   43POPC   C4B 1009   7.923   5.957   6.759  0.1001  0.1169 -0.0376
   44POPC   NC3 1010   9.471   7.104   8.997  0.1091 -0.0425 -0.0817
   44POPC   PO4 1011   9.258   7.401   9.273  0.0630 -0.1243  0.1003
   44POPC   GL1 1012   9.240   7.713   8.929  0.2155  0.0224  0.1075
   44POPC   GL2 1013   9.225   7.505   8.757  0.2585 -0.1114  0.0064
   44POPC   C1A 1014   9.476   7.903   8.569 -0.1416  0.0099  0.1164
   44POPC   D2A 1015   9.589   7.711   8.234  0.1625  0.0970  0.1039
   44POPC   C3A 1016   9.291   7.947   7.958  0.2400  0.0873 -0.0865
   44POPC   C4A 1017   9.098   7.919   7.610  0.1765 -0.0610 -0.4315
   44POPC   C1B 1018   9.154   7.458   8.288  0.2542 -0.0272  0.0934
   44POPC   C2B 1019   9.333   7.498   7.799 -0.0229  0.1629  0.0785
   44POPC   C3B 1020   9.440   7.383   7.405  0.1326  0.0950 -0.1281
   44POPC   C4B 1021   9.910   7.398   7.300 -0.3257 -0.0245 -0.0385
   45POPC   NC3 1022   2.678   2.727   8.971 -0.0586  0.1133  0.0851
   45POPC   PO4 1023   2.253   2.861   8.903  0.1742  0.1205 -0.1511
   45POPC   GL1 1024   2.139   3.093   8.601 -0.0065 -0.2541 -0.0885
   45POPC   GL2 1025   2.167   3.212   8.137 -0.0772 -0.0049 -0.1020
   45POPC   C1A 1026   1.698   3.110   8.373  0.1341  0.0748  0.0182
   45POPC   D2A 1027   1.736   3.235   7.917  0.0894 -0.1538  0.2036
   45POPC   C3A 1028   1.273   3.161   7.600  0.0068 -0.0581 -0.1370
   45POPC   C4A 1029   0.928   2.874   7.714  0.1571 -0.1091  0.1091
   45POPC   C1B 1030   2.206   3.140   7.729  0.1747  0.0157  0.3011
   45POPC   C2B 1031   2.419   2.857   7.445  0.0696  0.1973  0.1228
   45POPC   C3B 1032   2.584   2.620   7.106  0.0735 -0.0075 -0.0954
   45POPC   C4B 1033   2.796   2.566   6.746 -0.2206 -0.1752  0.2229
   46POPC   NC3 1034   6.553   2.433   9.195  0.0446 -0.0087  0.2999
   46POPC   PO4 1035   6.224   2.140   9.434  0.1602  0.1087  0.2110
   46POPC   GL1 1036   6.249   2.100   8.937 -0.2616  0.2950 -0.1014
   46POPC   GL2 1037   5.848   2.085   8.818 -0.0214  0.0167  0.1220
   46POPC   C1A 1038   6.276   2.110   8.482 -0.0272 -0.1337  0.3786
   46POPC   D2A 1039   6.255   2.193   7.955  0.0762 -0.0015 -0.2859
   46POPC   C3A 1040   6.401   1.884   7.751  0.0321  0.1983  0.1922
   46POPC   C4A 1041   6.801   1.589   7.851  0.0364  0.0805  0.2471
   46POPC   C1B 1042   6.070   1.670   8.697 -0.0244  0.1287  0.3069
   46POPC   C2B 1043   6.310   1.380   8.421 -0.0467  0.0808 -0.0429
   46POPC   C3B 1044   6.161   1.095   8.061  0.1873 -0.0358  0.1051
   46POPC   C4B 1045   5.909   1.018   7.662  0.0146  0.1424 -0.0413
   47POPC   NC3 1046   3.564   0.236   8.953 -0.0482  0.0858 -0.1630
   47POPC   PO4 1047   3.254   0.566   9.208 -0.1374  0.2809 -0.2643
   47POPC   GL1 1048   3.170   0.598   8.799  0.5047 -0.0537  0.2108
   47POPC   GL2 1049   2.974   0.761   8.826 -0.2628  0.0393 -0.1159
   47POPC   C1A 1050   3.217   0.406   8.385 -0.0482 -0.1080 -0.1328
   47POPC   D2A 1051   3.389   0.253   7.980  0.2672  0.2783  0.1430
   47POPC   C3A 1052   3.442   0.433   7.581 -0.1406 -0.2289  0.4316
   47POPC   C4A 1053   3.424   0.084   7.259 -0.2285 -0.1544 -0.2372
   47POPC   C1B 1054   2.767   0.789   8.379  0.1023  0.1003 -0.1247
   47POPC   C2B 1055   2.637   0.924   7.979 -0.1388 -0.1599 -0.0119
   47POPC   C3B 1056   2.426   1.361   7.859 -0.0663  0.0188  0.0130
   47POPC   C4B 1057   2.664   1.614   7.488 -0.1050  0.1792 -0.2710
   48POPC   NC3 1058   1.554   2.379   9.007 -0.0866 -0.0060 -0.1131
   48POPC   PO4 1059   1.908   1.946   9.126  0.1857  0.0969 -0.1046
   48POPC   GL1 1060   2.016   1.683   8.784 -0.1359  0.1102  0.2108
   48POPC   GL2 1061   2.046   1.430   8.988 -0.0500  0.2231 -0.1194
   48POPC   C1A 1062   2.110   1.468   8.307 -0.0458 -0.0477  0.2268
   48POPC   D2A 1063   2.137   1.844   7.973 -0.3112  0.1613  0.1965
   48POPC   C3A 1064   2.199   2.104   7.667  0.1883  0.2847 -0.2011
   48POPC   C4A 1065   2.371   2.332   7.440 -0.0182  0.3204  0.1528
   48POPC   C1B 1066   2.305   1.200   8.718  0.0434 -0.0209  0.0573
   48POPC   C2B 1067   2.288   0.973   8.367  0.0058  0.1676  0.0671
   48POPC   C3B 1068   2.156   0.886   7.890  0.2151 -0.2142  0.1830
   48POPC   C4B 1069   2.301   1.081   7.509  0.1338  0.0738 -0.1445
   49POPC   NC3 1070   1.956   8.067   9.266 -0.0445 -0.3611  0.4052
   49POPC   PO4 1071   1.602   8.033   9.058 -0.3600 -0.0144  0.1324
   49POPC   GL1 1072   1.738   8.255   8.751 -0.2604  0.0627 -0.0013
   49POPC   GL2 1073   1.511   8.119   8.529  0.0254 -0.0386  0.1601
   49POPC   C1A 1074   1.929   8.400   8.340 -0.1918 -0.0865  0.0807
   49POPC   D2A 1075   1.907   8.543   7.988 -0.2896  0.0736  0.3323
   49POPC   C3A 1076   1.628   8.801   7.815  0.2679  0.2867  0.0841
   49POPC   C4A 1077   1.560   8.974   7.371 -0.1866  0.1680  0.1645
   49POPC   C1B 1078   1.519   8.168   8.099  0.0949 -0.2458 -0.3502
   49POPC   C2B 1079   1.598   8.327   7.683  0.0847 -0.2499  0.2641
   49POPC   C3B 1080   1.594   8.474   7.160  0.2437 -0.1978 -0.0534
   49POPC   C4B 1081   1.840   8.837   6.900  0.0253  0.2824 -0.0430
   50POPC   NC3 1082   0.537   5.684   9.198 -0.2061 -0.1281  0.0488
   50POPC   PO4 1083   0.233   5.445   8.877 -0.1363  0.0044  0.0745
   50POPC   GL1 1084   0.335   5.386   8.444 -0.0571  0.0400 -0.0924
   50POPC   GL2 1085   0.592   5.176   8.510 -0.0919 -0.1431  0.1397
   50POPC   C1A 1086   0.291   5.365   8.021  0.0478 -0.0797 -0.1306
   50POPC   D2A 1087   0.036   5.242   7.657  0.0681 -0.1197  0.0104
   50POPC   C3A 1088  -0.019   4.795   7.870  0.3361 -0.0056 -0.0889
   50POPC   C4A 1089   0.017   4.454   8.010  0.2442  0.0210  0.3277
   50POPC   C1B 1090   0.783   5.305   8.147  0.0444 -0.1004 -0.1472
   50POPC   C2B 1091   0.844   5.211   7.745 -0.3591 -0.0149  0.0830
   50POPC   C3B 1092   1.118   5.035   7.472 -0.0310 -0.0795  0.0582
   50POPC   C4B 1093   1.212   5.010   7.108 -0.1837 -0.0573  0.0859
   51POPC   NC3 1094   8.208   2.421   9.263 -0.0360  0.1052  0.1742
   51POPC   PO4 1095   8.423   2.119   9.571 -0.0189  0.0277  0.1760
   51POPC   GL1 1096   8.534   2.000   9.165  0.0179  0.1064 -0.0723
   51POPC   GL2 1097   8.593   1.706   9.186 -0.0328 -0.0852  0.2428
   51POPC   C1A 1098   8.276   1.961   8.774  0.1996  0.0180 -0.0492
   51POPC   D2A 1099   8.206   1.541   8.464  0.1180 -0.5309 -0.2087
   51POPC   C3A 1100   8.061   1.501   8.033  0.1551  0.2439  0.2886
   51POPC   C4A 1101   7.804   1.714   7.604 -0.2856 -0.0286  0.1535
   51POPC   C1B 1102   8.655   1.598   8.727  0.0116  0.2304  0.0972
   51POPC   C2B 1103   8.613   1.276   8.587  0.0711  0.2595 -0.2828
   51POPC   C3B 1104   8.501   1.235   8.175 -0.3582 -0.2493  0.0389
   51POPC   C4B 1105   8.355   1.172   7.774  0.0788 -0.1919  0.0398
   52POPC   NC3 1106   3.794   3.005   9.345 -0.0961  0.0281 -0.0507
   52POPC   PO4 1107   3.980   2.699   9.089  0.0928  0.2079 -0.1620
   52POPC   GL1 1108   4.018   2.704   8.676 -0.3252 -0.0471  0.3498
   52POPC   GL2 1109   4.351   2.582   8.652  0.4115 -0.1879  0.1722
   52POPC   C1A 1110   3.841   2.967   8.333  0.0398 -0.1086  0.3686
   52POPC   D2A 1111   3.953   3.167   7.956  0.1614 -0.0548  0.1345
   52POPC   C3A 1112   3.838   2.981   7.550  0.0163  0.2967  0.0690
   52POPC   C4A 1113   3.891   3.012   7.041  0.0553  0.1741 -0.1234
   52POPC   C1B 1114   4.694   2.595   8.391  0.1420  0.0751  0.0541
   52POPC   C2B 1115   5.096   2.652   8.207 -0.0508  0.3948  0.1995
   52POPC   C3B 1116   4.905   2.651   7.745 -0.3378  0.1521  0.3058
   52POPC   C4B 1117   4.774   2.813   7.369 -0.0458 -0.0206 -0.0256
   53POPC   NC3 1118   6.948   0.407   9.678  0.1109 -0.0133  0.0174
   53POPC   PO4 1119   6.917  -0.037   9.612 -0.2986  0.1951 -0.0133
   53POPC   GL1 1120   7.088   0.098   9.240  0.1434  0.2380 -0.1963
   53POPC   GL2 1121   6.807   0.096   9.079 -0.0385 -0.0590 -0.0723
   53POPC   C1A 1122   7.305   0.204   8.927  0.0400  0.1154  0.0241
   53POPC   D2A 1123   7.622   0.026   8.659  0.0008 -0.0370  0.0675
   53POPC   C3A 1124   7.583   0.087   8.269 -0.0843  0.0258 -0.0866
   53POPC   C4A 1125   7.960   0.407   8.175  0.2256 -0.4921 -0.1742
   53POPC   C1B 1126   6.751   0.138   8.620  0.0821  0.1799  0.2108
   53POPC   C2B 1127   6.674   0.330   8.172 -0.1036 -0.2947 -0.0133
   53POPC   C3B 1128   6.432   0.615   7.991  0.1980 -0.0216 -0.2919
   53POPC   C4B 1129   6.421   0.847   7.576 -0.1819  0.2398  0.1215
   54POPC   NC3 1130   5.050   5.842   8.790  0.1666  0.1132 -0.1485
   54POPC   PO4 1131   5.455   5.821   8.529 -0.4270 -0.2622  0.0648
   54POPC   GL1 1132   5.654   5.671   8.212 -0.3405 -0.0633  0.0236
   54POPC   GL2 1133   5.733   5.896   7.980 -0.0274 -0.2149 -0.0369
   54POPC   C1A 1134   5.654   5.459   7.831 -0.2992  0.1531  0.0152
   54POPC   D2A 1135   5.784   5.622   7.411 -0.0331 -0.0181  0.0306
   54POPC   C3A 1136   6.122   5.776   7.598  0.0974 -0.3036 -0.1060
   54POPC   C4A 1137   6.532   5.856   7.660  0.0625  0.0125 -0.1521
   54POPC   C1B 1138   5.560   6.035   7.622 -0.1499  0.0372 -0.1354
   54POPC   C2B 1139   5.034   6.014   7.536  0.1284  0.0485  0.1284
   54POPC   C3B 1140   4.864   5.903   7.263  0.3010  0.3938 -0.0187
   54POPC   C4B 1141   4.601   6.034   7.003  0.2374 -0.1081 -0.0099
   55POPC   NC3 1142   4.344   6.359   9.041  0.0110  0.0085 -0.1766
   55POPC   PO4 1143   4.025   6.680   9.088  0.1112  0.1055  0.0714
   55POPC   GL1 1144   4.060   6.480   8.604 -0.2108 -0.2227 -0.1946
   55POPC   GL2 1145   3.819   6.657   8.496  0.0115  0.0338  0.2234
   55POPC   C1A 1146   4.232   6.770   8.265 -0.0223  0.2245  0.1818
   55POPC   D2A 1147   4.339   6.875   7.830 -0.1886 -0.2512  0.1532
   55POPC   C3A 1148   4.408   7.077   7.473  0.1896  0.0905  0.3068
   55POPC   C4A 1149   4.415   7.481   7.334  0.1561  0.1284  0.0351
   55POPC   C1B 1150   3.791   6.638   8.081 -0.0000  0.0415  0.0239
   55POPC   C2B 1151   3.553   6.809   7.726 -0.1641 -0.3019 -0.1053
   55POPC   C3B 1152   3.124   6.748   7.611 -0.1506  0.5666 -0.3384
   55POPC   C4B 1153   3.148   6.578   7.219 -0.0383  0.0608  0.0890
   56POPC   NC3 1154   8.397   4.112   8.762 -0.0943 -0.1518 -0.1899
   56POPC   PO4 1155   8.673   4.010   8.502  0.0184  0.0748  0.1081
   56POPC   GL1 1156   8.715   4.358   8.201  0.0423 -0.1124 -0.0761
   56POPC   GL2 1157   8.625   4.249   7.976 -0.0437  0.0014  0.2254
   56POPC   C1A 1158   9.107   4.369   7.870  0.1891 -0.1186 -0.3502
   56POPC   D2A 1159   9.282   4.270   7.444 -0.0377 -0.2702 -0.1395
   56POPC   C3A 1160   9.268   3.873   7.270 -0.3185  0.2066 -0.1503
   56POPC   C4A 1161   9.348   3.593   6.944 -0.0955 -0.1920  0.1712
   56POPC   C1B 1162   8.616   4.736   7.767 -0.1559  0.3520 -0.0776
   56POPC   C2B 1163   8.617   5.259   7.657  0.0089  0.1427 -0.1405
   56POPC   C3B 1164   8.188   5.465   7.577 -0.1578 -0.1172 -0.3597
   56POPC   C4B 1165   7.846   5.694   7.508 -0.1414  0.0014  0.2432
   57POPC   NC3 1166   7.478   4.330   9.076  0.3263 -0.1680  0.1499
   57POPC   PO4 1167   7.308   3.977   9.056 -0.0743 -0.0965  0.3331
   57POPC   GL1 1168   7.179   3.739   8.606 -0.1697  0.1352 -0.0470
   57POPC   GL2 1169   6.802   3.819   8.541 -0.3489  0.0165 -0.0942
   57POPC   C1A 1170   7.171   3.634   8.154 -0.1243  0.0315 -0.0151
   57POPC   D2A 1171   7.312   3.475   7.897 -0.1450  0.1998  0.1181
   57POPC   C3A 1172   7.083   3.064   7.685  0.0646  0.2830 -0.1417
   57POPC   C4A 1173   6.941   2.763   7.447 -0.3417 -0.1297 -0.2160
   57POPC   C1B 1174   6.753   3.890   8.099 -0.1002 -0.1568  0.3505
   57POPC   C2B 1175   6.877   4.215   7.944  0.2280  0.0796 -0.2276
   57POPC   C3B 1176   7.073   4.396   7.666  0.0987 -0.1293  0.3936
   57POPC   C4B 1177   6.972   4.603   7.293 -0.1912  0.3545 -0.0570
   58POPC   NC3 1178   0.248   0.944   9.112 -0.0077  0.3369  0.2103
   58POPC   PO4 1179   0.636   0.940   9.085 -0.1960 -0.1184  0.0334
   58POPC   GL1 1180   0.634   0.648   8.757  0.1633  0.0091 -0.5454
   58POPC   GL2 1181   0.932   0.892   8.635 -0.4134  0.0394  0.0111
   58POPC   C1A 1182   0.601   0.515   8.303  0.0372 -0.2284 -0.1227
   58POPC   D2A 1183   0.367   0.533   7.892 -0.1020 -0.0817  0.1956
   58POPC   C3A 1184   0.238   0.914   7.865  0.2676  0.2967 -0.0223
   58POPC   C4A 1185   0.060   1.351   7.925  0.0234  0.0575  0.2160
   58POPC   C1B 1186   1.056   0.859   8.087  0.3861 -0.1501  0.2076
   58POPC   C2B 1187   1.093   1.096   7.702  0.2110 -0.4215 -0.3471
   58POPC   C3B 1188   1.261   1.131   7.344  0.2240 -0.0551  0.2062
   58POPC   C4B 1189   1.175   1.300   7.050  0.3057 -0.1268 -0.5085
   59POPC   NC3 1190   1.701   3.217   9.045 -0.2217 -0.1648  0.0211
   59POPC   PO4 1191   1.806   2.839   9.118  0.1644  0.2384 -0.0587
   59POPC   GL1 1192   1.910   2.627   8.672 -0.0014  0.2501  0.1138
   59POPC   GL2 1193   1.946   2.253   8.584 -0.1451 -0.1511  0.1533
   59POPC   C1A 1194   1.687   2.622   8.314  0.3610  0.3078 -0.2067
   59POPC   D2A 1195   1.418   2.747   7.977 -0.1894  0.0052  0.0493
   59POPC   C3A 1196   1.271   2.474   7.761  0.0742 -0.0378  0.1589
   59POPC   C4A 1197   1.257   2.112   7.691  0.3374  0.1001 -0.0772
   59POPC   C1B 1198   2.051   2.321   8.087 -0.3070  0.0180  0.2069
   59POPC   C2B 1199   1.839   2.539   7.729 -0.0758 -0.0302 -0.1533
   59POPC   C3B 1200   1.732   2.314   7.385 -0.1224 -0.1741  0.0360
   59POPC   C4B 1201   1.678   2.203   7.009  0.1832 -0.0990 -0.0766
   60POPC   NC3 1202  10.242   3.265   8.769 -0.1640 -0.0894  0.3168
   60POPC   PO4 1203  10.232   3.666   8.678  0.2512 -0.1020  0.0383
   60POPC   GL1 1204  10.118   3.664   8.266  0.1224  0.0247 -0.1912
   60POPC   GL2 1205  10.235   3.400   8.216 -0.1068  0.1668 -0.3099
   60POPC   C1A 1206   9.908   3.512   7.839 -0.0584 -0.3516 -0.1278
   60POPC   D2A 1207   9.662   3.436   7.502  0.1141  0.1453  0.0739
   60POPC   C3A 1208   9.746   3.252   7.057 -0.1017  0.5241 -0.0136
   60POPC   C4A 1209   9.839   3.585   6.773 -0.2347 -0.1634  0.2912
   60POPC   C1B 1210  10.407   3.333   7.812  0.3928 -0.1699  0.0579
   60POPC   C2B 1211  10.737   3.321   7.457  0.2421  0.1821 -0.0044
   60POPC   C3B 1212  10.861   3.474   7.065  0.2114 -0.0258 -0.0948
   60POPC   C4B 1213  10.920   3.420   6.654 -0.2734 -0.0784  0.4555
   61POPC   NC3 1214   2.137   1.613   9.565  0.0637  0.1827  0.2129
   61POPC   PO4 1215   2.402   1.381   9.621  0.1501  0.0201 -0.2173
   61POPC   GL1 1216   2.491   1.484   9.186  0.1519  0.0774  0.3448
   61POPC   GL2 1217   2.718   1.186   9.040  0.1739 -0.2119  0.1261
   61POPC   C1A 1218   2.605   1.574   8.814  0.0616 -0.0990  0.1688
   61POPC   D2A 1219   2.392   1.847   8.545 -0.1710 -0.0751  0.1012
   61POPC   C3A 1220   2.423   2.359   8.427  0.2367  0.1330 -0.2381
   61POPC   C4A 1221   2.889   2.599   8.384 -0.0549 -0.1527 -0.0428
   61POPC   C1B 1222   2.793   1.231   8.513 -0.1730 -0.0708 -0.4021
   61POPC   C2B 1223   2.832   1.442   8.142  0.2642 -0.1663  0.1302
   61POPC   C3B 1224   3.042   1.280   7.812 -0.1144 -0.0388  0.1596
   61POPC   C4B 1225   2.786   1.118   7.540 -0.0165  0.1543  0.0779
   62POPC   NC3 1226   1.192   4.061   9.243  0.1417  0.4044  0.2087
   62POPC   PO4 1227   1.542   3.874   9.320  0.2205  0.0598 -0.0619
   62POPC   GL1 1228   1.550   3.728   8.949 -0.0065  0.0091  0.1770
   62POPC   GL2 1229   1.722   3.588   8.688  0.0561 -0.0697  0.0466
   62POPC   C1A 1230   1.526   4.098   8.458 -0.2016  0.0355 -0.0498
   62POPC   D2A 1231   1.375   4.233   8.234 -0.0666  0.0760 -0.1874
   62POPC   C3A 1232   1.295   4.220   7.852  0.4834  0.1789  0.1157
   62POPC   C4A 1233   1.293   4.065   7.495 -0.1552 -0.0260 -0.0252
   62POPC   C1B 1234   1.841   3.604   8.285 -0.1934 -0.3647  0.0049
   62POPC   C2B 1235   1.982   3.644   7.792 -0.1708 -0.2103 -0.1426
   62POPC   C3B 1236   2.381   3.626   7.499  0.1425 -0.1812 -0.3500
   62POPC   C4B 1237   2.598   3.313   7.537 -0.0596 -0.1769  0.2358
   63POPC   NC3 1238   7.497   2.978   9.209  0.1963 -0.1347  0.4082
   63POPC   PO4 1239   7.452   2.516   9.423 -0.2742  0.2222  0.0950
   63POPC   GL1 1240   7.681   2.511   8.937 -0.0612 -0.1075  0.0242
   63POPC   GL2 1241   7.717   2.867   8.795  0.1711  0.0965 -0.3953
   63POPC   C1A 1242   7.684   2.431   8.540  0.0536  0.0599 -0.1904
   63POPC   D2A 1243   7.746   2.462   8.083  0.1367 -0.1995 -0.0616
   63POPC   C3A 1244   7.732   2.295   7.631  0.0112 -0.1685  0.0468
   63POPC   C4A 1245   7.726   2.095   7.274  0.0723 -0.2871 -0.1651
   63POPC   C1B 1246   7.524   2.920   8.448 -0.0562 -0.3055 -0.0766
   63POPC   C2B 1247   7.485   3.017   7.993 -0.1238 -0.0786 -0.1533
   63POPC   C3B 1248   7.507   2.751   7.695  0.1387  0.1119  0.0332
   63POPC   C4B 1249   7.523   2.557   7.237  0.2924 -0.0927  0.2276
   64POPC   NC3 1250   9.867   9.888   9.801 -0.1138 -0.1292 -0.0382
   64POPC   PO4 1251  10.068   9.628   9.648 -0.0660  0.0888  0.0365
   64POPC   GL1 1252  10.036   9.606   9.280 -0.0251  0.0925  0.0412
   64POPC   GL2 1253  10.080  10.029   9.289 -0.0495  0.0873 -0.1776
   64POPC   C1A 1254   9.924   9.523   8.857  0.0392 -0.1719 -0.1797
   64POPC   D2A 1255   9.743   9.676   8.452  0.0922 -0.4790 -0.0342
   64POPC   C3A 1256   9.735   9.498   8.024 -0.2693 -0.0630 -0.1886
   64POPC   C4A 1257   9.650   9.656   7.592 -0.0999 -0.0229  0.2647
   64POPC   C1B 1258  10.167   9.933   8.864  0.2980 -0.2292  0.2155
   64POPC   C2B 1259  10.235   9.781   8.457  0.1344 -0.0298  0.3147
   64POPC   C3B 1260  10.418   9.875   8.166 -0.1342 -0.3841  0.0239
   64POPC   C4B 1261  10.696   9.738   7.817  0.0023  0.0953  0.1769
   65POPC   NC3 1262   7.950   9.001   9.865  0.0205 -0.0165 -0.0470
   65POPC   PO4 1263   8.106   9.425   9.973 -0.0511 -0.0986 -0.1097
   65POPC   GL1 1264   8.016   9.304   9.479 -0.1656 -0.0115 -0.5315
   65POPC   GL2 1265   7.780   9.349   9.267 -0.0002  0.0357 -0.2264
   65POPC   C1A 1266   8.386   9.193   9.192  0.1052 -0.1991 -0.0173
   65POPC   D2A 1267   8.530   8.934   8.952 -0.2210  0.1795 -0.4069
   65POPC   C3A 1268   8.199   8.774   8.766  0.2228 -0.2266  0.1507
   65POPC   C4A 1269   8.057   8.415   8.588 -0.1104  0.1100  0.1350
   65POPC   C1B 1270   7.865   8.859   9.259  0.0731 -0.1448  0.3835
   65POPC   C2B 1271   8.046   8.434   9.203  0.1263  0.2784 -0.1922
   65POPC   C3B 1272   7.819   7.963   9.003  0.2970 -0.1229  0.0640
   65POPC   C4B 1273   7.890   7.689   8.847 -0.2195 -0.2861 -0.1232
   66POPC   NC3 1274   7.406   4.957   8.788  0.0255  0.1903 -0.0366
   66POPC   PO4 1275   7.006   5.069   8.835  0.1821  0.1086 -0.1382
   66POPC   GL1 1276   7.037   5.114   8.404  0.1926 -0.1120  0.0134
   66POPC   GL2 1277   6.733   5.376   8.355  0.2515  0.2185 -0.4204
   66POPC   C1A 1278   7.140   5.263   8.066  0.0911 -0.1849 -0.1612
   66POPC   D2A 1279   7.432   5.639   7.842 -0.4448  0.1483 -0.3161
   66POPC   C3A 1280   7.317   5.742   7.424 -0.0383 -0.0602  0.3113
   66POPC   C4A 1281   7.289   5.778   6.954 -0.0252  0.2702  0.3398
   66POPC   C1B 1282   6.614   5.246   7.923 -0.4509  0.0152 -0.3227
   66POPC   C2B 1283   6.467   4.969   7.561 -0.1676  0.3029  0.0475
   66POPC   C3B 1284   6.497   4.763   7.107 -0.0804 -0.0191  0.0398
   66POPC   C4B 1285   6.435   4.592   6.692  0.2599 -0.0778 -0.0465
   67POPC   NC3 1286   4.586   8.859   9.027 -0.2130 -0.0416 -0.0205
   67POPC   PO4 1287   4.443   9.346   9.239  0.1392  0.1391  0.0437
   67POPC   GL1 1288   4.726   9.451   8.944  0.1588  0.0414  0.0285
   67POPC   GL2 1289   4.917   9.202   8.889 -0.3509  0.1723  0.1260
   67POPC   C1A 1290   4.762   9.494   8.494 -0.0777 -0.3775  0.1396
   67POPC   D2A 1291   4.619   9.642   8.196 -0.3408  0.3144  0.0418
   67POPC   C3A 1292   4.776   9.621   7.768  0.1486 -0.4093  0.0369
   67POPC   C4A 1293   4.721   9.317   7.384  0.0669 -0.2248  0.1444
   67POPC   C1B 1294   5.038   9.069   8.561 -0.1805  0.0430  0.1476
   67POPC   C2B 1295   5.466   9.063   8.216 -0.3638 -0.2908 -0.0690
   67POPC   C3B 1296   5.588   9.371   7.868  0.0015  0.0908  0.0300
   67POPC   C4B 1297   5.642   9.574   7.429 -0.1287  0.0115  0.0864
   68POPC   NC3 1298   9.521   9.521   9.773  0.0581 -0.2139  0.3249
   68POPC   PO4 1299   9.147   9.764   9.588  0.3159 -0.2198  0.1148
   68POPC   GL1 1300   9.198   9.552   9.187  0.0402 -0.0630 -0.0100
   68POPC   GL2 1301   9.542   9.451   9.255 -0.2551  0.2423 -0.2015
   68POPC   C1A 1302   9.401   9.711   8.868 -0.3117 -0.0328  0.0619
   68POPC   D2A 1303   9.330   9.925   8.502  0.0637  0.3945  0.1422
   68POPC   C3A 1304   8.878  10.039   8.465 -0.0364  0.1316 -0.1103
   68POPC   C4A 1305   8.650  10.402   8.529  0.2078  0.0357  0.0667
   68POPC   C1B 1306   9.554   9.181   8.880 -0.2933 -0.1545 -0.2849
   68POPC   C2B 1307   9.700   9.209   8.485 -0.0372 -0.1272 -0.1075
   68POPC   C3B 1308   9.929   9.011   8.186 -0.1268  0.2033 -0.0567
   68POPC   C4B 1309  10.277   8.930   7.756  0.2309 -0.0927 -0.0762
   69POPC   NC3 1310   2.823   5.637   9.600  0.0921  0.1361  0.0289
   69POPC   PO4 1311   3.001   5.582   9.138 -0.0336 -0.1978 -0.0928
   69POPC   GL1 1312   2.893   5.702   8.655 -0.0734 -0.1492  0.1384
   69POPC   GL2 1313   3.086   5.772   8.532 -0.1756 -0.0229 -0.1066
   69POPC   C1A 1314   2.741   5.533   8.217  0.3030  0.0137  0.0937
   69POPC   D2A 1315   2.801   5.448   7.844 -0.1074  0.2570 -0.1010
   69POPC   C3A 1316   2.416   5.622   7.653 -0.1686 -0.2483  0.0023
   69POPC   C4A 1317   2.319   5.783   7.270  0.4523  0.0007 -0.1655
   69POPC   C1B 1318   3.109   5.784   8.054 -0.1228 -0.1720 -0.3339
   69POPC   C2B 1319   3.486   5.952   7.703  0.1804  0.0846 -0.1657
   69POPC   C3B 1320   3.851   5.962   7.443 -0.0963  0.0716  0.2346
   69POPC   C4B 1321   4.177   6.161   7.275  0.1135 -0.0054 -0.1659
   70POPC   NC3 1322   0.913   4.787   9.630 -0.0248  0.0393 -0.0650
   70POPC   PO4 1323   1.127   5.034   9.206  0.0894 -0.0050  0.1139
   70POPC   GL1 1324   0.968   4.933   8.819  0.0712  0.2441 -0.1071
   70POPC   GL2 1325   1.258   5.073   8.684 -0.1153 -0.0816 -0.2287
   70POPC   C1A 1326   0.881   4.784   8.417  0.0921 -0.1183 -0.1241
   70POPC   D2A 1327   1.080   4.585   8.115  0.4021  0.2696 -0.1459
   70POPC   C3A 1328   0.979   4.594   7.673  0.1670  0.1105  0.1046
   70POPC   C4A 1329   0.831   4.236   7.345 -0.0096  0.0970 -0.1086
   70POPC   C1B 1330   1.226   5.118   8.240 -0.0823 -0.0453  0.2041
   70POPC   C2B 1331   1.444   5.169   7.812 -0.1683  0.0563 -0.0398
   70POPC   C3B 1332   1.623   5.175   7.339  0.1717  0.2774 -0.0076
   70POPC   C4B 1333   1.686   5.211   6.884  0.3129 -0.0480 -0.0916
   71POPC   NC3 1334   1.829   0.108   9.402  0.1223  0.3319 -0.1862
   71POPC   PO4 1335   2.094   0.587   9.148  0.0381 -0.0063 -0.3700
   71POPC   GL1 1336   2.245   0.545   8.796  0.1829  0.0554 -0.0511
   71POPC   GL2 1337   2.435   0.685   8.808  0.1761 -0.1027 -0.1369
   71POPC   C1A 1338   2.131   0.237   8.527 -0.0459 -0.1659 -0.1839
   71POPC   D2A 1339   1.888   0.091   8.161  0.0402  0.1993  0.2390
   71POPC   C3A 1340   2.035   0.216   7.761 -0.0820  0.3175  0.2104
   71POPC   C4A 1341   2.044   0.525   7.578  0.1024 -0.1921  0.1844
   71POPC   C1B 1342   2.627   0.359   8.559 -0.0301 -0.1525  0.2433
   71POPC   C2B 1343   2.861   0.070   8.255 -0.0365 -0.1719  0.4767
   71POPC   C3B 1344   2.890  -0.204   7.915  0.1073 -0.1302  0.1407
   71POPC   C4B 1345   2.752  -0.264   7.512  0.0255  0.2095 -0.0580
   72POPC   NC3 1346   3.788   5.588   9.187 -0.2220  0.1290 -0.0762
   72POPC   PO4 1347   3.694   5.902   8.713  0.1841 -0.1295  0.0225
   72POPC   GL1 1348   4.094   5.993   8.505 -0.0623 -0.2681 -0.1634
   72POPC   GL2 1349   4.168   5.823   8.255 -0.1875  0.0467  0.1253
   72POPC   C1A 1350   4.402   6.284   8.185 -0.2647  0.0496  0.0751
   72POPC   D2A 1351   4.719   6.430   7.860  0.0404  0.0001 -0.0679
   72POPC   C3A 1352   4.633   6.396   7.406  0.1454  0.0109  0.2968
   72POPC   C4A 1353   4.419   6.719   7.104 -0.2372 -0.1273 -0.2982
   72POPC   C1B 1354   4.018   6.167   7.888  0.3539 -0.1077 -0.0850
   72POPC   C2B 1355   4.044   6.541   7.620  0.0895  0.0671 -0.1587
   72POPC   C3B 1356   3.927   6.679   7.075 -0.0911 -0.0356  0.1944
   72POPC   C4B 1357   3.861   6.846   6.642  0.2394 -0.1079  0.2025
   73POPC   NC3 1358   2.303   9.058   9.021 -0.2820 -0.2321 -0.0391
   73POPC   PO4 1359   2.614   8.703   9.082 -0.0219  0.2932 -0.1564
   73POPC   GL1 1360   2.554   8.675   8.692  0.1191 -0.4416 -0.0811
   73POPC   GL2 1361   2.713   9.028   8.688 -0.0962 -0.2079  0.2524
   73POPC   C1A 1362   2.317   8.743   8.253 -0.2000 -0.3938  0.0127
   73POPC   D2A 1363   2.070   9.068   7.951  0.1527  0.0891  0.3072
   73POPC   C3A 1364   2.067   9.019   7.621  0.1599  0.2826 -0.4672
   73POPC   C4A 1365   2.000   8.649   7.462 -0.0129  0.0710 -0.1527
   73POPC   C1B 1366   2.797   8.855   8.249 -0.0143 -0.3196 -0.3033
   73POPC   C2B 1367   3.045   8.674   7.894  0.0545  0.1096  0.0812
   73POPC   C3B 1368   3.378   8.622   7.598 -0.0940 -0.0928  0.0180
   73POPC   C4B 1369   3.351   8.567   7.176 -0.0641  0.1504 -0.2066
   74POPC   NC3 1370   5.914   9.097   9.514  0.1773  0.0245 -0.1696
   74POPC   PO4 1371   5.421   9.047   9.515  0.2348 -0.0059 -0.3254
   74POPC   GL1 1372   5.469   9.022   9.056 -0.1440  0.2466  0.0529
   74POPC   GL2 1373   5.684   8.819   8.936 -0.0631  0.0286 -0.1373
   74POPC   C1A 1374   5.417   9.284   8.780  0.1434 -0.0094 -0.0694
   74POPC   D2A 1375   5.536   9.533   8.418 -0.0339 -0.0644  0.0051
   74POPC   C3A 1376   5.969   9.336   8.248  0.1181  0.1488  0.0089
   74POPC   C4A 1377   5.982   9.021   8.591  0.0875  0.1184  0.0877
   74POPC   C1B 1378   5.398   8.620   8.756  0.0856  0.0269  0.0962
   74POPC   C2B 1379   5.141   8.530   8.431  0.0437  0.2268  0.2752
   74POPC   C3B 1380   4.993   8.660   8.064  0.0641  0.3022 -0.1518
   74POPC   C4B 1381   4.881   8.800   7.669 -0.4056  0.0674  0.2502
   75POPC   NC3 1382   5.571   6.586   8.480 -0.0202 -0.0264 -0.2178
   75POPC   PO4 1383   5.679   6.961   8.562  0.0981 -0.3241  0.1659
   75POPC   GL1 1384   5.498   6.992   8.132  0.0470  0.2488  0.1074
   75POPC   GL2 1385   5.323   6.646   8.048 -0.0465 -0.2145  0.1109
   75POPC   C1A 1386   5.470   6.998   7.738 -0.2110 -0.3312 -0.1500
   75POPC   D2A 1387   5.673   6.863   7.283 -0.1532 -0.2668  0.1426
   75POPC   C3A 1388   5.395   6.659   6.894  0.0301  0.0519  0.1801
   75POPC   C4A 1389   5.251   6.380   6.617 -0.1887 -0.3305  0.2406
   75POPC   C1B 1390   5.330   6.476   7.605 -0.0369 -0.0704  0.1402
   75POPC   C2B 1391   5.341   6.247   7.155  0.5448 -0.3961  0.0213
   75POPC   C3B 1392   5.642   6.148   6.870  0.3208  0.2384  0.0093
   75POPC   C4B 1393   6.027   6.102   6.706  0.3016  0.2193 -0.2753
   76POPC   NC3 1394   6.277   8.208  10.016 -0.0190 -0.2548 -0.0011
   76POPC   PO4 1395   6.492   8.279   9.703 -0.1549  0.1147 -0.0605
   76POPC   GL1 1396   6.551   8.171   9.229  0.1198  0.1475  0.0156
   76POPC   GL2 1397   6.740   7.920   9.136 -0.0284  0.1806 -0.0601
   76POPC   C1A 1398   6.706   8.355   8.885  0.1361 -0.3298 -0.1888
   76POPC   D2A 1399   6.771   8.814   8.877 -0.3111  0.1976 -0.0814
   76POPC   C3A 1400   6.877   8.968   8.464 -0.2669  0.3613  0.4823
   76POPC   C4A 1401   7.172   8.786   8.139 -0.0425  0.0121  0.0539
   76POPC   C1B 1402   7.071   8.043   8.951 -0.1134 -0.0905 -0.1227
   76POPC   C2B 1403   7.161   8.501   8.687 -0.2332  0.0092  0.3147
   76POPC   C3B 1404   7.527   8.879   8.707  0.0372 -0.2458 -0.0128
   76POPC   C4B 1405   7.904   8.908   8.383  0.1277  0.1540 -0.2060
   77POPC   NC3 1406   2.400   3.525   9.414  0.0097  0.1558 -0.0405
   77POPC   PO4 1407   2.319   3.448   8.983 -0.2642 -0.3382  0.2349
   77POPC   GL1 1408   2.504   3.736   8.712  0.0929  0.1927 -0.1870
   77POPC   GL2 1409   2.802   3.722   8.431  0.1217  0.0463 -0.0058
   77POPC   C1A 1410   2.315   3.766   8.264  0.2724  0.1677  0.1310
   77POPC   D2A 1411   2.582   3.590   7.946 -0.0807  0.4623 -0.3106
   77POPC   C3A 1412   2.828   3.115   7.904  0.0021 -0.4753 -0.0078
   77POPC   C4A 1413   3.066   2.989   7.564  0.2202 -0.2507  0.0146
   77POPC   C1B 1414   2.804   4.049   8.106 -0.1020 -0.2020 -0.3421
   77POPC   C2B 1415   2.823   3.950   7.617  0.1187 -0.0169 -0.0022
   77POPC   C3B 1416   2.886   4.136   7.143  0.1563  0.1130  0.1255
   77POPC   C4B 1417   2.863   3.975   6.715  0.3075  0.0560 -0.1206
   78POPC   NC3 1418   1.729   0.964   9.187 -0.1543 -0.1739  0.2098
   78POPC   PO4 1419   1.326   1.257   9.043 -0.1971 -0.0627  0.1725
   78POPC   GL1 1420   1.460   0.982   8.712 -0.1548 -0.0762 -0.1953
   78POPC   GL2 1421   1.788   0.865   8.681  0.3543  0.2113 -0.1588
   78POPC   C1A 1422   1.378   0.734   8.434 -0.0233  0.1821  0.1613
   78POPC   D2A 1423   1.091   0.404   8.292  0.1907 -0.0637  0.2866
   78POPC   C3A 1424   1.337  -0.011   8.127 -0.2856 -0.1059  0.2254
   78POPC   C4A 1425   1.539  -0.134   7.859  0.0138 -0.2139  0.1444
   78POPC   C1B 1426   1.899   0.610   8.266  0.0030 -0.0404 -0.1827
   78POPC   C2B 1427   1.685   0.426   7.939 -0.3719  0.2601  0.1888
   78POPC   C3B 1428   1.331   0.343   7.768 -0.0647  0.0710 -0.0986
   78POPC   C4B 1429   1.037   0.448   7.455 -0.1312  0.1286  0.0469
   79POPC   NC3 1430   5.311   7.202   8.832 -0.0911 -0.0962  0.2954
   79POPC   PO4 1431   5.097   7.202   8.478 -0.0354 -0.1462  0.0587
   79POPC   GL1 1432   4.962   7.043   7.989  0.1065  0.6200  0.1679
   79POPC   GL2 1433   4.950   7.320   7.750  0.1074 -0.0067 -0.0018
   79POPC   C1A 1434   4.876   6.836   7.593  0.1772 -0.1192 -0.2698
   79POPC   D2A 1435   5.017   6.616   7.209  0.0495 -0.4272 -0.0986
   79POPC   C3A 1436   4.813   6.566   6.830  0.0506 -0.1781  0.3898
   79POPC   C4A 1437   4.395   6.802   6.635 -0.2467 -0.1270  0.1290
   79POPC   C1B 1438   4.727   7.765   7.694  0.3246 -0.0967 -0.2474
   79POPC   C2B 1439   4.453   7.956   7.478 -0.2643 -0.3093 -0.4215
   79POPC   C3B 1440   4.025   8.006   7.316  0.3012  0.1626  0.0063
   79POPC   C4B 1441   3.824   8.318   7.137  0.1356 -0.1055  0.1308
   80POPC   NC3 1442   4.221   0.974   9.675  0.0139  0.3975  0.4233
   80POPC   PO4 1443   4.516   0.671   9.442  0.1441 -0.4987 -0.0541
   80POPC   GL1 1444   4.525   0.480   8.967 -0.0593 -0.0123  0.1689
   80POPC   GL2 1445   4.608   0.194   8.907 -0.1794 -0.1546  0.1026
   80POPC   C1A 1446   4.350   0.429   8.516  0.0951  0.1300  0.1047
   80POPC   D2A 1447   4.242   0.545   8.055  0.1053 -0.0114 -0.1619
   80POPC   C3A 1448   4.598   0.588   7.778 -0.2683 -0.0426 -0.1499
   80POPC   C4A 1449   5.012   0.578   7.603  0.0816 -0.1204 -0.1737
   80POPC   C1B 1450   4.883   0.068   8.497  0.0706 -0.0013  0.0362
   80POPC   C2B 1451   5.291   0.106   8.271 -0.1418 -0.1063  0.1524
   80POPC   C3B 1452   5.627   0.293   8.177 -0.3233 -0.0677  0.0470
   80POPC   C4B 1453   5.955   0.569   8.012 -0.1696 -0.1325  0.3430
   81POPC   NC3 1454   8.329   7.098   9.515 -0.2342 -0.3258 -0.0514
   81POPC   PO4 1455   7.985   7.474   9.537  0.4368 -0.0943  0.0997
   81POPC   GL1 1456   8.265   7.539   9.265 -0.0979 -0.0197  0.1406
   81POPC   GL2 1457   8.236   7.245   9.035  0.0941  0.0451 -0.0365
   81POPC   C1A 1458   8.323   7.977   9.065 -0.1677 -0.3274 -0.0439
   81POPC   D2A 1459   8.403   8.284   8.895  0.0859 -0.3219  0.2150
   81POPC   C3A 1460   8.607   8.312   8.564 -0.1196  0.0124  0.0014
   81POPC   C4A 1461   8.942   8.291   8.184 -0.0643 -0.0280 -0.0501
   81POPC   C1B 1462   8.192   7.369   8.706  0.5375  0.0582  0.2063
   81POPC   C2B 1463   8.177   7.528   8.260 -0.0118 -0.0441 -0.1636
   81POPC   C3B 1464   8.227   7.665   7.876 -0.2365 -0.1052  0.0489
   81POPC   C4B 1465   8.560   7.643   7.441 -0.1233 -0.0152  0.1278
   82POPC   NC3 1466   4.561   4.995   8.778  0.0601  0.2305  0.0478
   82POPC   PO4 1467   5.004   5.045   8.751  0.1005  0.0755  0.3571
   82POPC   GL1 1468   4.853   5.055   8.338  0.1366  0.0320  0.1304
   82POPC   GL2 1469   4.563   4.849   8.268 -0.3396 -0.1351  0.1304
   82POPC   C1A 1470   4.679   5.381   8.010 -0.0389 -0.1375  0.1388
   82POPC   D2A 1471   4.773   5.578   7.641  0.1663  0.2704 -0.0545
   82POPC   C3A 1472   4.538   5.519   7.285 -0.0301  0.0024 -0.0884
   82POPC   C4A 1473   4.286   5.549   7.030  0.1541 -0.1002 -0.2189
   82POPC   C1B 1474   4.784   4.829   7.888  0.0448  0.1325  0.1628
   82POPC   C2B 1475   4.649   4.702   7.427 -0.0146 -0.0811  0.1868
   82POPC   C3B 1476   4.767   4.883   7.039  0.0626 -0.2378 -0.0043
   82POPC   C4B 1477   4.647   5.009   6.671 -0.2461  0.3267 -0.1332
   83POPC   NC3 1478   4.291   4.461   8.798  0.3191 -0.2023  0.0400
   83POPC   PO4 1479   4.691   4.469   8.675 -0.0133  0.3314 -0.0152
   83POPC   GL1 1480   4.906   4.466   8.273 -0.0169  0.0179 -0.2113
   83POPC   GL2 1481   5.160   4.499   8.429 -0.1217  0.2325 -0.2229
   83POPC   C1A 1482   4.729   4.323   7.928 -0.2606 -0.0724  0.2077
   83POPC   D2A 1483   4.346   4.618   7.868 -0.3360  0.0473 -0.0912
   83POPC   C3A 1484   4.139   4.561   7.402  0.1507 -0.2656 -0.2925
   83POPC   C4A 1485   4.068   4.279   7.157 -0.0087  0.3650 -0.0508
   83POPC   C1B 1486   5.266   4.713   8.076 -0.1529 -0.0504 -0.0717
   83POPC   C2B 1487   5.253   4.740   7.669 -0.2458  0.1706  0.0146
   83POPC   C3B 1488   5.189   4.761   7.209  0.1341  0.0204 -0.0133
   83POPC   C4B 1489   5.241   4.904   6.739 -0.2835 -0.0096  0.2996
   84POPC   NC3 1490   7.688   6.512   9.542 -0.0871 -0.2391  0.0657
   84POPC   PO4 1491   8.100   6.593   9.351  0.1611 -0.0046  0.1388
   84POPC   GL1 1492   7.968   6.825   8.977  0.3046 -0.0261  0.2470
   84POPC   GL2 1493   8.262   6.727   8.701  0.0173  0.0850 -0.1923
   84POPC   C1A 1494   7.776   7.219   8.902  0.1620  0.0255 -0.2314
   84POPC   D2A 1495   7.707   7.418   8.454 -0.0217  0.1994 -0.2502
   84POPC   C3A 1496   7.719   7.519   7.918 -0.0638 -0.1542  0.0150
   84POPC   C4A 1497   7.743   7.748   7.552  0.0533  0.0851 -0.0408
   84POPC   C1B 1498   8.087   7.009   8.379  0.1057  0.0047  0.4318
   84POPC   C2B 1499   8.030   7.166   7.963  0.2102  0.1561  0.0744
   84POPC   C3B 1500   8.039   7.386   7.514  0.0296 -0.1165 -0.2888
   84POPC   C4B 1501   8.103   7.400   7.116  0.1014  0.1942 -0.2305
   85POPC   NC3 1502   4.764   1.380   9.205 -0.2898 -0.2570 -0.2351
   85POPC   PO4 1503   4.273   1.262   9.223 -0.0169 -0.1713 -0.0269
   85POPC   GL1 1504   4.467   1.058   8.936  0.2419  0.1645 -0.0918
   85POPC   GL2 1505   4.773   1.230   8.761 -0.1062 -0.0184 -0.1649
   85POPC   C1A 1506   4.513   0.908   8.466  0.2940 -0.1288  0.1642
   85POPC   D2A 1507   4.666   1.170   8.179 -0.1502 -0.0113 -0.0346
   85POPC   C3A 1508   4.572   1.082   7.811 -0.0448 -0.0264 -0.0434
   85POPC   C4A 1509   5.011   1.070   7.602 -0.3454 -0.0741 -0.0558
   85POPC   C1B 1510   5.035   1.112   8.505  0.1239  0.3612 -0.1799
   85POPC   C2B 1511   5.398   1.238   8.443 -0.1270 -0.0913 -0.2206
   85POPC   C3B 1512   5.802   1.187   8.544 -0.1559 -0.1071  0.3699
   85POPC   C4B 1513   6.090   1.037   8.839 -0.0284 -0.1752  0.0786
   86POPC   NC3 1514   9.985   1.388   9.149  0.1400 -0.0706 -0.0030
   86POPC   PO4 1515  10.106   0.945   9.161 -0.2270  0.1669  0.1478
   86POPC   GL1 1516  10.233   0.759   8.773 -0.2742 -0.1745  0.2872
   86POPC   GL2 1517  10.552   0.732   8.535  0.2103  0.0180 -0.0568
   86POPC   C1A 1518  10.188   0.379   8.687 -0.0695  0.1624  0.1517
   86POPC   D2A 1519  10.254  -0.023   8.799 -0.0644  0.2084 -0.0421
   86POPC   C3A 1520  10.411  -0.233   8.496 -0.0631  0.0673 -0.0901
   86POPC   C4A 1521  10.644  -0.166   8.279 -0.1020 -0.2896 -0.0958
   86POPC   C1B 1522  10.209   1.068   8.325 -0.1615  0.3059 -0.1305
   86POPC   C2B 1523  10.191   0.929   7.876  0.1651 -0.2627  0.3091
   86POPC   C3B 1524  10.319   0.966   7.473 -0.0952 -0.0089 -0.2538
   86POPC   C4B 1525  10.153   0.619   7.230 -0.0494  0.0904 -0.1836
   87POPC   NC3 1526   8.231   3.500   9.141 -0.2091  0.2320 -0.0538
   87POPC   PO4 1527   7.879   3.362   8.950  0.1542  0.2574 -0.0946
   87POPC   GL1 1528   7.866   3.396   8.461  0.1327  0.2237 -0.1979
   87POPC   GL2 1529   7.633   3.603   8.239 -0.0942 -0.0463 -0.0913
   87POPC   C1A 1530   7.950   3.229   8.106 -0.1698 -0.0916 -0.1745
   87POPC   D2A 1531   8.115   2.752   7.986  0.1759 -0.0924  0.0128
   87POPC   C3A 1532   8.069   2.612   7.505 -0.0829 -0.1168  0.0070
   87POPC   C4A 1533   8.465   2.730   7.274  0.0037 -0.1410 -0.1159
   87POPC   C1B 1534   7.799   3.667   7.844  0.0273  0.1121 -0.1118
   87POPC   C2B 1535   7.993   3.585   7.364 -0.0338 -0.1183 -0.0062
   87POPC   C3B 1536   8.048   3.471   6.960  0.3261  0.1862 -0.0015
   87POPC   C4B 1537   7.859   3.762   6.576 -0.1469  0.2784 -0.0712
   88POPC   NC3 1538   5.935   7.477   9.143 -0.1833  0.1315  0.0235
   88POPC   PO4 1539   5.816   7.911   9.066  0.0994  0.1019 -0.0212
   88POPC   GL1 1540   5.930   7.738   8.726 -0.0684  0.2726 -0.0663
   88POPC   GL2 1541   5.635   7.554   8.710 -0.1831 -0.1277  0.5337
   88POPC   C1A 1542   6.165   7.844   8.415 -0.0311  0.3689 -0.0224
   88POPC   D2A 1543   6.301   7.732   8.047  0.0456  0.1512  0.2257
   88POPC   C3A 1544   6.541   8.064   7.952  0.0624 -0.0652 -0.0299
   88POPC   C4A 1545   6.772   8.412   8.180  0.0759  0.0880  0.0050
   88POPC   C1B 1546   5.571   7.595   8.277  0.0691  0.0413  0.0406
   88POPC   C2B 1547   5.275   7.607   7.936 -0.0441  0.3166 -0.1739
   88POPC   C3B 1548   5.227   7.646   7.515 -0.2815 -0.2218  0.1389
   88POPC   C4B 1549   4.891   7.570   7.303 -0.0960 -0.2817  0.0425
   89POPC   NC3 1550   2.748   9.036   9.460 -0.5351 -0.2081 -0.0789
   89POPC   PO4 1551   2.706   9.395   9.182 -0.1139 -0.0053 -0.0616
   89POPC   GL1 1552   2.492   9.661   8.893  0.1025 -0.2334  0.0984
   89POPC   GL2 1553   2.700   9.882   8.781  0.6469  0.2224  0.0318
   89POPC   C1A 1554   2.170   9.890   8.770  0.1547  0.1043  0.0963
   89POPC   D2A 1555   2.069  10.220   8.549 -0.2775  0.0942 -0.0768
   89POPC   C3A 1556   2.084  10.015   8.128 -0.0025  0.1911 -0.1833
   89POPC   C4A 1557   2.263  10.033   7.714  0.2367 -0.3006 -0.2571
   89POPC   C1B 1558   2.518  10.143   8.392  0.0996 -0.0360  0.0758
   89POPC   C2B 1559   2.373  10.427   8.115 -0.5073 -0.1727 -0.2233
   89POPC   C3B 1560   2.556  10.594   7.733  0.0719 -0.1839 -0.0388
   89POPC   C4B 1561   2.341  10.591   7.329  0.0604  0.1372  0.2503
   90POPC   NC3 1562   6.916   8.548   9.831  0.1982  0.1365  0.0447
   90POPC   PO4 1563   6.645   8.749   9.532  0.0281 -0.0150 -0.0746
   90POPC   GL1 1564   6.429   9.058   9.326  0.1090 -0.1335 -0.0920
   90POPC   GL2 1565   6.200   8.826   9.259 -0.0576 -0.0362  0.0808
   90POPC   C1A 1566   6.427   9.156   8.986 -0.0515  0.0802  0.3384
   90POPC   D2A 1567   6.390   9.257   8.579  0.0181  0.1250  0.2950
   90POPC   C3A 1568   6.373   9.032   8.253 -0.1751  0.0455  0.0435
   90POPC   C4A 1569   6.387   8.673   7.948  0.0995  0.0069  0.1162
   90POPC   C1B 1570   6.214   8.693   8.876 -0.0498 -0.0371  0.2444
   90POPC   C2B 1571   6.244   8.570   8.443 -0.2302  0.1243  0.1719
   90POPC   C3B 1572   6.181   8.266   8.126 -0.2928 -0.1256  0.1034
   90POPC   C4B 1573   6.108   8.119   7.687 -0.4675 -0.2098  0.1630
   91POPC   NC3 1574   2.882   4.382   9.064 -0.0763  0.1681  0.0537
   91POPC   PO4 1575   2.892   4.020   8.764  0.3687 -0.1253  0.2713
   91POPC   GL1 1576   2.846   4.376   8.512 -0.0422  0.1122 -0.1669
   91POPC   GL2 1577   2.985   4.622   8.549 -0.2026  0.0797 -0.1443
   91POPC   C1A 1578   2.708   4.556   8.034 -0.0590 -0.2295  0.0151
   91POPC   D2A 1579   2.700   4.540   7.696 -0.2339 -0.1321  0.1595
   91POPC   C3A 1580   2.874   4.918   7.439 -0.2427  0.1664 -0.1527
   91POPC   C4A 1581   2.719   5.054   7.000 -0.1280 -0.1543  0.2785
   91POPC   C1B 1582   3.055   4.851   8.283  0.1787  0.0692  0.0791
   91POPC   C2B 1583   3.025   4.972   7.904  0.1192  0.1643  0.0923
   91POPC   C3B 1584   3.239   5.326   7.600 -0.1928  0.0671 -0.2218
   91POPC   C4B 1585   3.421   5.636   7.335 -0.0936 -0.1933 -0.0166
   92POPC   NC3 1586   0.333   6.961   9.063  0.0585  0.2416 -0.2255
   92POPC   PO4 1587   0.431   7.265   8.752  0.3084 -0.2422  0.2020
   92POPC   GL1 1588   0.211   7.310   8.366  0.0307 -0.1106 -0.3334
   92POPC   GL2 1589   0.168   7.679   8.115 -0.1787  0.1860  0.0391
   92POPC   C1A 1590   0.155   7.165   7.981 -0.1273  0.0960  0.2286
   92POPC   D2A 1591   0.251   7.271   7.527 -0.0538  0.1781  0.0919
   92POPC   C3A 1592  -0.081   7.535   7.248  0.0066  0.0527  0.0338
   92POPC   C4A 1593  -0.447   7.882   7.147 -0.0218  0.0818 -0.0904
   92POPC   C1B 1594   0.266   7.751   7.704  0.0214  0.0835  0.0552
   92POPC   C2B 1595   0.429   7.683   7.228 -0.5352  0.1579 -0.5107
   92POPC   C3B 1596   0.066   7.897   6.917  0.0385  0.2146  0.3898
   92POPC   C4B 1597  -0.034   8.108   6.512  0.0616 -0.0123 -0.3938
   93POPC   NC3 1598   2.890   3.479   8.862 -0.1886 -0.0842  0.0456
   93POPC   PO4 1599   3.336   3.441   8.599 -0.2846 -0.3718 -0.3098
   93POPC   GL1 1600   3.237   3.248   8.291  0.0446 -0.0173  0.1493
   93POPC   GL2 1601   3.056   3.504   8.047  0.1747  0.1692 -0.0377
   93POPC   C1A 1602   3.441   3.138   7.952  0.1633 -0.3591 -0.1144
   93POPC   D2A 1603   3.425   2.678   7.669  0.1912 -0.0468 -0.2879
   93POPC   C3A 1604   3.491   2.409   7.338 -0.0975  0.1694  0.1170
   93POPC   C4A 1605   3.687   2.081   7.142  0.1116  0.0227 -0.1332
   93POPC   C1B 1606   3.052   3.506   7.615  0.0519 -0.2198  0.2218
   93POPC   C2B 1607   3.082   3.450   7.238  0.2305 -0.1909  0.0004
   93POPC   C3B 1608   2.703   3.598   7.130  0.0333  0.0353 -0.0510
   93POPC   C4B 1609   2.283   3.295   7.165 -0.0155  0.0537  0.2525
   94POPC   NC3 1610   0.371   4.926   8.904 -0.1491  0.0293 -0.3975
   94POPC   PO4 1611   0.026   4.727   8.860 -0.2406 -0.0584 -0.1825
   94POPC   GL1 1612   0.136   4.570   8.452 -0.0947 -0.0483 -0.2692
   94POPC   GL2 1613   0.276   4.855   8.246 -0.3745  0.2367 -0.0870
   94POPC   C1A 1614   0.081   4.095   8.262  0.2933 -0.0762 -0.4560
   94POPC   D2A 1615   0.061   3.819   7.989 -0.0057  0.1457 -0.2814
   94POPC   C3A 1616   0.396   3.728   7.789 -0.2598 -0.0991 -0.0649
   94POPC   C4A 1617   0.608   3.761   7.431 -0.0865  0.1853 -0.0182
   94POPC   C1B 1618   0.477   4.873   7.855  0.0415 -0.1994  0.3012
   94POPC   C2B 1619   0.534   4.772   7.475 -0.0710 -0.0724  0.1498
   94POPC   C3B 1620   0.794   4.731   7.167  0.0484 -0.0112  0.0313
   94POPC   C4B 1621   0.861   4.805   6.735  0.3418  0.2843 -0.1578
   95POPC   NC3 1622   4.008   9.640   8.892 -0.0122 -0.0259 -0.1159
   95POPC   PO4 1623   3.985  10.061   9.007 -0.0619  0.2940  0.0748
   95POPC   GL1 1624   3.918  10.439   8.619 -0.0483 -0.1848  0.0139
   95POPC   GL2 1625   3.834  10.850   8.587  0.1994 -0.0294 -0.1163
   95POPC   C1A 1626   3.989  10.540   8.235  0.3043 -0.0662  0.1875
   95POPC   D2A 1627   3.819  10.470   7.765  0.0105 -0.1301  0.2232
   95POPC   C3A 1628   3.905  10.609   7.326 -0.0605  0.0904  0.2715
   95POPC   C4A 1629   3.942  10.927   7.130  0.1562 -0.0666 -0.0537
   95POPC   C1B 1630   3.794  11.025   8.161 -0.0008 -0.0690  0.3766
   95POPC   C2B 1631   3.914  10.953   7.675  0.3347  0.2385 -0.1777
   95POPC   C3B 1632   4.353  10.797   7.418  0.2557 -0.0136 -0.0216
   95POPC   C4B 1633   4.600  10.448   7.166  0.1056  0.1503  0.2011
   96POPC   NC3 1634   4.421   2.402   9.086  0.1727  0.1475 -0.1327
   96POPC   PO4 1635   4.489   2.807   9.180 -0.0011 -0.3514  0.2088
   96POPC   GL1 1636   4.614   3.039   8.796  0.0786  0.1401 -0.1478
   96POPC   GL2 1637   4.314   3.084   8.527 -0.1794 -0.0895 -0.0476
   96POPC   C1A 1638   4.790   3.097   8.358  0.1313 -0.0520  0.3238
   96POPC   D2A 1639   5.004   3.088   8.015 -0.0269  0.2592  0.2812
   96POPC   C3A 1640   5.031   3.439   7.810  0.2358 -0.0952  0.3820
   96POPC   C4A 1641   4.899   3.888   7.644  0.0367 -0.1448  0.1908
   96POPC   C1B 1642   4.373   2.904   8.087 -0.4003 -0.2097  0.0634
   96POPC   C2B 1643   4.388   2.938   7.685  0.0262 -0.0340 -0.2810
   96POPC   C3B 1644   4.299   2.971   7.319 -0.0659 -0.0870 -0.3432
   96POPC   C4B 1645   4.363   2.836   6.892 -0.0999 -0.0208  0.0349
   97POPC   NC3 1646   8.411   1.490   9.612 -0.3492  0.0894  0.1235
   97POPC   PO4 1647   8.693   1.118   9.512  0.0865  0.2403 -0.0146
   97POPC   GL1 1648   8.786   0.816   9.166  0.0747  0.1469  0.1847
   97POPC   GL2 1649   9.096   0.627   9.129  0.0856 -0.2896  0.1492
   97POPC   C1A 1650   8.755   0.853   8.763 -0.3694  0.1173 -0.2345
   97POPC   D2A 1651   8.434   0.759   8.520  0.0556  0.0864  0.0108
   97POPC   C3A 1652   8.139   0.394   8.722 -0.0050 -0.1693 -0.1281
   97POPC   C4A 1653   8.117   0.004   8.614 -0.3134 -0.0122  0.2712
   97POPC   C1B 1654   9.275   0.317   8.880  0.1912  0.2729 -0.0726
   97POPC   C2B 1655   9.165  -0.001   8.525 -0.1314 -0.2476 -0.0442
   97POPC   C3B 1656   9.363  -0.150   8.163  0.0328  0.2020 -0.1065
   97POPC   C4B 1657   9.270   0.096   7.785 -0.1219  0.0910 -0.1763
   98POPC   NC3 1658   0.953   1.860   9.018  0.2405 -0.1521  0.1602
   98POPC   PO4 1659   1.132   2.258   8.932 -0.2093 -0.1280 -0.0911
   98POPC   GL1 1660   1.371   1.882   8.738  0.0052 -0.2164 -0.2059
   98POPC   GL2 1661   1.535   1.680   8.891 -0.1249 -0.1464 -0.1473
   98POPC   C1A 1662   1.312   1.750   8.347 -0.2204 -0.1190 -0.1758
   98POPC   D2A 1663   1.356   1.430   7.965  0.0788 -0.1793 -0.1405
   98POPC   C3A 1664   1.696   1.632   7.893 -0.0511 -0.2804 -0.1296
   98POPC   C4A 1665   1.687   2.004   7.773 -0.2170 -0.2135  0.1488
   98POPC   C1B 1666   1.654   1.394   8.553 -0.0917 -0.0139 -0.2620
   98POPC   C2B 1667   1.674   1.148   8.270 -0.0495 -0.0543  0.3618
   98POPC   C3B 1668   1.578   0.912   7.873  0.2147  0.0575 -0.0292
   98POPC   C4B 1669   1.540   0.717   7.511  0.0847 -0.0461 -0.3788
   99POPC   NC3 1670   6.662   9.136   9.768  0.0020  0.0358 -0.1138
   99POPC   PO4 1671   7.037   9.012   9.990  0.4634  0.1805 -0.3020
   99POPC   GL1 1672   7.195   8.954   9.658  0.0712  0.3475  0.1218
   99POPC   GL2 1673   7.481   8.969   9.596 -0.2333 -0.5422 -0.0464
   99POPC   C1A 1674   7.098   9.035   9.230 -0.0528  0.1618  0.0441
   99POPC   D2A 1675   6.897   9.335   8.890 -0.4828 -0.0965 -0.0250
   99POPC   C3A 1676   7.243   9.313   8.444 -0.1519 -0.0430  0.2092
   99POPC   C4A 1677   7.625   9.483   8.368 -0.1891  0.0907 -0.0402
   99POPC   C1B 1678   7.398   8.633   9.289  0.1852 -0.0278 -0.1816
   99POPC   C2B 1679   7.596   8.451   8.948  0.0760  0.3333 -0.1542
   99POPC   C3B 1680   7.591   8.427   8.493 -0.0843  0.1581 -0.0813
   99POPC   C4B 1681   7.390   8.317   8.252  0.1146 -0.2308 -0.0643
  100POPC   NC3 1682   0.629   3.421   9.053 -0.1488  0.1409  0.1272
  100POPC   PO4 1683   0.758   3.031   8.862 -0.3684 -0.1041  0.4169
  100POPC   GL1 1684   1.049   3.087   8.647 -0.0589  0.0070  0.0024
  100POPC   GL2 1685   1.286   3.258   8.734 -0.0676 -0.1074  0.0390
  100POPC   C1A 1686   1.122   2.893   8.353 -0.3100  0.1880  0.1139
  100POPC   D2A 1687   1.218   2.444   8.288  0.2435  0.2310 -0.0940
  100POPC   C3A 1688   1.547   2.203   8.203 -0.0053  0.0457 -0.3902
  100POPC   C4A 1689   1.794   1.819   8.345  0.1182  0.2754 -0.2031
  100POPC   C1B 1690   1.336   3.645   8.340  0.0658 -0.4717  0.0577
  100POPC   C2B 1691   1.442   3.747   8.043  0.1083  0.1652  0.3113
  100POPC   C3B 1692   1.505   3.600   7.584  0.2265  0.3255  0.2345
  100POPC   C4B 1693   1.394   3.435   7.183  0.0043  0.3313 -0.0601
  101POPC   NC3 1694   3.687   0.805   9.431 -0.4617  0.0017  0.4564
  101POPC   PO4 1695   3.712   0.804   8.951  0.3041 -0.3406  0.1955
  101POPC   GL1 1696   3.716   0.936   8.524 -0.1659  0.0322 -0.0198
  101POPC   GL2 1697   4.062   1.108   8.593 -0.0257  0.3353  0.1054
  101POPC   C1A 1698   3.649   1.115   8.124  0.1527  0.1968 -0.1119
  101POPC   D2A 1699   3.641   1.231   7.645  0.0764 -0.1633  0.1692
  101POPC   C3A 1700   3.348   0.995   7.412 -0.1361 -0.1254  0.2989
  101POPC   C4A 1701   3.082   0.742   7.368  0.2001  0.3843  0.0331
  101POPC   C1B 1702   4.162   0.992   8.144 -0.1037  0.0642  0.1674
  101POPC   C2B 1703   4.039   0.947   7.752 -0.0361  0.1626 -0.0243
  101POPC   C3B 1704   3.873   0.917   7.336 -0.0572 -0.0420  0.1476
  101POPC   C4B 1705   3.724   1.109   7.074  0.3262 -0.2549  0.1451
  102POPC   NC3 1706   6.193   0.747  10.003 -0.3290  0.0074 -0.0082
  102POPC   PO4 1707   6.311   1.232  10.061 -0.0815  0.3888  0.1660
  102POPC   GL1 1708   6.194   1.016   9.556  0.1150 -0.2680 -0.1252
  102POPC   GL2 1709   6.373   1.204   9.279 -0.1973  0.1671 -0.0372
  102POPC   C1A 1710   6.174   0.682   9.186 -0.1907  0.1254  0.1023
  102POPC   D2A 1711   6.017   0.482   8.893  0.0483  0.2265 -0.1829
  102POPC   C3A 1712   5.960   0.745   8.483  0.1195  0.1519 -0.0148
  102POPC   C4A 1713   5.606   0.931   8.159  0.0292 -0.0529  0.0748
  102POPC   C1B 1714   6.564   0.891   8.823  0.1569 -0.0033  0.1483
  102POPC   C2B 1715   6.621   1.024   8.475 -0.1108 -0.1157 -0.0475
  102POPC   C3B 1716   6.631   1.152   8.043  0.2927  0.1462  0.2428
  102POPC   C4B 1717   7.061   1.104   7.807  0.0491 -0.0453  0.3256
  103POPC   NC3 1718   6.212   7.257   9.915  0.1740 -0.1548 -0.0473
  103POPC   PO4 1719   6.214   7.212   9.456  0.1003  0.3190  0.0073
  103POPC   GL1 1720   6.409   7.432   9.065 -0.1641  0.0294  0.1303
  103POPC   GL2 1721   6.426   7.640   8.804 -0.2326 -0.1191 -0.2657
  103POPC   C1A 1722   6.891   7.429   8.964 -0.2123  0.0252  0.1047
  103POPC   D2A 1723   7.341   7.658   8.953 -0.0182  0.4695 -0.1267
  103POPC   C3A 1724   7.507   7.974   8.639 -0.0192 -0.1102  0.0562
  103POPC   C4A 1725   7.827   7.943   8.219 -0.1920  0.4127 -0.1487
  103POPC   C1B 1726   6.715   7.499   8.485 -0.0208  0.0209  0.3383
  103POPC   C2B 1727   6.785   7.667   8.064  0.0314  0.0145 -0.1324
  103POPC   C3B 1728   7.023   7.903   7.866 -0.0421  0.2229  0.0902
  103POPC   C4B 1729   7.475   7.973   7.903 -0.0219 -0.1138  0.0367
  104POPC   NC3 1730   3.796   1.321   8.965 -0.2381  0.0927 -0.2085
  104POPC   PO4 1731   3.497   1.599   9.193 -0.0091 -0.0397 -0.5388
  104POPC   GL1 1732   3.570   1.752   8.758 -0.1173 -0.1938 -0.3242
  104POPC   GL2 1733   3.592   1.484   8.562 -0.0253  0.0897 -0.3649
  104POPC   C1A 1734   3.533   2.066   8.447 -0.2610  0.1404 -0.1061
  104POPC   D2A 1735   3.197   2.201   8.264  0.1825 -0.1493  0.0198
  104POPC   C3A 1736   3.007   2.505   7.915 -0.0359 -0.2369  0.1645
  104POPC   C4A 1737   2.798   2.578   7.563 -0.1322  0.0938 -0.1175
  104POPC   C1B 1738   3.589   1.639   8.130 -0.0778 -0.1525 -0.3339
  104POPC   C2B 1739   3.761   1.690   7.691  0.0377  0.0034  0.1921
  104POPC   C3B 1740   3.737   1.562   7.253 -0.3704 -0.0910  0.0930
  104POPC   C4B 1741   3.548   1.577   6.880 -0.0911  0.1731 -0.1492
  105POPC   NC3 1742   9.532   4.356   8.796 -0.0438  0.0786 -0.0789
  105POPC   PO4 1743   9.978   4.496   8.866 -0.1017 -0.1149  0.1630
  105POPC   GL1 1744   9.815   4.599   8.471  0.1790  0.1878  0.0175
  105POPC   GL2 1745   9.696   4.934   8.374 -0.1161 -0.1184 -0.0603
  105POPC   C1A 1746   9.959   4.629   8.087  0.0972 -0.2617  0.3703
  105POPC   D2A 1747   9.959   4.570   7.667  0.0535 -0.1665 -0.2117
  105POPC   C3A 1748  10.028   4.412   7.243  0.3329 -0.2385 -0.0491
  105POPC   C4A 1749   9.954   4.163   6.847  0.0502 -0.0103  0.1295
  105POPC   C1B 1750   9.830   5.105   7.944 -0.0606  0.1674 -0.2851
  105POPC   C2B 1751  10.017   5.032   7.520  0.3009  0.1011  0.3081
  105POPC   C3B 1752  10.077   4.878   7.056  0.0271  0.2612  0.0569
  105POPC   C4B 1753   9.729   4.613   6.739 -0.0708  0.1041  0.1252
  106POPC   NC3 1754   0.207   1.686   8.767 -0.1980 -0.2492  0.0075
  106POPC   PO4 1755   0.561   1.756   8.686 -0.0924 -0.0961  0.0361
  106POPC   GL1 1756   0.318   1.910   8.249 -0.0316  0.1149 -0.1395
  106POPC   GL2 1757   0.114   2.217   8.069 -0.2041  0.1034 -0.2689
  106POPC   C1A 1758   0.453   1.972   7.782 -0.2510 -0.0561  0.0489
  106POPC   D2A 1759   0.364   2.172   7.359  0.1107  0.1263 -0.1862
  106POPC   C3A 1760  -0.005   2.043   7.098 -0.0284  0.0982  0.3236
  106POPC   C4A 1761  -0.247   1.812   6.792  0.1635 -0.0552  0.1072
  106POPC   C1B 1762   0.330   2.453   7.915  0.1028 -0.1434 -0.0830
  106POPC   C2B 1763   0.668   2.422   7.599 -0.1637  0.2140 -0.4061
  106POPC   C3B 1764   0.858   2.015   7.492  0.0055 -0.0630 -0.0371
  106POPC   C4B 1765   0.707   1.574   7.613 -0.1323 -0.2007 -0.1660
  107POPC   NC3 1766   9.333   3.323   8.592  0.5232  0.2597 -0.2543
  107POPC   PO4 1767   9.450   2.951   8.437 -0.2570  0.2773 -0.1286
  107POPC   GL1 1768   9.485   2.599   8.096 -0.0538  0.1513  0.0891
  107POPC   GL2 1769   9.724   2.644   7.899  0.1066 -0.0535  0.3389
  107POPC   C1A 1770   9.288   2.389   7.741 -0.0927 -0.0104 -0.0594
  107POPC   D2A 1771   9.162   2.467   7.372 -0.1520  0.3850 -0.0648
  107POPC   C3A 1772   9.125   2.062   7.115 -0.2363  0.1051  0.0459
  107POPC   C4A 1773   8.816   2.171   6.725  0.2507  0.1055  0.0782
  107POPC   C1B 1774   9.778   2.271   7.647  0.0386  0.1057  0.0220
  107POPC   C2B 1775   9.958   1.965   7.336  0.4475  0.2810  0.4553
  107POPC   C3B 1776  10.165   1.660   7.287  0.4133 -0.1921 -0.3769
  107POPC   C4B 1777  10.621   1.641   7.446 -0.2286  0.1310  0.0923
  108POPC   NC3 1778   5.812   4.434   8.717 -0.0369  0.0504 -0.2370
  108POPC   PO4 1779   6.226   4.413   8.676  0.2056 -0.1381  0.0512
  108POPC   GL1 1780   6.100   4.554   8.284  0.2069 -0.1107  0.1091
  108POPC   GL2 1781   5.716   4.642   8.278 -0.0217 -0.1710 -0.1315
  108POPC   C1A 1782   6.115   4.741   7.848 -0.3248 -0.1699  0.3638
  108POPC   D2A 1783   6.066   4.717   7.434  0.1252  0.1698 -0.4848
  108POPC   C3A 1784   6.113   4.354   7.114 -0.1585  0.3040  0.0700
  108POPC   C4A 1785   5.940   4.440   6.637  0.0539 -0.0062 -0.0124
  108POPC   C1B 1786   5.751   4.403   7.813 -0.0913 -0.4186 -0.3339
  108POPC   C2B 1787   5.880   4.076   7.560  0.0192  0.0633 -0.2892
  108POPC   C3B 1788   5.917   3.672   7.351  0.1245  0.1793 -0.1881
  108POPC   C4B 1789   5.887   3.322   7.317 -0.0588  0.0202 -0.0257
  109POPC   NC3 1790   8.794   7.736   9.446  0.0151  0.0010  0.0120
  109POPC   PO4 1791   8.742   7.281   9.409  0.1832  0.0217 -0.3319
  109POPC   GL1 1792   8.789   7.379   9.056  0.0423  0.0662 -0.0428
  109POPC   GL2 1793   8.823   7.106   8.871 -0.0178 -0.0672  0.0168
  109POPC   C1A 1794   8.576   7.607   8.768 -0.1722  0.0913 -0.3708
  109POPC   D2A 1795   8.270   7.897   8.597  0.2103  0.1200  0.0503
  109POPC   C3A 1796   8.328   8.073   8.214  0.4644 -0.0046 -0.1495
  109POPC   C4A 1797   8.566   8.053   7.790  0.1352  0.1673  0.1229
  109POPC   C1B 1798   8.615   7.225   8.396 -0.2121 -0.2467  0.1240
  109POPC   C2B 1799   8.579   7.099   7.985  0.5191  0.0875  0.0668
  109POPC   C3B 1800   8.414   6.977   7.623  0.1648 -0.0772 -0.0507
  109POPC   C4B 1801   8.549   7.151   7.159 -0.0679  0.2010 -0.3278
  110POPC   NC3 1802   3.016   8.439   9.142  0.1787  0.2036 -0.2256
  110POPC   PO4 1803   3.329   8.239   8.936 -0.0324  0.0545 -0.1237
  110POPC   GL1 1804   3.467   8.219   8.525  0.0819  0.0974  0.0981
  110POPC   GL2 1805   3.528   8.472   8.446 -0.0701 -0.0777  0.0062
  110POPC   C1A 1806   3.549   8.058   8.129 -0.0761  0.2450 -0.3004
  110POPC   D2A 1807   3.561   7.858   7.791 -0.4146  0.0646 -0.0663
  110POPC   C3A 1808   3.513   7.928   7.398 -0.0873  0.0698 -0.2532
  110POPC   C4A 1809   3.452   7.984   7.019  0.1051 -0.3158  0.0473
  110POPC   C1B 1810   3.607   8.637   8.018  0.0359 -0.0717 -0.1374
  110POPC   C2B 1811   3.959   8.868   7.939 -0.2878 -0.5177  0.0930
  110POPC   C3B 1812   4.383   8.879   7.724 -0.3758 -0.0932  0.1284
  110POPC   C4B 1813   4.385   8.974   7.303 -0.0718  0.0860  0.0093
  111POPC   NC3 1814   9.059   2.727   8.853  0.4095  0.1066  0.2370
  111POPC   PO4 1815   8.901   3.163   8.818 -0.0044  0.4104  0.3427
  111POPC   GL1 1816   8.919   2.944   8.384 -0.1385  0.2142 -0.1004
  111POPC   GL2 1817   9.007   3.056   8.077 -0.1330  0.0644 -0.1721
  111POPC   C1A 1818   8.520   2.712   8.207 -0.2357 -0.3319  0.1978
  111POPC   D2A 1819   8.462   2.987   7.737 -0.2840 -0.1064  0.2241
  111POPC   C3A 1820   8.785   3.421   7.795 -0.4019 -0.0667 -0.0936
  111POPC   C4A 1821   9.170   3.464   7.577  0.0509  0.2727 -0.2528
  111POPC   C1B 1822   9.077   2.978   7.642  0.2114 -0.1672 -0.0598
  111POPC   C2B 1823   8.833   3.115   7.354 -0.1922 -0.0895 -0.0951
  111POPC   C3B 1824   8.908   3.517   7.116 -0.2613 -0.0165  0.0576
  111POPC   C4B 1825   8.941   3.924   6.879 -0.1107  0.0546  0.1094
  112POPC   NC3 1826   9.030   5.027   8.988 -0.1347  0.0540 -0.4867
  112POPC   PO4 1827   9.020   4.555   8.764  0.0448  0.1233 -0.3078
  112POPC   GL1 1828   9.072   4.760   8.364  0.0605 -0.1691  0.1532
  112POPC   GL2 1829   8.874   4.859   8.212 -0.0365 -0.0749  0.1132
  112POPC   C1A 1830   9.419   4.756   8.050  0.2686 -0.0333 -0.0882
  112POPC   D2A 1831   9.480   4.753   7.651  0.0263  0.2820 -0.2528
  112POPC   C3A 1832   9.069   4.781   7.430 -0.0789 -0.3689  0.0346
  112POPC   C4A 1833   8.756   4.961   7.137  0.3336 -0.1265 -0.1381
  112POPC   C1B 1834   9.052   5.050   7.918  0.0492  0.1436  0.0795
  112POPC   C2B 1835   9.221   5.230   7.573  0.1155 -0.0415  0.3842
  112POPC   C3B 1836   9.306   5.242   7.074  0.0261  0.1911  0.1456
  112POPC   C4B 1837   9.398   5.522   6.695  0.0663  0.1489  0.1538
  113POPC   NC3 1838  10.112   7.609   9.537 -0.2251 -0.1686 -0.3060
  113POPC   PO4 1839  10.136   7.716   9.128 -0.0746  0.0090  0.0092
  113POPC   GL1 1840  10.100   8.032   8.844 -0.4004 -0.0324 -0.4439
  113POPC   GL2 1841  10.437   8.042   8.591 -0.0339 -0.0315  0.1078
  113POPC   C1A 1842  10.077   8.386   8.510 -0.1491  0.1809  0.1153
  113POPC   D2A 1843   9.763   8.275   8.207 -0.0202  0.0638  0.3062
  113POPC   C3A 1844   9.819   8.019   7.828 -0.0184 -0.1676 -0.2360
  113POPC   C4A 1845   9.564   7.857   7.486 -0.4515 -0.1614  0.0664
  113POPC   C1B 1846  10.063   7.893   8.401 -0.3429 -0.0851 -0.1763
  113POPC   C2B 1847  10.143   7.611   8.065  0.0482  0.0676  0.0692
  113POPC   C3B 1848  10.190   7.299   7.802  0.0093  0.3624  0.1270
  113POPC   C4B 1849  10.166   7.011   7.548  0.1751 -0.0192 -0.0538
  114POPC   NC3 1850   3.317   4.596   9.007 -0.1314  0.0326  0.0570
  114POPC   PO4 1851   3.373   4.290   8.766  0.3574 -0.1284 -0.1336
  114POPC   GL1 1852   3.470   4.441   8.297 -0.2083  0.4676 -0.0672
  114POPC   GL2 1853   3.738   4.548   8.236 -0.0342  0.0257  0.0128
  114POPC   C1A 1854   3.328   4.553   7.884  0.3528 -0.2824  0.0021
  114POPC   D2A 1855   3.172   4.369   7.580  0.3422  0.2496  0.0619
  114POPC   C3A 1856   3.242   4.505   7.134 -0.0819 -0.1727 -0.0919
  114POPC   C4A 1857   3.396   4.499   6.713  0.2385 -0.3341  0.0871
  114POPC   C1B 1858   3.824   4.428   7.759 -0.3604 -0.3549  0.1026
  114POPC   C2B 1859   3.623   4.298   7.379  0.2419 -0.1863  0.0320
  114POPC   C3B 1860   3.359   4.089   6.972 -0.0498  0.2488 -0.2000
  114POPC   C4B 1861   3.258   3.693   6.866  0.2509  0.2569 -0.2530
  115POPC   NC3 1862   8.831   2.724   9.576  0.5861 -0.2723 -0.0655
  115POPC   PO4 1863   8.718   2.581   9.197  0.1068  0.1765 -0.2043
  115POPC   GL1 1864   8.601   2.372   8.801  0.0260  0.0356  0.1128
  115POPC   GL2 1865   8.175   2.489   8.759 -0.2364  0.0255 -0.1391
  115POPC   C1A 1866   8.780   2.230   8.512  0.3184  0.1751  0.0239
  115POPC   D2A 1867   8.673   2.018   8.121 -0.1745  0.1714 -0.0966
  115POPC   C3A 1868   8.603   1.674   7.812  0.3677 -0.0883 -0.1201
  115POPC   C4A 1869   8.292   1.638   7.628 -0.0421 -0.1561  0.0261
  115POPC   C1B 1870   8.233   2.304   8.252  0.0734 -0.1700 -0.3042
  115POPC   C2B 1871   8.165   2.139   7.872  0.1275 -0.0825  0.1870
  115POPC   C3B 1872   8.261   2.132   7.513  0.0248  0.1413 -0.2205
  115POPC   C4B 1873   8.148   2.355   7.121  0.2866 -0.0362 -0.0555
  116POPC   NC3 1874   5.273   4.472   8.871 -0.2518 -0.1173 -0.0565
  116POPC   PO4 1875   5.567   4.878   8.697 -0.1191 -0.0346 -0.2070
  116POPC   GL1 1876   5.456   5.094   8.273 -0.1556  0.1481  0.0884
  116POPC   GL2 1877   5.812   5.104   8.176  0.0751 -0.3323  0.3228
  116POPC   C1A 1878   5.238   5.144   7.861  0.2150 -0.1375  0.1947
  116POPC   D2A 1879   4.887   5.134   7.452 -0.2235  0.1761  0.1314
  116POPC   C3A 1880   4.975   5.379   7.131  0.1503  0.0655  0.2109
  116POPC   C4A 1881   4.764   5.523   6.745  0.0156 -0.1345  0.2296
  116POPC   C1B 1882   5.651   4.978   7.762 -0.0293  0.1137 -0.2082
  116POPC   C2B 1883   5.553   5.075   7.437  0.1035 -0.1010 -0.3282
  116POPC   C3B 1884   5.542   5.228   7.084  0.3255 -0.1919  0.1029
  116POPC   C4B 1885   5.857   5.582   6.918 -0.4088  0.1861 -0.0539
  117POPC   NC3 1886   6.139   3.287   9.501 -0.0600 -0.1882 -0.0228
  117POPC   PO4 1887   5.933   3.214   9.107  0.1561 -0.0676  0.1390
  117POPC   GL1 1888   6.060   3.178   8.616 -0.1954 -0.2564  0.1267
  117POPC   GL2 1889   6.101   3.491   8.655 -0.1498 -0.0753  0.1370
  117POPC   C1A 1890   5.743   2.955   8.291 -0.1180 -0.2712  0.0411
  117POPC   D2A 1891   5.649   2.621   8.015 -0.2763  0.4519  0.0128
  117POPC   C3A 1892   5.434   2.631   7.694 -0.0606 -0.0325  0.1912
  117POPC   C4A 1893   5.274   2.852   7.378  0.0613 -0.0904  0.1916
  117POPC   C1B 1894   6.432   3.537   8.327 -0.1531  0.2632  0.4345
  117POPC   C2B 1895   6.588   3.443   7.950 -0.1909  0.1586  0.2253
  117POPC   C3B 1896   6.474   3.306   7.662  0.0716 -0.2915  0.2915
  117POPC   C4B 1897   6.509   3.430   7.251 -0.2679 -0.0698  0.0507
  118POPC   NC3 1898   1.176   4.541   9.280  0.3884 -0.1082 -0.0277
  118POPC   PO4 1899   0.666   4.498   9.221 -0.1404  0.0029 -0.1800
  118POPC   GL1 1900   0.877   4.471   8.901 -0.1951  0.0917  0.2050
  118POPC   GL2 1901   0.584   4.542   8.674  0.0883 -0.1902  0.4389
  118POPC   C1A 1902   1.247   4.536   8.642 -0.0153  0.2941 -0.0880
  118POPC   D2A 1903   1.559   4.665   8.347 -0.1693  0.1274 -0.1256
  118POPC   C3A 1904   1.522   4.669   7.935  0.0675  0.0914 -0.1322
  118POPC   C4A 1905   1.503   4.686   7.525 -0.2671  0.2134  0.5396
  118POPC   C1B 1906   0.546   4.414   8.222  0.0936  0.0149  0.1500
  118POPC   C2B 1907   0.388   4.209   7.769  0.2159 -0.2089  0.0265
  118POPC   C3B 1908   0.321   4.214   7.430 -0.0348  0.0420 -0.2165
  118POPC   C4B 1909   0.401   4.033   7.076 -0.1278 -0.0968  0.3897
  119POPC   NC3 1910   8.973   3.940   9.367 -0.0159  0.2382  0.0428
  119POPC   PO4 1911   9.070   4.061   8.920  0.1114 -0.2768 -0.0400
  119POPC   GL1 1912   9.168   3.862   8.500  0.1768  0.4225 -0.0297
  119POPC   GL2 1913   9.204   4.133   8.331  0.0806  0.0628  0.1720
  119POPC   C1A 1914   9.080   3.701   8.098 -0.1196  0.0138 -0.2347
  119POPC   D2A 1915   8.842   3.921   7.704 -0.0107  0.1021  0.2323
  119POPC   C3A 1916   8.469   3.624   7.455 -0.0867 -0.3965 -0.3353
  119POPC   C4A 1917   8.388   3.215   7.206  0.1737  0.2391 -0.0529
  119POPC   C1B 1918   9.544   4.228   8.121  0.0835 -0.2574  0.0233
  119POPC   C2B 1919   9.916   4.121   7.938 -0.0015 -0.0883  0.3398
  119POPC   C3B 1920  10.190   4.013   7.720 -0.1046 -0.0584 -0.0269
  119POPC   C4B 1921  10.528   3.779   7.382  0.0785 -0.0370  0.2899
  120POPC   NC3 1922   8.170   5.045   9.073 -0.1299 -0.2135  0.2713
  120POPC   PO4 1923   7.992   5.046   8.638  0.1812  0.1443  0.2016
  120POPC   GL1 1924   7.644   4.968   8.366 -0.1473 -0.1555 -0.0296
  120POPC   GL2 1925   7.711   4.605   8.226 -0.3459 -0.0970 -0.0276
  120POPC   C1A 1926   7.579   5.060   7.921  0.0714  0.4550  0.1942
  120POPC   D2A 1927   7.772   5.069   7.541 -0.0582 -0.1062  0.2113
  120POPC   C3A 1928   7.874   4.900   7.158 -0.1230  0.0479 -0.1963
  120POPC   C4A 1929   8.291   5.067   6.955  0.2474  0.1058 -0.0569
  120POPC   C1B 1930   7.540   4.603   7.865 -0.4384 -0.3469  0.1314
  120POPC   C2B 1931   7.478   4.690   7.434  0.2243 -0.2459  0.0357
  120POPC   C3B 1932   7.469   4.615   6.971  0.1957  0.3029  0.2353
  120POPC   C4B 1933   7.918   4.534   6.787  0.0477  0.3772 -0.4057
  121POPC   NC3 1934   6.516   5.215   8.780  0.0775 -0.1335 -0.1389
  121POPC   PO4 1935   6.318   5.475   8.817  0.1581 -0.3397 -0.2058
  121POPC   GL1 1936   6.225   5.343   8.385 -0.5746  0.0918 -0.2245
  121POPC   GL2 1937   6.351   5.003   8.327  0.0880  0.3296  0.2469
  121POPC   C1A 1938   6.163   5.455   7.995 -0.2244  0.1280  0.0466
  121POPC   D2A 1939   6.081   5.255   7.609  0.0811 -0.0169  0.1298
  121POPC   C3A 1940   6.312   5.477   7.205 -0.0196 -0.1387  0.5081
  121POPC   C4A 1941   6.377   5.635   6.758  0.1119 -0.1343  0.5370
  121POPC   C1B 1942   6.567   4.790   8.070  0.1535 -0.1839  0.1032
  121POPC   C2B 1943   6.578   4.483   7.635  0.0523  0.0185  0.0740
  121POPC   C3B 1944   6.605   4.150   7.485  0.1204 -0.0550 -0.1143
  121POPC   C4B 1945   6.340   3.888   7.211  0.0961 -0.1589 -0.1018
  122POPC   NC3 1946   1.293   9.630   9.451  0.2763 -0.0194  0.1799
  122POPC   PO4 1947   1.339   9.887   9.186  0.2907  0.3233  0.0367
  122POPC   GL1 1948   1.056   9.946   8.779  0.1688 -0.2519 -0.0737
  122POPC   GL2 1949   0.887   9.649   8.581 -0.0096  0.0937 -0.1104
  122POPC   C1A 1950   0.999  10.076   8.329  0.0475 -0.0795  0.3114
  122POPC   D2A 1951   0.751  10.473   8.090  0.0358  0.2587  0.1446
  122POPC   C3A 1952   0.431  10.245   7.784 -0.0109  0.2085 -0.0083
  122POPC   C4A 1953   0.080  10.025   7.461  0.0018  0.0503 -0.2946
  122POPC   C1B 1954   0.727   9.448   8.291  0.1491 -0.2041 -0.3387
  122POPC   C2B 1955   0.791   9.301   7.892 -0.3658  0.1292  0.1622
  122POPC   C3B 1956   0.735   9.583   7.517  0.1378  0.3962  0.0323
  122POPC   C4B 1957   0.788  10.019   7.326 -0.4148 -0.2307  0.0378
  123POPC   NC3 1958   3.319   6.236   8.724 -0.1071  0.0529 -0.0592
  123POPC   PO4 1959   2.968   6.485   8.668 -0.2108 -0.0047  0.0800
  123POPC   GL1 1960   3.336   6.565   8.344  0.0527 -0.1705  0.3308
  123POPC   GL2 1961   3.404   6.917   8.197  0.1065 -0.4531 -0.3176
  123POPC   C1A 1962   3.420   6.390   7.908  0.3039  0.0159  0.0213
  123POPC   D2A 1963   3.541   6.370   7.456 -0.2585  0.0916  0.3074
  123POPC   C3A 1964   3.337   6.111   7.203 -0.0012  0.1862 -0.1886
  123POPC   C4A 1965   3.013   6.002   7.054 -0.0036 -0.2068  0.0915
  123POPC   C1B 1966   3.118   7.126   7.861  0.0942 -0.1379 -0.0627
  123POPC   C2B 1967   3.040   7.122   7.361 -0.3318  0.0293  0.1225
  123POPC   C3B 1968   2.767   6.778   6.981 -0.1977  0.0411 -0.0211
  123POPC   C4B 1969   2.540   6.581   6.607  0.1478  0.1003  0.2382
  124POPC   NC3 1970   8.038   6.125   9.309  0.2235 -0.1004  0.4951
  124POPC   PO4 1971   7.624   5.777   9.197 -0.4856  0.2767 -0.0806
  124POPC   GL1 1972   7.883   5.934   8.857 -0.1180 -0.0188  0.0349
  124POPC   GL2 1973   7.865   6.266   8.751  0.1497  0.0151  0.4730
  124POPC   C1A 1974   8.091   5.980   8.370 -0.0071 -0.0756  0.0637
  124POPC   D2A 1975   8.023   6.252   8.013  0.0933 -0.0815  0.2374
  124POPC   C3A 1976   7.691   6.131   7.754  0.0000  0.0554  0.2504
  124POPC   C4A 1977   7.499   6.164   7.357 -0.1280  0.0245 -0.0677
  124POPC   C1B 1978   7.889   6.583   8.427 -0.1079  0.1079  0.1192
  124POPC   C2B 1979   7.794   6.721   7.990  0.2578  0.2946 -0.0931
  124POPC   C3B 1980   7.978   6.596   7.627 -0.0503 -0.0755 -0.0826
  124POPC   C4B 1981   8.072   6.411   7.249  0.1653 -0.1609 -0.2963
  125POPC   NC3 1982   1.182   6.835   8.381 -0.0219  0.1489  0.0776
  125POPC   PO4 1983   1.585   6.922   8.594 -0.0461  0.2303  0.0614
  125POPC   GL1 1984   1.526   7.106   8.141 -0.0217  0.1520 -0.0409
  125POPC   GL2 1985   1.382   6.831   7.955 -0.8319  0.0749  0.1074
  125POPC   C1A 1986   1.738   7.229   7.695 -0.3439  0.0494  0.0908
  125POPC   D2A 1987   1.570   7.451   7.255  0.0045  0.2305 -0.1389
  125POPC   C3A 1988   1.305   7.558   7.016 -0.2850  0.1075 -0.1272
  125POPC   C4A 1989   0.950   7.544   6.811  0.3652 -0.0880 -0.0367
  125POPC   C1B 1990   1.181   6.919   7.532  0.2277  0.2016  0.0933
  125POPC   C2B 1991   1.140   7.094   7.008  0.1689 -0.0887  0.2495
  125POPC   C3B 1992   0.681   7.173   6.736  0.3093 -0.0318 -0.0828
  125POPC   C4B 1993   0.422   7.185   6.453  0.3184 -0.1958 -0.0050
  126POPC   NC3 1994   0.378   9.363   9.307 -0.1711  0.0697 -0.2313
  126POPC   PO4 1995   0.088   9.127   9.043  0.1696 -0.2549 -0.1226
  126POPC   GL1 1996   0.292   9.004   8.584 -0.1533  0.0132  0.1267
  126POPC   GL2 1997   0.625   8.914   8.508  0.0470  0.1278  0.0631
  126POPC   C1A 1998   0.054   8.684   8.379 -0.1561 -0.1550  0.0338
  126POPC   D2A 1999  -0.140   8.449   8.093  0.0820  0.0688  0.2825
  126POPC   C3A 2000  -0.171   8.088   8.005 -0.0765  0.0332  0.0081
  126POPC   C4A 2001  -0.197   7.791   7.599 -0.1054  0.0197  0.0037
  126POPC   C1B 2002   0.414   8.995   8.117 -0.2238 -0.0525  0.1143
  126POPC   C2B 2003   0.313   9.238   7.737  0.0158  0.1762  0.0537
  126POPC   C3B 2004   0.045   9.545   7.431  0.1747  0.4097 -0.1309
  126POPC   C4B 2005  -0.106   9.629   7.047 -0.1448  0.1042  0.0674
  127POPC   NC3 2006   4.033   7.491   8.839 -0.1330  0.0394  0.0159
  127POPC   PO4 2007   4.429   7.571   8.645 -0.0437  0.3559  0.0158
  127POPC   GL1 2008   4.163   7.363   8.232 -0.1482  0.0178  0.0747
  127POPC   GL2 2009   4.361   7.346   7.977  0.0581 -0.0039 -0.0268
  127POPC   C1A 2010   3.939   7.128   7.928  0.1842 -0.0273 -0.1765
  127POPC   D2A 2011   3.910   6.997   7.472  0.0186  0.0813  0.0691
  127POPC   C3A 2012   3.519   6.927   7.252  0.4456 -0.1557 -0.1032
  127POPC   C4A 2013   3.397   6.827   6.819  0.0798  0.0670  0.2789
  127POPC   C1B 2014   4.111   7.534   7.773 -0.3408  0.1023 -0.0805
  127POPC   C2B 2015   3.919   7.571   7.480  0.0792  0.2272  0.3248
  127POPC   C3B 2016   3.808   7.639   7.081  0.0318 -0.1241 -0.2118
  127POPC   C4B 2017   3.561   7.650   6.705 -0.0092  0.0578 -0.2004
  128POPC   NC3 2018   5.810   9.812   9.943 -0.0681 -0.2387  0.0628
  128POPC   PO4 2019   6.146   9.509   9.723  0.0208  0.2482  0.2098
  128POPC   GL1 2020   6.187   9.540   9.305  0.1539  0.0771 -0.1721
  128POPC   GL2 2021   5.948   9.291   9.050  0.1483  0.1355 -0.0435
  128POPC   C1A 2022   6.392   9.670   8.878 -0.0799  0.1769  0.0615
  128POPC   D2A 2023   6.321   9.757   8.365 -0.0171  0.0105 -0.0148
  128POPC   C3A 2024   6.376   9.499   8.039  0.0042  0.0715  0.2281
  128POPC   C4A 2025   6.079   9.506   7.786  0.2419  0.1201  0.0986
  128POPC   C1B 2026   5.909   9.550   8.694 -0.2480 -0.1165  0.2718
  128POPC   C2B 2027   5.897   9.980   8.507 -0.0263  0.1067  0.4310
  128POPC   C3B 2028   6.148  10.214   8.143  0.0597  0.3614  0.1194
  128POPC   C4B 2029   6.366   9.970   7.869  0.0141  0.1290  0.0645
  129POPC   NC3 2030   5.978   2.736   8.911 -0.0369  0.1625  0.1903
  129POPC   PO4 2031   6.532   2.864   8.985  0.0932  0.1108 -0.0147
  129POPC   GL1 2032   6.546   2.535   8.686 -0.0876 -0.0832  0.1977
  129POPC   GL2 2033   6.227   2.755   8.469  0.2136  0.1985  0.0546
  129POPC   C1A 2034   6.640   2.470   8.244 -0.0207 -0.1070  0.2088
  129POPC   D2A 2035   6.773   2.121   7.900 -0.0630 -0.1555  0.1179
  129POPC   C3A 2036   6.674   2.195   7.431 -0.1416  0.3335  0.0467
  129POPC   C4A 2037   6.538   2.416   7.229 -0.0985 -0.1473  0.0913
  129POPC   C1B 2038   6.151   2.654   8.086  0.1491  0.3573  0.0840
  129POPC   C2B 2039   6.079   2.418   7.560 -0.0688  0.1652 -0.0658
  129POPC   C3B 2040   6.041   2.125   7.309  0.2289 -0.0371  0.0988
  129POPC   C4B 2041   6.298   2.088   6.822 -0.2215 -0.2678 -0.2725
  130POPC   NC3 2042   4.729   7.968   9.061  0.0452 -0.2821 -0.0596
  130POPC   PO4 2043   4.228   7.908   8.982 -0.2284  0.1185  0.2427
  130POPC   GL1 2044   4.052   7.908   8.487  0.0128  0.0024  0.3023
  130POPC   GL2 2045   4.271   7.883   8.182  0.0365  0.1946 -0.0334
  130POPC   C1A 2046   3.803   7.617   8.181  0.0872  0.0043  0.5238
  130POPC   D2A 2047   3.500   7.356   8.054 -0.0092 -0.1818 -0.1015
  130POPC   C3A 2048   3.485   7.307   7.601  0.0936 -0.2049  0.2150
  130POPC   C4A 2049   3.302   7.528   7.178 -0.1802  0.0564  0.1993
  130POPC   C1B 2050   4.005   8.005   7.927 -0.4180 -0.1172 -0.0769
  130POPC   C2B 2051   3.760   8.328   7.666  0.5023 -0.0055 -0.1761
  130POPC   C3B 2052   3.967   8.657   7.469  0.0566  0.1064 -0.1877
  130POPC   C4B 2053   3.995   8.771   7.012  0.1285  0.1001  0.0137
  131POPC   NC3 2054   0.088   8.066   9.135  0.0863 -0.0225  0.1609
  131POPC   PO4 2055   0.543   8.177   9.107  0.0452 -0.1200  0.2550
  131POPC   GL1 2056   0.690   8.176   8.698  0.5807  0.3368 -0.2539
  131POPC   GL2 2057   0.764   8.363   8.615  0.2065  0.3306 -0.0297
  131POPC   C1A 2058   1.008   8.031   8.315  0.0367 -0.0857  0.0462
  131POPC   D2A 2059   1.081   7.910   7.936 -0.1935  0.2145 -0.0906
  131POPC   C3A 2060   0.738   7.680   7.634 -0.0932 -0.1537 -0.2859
  131POPC   C4A 2061   0.829   7.395   7.301  0.2071  0.0031 -0.2079
  131POPC   C1B 2062   0.741   8.476   8.181  0.1452  0.0789 -0.1416
  131POPC   C2B 2063   0.757   8.756   7.791 -0.0728 -0.1584 -0.1279
  131POPC   C3B 2064   0.610   8.540   7.369 -0.0850 -0.0107 -0.0286
  131POPC   C4B 2065   0.497   8.188   7.145  0.1905  0.3370  0.1054
  132POPC   NC3 2066   7.854   0.040   9.970  0.1052 -0.0479 -0.0437
  132POPC   PO4 2067   8.261   0.139   9.705  0.1257  0.0477 -0.3690
  132POPC   GL1 2068   8.549   0.123   9.397 -0.0293  0.1080  0.1110
  132POPC   GL2 2069   8.385  -0.068   9.188  0.2089 -0.0608  0.0018
  132POPC   C1A 2070   8.628   0.342   9.023 -0.1271  0.1318 -0.1252
  132POPC   D2A 2071   8.885   0.386   8.585  0.0889  0.2447  0.1872
  132POPC   C3A 2072   8.888   0.757   8.321 -0.0993 -0.0009 -0.2976
  132POPC   C4A 2073   9.008   1.166   8.339 -0.0383 -0.2145  0.2171
  132POPC   C1B 2074   8.517  -0.467   8.883  0.1461  0.0140 -0.1981
  132POPC   C2B 2075   8.402  -0.609   8.460  0.3644  0.0083  0.3161
  132POPC   C3B 2076   8.070  -0.883   8.505 -0.2702  0.1163 -0.2923
  132POPC   C4B 2077   7.991  -1.187   8.725 -0.0893  0.0237 -0.0137
  133POPC   NC3 2078   3.106   7.702   8.674  0.1402  0.3613  0.1004
  133POPC   PO4 2079   2.698   7.613   8.886  0.0716  0.2863 -0.0253
  133POPC   GL1 2080   2.663   7.750   8.447 -0.1053 -0.0100  0.0670
  133POPC   GL2 2081   2.465   7.480   8.363 -0.1115  0.1429 -0.2010
  133POPC   C1A 2082   2.464   7.863   8.075 -0.1497  0.0359 -0.0610
  133POPC   D2A 2083   2.608   8.043   7.661 -0.0101 -0.0385 -0.0993
  133POPC   C3A 2084   2.527   8.003   7.305 -0.2944 -0.0940  0.0957
  133POPC   C4A 2085   2.635   8.153   6.886  0.0507  0.1714  0.0620
  133POPC   C1B 2086   2.559   7.349   7.987 -0.3355  0.1458 -0.0869
  133POPC   C2B 2087   2.653   7.006   7.668 -0.1381 -0.2378 -0.0660
  133POPC   C3B 2088   2.616   6.584   7.586  0.0902 -0.2188  0.0408
  133POPC   C4B 2089   2.689   6.355   7.236 -0.0083 -0.2939  0.3323
  134POPC   NC3 2090   4.466   3.585   8.641 -0.1269 -0.1338  0.0623
  134POPC   PO4 2091   4.421   4.019   8.904 -0.2230 -0.3320  0.0837
  134POPC   GL1 2092   4.496   4.043   8.398  0.0288 -0.0193 -0.1442
  134POPC   GL2 2093   4.280   4.324   8.225 -0.4321  0.1665  0.2481
  134POPC   C1A 2094   4.563   3.880   8.048 -0.0643  0.0511 -0.1486
  134POPC   D2A 2095   4.416   3.711   7.618  0.4614  0.0512 -0.1012
  134POPC   C3A 2096   4.515   3.833   7.130 -0.0144 -0.0014 -0.2204
  134POPC   C4A 2097   4.512   3.738   6.763 -0.0386  0.2136 -0.4307
  134POPC   C1B 2098   4.279   4.171   7.721 -0.5390  0.0841  0.2699
  134POPC   C2B 2099   4.597   4.235   7.403 -0.3644 -0.0242  0.1364
  134POPC   C3B 2100   4.559   4.372   7.014 -0.0056 -0.4384 -0.4593
  134POPC   C4B 2101   4.893   4.484   6.677  0.1833  0.1792  0.2201
  135POPC   NC3 2102   7.226   9.655  10.090  0.0825  0.1401 -0.1275
  135POPC   PO4 2103   7.516  10.092  10.065  0.1559  0.3078  0.0406
  135POPC   GL1 2104   7.616  10.179   9.683  0.1094 -0.1293  0.0438
  135POPC   GL2 2105   7.964  10.242   9.513  0.0815  0.0521  0.2548
  135POPC   C1A 2106   7.504  10.199   9.254  0.0084 -0.1455  0.1809
  135POPC   D2A 2107   7.238  10.093   9.027  0.3172 -0.2970 -0.5020
  135POPC   C3A 2108   7.261   9.882   8.641 -0.0450 -0.0699  0.3480
  135POPC   C4A 2109   7.675  10.057   8.502 -0.3933  0.3173 -0.2785
  135POPC   C1B 2110   7.890   9.855   9.379 -0.3046 -0.1041  0.0199
  135POPC   C2B 2111   7.450   9.682   9.293 -0.2033 -0.3201  0.0647
  135POPC   C3B 2112   7.089   9.636   9.251  0.1913  0.1300  0.1599
  135POPC   C4B 2113   6.669   9.590   9.272  0.0965  0.0992 -0.1853
  136POPC   NC3 2114   0.727   7.686   8.958 -0.1242  0.0653 -0.1073
  136POPC   PO4 2115   0.965   7.338   9.020  0.0925 -0.0811 -0.0706
  136POPC   GL1 2116   1.096   7.276   8.574 -0.0437  0.0544  0.4413
  136POPC   GL2 2117   1.366   7.454   8.476  0.1188 -0.0217 -0.3308
  136POPC   C1A 2118   1.046   7.425   8.070  0.1359 -0.3337  0.0961
  136POPC   D2A 2119   1.189   7.448   7.635 -0.0869  0.0815 -0.0228
  136POPC   C3A 2120   1.229   7.829   7.461 -0.1180  0.1507  0.1369
  136POPC   C4A 2121   0.890   7.899   7.193  0.0325  0.4505  0.0583
  136POPC   C1B 2122   1.530   7.622   8.070  0.1122 -0.0051  0.0031
  136POPC   C2B 2123   1.628   7.766   7.674  0.0485 -0.0386  0.1072
  136POPC   C3B 2124   1.614   7.973   7.277 -0.3135 -0.1100 -0.1407
  136POPC   C4B 2125   1.469   7.998   6.832  0.3155  0.1069 -0.2524
  137POPC   NC3 2126   2.475   5.709   9.203 -0.0640  0.0276 -0.0568
  137POPC   PO4 2127   2.453   5.582   8.801 -0.1727 -0.0643  0.0678
  137POPC   GL1 2128   2.265   5.666   8.405  0.1205 -0.2520  0.0055
  137POPC   GL2 2129   1.754   5.688   8.404 -0.2615 -0.1782  0.3016
  137POPC   C1A 2130   2.160   5.911   8.019 -0.0756  0.2306  0.0655
  137POPC   D2A 2131   1.922   5.936   7.613 -0.0761  0.0385 -0.1068
  137POPC   C3A 2132   1.586   5.683   7.417 -0.3675  0.0227 -0.1146
  137POPC   C4A 2133   1.229   5.519   7.110  0.0931 -0.0191  0.2274
  137POPC   C1B 2134   1.626   5.592   7.910 -0.2107 -0.1006 -0.1747
  137POPC   C2B 2135   1.219   5.664   7.752  0.0681  0.4249 -0.1786
  137POPC   C3B 2136   0.871   5.849   7.847  0.0586 -0.0433 -0.0123
  137POPC   C4B 2137   0.668   6.226   7.849 -0.2960  0.1434 -0.2295
  138POPC   NC3 2138   7.453   7.510   9.474 -0.1619 -0.0638  0.0025
  138POPC   PO4 2139   7.208   7.170   9.451 -0.0421 -0.2593 -0.4089
  138POPC   GL1 2140   7.238   7.084   9.027  0.1285 -0.0970 -0.0802
  138POPC   GL2 2141   7.468   6.797   9.031 -0.2049  0.2240 -0.1938
  138POPC   C1A 2142   7.242   7.317   8.581 -0.0727  0.0578 -0.0297
  138POPC   D2A 2143   7.278   7.581   8.301 -0.1499  0.0353 -0.1280
  138POPC   C3A 2144   7.057   7.977   8.365  0.0725 -0.0765  0.0535
  138POPC   C4A 2145   6.597   8.016   8.514  0.1161  0.2158 -0.0888
  138POPC   C1B 2146   7.561   6.915   8.588 -0.0404 -0.2238 -0.0472
  138POPC   C2B 2147   7.537   7.116   8.121  0.2705  0.2489 -0.0574
  138POPC   C3B 2148   7.650   7.091   7.657  0.0116 -0.2505 -0.0763
  138POPC   C4B 2149   7.587   7.258   7.299 -0.1905  0.0846 -0.1138
  139POPC   NC3 2150   9.404   1.537   9.263 -0.0741 -0.0053 -0.0362
  139POPC   PO4 2151   9.683   1.775   9.123  0.2250  0.1353 -0.0631
  139POPC   GL1 2152   9.480   1.932   8.829 -0.0272  0.0058  0.0881
  139POPC   GL2 2153   9.627   1.669   8.632 -0.0632 -0.0935 -0.0552
  139POPC   C1A 2154   9.174   1.887   8.626 -0.0200  0.0647  0.2932
  139POPC   D2A 2155   8.939   1.653   8.268  0.3392 -0.2373  0.0131
  139POPC   C3A 2156   8.967   1.337   7.909 -0.2989 -0.0521 -0.0474
  139POPC   C4A 2157   8.804   0.982   7.796  0.0897  0.1489  0.3337
  139POPC   C1B 2158   9.402   1.560   8.251 -0.0252 -0.0887 -0.1143
  139POPC   C2B 2159   9.464   1.472   7.767  0.1339  0.2913 -0.1447
  139POPC   C3B 2160   9.267   1.142   7.523  0.1519  0.0022 -0.4874
  139POPC   C4B 2161   8.946   0.889   7.299  0.0694 -0.0856  0.1577
  140POPC   NC3 2162   9.052   0.728   9.668 -0.1461 -0.1162  0.0232
  140POPC   PO4 2163   9.226   1.158   9.510 -0.0094  0.0093  0.1277
  140POPC   GL1 2164   9.379   1.056   8.985 -0.1921  0.4900  0.0414
  140POPC   GL2 2165   9.632   1.239   8.878  0.0761 -0.2397  0.0929
  140POPC   C1A 2166   9.267   0.770   8.688 -0.0120  0.1529  0.1372
  140POPC   D2A 2167   9.289   0.414   8.265  0.2624  0.2029 -0.0508
  140POPC   C3A 2168   9.728   0.159   8.178 -0.1696 -0.1298  0.1371
  140POPC   C4A 2169  10.128   0.040   8.185 -0.1260 -0.0166 -0.2724
  140POPC   C1B 2170   9.714   0.982   8.579  0.1401  0.2942  0.1637
  140POPC   C2B 2171   9.712   0.605   8.439  0.1051 -0.2849 -0.1824
  140POPC   C3B 2172  10.018   0.600   8.182  0.0267  0.1137 -0.4011
  140POPC   C4B 2173  10.175   0.456   7.715 -0.3569 -0.2811 -0.0045
  141POPC   NC3 2174   5.407   9.955   9.625 -0.2621  0.0979 -0.0735
  141POPC   PO4 2175   5.326  10.353   9.550  0.0372 -0.1662  0.0718
  141POPC   GL1 2176   5.615  10.484   9.269  0.3184  0.1703 -0.1887
  141POPC   GL2 2177   5.505  10.726   9.064 -0.1097  0.2824  0.1623
  141POPC   C1A 2178   5.747  10.313   8.896  0.0638  0.1745 -0.3771
  141POPC   D2A 2179   5.756  10.453   8.528 -0.0156 -0.1911 -0.3440
  141POPC   C3A 2180   6.124  10.673   8.321  0.2429 -0.2487  0.1365
  141POPC   C4A 2181   6.337  10.835   8.557 -0.0744 -0.2019  0.0534
  141POPC   C1B 2182   5.224  10.444   8.905 -0.1166 -0.0438  0.0995
  141POPC   C2B 2183   5.288  10.150   8.588 -0.1101  0.2412 -0.0661
  141POPC   C3B 2184   5.556  10.151   8.193  0.0702  0.0635  0.2350
  141POPC   C4B 2185   5.822   9.861   7.992  0.0386 -0.1716 -0.1624
  142POPC   NC3 2186  10.321   7.463   8.738 -0.2647 -0.3593  0.3185
  142POPC   PO4 2187  10.692   7.693   8.901 -0.0386 -0.0759  0.0627
  142POPC   GL1 2188  10.892   7.756   8.517  0.2363 -0.2143 -0.2637
  142POPC   GL2 2189  11.172   7.589   8.446  0.2921 -0.0432 -0.2191
  142POPC   C1A 2190  11.041   7.969   8.081  0.2732  0.1513 -0.0502
  142POPC   D2A 2191  11.007   8.112   7.635 -0.2401  0.0201  0.1961
  142POPC   C3A 2192  10.632   8.258   7.471  0.0050 -0.2711 -0.3672
  142POPC   C4A 2193  10.269   8.377   7.314 -0.0395 -0.1228  0.1979
  142POPC   C1B 2194  11.026   7.464   8.043  0.0732  0.0771  0.0164
  142POPC   C2B 2195  11.078   7.110   7.801  0.2370 -0.0171 -0.3893
  142POPC   C3B 2196  11.115   6.704   7.592 -0.0546  0.2094  0.0369
  142POPC   C4B 2197  11.299   6.771   7.167  0.0429 -0.2090 -0.2564
  143POPC   NC3 2198   1.487   7.293   8.915 -0.0784  0.1590 -0.1193
  143POPC   PO4 2199   1.931   7.531   9.129 -0.2311 -0.0353 -0.1399
  143POPC   GL1 2200   1.793   7.683   8.699  0.1522 -0.4076  0.4896
  143POPC   GL2 2201   1.885   7.394   8.499  0.1291  0.0986 -0.1450
  143POPC   C1A 2202   1.932   7.835   8.310  0.2594 -0.0088 -0.0019
  143POPC   D2A 2203   2.009   8.056   7.994 -0.1367 -0.2726  0.1015
  143POPC   C3A 2204   2.065   8.152   7.553  0.0268  0.1359  0.1407
  143POPC   C4A 2205   2.058   8.080   7.053  0.0551 -0.0662 -0.1749
  143POPC   C1B 2206   2.018   7.356   8.127 -0.0193  0.0309 -0.0316
  143POPC   C2B 2207   2.081   7.595   7.871 -0.0236  0.1809  0.0292
  143POPC   C3B 2208   2.104   7.581   7.453 -0.1057 -0.0361  0.2214
  143POPC   C4B 2209   2.334   7.655   7.020 -0.4202  0.0814 -0.1136
  144POPC   NC3 2210   8.817   9.510  10.016 -0.0818 -0.1375 -0.1429
  144POPC   PO4 2211   9.125   9.249   9.754  0.1889 -0.2403 -0.2878
  144POPC   GL1 2212   8.778   9.423   9.447 -0.0656  0.0806  0.1703
  144POPC   GL2 2213   8.902   9.179   9.197 -0.0412  0.5906 -0.1050
  144POPC   C1A 2214   8.582   9.721   9.282 -0.0511  0.1885  0.1432
  144POPC   D2A 2215   8.140   9.685   9.006 -0.1250 -0.0045 -0.3959
  144POPC   C3A 2216   7.682   9.680   8.889  0.0771 -0.0815 -0.1587
  144POPC   C4A 2217   7.425   9.378   8.890  0.0831 -0.0694 -0.0435
  144POPC   C1B 2218   9.050   9.039   8.849 -0.2717 -0.0404 -0.0421
  144POPC   C2B 2219   9.291   8.931   8.476 -0.1517 -0.0875 -0.0375
  144POPC   C3B 2220   9.382   8.655   8.169  0.0160 -0.1191  0.0598
  144POPC   C4B 2221   9.791   8.692   7.793  0.1234  0.0173 -0.2814
  145POPC   NC3 2222   6.665   1.384   9.744  0.0721  0.0827 -0.1003
  145POPC   PO4 2223   6.694   0.959   9.743 -0.2936 -0.0696  0.0036
  145POPC   GL1 2224   6.772   0.880   9.359  0.2597  0.1697 -0.0568
  145POPC   GL2 2225   6.861   1.118   9.127 -0.1950  0.1131 -0.0829
  145POPC   C1A 2226   6.835   0.557   9.000 -0.2726  0.2356  0.1710
  145POPC   D2A 2227   6.931   0.592   8.542 -0.1084  0.0081  0.1959
  145POPC   C3A 2228   7.157   0.270   8.244 -0.1672 -0.2683 -0.0973
  145POPC   C4A 2229   7.163   0.075   7.873  0.1656  0.1242 -0.2288
  145POPC   C1B 2230   6.969   1.245   8.764  0.2334 -0.0504  0.2601
  145POPC   C2B 2231   6.888   1.511   8.375  0.4033  0.2031 -0.0711
  145POPC   C3B 2232   6.546   1.790   8.195  0.1991  0.5231  0.2291
  145POPC   C4B 2233   6.157   1.756   8.159  0.0428  0.0838  0.0345
  146POPC   NC3 2234   6.799   3.551   9.457  0.1342 -0.2595 -0.0734
  146POPC   PO4 2235   6.855   3.670   8.972  0.2079  0.0272 -0.1935
  146POPC   GL1 2236   6.878   3.363   8.601 -0.3973 -0.1581  0.1712
  146POPC   GL2 2237   6.609   3.220   8.663 -0.0123  0.0294  0.0724
  146POPC   C1A 2238   7.109   3.149   8.229 -0.1612  0.1055  0.1566
  146POPC   D2A 2239   6.922   2.717   7.946 -0.2277 -0.0017 -0.1091
  146POPC   C3A 2240   7.158   2.418   7.753  0.0683 -0.1728  0.2068
  146POPC   C4A 2241   7.189   2.214   7.456 -0.3419  0.5796  0.2203
  146POPC   C1B 2242   6.563   3.003   8.216  0.2719 -0.0932  0.2031
  146POPC   C2B 2243   6.464   2.830   7.779 -0.1970 -0.0329  0.0779
  146POPC   C3B 2244   6.288   2.847   7.324 -0.1433  0.0053 -0.0662
  146POPC   C4B 2245   6.113   2.664   6.915 -0.1773 -0.2631  0.0081
  147POPC   NC3 2246   0.413   2.727   8.860  0.0899  0.1485  0.2065
  147POPC   PO4 2247   0.070   2.885   8.680 -0.0399 -0.2054  0.2547
  147POPC   GL1 2248   0.179   2.978   8.304 -0.0538 -0.0087 -0.0690
  147POPC   GL2 2249   0.472   2.875   8.305  0.0059  0.0297 -0.1606
  147POPC   C1A 2250   0.315   2.917   7.837 -0.3439 -0.3629  0.1197
  147POPC   D2A 2251  -0.026   2.862   7.481  0.0651 -0.2176  0.0852
  147POPC   C3A 2252   0.056   2.524   7.156 -0.0904 -0.3435 -0.2427
  147POPC   C4A 2253   0.289   2.324   6.809  0.0787 -0.0903  0.2409
  147POPC   C1B 2254   0.749   2.671   8.118 -0.3037  0.1383  0.0822
  147POPC   C2B 2255   0.839   2.247   8.033  0.1027  0.1197  0.0553
  147POPC   C3B 2256   0.850   1.814   8.031  0.3903  0.2884  0.1908
  147POPC   C4B 2257   0.724   1.467   8.136  0.0667 -0.0964  0.0048
  148POPC   NC3 2258   9.977   2.134   8.703 -0.1132 -0.1733 -0.2667
  148POPC   PO4 2259  10.140   1.745   8.820  0.0226  0.0011 -0.0652
  148POPC   GL1 2260   9.976   1.438   8.415  0.3946 -0.1635 -0.2921
  148POPC   GL2 2261   9.957   1.625   8.162 -0.1363 -0.2185  0.2206
  148POPC   C1A 2262   9.762   1.140   8.165  0.1705  0.4145 -0.1659
  148POPC   D2A 2263   9.456   0.930   8.140 -0.4086 -0.0276 -0.1532
  148POPC   C3A 2264   9.248   0.735   7.820 -0.3940 -0.3422  0.0641
  148POPC   C4A 2265   8.913   0.483   7.909  0.1586 -0.1902  0.1207
  148POPC   C1B 2266   9.732   1.863   7.889 -0.2235  0.1806 -0.2153
  148POPC   C2B 2267   9.520   1.891   7.474 -0.0396  0.1126 -0.0649
  148POPC   C3B 2268   9.339   1.526   7.110  0.0012 -0.0737 -0.0225
  148POPC   C4B 2269   8.929   1.467   7.007  0.2524  0.0782  0.1440
  149POPC   NC3 2270   4.396   5.433   9.118  0.0447  0.0080  0.0149
  149POPC   PO4 2271   4.584   5.642   8.745  0.1785  0.2547  0.1251
  149POPC   GL1 2272   4.870   5.807   8.341  0.2597  0.0785  0.2707
  149POPC   GL2 2273   5.043   5.500   8.315  0.0547 -0.3194  0.0959
  149POPC   C1A 2274   4.670   5.943   7.957  0.0007  0.1132  0.2155
  149POPC   D2A 2275   4.369   5.896   7.639 -0.0226  0.1924  0.3111
  149POPC   C3A 2276   4.123   5.626   7.660 -0.2044  0.1126  0.2160
  149POPC   C4A 2277   3.716   5.542   7.763 -0.1418 -0.1136 -0.1670
  149POPC   C1B 2278   5.184   5.683   7.941  0.0272 -0.0481 -0.3851
  149POPC   C2B 2279   5.265   5.541   7.551 -0.4034 -0.0234 -0.2458
  149POPC   C3B 2280   5.359   5.733   7.200  0.1144 -0.1870 -0.0662
  149POPC   C4B 2281   5.210   5.925   6.773  0.2103 -0.0930  0.1774
  150POPC   NC3 2282   7.519   1.271  10.103 -0.0660 -0.1669  0.2574
  150POPC   PO4 2283   7.550   1.645  10.024 -0.0288 -0.0866 -0.1982
  150POPC   GL1 2284   7.576   1.451   9.630 -0.1907 -0.1474  0.1928
  150POPC   GL2 2285   7.520   1.690   9.290 -0.0989  0.0978 -0.0576
  150POPC   C1A 2286   7.496   1.070   9.178 -0.2051 -0.2631 -0.0922
  150POPC   D2A 2287   7.236   0.835   8.859 -0.0787  0.4245 -0.1155
  150POPC   C3A 2288   7.588   0.679   8.481  0.1436  0.1148  0.1601
  150POPC   C4A 2289   7.507   0.615   8.130 -0.2837  0.0495 -0.3111
  150POPC   C1B 2290   7.693   1.500   8.917  0.1560  0.0880 -0.3189
  150POPC   C2B 2291   7.438   1.294   8.638  0.1630 -0.2925 -0.3103
  150POPC   C3B 2292   7.120   1.050   8.332  0.3716  0.1142  0.3136
  150POPC   C4B 2293   6.943   0.727   8.033 -0.1600  0.1187 -0.0096
  151POPC   NC3 2294   0.029   5.788   8.567  0.0519 -0.0455 -0.2778
  151POPC   PO4 2295  -0.440   6.007   8.497 -0.0540  0.3318  0.0891
  151POPC   GL1 2296  -0.103   6.186   8.278  0.1735  0.0883 -0.1030
  151POPC   GL2 2297  -0.306   6.292   8.087  0.0352 -0.2587 -0.1429
  151POPC   C1A 2298   0.171   6.179   7.887  0.0592 -0.2606 -0.1878
  151POPC   D2A 2299   0.357   6.180   7.452  0.0639 -0.0923  0.2632
  151POPC   C3A 2300   0.480   6.389   7.130 -0.3282  0.1089  0.2583
  151POPC   C4A 2301   0.445   6.723   6.807 -0.1356 -0.3098  0.0577
  151POPC   C1B 2302  -0.301   6.046   7.742 -0.0512  0.3314  0.0650
  151POPC   C2B 2303  -0.478   6.060   7.306  0.3037 -0.1520  0.2163
  151POPC   C3B 2304  -0.454   5.935   6.892  0.2608 -0.1310  0.0239
  151POPC   C4B 2305  -0.806   5.976   6.604 -0.0436  0.1012 -0.0620
  152POPC   NC3 2306  10.258   4.967   8.485  0.1728  0.2350 -0.1853
  152POPC   PO4 2307  10.269   5.314   8.514  0.0528 -0.3244  0.1116
  152POPC   GL1 2308  10.277   5.496   8.068  0.0148  0.0589 -0.2093
  152POPC   GL2 2309  10.354   5.719   8.069 -0.1776  0.3590 -0.2936
  152POPC   C1A 2310  10.079   5.513   7.718  0.0422  0.0102 -0.0503
  152POPC   D2A 2311  10.238   5.344   7.233 -0.0892 -0.1521  0.1354
  152POPC   C3A 2312  10.547   5.151   7.139  0.1114  0.0003 -0.1132
  152POPC   C4A 2313  10.932   5.086   6.887 -0.1175 -0.2778 -0.1645
  152POPC   C1B 2314  10.509   5.729   7.598 -0.1095 -0.3348 -0.0824
  152POPC   C2B 2315  10.651   5.668   7.241 -0.2591  0.2623 -0.1824
  152POPC   C3B 2316  10.834   5.932   6.832  0.1654 -0.0685  0.3062
  152POPC   C4B 2317  10.814   5.861   6.433 -0.0965  0.1355  0.0522
  153POPC   NC3 2318   7.663   3.788   8.757  0.4326 -0.2155  0.3376
  153POPC   PO4 2319   7.903   4.124   8.935  0.0149 -0.0206 -0.1027
  153POPC   GL1 2320   7.921   4.081   8.472  0.0083  0.2756 -0.0078
  153POPC   GL2 2321   8.175   4.377   8.353 -0.1227  0.0580  0.0192
  153POPC   C1A 2322   7.730   4.163   7.961 -0.1237 -0.0303 -0.0771
  153POPC   D2A 2323   7.632   4.107   7.545 -0.0339 -0.1473  0.1586
  153POPC   C3A 2324   7.432   3.716   7.449  0.1086 -0.1146  0.2217
  153POPC   C4A 2325   7.505   3.279   7.492  0.0700  0.1327  0.0891
  153POPC   C1B 2326   8.137   4.590   7.951  0.1002  0.1966  0.3184
  153POPC   C2B 2327   7.922   4.606   7.569 -0.0088  0.2137  0.2107
  153POPC   C3B 2328   7.952   4.366   7.254 -0.2164  0.0944  0.1671
  153POPC   C4B 2329   7.862   3.942   7.118  0.0675  0.3623 -0.2683
  154POPC   NC3 2330   9.953   3.985   8.909 -0.0626 -0.0846 -0.2824
  154POPC   PO4 2331   9.663   3.808   8.661  0.3707  0.3176 -0.0121
  154POPC   GL1 2332   9.631   3.768   8.204  0.0489 -0.0622  0.0695
  154POPC   GL2 2333   9.452   3.397   8.122 -0.0963 -0.2798  0.0926
  154POPC   C1A 2334   9.514   3.942   7.725  0.0889 -0.1347 -0.1275
  154POPC   D2A 2335   9.728   4.033   7.390  0.3153  0.2986 -0.2950
  154POPC   C3A 2336  10.031   3.803   7.263  0.3509 -0.1019 -0.0453
  154POPC   C4A 2337  10.208   3.388   7.318  0.1053  0.2860  0.2054
  154POPC   C1B 2338   9.506   3.103   7.809 -0.0401  0.1259  0.1177
  154POPC   C2B 2339   9.541   2.824   7.449 -0.1375  0.0264 -0.0785
  154POPC   C3B 2340   9.665   2.465   7.219 -0.1788 -0.2397 -0.0179
  154POPC   C4B 2341  10.063   2.341   7.003 -0.1621  0.1354  0.0914
  155POPC   NC3 2342   1.548   5.258   9.175  0.1923 -0.0207 -0.0162
  155POPC   PO4 2343   1.762   5.191   8.799  0.2491 -0.0418  0.1355
  155POPC   GL1 2344   1.808   5.117   8.382  0.1798  0.3242 -0.0212
  155POPC   GL2 2345   2.034   5.286   8.310  0.1357 -0.1548  0.1744
  155POPC   C1A 2346   1.920   5.002   7.885 -0.1217 -0.0560 -0.0924
  155POPC   D2A 2347   2.015   4.712   7.520  0.0163 -0.1363 -0.3612
  155POPC   C3A 2348   2.411   4.774   7.351  0.0037 -0.0098  0.2035
  155POPC   C4A 2349   2.752   4.614   7.094 -0.0941  0.0619 -0.5072
  155POPC   C1B 2350   2.160   5.421   8.008  0.2456  0.0392  0.2479
  155POPC   C2B 2351   1.978   5.419   7.643  0.0884  0.2840 -0.1528
  155POPC   C3B 2352   2.069   5.367   7.286 -0.0175 -0.0619 -0.2304
  155POPC   C4B 2353   2.167   5.080   7.014  0.0180 -0.1391 -0.0529
  156POPC   NC3 2354   6.890   2.718   9.929 -0.1122  0.0288 -0.2823
  156POPC   PO4 2355   7.109   2.845   9.483  0.3163  0.2865 -0.0893
  156POPC   GL1 2356   7.065   2.638   9.112  0.0267 -0.1133  0.2831
  156POPC   GL2 2357   7.209   2.740   8.882  0.0292  0.1699  0.1385
  156POPC   C1A 2358   6.997   2.348   8.748  0.0741  0.1602  0.0816
  156POPC   D2A 2359   6.856   2.082   8.459  0.0517 -0.2644 -0.1827
  156POPC   C3A 2360   6.613   1.823   8.730  0.0047 -0.3300 -0.0553
  156POPC   C4A 2361   6.531   1.452   8.871  0.0095  0.0219 -0.1588
  156POPC   C1B 2362   6.978   2.742   8.466  0.1896  0.1124  0.0932
  156POPC   C2B 2363   7.228   2.373   8.251  0.5097 -0.1270  0.2715
  156POPC   C3B 2364   7.196   1.940   8.017 -0.0795 -0.4524  0.0647
  156POPC   C4B 2365   7.207   1.569   7.670 -0.2483  0.2425  0.0058
  157POPC   NC3 2366   4.423   9.843   9.135  0.1382 -0.2537  0.3256
  157POPC   PO4 2367   4.487  10.204   9.058 -0.0123  0.0268  0.1675
  157POPC   GL1 2368   4.401  10.229   8.646  0.1821  0.1672 -0.0902
  157POPC   GL2 2369   4.339   9.902   8.579  0.0002 -0.0778 -0.0888
  157POPC   C1A 2370   4.440  10.439   8.236  0.0922  0.0308  0.1956
  157POPC   D2A 2371   4.347  10.573   7.876 -0.0239 -0.1924 -0.0488
  157POPC   C3A 2372   4.378  10.306   7.666 -0.1877  0.1234 -0.1973
  157POPC   C4A 2373   4.697  10.043   7.523  0.2440 -0.2395  0.1289
  157POPC   C1B 2374   4.138   9.480   8.298 -0.3085 -0.1035 -0.0256
  157POPC   C2B 2375   4.230   9.300   7.868 -0.1031 -0.1125  0.1867
  157POPC   C3B 2376   4.037   9.254   7.464  0.2751  0.0569 -0.0864
  157POPC   C4B 2377   3.898   9.654   7.204 -0.1526 -0.0038 -0.0941
  158POPC   NC3 2378   5.383   8.228   9.269 -0.1786 -0.1312  0.1941
  158POPC   PO4 2379   5.236   7.955   8.924 -0.3399 -0.3379 -0.1753
  158POPC   GL1 2380   5.489   8.081   8.551  0.1437  0.2434  0.1023
  158POPC   GL2 2381   5.825   8.262   8.707 -0.3224  0.1943  0.0540
  158POPC   C1A 2382   5.774   8.015   8.141 -0.1208 -0.2081 -0.0219
  158POPC   D2A 2383   5.699   7.817   7.838 -0.1447  0.0695  0.2138
  158POPC   C3A 2384   5.578   7.954   7.375  0.2494 -0.3865 -0.2842
  158POPC   C4A 2385   5.066   8.053   7.312 -0.0159 -0.1594  0.3607
  158POPC   C1B 2386   5.712   8.612   8.361 -0.2716  0.1663 -0.0339
  158POPC   C2B 2387   5.949   8.831   8.030 -0.0604  0.3410 -0.3175
  158POPC   C3B 2388   5.951   8.564   7.683 -0.2551 -0.2327  0.0953
  158POPC   C4B 2389   5.855   8.513   7.277 -0.0043 -0.0377  0.4312
  159POPC   NC3 2390   2.544   5.222   9.129 -0.0002 -0.0436 -0.0896
  159POPC   PO4 2391   2.960   4.919   8.972  0.0497 -0.1798  0.0019
  159POPC   GL1 2392   2.907   5.222   8.755 -0.0212 -0.0448 -0.0394
  159POPC   GL2 2393   2.739   5.233   8.554 -0.1818  0.0063  0.0379
  159POPC   C1A 2394   3.156   5.329   8.334 -0.1088 -0.1321  0.0831
  159POPC   D2A 2395   3.515   4.997   8.081  0.0062 -0.1111  0.3296
  159POPC   C3A 2396   3.481   4.921   7.535  0.0966  0.3382 -0.0275
  159POPC   C4A 2397   3.689   4.789   7.195  0.1116  0.0207  0.2174
  159POPC   C1B 2398   2.539   5.040   8.140 -0.1140 -0.0843 -0.0415
  159POPC   C2B 2399   2.411   5.060   7.726  0.0792 -0.0746 -0.0916
  159POPC   C3B 2400   2.554   5.309   7.345 -0.0637  0.0396  0.1225
  159POPC   C4B 2401   2.896   5.530   7.136  0.1662  0.0060  0.1725
  160POPC   NC3 2402   0.793   6.491   8.469 -0.1402 -0.3498  0.0524
  160POPC   PO4 2403   0.380   6.682   8.601 -0.2411 -0.0794 -0.1345
  160POPC   GL1 2404   0.237   6.718   8.235 -0.0427  0.1591  0.3260
  160POPC   GL2 2405  -0.085   6.726   8.241  0.0278  0.1119 -0.1127
  160POPC   C1A 2406   0.143   6.676   7.762  0.0836  0.1203 -0.0709
  160POPC   D2A 2407   0.256   6.777   7.290  0.1500 -0.0358 -0.1307
  160POPC   C3A 2408   0.307   7.149   7.092  0.2579 -0.0147  0.1530
  160POPC   C4A 2409   0.124   7.378   6.863  0.2437  0.0332 -0.1814
  160POPC   C1B 2410  -0.389   7.092   8.218 -0.1438 -0.1670 -0.2906
  160POPC   C2B 2411  -0.694   7.167   7.983 -0.0358  0.0123 -0.2258
  160POPC   C3B 2412  -1.135   7.082   8.004  0.1931 -0.0396 -0.0900
  160POPC   C4B 2413  -1.398   6.988   8.251  0.2762 -0.0673 -0.0505
  161POPC   NC3 2414   3.053   9.481   8.785 -0.1617  0.2840 -0.0803
  161POPC   PO4 2415   3.325   9.177   8.693 -0.1950 -0.0966 -0.0385
  161POPC   GL1 2416   3.245   9.331   8.242  0.0457  0.0802  0.0933
  161POPC   GL2 2417   3.270   9.011   8.176 -0.0168  0.2705 -0.2871
  161POPC   C1A 2418   2.878   9.301   8.097  0.0209  0.0894 -0.0238
  161POPC   D2A 2419   2.743   9.060   7.777 -0.1318  0.1106  0.0212
  161POPC   C3A 2420   2.433   9.347   7.521  0.2985 -0.1257  0.0517
  161POPC   C4A 2421   2.351   9.689   7.336  0.1682  0.0138 -0.0279
  161POPC   C1B 2422   3.305   9.094   7.786  0.0103 -0.1011  0.2111
  161POPC   C2B 2423   3.084   9.017   7.390  0.0432 -0.0337  0.4288
  161POPC   C3B 2424   3.233   9.279   7.108 -0.1031  0.2971  0.1090
  161POPC   C4B 2425   3.653   9.408   6.861 -0.2980  0.0546 -0.0833
  162POPC   NC3 2426   8.921  10.186   9.593  0.1311 -0.1124  0.1587
  162POPC   PO4 2427   9.003  10.635   9.697  0.0625  0.1112  0.6084
  162POPC   GL1 2428   9.041  10.568   9.301  0.2187 -0.3029 -0.0324
  162POPC   GL2 2429   9.331  10.427   9.328 -0.0993  0.1841  0.0954
  162POPC   C1A 2430   8.965  10.372   8.941 -0.0862 -0.2688 -0.0644
  162POPC   D2A 2431   9.050  10.004   9.031  0.0734  0.1194 -0.0519
  162POPC   C3A 2432   8.859   9.585   8.805 -0.3516 -0.2952  0.0231
  162POPC   C4A 2433   8.473   9.393   8.754 -0.1747 -0.1512 -0.3289
  162POPC   C1B 2434   9.557  10.331   8.850 -0.1260  0.1551 -0.1109
  162POPC   C2B 2435   9.771  10.227   8.538 -0.2959  0.1155 -0.2644
  162POPC   C3B 2436   9.947  10.034   8.161  0.0189  0.2604  0.4047
  162POPC   C4B 2437  10.218  10.158   7.804 -0.0778  0.1179  0.0572
  163POPC   NC3 2438   8.419   3.331   8.697  0.0636  0.0437 -0.1732
  163POPC   PO4 2439   8.192   3.688   8.689 -0.0280  0.1754  0.0596
  163POPC   GL1 2440   8.244   3.657   8.276 -0.1332  0.1393 -0.2241
  163POPC   GL2 2441   8.559   3.681   8.096  0.0915 -0.0526  0.0137
  163POPC   C1A 2442   8.220   3.995   8.005 -0.0355 -0.0265 -0.1502
  163POPC   D2A 2443   8.140   4.016   7.596  0.0067  0.0967  0.4200
  163POPC   C3A 2444   8.466   4.097   7.326  0.3006 -0.3638 -0.1331
  163POPC   C4A 2445   8.840   4.393   7.082 -0.2920  0.2585 -0.5515
  163POPC   C1B 2446   8.230   3.482   7.825  0.0062  0.0440 -0.3472
  163POPC   C2B 2447   7.971   3.169   7.569 -0.0539  0.1249 -0.1291
  163POPC   C3B 2448   7.916   3.081   7.233  0.3014  0.1843  0.2841
  163POPC   C4B 2449   7.966   2.936   6.799 -0.0861 -0.0833  0.4282
  164POPC   NC3 2450   7.289   5.503   8.895  0.1021  0.0344 -0.0301
  164POPC   PO4 2451   7.769   5.358   8.948 -0.1740  0.2657  0.2029
  164POPC   GL1 2452   7.719   5.576   8.560 -0.1052 -0.0581  0.0191
  164POPC   GL2 2453   7.404   5.472   8.427  0.0457  0.1305  0.2564
  164POPC   C1A 2454   7.871   5.589   8.143 -0.1026  0.1435 -0.1320
  164POPC   D2A 2455   8.127   5.215   7.969  0.2119 -0.0840  0.0880
  164POPC   C3A 2456   8.241   4.975   7.529  0.1134  0.0564 -0.1298
  164POPC   C4A 2457   8.405   4.585   7.316  0.0138 -0.1858 -0.2259
  164POPC   C1B 2458   7.477   5.935   8.241 -0.2313  0.2428 -0.1107
  164POPC   C2B 2459   7.521   6.379   8.241  0.0430  0.2473  0.2653
  164POPC   C3B 2460   7.259   6.742   8.185  0.3830 -0.2367 -0.0903
  164POPC   C4B 2461   7.002   7.141   8.151 -0.1034  0.1668 -0.0495
  165POPC   NC3 2462   4.026   1.720   9.196  0.3534  0.2253 -0.1836
  165POPC   PO4 2463   4.431   1.884   9.080 -0.2040 -0.1262  0.2084
  165POPC   GL1 2464   4.714   1.757   8.787  0.0135  0.0831 -0.3503
  165POPC   GL2 2465   4.578   2.109   8.648  0.2779  0.0165 -0.0337
  165POPC   C1A 2466   4.596   1.645   8.406 -0.0769 -0.0962  0.0452
  165POPC   D2A 2467   4.642   1.591   7.897 -0.1911  0.2114  0.1341
  165POPC   C3A 2468   4.305   1.868   7.716 -0.2095  0.1294  0.1245
  165POPC   C4A 2469   4.084   2.038   7.534 -0.4225  0.0881  0.2778
  165POPC   C1B 2470   4.480   2.098   8.153 -0.1773  0.0629 -0.1231
  165POPC   C2B 2471   4.466   2.426   7.964  0.0036 -0.2895 -0.2315
  165POPC   C3B 2472   4.302   2.466   7.555  0.1398 -0.4001 -0.0135
  165POPC   C4B 2473   4.416   2.356   7.167  0.4563 -0.1490 -0.0750
  166POPC   NC3 2474   5.357   3.039   8.804 -0.0210 -0.0757 -0.0127
  166POPC   PO4 2475   5.323   2.667   9.167 -0.0336  0.2609  0.1711
  166POPC   GL1 2476   5.395   2.543   8.740  0.1835 -0.1795  0.1120
  166POPC   GL2 2477   5.750   2.484   8.538  0.0611  0.1678  0.0882
  166POPC   C1A 2478   5.325   2.239   8.277 -0.2222 -0.0640  0.0460
  166POPC   D2A 2479   4.965   2.168   8.044  0.0478  0.0312 -0.0410
  166POPC   C3A 2480   4.769   2.151   7.721 -0.1288  0.2741  0.0943
  166POPC   C4A 2481   4.841   1.825   7.440 -0.3428  0.0719  0.0693
  166POPC   C1B 2482   5.853   2.153   8.247 -0.1656 -0.0693  0.2644
  166POPC   C2B 2483   5.817   2.072   7.740  0.2008  0.1136 -0.0924
  166POPC   C3B 2484   5.595   1.758   7.492  0.1613 -0.0182 -0.0256
  166POPC   C4B 2485   5.920   1.379   7.238  0.0081  0.0438 -0.1082
  167POPC   NC3 2486   0.304   4.288   8.982 -0.1945 -0.1054 -0.0314
  167POPC   PO4 2487   0.656   3.933   9.154  0.2132  0.4112  0.1427
  167POPC   GL1 2488   0.632   4.050   8.713 -0.1744  0.0709  0.2511
  167POPC   GL2 2489   0.411   4.038   8.578 -0.1691 -0.0007 -0.2216
  167POPC   C1A 2490   0.841   4.004   8.250 -0.0623 -0.0430  0.0391
  167POPC   D2A 2491   0.821   4.000   7.898 -0.2280  0.0043  0.0202
  167POPC   C3A 2492   1.046   3.625   7.820  0.0884 -0.1221  0.0237
  167POPC   C4A 2493   1.178   3.303   8.081  0.0830  0.1160 -0.1033
  167POPC   C1B 2494   0.465   3.658   8.342 -0.2717 -0.1935  0.1240
  167POPC   C2B 2495   0.648   3.345   8.114 -0.1893 -0.0046 -0.0475
  167POPC   C3B 2496   0.663   3.326   7.751 -0.1595 -0.0299 -0.1508
  167POPC   C4B 2497   0.874   3.347   7.406  0.0442  0.0556  0.1448
  168POPC   NC3 2498   0.156   0.997   4.644  0.1664 -0.1076  0.0258
  168POPC   PO4 2499  -0.086   0.678   4.814  0.3204  0.3902  0.0715
  168POPC   GL1 2500  -0.258   0.634   5.248  0.2632 -0.3912 -0.0506
  168POPC   GL2 2501   0.040   0.511   5.537  0.3481  0.2683 -0.2507
  168POPC   C1A 2502  -0.487   0.706   5.646 -0.1410 -0.1566 -0.0902
  168POPC   D2A 2503  -0.711   0.401   5.862 -0.1399  0.2082  0.1123
  168POPC   C3A 2504  -1.061   0.435   6.128  0.0456 -0.1963 -0.2798
  168POPC   C4A 2505  -1.176   0.602   6.528 -0.1494 -0.2063  0.0374
  168POPC   C1B 2506  -0.166   0.427   5.958 -0.0364 -0.4839 -0.0683
  168POPC   C2B 2507  -0.408   0.506   6.282  0.2837  0.2091  0.1149
  168POPC   C3B 2508  -0.720   0.216   6.401 -0.0004  0.1070 -0.0540
  168POPC   C4B 2509  -0.997  -0.042   6.734 -0.1279 -0.2032  0.0995
  169POPC   NC3 2510   6.454   0.351   3.577 -0.1449 -0.1772  0.0821
  169POPC   PO4 2511   6.381   0.663   3.923 -0.1010 -0.2325  0.1745
  169POPC   GL1 2512   6.628   0.340   4.112 -0.0183 -0.0176 -0.1178
  169POPC   GL2 2513   6.393   0.310   4.469 -0.1726 -0.1032 -0.1861
  169POPC   C1A 2514   6.830   0.074   4.434  0.1081 -0.3248  0.0802
  169POPC   D2A 2515   7.049   0.202   4.745  0.2752  0.3451  0.2146
  169POPC   C3A 2516   7.369   0.082   4.999  0.0771  0.0263  0.1987
  169POPC   C4A 2517   7.570  -0.109   5.207  0.1343 -0.0239 -0.2445
  169POPC   C1B 2518   6.561  -0.039   4.822 -0.0175  0.0913 -0.0599
  169POPC   C2B 2519   6.365  -0.266   5.059  0.2636  0.4104  0.0096
  169POPC   C3B 2520   5.946  -0.503   5.124 -0.0172 -0.1087 -0.0263
  169POPC   C4B 2521   5.647  -0.515   5.405 -0.2524  0.1336 -0.0180
  170POPC   NC3 2522   8.196   4.155   4.651 -0.0407 -0.1835  0.0073
  170POPC   PO4 2523   8.434   3.981   4.908 -0.0966  0.2364  0.1588
  170POPC   GL1 2524   8.356   4.159   5.408  0.1863 -0.2456  0.0231
  170POPC   GL2 2525   8.672   4.266   5.390 -0.2296 -0.0776  0.0540
  170POPC   C1A 2526   8.475   4.414   5.792  0.3552  0.0535  0.0218
  170POPC   D2A 2527   8.464   4.515   6.232 -0.0825 -0.3485  0.2147
  170POPC   C3A 2528   8.224   4.943   6.375  0.0883  0.1145 -0.1330
  170POPC   C4A 2529   7.845   5.035   6.595 -0.0544 -0.2663  0.1748
  170POPC   C1B 2530   8.752   4.771   5.518  0.1083  0.1968  0.2087
  170POPC   C2B 2531   8.735   4.878   5.964 -0.2662 -0.0448  0.0968
  170POPC   C3B 2532   8.693   4.921   6.490 -0.4163  0.1300 -0.1465
  170POPC   C4B 2533   8.453   4.644   6.805 -0.0260 -0.0537 -0.2004
  171POPC   NC3 2534   0.798   8.873   4.458  0.1933  0.5405 -0.2521
  171POPC   PO4 2535   1.177   8.677   4.651  0.0255 -0.0407  0.0676
  171POPC   GL1 2536   1.270   8.541   5.169 -0.0828  0.0954  0.1705
  171POPC   GL2 2537   1.042   8.297   5.192  0.1140  0.0716  0.0917
  171POPC   C1A 2538   1.417   8.559   5.566  0.0298  0.2510  0.0041
  171POPC   D2A 2539   1.337   8.652   5.978 -0.1785 -0.0337  0.2422
  171POPC   C3A 2540   1.144   8.375   6.296  0.0008  0.0326  0.3408
  171POPC   C4A 2541   1.009   8.045   6.668 -0.0388  0.0689 -0.1536
  171POPC   C1B 2542   0.868   8.610   5.604 -0.1186 -0.1952 -0.0945
  171POPC   C2B 2543   0.780   8.628   6.082 -0.0902  0.2732  0.3929
  171POPC   C3B 2544   0.774   8.580   6.587 -0.0847  0.2053  0.0498
  171POPC   C4B 2545   0.882   8.406   6.962 -0.1400  0.1597  0.1199
  172POPC   NC3 2546   7.990   2.013   4.190 -0.3929 -0.1622 -0.1630
  172POPC   PO4 2547   7.912   1.956   4.619 -0.0685 -0.2837  0.0032
  172POPC   GL1 2548   8.012   1.898   5.065 -0.0405 -0.0849  0.0456
  172POPC   GL2 2549   7.804   2.053   5.202  0.0591 -0.1847 -0.1021
  172POPC   C1A 2550   8.253   1.625   5.207 -0.2000 -0.2066 -0.0348
  172POPC   D2A 2551   8.353   1.214   5.176 -0.0610  0.0652 -0.1471
  172POPC   C3A 2552   8.356   0.886   5.536 -0.1734 -0.0776  0.5857
  172POPC   C4A 2553   8.033   0.616   5.757 -0.2247 -0.1892  0.1943
  172POPC   C1B 2554   7.626   2.039   5.604  0.2884 -0.1509 -0.2226
  172POPC   C2B 2555   7.396   2.065   6.035 -0.2820 -0.1032 -0.1549
  172POPC   C3B 2556   7.387   2.323   6.398 -0.0578 -0.3610  0.2425
  172POPC   C4B 2557   7.469   2.384   6.770  0.1146  0.1624 -0.2315
  173POPC   NC3 2558   0.009   1.561   4.989 -0.4495  0.1093 -0.0699
  173POPC   PO4 2559  -0.345   1.800   5.167 -0.0334 -0.1596  0.1356
  173POPC   GL1 2560  -0.524   1.771   5.547  0.1248 -0.0226 -0.0769
  173POPC   GL2 2561  -0.275   1.973   5.655  0.1421 -0.3330 -0.0728
  173POPC   C1A 2562  -0.418   1.510   5.869  0.2891 -0.1144 -0.0751
  173POPC   D2A 2563  -0.760   1.537   6.287 -0.3691  0.1802 -0.3888
  173POPC   C3A 2564  -1.196   1.604   6.126  0.0994 -0.2684  0.1641
  173POPC   C4A 2565  -1.592   1.725   5.895 -0.1552  0.1400 -0.2292
  173POPC   C1B 2566  -0.631   2.255   5.632  0.0353 -0.3759  0.3927
  173POPC   C2B 2567  -0.912   2.544   5.854 -0.1203 -0.0352 -0.2080
  173POPC   C3B 2568  -0.877   2.778   6.224 -0.1287  0.0225  0.0269
  173POPC   C4B 2569  -0.663   3.085   6.507  0.1182 -0.0769 -0.2553
  174POPC   NC3 2570   8.946   8.913   3.571  0.3096 -0.1096 -0.0059
  174POPC   PO4 2571   9.104   8.629   3.968 -0.1618 -0.1690  0.1608
  174POPC   GL1 2572   8.922   8.600   4.379  0.0065 -0.1527 -0.1526
  174POPC   GL2 2573   8.605   8.596   4.266 -0.0278 -0.0619 -0.2339
  174POPC   C1A 2574   8.963   8.479   4.739 -0.0071 -0.0448 -0.0108
  174POPC   D2A 2575   8.678   8.580   5.066  0.3657 -0.0725 -0.1390
  174POPC   C3A 2576   8.433   8.166   5.191  0.1987  0.1566  0.1740
  174POPC   C4A 2577   8.025   7.920   5.344 -0.1609 -0.0221 -0.0815
  174POPC   C1B 2578   8.498   8.694   4.674 -0.0189  0.0763  0.0880
  174POPC   C2B 2579   8.295   8.911   5.088  0.1124 -0.1333  0.3151
  174POPC   C3B 2580   8.033   9.023   5.396  0.2624 -0.0706 -0.2286
  174POPC   C4B 2581   7.583   9.019   5.530  0.1401  0.1976 -0.1363
  175POPC   NC3 2582   6.654   2.547   4.951  0.0071  0.1030  0.1867
  175POPC   PO4 2583   6.881   2.134   4.792 -0.1413 -0.0836 -0.1780
  175POPC   GL1 2584   6.596   2.057   5.186  0.3228  0.0824  0.2222
  175POPC   GL2 2585   6.617   2.267   5.390  0.1249 -0.1388  0.1812
  175POPC   C1A 2586   6.520   1.816   5.618  0.0085  0.0641 -0.4046
  175POPC   D2A 2587   6.780   1.960   5.950 -0.0911  0.1179 -0.0695
  175POPC   C3A 2588   6.593   1.935   6.474  0.0448  0.0438  0.0133
  175POPC   C4A 2589   6.612   1.700   6.865 -0.1364  0.0484  0.1259
  175POPC   C1B 2590   6.865   2.433   5.698  0.0800 -0.3056  0.1061
  175POPC   C2B 2591   6.960   2.386   6.111 -0.0127 -0.0951  0.0554
  175POPC   C3B 2592   6.918   2.281   6.598  0.0943  0.2022 -0.1753
  175POPC   C4B 2593   6.870   2.133   6.962 -0.4102  0.1322 -0.4410
  176POPC   NC3 2594   7.312   0.781   3.772 -0.1993 -0.3533  0.1436
  176POPC   PO4 2595   7.166   1.098   4.083  0.3162 -0.1305 -0.2081
  176POPC   GL1 2596   7.265   1.235   4.449  0.0308 -0.1128  0.0130
  176POPC   GL2 2597   6.966   1.119   4.648  0.1450 -0.2121  0.0666
  176POPC   C1A 2598   7.432   1.299   4.798  0.1180  0.0112  0.1227
  176POPC   D2A 2599   7.831   1.420   5.008  0.0478 -0.1842  0.0654
  176POPC   C3A 2600   7.839   1.540   5.391 -0.0371  0.2618  0.0516
  176POPC   C4A 2601   7.831   1.592   5.895  0.0294  0.2420 -0.1884
  176POPC   C1B 2602   7.010   1.335   5.047  0.0374  0.2521 -0.3168
  176POPC   C2B 2603   7.222   1.341   5.419  0.0240  0.0046  0.0788
  176POPC   C3B 2604   7.547   1.194   5.668 -0.0047  0.1938  0.0175
  176POPC   C4B 2605   7.974   1.123   5.894  0.0884  0.1463  0.0750
  177POPC   NC3 2606   4.112   2.286   5.364 -0.1829 -0.0674 -0.0158
  177POPC   PO4 2607   3.756   1.991   5.367  0.1260 -0.2653 -0.2009
  177POPC   GL1 2608   3.540   2.098   5.756 -0.2348  0.2327  0.2517
  177POPC   GL2 2609   3.660   2.417   5.782 -0.0324  0.3367  0.0743
  177POPC   C1A 2610   3.360   2.096   6.150 -0.3695 -0.1227  0.1673
  177POPC   D2A 2611   3.258   1.945   6.521  0.1023  0.1463  0.0794
  177POPC   C3A 2612   3.218   2.230   6.916 -0.0687 -0.0404 -0.0649
  177POPC   C4A 2613   3.066   2.684   7.151 -0.1943  0.1984  0.0646
  177POPC   C1B 2614   3.228   2.501   5.871  0.2025 -0.1728  0.1977
  177POPC   C2B 2615   3.142   2.947   5.923 -0.0494  0.0529  0.2271
  177POPC   C3B 2616   3.064   3.183   6.160 -0.1051 -0.0841 -0.1440
  177POPC   C4B 2617   3.042   3.530   6.478  0.1477 -0.4013  0.0476
  178POPC   NC3 2618   0.187   9.464   4.622  0.0389  0.3339 -0.0702
  178POPC   PO4 2619   0.614   9.678   4.868  0.0016 -0.1888  0.1494
  178POPC   GL1 2620   0.329   9.610   5.122  0.2058  0.1228 -0.0080
  178POPC   GL2 2621   0.420   9.843   5.356  0.3293  0.0251  0.1471
  178POPC   C1A 2622   0.213   9.351   5.440  0.2397 -0.0708  0.2694
  178POPC   D2A 2623   0.039   9.318   5.755 -0.1931 -0.0965  0.1548
  178POPC   C3A 2624  -0.001   9.557   6.078 -0.0479 -0.0664 -0.2459
  178POPC   C4A 2625  -0.109   9.486   6.532 -0.0422  0.3102 -0.0684
  178POPC   C1B 2626   0.024   9.782   5.555 -0.2148  0.0119 -0.2057
  178POPC   C2B 2627  -0.076  10.087   5.945 -0.0415  0.0295 -0.1248
  178POPC   C3B 2628  -0.114  10.010   6.295  0.1734 -0.2324  0.3335
  178POPC   C4B 2629  -0.371   9.902   6.662  0.3624 -0.0051  0.0715
  179POPC   NC3 2630   0.713   1.569   5.270  0.1833 -0.2308  0.1310
  179POPC   PO4 2631   0.320   1.235   5.338  0.0778 -0.3293  0.0279
  179POPC   GL1 2632   0.070   1.000   5.645 -0.1723 -0.1378 -0.3547
  179POPC   GL2 2633   0.252   0.774   5.927 -0.1058  0.0730  0.0182
  179POPC   C1A 2634  -0.210   0.954   6.001  0.1186 -0.0488  0.0354
  179POPC   D2A 2635  -0.649   1.019   6.245 -0.0830  0.3053  0.0855
  179POPC   C3A 2636  -0.751   0.905   6.670 -0.0561 -0.1496  0.1623
  179POPC   C4A 2637  -1.230   1.014   6.881 -0.1886 -0.0243  0.0531
  179POPC   C1B 2638   0.375   0.526   6.257 -0.0472 -0.0806 -0.0197
  179POPC   C2B 2639   0.619   0.737   6.595 -0.2011  0.1438  0.2768
  179POPC   C3B 2640   0.487   0.778   6.868 -0.1555  0.1348 -0.0664
  179POPC   C4B 2641   0.120   0.930   6.978  0.1704  0.0162  0.0414
  180POPC   NC3 2642   0.598   9.965   4.359 -0.1214 -0.0409  0.1311
  180POPC   PO4 2643   0.168   9.921   4.512 -0.3729 -0.1350  0.1247
  180POPC   GL1 2644  -0.277   9.799   4.622 -0.3574 -0.0607  0.1876
  180POPC   GL2 2645  -0.270   9.637   4.253  0.0830 -0.1794  0.3449
  180POPC   C1A 2646  -0.689   9.814   4.936 -0.2410 -0.0941  0.0565
  180POPC   D2A 2647  -0.882   9.731   5.294  0.0324  0.1710 -0.2038
  180POPC   C3A 2648  -1.266   9.497   5.351 -0.2384  0.1540 -0.0698
  180POPC   C4A 2649  -1.592   9.440   5.686 -0.1360 -0.1316  0.1559
  180POPC   C1B 2650  -0.602   9.427   4.594 -0.1168 -0.1719 -0.2836
  180POPC   C2B 2651  -0.620   9.189   5.031 -0.1560 -0.1394 -0.0880
  180POPC   C3B 2652  -0.867   9.209   5.372 -0.1243  0.1755 -0.0511
  180POPC   C4B 2653  -1.164   9.034   5.672 -0.1730  0.3606 -0.1107
  181POPC   NC3 2654   4.632   2.889   5.414  0.1262 -0.0736 -0.0422
  181POPC   PO4 2655   4.812   3.295   5.416 -0.1556 -0.0487 -0.3054
  181POPC   GL1 2656   4.652   3.706   5.548  0.0836 -0.2371 -0.0142
  181POPC   GL2 2657   4.415   4.010   5.527 -0.1001 -0.0779 -0.0769
  181POPC   C1A 2658   4.849   4.072   5.804  0.0304 -0.2930  0.1796
  181POPC   D2A 2659   4.822   4.266   6.086  0.1619  0.2138 -0.1025
  181POPC   C3A 2660   5.091   4.695   6.200 -0.0802  0.1145 -0.0043
  181POPC   C4A 2661   5.196   5.066   6.112 -0.2091  0.2200  0.0958
  181POPC   C1B 2662   4.347   4.036   5.955 -0.0318  0.0492  0.3141
  181POPC   C2B 2663   4.659   3.801   6.212 -0.1332  0.0336  0.3451
  181POPC   C3B 2664   5.072   3.570   6.350  0.0881  0.1962  0.3596
  181POPC   C4B 2665   5.485   3.548   6.356 -0.1135 -0.2551  0.0440
  182POPC   NC3 2666   8.889   4.363   4.815 -0.1075  0.0754  0.1082
  182POPC   PO4 2667   9.242   4.652   4.821  0.4030 -0.1696 -0.0326
  182POPC   GL1 2668   9.141   4.573   5.263 -0.0739 -0.0965  0.1977
  182POPC   GL2 2669   9.441   4.619   5.470  0.2033 -0.2045 -0.0642
  182POPC   C1A 2670   9.030   4.400   5.734 -0.0257 -0.0137  0.0202
  182POPC   D2A 2671   8.936   4.345   6.074  0.1987  0.2103  0.1524
  182POPC   C3A 2672   9.189   4.115   6.326 -0.1769  0.1808 -0.3580
  182POPC   C4A 2673   9.345   4.242   6.826  0.2238  0.2986  0.2365
  182POPC   C1B 2674   9.187   4.831   5.846 -0.1169 -0.0256 -0.3337
  182POPC   C2B 2675   9.189   5.041   6.146  0.0399  0.1054  0.0845
  182POPC   C3B 2676   9.244   5.014   6.625  0.0139 -0.0207 -0.2335
  182POPC   C4B 2677   9.234   4.685   6.996 -0.1026 -0.0965 -0.1058
  183POPC   NC3 2678   3.427   7.025   5.196 -0.1063  0.2333 -0.2918
  183POPC   PO4 2679   3.241   7.443   5.172  0.3144  0.0712  0.1664
  183POPC   GL1 2680   3.310   7.365   5.595 -0.1944 -0.2025 -0.0299
  183POPC   GL2 2681   3.456   7.707   5.647 -0.0313 -0.0109  0.3507
  183POPC   C1A 2682   3.435   7.447   6.054  0.4902 -0.2729 -0.0917
  183POPC   D2A 2683   3.744   7.619   6.294 -0.2656 -0.1885 -0.0308
  183POPC   C3A 2684   3.988   7.360   6.659  0.0569 -0.0517 -0.1608
  183POPC   C4A 2685   3.995   7.191   7.051 -0.3545 -0.0536 -0.2205
  183POPC   C1B 2686   3.830   7.493   5.736 -0.1657  0.1885 -0.2264
  183POPC   C2B 2687   4.031   7.200   5.711  0.2674  0.2686 -0.0080
  183POPC   C3B 2688   4.119   6.765   5.718  0.0186  0.2169 -0.0216
  183POPC   C4B 2689   4.114   6.364   5.662  0.1243  0.2857  0.1905
  184POPC   NC3 2690   3.677   8.074   4.969  0.0752 -0.0045 -0.2135
  184POPC   PO4 2691   3.831   8.465   4.997 -0.1415  0.3323  0.0646
  184POPC   GL1 2692   3.957   8.318   5.385  0.3386  0.2838  0.0661
  184POPC   GL2 2693   3.634   8.190   5.491  0.0884  0.1828  0.2864
  184POPC   C1A 2694   3.907   8.429   5.824 -0.0172  0.0505 -0.0538
  184POPC   D2A 2695   4.102   8.618   6.190 -0.3652  0.0317 -0.0373
  184POPC   C3A 2696   3.972   8.496   6.590 -0.0928  0.3053 -0.0756
  184POPC   C4A 2697   3.575   8.341   6.694 -0.0246 -0.1143 -0.0170
  184POPC   C1B 2698   3.739   7.962   5.898  0.0565  0.1940  0.2227
  184POPC   C2B 2699   3.903   8.111   6.255 -0.2064 -0.2802  0.1753
  184POPC   C3B 2700   3.985   8.018   6.676  0.0668  0.1618  0.1906
  184POPC   C4B 2701   4.323   7.792   6.933  0.3309  0.0896 -0.0296
  185POPC   NC3 2702   1.074   6.017   4.642 -0.1742 -0.1636  0.0226
  185POPC   PO4 2703   1.267   6.302   4.839  0.2596 -0.1455  0.1968
  185POPC   GL1 2704   1.218   6.389   5.272  0.0096 -0.1331  0.1563
  185POPC   GL2 2705   0.895   6.303   5.313 -0.0972  0.3969  0.2864
  185POPC   C1A 2706   1.271   6.297   5.768  0.0529 -0.2412 -0.0867
  185POPC   D2A 2707   1.293   5.998   6.066 -0.0780 -0.2313  0.1083
  185POPC   C3A 2708   1.529   5.691   5.747 -0.1424  0.0180  0.0144
  185POPC   C4A 2709   1.970   5.827   5.545 -0.0167 -0.0560 -0.2249
  185POPC   C1B 2710   0.644   6.096   5.644 -0.2762  0.3484 -0.1225
  185POPC   C2B 2711   0.754   5.917   5.952 -0.1820  0.1859  0.0017
  185POPC   C3B 2712   0.863   5.891   6.327 -0.2186 -0.1209  0.1925
  185POPC   C4B 2713   0.894   5.791   6.778 -0.0607 -0.1717 -0.2712
  186POPC   NC3 2714   5.744   9.462   3.736 -0.1722 -0.1952 -0.2156
  186POPC   PO4 2715   5.524   9.805   4.015  0.0150 -0.1421  0.2759
  186POPC   GL1 2716   5.910   9.483   4.211  0.2067  0.1164 -0.1646
  186POPC   GL2 2717   6.051   9.209   4.020 -0.1219  0.2169 -0.1150
  186POPC   C1A 2718   6.360   9.454   4.366 -0.1918 -0.1717 -0.2452
  186POPC   D2A 2719   6.660   9.451   4.728  0.0135 -0.2020  0.0697
  186POPC   C3A 2720   6.869   9.324   5.016 -0.1559 -0.0226  0.1330
  186POPC   C4A 2721   6.951   8.991   5.311 -0.1902 -0.1005  0.1067
  186POPC   C1B 2722   6.027   8.981   4.470 -0.2995  0.1140 -0.1541
  186POPC   C2B 2723   6.351   9.091   4.802 -0.2814  0.4426 -0.0238
  186POPC   C3B 2724   6.347   9.122   5.168  0.0976  0.1479  0.0019
  186POPC   C4B 2725   6.531   9.035   5.611  0.0058 -0.2531  0.1350
  187POPC   NC3 2726  10.415   7.665   4.031  0.3792  0.1288  0.0930
  187POPC   PO4 2727   9.944   7.594   4.283 -0.0354  0.1576 -0.2671
  187POPC   GL1 2728   9.823   7.765   4.791 -0.2365 -0.0042  0.3176
  187POPC   GL2 2729   9.561   7.477   4.860 -0.1484 -0.1428 -0.0323
  187POPC   C1A 2730   9.936   7.729   5.170  0.0152 -0.1961  0.0032
  187POPC   D2A 2731  10.277   7.799   5.451 -0.0271  0.1865  0.0638
  187POPC   C3A 2732  10.333   7.619   5.900 -0.1611  0.0711  0.0056
  187POPC   C4A 2733  10.119   7.269   6.123 -0.1603 -0.0478 -0.0127
  187POPC   C1B 2734   9.573   7.305   5.211  0.0061  0.0433 -0.0376
  187POPC   C2B 2735   9.263   7.102   5.471 -0.1405  0.0052 -0.1835
  187POPC   C3B 2736   9.303   6.953   5.916  0.3746 -0.0301  0.0240
  187POPC   C4B 2737   9.395   7.300   6.135 -0.0814 -0.1227  0.2113
  188POPC   NC3 2738   3.481   5.762   4.704  0.2487 -0.0354 -0.1000
  188POPC   PO4 2739   3.117   5.564   4.851  0.1097  0.0515  0.1457
  188POPC   GL1 2740   3.216   5.703   5.259  0.0211  0.0892  0.0605
  188POPC   GL2 2741   3.215   5.478   5.417  0.0355 -0.0184  0.1940
  188POPC   C1A 2742   3.367   5.877   5.719  0.1576 -0.1100 -0.1564
  188POPC   D2A 2743   3.413   5.991   6.119 -0.2073 -0.3341 -0.0601
  188POPC   C3A 2744   3.704   6.162   6.374  0.1205  0.1667  0.1858
  188POPC   C4A 2745   3.686   6.377   6.771  0.1499 -0.1900  0.0393
  188POPC   C1B 2746   2.957   5.636   5.825  0.0095 -0.1632  0.3990
  188POPC   C2B 2747   2.618   5.604   6.110  0.1470  0.1614 -0.0789
  188POPC   C3B 2748   2.463   5.501   6.461 -0.1492  0.2873 -0.0668
  188POPC   C4B 2749   2.447   5.454   6.893  0.1590 -0.0494  0.1452
  189POPC   NC3 2750   0.038   7.726   4.926 -0.2164 -0.0170 -0.2009
  189POPC   PO4 2751   0.543   7.638   4.825 -0.1431 -0.0441 -0.2364
  189POPC   GL1 2752   0.456   7.599   5.273  0.3453 -0.1926 -0.1304
  189POPC   GL2 2753   0.177   7.441   5.378  0.0290  0.0681 -0.0176
  189POPC   C1A 2754   0.385   7.655   5.789 -0.1223 -0.1756 -0.0752
  189POPC   D2A 2755   0.220   7.825   6.158 -0.1408 -0.0367  0.1895
  189POPC   C3A 2756   0.068   7.526   6.394  0.2734 -0.2419  0.2048
  189POPC   C4A 2757  -0.302   7.536   6.678  0.2076  0.0117  0.0273
  189POPC   C1B 2758   0.083   7.171   5.724  0.2277 -0.1664 -0.0702
  189POPC   C2B 2759   0.056   6.949   6.152 -0.0359 -0.1521 -0.0699
  189POPC   C3B 2760  -0.016   6.917   6.540 -0.1714 -0.0934  0.1091
  189POPC   C4B 2761  -0.054   6.672   6.770  0.1648 -0.0614 -0.2909
  190POPC   NC3 2762   6.924   7.555   3.755  0.0658 -0.1142 -0.1887
  190POPC   PO4 2763   6.706   7.273   4.008  0.1219 -0.2134  0.1503
  190POPC   GL1 2764   6.830   7.364   4.351  0.1116 -0.1441 -0.0426
  190POPC   GL2 2765   7.010   7.669   4.316 -0.2249 -0.1991  0.0367
  190POPC   C1A 2766   6.755   7.301   4.793 -0.0466  0.2312  0.1423
  190POPC   D2A 2767   7.022   7.377   5.158 -0.0018  0.2278 -0.0028
  190POPC   C3A 2768   7.162   7.664   5.412  0.0463  0.1389 -0.1491
  190POPC   C4A 2769   7.525   7.782   5.445 -0.0875  0.1643  0.1499
  190POPC   C1B 2770   6.979   7.827   4.615  0.0258  0.2106  0.2124
  190POPC   C2B 2771   6.926   7.989   5.129 -0.3638 -0.0502  0.1508
  190POPC   C3B 2772   6.795   8.165   5.444 -0.1437  0.2476 -0.0826
  190POPC   C4B 2773   6.527   8.521   5.530  0.2183 -0.1364 -0.1681
  191POPC   NC3 2774   8.794   0.165   3.823  0.1921  0.1804 -0.1878
  191POPC   PO4 2775   9.107  -0.170   3.726 -0.3896 -0.3394 -0.1393
  191POPC   GL1 2776   9.257  -0.339   4.096  0.0702 -0.1961  0.1421
  191POPC   GL2 2777   9.443  -0.537   4.075  0.0334  0.2040  0.1702
  191POPC   C1A 2778   8.867  -0.338   4.447 -0.3265  0.0876  0.1427
  191POPC   D2A 2779   8.644  -0.409   4.797  0.0340 -0.2107 -0.2036
  191POPC   C3A 2780   8.628  -0.823   4.990  0.0915 -0.0044 -0.0547
  191POPC   C4A 2781   8.596  -1.171   5.207 -0.1071 -0.2145 -0.0012
  191POPC   C1B 2782   9.702  -0.606   4.408  0.2426 -0.1241  0.0634
  191POPC   C2B 2783   9.410  -0.306   4.652 -0.0494 -0.3280 -0.0018
  191POPC   C3B 2784   9.079  -0.067   4.937 -0.0398 -0.2830  0.0332
  191POPC   C4B 2785   8.714   0.134   5.052 -0.1089 -0.1589 -0.0158
  192POPC   NC3 2786   5.293   6.087   4.293  0.3252  0.0939  0.0103
  192POPC   PO4 2787   5.520   6.308   4.558 -0.1643 -0.1499 -0.0997
  192POPC   GL1 2788   5.498   6.380   5.023 -0.0776  0.0912  0.1618
  192POPC   GL2 2789   5.168   6.566   5.109 -0.3444  0.1814  0.1500
  192POPC   C1A 2790   5.356   6.444   5.525 -0.1349  0.3499 -0.0993
  192POPC   D2A 2791   5.605   6.532   5.975  0.0444 -0.3692  0.0741
  192POPC   C3A 2792   5.936   6.750   5.970 -0.1238  0.0732 -0.1032
  192POPC   C4A 2793   6.062   7.014   6.225  0.0490 -0.0616  0.1141
  192POPC   C1B 2794   4.912   6.598   5.564 -0.0123  0.0174  0.0286
  192POPC   C2B 2795   4.649   6.776   5.843 -0.0524  0.1875  0.1710
  192POPC   C3B 2796   4.502   6.812   6.153 -0.0144 -0.1086 -0.2494
  192POPC   C4B 2797   4.073   6.585   6.241 -0.1674  0.3738  0.0014
  193POPC   NC3 2798   6.164   2.351   4.978  0.0117  0.1642  0.4183
  193POPC   PO4 2799   5.812   2.263   5.133 -0.1341  0.1111  0.0824
  193POPC   GL1 2800   6.141   2.133   5.395  0.2554  0.1498  0.1245
  193POPC   GL2 2801   5.913   1.946   5.613 -0.2317 -0.1478  0.0720
  193POPC   C1A 2802   6.304   2.270   5.775  0.0646 -0.0315 -0.2480
  193POPC   D2A 2803   6.490   2.311   6.132 -0.0154 -0.0529  0.0948
  193POPC   C3A 2804   6.152   2.488   6.454 -0.1434  0.2065  0.0485
  193POPC   C4A 2805   5.916   2.862   6.436 -0.1022  0.1382 -0.2876
  193POPC   C1B 2806   5.932   2.069   6.041  0.1388  0.0731  0.1984
  193POPC   C2B 2807   5.999   1.955   6.444  0.0239  0.1159 -0.2680
  193POPC   C3B 2808   6.208   1.563   6.612 -0.1185 -0.1513  0.3355
  193POPC   C4B 2809   6.332   1.052   6.643 -0.2466  0.3705  0.2418
  194POPC   NC3 2810   1.725   8.741   4.643  0.0955 -0.2927  0.1932
  194POPC   PO4 2811   1.698   8.490   4.965 -0.0054 -0.1007 -0.1326
  194POPC   GL1 2812   1.623   8.134   5.243 -0.0596 -0.0672 -0.2310
  194POPC   GL2 2813   1.481   7.791   5.016  0.0442 -0.1563 -0.2761
  194POPC   C1A 2814   1.582   8.121   5.666  0.1162  0.3149  0.2071
  194POPC   D2A 2815   1.443   8.205   5.914  0.1242  0.0176 -0.0626
  194POPC   C3A 2816   1.578   8.127   6.335 -0.3033 -0.1652 -0.1226
  194POPC   C4A 2817   1.809   8.335   6.719 -0.0541  0.0050  0.3653
  194POPC   C1B 2818   1.386   7.674   5.448  0.2938 -0.1775  0.1224
  194POPC   C2B 2819   1.367   7.404   5.691  0.0345  0.1283 -0.2402
  194POPC   C3B 2820   1.214   7.346   6.093 -0.0412 -0.0597  0.0638
  194POPC   C4B 2821   1.243   7.065   6.454  0.0541 -0.0742  0.0573
  195POPC   NC3 2822   5.017   5.248   4.339 -0.0481 -0.1420  0.1523
  195POPC   PO4 2823   4.727   5.519   4.491  0.0584 -0.2873 -0.0244
  195POPC   GL1 2824   5.022   5.261   4.887 -0.1171  0.2022  0.0392
  195POPC   GL2 2825   5.216   5.487   5.049  0.2375 -0.0977  0.0993
  195POPC   C1A 2826   4.845   5.290   5.363 -0.2611 -0.0168  0.1820
  195POPC   D2A 2827   5.113   5.083   5.572  0.0375 -0.0142  0.0916
  195POPC   C3A 2828   5.485   5.302   5.711  0.0103  0.2973  0.2308
  195POPC   C4A 2829   5.697   5.569   5.997  0.0781 -0.2007 -0.0445
  195POPC   C1B 2830   5.236   5.656   5.401  0.0654 -0.2743  0.1223
  195POPC   C2B 2831   5.128   5.627   5.839 -0.1370 -0.0474  0.0231
  195POPC   C3B 2832   5.293   5.513   6.268  0.1271 -0.1073  0.0475
  195POPC   C4B 2833   5.346   5.389   6.644 -0.0244  0.0216 -0.2378
  196POPC   NC3 2834   6.236   6.108   4.159 -0.1687  0.0088 -0.1078
  196POPC   PO4 2835   5.868   5.933   4.369  0.0366  0.0566 -0.2318
  196POPC   GL1 2836   5.994   6.275   4.720  0.0990 -0.2831  0.0456
  196POPC   GL2 2837   6.115   6.219   4.989 -0.1137 -0.1812 -0.2176
  196POPC   C1A 2838   6.096   6.686   4.786 -0.1885 -0.0614 -0.1184
  196POPC   D2A 2839   6.136   6.965   5.046  0.0635 -0.2774 -0.1490
  196POPC   C3A 2840   6.587   7.089   5.215  0.0354 -0.0468  0.1374
  196POPC   C4A 2841   6.709   7.283   5.578 -0.2766  0.0873  0.3064
  196POPC   C1B 2842   6.372   6.510   5.119  0.0742 -0.2339 -0.1039
  196POPC   C2B 2843   6.436   6.669   5.534 -0.0843 -0.0474 -0.0181
  196POPC   C3B 2844   6.445   7.002   5.837 -0.1022  0.1729 -0.2948
  196POPC   C4B 2845   6.527   7.026   6.248  0.2414  0.0612 -0.0456
  197POPC   NC3 2846   4.260   5.350   4.833 -0.0322 -0.0738 -0.3638
  197POPC   PO4 2847   3.764   5.538   4.988 -0.1720  0.1173  0.0632
  197POPC   GL1 2848   3.714   5.820   5.291 -0.0452 -0.2006  0.1374
  197POPC   GL2 2849   3.895   6.049   5.335 -0.0341 -0.2461 -0.0293
  197POPC   C1A 2850   3.863   5.922   5.799  0.1825  0.0049  0.0221
  197POPC   D2A 2851   3.853   5.716   6.146  0.1875  0.2504  0.0737
  197POPC   C3A 2852   3.978   5.747   6.575 -0.0986  0.0924  0.0776
  197POPC   C4A 2853   3.830   5.774   6.935 -0.0910 -0.2229 -0.0896
  197POPC   C1B 2854   4.330   5.945   5.391 -0.1108  0.0697  0.1654
  197POPC   C2B 2855   4.682   5.743   5.549  0.1164 -0.1124  0.1544
  197POPC   C3B 2856   4.693   5.479   5.803  0.0652 -0.0542 -0.1529
  197POPC   C4B 2857   4.808   5.360   6.213 -0.1822  0.3059 -0.1124
  198POPC   NC3 2858   8.320   3.066   4.763  0.5923  0.2197 -0.0418
  198POPC   PO4 2859   7.863   3.046   5.016  0.1885 -0.0876 -0.0893
  198POPC   GL1 2860   7.733   2.832   5.457 -0.2262  0.0560 -0.1104
  198POPC   GL2 2861   7.798   2.566   5.434 -0.2124  0.1237  0.1216
  198POPC   C1A 2862   7.774   2.929   5.877  0.1506 -0.1059 -0.2443
  198POPC   D2A 2863   7.851   2.847   6.306  0.1834 -0.1938 -0.0197
  198POPC   C3A 2864   7.979   2.482   6.569 -0.0881 -0.1780 -0.0670
  198POPC   C4A 2865   7.889   2.144   6.750  0.0910 -0.0922  0.1217
  198POPC   C1B 2866   8.091   2.082   5.548  0.0262  0.1680 -0.1497
  198POPC   C2B 2867   8.257   1.728   5.681 -0.2226  0.0621  0.0679
  198POPC   C3B 2868   8.316   1.449   6.056  0.0326 -0.5420  0.1173
  198POPC   C4B 2869   8.395   1.402   6.547 -0.0329 -0.1480 -0.1745
  199POPC   NC3 2870   8.849   0.839   3.123  0.0797 -0.3791  0.2005
  199POPC   PO4 2871   8.497   0.773   3.289 -0.0428  0.2961  0.1452
  199POPC   GL1 2872   8.332   0.703   3.688  0.2081 -0.2334  0.1818
  199POPC   GL2 2873   8.638   0.652   3.938  0.0537  0.2202 -0.3059
  199POPC   C1A 2874   8.230   0.350   4.081  0.1895  0.2857 -0.0105
  199POPC   D2A 2875   8.034   0.288   4.520 -0.2992 -0.1578  0.0106
  199POPC   C3A 2876   8.232   0.283   4.863  0.1650  0.0342 -0.1838
  199POPC   C4A 2877   8.160   0.588   5.175  0.0575  0.0874 -0.1385
  199POPC   C1B 2878   8.741   0.682   4.479 -0.1908 -0.1875  0.2125
  199POPC   C2B 2879   8.993   0.446   4.815  0.1624 -0.3220  0.2868
  199POPC   C3B 2880   9.173   0.364   5.242  0.1631 -0.2953  0.2622
  199POPC   C4B 2881   9.334   0.198   5.585 -0.0651  0.1289 -0.3111
  200POPC   NC3 2882   4.429   7.596   5.007 -0.0409 -0.0379  0.1509
  200POPC   PO4 2883   4.159   7.935   5.025  0.1124 -0.4656  0.1565
  200POPC   GL1 2884   4.210   7.811   5.448 -0.3512 -0.0799 -0.0117
  200POPC   GL2 2885   4.615   7.717   5.525  0.2324 -0.2461  0.2066
  200POPC   C1A 2886   4.192   7.765   5.863  0.0966 -0.0307 -0.1834
  200POPC   D2A 2887   4.242   7.763   6.281  0.2645  0.0201  0.0753
  200POPC   C3A 2888   4.451   8.043   6.516  0.1819 -0.1387  0.3167
  200POPC   C4A 2889   4.785   8.042   6.864 -0.1354  0.4375 -0.1595
  200POPC   C1B 2890   4.759   7.765   5.938 -0.3806 -0.1700  0.0091
  200POPC   C2B 2891   4.778   7.629   6.438  0.2262 -0.3842 -0.3495
  200POPC   C3B 2892   5.016   7.527   6.806 -0.1358  0.1813  0.0470
  200POPC   C4B 2893   5.422   7.146   6.798 -0.0478  0.2892 -0.2079
  201POPC   NC3 2894   9.355   4.996   5.153  0.0861 -0.1700  0.0389
  201POPC   PO4 2895   9.439   5.335   4.998  0.1226  0.0871 -0.3078
  201POPC   GL1 2896   9.519   5.406   5.431  0.2277  0.1103  0.1969
  201POPC   GL2 2897   9.245   5.691   5.546  0.1401  0.1611 -0.1025
  201POPC   C1A 2898   9.421   5.337   5.851  0.3529 -0.1011  0.2506
  201POPC   D2A 2899   9.349   5.625   6.159 -0.1422 -0.2536 -0.1038
  201POPC   C3A 2900   9.457   6.075   6.157 -0.2590  0.0791  0.0060
  201POPC   C4A 2901   9.634   6.418   6.255  0.1827 -0.0196  0.0098
  201POPC   C1B 2902   9.634   5.755   5.742  0.1096 -0.0585  0.0608
  201POPC   C2B 2903   9.936   6.037   5.875  0.0480  0.0550 -0.2102
  201POPC   C3B 2904  10.019   6.084   6.262  0.2875 -0.0614 -0.1812
  201POPC   C4B 2905  10.439   6.222   6.441  0.1981  0.3990 -0.0225
  202POPC   NC3 2906   2.606   6.313   4.860 -0.0922 -0.0765 -0.2474
  202POPC   PO4 2907   2.194   6.508   4.855  0.0086  0.0204  0.0422
  202POPC   GL1 2908   2.231   6.444   5.280  0.0471  0.1537  0.2541
  202POPC   GL2 2909   2.472   6.142   5.318 -0.0415 -0.1762 -0.1003
  202POPC   C1A 2910   2.148   6.281   5.714 -0.0679  0.1628 -0.0565
  202POPC   D2A 2911   1.788   6.136   5.917 -0.2252 -0.1339 -0.0594
  202POPC   C3A 2912   1.569   6.433   6.187  0.2409  0.2777  0.0386
  202POPC   C4A 2913   1.496   6.661   6.627  0.3621 -0.0878 -0.0975
  202POPC   C1B 2914   2.601   6.082   5.774  0.1873 -0.2681 -0.1133
  202POPC   C2B 2915   2.378   6.067   6.088 -0.3272  0.0268 -0.0954
  202POPC   C3B 2916   2.129   6.286   6.246 -0.0864 -0.2755 -0.2570
  202POPC   C4B 2917   2.030   6.456   6.670 -0.2794 -0.1590  0.2554
  203POPC   NC3 2918   9.774   7.177   4.497  0.0319 -0.1181  0.2185
  203POPC   PO4 2919  10.053   7.079   4.797 -0.0853 -0.0994 -0.0528
  203POPC   GL1 2920  10.160   7.216   5.214 -0.0744  0.1666 -0.1881
  203POPC   GL2 2921   9.932   6.949   5.285  0.1170  0.1034  0.0704
  203POPC   C1A 2922  10.065   7.335   5.602 -0.0340 -0.0932 -0.0450
  203POPC   D2A 2923   9.726   7.536   5.800  0.0046 -0.0269 -0.2787
  203POPC   C3A 2924   9.788   7.708   6.251 -0.1409  0.0641  0.1463
  203POPC   C4A 2925   9.867   8.115   6.560  0.0798 -0.0893 -0.0180
  203POPC   C1B 2926   9.713   7.053   5.691  0.2222  0.1989  0.3887
  203POPC   C2B 2927   9.727   6.957   6.193  0.1114 -0.2924 -0.4159
  203POPC   C3B 2928   9.512   7.182   6.616 -0.1060 -0.2817 -0.1789
  203POPC   C4B 2929   9.542   7.559   6.959  0.2081 -0.2244 -0.1957
  204POPC   NC3 2930   2.524  10.257   5.800 -0.2515  0.1120  0.0493
  204POPC   PO4 2931   2.201  10.081   5.503 -0.1213  0.3128 -0.2399
  204POPC   GL1 2932   2.079  10.134   5.996  0.3716 -0.1563 -0.1392
  204POPC   GL2 2933   2.160  10.500   6.029  0.3945 -0.2010  0.3166
  204POPC   C1A 2934   2.216  10.005   6.374  0.3924  0.1121  0.1774
  204POPC   D2A 2935   2.391   9.821   6.720  0.3880 -0.3915 -0.3000
  204POPC   C3A 2936   2.108   9.555   6.787  0.1499 -0.3479 -0.0354
  204POPC   C4A 2937   1.764   9.359   6.630  0.0683  0.3259  0.1119
  204POPC   C1B 2938   2.418  10.592   6.391 -0.0754  0.1560  0.0791
  204POPC   C2B 2939   2.688  10.568   6.768  0.1691  0.0373  0.2529
  204POPC   C3B 2940   3.160  10.690   6.881  0.0737 -0.0560  0.0250
  204POPC   C4B 2941   3.414  11.082   7.022 -0.3907 -0.0030 -0.0725
  205POPC   NC3 2942   2.766   0.711   5.562  0.3687  0.0287  0.1001
  205POPC   PO4 2943   2.929   0.487   5.369 -0.1109  0.4115  0.1191
  205POPC   GL1 2944   3.037   0.474   5.907  0.0891  0.1651  0.0396
  205POPC   GL2 2945   3.363   0.459   6.098  0.3618 -0.1761 -0.1606
  205POPC   C1A 2946   2.934   0.558   6.354 -0.0763  0.0770 -0.3175
  205POPC   D2A 2947   2.857   0.609   6.838 -0.0998 -0.0869  0.4276
  205POPC   C3A 2948   2.708   0.450   7.162 -0.0005 -0.1396 -0.1352
  205POPC   C4A 2949   2.519   0.647   7.576 -0.1109 -0.3342 -0.0763
  205POPC   C1B 2950   3.320   0.822   6.429 -0.0595  0.3218  0.1001
  205POPC   C2B 2951   3.206   1.003   6.807  0.1853  0.1634  0.0416
  205POPC   C3B 2952   2.922   1.229   7.047 -0.0179  0.1607 -0.0157
  205POPC   C4B 2953   2.589   1.514   6.955  0.0375 -0.1170  0.2079
  206POPC   NC3 2954   9.551   5.769   4.661 -0.1023  0.2232  0.0339
  206POPC   PO4 2955   9.797   5.783   5.026 -0.2288  0.0192 -0.1042
  206POPC   GL1 2956   9.784   6.066   5.362 -0.2142  0.0116 -0.1723
  206POPC   GL2 2957   9.840   6.415   5.348 -0.0463 -0.3309  0.1295
  206POPC   C1A 2958   9.502   6.233   5.646 -0.2937  0.0253 -0.1261
  206POPC   D2A 2959   9.157   6.477   6.009 -0.1326  0.1711  0.0636
  206POPC   C3A 2960   9.187   6.904   6.369 -0.2635  0.1155  0.0638
  206POPC   C4A 2961   8.947   7.284   6.384  0.0665 -0.3789  0.2725
  206POPC   C1B 2962  10.191   6.292   5.542  0.2519 -0.1560 -0.0779
  206POPC   C2B 2963  10.344   6.314   5.964  0.0196  0.0089 -0.0921
  206POPC   C3B 2964  10.125   6.552   6.309  0.4297 -0.3514 -0.1128
  206POPC   C4B 2965   9.934   6.842   6.656 -0.0057 -0.0273  0.1432
  207POPC   NC3 2966   7.733   3.982   5.155 -0.1410 -0.0204  0.1547
  207POPC   PO4 2967   7.972   4.289   5.137  0.2863 -0.3097 -0.0961
  207POPC   GL1 2968   7.872   4.320   5.547 -0.0844  0.1085 -0.1844
  207POPC   GL2 2969   7.670   4.645   5.520  0.1255  0.0338 -0.3573
  207POPC   C1A 2970   7.565   4.227   5.957  0.1125 -0.0776  0.1684
  207POPC   D2A 2971   7.534   4.028   6.357 -0.1729 -0.1328  0.1727
  207POPC   C3A 2972   7.507   4.089   6.759  0.1628 -0.0277  0.0111
  207POPC   C4A 2973   7.285   4.110   7.121  0.2430 -0.1305 -0.0576
  207POPC   C1B 2974   7.794   4.976   5.796  0.1995  0.5208  0.2915
  207POPC   C2B 2975   7.882   5.212   6.030 -0.0731  0.2804  0.0957
  207POPC   C3B 2976   7.804   5.668   6.015 -0.1152 -0.2310  0.0835
  207POPC   C4B 2977   7.797   6.043   6.211 -0.0562  0.1271 -0.4307
  208POPC   NC3 2978   2.504   7.772   5.120  0.0270  0.0248 -0.4868
  208POPC   PO4 2979   2.663   8.190   5.209  0.0314 -0.0837  0.0349
  208POPC   GL1 2980   2.838   8.200   5.593  0.1381 -0.0214 -0.1498
  208POPC   GL2 2981   3.198   8.344   5.741  0.0344 -0.1693 -0.2765
  208POPC   C1A 2982   2.966   7.937   5.953 -0.2323 -0.2671  0.1652
  208POPC   D2A 2983   2.874   7.597   6.150 -0.1266 -0.0770 -0.1935
  208POPC   C3A 2984   3.040   7.408   6.408 -0.1952 -0.0389 -0.0070
  208POPC   C4A 2985   3.501   7.141   6.437 -0.0996  0.0542 -0.2350
  208POPC   C1B 2986   3.411   8.243   6.179  0.0651  0.2359 -0.1669
  208POPC   C2B 2987   3.309   7.958   6.407 -0.1810  0.1289  0.2621
  208POPC   C3B 2988   3.060   7.795   6.717  0.2247  0.1942  0.0887
  208POPC   C4B 2989   2.825   7.587   7.033 -0.1985  0.1884 -0.0368
  209POPC   NC3 2990  10.040   0.960   3.827  0.2311 -0.3628  0.1377
  209POPC   PO4 2991   9.704   1.085   4.105  0.0349  0.1814 -0.2457
  209POPC   GL1 2992   9.545   0.678   4.366 -0.0363  0.1320  0.1231
  209POPC   GL2 2993   9.249   0.739   4.485 -0.0589 -0.3439 -0.1542
  209POPC   C1A 2994   9.471   0.210   4.683  0.2280 -0.1281  0.1480
  209POPC   D2A 2995   9.701  -0.022   5.061  0.2538  0.0244 -0.0580
  209POPC   C3A 2996   9.422  -0.242   5.325  0.0948  0.1944 -0.1069
  209POPC   C4A 2997   9.149  -0.554   5.083 -0.4444 -0.3332 -0.0733
  209POPC   C1B 2998   9.388   0.715   4.917 -0.1183 -0.0606  0.0166
  209POPC   C2B 2999   9.633   0.500   5.303 -0.1814 -0.1534 -0.2699
  209POPC   C3B 3000   9.940   0.174   5.446  0.2829 -0.2944  0.2719
  209POPC   C4B 3001  10.277   0.041   5.645 -0.1281 -0.1855  0.3782
  210POPC   NC3 3002   2.387   2.566   5.174 -0.2188 -0.1709  0.0041
  210POPC   PO4 3003   2.143   2.908   5.211 -0.0676 -0.0515  0.0369
  210POPC   GL1 3004   2.255   2.898   5.710  0.1316 -0.1822  0.0468
  210POPC   GL2 3005   1.884   2.924   5.795  0.0368  0.3284  0.0946
  210POPC   C1A 3006   2.275   2.836   6.096 -0.2785  0.0077 -0.2076
  210POPC   D2A 3007   2.395   2.726   6.562  0.1290  0.0785 -0.0695
  210POPC   C3A 3008   2.478   3.012   6.819  0.0994  0.0854 -0.0968
  210POPC   C4A 3009   2.752   3.081   7.111  0.1314  0.0418  0.1707
  210POPC   C1B 3010   1.868   3.092   6.183  0.1339 -0.3059  0.0786
  210POPC   C2B 3011   2.056   3.118   6.559  0.1693  0.2788 -0.0427
  210POPC   C3B 3012   1.956   2.817   6.903 -0.3907 -0.1339  0.0585
  210POPC   C4B 3013   1.962   2.783   7.326 -0.0770  0.0283  0.1044
  211POPC   NC3 3014   7.158   2.529   4.658  0.1043 -0.1006  0.1182
  211POPC   PO4 3015   7.066   2.833   4.970 -0.3130 -0.2377 -0.2550
  211POPC   GL1 3016   7.121   2.587   5.304 -0.0226 -0.4025  0.2175
  211POPC   GL2 3017   7.136   2.249   5.301  0.0210  0.0712 -0.0956
  211POPC   C1A 3018   7.367   2.490   5.727 -0.1165 -0.0480  0.3464
  211POPC   D2A 3019   7.752   2.409   6.016  0.0459 -0.2006 -0.0414
  211POPC   C3A 3020   8.026   2.011   6.040  0.3098  0.0216 -0.0881
  211POPC   C4A 3021   7.989   1.734   6.439 -0.0815  0.2429  0.0550
  211POPC   C1B 3022   7.183   1.955   5.578  0.2289 -0.1657 -0.0599
  211POPC   C2B 3023   7.274   1.622   5.817  0.1304 -0.2137 -0.3947
  211POPC   C3B 3024   7.054   1.540   6.213 -0.1802  0.0652  0.1335
  211POPC   C4B 3025   6.723   1.404   6.501  0.0272 -0.2352  0.4985
  212POPC   NC3 3026   2.262   9.453   4.827  0.1931 -0.2642 -0.2029
  212POPC   PO4 3027   1.928   9.287   5.100 -0.1295 -0.0955  0.0055
  212POPC   GL1 3028   1.904   9.323   5.514  0.0408 -0.0998  0.2649
  212POPC   GL2 3029   1.851   9.656   5.723  0.3227 -0.1621 -0.2489
  212POPC   C1A 3030   1.856   9.157   5.909  0.1512 -0.0056 -0.1989
  212POPC   D2A 3031   1.826   8.923   6.326  0.0575  0.2982 -0.1459
  212POPC   C3A 3032   1.563   8.746   6.469 -0.1818  0.1792 -0.0490
  212POPC   C4A 3033   1.378   8.564   6.686 -0.0495 -0.2119 -0.1618
  212POPC   C1B 3034   1.815   9.662   6.202 -0.2678  0.1426  0.1603
  212POPC   C2B 3035   1.772   9.908   6.686 -0.0461  0.2140  0.4561
  212POPC   C3B 3036   1.946   9.964   7.112 -0.1094  0.0233 -0.1335
  212POPC   C4B 3037   1.893  10.304   7.416  0.1151  0.0540 -0.0636
  213POPC   NC3 3038   2.866   4.683   4.967 -0.3248 -0.0750  0.0117
  213POPC   PO4 3039   2.362   4.714   5.069  0.0438  0.0606 -0.2229
  213POPC   GL1 3040   2.619   4.806   5.420  0.0823 -0.2780  0.1054
  213POPC   GL2 3041   2.440   5.129   5.383 -0.2497 -0.0528 -0.1395
  213POPC   C1A 3042   2.985   4.819   5.619 -0.0973  0.0207  0.0634
  213POPC   D2A 3043   3.193   4.662   5.880  0.1185  0.2116  0.2077
  213POPC   C3A 3044   3.054   4.673   6.274  0.1065 -0.0207 -0.1541
  213POPC   C4A 3045   2.875   4.612   6.626  0.0086 -0.2159 -0.0871
  213POPC   C1B 3046   2.716   5.246   5.688  0.1979 -0.0389  0.0924
  213POPC   C2B 3047   2.946   5.140   6.042 -0.0630 -0.0459 -0.0629
  213POPC   C3B 3048   3.312   5.141   6.379  0.1567  0.0899 -0.0436
  213POPC   C4B 3049   3.304   5.046   6.786 -0.1341 -0.0270 -0.0340
  214POPC   NC3 3050   0.855   5.030   4.907 -0.0057 -0.0772  0.0314
  214POPC   PO4 3051   0.492   4.892   5.009  0.2180  0.1555  0.1704
  214POPC   GL1 3052   0.736   5.069   5.379  0.2123  0.0780  0.0207
  214POPC   GL2 3053   0.974   5.367   5.255  0.0390  0.0051 -0.2685
  214POPC   C1A 3054   0.740   5.116   5.753  0.4481 -0.0497 -0.1575
  214POPC   D2A 3055   0.529   5.460   6.001 -0.1504  0.0315 -0.2137
  214POPC   C3A 3056   0.624   5.381   6.400  0.1566  0.1701 -0.4391
  214POPC   C4A 3057   0.923   5.314   6.665 -0.0619  0.1397 -0.4922
  214POPC   C1B 3058   0.925   5.598   5.596  0.0664 -0.0804 -0.1570
  214POPC   C2B 3059   1.112   5.529   6.018 -0.0151 -0.2282  0.0700
  214POPC   C3B 3060   1.470   5.396   6.351 -0.1058  0.1456  0.3519
  214POPC   C4B 3061   1.406   5.666   6.685  0.2496 -0.0894 -0.2838
  215POPC   NC3 3062   1.540   4.286   4.739  0.1458 -0.1219 -0.0817
  215POPC   PO4 3063   1.173   4.469   4.749  0.0475 -0.1488  0.2219
  215POPC   GL1 3064   1.369   4.679   5.174 -0.1847  0.2072 -0.1055
  215POPC   GL2 3065   1.210   4.953   5.290 -0.1570  0.1826 -0.1129
  215POPC   C1A 3066   1.566   4.673   5.510  0.1089 -0.3425 -0.0131
  215POPC   D2A 3067   1.394   4.493   5.865  0.1516 -0.0457  0.3298
  215POPC   C3A 3068   1.221   4.034   6.063 -0.1664 -0.4829  0.0506
  215POPC   C4A 3069   0.809   3.635   6.250 -0.4490 -0.4540 -0.1386
  215POPC   C1B 3070   1.213   5.023   5.826 -0.2860  0.1968  0.5497
  215POPC   C2B 3071   0.943   5.032   6.231  0.0429 -0.3046  0.0990
  215POPC   C3B 3072   0.655   4.672   6.303  0.1108  0.1383 -0.1681
  215POPC   C4B 3073   0.289   4.420   6.135  0.1519 -0.1372 -0.0920
  216POPC   NC3 3074   4.826  10.345   4.255 -0.1765 -0.0693  0.2678
  216POPC   PO4 3075   4.941  10.317   4.705  0.1838  0.3254 -0.2887
  216POPC   GL1 3076   5.116  10.330   5.125 -0.1342  0.0601 -0.4766
  216POPC   GL2 3077   5.136   9.987   5.232 -0.0667  0.0284 -0.3584
  216POPC   C1A 3078   5.398  10.390   5.364  0.1561 -0.1828  0.3067
  216POPC   D2A 3079   5.705  10.707   5.328  0.3553 -0.2506 -0.3065
  216POPC   C3A 3080   5.982  11.110   5.329 -0.4339  0.0803  0.1079
  216POPC   C4A 3081   6.381  11.185   5.325 -0.4803  0.1397  0.1547
  216POPC   C1B 3082   5.226  10.076   5.678 -0.3106 -0.1462  0.0444
  216POPC   C2B 3083   5.574  10.032   5.907 -0.1666  0.3793  0.1966
  216POPC   C3B 3084   5.681   9.955   6.270 -0.1022  0.5455  0.0042
  216POPC   C4B 3085   5.880   9.724   6.529  0.1572  0.1080 -0.0640
  217POPC   NC3 3086   3.250   2.642   5.007 -0.1830 -0.0859 -0.1173
  217POPC   PO4 3087   2.906   2.389   5.062 -0.1516  0.1100 -0.1924
  217POPC   GL1 3088   2.746   2.404   5.449  0.0920  0.0920  0.3313
  217POPC   GL2 3089   2.825   2.177   5.774 -0.1576 -0.2023  0.1075
  217POPC   C1A 3090   2.757   2.664   5.860 -0.2929  0.0876  0.0878
  217POPC   D2A 3091   2.799   2.779   6.274 -0.0474 -0.0424 -0.0081
  217POPC   C3A 3092   3.174   2.671   6.388  0.0528 -0.1809 -0.3284
  217POPC   C4A 3093   3.453   2.679   6.833  0.0216  0.0011 -0.1397
  217POPC   C1B 3094   2.896   1.847   6.143  0.0023  0.0193 -0.2269
  217POPC   C2B 3095   2.644   1.858   6.477  0.2034  0.1012 -0.2612
  217POPC   C3B 3096   2.564   2.145   6.873  0.2229  0.0450  0.1209
  217POPC   C4B 3097   2.139   2.371   6.937 -0.1787  0.2034  0.0713
  218POPC   NC3 3098   0.091   5.148   4.794 -0.3318  0.0606  0.0979
  218POPC   PO4 3099   0.491   5.425   4.757  0.1395  0.1455  0.0854
  218POPC   GL1 3100   0.358   5.435   5.167  0.1704 -0.0589  0.0336
  218POPC   GL2 3101   0.125   5.340   5.302 -0.2609 -0.1493 -0.0573
  218POPC   C1A 3102   0.406   5.716   5.586 -0.2453  0.1026  0.0533
  218POPC   D2A 3103   0.213   5.838   5.933  0.1259  0.0041  0.1159
  218POPC   C3A 3104   0.354   6.217   6.081  0.1156  0.1299 -0.1150
  218POPC   C4A 3105   0.542   6.293   6.538 -0.1534  0.2179 -0.1296
  218POPC   C1B 3106   0.151   5.323   5.693  0.0813  0.2488  0.2826
  218POPC   C2B 3107  -0.088   5.215   6.018  0.2481  0.0903  0.1626
  218POPC   C3B 3108  -0.157   4.842   6.152 -0.0508 -0.1782  0.0350
  218POPC   C4B 3109  -0.339   4.686   6.456 -0.2030 -0.4357 -0.2514
  219POPC   NC3 3110   0.991   4.117   5.093 -0.0543  0.3548  0.0072
  219POPC   PO4 3111   1.200   4.030   5.445  0.0621 -0.0714  0.3166
  219POPC   GL1 3112   1.586   3.954   5.718  0.2012 -0.0190  0.1762
  219POPC   GL2 3113   1.967   3.839   5.662 -0.0783  0.2177  0.1142
  219POPC   C1A 3114   1.724   3.906   6.160 -0.0050 -0.2160 -0.1396
  219POPC   D2A 3115   1.421   3.858   6.495 -0.2405 -0.1028  0.2586
  219POPC   C3A 3116   1.108   4.061   6.648 -0.3641 -0.0282  0.1621
  219POPC   C4A 3117   0.877   4.287   6.846 -0.0577  0.1000  0.2964
  219POPC   C1B 3118   2.196   3.982   5.999  0.2580 -0.1566  0.0338
  219POPC   C2B 3119   2.115   4.026   6.429  0.1302  0.1283 -0.1389
  219POPC   C3B 3120   1.838   4.178   6.755  0.0087  0.0953  0.1655
  219POPC   C4B 3121   1.510   4.013   6.925 -0.0691 -0.0873 -0.0674
  220POPC   NC3 3122   7.315   7.970   3.129  0.1168  0.0154  0.2812
  220POPC   PO4 3123   7.350   7.699   3.568 -0.2177  0.0096  0.1107
  220POPC   GL1 3124   7.605   7.740   4.025  0.0462 -0.0115 -0.0301
  220POPC   GL2 3125   7.456   8.153   4.169  0.3380  0.0203  0.2666
  220POPC   C1A 3126   7.504   7.662   4.477  0.0837 -0.0913 -0.0390
  220POPC   D2A 3127   7.283   7.359   4.666 -0.0233 -0.0221  0.1813
  220POPC   C3A 3128   7.408   7.082   4.899  0.1400  0.1514  0.2770
  220POPC   C4A 3129   7.641   7.049   5.233  0.0540  0.1936 -0.0391
  220POPC   C1B 3130   7.346   8.114   4.492  0.1819 -0.0178 -0.0587
  220POPC   C2B 3131   7.102   8.364   4.727 -0.1033  0.3145 -0.0203
  220POPC   C3B 3132   6.815   8.469   4.981 -0.1602 -0.1300 -0.1969
  220POPC   C4B 3133   6.556   8.684   5.052  0.0152 -0.1127 -0.3612
  221POPC   NC3 3134   5.085   1.749   5.092 -0.2325 -0.1858 -0.0035
  221POPC   PO4 3135   5.311   1.862   5.455 -0.2435  0.0083 -0.0727
  221POPC   GL1 3136   5.510   1.716   5.714  0.1619 -0.2337 -0.2690
  221POPC   GL2 3137   5.641   1.463   5.545 -0.1066  0.2423  0.0136
  221POPC   C1A 3138   5.795   1.618   6.022  0.2296  0.0015  0.3430
  221POPC   D2A 3139   5.759   1.491   6.496  0.1176  0.2097 -0.3300
  221POPC   C3A 3140   5.868   1.137   6.752  0.0358  0.1256  0.2295
  221POPC   C4A 3141   5.609   0.812   6.780 -0.2451  0.1168  0.0301
  221POPC   C1B 3142   5.410   1.268   5.933  0.0771 -0.1482 -0.0105
  221POPC   C2B 3143   5.229   1.006   6.195  0.2995  0.0052 -0.0639
  221POPC   C3B 3144   5.379   0.517   6.370  0.0945  0.0633 -0.0109
  221POPC   C4B 3145   5.416   0.146   6.575 -0.1815 -0.1953 -0.2105
  222POPC   NC3 3146   2.021   6.888   5.098  0.2914 -0.2866  0.0361
  222POPC   PO4 3147   1.723   7.204   5.078  0.2072 -0.0820  0.3070
  222POPC   GL1 3148   1.740   7.085   5.444  0.0521  0.0354 -0.0121
  222POPC   GL2 3149   1.662   6.772   5.470 -0.0700 -0.0499 -0.1045
  222POPC   C1A 3150   1.895   7.211   5.828 -0.0573  0.0915 -0.0893
  222POPC   D2A 3151   2.189   7.424   6.041 -0.0459 -0.3160 -0.0016
  222POPC   C3A 3152   2.456   7.726   6.015 -0.0708  0.0329  0.0769
  222POPC   C4A 3153   2.524   8.188   6.024 -0.4450  0.2541  0.1687
  222POPC   C1B 3154   1.707   6.780   5.871 -0.0480 -0.1784 -0.2728
  222POPC   C2B 3155   1.667   6.995   6.246 -0.1763  0.2269 -0.3101
  222POPC   C3B 3156   1.706   7.111   6.761  0.3455 -0.0923 -0.0515
  222POPC   C4B 3157   2.001   7.199   7.146  0.1391  0.1181 -0.1079
  223POPC   NC3 3158   3.847   3.406   5.123  0.0125 -0.0417  0.0088
  223POPC   PO4 3159   4.222   3.144   5.158  0.0063 -0.1065 -0.0518
  223POPC   GL1 3160   4.374   3.255   5.604  0.0409  0.0280 -0.2391
  223POPC   GL2 3161   4.393   2.900   5.859  0.1043  0.0309 -0.2889
  223POPC   C1A 3162   4.285   3.552   5.890 -0.0089  0.0962  0.3836
  223POPC   D2A 3163   3.863   3.724   5.961 -0.1388 -0.0787 -0.0299
  223POPC   C3A 3164   3.941   4.162   6.221 -0.0811 -0.4778  0.0561
  223POPC   C4A 3165   3.872   4.387   6.650  0.2412 -0.1377  0.1258
  223POPC   C1B 3166   4.028   2.629   6.018 -0.2828 -0.1091  0.0562
  223POPC   C2B 3167   3.631   2.834   6.173  0.0026  0.5992  0.1819
  223POPC   C3B 3168   3.672   3.124   6.597 -0.0153 -0.2222  0.0477
  223POPC   C4B 3169   3.654   3.400   6.942  0.1282 -0.0426  0.0368
  224POPC   NC3 3170   1.165   7.509   4.169  0.1267 -0.2000  0.2406
  224POPC   PO4 3171   1.275   7.650   4.560  0.0299  0.0904  0.1361
  224POPC   GL1 3172   1.039   7.635   4.926  0.1564 -0.1310 -0.1155
  224POPC   GL2 3173   1.198   7.372   5.103 -0.0767 -0.0931  0.1286
  224POPC   C1A 3174   0.897   7.845   5.338  0.0636 -0.0802  0.0761
  224POPC   D2A 3175   1.096   8.023   5.637 -0.1093 -0.1860 -0.2647
  224POPC   C3A 3176   1.194   7.795   6.090 -0.2376 -0.3341 -0.0016
  224POPC   C4A 3177   1.415   7.612   6.459  0.1134 -0.1856 -0.5066
  224POPC   C1B 3178   0.899   7.354   5.454 -0.2589 -0.1382 -0.1591
  224POPC   C2B 3179   0.861   7.554   5.803 -0.1582 -0.1268 -0.1086
  224POPC   C3B 3180   0.697   7.570   6.267 -0.0849 -0.1081 -0.0518
  224POPC   C4B 3181   0.524   7.639   6.637  0.0282  0.3176 -0.1693
  225POPC   NC3 3182   6.187   3.070   5.270  0.1729  0.0148  0.2760
  225POPC   PO4 3183   6.358   2.758   5.346  0.0574  0.2348  0.0694
  225POPC   GL1 3184   6.440   2.828   5.793 -0.1628 -0.0905 -0.2576
  225POPC   GL2 3185   6.173   2.851   5.964 -0.0570  0.0555 -0.1944
  225POPC   C1A 3186   6.647   2.769   6.227  0.1625 -0.0055 -0.4211
  225POPC   D2A 3187   6.615   2.689   6.666 -0.0776  0.3841  0.0647
  225POPC   C3A 3188   6.727   3.015   7.026 -0.0782  0.1786  0.0764
  225POPC   C4A 3189   7.052   3.348   7.290  0.1485 -0.1300  0.4917
  225POPC   C1B 3190   5.867   2.523   6.056  0.2976 -0.1949 -0.1221
  225POPC   C2B 3191   5.676   2.327   6.405 -0.1306  0.1174 -0.2112
  225POPC   C3B 3192   5.794   2.227   6.831 -0.3216  0.2134  0.2828
  225POPC   C4B 3193   5.749   1.781   6.957 -0.3028  0.1238  0.0190
  226POPC   NC3 3194   5.317   3.474   5.371  0.0244  0.1142  0.2559
  226POPC   PO4 3195   5.034   3.782   5.206 -0.4148 -0.0760 -0.2632
  226POPC   GL1 3196   5.156   3.714   5.756 -0.3508 -0.1861  0.1378
  226POPC   GL2 3197   4.939   3.512   5.920 -0.0539  0.2325  0.2957
  226POPC   C1A 3198   5.266   3.940   6.069  0.3193 -0.0264 -0.0275
  226POPC   D2A 3199   5.099   4.037   6.484  0.1859  0.2166  0.0995
  226POPC   C3A 3200   5.250   3.720   6.804 -0.0234 -0.0967  0.1499
  226POPC   C4A 3201   5.563   3.499   6.990  0.0315 -0.1075  0.3099
  226POPC   C1B 3202   4.624   3.332   6.247  0.0137  0.2267  0.0833
  226POPC   C2B 3203   4.445   2.901   6.391 -0.0845  0.1420 -0.3875
  226POPC   C3B 3204   3.998   2.781   6.474 -0.2511  0.1206 -0.0706
  226POPC   C4B 3205   3.575   2.386   6.473  0.1537 -0.3111  0.0217
  227POPC   NC3 3206   3.291   0.872   5.679  0.1233  0.0224 -0.0705
  227POPC   PO4 3207   3.160   1.342   5.425  0.4129 -0.3312  0.0044
  227POPC   GL1 3208   3.092   1.336   5.865 -0.2676 -0.0740  0.0493
  227POPC   GL2 3209   2.820   1.109   5.880 -0.1144 -0.0812 -0.1861
  227POPC   C1A 3210   3.216   1.433   6.275 -0.0862  0.0655  0.0102
  227POPC   D2A 3211   2.966   1.456   6.614  0.1995  0.0214  0.2844
  227POPC   C3A 3212   3.075   1.712   6.965 -0.0493 -0.3590 -0.2509
  227POPC   C4A 3213   3.241   1.495   7.394 -0.0684  0.1150 -0.2239
  227POPC   C1B 3214   2.829   1.086   6.258 -0.1616 -0.1057 -0.2395
  227POPC   C2B 3215   2.636   1.107   6.623 -0.1570  0.0691 -0.0147
  227POPC   C3B 3216   2.403   0.937   7.026  0.1222 -0.1450  0.1113
  227POPC   C4B 3217   1.977   0.863   7.147 -0.2683 -0.2486  0.1407
  228POPC   NC3 3218   2.937   8.625   4.914  0.0234 -0.1376 -0.0239
  228POPC   PO4 3219   3.080   9.015   5.040 -0.0710  0.1450  0.0730
  228POPC   GL1 3220   2.847   8.826   5.476 -0.2498  0.2825 -0.1045
  228POPC   GL2 3221   3.095   9.077   5.614 -0.1882 -0.2573  0.3454
  228POPC   C1A 3222   2.550   8.700   5.816  0.3953 -0.0838  0.0361
  228POPC   D2A 3223   2.100   8.767   5.701 -0.2619 -0.3791 -0.2008
  228POPC   C3A 3224   1.854   8.472   5.939  0.0016  0.0402 -0.1351
  228POPC   C4A 3225   2.017   8.125   5.962 -0.1572  0.3013  0.1363
  228POPC   C1B 3226   3.087   8.757   5.981  0.1968 -0.0321 -0.2207
  228POPC   C2B 3227   2.923   8.400   6.199 -0.1170 -0.4236  0.1171
  228POPC   C3B 3228   2.717   8.000   6.421  0.1388 -0.1181 -0.2210
  228POPC   C4B 3229   2.531   7.645   6.551  0.2021  0.0144 -0.0529
  229POPC   NC3 3230   9.755   2.661   4.444  0.1932 -0.3281 -0.0322
  229POPC   PO4 3231   9.450   2.992   4.686 -0.3130 -0.2896 -0.1891
  229POPC   GL1 3232   9.398   3.055   5.160 -0.0792  0.3794  0.0051
  229POPC   GL2 3233   9.039   2.997   5.267 -0.2954 -0.1181  0.2613
  229POPC   C1A 3234   9.571   3.496   5.334 -0.0067  0.1725  0.2577
  229POPC   D2A 3235   9.559   3.692   5.730  0.1515 -0.0223 -0.1567
  229POPC   C3A 3236   9.527   4.142   6.006 -0.0913  0.1767 -0.1206
  229POPC   C4A 3237   9.787   4.260   6.360 -0.2414 -0.4560 -0.5051
  229POPC   C1B 3238   9.200   2.841   5.635  0.0163 -0.2634  0.1924
  229POPC   C2B 3239   9.114   2.667   6.070  0.3181 -0.1154  0.0172
  229POPC   C3B 3240   9.204   2.475   6.513  0.2815  0.0875  0.0302
  229POPC   C4B 3241   9.229   2.611   6.936  0.1445  0.1937 -0.1637
  230POPC   NC3 3242   4.562   1.620   4.915  0.1821 -0.2085 -0.1984
  230POPC   PO4 3243   4.731   1.555   5.332 -0.2949 -0.1993  0.3793
  230POPC   GL1 3244   4.547   1.443   5.710  0.1309  0.1840  0.1321
  230POPC   GL2 3245   4.650   1.165   5.932 -0.3251 -0.0067  0.1891
  230POPC   C1A 3246   4.499   1.767   6.090  0.1558  0.1777  0.1452
  230POPC   D2A 3247   4.220   1.740   6.446  0.3060 -0.1394 -0.0408
  230POPC   C3A 3248   4.460   1.983   6.716 -0.0147 -0.0613  0.1552
  230POPC   C4A 3249   4.746   2.040   6.940  0.4040 -0.0474 -0.1356
  230POPC   C1B 3250   4.613   1.335   6.317 -0.3783  0.3506  0.1269
  230POPC   C2B 3251   4.469   1.345   6.713 -0.2849  0.1237  0.0907
  230POPC   C3B 3252   4.195   1.110   6.982 -0.0627  0.1978  0.2427
  230POPC   C4B 3253   4.383   0.878   7.325  0.2146  0.0710 -0.0338
  231POPC   NC3 3254   1.511   6.728   4.912  0.0599 -0.0368 -0.1238
  231POPC   PO4 3255   1.075   6.785   4.852 -0.1357  0.0068  0.1397
  231POPC   GL1 3256   1.105   6.847   5.236 -0.2058 -0.2608 -0.1552
  231POPC   GL2 3257   0.828   6.791   5.390 -0.6073  0.5985 -0.0492
  231POPC   C1A 3258   1.236   6.917   5.709 -0.1649  0.0769 -0.1648
  231POPC   D2A 3259   1.166   6.786   6.056  0.1515  0.0734 -0.1744
  231POPC   C3A 3260   0.822   7.071   6.115 -0.1079 -0.0689 -0.0961
  231POPC   C4A 3261   0.517   7.147   5.965 -0.1265 -0.3007 -0.1514
  231POPC   C1B 3262   0.811   6.555   5.726 -0.1709 -0.1106  0.1856
  231POPC   C2B 3263   0.933   6.345   6.127  0.1029 -0.3174  0.1164
  231POPC   C3B 3264   1.145   6.323   6.502 -0.0591 -0.2834  0.0059
  231POPC   C4B 3265   1.031   6.233   6.925  0.1117 -0.3513 -0.1854
  232POPC   NC3 3266   2.800   1.510   5.020  0.1008  0.1550  0.2243
  232POPC   PO4 3267   2.635   1.408   5.455  0.0765  0.0057  0.0658
  232POPC   GL1 3268   2.573   1.727   5.755 -0.0632  0.2769 -0.1074
  232POPC   GL2 3269   2.451   1.416   5.982  0.2857  0.1519 -0.2779
  232POPC   C1A 3270   2.451   1.903   5.990  0.1908  0.2811  0.0062
  232POPC   D2A 3271   2.157   1.899   6.256  0.1215  0.1918 -0.0192
  232POPC   C3A 3272   2.000   2.168   6.497  0.0348  0.0717  0.0224
  232POPC   C4A 3273   1.931   2.574   6.445 -0.1473 -0.1951 -0.3655
  232POPC   C1B 3274   2.344   1.425   6.401  0.1850 -0.0398 -0.0352
  232POPC   C2B 3275   2.163   1.303   6.730  0.0881  0.0856  0.1445
  232POPC   C3B 3276   2.149   1.413   7.148 -0.2128 -0.2897 -0.0133
  232POPC   C4B 3277   2.030   1.545   7.513  0.0877  0.2713  0.1957
  233POPC   NC3 3278  10.243   8.491   3.895  0.0271 -0.1432 -0.0088
  233POPC   PO4 3279  10.325   8.422   4.411 -0.4279 -0.1916 -0.1471
  233POPC   GL1 3280   9.972   8.330   4.797  0.4083 -0.0788 -0.1174
  233POPC   GL2 3281  10.218   8.128   5.026  0.0327 -0.1448  0.3143
  233POPC   C1A 3282   9.736   8.240   5.226 -0.2445 -0.1891  0.2074
  233POPC   D2A 3283   9.365   8.253   5.576  0.1084  0.0780 -0.1040
  233POPC   C3A 3284   9.217   8.542   5.879 -0.0845  0.0072 -0.5357
  233POPC   C4A 3285   9.163   8.743   6.231 -0.0339  0.1267 -0.2943
  233POPC   C1B 3286  10.289   8.377   5.394 -0.4734 -0.0676  0.0442
  233POPC   C2B 3287  10.502   8.183   5.832 -0.2841 -0.1520  0.0174
  233POPC   C3B 3288  10.725   8.455   6.195  0.1218  0.3755  0.0551
  233POPC   C4B 3289  10.680   8.712   6.524  0.1293 -0.0050 -0.0214
  234POPC   NC3 3290   8.086   5.535   4.675 -0.0373 -0.0369 -0.0367
  234POPC   PO4 3291   7.827   5.731   5.008 -0.0011 -0.1192 -0.1526
  234POPC   GL1 3292   7.946   5.705   5.401 -0.0255  0.2670  0.0381
  234POPC   GL2 3293   8.031   5.408   5.642  0.1969  0.0840  0.0307
  234POPC   C1A 3294   7.732   5.980   5.689 -0.2089 -0.2124  0.4162
  234POPC   D2A 3295   7.683   6.393   5.887  0.2426  0.3536  0.1161
  234POPC   C3A 3296   7.253   6.747   5.847  0.3302 -0.0364 -0.0143
  234POPC   C4A 3297   6.898   6.991   5.885 -0.1333 -0.0885 -0.0420
  234POPC   C1B 3298   8.309   5.419   6.020  0.1936  0.0753  0.3232
  234POPC   C2B 3299   8.418   5.366   6.378 -0.3887  0.0034  0.0333
  234POPC   C3B 3300   8.171   5.502   6.715 -0.1382 -0.2468 -0.2263
  234POPC   C4B 3301   8.000   5.449   7.084  0.2189  0.1453  0.1318
  235POPC   NC3 3302   1.272   0.437   5.279 -0.2195 -0.0143  0.1991
  235POPC   PO4 3303   1.622   0.286   5.406 -0.3699 -0.1193 -0.2116
  235POPC   GL1 3304   1.695   0.121   5.832 -0.3465  0.0199 -0.3920
  235POPC   GL2 3305   1.611  -0.210   5.818  0.0785 -0.1824 -0.0256
  235POPC   C1A 3306   1.700  -0.016   6.226  0.1996  0.3144 -0.3343
  235POPC   D2A 3307   1.949   0.110   6.540 -0.2088  0.4220 -0.1618
  235POPC   C3A 3308   2.145  -0.137   6.844  0.2293 -0.1011  0.0558
  235POPC   C4A 3309   2.508  -0.349   7.102 -0.2858  0.2227  0.1932
  235POPC   C1B 3310   1.428  -0.506   6.134  0.1196  0.3143  0.1470
  235POPC   C2B 3311   1.354  -0.722   6.420  0.1326 -0.1771 -0.1147
  235POPC   C3B 3312   1.302  -0.966   6.751 -0.0476  0.0552  0.0062
  235POPC   C4B 3313   1.360  -1.350   6.695 -0.0678  0.5109 -0.2428
  236POPC   NC3 3314   2.154   0.166   5.524  0.0763 -0.0839  0.0237
  236POPC   PO4 3315   2.520   0.256   5.639  0.0696 -0.1636  0.0605
  236POPC   GL1 3316   2.396   0.596   5.944  0.0088 -0.0877 -0.0314
  236POPC   GL2 3317   2.363   0.948   6.193  0.2666 -0.0232  0.3987
  236POPC   C1A 3318   2.031   0.518   6.238  0.0923 -0.0531 -0.2261
  236POPC   D2A 3319   1.581   0.442   6.306  0.0226 -0.0756  0.1872
  236POPC   C3A 3320   1.519   0.260   6.704  0.1477 -0.1411  0.1325
  236POPC   C4A 3321   1.592  -0.190   6.960  0.0473  0.1568 -0.0905
  236POPC   C1B 3322   2.462   0.652   6.527  0.0462 -0.0347  0.3385
  236POPC   C2B 3323   2.202   0.463   6.828  0.0121 -0.3088  0.5435
  236POPC   C3B 3324   1.887   0.267   7.079  0.0310  0.0501  0.0535
  236POPC   C4B 3325   1.479   0.165   7.243 -0.0306 -0.0570  0.0307
  237POPC   NC3 3326   3.632   9.061   4.383 -0.0556  0.0225 -0.0030
  237POPC   PO4 3327   3.580   9.242   4.856  0.0036 -0.1196 -0.0593
  237POPC   GL1 3328   3.542   8.964   5.281  0.0313  0.0444  0.1135
  237POPC   GL2 3329   3.778   8.876   5.340  0.0966 -0.0364  0.2953
  237POPC   C1A 3330   3.498   8.717   5.684  0.0544 -0.2371 -0.0639
  237POPC   D2A 3331   3.591   8.724   6.186 -0.0937 -0.0408 -0.2924
  237POPC   C3A 3332   3.279   8.690   6.422  0.1406  0.0986  0.0186
  237POPC   C4A 3333   3.033   8.346   6.686  0.1773 -0.1921 -0.1782
  237POPC   C1B 3334   4.122   8.894   5.628  0.1748 -0.0813  0.1607
  237POPC   C2B 3335   4.102   9.089   5.992 -0.1541 -0.0916 -0.1227
  237POPC   C3B 3336   3.932   9.027   6.450 -0.1491 -0.1391 -0.1153
  237POPC   C4B 3337   3.591   8.865   6.820  0.0646 -0.0914 -0.1525
  238POPC   NC3 3338   9.575   1.249   4.630  0.0469 -0.2320 -0.0795
  238POPC   PO4 3339  10.113   1.276   4.622 -0.0600 -0.1593  0.2378
  238POPC   GL1 3340   9.917   1.362   5.047 -0.1494  0.2293  0.4373
  238POPC   GL2 3341   9.582   1.475   5.098 -0.1576 -0.0733 -0.0200
  238POPC   C1A 3342   9.854   1.255   5.471  0.2347 -0.0059  0.1120
  238POPC   D2A 3343   9.561   1.229   5.843 -0.0843  0.0249  0.1807
  238POPC   C3A 3344   9.444   0.806   5.838  0.1725  0.0217  0.3689
  238POPC   C4A 3345   9.129   0.669   5.651  0.0013 -0.0780 -0.1652
  238POPC   C1B 3346   9.302   1.447   5.365 -0.1718 -0.1333 -0.2745
  238POPC   C2B 3347   9.091   1.147   5.703  0.0271 -0.3006 -0.0694
  238POPC   C3B 3348   8.690   0.902   5.914 -0.0122 -0.0905  0.1259
  238POPC   C4B 3349   8.416   1.015   6.197 -0.1411 -0.1177 -0.2131
  239POPC   NC3 3350   5.915   5.242   3.840  0.0360 -0.2123 -0.3403
  239POPC   PO4 3351   5.860   5.341   4.367 -0.1326  0.3366 -0.0071
  239POPC   GL1 3352   5.951   5.635   4.804 -0.2860  0.0239  0.1048
  239POPC   GL2 3353   6.256   5.441   4.837 -0.1687  0.3365  0.3734
  239POPC   C1A 3354   5.909   5.766   5.133 -0.2125  0.1495  0.2814
  239POPC   D2A 3355   5.717   6.161   5.352 -0.0171  0.0852  0.1347
  239POPC   C3A 3356   5.826   6.610   5.300 -0.1580  0.3670  0.2209
  239POPC   C4A 3357   6.014   6.928   5.533  0.0132 -0.3377 -0.0840
  239POPC   C1B 3358   6.116   5.351   5.281  0.0269 -0.6104  0.3037
  239POPC   C2B 3359   5.979   5.130   5.615 -0.0815  0.2541 -0.1740
  239POPC   C3B 3360   6.023   5.201   6.029  0.0626 -0.3130 -0.0186
  239POPC   C4B 3361   6.021   5.346   6.523  0.1875  0.4555 -0.0632
  240POPC   NC3 3362   9.054   8.106   3.850  0.1392 -0.2522 -0.2008
  240POPC   PO4 3363   9.185   7.653   3.866  0.0702 -0.1343  0.3292
  240POPC   GL1 3364   8.988   7.379   4.199  0.1646 -0.0860 -0.1903
  240POPC   GL2 3365   8.813   7.127   4.462  0.0838 -0.1457 -0.1535
  240POPC   C1A 3366   8.961   7.592   4.671  0.2091 -0.0830  0.0294
  240POPC   D2A 3367   9.057   7.429   5.099  0.0118  0.0743  0.0114
  240POPC   C3A 3368   8.934   7.659   5.393 -0.2545  0.3423 -0.0166
  240POPC   C4A 3369   8.930   7.956   5.642  0.0820 -0.0429 -0.0191
  240POPC   C1B 3370   8.647   7.189   4.903 -0.0312 -0.2213  0.3385
  240POPC   C2B 3371   8.595   7.202   5.344 -0.0972 -0.0219 -0.0351
  240POPC   C3B 3372   8.679   7.329   5.782  0.3062 -0.0863 -0.0517
  240POPC   C4B 3373   9.012   7.567   5.969 -0.0734  0.0030  0.2172
  241POPC   NC3 3374   1.398   1.064   5.502  0.1384 -0.0442  0.1458
  241POPC   PO4 3375   0.981   1.308   5.638 -0.2782  0.1379 -0.3068
  241POPC   GL1 3376   0.950   1.490   5.955 -0.0225 -0.2167 -0.1441
  241POPC   GL2 3377   0.667   1.298   6.072  0.0639  0.1697  0.1179
  241POPC   C1A 3378   0.813   1.741   6.331 -0.0695 -0.1806  0.1794
  241POPC   D2A 3379   0.440   1.915   6.601  0.3760  0.0442 -0.1441
  241POPC   C3A 3380   0.172   1.621   6.619  0.2079  0.0362 -0.0361
  241POPC   C4A 3381   0.057   1.467   6.990  0.0941 -0.1547  0.0416
  241POPC   C1B 3382   0.601   1.275   6.558  0.2438  0.0045 -0.1421
  241POPC   C2B 3383   0.611   1.288   7.034  0.1776 -0.2855 -0.2243
  241POPC   C3B 3384   0.372   1.097   7.369 -0.3977 -0.0204  0.1269
  241POPC   C4B 3385   0.278   0.660   7.410  0.0110  0.0237  0.0481
  242POPC   NC3 3386   4.493   4.086   5.045 -0.1813  0.0096 -0.1182
  242POPC   PO4 3387   4.143   4.346   5.004  0.2353 -0.0963  0.1419
  242POPC   GL1 3388   4.147   4.419   5.402  0.1557 -0.1377 -0.1890
  242POPC   GL2 3389   3.958   4.217   5.570  0.2550  0.0662 -0.0508
  242POPC   C1A 3390   4.255   4.550   5.815  0.1838 -0.0681  0.2616
  242POPC   D2A 3391   4.606   4.747   5.936 -0.0334  0.1481 -0.2942
  242POPC   C3A 3392   5.041   4.585   5.729 -0.1494  0.0213  0.1108
  242POPC   C4A 3393   5.276   4.302   5.615  0.1179  0.1669  0.2127
  242POPC   C1B 3394   3.753   4.563   5.740  0.0705  0.3157 -0.0169
  242POPC   C2B 3395   3.592   4.947   5.968 -0.0186  0.0956  0.0203
  242POPC   C3B 3396   3.870   5.249   6.308 -0.2409  0.0811  0.3801
  242POPC   C4B 3397   4.240   5.274   6.624 -0.1870  0.0271  0.1874
  243POPC   NC3 3398   4.922   2.997   5.859  0.2854 -0.0298 -0.1198
  243POPC   PO4 3399   5.218   3.177   5.716  0.0793 -0.1503 -0.1023
  243POPC   GL1 3400   5.324   3.017   6.170 -0.1008 -0.0330  0.0580
  243POPC   GL2 3401   5.010   3.007   6.346  0.4563 -0.1582 -0.2930
  243POPC   C1A 3402   5.453   3.136   6.604  0.5037 -0.1615  0.2221
  243POPC   D2A 3403   5.765   2.963   6.994 -0.1708 -0.1319 -0.1236
  243POPC   C3A 3404   5.774   2.836   7.341 -0.3451 -0.0903 -0.2054
  243POPC   C4A 3405   5.930   2.939   7.720  0.0840  0.4380 -0.2541
  243POPC   C1B 3406   4.837   3.309   6.672  0.3667  0.1312 -0.1724
  243POPC   C2B 3407   4.642   3.279   7.074 -0.0773  0.0218 -0.0695
  243POPC   C3B 3408   4.652   3.337   7.545 -0.0594 -0.1385  0.0145
  243POPC   C4B 3409   4.531   3.400   8.026  0.1529  0.0001 -0.2396
  244POPC   NC3 3410   0.723   2.734   5.306  0.1500 -0.0205  0.3140
  244POPC   PO4 3411   0.911   2.406   5.543 -0.2645  0.3609 -0.0412
  244POPC   GL1 3412   1.146   2.414   5.966  0.2318  0.1068 -0.0438
  244POPC   GL2 3413   0.778   2.253   6.031 -0.2925  0.0584 -0.2466
  244POPC   C1A 3414   1.308   2.435   6.388  0.1071  0.0897 -0.2419
  244POPC   D2A 3415   1.198   2.584   6.798  0.1900 -0.0271  0.1499
  244POPC   C3A 3416   1.515   2.633   7.041  0.0215 -0.1658 -0.3027
  244POPC   C4A 3417   1.508   2.735   7.449 -0.0071  0.1354 -0.0531
  244POPC   C1B 3418   0.521   2.333   6.343 -0.3854 -0.1923 -0.0361
  244POPC   C2B 3419   0.706   2.534   6.689  0.0427  0.2286 -0.1265
  244POPC   C3B 3420   0.627   2.558   7.070  0.1432 -0.1733 -0.0326
  244POPC   C4B 3421   0.544   2.970   7.211  0.1456  0.3169  0.2265
  245POPC   NC3 3422   8.726   7.502   3.777 -0.1914  0.1241  0.1022
  245POPC   PO4 3423   8.291   7.387   3.843  0.0489  0.0281  0.1395
  245POPC   GL1 3424   8.061   7.650   4.132 -0.2721 -0.1234  0.1522
  245POPC   GL2 3425   7.982   7.538   4.421  0.0113  0.1311  0.0796
  245POPC   C1A 3426   7.976   8.020   4.272 -0.2315  0.1040  0.0056
  245POPC   D2A 3427   8.092   8.358   4.431  0.1561  0.1751 -0.1062
  245POPC   C3A 3428   8.398   8.210   4.432 -0.0865  0.0236  0.0377
  245POPC   C4A 3429   8.650   8.086   4.780 -0.2506  0.2553  0.0571
  245POPC   C1B 3430   8.398   7.711   4.655  0.0204  0.1244  0.2950
  245POPC   C2B 3431   8.613   7.721   5.046 -0.1918  0.0763  0.1976
  245POPC   C3B 3432   8.449   7.826   5.534  0.0663  0.0411 -0.0235
  245POPC   C4B 3433   8.253   7.648   5.946  0.1087 -0.2873  0.0814
  246POPC   NC3 3434  10.089   6.595   4.974 -0.0672  0.0100 -0.1054
  246POPC   PO4 3435  10.627   6.408   4.806  0.1046 -0.1075  0.0504
  246POPC   GL1 3436  10.786   6.129   5.186  0.0671 -0.1450  0.2074
  246POPC   GL2 3437  10.546   5.895   5.309 -0.1645 -0.4067  0.0210
  246POPC   C1A 3438  10.727   6.391   5.492 -0.5290  0.2319  0.1828
  246POPC   D2A 3439  10.769   6.756   5.780  0.3192  0.0367 -0.1423
  246POPC   C3A 3440  10.922   6.703   6.272 -0.2429 -0.2331  0.2320
  246POPC   C4A 3441  11.312   6.743   6.536 -0.0568 -0.1138 -0.0689
  246POPC   C1B 3442  10.269   5.781   5.559 -0.1621 -0.3754 -0.1517
  246POPC   C2B 3443  10.174   5.644   5.951 -0.2267 -0.1350  0.2307
  246POPC   C3B 3444  10.431   5.567   6.350  0.0444 -0.0123 -0.1731
  246POPC   C4B 3445  10.342   5.621   6.763  0.1935  0.2745  0.2447
  247POPC   NC3 3446   1.420   2.638   5.620  0.1632  0.1083  0.1595
  247POPC   PO4 3447   1.610   2.996   5.357 -0.1090 -0.0303  0.2379
  247POPC   GL1 3448   1.409   3.157   5.723  0.4281  0.2021 -0.0514
  247POPC   GL2 3449   1.615   3.430   5.750  0.3352 -0.0680 -0.1146
  247POPC   C1A 3450   1.276   3.002   6.156  0.3309  0.1448  0.1844
  247POPC   D2A 3451   1.536   2.925   6.551  0.3576 -0.4555  0.0793
  247POPC   C3A 3452   1.398   3.044   6.855  0.1794  0.0985 -0.0839
  247POPC   C4A 3453   1.091   2.958   7.128  0.1682 -0.3367  0.0408
  247POPC   C1B 3454   1.499   3.447   6.163  0.0534 -0.1810  0.0914
  247POPC   C2B 3455   1.606   3.442   6.562 -0.1295 -0.0295 -0.2031
  247POPC   C3B 3456   1.816   3.283   6.976  0.3499  0.0199 -0.0716
  247POPC   C4B 3457   1.753   3.176   7.397  0.1868 -0.1054  0.0096
  248POPC   NC3 3458   9.096   3.336   4.879 -0.1907  0.1192 -0.2356
  248POPC   PO4 3459   8.885   3.044   4.813 -0.2707 -0.0440  0.0822
  248POPC   GL1 3460   8.645   3.263   5.164  0.1263  0.1491  0.2139
  248POPC   GL2 3461   8.724   3.570   5.192  0.0253  0.2117 -0.1206
  248POPC   C1A 3462   8.704   3.214   5.604 -0.0548 -0.1844  0.2012
  248POPC   D2A 3463   8.745   3.244   6.079  0.3190  0.2276 -0.0070
  248POPC   C3A 3464   8.868   2.993   6.398  0.3660 -0.3804 -0.1435
  248POPC   C4A 3465   8.882   2.937   6.825 -0.0426 -0.2027  0.3678
  248POPC   C1B 3466   8.762   3.795   5.520 -0.3630  0.1698  0.2654
  248POPC   C2B 3467   8.572   3.921   5.793 -0.0244 -0.2898  0.0724
  248POPC   C3B 3468   8.595   4.008   6.225 -0.1452 -0.1165 -0.1558
  248POPC   C4B 3469   8.656   4.156   6.598 -0.3748  0.1905  0.0140
  249POPC   NC3 3470   5.932   1.436   4.611 -0.2212  0.0766  0.0513
  249POPC   PO4 3471   5.741   0.937   4.494 -0.0079 -0.1088  0.1762
  249POPC   GL1 3472   5.870   1.011   4.978  0.1312 -0.1091 -0.0329
  249POPC   GL2 3473   6.217   1.069   4.952 -0.0430 -0.1690 -0.3313
  249POPC   C1A 3474   5.984   1.181   5.370  0.0325  0.0085  0.0892
  249POPC   D2A 3475   6.102   1.487   5.676  0.0283 -0.0517 -0.2227
  249POPC   C3A 3476   6.219   1.265   6.229 -0.3417 -0.0256 -0.1365
  249POPC   C4A 3477   6.548   1.017   6.221 -0.1721  0.0949  0.3422
  249POPC   C1B 3478   6.472   1.244   5.214  0.1680 -0.2446  0.1613
  249POPC   C2B 3479   6.617   1.344   5.613 -0.0313 -0.1102  0.0705
  249POPC   C3B 3480   6.632   1.439   6.034 -0.0788 -0.2697  0.4410
  249POPC   C4B 3481   6.308   1.751   6.063 -0.1945 -0.0643 -0.2981
  250POPC   NC3 3482   2.486   5.300   4.468  0.2991 -0.1743  0.1230
  250POPC   PO4 3483   2.522   5.263   4.933 -0.1255 -0.4006  0.1244
  250POPC   GL1 3484   2.503   5.591   5.249 -0.0756 -0.1456  0.0657
  250POPC   GL2 3485   2.762   5.739   5.274 -0.1677  0.1364  0.0087
  250POPC   C1A 3486   2.373   5.589   5.682  0.1774 -0.0326  0.0355
  250POPC   D2A 3487   2.135   5.589   6.078  0.0472  0.0121  0.1933
  250POPC   C3A 3488   1.809   5.843   6.325  0.1467 -0.1575  0.1467
  250POPC   C4A 3489   1.595   6.140   6.584  0.2222 -0.1735  0.3272
  250POPC   C1B 3490   2.973   6.064   5.491 -0.3437 -0.0152 -0.0534
  250POPC   C2B 3491   3.013   6.240   5.851 -0.1115 -0.3644 -0.2234
  250POPC   C3B 3492   3.230   6.442   6.116  0.1633 -0.1052 -0.3127
  250POPC   C4B 3493   3.519   6.638   6.344 -0.1436  0.1986 -0.2417
  251POPC   NC3 3494  10.245  10.337   4.375 -0.0822 -0.1384  0.1257
  251POPC   PO4 3495  10.508  10.401   4.732 -0.1214 -0.0421 -0.0352
  251POPC   GL1 3496  10.215  10.170   4.920 -0.0824  0.2231 -0.0779
  251POPC   GL2 3497  10.449  10.085   5.187  0.0576  0.0338  0.1357
  251POPC   C1A 3498   9.956  10.138   5.369  0.0859  0.2335 -0.0634
  251POPC   D2A 3499   9.853   9.914   5.777  0.0786 -0.0751 -0.0636
  251POPC   C3A 3500   9.924   9.849   6.105  0.4149  0.0679 -0.0065
  251POPC   C4A 3501   9.762  10.151   6.405 -0.0654 -0.2046  0.0230
  251POPC   C1B 3502  10.244   9.653   5.171 -0.0655  0.2468  0.0098
  251POPC   C2B 3503  10.024   9.448   5.404  0.2435 -0.1831 -0.2991
  251POPC   C3B 3504  10.018   9.424   5.829  0.2818  0.2649  0.0001
  251POPC   C4B 3505   9.946   9.335   6.285 -0.2248  0.1064  0.0704
  252POPC   NC3 3506   1.958   3.307   5.026 -0.0889  0.1925  0.2175
  252POPC   PO4 3507   2.452   3.403   5.017 -0.0943  0.0060 -0.3057
  252POPC   GL1 3508   2.358   3.353   5.420 -0.1611 -0.1812 -0.5726
  252POPC   GL2 3509   2.099   3.342   5.540 -0.1650  0.0293  0.0122
  252POPC   C1A 3510   2.599   3.196   5.872  0.2160  0.3759  0.0462
  252POPC   D2A 3511   2.568   3.253   6.301 -0.0883 -0.1138  0.0953
  252POPC   C3A 3512   2.925   3.066   6.619 -0.1011 -0.1401 -0.1673
  252POPC   C4A 3513   3.260   3.131   6.869 -0.0281  0.1784  0.2068
  252POPC   C1B 3514   2.142   3.475   5.986  0.1309  0.0337 -0.0773
  252POPC   C2B 3515   2.100   3.558   6.353 -0.0707 -0.0732 -0.2471
  252POPC   C3B 3516   2.000   3.688   6.800 -0.2492  0.1030 -0.5878
  252POPC   C4B 3517   1.931   3.760   7.272  0.1123 -0.0923  0.2871
  253POPC   NC3 3518   7.169  10.220   3.110 -0.1833  0.3375 -0.2417
  253POPC   PO4 3519   6.839  10.354   3.466  0.0429  0.4109  0.2812
  253POPC   GL1 3520   7.118  10.345   3.711 -0.1934 -0.1386 -0.1616
  253POPC   GL2 3521   6.908  10.439   3.975 -0.1324  0.0588 -0.0668
  253POPC   C1A 3522   7.412  10.185   4.021  0.0049 -0.2001  0.2984
  253POPC   D2A 3523   7.425  10.035   4.495 -0.1281  0.1431 -0.0518
  253POPC   C3A 3524   7.129  10.125   4.775  0.0270 -0.1001 -0.2790
  253POPC   C4A 3525   6.750   9.877   4.960  0.1022  0.0081  0.0920
  253POPC   C1B 3526   6.766  10.051   4.365 -0.1601  0.0650 -0.1667
  253POPC   C2B 3527   6.425   9.917   4.553 -0.1398 -0.3156  0.0856
  253POPC   C3B 3528   6.166   9.616   4.812  0.2295 -0.0311 -0.2585
  253POPC   C4B 3529   5.909   9.304   4.800  0.0642 -0.3921 -0.0474
  254POPC   NC3 3530   4.197   0.237   4.990 -0.1914  0.2522 -0.2254
  254POPC   PO4 3531   4.074  -0.078   5.317 -0.2497 -0.5274  0.0303
  254POPC   GL1 3532   4.447  -0.254   5.586  0.0684  0.3076 -0.2512
  254POPC   GL2 3533   4.719  -0.427   5.466 -0.0401  0.2250 -0.2289
  254POPC   C1A 3534   4.272  -0.176   6.052 -0.0857  0.0922 -0.3246
  254POPC   D2A 3535   3.762  -0.252   6.227 -0.2945  0.1932  0.0459
  254POPC   C3A 3536   3.526   0.098   6.368  0.1226 -0.4832  0.0588
  254POPC   C4A 3537   3.045   0.088   6.386 -0.3642  0.1342  0.2053
  254POPC   C1B 3538   4.662  -0.510   5.921 -0.1889 -0.1419  0.1395
  254POPC   C2B 3539   4.692  -0.212   6.386  0.1627 -0.1551  0.4889
  254POPC   C3B 3540   4.747  -0.240   6.780 -0.0373  0.1314 -0.3143
  254POPC   C4B 3541   4.677  -0.518   7.014  0.2306 -0.1272  0.1258
  255POPC   NC3 3542   9.170   4.097   4.618 -0.2108  0.0892  0.2749
  255POPC   PO4 3543   8.974   3.846   4.908 -0.1687  0.1647 -0.0647
  255POPC   GL1 3544   9.186   3.727   5.323 -0.0216  0.2669  0.1301
  255POPC   GL2 3545   9.285   4.046   5.523 -0.1326  0.1991 -0.2404
  255POPC   C1A 3546   9.238   3.342   5.645  0.1358 -0.1155 -0.0484
  255POPC   D2A 3547   9.273   3.160   6.084  0.2446  0.1643 -0.0440
  255POPC   C3A 3548   9.362   3.195   6.601  0.2610 -0.0284 -0.1809
  255POPC   C4A 3549   9.311   3.107   7.106 -0.0245  0.2165  0.0106
  255POPC   C1B 3550   9.100   3.916   5.881 -0.2042 -0.2547  0.0813
  255POPC   C2B 3551   9.125   3.647   6.239 -0.1361 -0.1223  0.3660
  255POPC   C3B 3552   8.942   3.476   6.575 -0.5065 -0.3520 -0.0406
  255POPC   C4B 3553   8.500   3.227   6.719 -0.0240 -0.0852 -0.1603
  256POPC   NC3 3554   1.164   9.675   5.115  0.2089 -0.0447 -0.2097
  256POPC   PO4 3555   1.518   9.519   5.004 -0.1552  0.0026 -0.2194
  256POPC   GL1 3556   1.374   9.389   5.431 -0.0042 -0.3324 -0.0697
  256POPC   GL2 3557   1.415   9.049   5.636 -0.3055  0.0757 -0.1067
  256POPC   C1A 3558   1.401   9.454   5.860 -0.3489 -0.0408  0.1053
  256POPC   D2A 3559   1.404   9.261   6.248  0.1125  0.1247  0.1481
  256POPC   C3A 3560   1.042   8.922   6.349  0.2626 -0.0537  0.0891
  256POPC   C4A 3561   0.586   9.035   6.412 -0.1457  0.1218 -0.1198
  256POPC   C1B 3562   1.049   9.049   5.814  0.3204 -0.0053 -0.0023
  256POPC   C2B 3563   0.895   9.299   6.045  0.0000 -0.1478 -0.2132
  256POPC   C3B 3564   0.894   9.477   6.450  0.1209  0.3669  0.1433
  256POPC   C4B 3565   0.793   9.618   6.867  0.0857  0.2016  0.0775
  257POPC   NC3 3566   2.335   9.516   5.346  0.1555 -0.1446 -0.0105
  257POPC   PO4 3567   2.704   9.340   5.390 -0.1346  0.0465 -0.2311
  257POPC   GL1 3568   2.472   9.175   5.723  0.0634 -0.0134  0.0866
  257POPC   GL2 3569   2.707   9.175   5.909  0.1548  0.0452  0.1095
  257POPC   C1A 3570   2.324   8.970   6.143 -0.0142 -0.0610 -0.3462
  257POPC   D2A 3571   2.207   8.581   6.367 -0.1416 -0.2049 -0.2893
  257POPC   C3A 3572   2.325   8.563   6.785 -0.0176  0.0835  0.1409
  257POPC   C4A 3573   2.375   8.454   7.230  0.0540 -0.1844  0.2813
  257POPC   C1B 3574   2.943   9.110   6.376 -0.1472 -0.1177  0.0313
  257POPC   C2B 3575   2.976   8.971   6.745 -0.0408  0.0151  0.1078
  257POPC   C3B 3576   2.816   8.631   7.024 -0.1976  0.0009  0.2726
  257POPC   C4B 3577   2.900   8.535   7.464 -0.0302 -0.3484 -0.1558
  258POPC   NC3 3578   6.055   4.293   4.651  0.2328  0.3682  0.0220
  258POPC   PO4 3579   6.031   4.466   4.962 -0.1633 -0.3379 -0.2430
  258POPC   GL1 3580   6.036   4.348   5.452 -0.2006  0.0467 -0.0118
  258POPC   GL2 3581   5.777   4.438   5.703 -0.3074  0.1116  0.1337
  258POPC   C1A 3582   6.284   4.329   5.793 -0.0197  0.4818  0.4743
  258POPC   D2A 3583   6.626   4.030   5.986 -0.1194  0.1150 -0.3132
  258POPC   C3A 3584   6.575   3.717   6.326 -0.0537  0.1579  0.0589
  258POPC   C4A 3585   6.584   3.560   6.767  0.0237 -0.1695  0.1769
  258POPC   C1B 3586   5.541   4.384   6.120 -0.0481  0.1105  0.2075
  258POPC   C2B 3587   5.404   4.448   6.550 -0.2659 -0.1425  0.0447
  258POPC   C3B 3588   5.503   4.423   6.879  0.3183  0.1140  0.0461
  258POPC   C4B 3589   5.650   4.519   7.269 -0.0269 -0.1622  0.0561
  259POPC   NC3 3590   5.335  10.145   4.416  0.0906 -0.1915 -0.0346
  259POPC   PO4 3591   5.344   9.983   4.804 -0.0915  0.1645 -0.4850
  259POPC   GL1 3592   5.537   9.625   5.042 -0.1996  0.1252  0.2849
  259POPC   GL2 3593   5.386   9.459   5.320 -0.2113 -0.4176 -0.1792
  259POPC   C1A 3594   5.908   9.534   5.354  0.0729  0.0107  0.6314
  259POPC   D2A 3595   6.085   9.369   5.686 -0.2200  0.1278  0.4413
  259POPC   C3A 3596   6.401   9.536   5.746 -0.1433  0.0242  0.3185
  259POPC   C4A 3597   6.874   9.500   5.842 -0.2370 -0.2345 -0.0139
  259POPC   C1B 3598   5.475   9.483   5.699 -0.1910  0.2085  0.1108
  259POPC   C2B 3599   5.798   9.471   6.115 -0.2203  0.2397 -0.1324
  259POPC   C3B 3600   6.223   9.494   6.216 -0.1067 -0.0603 -0.0430
  259POPC   C4B 3601   6.576   9.606   6.292 -0.0417  0.0647  0.0414
  260POPC   NC3 3602   2.346   6.794   4.487 -0.0750  0.0992  0.0810
  260POPC   PO4 3603   2.633   6.827   4.855 -0.1105 -0.1858 -0.1274
  260POPC   GL1 3604   2.476   6.896   5.355  0.1437  0.0791 -0.1090
  260POPC   GL2 3605   2.230   6.921   5.602  0.0748  0.1200  0.3193
  260POPC   C1A 3606   2.678   6.709   5.789 -0.1138  0.0309 -0.1941
  260POPC   D2A 3607   2.743   6.506   6.161 -0.0686 -0.0745  0.0644
  260POPC   C3A 3608   2.696   6.123   6.426 -0.1521 -0.1506  0.0728
  260POPC   C4A 3609   2.404   5.925   6.754  0.1543 -0.2194  0.0667
  260POPC   C1B 3610   2.231   6.791   6.022  0.0986 -0.1657 -0.0501
  260POPC   C2B 3611   2.164   6.925   6.403  0.0581  0.0650  0.0843
  260POPC   C3B 3612   2.173   7.333   6.675  0.2759 -0.1239 -0.1173
  260POPC   C4B 3613   1.860   7.579   6.855 -0.0897 -0.2497  0.2524
  261POPC   NC3 3614   4.411   1.935   5.480 -0.0885  0.3431 -0.2784
  261POPC   PO4 3615   4.565   2.428   5.554 -0.1290  0.0291 -0.0476
  261POPC   GL1 3616   4.601   2.376   5.927 -0.1968 -0.0605 -0.3540
  261POPC   GL2 3617   4.717   2.603   6.103  0.1059  0.1052  0.0522
  261POPC   C1A 3618   4.782   2.108   6.290  0.1220  0.0573 -0.0512
  261POPC   D2A 3619   4.861   1.683   6.556 -0.1634  0.3178 -0.0308
  261POPC   C3A 3620   4.838   1.525   7.001 -0.2209  0.0803  0.3898
  261POPC   C4A 3621   4.656   1.267   7.313 -0.1534 -0.1289  0.1686
  261POPC   C1B 3622   5.086   2.494   6.300 -0.0732  0.3261 -0.0081
  261POPC   C2B 3623   5.359   2.621   6.659  0.3655 -0.2921  0.0486
  261POPC   C3B 3624   5.367   2.499   7.015  0.1342  0.1725 -0.2030
  261POPC   C4B 3625   5.614   2.344   7.359 -0.0099 -0.0058  0.1831
  262POPC   NC3 3626   6.785   5.070   5.264 -0.0414 -0.1410  0.0378
  262POPC   PO4 3627   6.764   5.454   5.061 -0.1991  0.2667  0.1051
  262POPC   GL1 3628   6.526   5.893   5.074  0.0588 -0.2025  0.0172
  262POPC   GL2 3629   6.706   6.180   4.995  0.0645 -0.2409 -0.0650
  262POPC   C1A 3630   6.343   6.116   5.412  0.0985  0.1019 -0.4137
  262POPC   D2A 3631   6.070   6.321   5.671 -0.2714 -0.0994  0.5042
  262POPC   C3A 3632   5.986   6.265   6.151  0.1447  0.0311  0.1397
  262POPC   C4A 3633   5.734   6.475   6.468  0.0839  0.2570 -0.4993
  262POPC   C1B 3634   6.865   6.355   5.274  0.0575 -0.2816  0.1606
  262POPC   C2B 3635   6.852   6.464   5.697 -0.0554  0.3665 -0.1679
  262POPC   C3B 3636   6.419   6.575   6.051  0.0896 -0.0429 -0.0681
  262POPC   C4B 3637   6.231   6.597   6.461 -0.0067 -0.2670 -0.0473
  263POPC   NC3 3638   6.903   8.417   3.309  0.3014  0.1716 -0.2107
  263POPC   PO4 3639   6.883   8.001   3.606  0.1062  0.2300 -0.0483
  263POPC   GL1 3640   6.825   8.168   4.000 -0.1113 -0.1680 -0.1311
  263POPC   GL2 3641   6.546   8.270   4.279 -0.1861 -0.1545 -0.0312
  263POPC   C1A 3642   6.984   8.561   4.226  0.1661  0.2269 -0.1588
  263POPC   D2A 3643   6.973   9.006   4.244 -0.1882  0.1130  0.1966
  263POPC   C3A 3644   7.368   9.256   4.179  0.2033 -0.0710  0.3892
  263POPC   C4A 3645   7.739   9.145   4.183 -0.1344  0.0662  0.1779
  263POPC   C1B 3646   6.549   8.127   4.716 -0.1128  0.2155  0.2941
  263POPC   C2B 3647   6.372   8.176   5.167  0.1285 -0.1409 -0.0601
  263POPC   C3B 3648   6.222   8.154   5.498  0.1283  0.3426  0.0589
  263POPC   C4B 3649   6.135   7.923   5.909  0.3718  0.0869 -0.0008
  264POPC   NC3 3650   0.240   8.730   4.497  0.1328  0.3150 -0.2046
  264POPC   PO4 3651  -0.058   8.982   4.240  0.3102 -0.0119  0.1219
  264POPC   GL1 3652  -0.228   8.930   4.675 -0.1544 -0.1442 -0.2778
  264POPC   GL2 3653  -0.168   9.123   4.853  0.0375 -0.1659  0.2411
  264POPC   C1A 3654  -0.373   8.711   5.114  0.0586  0.0353  0.0234
  264POPC   D2A 3655  -0.732   8.730   5.452 -0.0320  0.1114  0.2481
  264POPC   C3A 3656  -0.671   8.511   5.698 -0.0699 -0.1017 -0.2104
  264POPC   C4A 3657  -0.566   8.043   5.756  0.2391  0.0074  0.1052
  264POPC   C1B 3658  -0.096   9.070   5.221 -0.0774  0.1435  0.1516
  264POPC   C2B 3659  -0.265   8.997   5.520  0.2156  0.0406  0.3287
  264POPC   C3B 3660  -0.444   8.943   5.900 -0.1372  0.4363 -0.3592
  264POPC   C4B 3661  -0.747   8.728   6.161  0.2745  0.3276 -0.0340
  265POPC   NC3 3662   5.077   9.444   4.255  0.0055 -0.1108 -0.0120
  265POPC   PO4 3663   5.506   9.219   4.138  0.3265  0.3101  0.2237
  265POPC   GL1 3664   5.547   8.969   4.537 -0.2361 -0.3689  0.0957
  265POPC   GL2 3665   5.460   9.165   4.797 -0.2826 -0.1727 -0.0533
  265POPC   C1A 3666   5.698   8.614   4.711 -0.3048 -0.0653  0.0813
  265POPC   D2A 3667   5.520   8.521   5.168  0.0714  0.0075  0.2097
  265POPC   C3A 3668   5.785   8.393   5.456  0.4317 -0.1462 -0.2675
  265POPC   C4A 3669   5.912   8.414   5.944 -0.0824 -0.0546 -0.0734
  265POPC   C1B 3670   5.652   9.001   5.224 -0.3497  0.1926  0.1262
  265POPC   C2B 3671   5.513   8.982   5.600 -0.0060  0.2272  0.1048
  265POPC   C3B 3672   5.476   9.106   6.089 -0.0382  0.2697  0.0574
  265POPC   C4B 3673   5.439   9.467   6.457 -0.2092 -0.1424  0.0416
  266POPC   NC3 3674   4.445   1.116   4.885 -0.1184 -0.0341 -0.1501
  266POPC   PO4 3675   4.116   1.407   5.297  0.0851 -0.3075 -0.1342
  266POPC   GL1 3676   4.092   1.509   5.741 -0.0331 -0.2335 -0.1701
  266POPC   GL2 3677   3.969   1.839   5.795  0.3068  0.1652  0.2426
  266POPC   C1A 3678   4.075   1.318   6.121  0.0105 -0.2048  0.0005
  266POPC   D2A 3679   4.149   1.005   6.394  0.0523  0.2312 -0.1143
  266POPC   C3A 3680   4.398   0.583   6.223 -0.0433  0.0968  0.2424
  266POPC   C4A 3681   4.328   0.306   5.961 -0.1704 -0.0542  0.1286
  266POPC   C1B 3682   3.967   2.172   6.100  0.2674  0.0908 -0.1674
  266POPC   C2B 3683   4.372   2.355   6.360  0.5128  0.0415 -0.0810
  266POPC   C3B 3684   4.612   2.463   6.612 -0.0910 -0.0974  0.0473
  266POPC   C4B 3685   4.904   2.779   6.867  0.0968  0.1910  0.0435
  267POPC   NC3 3686   3.820   9.923   5.236  0.3474 -0.1597 -0.0455
  267POPC   PO4 3687   3.565   9.761   5.586  0.0826  0.1449 -0.0545
  267POPC   GL1 3688   3.429   9.398   5.778  0.2808  0.0082  0.3886
  267POPC   GL2 3689   3.664   9.177   5.762 -0.1273 -0.1056  0.1602
  267POPC   C1A 3690   3.287   9.324   6.082  0.1046  0.1553 -0.3367
  267POPC   D2A 3691   3.394   9.174   6.470 -0.0194 -0.0962 -0.2231
  267POPC   C3A 3692   3.266   9.540   6.583 -0.1600  0.2005  0.0247
  267POPC   C4A 3693   3.309   9.775   6.931  0.0838  0.1176  0.2045
  267POPC   C1B 3694   3.795   9.389   6.164 -0.0020  0.0997  0.0435
  267POPC   C2B 3695   3.709   9.703   6.391 -0.1569  0.2273  0.1001
  267POPC   C3B 3696   3.793   9.940   6.825  0.0583  0.0330  0.3417
  267POPC   C4B 3697   3.646  10.085   7.199  0.4927  0.0957  0.2551
  268POPC   NC3 3698   5.650   4.601   4.535 -0.2302 -0.0278  0.1961
  268POPC   PO4 3699   5.161   4.696   4.746 -0.1265  0.0021  0.1313
  268POPC   GL1 3700   5.360   4.838   5.112 -0.1554  0.0231 -0.1142
  268POPC   GL2 3701   5.416   4.745   5.414  0.1878 -0.1021  0.0544
  268POPC   C1A 3702   5.645   5.260   5.229  0.2100  0.1646  0.2115
  268POPC   D2A 3703   5.698   5.665   5.505  0.0718  0.2520 -0.1874
  268POPC   C3A 3704   5.549   6.010   5.807  0.1290  0.1443 -0.0697
  268POPC   C4A 3705   5.401   6.049   6.241  0.0224  0.1114 -0.0685
  268POPC   C1B 3706   5.578   4.845   5.888  0.2712  0.1157 -0.1198
  268POPC   C2B 3707   5.637   4.918   6.315  0.0201  0.2643  0.1761
  268POPC   C3B 3708   5.810   4.887   6.816  0.0396  0.3696  0.2296
  268POPC   C4B 3709   6.032   5.074   7.090  0.3374 -0.1695 -0.3540
  269POPC   NC3 3710   6.895   4.296   5.064 -0.0139  0.1390 -0.1039
  269POPC   PO4 3711   7.202   3.889   5.124  0.0254  0.1837 -0.1472
  269POPC   GL1 3712   6.984   3.707   5.433 -0.1521 -0.2743  0.0983
  269POPC   GL2 3713   7.171   3.437   5.562  0.0830 -0.0290 -0.0475
  269POPC   C1A 3714   6.824   3.583   5.842  0.0562 -0.0176 -0.0629
  269POPC   D2A 3715   6.638   3.215   6.065 -0.1555  0.0955 -0.0464
  269POPC   C3A 3716   6.334   3.190   6.450 -0.2863  0.1060  0.0706
  269POPC   C4A 3717   6.212   3.145   6.913  0.0016  0.1412 -0.1211
  269POPC   C1B 3718   7.193   3.291   5.995 -0.3108 -0.0966  0.0484
  269POPC   C2B 3719   6.947   3.279   6.414  0.2076  0.0009 -0.0852
  269POPC   C3B 3720   7.027   3.334   6.796 -0.1712 -0.0760  0.2705
  269POPC   C4B 3721   7.372   3.584   6.927 -0.1029 -0.4475 -0.0460
  270POPC   NC3 3722   1.956   5.169   5.089  0.1028  0.2941  0.0458
  270POPC   PO4 3723   1.606   5.341   5.218 -0.1677  0.0745 -0.0215
  270POPC   GL1 3724   1.876   5.255   5.613 -0.0150 -0.1110  0.0788
  270POPC   GL2 3725   1.805   5.323   5.867 -0.0108 -0.2508  0.1695
  270POPC   C1A 3726   2.274   5.118   5.915  0.0491 -0.1014 -0.3011
  270POPC   D2A 3727   2.356   5.046   6.399  0.1030  0.0629 -0.0623
  270POPC   C3A 3728   2.261   4.732   6.649  0.3414 -0.0828  0.0382
  270POPC   C4A 3729   2.482   4.324   6.612  0.0991  0.1168  0.1148
  270POPC   C1B 3730   1.873   5.156   6.302  0.0069  0.0740 -0.0217
  270POPC   C2B 3731   1.958   5.537   6.692 -0.0780 -0.1409  0.1716
  270POPC   C3B 3732   1.921   5.920   6.852 -0.0693  0.0326 -0.7107
  270POPC   C4B 3733   1.582   6.060   7.113 -0.0460  0.1333 -0.2580
  271POPC   NC3 3734   8.331   3.707   4.464  0.1886  0.1443  0.1867
  271POPC   PO4 3735   8.458   3.505   4.758  0.1545 -0.3703  0.0280
  271POPC   GL1 3736   8.152   3.417   5.124  0.0384  0.6108 -0.0106
  271POPC   GL2 3737   8.169   3.695   5.294 -0.2220  0.1069  0.1336
  271POPC   C1A 3738   8.154   3.311   5.566  0.2261 -0.3036 -0.2960
  271POPC   D2A 3739   8.238   3.438   6.012 -0.1573  0.0713  0.1447
  271POPC   C3A 3740   8.355   3.658   6.463 -0.1221 -0.4317 -0.0496
  271POPC   C4A 3741   8.510   3.745   6.894 -0.1925  0.3850 -0.0253
  271POPC   C1B 3742   8.080   3.853   5.671 -0.1419  0.1695 -0.2371
  271POPC   C2B 3743   8.068   4.065   6.101 -0.0642 -0.1688  0.0731
  271POPC   C3B 3744   8.125   4.236   6.488 -0.2711 -0.2946  0.1027
  271POPC   C4B 3745   8.244   4.181   6.869  0.1734 -0.0988  0.1279
  272POPC   NC3 3746   8.030  10.329   3.293  0.0367 -0.2863  0.1458
  272POPC   PO4 3747   8.355   9.959   3.385  0.0435 -0.2338  0.0923
  272POPC   GL1 3748   8.197   9.870   3.805  0.1190 -0.2929 -0.3132
  272POPC   GL2 3749   7.895  10.069   3.847 -0.0114  0.0081  0.3036
  272POPC   C1A 3750   8.307   9.901   4.212  0.0093 -0.0458  0.1946
  272POPC   D2A 3751   8.156   9.974   4.659  0.0930 -0.3548 -0.1680
  272POPC   C3A 3752   8.207   9.903   5.054  0.1104 -0.4478 -0.3302
  272POPC   C4A 3753   8.005  10.035   5.501 -0.2022  0.0680 -0.1018
  272POPC   C1B 3754   8.051  10.286   4.189  0.2654  0.2694  0.2155
  272POPC   C2B 3755   8.391  10.365   4.428 -0.0087 -0.1771  0.1777
  272POPC   C3B 3756   8.646  10.642   4.547  0.1600 -0.0234 -0.0586
  272POPC   C4B 3757   9.107  10.537   4.463 -0.0837 -0.0098  0.0247
  273POPC   NC3 3758   0.604   0.991   5.681  0.0374 -0.0639 -0.0830
  273POPC   PO4 3759   1.031   0.728   5.581  0.3318  0.2434 -0.0015
  273POPC   GL1 3760   1.080   0.949   5.952  0.1231 -0.0174  0.2589
  273POPC   GL2 3761   1.351   0.877   6.025  0.0647 -0.0310 -0.0538
  273POPC   C1A 3762   0.954   1.007   6.377  0.3605 -0.0340  0.0284
  273POPC   D2A 3763   1.090   0.898   6.761  0.1858  0.0815  0.1663
  273POPC   C3A 3764   0.841   0.841   7.190 -0.2280  0.1944 -0.0840
  273POPC   C4A 3765   0.728   0.742   7.659 -0.1802 -0.1025 -0.0150
  273POPC   C1B 3766   1.466   0.900   6.446  0.2946 -0.0174 -0.0936
  273POPC   C2B 3767   1.627   1.192   6.648  0.1913  0.0786 -0.2307
  273POPC   C3B 3768   1.674   1.254   7.073 -0.1185  0.0027 -0.0150
  273POPC   C4B 3769   1.692   1.190   7.512 -0.2724  0.1708 -0.0540
  274POPC   NC3 3770   4.070   0.828   5.569  0.0856  0.0824  0.0159
  274POPC   PO4 3771   3.781   0.710   5.773  0.1051 -0.1784 -0.0498
  274POPC   GL1 3772   3.829   0.684   6.216 -0.1749  0.0343 -0.0267
  274POPC   GL2 3773   3.818   0.427   6.172 -0.4432 -0.1516 -0.0115
  274POPC   C1A 3774   3.938   0.618   6.701 -0.0792  0.1124 -0.0483
  274POPC   D2A 3775   4.330   0.649   6.873  0.4712 -0.1478 -0.3200
  274POPC   C3A 3776   4.640   0.884   6.790  0.2455 -0.1398  0.2228
  274POPC   C4A 3777   4.949   1.156   6.597 -0.0232  0.3012 -0.2008
  274POPC   C1B 3778   4.119   0.203   6.407  0.0210  0.0916 -0.1103
  274POPC   C2B 3779   4.167  -0.269   6.571 -0.0768 -0.1186 -0.4422
  274POPC   C3B 3780   4.260  -0.739   6.791  0.0249 -0.2402  0.1855
  274POPC   C4B 3781   4.220  -1.166   6.987  0.3719 -0.0393 -0.1646
  275POPC   NC3 3782   5.439   3.712   4.948 -0.4824  0.2293  0.2257
  275POPC   PO4 3783   5.834   3.523   5.185 -0.4743 -0.2088  0.2021
  275POPC   GL1 3784   5.881   3.363   5.697  0.0910 -0.2356 -0.0133
  275POPC   GL2 3785   5.612   3.543   5.749  0.1960 -0.1506  0.3228
  275POPC   C1A 3786   5.813   3.223   6.114 -0.0614 -0.2778 -0.1086
  275POPC   D2A 3787   5.885   3.326   6.622 -0.0887 -0.0814 -0.1647
  275POPC   C3A 3788   6.038   3.643   6.843  0.1277 -0.0681 -0.1585
  275POPC   C4A 3789   6.337   4.068   6.699  0.1239  0.0347 -0.0309
  275POPC   C1B 3790   5.746   3.876   5.947  0.3745  0.0180  0.1035
  275POPC   C2B 3791   6.034   4.111   6.119 -0.0612 -0.1274  0.2493
  275POPC   C3B 3792   6.299   4.316   6.275 -0.0038  0.0740 -0.1836
  275POPC   C4B 3793   6.410   4.790   6.226 -0.0385 -0.0443 -0.1666
  276POPC   NC3 3794   5.041   0.356   4.787 -0.0836 -0.1252  0.1402
  276POPC   PO4 3795   4.723   0.429   5.170  0.3361  0.1442  0.2943
  276POPC   GL1 3796   4.830   0.302   5.519 -0.1844 -0.0644 -0.0040
  276POPC   GL2 3797   4.938   0.014   5.591 -0.0860  0.1123  0.0158
  276POPC   C1A 3798   4.978   0.519   5.996  0.0459  0.0263 -0.0537
  276POPC   D2A 3799   4.880   0.723   6.354  0.1085 -0.1167 -0.0174
  276POPC   C3A 3800   5.138   0.653   6.766  0.1640 -0.1298  0.0337
  276POPC   C4A 3801   5.080   0.949   7.095  0.1030  0.2470  0.1347
  276POPC   C1B 3802   4.784  -0.032   5.939  0.3920 -0.1756 -0.0031
  276POPC   C2B 3803   4.906   0.238   6.420 -0.0091  0.0449 -0.0167
  276POPC   C3B 3804   4.684   0.352   6.799 -0.4867 -0.1457  0.1719
  276POPC   C4B 3805   4.797   0.516   7.154  0.1916  0.0117 -0.0631
  277POPC   NC3 3806   7.287   4.822   4.642  0.3868  0.1142 -0.2160
  277POPC   PO4 3807   7.016   4.748   5.000  0.0080 -0.0058 -0.3225
  277POPC   GL1 3808   7.171   4.600   5.391 -0.1230  0.1339 -0.2594
  277POPC   GL2 3809   7.314   4.314   5.365  0.1302  0.1676  0.0859
  277POPC   C1A 3810   7.347   4.711   5.898  0.2721 -0.1102  0.1413
  277POPC   D2A 3811   7.430   5.030   6.248  0.2085 -0.3267  0.1318
  277POPC   C3A 3812   7.272   4.983   6.681  0.0479 -0.0962  0.0714
  277POPC   C4A 3813   7.056   5.000   7.068  0.0668 -0.2095 -0.0147
  277POPC   C1B 3814   7.084   4.142   5.721 -0.3743 -0.0410  0.0457
  277POPC   C2B 3815   7.052   4.222   6.157  0.2245 -0.1441  0.1216
  277POPC   C3B 3816   6.741   4.372   6.416 -0.0943 -0.0431 -0.1497
  277POPC   C4B 3817   6.917   4.613   6.805 -0.0711 -0.0077  0.0725
  278POPC   NC3 3818   4.884   8.208   4.551  0.0146 -0.1690 -0.2093
  278POPC   PO4 3819   4.531   7.964   4.673 -0.2408 -0.1631  0.3681
  278POPC   GL1 3820   4.621   8.085   5.115  0.2609 -0.2353 -0.3363
  278POPC   GL2 3821   4.852   8.229   5.046 -0.0068 -0.1701  0.1712
  278POPC   C1A 3822   4.892   8.139   5.530 -0.2815 -0.3411 -0.0906
  278POPC   D2A 3823   5.285   8.368   5.591  0.0372  0.1042  0.1683
  278POPC   C3A 3824   5.466   8.599   5.987  0.1792  0.0238  0.2915
  278POPC   C4A 3825   5.665   8.639   6.362 -0.0376  0.1410 -0.0478
  278POPC   C1B 3826   5.243   8.063   5.219 -0.0070 -0.1411 -0.0243
  278POPC   C2B 3827   5.215   7.812   5.639 -0.1826  0.1502  0.2299
  278POPC   C3B 3828   5.331   7.715   6.027 -0.0685  0.0008 -0.0605
  278POPC   C4B 3829   5.389   7.601   6.426 -0.0195  0.0956  0.2360
  279POPC   NC3 3830   9.175   7.015   3.956  0.2421  0.2855 -0.0195
  279POPC   PO4 3831   9.054   6.672   4.223 -0.2524 -0.2762 -0.0243
  279POPC   GL1 3832   8.961   6.711   4.699  0.2791  0.1460 -0.0271
  279POPC   GL2 3833   9.108   6.895   4.907 -0.0473 -0.0035  0.1082
  279POPC   C1A 3834   8.618   6.729   4.903  0.1192  0.0643  0.1173
  279POPC   D2A 3835   8.237   6.927   5.063  0.1009  0.1947  0.2157
  279POPC   C3A 3836   8.102   6.916   5.488 -0.0237  0.0105  0.0238
  279POPC   C4A 3837   7.786   6.955   5.797  0.2838  0.2069  0.1687
  279POPC   C1B 3838   8.962   6.714   5.270  0.1993 -0.0253 -0.1154
  279POPC   C2B 3839   8.819   6.872   5.713 -0.0780  0.2627  0.0651
  279POPC   C3B 3840   8.693   6.909   6.172 -0.1987  0.2115  0.3379
  279POPC   C4B 3841   8.465   6.664   6.383 -0.0327  0.0462 -0.2270
  280POPC   NC3 3842   5.703   7.910   4.011  0.0502  0.6057  0.3645
  280POPC   PO4 3843   5.721   8.253   4.144  0.2118  0.3772  0.3482
  280POPC   GL1 3844   5.841   8.181   4.499 -0.2700  0.1121  0.1657
  280POPC   GL2 3845   6.112   8.073   4.579 -0.1967  0.1581  0.1752
  280POPC   C1A 3846   5.903   8.212   4.983  0.2512 -0.2267 -0.0604
  280POPC   D2A 3847   6.035   7.817   5.038 -0.0084  0.0664 -0.3583
  280POPC   C3A 3848   6.337   7.626   4.996  0.0156  0.0856 -0.2761
  280POPC   C4A 3849   6.583   7.654   5.220  0.0958 -0.1488  0.0825
  280POPC   C1B 3850   6.185   8.517   4.753 -0.3289 -0.0599  0.3889
  280POPC   C2B 3851   6.082   8.754   5.051 -0.1648 -0.1458 -0.1381
  280POPC   C3B 3852   6.119   8.744   5.516  0.2050 -0.1182  0.1896
  280POPC   C4B 3853   5.934   8.927   5.857  0.0925 -0.0465  0.0588
  281POPC   NC3 3854   0.265   3.526   5.013  0.0728  0.1285 -0.3119
  281POPC   PO4 3855  -0.029   3.916   5.165 -0.0753 -0.2757 -0.3916
  281POPC   GL1 3856  -0.040   4.039   5.598 -0.2548 -0.1910 -0.3500
  281POPC   GL2 3857   0.063   4.377   5.703 -0.1043 -0.0181  0.4566
  281POPC   C1A 3858   0.148   3.846   5.975  0.0258  0.0020  0.1825
  281POPC   D2A 3859   0.222   3.919   6.448 -0.1791 -0.0834 -0.3366
  281POPC   C3A 3860   0.416   4.319   6.676  0.2312 -0.1798  0.0176
  281POPC   C4A 3861   0.382   4.544   6.992  0.2656 -0.1181  0.0213
  281POPC   C1B 3862  -0.242   4.324   6.064 -0.1117  0.1374  0.0212
  281POPC   C2B 3863  -0.132   4.253   6.465  0.0885  0.0000  0.1727
  281POPC   C3B 3864  -0.022   4.313   6.965  0.1324 -0.1670  0.0659
  281POPC   C4B 3865   0.054   4.648   7.378 -0.1017 -0.0740  0.0902
  282POPC   NC3 3866   7.455   5.856   4.060 -0.1358 -0.0341 -0.2331
  282POPC   PO4 3867   7.422   6.051   4.466  0.2955 -0.0837  0.1072
  282POPC   GL1 3868   7.487   6.058   4.925  0.0945  0.0399 -0.0333
  282POPC   GL2 3869   7.388   6.313   5.090 -0.0553  0.0837  0.3108
  282POPC   C1A 3870   7.179   5.892   5.256 -0.2011 -0.0567 -0.0436
  282POPC   D2A 3871   6.962   5.501   5.457  0.2334 -0.2271 -0.0294
  282POPC   C3A 3872   6.501   5.628   5.664  0.1618  0.1316 -0.2091
  282POPC   C4A 3873   6.084   5.763   5.816 -0.1241  0.0619 -0.3208
  282POPC   C1B 3874   7.327   6.287   5.572  0.1742  0.0468  0.1006
  282POPC   C2B 3875   7.122   6.248   6.019  0.2007  0.1205  0.0561
  282POPC   C3B 3876   6.979   5.936   6.268  0.0483  0.0334 -0.4247
  282POPC   C4B 3877   6.924   5.917   6.647 -0.0343 -0.2257  0.0489
  283POPC   NC3 3878   5.062   7.164   4.371  0.2042  0.1051  0.1628
  283POPC   PO4 3879   4.837   7.098   4.685  0.0809  0.0788  0.0175
  283POPC   GL1 3880   5.151   7.244   4.974  0.1695 -0.0483  0.1740
  283POPC   GL2 3881   5.326   7.302   4.733  0.2267  0.0454 -0.1492
  283POPC   C1A 3882   5.354   7.442   5.301  0.0248  0.0739  0.3571
  283POPC   D2A 3883   5.585   7.418   5.650  0.0102 -0.3650  0.0071
  283POPC   C3A 3884   5.640   7.216   6.080  0.0430 -0.0106  0.1130
  283POPC   C4A 3885   5.545   6.906   6.328 -0.2918 -0.4934  0.2813
  283POPC   C1B 3886   5.549   6.938   4.969  0.3813  0.1153 -0.0339
  283POPC   C2B 3887   5.373   6.960   5.430  0.1622  0.0875 -0.0529
  283POPC   C3B 3888   5.244   6.860   5.837 -0.0397 -0.0647  0.1526
  283POPC   C4B 3889   5.142   6.697   6.202  0.0519  0.0275  0.1396
  284POPC   NC3 3890   7.910   1.021   3.714  0.2527  0.3330 -0.1866
  284POPC   PO4 3891   7.794   0.626   3.783 -0.0010  0.1720 -0.0842
  284POPC   GL1 3892   7.686   0.424   4.081 -0.1748 -0.1178 -0.1090
  284POPC   GL2 3893   7.507   0.232   3.849 -0.3152  0.0267 -0.0491
  284POPC   C1A 3894   7.541   0.535   4.554  0.0188  0.1041  0.3183
  284POPC   D2A 3895   7.305   0.624   5.006  0.0492 -0.1198 -0.0317
  284POPC   C3A 3896   7.477   0.993   5.189  0.2336  0.0882  0.3860
  284POPC   C4A 3897   7.846   1.024   5.367 -0.3344 -0.0814 -0.1438
  284POPC   C1B 3898   7.512   0.071   4.385  0.2706  0.2190  0.2393
  284POPC   C2B 3899   7.734  -0.095   4.664  0.1015  0.1511 -0.1160
  284POPC   C3B 3900   7.711  -0.510   4.930  0.2460 -0.3052 -0.2546
  284POPC   C4B 3901   7.692  -0.669   5.238 -0.1813 -0.1120  0.1980
  285POPC   NC3 3902   6.110   7.099   4.097 -0.2896  0.0198  0.0428
  285POPC   PO4 3903   6.080   7.591   4.064  0.0853 -0.0124 -0.1350
  285POPC   GL1 3904   5.948   7.612   4.470  0.1606  0.0101  0.0172
  285POPC   GL2 3905   5.614   7.699   4.636  0.1034  0.0362  0.1627
  285POPC   C1A 3906   5.934   7.340   4.766 -0.0905 -0.3662 -0.4472
  285POPC   D2A 3907   5.822   7.365   5.187  0.0230  0.1066 -0.0726
  285POPC   C3A 3908   6.184   7.543   5.509  0.1073  0.0469  0.0078
  285POPC   C4A 3909   6.502   7.780   5.651  0.1727  0.0947 -0.3515
  285POPC   C1B 3910   5.567   7.741   4.980 -0.0702  0.1381  0.2029
  285POPC   C2B 3911   5.709   7.861   5.409 -0.1576 -0.0253 -0.3272
  285POPC   C3B 3912   5.647   8.016   5.741  0.0497 -0.3029 -0.0032
  285POPC   C4B 3913   5.462   8.148   6.179 -0.1416 -0.2563 -0.0658
  286POPC   NC3 3914   2.400   1.041   5.219 -0.2004  0.1126 -0.0559
  286POPC   PO4 3915   2.045   1.121   5.222  0.1378  0.0275 -0.2527
  286POPC   GL1 3916   1.927   1.083   5.666  0.2133  0.3416  0.1556
  286POPC   GL2 3917   2.176   1.068   5.740 -0.0770  0.3178 -0.3710
  286POPC   C1A 3918   1.876   0.990   6.200  0.0430 -0.2152  0.0062
  286POPC   D2A 3919   1.951   0.814   6.634 -0.2212 -0.0424 -0.0516
  286POPC   C3A 3920   1.609   0.715   6.882 -0.0253  0.2079  0.0797
  286POPC   C4A 3921   1.293   0.587   7.081  0.0245 -0.1273  0.0421
  286POPC   C1B 3922   1.981   1.463   5.982 -0.3105 -0.2412  0.1393
  286POPC   C2B 3923   1.757   1.564   6.370 -0.1616  0.1690  0.0278
  286POPC   C3B 3924   1.874   1.813   6.818  0.0797 -0.1774 -0.2258
  286POPC   C4B 3925   2.086   1.947   7.214 -0.2283 -0.2175 -0.2013
  287POPC   NC3 3926  10.429   4.076   4.699  0.5300  0.0017 -0.0378
  287POPC   PO4 3927   9.925   4.030   4.738  0.1825 -0.0798  0.0328
  287POPC   GL1 3928   9.944   3.839   5.195  0.0045 -0.0221  0.0031
  287POPC   GL2 3929   9.840   4.107   5.383 -0.0346  0.1543  0.1058
  287POPC   C1A 3930  10.080   3.558   5.483  0.1798 -0.1240  0.2680
  287POPC   D2A 3931  10.191   3.461   5.981 -0.2507 -0.0102  0.0177
  287POPC   C3A 3932  10.207   3.008   6.165 -0.0242 -0.0116 -0.1955
  287POPC   C4A 3933  10.481   2.703   6.298 -0.1851  0.0373 -0.1725
  287POPC   C1B 3934   9.970   3.955   5.757 -0.1471 -0.3295 -0.1025
  287POPC   C2B 3935   9.961   3.881   6.148  0.0810  0.2814 -0.1326
  287POPC   C3B 3936  10.223   3.729   6.457 -0.0165 -0.1827 -0.1162
  287POPC   C4B 3937  10.410   3.698   6.887 -0.0906 -0.1961  0.3132
  288POPC   NC3 3938   4.669   6.684   4.886 -0.0460 -0.1389  0.2337
  288POPC   PO4 3939   4.205   6.862   4.986  0.1583 -0.1547 -0.0508
  288POPC   GL1 3940   4.430   6.962   5.339  0.1040 -0.1572  0.3468
  288POPC   GL2 3941   4.671   7.124   5.139  0.2132  0.0822 -0.0385
  288POPC   C1A 3942   4.489   7.263   5.690  0.0915  0.2785  0.0079
  288POPC   D2A 3943   4.471   7.363   6.002 -0.1529  0.0561 -0.1969
  288POPC   C3A 3944   4.402   7.253   6.420  0.1340  0.1607  0.2841
  288POPC   C4A 3945   4.434   7.216   6.854 -0.0128  0.1270 -0.0232
  288POPC   C1B 3946   4.941   7.126   5.478 -0.2758  0.2165  0.0256
  288POPC   C2B 3947   5.048   7.331   5.812  0.1082  0.1644 -0.1159
  288POPC   C3B 3948   4.909   7.157   6.181 -0.3865  0.1671 -0.3743
  288POPC   C4B 3949   4.840   7.002   6.652  0.1675 -0.3495 -0.1655
  289POPC   NC3 3950   0.864   8.025   4.693  0.3310 -0.0526 -0.0838
  289POPC   PO4 3951   0.691   8.451   4.854 -0.2274 -0.0542  0.1981
  289POPC   GL1 3952   0.554   8.433   5.139 -0.0453  0.0734 -0.4082
  289POPC   GL2 3953   0.325   8.134   5.140  0.0203  0.2556  0.3741
  289POPC   C1A 3954   0.369   8.599   5.582  0.0168 -0.0668  0.3503
  289POPC   D2A 3955  -0.009   8.697   5.856  0.1924 -0.0998  0.0657
  289POPC   C3A 3956  -0.352   8.406   6.075 -0.3135  0.0799 -0.1562
  289POPC   C4A 3957  -0.840   8.275   6.143  0.0726 -0.2181 -0.0303
  289POPC   C1B 3958   0.476   8.053   5.512 -0.2762  0.1147  0.2328
  289POPC   C2B 3959   0.636   8.165   5.851  0.0879  0.0583 -0.3815
  289POPC   C3B 3960   0.671   8.131   6.305 -0.2242 -0.0120 -0.0504
  289POPC   C4B 3961   0.413   8.205   6.635 -0.1713  0.1475 -0.0117
  290POPC   NC3 3962   4.159   6.372   4.961 -0.0889  0.0926 -0.1126
  290POPC   PO4 3963   4.541   6.198   4.851 -0.2889  0.0744  0.0480
  290POPC   GL1 3964   4.762   6.218   5.223 -0.1616  0.1114 -0.1486
  290POPC   GL2 3965   5.045   6.079   5.163  0.3896 -0.3641 -0.2517
  290POPC   C1A 3966   4.626   6.240   5.649 -0.1695 -0.2075  0.1254
  290POPC   D2A 3967   4.376   5.982   5.949 -0.0060  0.1316 -0.0890
  290POPC   C3A 3968   4.179   6.102   6.277 -0.0322  0.0710  0.0056
  290POPC   C4A 3969   4.125   6.208   6.742  0.4701  0.2074 -0.0118
  290POPC   C1B 3970   5.087   6.059   5.605 -0.1298 -0.2986  0.2706
  290POPC   C2B 3971   5.033   6.267   5.963 -0.3635  0.0822  0.1707
  290POPC   C3B 3972   4.740   6.392   6.183 -0.2154 -0.1528  0.0325
  290POPC   C4B 3973   4.598   6.200   6.496 -0.3322 -0.1175 -0.0140
  291POPC   NC3 3974   3.387   5.165   4.987  0.0078 -0.1845 -0.3828
  291POPC   PO4 3975   3.350   4.735   4.773  0.4257 -0.0960  0.1300
  291POPC   GL1 3976   3.302   4.744   5.189 -0.0457 -0.1459  0.1658
  291POPC   GL2 3977   3.414   5.016   5.493  0.2679 -0.2053 -0.1611
  291POPC   C1A 3978   3.250   4.433   5.447  0.2096  0.1796 -0.1837
  291POPC   D2A 3979   2.859   4.282   5.704  0.0385 -0.3855 -0.2295
  291POPC   C3A 3980   2.619   4.477   6.018  0.1716 -0.3083 -0.0781
  291POPC   C4A 3981   2.196   4.458   6.208  0.2241 -0.2173 -0.1853
  291POPC   C1B 3982   3.650   5.392   5.715 -0.1491  0.1102 -0.1428
  291POPC   C2B 3983   3.360   5.468   6.014  0.1491  0.4485  0.1248
  291POPC   C3B 3984   3.114   5.657   6.382 -0.0812  0.1877  0.2742
  291POPC   C4B 3985   2.968   5.402   6.647 -0.2338 -0.1479  0.1192
  292POPC   NC3 3986   6.659   0.831   4.304 -0.1777  0.0219  0.2366
  292POPC   PO4 3987   6.536   1.217   4.542  0.1790 -0.6236  0.2017
  292POPC   GL1 3988   6.640   0.853   4.877 -0.0916 -0.0252 -0.2131
  292POPC   GL2 3989   6.727   0.561   4.800  0.0170 -0.0257  0.1657
  292POPC   C1A 3990   6.891   0.935   5.339  0.2184 -0.1466  0.0874
  292POPC   D2A 3991   7.188   0.732   5.547 -0.2002 -0.1601  0.2748
  292POPC   C3A 3992   7.577   0.510   5.437  0.2442  0.1140  0.1234
  292POPC   C4A 3993   7.866   0.230   5.516 -0.0542 -0.4926 -0.0588
  292POPC   C1B 3994   6.858   0.452   5.203  0.0293 -0.1246  0.2045
  292POPC   C2B 3995   6.795   0.330   5.710 -0.1063  0.1390  0.5032
  292POPC   C3B 3996   6.784   0.437   6.123  0.1638 -0.2140 -0.0135
  292POPC   C4B 3997   6.779   0.600   6.540 -0.0566 -0.1496 -0.0414
  293POPC   NC3 3998   4.726   9.858   4.984 -0.0087  0.0699 -0.0902
  293POPC   PO4 3999   4.349   9.812   5.209 -0.1783 -0.0330  0.0606
  293POPC   GL1 4000   4.364   9.617   5.607  0.1148  0.0890 -0.0899
  293POPC   GL2 4001   4.048   9.630   5.770 -0.0753  0.0553  0.0440
  293POPC   C1A 4002   4.512   9.414   6.022 -0.2622  0.0203 -0.2969
  293POPC   D2A 4003   4.402   9.338   6.490  0.0013 -0.1265 -0.2434
  293POPC   C3A 4004   4.691   9.408   6.818 -0.3494  0.0964 -0.0399
  293POPC   C4A 4005   5.122   9.299   6.801  0.1151  0.0978 -0.0805
  293POPC   C1B 4006   4.247   9.808   6.230  0.1515  0.1384  0.0380
  293POPC   C2B 4007   4.684   9.722   6.450  0.3004 -0.1349  0.1768
  293POPC   C3B 4008   5.057   9.836   6.645  0.1158  0.1175 -0.0125
  293POPC   C4B 4009   5.275  10.106   6.541 -0.0710 -0.1826 -0.0390
  294POPC   NC3 4010   3.882   4.659   4.779  0.0514  0.3636  0.1925
  294POPC   PO4 4011   3.824   4.976   4.996  0.0880  0.1904 -0.1176
  294POPC   GL1 4012   3.953   5.111   5.365  0.2262 -0.2864  0.4140
  294POPC   GL2 4013   4.083   5.485   5.309 -0.0979 -0.0819  0.1966
  294POPC   C1A 4014   4.013   4.989   5.686 -0.2303 -0.1907 -0.1469
  294POPC   D2A 4015   4.259   5.031   6.086 -0.2370 -0.0642  0.3800
  294POPC   C3A 4016   4.399   4.627   6.387 -0.2470  0.4775 -0.0579
  294POPC   C4A 4017   4.438   4.153   6.451  0.0691 -0.1205 -0.1210
  294POPC   C1B 4018   4.123   5.485   5.751 -0.0232 -0.0129 -0.0815
  294POPC   C2B 4019   4.285   5.505   6.158 -0.2500 -0.1976 -0.0950
  294POPC   C3B 4020   4.554   5.748   6.372 -0.1053  0.0673  0.1182
  294POPC   C4B 4021   4.920   5.869   6.295  0.1862  0.4442 -0.2002
  295POPC   NC3 4022   8.144   8.629   3.074  0.0409  0.2432  0.0157
  295POPC   PO4 4023   8.451   8.823   3.442  0.1210 -0.0027 -0.0464
  295POPC   GL1 4024   8.465   9.108   3.785 -0.1006  0.3397  0.3207
  295POPC   GL2 4025   8.590   8.982   4.000  0.3098 -0.3586  0.2649
  295POPC   C1A 4026   8.093   9.369   3.857  0.3280  0.0219 -0.3409
  295POPC   D2A 4027   7.963   9.546   4.385 -0.2157  0.2531  0.2126
  295POPC   C3A 4028   7.581   9.558   4.543  0.0306  0.2559 -0.0981
  295POPC   C4A 4029   7.571   9.276   4.984  0.1301  0.0809 -0.0066
  295POPC   C1B 4030   8.296   9.053   4.291 -0.0181 -0.3366 -0.1781
  295POPC   C2B 4031   7.969   8.942   4.594  0.2144  0.0229  0.3412
  295POPC   C3B 4032   7.827   8.862   4.943  0.0981  0.0476  0.5426
  295POPC   C4B 4033   7.561   8.686   5.158 -0.1150  0.0151  0.0405
  296POPC   NC3 4034   7.970   4.772   5.094  0.2495 -0.2987 -0.1374
  296POPC   PO4 4035   8.253   5.005   4.813 -0.2291 -0.2460  0.1573
  296POPC   GL1 4036   8.348   4.993   5.357  0.0203  0.1816 -0.3074
  296POPC   GL2 4037   8.500   5.213   5.526  0.1067  0.1444 -0.1413
  296POPC   C1A 4038   8.273   4.897   5.815  0.3772 -0.0107 -0.0914
  296POPC   D2A 4039   8.020   4.611   6.029 -0.1562 -0.0707  0.1669
  296POPC   C3A 4040   7.709   4.655   6.331 -0.1217 -0.3658 -0.4636
  296POPC   C4A 4041   7.391   4.485   6.465 -0.1029  0.2280  0.0536
  296POPC   C1B 4042   8.811   5.378   5.684 -0.1638  0.2933  0.0825
  296POPC   C2B 4043   8.911   5.489   6.002 -0.1940  0.1493 -0.1820
  296POPC   C3B 4044   8.984   5.404   6.459 -0.1937  0.1371 -0.0802
  296POPC   C4B 4045   8.672   5.297   6.807 -0.2266  0.0355 -0.1074
  297POPC   NC3 4046   8.601   6.229   4.032  0.1516 -0.1761 -0.2969
  297POPC   PO4 4047   8.320   6.175   4.397 -0.1148 -0.0499  0.0060
  297POPC   GL1 4048   8.403   6.244   4.724  0.1815 -0.3145  0.0054
  297POPC   GL2 4049   8.710   6.255   4.979  0.0279 -0.1459  0.0012
  297POPC   C1A 4050   8.120   6.434   5.043  0.2696  0.0855  0.0591
  297POPC   D2A 4051   7.936   6.363   5.459  0.1509  0.0419  0.2188
  297POPC   C3A 4052   7.662   6.624   5.440  0.1048 -0.0544  0.1961
  297POPC   C4A 4053   7.187   6.787   5.345 -0.0893  0.2889 -0.1449
  297POPC   C1B 4054   8.532   6.460   5.351  0.0480  0.2044  0.3233
  297POPC   C2B 4055   8.674   6.395   5.850 -0.1709  0.1004  0.3006
  297POPC   C3B 4056   8.715   6.277   6.257 -0.4297  0.2434  0.1893
  297POPC   C4B 4057   8.526   6.017   6.552  0.1202 -0.0631 -0.0294
  298POPC   NC3 4058   7.380   3.119   5.251 -0.0388  0.1516  0.0435
  298POPC   PO4 4059   7.551   3.525   5.052  0.2498  0.2026 -0.2629
  298POPC   GL1 4060   7.681   3.535   5.414  0.1055  0.0893  0.0702
  298POPC   GL2 4061   7.520   3.833   5.581  0.0255 -0.0625 -0.2038
  298POPC   C1A 4062   7.762   3.472   5.902 -0.1489 -0.1033  0.2334
  298POPC   D2A 4063   7.541   3.376   6.307  0.2967 -0.2084 -0.0088
  298POPC   C3A 4064   7.531   3.131   6.648  0.0494  0.1260  0.0751
  298POPC   C4A 4065   7.386   3.030   6.972  0.0572 -0.0226  0.0946
  298POPC   C1B 4066   7.303   3.763   5.957  0.2161 -0.0385  0.1043
  298POPC   C2B 4067   7.123   3.726   6.332  0.1441 -0.0449 -0.0950
  298POPC   C3B 4068   6.959   3.966   6.670  0.0370 -0.3566 -0.0437
  298POPC   C4B 4069   6.669   4.268   7.006  0.4154 -0.1829  0.1228
  299POPC   NC3 4070   1.274  10.418   5.453 -0.1676  0.0382 -0.0769
  299POPC   PO4 4071   0.911  10.607   5.517 -0.1004 -0.0890 -0.0008
  299POPC   GL1 4072   0.773  10.584   5.882  0.1464  0.0177  0.2195
  299POPC   GL2 4073   0.848  10.893   6.034  0.1890 -0.3850 -0.1227
  299POPC   C1A 4074   0.655  10.453   6.316 -0.0546 -0.0245  0.1547
  299POPC   D2A 4075   0.457  10.593   6.654  0.0712  0.1654 -0.0436
  299POPC   C3A 4076   0.035  10.367   6.798  0.0717  0.0985 -0.1052
  299POPC   C4A 4077  -0.058  10.149   7.050  0.3740 -0.0264 -0.0590
  299POPC   C1B 4078   1.110  10.889   6.455 -0.1317 -0.3749 -0.0919
  299POPC   C2B 4079   0.924  10.852   6.816 -0.1188  0.1148 -0.0173
  299POPC   C3B 4080   0.618  10.835   7.126 -0.6360  0.1240  0.0435
  299POPC   C4B 4081   0.563  10.684   7.518 -0.1097 -0.0344  0.1352
  300POPC   NC3 4082   6.465   9.730   3.448 -0.7126 -0.1590 -0.0659
  300POPC   PO4 4083   6.212   9.411   3.512  0.0374 -0.0317 -0.2650
  300POPC   GL1 4084   6.458   9.115   3.715 -0.0514  0.1219 -0.2786
  300POPC   GL2 4085   6.742   9.375   3.784 -0.1531  0.0599 -0.1606
  300POPC   C1A 4086   6.459   8.992   4.185  0.1228  0.0443  0.0023
  300POPC   D2A 4087   6.565   8.714   4.536 -0.0586 -0.2661  0.0480
  300POPC   C3A 4088   6.892   8.909   4.711 -0.2298 -0.0378  0.1445
  300POPC   C4A 4089   7.178   8.873   4.874  0.0518  0.0461  0.0287
  300POPC   C1B 4090   6.831   9.497   4.184  0.0205 -0.1213 -0.2084
  300POPC   C2B 4091   7.073   9.534   4.545 -0.3589  0.0460 -0.0350
  300POPC   C3B 4092   7.230   9.647   4.952  0.2593 -0.0390 -0.2298
  300POPC   C4B 4093   7.208   9.928   5.262 -0.2023 -0.2605  0.0440
  301POPC   NC3 4094   2.996  10.440   5.220  0.0895  0.0711 -0.1217
  301POPC   PO4 4095   2.987  10.423   5.671 -0.0643 -0.1005  0.0279
  301POPC   GL1 4096   2.960  10.110   5.994 -0.3540  0.2231 -0.0314
  301POPC   GL2 4097   3.272   9.875   5.924  0.2770 -0.3251 -0.1741
  301POPC   C1A 4098   2.760  10.095   6.463  0.0067 -0.2931  0.2142
  301POPC   D2A 4099   2.965  10.126   6.822  0.1133  0.0767  0.2766
  301POPC   C3A 4100   3.005  10.323   7.116  0.0553 -0.0674 -0.4913
  301POPC   C4A 4101   2.989  10.658   7.498  0.0187  0.0262  0.0804
  301POPC   C1B 4102   3.219  10.021   6.413 -0.0350  0.0373  0.0293
  301POPC   C2B 4103   3.438  10.234   6.740  0.0761  0.1660  0.0502
  301POPC   C3B 4104   3.738  10.535   6.873 -0.2627 -0.0426 -0.2546
  301POPC   C4B 4105   4.209  10.610   6.944 -0.1507  0.3669 -0.0873
  302POPC   NC3 4106   1.394   9.026   5.021  0.1297  0.1439  0.1586
  302POPC   PO4 4107   0.944   9.270   4.925  0.2347 -0.1319 -0.0890
  302POPC   GL1 4108   0.839   9.316   5.316 -0.2923  0.0655 -0.2249
  302POPC   GL2 4109   0.790   9.571   5.459  0.0678 -0.0065 -0.0099
  302POPC   C1A 4110   0.635   9.040   5.567  0.0444 -0.2924  0.0882
  302POPC   D2A 4111   0.464   9.011   5.948  0.1563  0.2020  0.1960
  302POPC   C3A 4112   0.085   9.095   6.180  0.0010  0.1281 -0.2844
  302POPC   C4A 4113  -0.263   8.918   6.348  0.0626 -0.0847  0.0967
  302POPC   C1B 4114   0.488   9.502   5.816 -0.2900 -0.1031 -0.1465
  302POPC   C2B 4115   0.477   9.481   6.206  0.1393  0.2187 -0.0810
  302POPC   C3B 4116   0.391   9.389   6.643 -0.1964 -0.2142 -0.1283
  302POPC   C4B 4117   0.397   9.277   7.083  0.1527 -0.1556 -0.3828
  303POPC   NC3 4118   7.890   5.247   5.188  0.0071 -0.0228  0.0314
  303POPC   PO4 4119   7.485   4.958   5.108 -0.1308  0.2757  0.2480
  303POPC   GL1 4120   7.288   5.094   5.510 -0.0682  0.2654 -0.0812
  303POPC   GL2 4121   7.524   5.404   5.603 -0.2228 -0.0058 -0.1680
  303POPC   C1A 4122   7.075   5.169   5.879  0.0056 -0.0221 -0.2066
  303POPC   D2A 4123   6.960   5.406   6.254 -0.0203 -0.2026  0.0738
  303POPC   C3A 4124   7.275   5.594   6.475 -0.0647 -0.0163 -0.0417
  303POPC   C4A 4125   7.676   5.476   6.583  0.1085 -0.0564  0.0949
  303POPC   C1B 4126   7.199   5.719   5.838  0.0288 -0.1584  0.2921
  303POPC   C2B 4127   6.867   5.966   5.674  0.2704 -0.0484 -0.2306
  303POPC   C3B 4128   6.466   6.087   5.950  0.1050 -0.1312 -0.2628
  303POPC   C4B 4129   6.384   6.056   6.436 -0.0477  0.1377 -0.0541
  304POPC   NC3 4130   0.222   0.298   5.128 -0.0906 -0.1086 -0.0682
  304POPC   PO4 4131   0.575   0.070   5.059  0.0363 -0.0632 -0.0089
  304POPC   GL1 4132   0.323  -0.051   5.426 -0.3956  0.1097  0.0022
  304POPC   GL2 4133   0.497  -0.156   5.616 -0.1864  0.1286  0.0015
  304POPC   C1A 4134   0.232   0.129   5.886 -0.1619  0.1187  0.0025
  304POPC   D2A 4135   0.150   0.010   6.220 -0.0649  0.0915  0.4164
  304POPC   C3A 4136   0.005   0.325   6.549 -0.0865  0.0254  0.3538
  304POPC   C4A 4137   0.124   0.438   6.941  0.0520  0.2594  0.2250
  304POPC   C1B 4138   0.432  -0.356   5.910  0.0155 -0.0912  0.1092
  304POPC   C2B 4139   0.414  -0.423   6.372 -0.1235  0.0027  0.3444
  304POPC   C3B 4140   0.300  -0.588   6.763 -0.0945  0.0145 -0.2235
  304POPC   C4B 4141   0.375  -0.666   7.159 -0.1057 -0.3653 -0.0813
  305POPC   NC3 4142   9.794   3.336   4.688  0.0255 -0.1039 -0.0524
  305POPC   PO4 4143   9.935   2.923   4.866 -0.2285 -0.1859  0.1082
  305POPC   GL1 4144   9.938   3.221   5.171  0.1251  0.3106 -0.0037
  305POPC   GL2 4145  10.306   3.141   5.236 -0.1283  0.2474  0.0940
  305POPC   C1A 4146   9.702   3.089   5.653 -0.2227 -0.3458 -0.1426
  305POPC   D2A 4147   9.772   3.254   5.986  0.0347  0.0564 -0.0279
  305POPC   C3A 4148   9.615   3.517   6.213  0.0603 -0.3884  0.3690
  305POPC   C4A 4149   9.557   3.856   6.507  0.2443 -0.2414  0.0871
  305POPC   C1B 4150  10.200   3.057   5.636  0.0674  0.2008  0.0377
  305POPC   C2B 4151  10.099   2.591   5.854 -0.4958 -0.0243  0.3010
  305POPC   C3B 4152  10.265   2.284   6.145  0.2142  0.3634 -0.0303
  305POPC   C4B 4153  10.325   2.172   6.527  0.0513  0.0651  0.0108
  306POPC   NC3 4154   7.298   1.637   3.994  0.2065  0.2607 -0.4058
  306POPC   PO4 4155   7.772   1.490   4.060  0.0713 -0.3898 -0.2907
  306POPC   GL1 4156   7.979   1.421   4.435 -0.2478 -0.4966 -0.1684
  306POPC   GL2 4157   7.961   1.141   4.608  0.3612  0.0427  0.0171
  306POPC   C1A 4158   8.401   1.400   4.661 -0.0996  0.0479  0.2262
  306POPC   D2A 4159   8.761   1.164   4.775 -0.0887 -0.1650  0.1959
  306POPC   C3A 4160   8.970   1.023   5.171 -0.1277  0.1610 -0.0434
  306POPC   C4A 4161   9.394   0.968   5.331  0.3021  0.0813  0.0076
  306POPC   C1B 4162   8.308   0.895   4.698 -0.1809  0.0952 -0.1183
  306POPC   C2B 4163   8.652   0.655   5.010  0.1674  0.1664 -0.2262
  306POPC   C3B 4164   8.736   0.499   5.371  0.0816 -0.3065  0.0236
  306POPC   C4B 4165   8.529   0.478   5.788 -0.2162  0.1263 -0.2877
  307POPC   NC3 4166   9.306   5.796   5.089  0.0119 -0.1331  0.0317
  307POPC   PO4 4167   8.843   5.779   5.165  0.2234  0.0451 -0.0984
  307POPC   GL1 4168   8.740   5.847   5.573 -0.3148 -0.0383 -0.1699
  307POPC   GL2 4169   8.448   5.713   5.511  0.1805  0.1027  0.0150
  307POPC   C1A 4170   8.584   5.846   6.025  0.0553 -0.0707  0.0684
  307POPC   D2A 4171   8.211   5.770   6.286  0.0239 -0.1056  0.2604
  307POPC   C3A 4172   8.143   6.304   6.406  0.1247 -0.2242  0.1177
  307POPC   C4A 4173   8.073   6.508   6.779 -0.1768 -0.2333  0.2660
  307POPC   C1B 4174   8.205   5.908   5.740  0.2442  0.0230 -0.1908
  307POPC   C2B 4175   8.157   6.266   5.871 -0.1629  0.0920 -0.0788
  307POPC   C3B 4176   8.268   6.682   5.903  0.0236  0.0186  0.3307
  307POPC   C4B 4177   8.244   7.130   5.914 -0.1203 -0.0231  0.2079
  308POPC   NC3 4178   4.853   8.448   3.999  0.1076  0.1949  0.0800
  308POPC   PO4 4179   4.807   8.648   4.402  0.0753 -0.2436  0.0911
  308POPC   GL1 4180   4.712   8.779   4.975  0.1334 -0.2688 -0.1066
  308POPC   GL2 4181   4.436   8.874   5.167  0.1387 -0.1660  0.0892
  308POPC   C1A 4182   4.900   8.698   5.328 -0.0660 -0.1163  0.1976
  308POPC   D2A 4183   5.060   8.832   5.704 -0.1289 -0.0163  0.1309
  308POPC   C3A 4184   5.010   9.113   5.998  0.1196 -0.0483  0.0357
  308POPC   C4A 4185   4.941   9.362   6.318 -0.2719  0.2478  0.0553
  308POPC   C1B 4186   4.433   8.502   5.361  0.2999  0.1633  0.3553
  308POPC   C2B 4187   4.359   8.227   5.698  0.3453  0.1141 -0.1210
  308POPC   C3B 4188   4.552   8.209   6.075 -0.1503 -0.0910 -0.0798
  308POPC   C4B 4189   4.936   8.097   6.347  0.0718 -0.1955 -0.0857
  309POPC   NC3 4190   5.895   0.501   4.214  0.1229  0.4754 -0.3493
  309POPC   PO4 4191   5.740   0.081   4.278 -0.2468 -0.1074  0.1343
  309POPC   GL1 4192   5.898   0.220   4.654 -0.1143 -0.1468  0.2331
  309POPC   GL2 4193   5.864   0.550   4.811  0.1476  0.0301  0.0628
  309POPC   C1A 4194   6.007   0.055   5.013  0.0381 -0.0130 -0.0676
  309POPC   D2A 4195   5.925  -0.145   5.472 -0.2761 -0.1238  0.2013
  309POPC   C3A 4196   6.034   0.104   5.786 -0.1685 -0.0385 -0.1641
  309POPC   C4A 4197   6.343   0.397   5.780  0.1574  0.1043  0.3490
  309POPC   C1B 4198   6.301   0.410   4.966 -0.1014 -0.5549 -0.2911
  309POPC   C2B 4199   6.437   0.182   5.335 -0.1865 -0.3217 -0.0133
  309POPC   C3B 4200   6.479  -0.114   5.662  0.1212  0.1620 -0.0004
  309POPC   C4B 4201   6.574  -0.430   5.949  0.1453  0.2037  0.0310
  310POPC   NC3 4202   1.433   2.073   4.827  0.1859 -0.2249  0.1289
  310POPC   PO4 4203   1.494   1.942   5.128  0.1933 -0.0129  0.0905
  310POPC   GL1 4204   1.725   1.943   5.499  0.0550  0.0494  0.1900
  310POPC   GL2 4205   1.479   2.144   5.700 -0.2256 -0.1804 -0.2628
  310POPC   C1A 4206   1.966   1.991   5.800  0.0325  0.0215 -0.0327
  310POPC   D2A 4207   2.205   2.314   5.991  0.0817  0.0118 -0.3739
  310POPC   C3A 4208   2.496   2.355   6.294  0.2266  0.1003  0.0273
  310POPC   C4A 4209   2.881   2.270   6.370  0.0890 -0.4633 -0.0257
  310POPC   C1B 4210   1.657   2.175   6.146  0.0925  0.0701  0.1127
  310POPC   C2B 4211   1.533   2.016   6.561 -0.0436 -0.0149 -0.0282
  310POPC   C3B 4212   1.404   1.767   7.001  0.2205 -0.1472 -0.1230
  310POPC   C4B 4213   1.520   1.746   7.399 -0.0585  0.0349 -0.0965
  311POPC   NC3 4214   2.208   3.788   5.174  0.2559 -0.0116 -0.3001
  311POPC   PO4 4215   2.125   4.134   5.027 -0.1392 -0.2779 -0.1262
  311POPC   GL1 4216   2.066   4.302   5.494  0.0912 -0.1085 -0.2225
  311POPC   GL2 4217   2.288   4.320   5.679 -0.2628 -0.2518  0.0612
  311POPC   C1A 4218   1.852   4.326   5.862  0.4097  0.1288 -0.1665
  311POPC   D2A 4219   1.706   4.386   6.288  0.3699 -0.1410 -0.0409
  311POPC   C3A 4220   1.764   4.696   6.609 -0.1316 -0.0336  0.2185
  311POPC   C4A 4221   1.704   4.781   7.102  0.1948 -0.0390  0.0381
  311POPC   C1B 4222   2.115   4.734   5.678 -0.1826  0.1119 -0.2367
  311POPC   C2B 4223   1.749   4.782   6.000  0.2164  0.1694  0.1078
  311POPC   C3B 4224   1.480   4.895   6.249  0.0320 -0.2387 -0.0494
  311POPC   C4B 4225   1.322   4.937   6.612  0.2211 -0.1896  0.1131
  312POPC   NC3 4226   2.596   7.327   4.942  0.0441  0.0231 -0.1124
  312POPC   PO4 4227   2.167   7.261   4.800 -0.4280  0.2668  0.0429
  312POPC   GL1 4228   2.196   7.350   5.263 -0.0097 -0.0137 -0.1262
  312POPC   GL2 4229   2.425   7.372   5.475  0.0016 -0.1348  0.3321
  312POPC   C1A 4230   1.915   7.635   5.574 -0.1404 -0.1905 -0.1799
  312POPC   D2A 4231   1.664   7.706   5.979 -0.0623 -0.0941 -0.1949
  312POPC   C3A 4232   1.996   7.764   6.352  0.1305 -0.1011 -0.1811
  312POPC   C4A 4233   2.236   8.048   6.521  0.0694 -0.2954  0.2443
  312POPC   C1B 4234   2.704   7.245   5.750  0.3387  0.1658  0.0306
  312POPC   C2B 4235   2.603   7.104   6.207 -0.2317  0.0306 -0.1882
  312POPC   C3B 4236   2.680   7.199   6.683 -0.2156 -0.3542  0.1363
  312POPC   C4B 4237   3.093   7.188   6.886 -0.0704 -0.4767  0.2841
  313POPC   NC3 4238   0.784   3.539   4.511  0.1364  0.3256 -0.2649
  313POPC   PO4 4239   0.713   3.682   4.933  0.0261 -0.0227 -0.0384
  313POPC   GL1 4240   0.744   3.783   5.402  0.0737  0.0778  0.0475
  313POPC   GL2 4241   0.423   3.899   5.430  0.0720  0.2953 -0.1473
  313POPC   C1A 4242   0.594   3.509   5.795  0.1461  0.1901  0.1229
  313POPC   D2A 4243   0.691   3.203   6.111 -0.1205  0.0328  0.1372
  313POPC   C3A 4244   0.434   2.968   6.421  0.0561  0.0258 -0.2128
  313POPC   C4A 4245   0.297   2.836   6.755 -0.0928 -0.0058 -0.2609
  313POPC   C1B 4246   0.644   4.078   5.795 -0.0808  0.0811  0.0223
  313POPC   C2B 4247   0.624   4.115   6.273 -0.0206 -0.0974 -0.5075
  313POPC   C3B 4248   0.688   3.848   6.702 -0.0154 -0.1151 -0.3823
  313POPC   C4B 4249   1.009   3.825   7.066  0.0106  0.1111 -0.2023
  314POPC   NC3 4250   3.182   3.552   4.372 -0.0707  0.1228  0.0989
  314POPC   PO4 4251   3.118   3.507   4.785  0.0060 -0.1343  0.1230
  314POPC   GL1 4252   3.387   3.584   5.153 -0.2591 -0.1595 -0.0762
  314POPC   GL2 4253   3.306   3.430   5.460  0.3435  0.0435  0.0758
  314POPC   C1A 4254   3.508   3.839   5.556  0.0812 -0.1208  0.0742
  314POPC   D2A 4255   3.334   4.173   5.933 -0.2195 -0.1742  0.1957
  314POPC   C3A 4256   3.524   4.474   6.196  0.2052 -0.2048 -0.0576
  314POPC   C4A 4257   3.930   4.660   6.205  0.1822 -0.1255  0.0286
  314POPC   C1B 4258   3.118   3.579   5.814  0.0449  0.1485  0.0914
  314POPC   C2B 4259   2.689   3.705   5.962  0.0120 -0.0412  0.3498
  314POPC   C3B 4260   2.549   3.840   6.354 -0.0837 -0.0222  0.0410
  314POPC   C4B 4261   2.496   3.504   6.710 -0.3847  0.0926 -0.0728
  315POPC   NC3 4262   8.189   7.075   4.288  0.6174 -0.1043 -0.1096
  315POPC   PO4 4263   7.769   6.914   4.324 -0.4630 -0.3514  0.2116
  315POPC   GL1 4264   7.874   7.110   4.723  0.2108 -0.2372 -0.1522
  315POPC   GL2 4265   8.152   7.306   4.771 -0.2070  0.2068  0.0904
  315POPC   C1A 4266   7.750   7.453   4.988  0.2035  0.4768 -0.0917
  315POPC   D2A 4267   7.359   7.783   4.930  0.0750  0.3731  0.0677
  315POPC   C3A 4268   7.403   8.133   5.161 -0.1072 -0.1993 -0.2591
  315POPC   C4A 4269   7.196   8.506   5.385 -0.1775 -0.0108 -0.1592
  315POPC   C1B 4270   8.189   7.433   5.236  0.0096 -0.1335 -0.0336
  315POPC   C2B 4271   7.908   7.479   5.623 -0.2454 -0.0172 -0.1321
  315POPC   C3B 4272   7.423   7.358   5.750 -0.4253  0.1044 -0.1601
  315POPC   C4B 4273   7.200   7.188   5.594  0.2111  0.2365  0.3696
  316POPC   NC3 4274   1.894   1.530   5.069  0.1220 -0.4847 -0.0928
  316POPC   PO4 4275   1.684   1.469   5.361  0.2837 -0.2896 -0.0892
  316POPC   GL1 4276   1.522   1.406   5.785  0.0152 -0.0442 -0.1408
  316POPC   GL2 4277   1.492   1.651   5.866  0.2503 -0.1051  0.1819
  316POPC   C1A 4278   1.348   1.356   6.261  0.0490  0.2964  0.3181
  316POPC   D2A 4279   1.300   1.562   6.597 -0.0595 -0.2471 -0.0993
  316POPC   C3A 4280   0.908   1.678   6.843 -0.0325  0.1451 -0.2342
  316POPC   C4A 4281   0.493   1.771   7.068  0.0597  0.0546  0.3052
  316POPC   C1B 4282   1.243   1.854   6.174  0.1683  0.1285 -0.0920
  316POPC   C2B 4283   1.003   2.072   6.591 -0.0664 -0.0426  0.1803
  316POPC   C3B 4284   0.952   2.175   7.030  0.1253  0.4098 -0.1024
  316POPC   C4B 4285   1.095   2.418   7.256  0.1683 -0.1505  0.1000
  317POPC   NC3 4286   2.445  10.407   5.219 -0.0101 -0.1940  0.1972
  317POPC   PO4 4287   2.677  10.073   5.360 -0.1694  0.2519 -0.1515
  317POPC   GL1 4288   2.564   9.763   5.694 -0.1768 -0.2014 -0.3937
  317POPC   GL2 4289   2.898   9.630   5.784 -0.3699  0.0929 -0.0844
  317POPC   C1A 4290   2.277   9.608   6.030 -0.0122  0.0549  0.0601
  317POPC   D2A 4291   2.138   9.347   6.349 -0.1497  0.1915  0.0023
  317POPC   C3A 4292   2.463   9.076   6.646  0.2407 -0.0384  0.1672
  317POPC   C4A 4293   2.694   8.695   6.490  0.3679 -0.0449  0.0038
  317POPC   C1B 4294   2.921   9.640   6.278  0.1042 -0.0294  0.2951
  317POPC   C2B 4295   2.722   9.502   6.608  0.1425 -0.0678 -0.1246
  317POPC   C3B 4296   2.581   9.319   7.039  0.2395 -0.3360  0.1634
  317POPC   C4B 4297   2.143   9.124   7.077 -0.2307 -0.2503  0.1304
  318POPC   NC3 4298   7.375   8.963   2.687  0.1080 -0.2870  0.3915
  318POPC   PO4 4299   7.302   8.650   3.034 -0.1449 -0.4585 -0.0330
  318POPC   GL1 4300   7.383   8.607   3.488 -0.2782 -0.0146  0.0161
  318POPC   GL2 4301   7.165   8.596   3.716  0.0169 -0.0406 -0.2004
  318POPC   C1A 4302   7.414   9.008   3.733 -0.2964 -0.2734  0.1491
  318POPC   D2A 4303   7.613   9.438   3.636 -0.1508 -0.1300  0.0620
  318POPC   C3A 4304   7.631   9.655   4.012 -0.0413 -0.1039  0.0500
  318POPC   C4A 4305   7.240   9.778   4.128 -0.2209  0.0937 -0.2350
  318POPC   C1B 4306   7.470   8.707   4.112  0.1319  0.0803 -0.0889
  318POPC   C2B 4307   7.509   8.656   4.492 -0.0221  0.2212 -0.2102
  318POPC   C3B 4308   7.757   8.340   4.775  0.4493 -0.1269  0.1392
  318POPC   C4B 4309   7.971   7.912   4.810  0.1456  0.1868  0.4019
  319POPC   NC3 4310   1.051  10.435   5.040 -0.1516  0.1687  0.1988
  319POPC   PO4 4311   0.790  10.070   5.229 -0.4061  0.0623 -0.2243
  319POPC   GL1 4312   0.924  10.069   5.639  0.2691  0.1242  0.0399
  319POPC   GL2 4313   1.122  10.217   5.904 -0.0117 -0.1427 -0.0684
  319POPC   C1A 4314   0.850   9.822   6.080  0.0940  0.0130 -0.0222
  319POPC   D2A 4315   0.927   9.987   6.487 -0.0761 -0.1129 -0.0871
  319POPC   C3A 4316   0.675  10.181   6.825 -0.0770 -0.1026 -0.1249
  319POPC   C4A 4317   0.405  10.339   7.154  0.0466 -0.1296  0.3585
  319POPC   C1B 4318   1.169  10.456   6.184  0.2756 -0.2971 -0.3672
  319POPC   C2B 4319   1.101  10.399   6.664  0.0905 -0.1908 -0.1559
  319POPC   C3B 4320   0.991  10.473   7.135  0.2793  0.0158 -0.1181
  319POPC   C4B 4321   0.970  10.392   7.634  0.2113  0.0334 -0.0598
  320POPC   NC3 4322  10.356   2.676   5.027  0.1109 -0.0915 -0.1286
  320POPC   PO4 4323  10.767   2.936   5.063  0.0261  0.1541  0.3554
  320POPC   GL1 4324  10.763   3.011   5.554 -0.1424 -0.1326  0.0802
  320POPC   GL2 4325  10.586   2.772   5.552 -0.0702  0.1573  0.1123
  320POPC   C1A 4326  10.595   3.171   5.935 -0.2511  0.0236 -0.0829
  320POPC   D2A 4327  10.656   3.458   6.233 -0.2579 -0.1050  0.0567
  320POPC   C3A 4328  10.469   3.191   6.636  0.1518 -0.1842  0.1131
  320POPC   C4A 4329  10.445   3.072   7.026 -0.1522 -0.2321 -0.1611
  320POPC   C1B 4330  10.922   2.646   5.944  0.0885  0.0556 -0.0286
  320POPC   C2B 4331  11.337   2.712   6.280 -0.1322  0.3166 -0.0444
  320POPC   C3B 4332  11.375   3.006   6.555 -0.1540  0.2704  0.1299
  320POPC   C4B 4333  11.543   3.419   6.662  0.0445 -0.0667 -0.0395
  321POPC   NC3 4334   9.903   2.375   5.002 -0.1045 -0.0849  0.2180
  321POPC   PO4 4335   9.452   2.511   4.868 -0.1915 -0.0430  0.0255
  321POPC   GL1 4336   9.301   2.405   5.287  0.0189 -0.2007 -0.0825
  321POPC   GL2 4337   8.910   2.388   5.231 -0.3192 -0.2205  0.0910
  321POPC   C1A 4338   9.175   2.321   5.669  0.0087 -0.0653  0.1096
  321POPC   D2A 4339   9.184   2.130   6.076 -0.0042 -0.1335  0.3814
  321POPC   C3A 4340   9.249   1.993   6.544 -0.0478  0.0783  0.1226
  321POPC   C4A 4341   9.586   2.157   6.807 -0.2672  0.1560 -0.0091
  321POPC   C1B 4342   8.694   2.665   5.585 -0.4397 -0.0782 -0.1716
  321POPC   C2B 4343   8.653   2.748   5.975 -0.0196 -0.1932 -0.0924
  321POPC   C3B 4344   8.679   2.525   6.359  0.0647  0.0065  0.3444
  321POPC   C4B 4345   8.505   2.536   6.776  0.1062 -0.4189 -0.0265
  322POPC   NC3 4346   0.655   1.994   5.615  0.0023  0.2428 -0.2811
  322POPC   PO4 4347   0.268   1.800   5.384  0.0239  0.0347  0.2091
  322POPC   GL1 4348   0.107   1.779   5.910 -0.0473  0.2345  0.0210
  322POPC   GL2 4349   0.135   1.415   6.107  0.0624 -0.0800 -0.5140
  322POPC   C1A 4350  -0.249   1.736   6.304  0.0216 -0.1465  0.2188
  322POPC   D2A 4351  -0.283   1.320   6.395 -0.3219 -0.0360 -0.0250
  322POPC   C3A 4352  -0.525   1.346   6.751 -0.0360  0.0862  0.2935
  322POPC   C4A 4353  -0.700   1.660   6.818 -0.1406 -0.3122  0.0699
  322POPC   C1B 4354   0.166   1.033   6.375 -0.0936  0.2209  0.1495
  322POPC   C2B 4355  -0.146   0.847   6.573 -0.1463  0.1380  0.1294
  322POPC   C3B 4356  -0.388   0.536   6.790  0.0112 -0.0317  0.2915
  322POPC   C4B 4357  -0.795   0.414   6.868 -0.1678  0.1099 -0.1805
  323POPC   NC3 4358   9.684   8.103   4.367 -0.0104  0.0990 -0.2222
  323POPC   PO4 4359   9.229   8.115   4.306  0.1401 -0.2723 -0.1134
  323POPC   GL1 4360   9.174   8.033   4.743  0.3253 -0.3299  0.3149
  323POPC   GL2 4361   9.432   8.228   4.869 -0.1869  0.1495 -0.2361
  323POPC   C1A 4362   8.952   8.191   5.163 -0.2510  0.0373  0.0594
  323POPC   D2A 4363   8.765   8.393   5.565 -0.1925 -0.1714  0.2569
  323POPC   C3A 4364   8.377   8.603   5.438 -0.1930 -0.2564 -0.0026
  323POPC   C4A 4365   8.032   8.499   5.257 -0.1087 -0.1414 -0.2415
  323POPC   C1B 4366   9.349   7.905   5.148 -0.4169 -0.1619  0.1070
  323POPC   C2B 4367   9.465   7.753   5.496 -0.3172  0.0674 -0.1454
  323POPC   C3B 4368   9.407   7.826   6.019 -0.0344  0.0265 -0.0572
  323POPC   C4B 4369   9.206   7.721   6.389  0.1131  0.1451  0.2781
  324POPC   NC3 4370   9.649   9.584   3.413  0.3719  0.2417 -0.1502
  324POPC   PO4 4371   9.306   9.253   3.445  0.2457  0.0587  0.0458
  324POPC   GL1 4372   9.008   9.354   3.835  0.0445 -0.0887  0.0747
  324POPC   GL2 4373   9.012   9.071   4.218  0.0462  0.3149  0.2299
  324POPC   C1A 4374   8.636   9.535   4.065 -0.0827  0.0532  0.0685
  324POPC   D2A 4375   8.677   9.617   4.481  0.1935  0.2694 -0.0372
  324POPC   C3A 4376   9.094   9.659   4.524  0.0605 -0.0831 -0.2012
  324POPC   C4A 4377   9.387   9.500   4.825 -0.3269  0.0253  0.1946
  324POPC   C1B 4378   9.406   9.072   4.583 -0.0522  0.1901 -0.1409
  324POPC   C2B 4379   9.531   8.793   5.030 -0.0632 -0.0169  0.4680
  324POPC   C3B 4380   9.198   8.666   5.278  0.0747  0.0629 -0.3424
  324POPC   C4B 4381   8.812   8.871   5.449  0.1821  0.0973 -0.1511
  325POPC   NC3 4382  10.065   5.792   4.564  0.0778  0.0620 -0.0310
  325POPC   PO4 4383   9.953   5.313   4.686  0.0305  0.0731 -0.0169
  325POPC   GL1 4384   9.913   5.220   5.159  0.1386  0.0249  0.0856
  325POPC   GL2 4385   9.924   4.954   5.327  0.2038  0.0446  0.2457
  325POPC   C1A 4386  10.031   5.361   5.598  0.0727  0.0662 -0.1982
  325POPC   D2A 4387   9.861   5.291   6.094  0.1485 -0.0990  0.2594
  325POPC   C3A 4388   9.924   5.578   6.480 -0.0457  0.2167 -0.0400
  325POPC   C4A 4389   9.857   5.447   6.886 -0.1733  0.0568 -0.1666
  325POPC   C1B 4390   9.738   4.964   5.693  0.1141  0.2403 -0.0384
  325POPC   C2B 4391   9.719   4.777   6.082 -0.0953 -0.2289 -0.0969
  325POPC   C3B 4392   9.373   4.623   6.367  0.2233 -0.2384 -0.0344
  325POPC   C4B 4393   9.013   4.570   6.599 -0.2463  0.1588  0.3721
  326POPC   NC3 4394   5.091   9.491   4.886 -0.1854  0.0647  0.0404
  326POPC   PO4 4395   4.684   9.336   4.907 -0.1607 -0.0744 -0.0187
  326POPC   GL1 4396   4.680   9.314   5.244 -0.0052 -0.0518 -0.0836
  326POPC   GL2 4397   4.891   9.481   5.455 -0.0090  0.0908  0.0275
  326POPC   C1A 4398   4.583   9.097   5.580  0.0220  0.0768 -0.0521
  326POPC   D2A 4399   4.530   8.752   5.829 -0.1081  0.1324  0.1017
  326POPC   C3A 4400   4.616   8.971   6.236 -0.0269  0.0959 -0.1988
  326POPC   C4A 4401   4.420   8.914   6.647  0.2214 -0.0280 -0.2533
  326POPC   C1B 4402   4.996   9.569   5.840  0.0110  0.3930  0.0753
  326POPC   C2B 4403   5.132   9.815   6.130  0.0219  0.0421 -0.0382
  326POPC   C3B 4404   5.276  10.354   6.127  0.1604 -0.2275  0.1185
  326POPC   C4B 4405   5.553  10.518   5.891  0.1443  0.0874  0.1591
  327POPC   NC3 4406   5.015   0.666   4.389  0.1920 -0.1935  0.0487
  327POPC   PO4 4407   4.819   0.797   4.865  0.1501 -0.2158  0.1929
  327POPC   GL1 4408   5.036   0.844   5.192  0.0147 -0.1688 -0.2748
  327POPC   GL2 4409   5.024   0.752   5.523 -0.0254 -0.4275  0.5045
  327POPC   C1A 4410   5.451   0.998   5.473 -0.1977  0.1106  0.0565
  327POPC   D2A 4411   5.827   1.072   5.803  0.0320 -0.0870  0.2240
  327POPC   C3A 4412   6.217   0.906   5.829  0.2812 -0.1647 -0.1171
  327POPC   C4A 4413   6.636   0.852   5.759  0.0182 -0.4512 -0.0596
  327POPC   C1B 4414   5.362   0.549   5.671 -0.0995  0.0134  0.0997
  327POPC   C2B 4415   5.750   0.523   5.919  0.3483 -0.0291 -0.2217
  327POPC   C3B 4416   5.822   0.223   6.346 -0.0920  0.0519 -0.0136
  327POPC   C4B 4417   5.923  -0.141   6.558  0.1082  0.1185 -0.2647
  328POPC   NC3 4418   5.384   2.678   5.294 -0.2489  0.0936 -0.2367
  328POPC   PO4 4419   5.024   2.639   5.588 -0.1372  0.0696 -0.2522
  328POPC   GL1 4420   5.044   2.115   5.861  0.3690 -0.1759 -0.0297
  328POPC   GL2 4421   4.867   1.840   5.716  0.3153  0.1575 -0.4851
  328POPC   C1A 4422   5.353   1.931   6.134 -0.1035  0.1978  0.2715
  328POPC   D2A 4423   5.392   1.929   6.624 -0.0752  0.0046 -0.1542
  328POPC   C3A 4424   5.254   1.852   7.132 -0.0379  0.0317  0.0833
  328POPC   C4A 4425   5.175   1.439   7.341 -0.2368 -0.0281 -0.0118
  328POPC   C1B 4426   4.983   1.587   6.070  0.0835 -0.0914  0.4840
  328POPC   C2B 4427   5.310   1.469   6.468  0.2496  0.4276 -0.0570
  328POPC   C3B 4428   5.399   1.347   6.856 -0.0474 -0.1290  0.0387
  328POPC   C4B 4429   5.497   1.054   7.327  0.1372 -0.0936 -0.2219
  329POPC   NC3 4430   9.012   2.583   4.799 -0.2609  0.0394 -0.2685
  329POPC   PO4 4431   8.604   2.322   4.853 -0.1643  0.0865  0.2344
  329POPC   GL1 4432   8.449   2.124   5.121 -0.1915 -0.2308 -0.1917
  329POPC   GL2 4433   8.411   2.350   5.332  0.1490 -0.0337  0.1637
  329POPC   C1A 4434   8.677   1.995   5.507 -0.2773 -0.0426 -0.1073
  329POPC   D2A 4435   8.638   2.262   5.950 -0.0989 -0.0037 -0.0716
  329POPC   C3A 4436   8.471   2.070   6.290 -0.1384  0.1385  0.0840
  329POPC   C4A 4437   8.360   2.022   6.743 -0.0185 -0.0681  0.1356
  329POPC   C1B 4438   8.229   2.544   5.755  0.5749  0.5512 -0.2066
  329POPC   C2B 4439   8.233   2.550   6.142 -0.1359 -0.0514 -0.2822
  329POPC   C3B 4440   8.303   2.922   6.381  0.1149 -0.0616 -0.2487
  329POPC   C4B 4441   8.049   3.298   6.502 -0.1618 -0.0043 -0.4510
  330POPC   NC3 4442   8.876   6.247   4.469 -0.2984  0.0690 -0.2247
  330POPC   PO4 4443   9.144   6.095   4.749  0.0368 -0.2495 -0.1738
  330POPC   GL1 4444   9.244   6.288   5.059  0.1879  0.0595 -0.1314
  330POPC   GL2 4445   9.031   6.260   5.390 -0.0191  0.0689 -0.1690
  330POPC   C1A 4446   9.399   6.597   5.176 -0.2175  0.1004  0.0835
  330POPC   D2A 4447   9.453   6.678   5.550  0.1670  0.2957  0.0891
  330POPC   C3A 4448   9.833   6.580   5.787 -0.1948  0.0333  0.1190
  330POPC   C4A 4449  10.122   6.831   5.804  0.0446  0.0138  0.3491
  330POPC   C1B 4450   9.109   6.003   5.850 -0.1579 -0.0450  0.1272
  330POPC   C2B 4451   9.003   5.880   6.323 -0.2181  0.2586  0.1077
  330POPC   C3B 4452   9.112   5.905   6.682  0.0060  0.2839 -0.0554
  330POPC   C4B 4453   9.002   5.661   7.000 -0.1010  0.1469  0.4116
  331POPC   NC3 4454   3.377   6.860   4.439 -0.0562 -0.1387 -0.5027
  331POPC   PO4 4455   3.161   6.637   4.865 -0.0925 -0.0959 -0.2199
  331POPC   GL1 4456   3.307   6.544   5.299 -0.0088  0.1356 -0.2587
  331POPC   GL2 4457   3.223   6.751   5.621  0.2989 -0.2190  0.1866
  331POPC   C1A 4458   3.446   6.332   5.626 -0.2182 -0.1797  0.0143
  331POPC   D2A 4459   3.660   6.465   5.928 -0.3589 -0.2130  0.1423
  331POPC   C3A 4460   3.666   6.911   5.983 -0.1577  0.0060 -0.1659
  331POPC   C4A 4461   3.999   7.088   6.203  0.0314 -0.0165 -0.0800
  331POPC   C1B 4462   3.182   7.064   5.985  0.0382 -0.3801 -0.0568
  331POPC   C2B 4463   3.032   6.809   6.455 -0.0903  0.1267  0.0674
  331POPC   C3B 4464   3.045   6.459   6.695  0.1023 -0.1640  0.0850
  331POPC   C4B 4465   3.331   6.044   6.642  0.0799  0.3248 -0.2958
  332POPC   NC3 4466   7.015   3.378   5.040  0.1428  0.0810 -0.1577
  332POPC   PO4 4467   6.673   3.082   5.082  0.0249 -0.2349 -0.0019
  332POPC   GL1 4468   6.766   3.107   5.483 -0.0530  0.1810 -0.2335
  332POPC   GL2 4469   6.475   3.309   5.564  0.1403  0.1797 -0.1542
  332POPC   C1A 4470   6.977   2.926   5.776  0.2876 -0.1916  0.1001
  332POPC   D2A 4471   7.255   2.785   6.176  0.0876  0.3967 -0.0817
  332POPC   C3A 4472   7.129   2.744   6.531 -0.2285  0.3031 -0.1036
  332POPC   C4A 4473   7.090   2.591   6.983 -0.3177  0.0058  0.0525
  332POPC   C1B 4474   6.347   3.563   5.914 -0.1194 -0.1549  0.0030
  332POPC   C2B 4475   6.093   3.610   6.305  0.0097 -0.2363 -0.0875
  332POPC   C3B 4476   5.689   3.986   6.475  0.0646  0.1538 -0.2070
  332POPC   C4B 4477   5.711   3.993   6.952 -0.2258  0.0026 -0.5082
  333POPC   NC3 4478   9.378   1.962   4.688 -0.1196 -0.1784 -0.1943
  333POPC   PO4 4479   9.189   1.506   4.466 -0.0771 -0.0278 -0.2089
  333POPC   GL1 4480   9.104   1.501   4.912  0.2260  0.0056 -0.1368
  333POPC   GL2 4481   8.915   1.916   4.923  0.2405 -0.0915 -0.0351
  333POPC   C1A 4482   8.821   1.453   5.255  0.1719 -0.0617  0.1959
  333POPC   D2A 4483   8.550   1.351   5.638 -0.3766 -0.1791  0.1859
  333POPC   C3A 4484   8.784   1.325   6.179 -0.1750 -0.1310  0.3873
  333POPC   C4A 4485   8.851   1.645   6.517  0.0862  0.1174 -0.3001
  333POPC   C1B 4486   9.133   1.910   5.290  0.1676 -0.0453  0.1655
  333POPC   C2B 4487   9.356   1.876   5.589 -0.0408  0.1114  0.1737
  333POPC   C3B 4488   9.697   1.864   5.934 -0.2159 -0.0702 -0.1416
  333POPC   C4B 4489   9.682   2.158   6.145 -0.0762 -0.0528 -0.1454
  334POPC   NC3 4490   3.613   1.516   5.464 -0.0856 -0.3821 -0.0218
  334POPC   PO4 4491   3.696   1.159   5.480  0.1214  0.1225 -0.0214
  334POPC   GL1 4492   3.582   1.167   5.901 -0.0068  0.0836  0.1085
  334POPC   GL2 4493   3.571   1.456   5.946  0.0293 -0.0983  0.1248
  334POPC   C1A 4494   3.627   1.184   6.361 -0.2234 -0.2442  0.2156
  334POPC   D2A 4495   3.935   1.357   6.627  0.2850  0.0723  0.2307
  334POPC   C3A 4496   4.078   1.616   6.891  0.0103 -0.0320  0.0096
  334POPC   C4A 4497   4.355   1.773   7.205 -0.0121 -0.0013  0.3927
  334POPC   C1B 4498   3.742   1.658   6.207 -0.0382 -0.0681 -0.1390
  334POPC   C2B 4499   3.769   1.911   6.599  0.0786 -0.2180  0.0461
  334POPC   C3B 4500   3.971   2.340   6.785 -0.3739  0.2889  0.0597
  334POPC   C4B 4501   3.947   2.564   7.237 -0.0453  0.1756 -0.0689
  335POPC   NC3 4502  10.288   4.402   5.130  0.2089  0.2188  0.1676
  335POPC   PO4 4503  10.365   4.837   5.184 -0.2496  0.0114 -0.1219
  335POPC   GL1 4504  10.767   4.852   5.560  0.3870 -0.2002 -0.0216
  335POPC   GL2 4505  10.991   4.559   5.672  0.2509 -0.1764  0.3866
  335POPC   C1A 4506  10.782   4.899   6.011  0.0901  0.0082 -0.1540
  335POPC   D2A 4507  10.659   5.019   6.492  0.2044 -0.2536 -0.0927
  335POPC   C3A 4508  10.193   5.153   6.554  0.1198 -0.1966  0.0140
  335POPC   C4A 4509   9.718   5.056   6.561  0.0485 -0.0752 -0.1458
  335POPC   C1B 4510  11.359   4.405   5.997 -0.0868 -0.1133 -0.2645
  335POPC   C2B 4511  11.635   4.485   6.323 -0.3345 -0.1659  0.0798
  335POPC   C3B 4512  11.779   4.479   6.757  0.0027 -0.0276 -0.0430
  335POPC   C4B 4513  11.658   4.449   7.161  0.2660  0.1953 -0.4923
  336POPC   NC3 4514   3.639   2.528   5.315  0.0939 -0.1460  0.0573
  336POPC   PO4 4515   3.601   2.914   5.298 -0.0422 -0.0870  0.2261
  336POPC   GL1 4516   3.764   3.293   5.626 -0.0310 -0.0050 -0.1078
  336POPC   GL2 4517   3.953   3.164   5.862 -0.1012  0.1522  0.1434
  336POPC   C1A 4518   3.540   3.344   6.025  0.0559  0.4220 -0.2240
  336POPC   D2A 4519   3.565   3.593   6.465  0.2446 -0.0656 -0.1349
  336POPC   C3A 4520   3.416   4.070   6.450 -0.2205  0.3910  0.0011
  336POPC   C4A 4521   2.973   4.196   6.304 -0.1510 -0.2490 -0.3644
  336POPC   C1B 4522   4.005   3.223   6.227 -0.0765  0.0244 -0.3214
  336POPC   C2B 4523   4.133   3.310   6.723 -0.1062  0.1077 -0.0204
  336POPC   C3B 4524   4.180   3.488   7.040 -0.0879 -0.3745 -0.0607
  336POPC   C4B 4525   4.138   3.414   7.365 -0.1370  0.1175 -0.2260
  337POPC   NC3 4526   6.672   5.055   4.777  0.0836  0.2910  0.0376
  337POPC   PO4 4527   6.420   4.793   5.151 -0.1057 -0.3121  0.0073
  337POPC   GL1 4528   6.614   4.632   5.506  0.3940 -0.0544 -0.2188
  337POPC   GL2 4529   6.436   4.860   5.684 -0.1553  0.0619 -0.0128
  337POPC   C1A 4530   6.788   4.547   5.858  0.0139  0.2376 -0.1820
  337POPC   D2A 4531   6.944   4.833   6.207  0.1328  0.3577  0.0646
  337POPC   C3A 4532   6.777   5.008   6.505 -0.3247 -0.3704 -0.1767
  337POPC   C4A 4533   6.416   5.100   6.757 -0.0954 -0.0880  0.0002
  337POPC   C1B 4534   6.539   5.226   5.959 -0.0304 -0.0179 -0.1640
  337POPC   C2B 4535   6.409   5.557   6.212  0.0391  0.0297 -0.3159
  337POPC   C3B 4536   5.980   5.800   6.323  0.0466  0.2963 -0.0546
  337POPC   C4B 4537   5.642   5.748   6.530  0.0280 -0.1001 -0.0507
  338W        W 4538   2.776   3.225   2.689  0.1101  0.0079  0.0133
  339W        W 4539   8.301   3.514  12.528 -0.0473 -0.4417 -0.0986
  340W        W 4540   5.478   4.607  10.059 -0.0237 -0.0783  0.0205
  341W        W 4541   9.480   4.149   0.263 -0.4427 -0.0141 -0.2338
  342W        W 4542   9.804   0.382   1.490  0.1009  0.2189 -0.1936
  343W        W 4543   0.633   8.771  12.706  0.3222 -0.1230 -0.3716
  344W        W 4544   9.743   3.898   0.618 -0.2002 -0.0628 -0.0597
  345W        W 4545   0.007   0.963  10.764  0.1310  0.1215  0.0142
  346W        W 4546   6.657   4.944   9.190 -0.0234  0.1512  0.0227
  347W        W 4547   8.171   5.321   1.271  0.2045 -0.1285  0.0618
  348W        W 4548   6.876   4.169   0.128  0.2450 -0.1504  0.1847
  349W        W 4549   5.525   9.477  12.160 -0.0598  0.5713 -0.1966
  350W        W 4550   2.340   3.214  12.036  0.2135  0.1468  0.1830
  351W        W 4551   9.283   4.976   9.908 -0.0641  0.0017  0.4559
  352W        W 4552   7.291   8.765  12.194  0.0596  0.0424 -0.1483
  353W        W 4553   1.289   6.117   1.303 -0.0268 -0.0806  0.3003
  354W        W 4554   0.638   6.569  11.508  0.2978 -0.0701 -0.1528
  355W        W 4555   8.296   2.521  11.916  0.1094 -0.1501  0.0705
  356W        W 4556   9.334   8.070  12.152  0.0327  0.0411  0.0732
  357W        W 4557   0.745   2.232   4.731  0.0674  0.7070 -0.4183
  358W        W 4558   9.595   7.205  10.943 -0.1150  0.1479  0.1010
  359W        W 4559   9.083   7.142   2.167 -0.0967  0.0515 -0.4602
  360W        W 4560   8.279   5.065  12.485 -0.0295 -0.1075 -0.6793
  361W        W 4561   3.083   2.397   4.618 -0.0645  0.0575  0.2687
  362W        W 4562   3.009   7.703  11.483  0.1951 -0.2439  0.0077
  363W        W 4563   3.461   4.512   0.566 -0.2085  0.0581 -0.1541
  364W        W 4564   5.645  10.387   2.412  0.0247  0.2842  0.0982
  365W        W 4565   6.728  10.365   1.665  0.2406 -0.1658  0.0068
  366W        W 4566   6.668   9.326   1.162 -0.1174 -0.2770 -0.0718
  367W        W 4567   2.227   1.663   2.456  0.0682  0.1467  0.0796
  368W        W 4568   1.083   3.574   9.080  0.4211  0.0661 -0.0555
  369W        W 4569   6.809   8.291  12.960  0.1045  0.0331 -0.1685
  370W        W 4570   5.587   0.937  11.041  0.1418 -0.2282 -0.2600
  371W        W 4571   6.464   7.841  13.087  0.1442  0.0143  0.0050
  372W        W 4572   0.659   4.885  10.457 -0.1955 -0.1893  0.3369
  373W        W 4573   5.717   4.848   2.509  0.4061 -0.0212  0.3303
  374W        W 4574   5.634   7.047   1.766 -0.4103 -0.1166 -0.0282
  375W        W 4575   0.743   2.381   2.982 -0.1013 -0.0405  0.1333
  376W        W 4576   2.229   8.367   8.848 -0.2896  0.1485 -0.3222
  377W        W 4577   1.557   5.364   9.749  0.1611  0.0895 -0.2449
  378W        W 4578   9.383   9.580   1.133  0.0725  0.0762 -0.0660
  379W        W 4579   1.748   1.787   1.725  0.0178 -0.1939  0.2353
  380W        W 4580   3.149   6.404   0.295 -0.1889 -0.0963  0.1919
  381W        W 4581   9.800   1.727   4.733 -0.1125 -0.1735 -0.0690
  382W        W 4582   5.821   3.704   0.664  0.1078 -0.1706  0.1429
  383W        W 4583   8.719   9.747  13.394  0.1932  0.1803  0.1480
  384W        W 4584   8.647   5.233   4.578  0.1152 -0.4040  0.2202
  385W        W 4585   3.479   9.900  12.271 -0.1262  0.4900  0.1829
  386W        W 4586   0.892   0.911  13.113 -0.0722  0.0344  0.0445
  387W        W 4587   5.763   3.934   0.146 -0.0725 -0.1247 -0.0291
  388W        W 4588   2.160   7.555  13.485 -0.2213  0.0154  0.1715
  389W        W 4589   0.764   1.023   5.189  0.1272 -0.1323  0.0064
  390W        W 4590   5.158   5.391   0.595  0.2056  0.0084 -0.0476
  391W        W 4591   8.667   0.797  11.382 -0.0120 -0.3567 -0.0337
  392W        W 4592   3.144   5.728   1.989  0.0926 -0.1823  0.0695
  393W        W 4593   0.852   8.563   0.344 -0.1113 -0.4043 -0.1632
  394W        W 4594  10.105   5.777   1.244 -0.0745 -0.0009 -0.0520
  395W        W 4595  10.433   4.602  12.536 -0.3203  0.1677  0.3564
  396W        W 4596  10.214   0.137  10.465 -0.0511  0.1770  0.2083
  397W        W 4597   5.034   4.306   0.718  0.1246  0.3286  0.0183
  398W        W 4598   3.227   4.037   0.345 -0.1339  0.2046  0.0203
  399W        W 4599   7.504   2.402   3.502  0.1369  0.3489 -0.0969
  400W        W 4600   1.139   6.013  10.729  0.2761  0.0133  0.0992
  401W        W 4601   4.318   0.871  13.197 -0.1336 -0.1788 -0.2850
  402W        W 4602   8.595   0.976   1.788  0.3992  0.1273 -0.0739
  403W        W 4603   3.736   6.285   9.044 -0.1230 -0.0452 -0.1093
  404W        W 4604   6.875   1.744   0.319 -0.1616 -0.0637  0.1870
  405W        W 4605   5.878   6.359   2.782 -0.3090 -0.1093 -0.0074
  406W        W 4606   6.278   7.041   3.229 -0.0123  0.3442 -0.1054
  407W        W 4607   0.473  10.069  11.301 -0.1978  0.2728  0.3222
  408W        W 4608   3.974   7.381  13.073 -0.0301 -0.0766  0.0473
  409W        W 4609   8.925   5.704   9.519  0.1725  0.0687 -0.1943
  410W        W 4610   9.549   9.819   0.675  0.1196 -0.0525 -0.0036
  411W        W 4611  10.356   3.058  10.643  0.2739  0.2890  0.0326
  412W        W 4612   6.732   3.486   1.753 -0.0191 -0.1154 -0.0391
  413W        W 4613   9.136   1.974  11.995  0.1330  0.0007  0.0340
  414W        W 4614   3.854   7.069   1.322  0.2204 -0.1607 -0.2506
  415W        W 4615   4.763   0.437  12.040 -0.1843  0.2966  0.1727
  416W        W 4616   3.337   4.415  12.173  0.1483  0.1915 -0.2288
  417W        W 4617   1.960   5.025   1.313  0.0761 -0.1254  0.0513
  418W        W 4618   7.300   4.082  11.785  0.5115 -0.1744 -0.0791
  419W        W 4619   5.067   7.301   2.819 -0.0430 -0.2861 -0.1184
  420W        W 4620   1.530  10.319   4.506 -0.0433  0.0391 -0.2942
  421W        W 4621   9.037   6.332  12.245 -0.2375  0.0912  0.0803
  422W        W 4622   8.669   4.105   0.586  0.0672  0.0996 -0.2346
  423W        W 4623   3.421   2.366   0.766 -0.0903  0.1458  0.0444
  424W        W 4624   1.199   3.148  13.458 -0.0747 -0.0583  0.0439
  425W        W 4625   3.084   3.099   2.310  0.0380  0.1560 -0.0194
  426W        W 4626   0.368   3.778   4.541  0.2078  0.2318  0.0254
  427W        W 4627   9.679   0.683   1.159  0.1730 -0.1266  0.2325
  428W        W 4628   6.051   9.193  11.538  0.0841 -0.0401  0.2685
  429W        W 4629   7.885   2.738   0.577 -0.1274  0.1635  0.0202
  430W        W 4630   0.484   5.195  13.206  0.1690  0.0011 -0.4263
  431W        W 4631   6.163   9.089  10.053 -0.3047 -0.0179 -0.3706
  432W        W 4632   8.816   0.404  10.953  0.2390  0.0751 -0.1936
  433W        W 4633   9.783   3.268   3.359  0.1060 -0.0914 -0.0915
  434W        W 4634   2.275   3.486  11.605 -0.2388 -0.0290 -0.1462
  435W        W 4635   5.203   7.780   9.662 -0.2292  0.2332  0.1698
  436W        W 4636   5.065   3.227  13.264  0.4210 -0.2853  0.0751
  437W        W 4637   8.934   3.211  13.006  0.1146 -0.1847  0.0224
  438W        W 4638   6.280   2.713   1.706  0.4163 -0.1186 -0.4647
  439W        W 4639   2.582  10.275   2.252 -0.1151  0.0439 -0.1006
  440W        W 4640   0.295   9.599   4.142  0.0129  0.2734  0.1721
  441W        W 4641   5.495   5.378   3.090  0.0567 -0.4501  0.4890
  442W        W 4642   4.614   0.009  12.319 -0.4965  0.0234 -0.0228
  443W        W 4643   7.733   8.996   0.950  0.2474  0.1857 -0.1559
  444W        W 4644   0.322   8.847  12.130 -0.2903 -0.0239 -0.2499
  445W        W 4645   0.883  10.000  12.794  0.2716 -0.0939  0.4870
  446W        W 4646   0.193   9.115   3.313  0.1369 -0.1043  0.4314
  447W        W 4647   1.887   4.956  10.242  0.2774 -0.0605 -0.0553
  448W        W 4648   1.042   8.909   1.640  0.3269  0.0976  0.3021
  449W        W 4649   2.222  10.441  13.262  0.2802 -0.1190 -0.1042
  450W        W 4650  10.184   6.165  12.568 -0.0655 -0.1078 -0.0875
  451W        W 4651   0.984   2.256  13.019 -0.1907 -0.0477  0.1108
  452W        W 4652   0.807   0.360   3.707 -0.2058 -0.0797 -0.0998
  453W        W 4653   1.893   1.493   0.172  0.3999 -0.2478 -0.1205
  454W        W 4654   1.570   6.233   9.554  0.1787  0.2376  0.0159
  455W        W 4655   5.197   9.535   3.762 -0.0860  0.2443  0.1760
  456W        W 4656   2.680   6.892   8.711 -0.2994 -0.0534 -0.3091
  457W        W 4657   7.623   4.371  11.346 -0.0943 -0.4154  0.2092
  458W        W 4658   4.115   9.951   0.925 -0.1874 -0.2188 -0.2621
  459W        W 4659   5.295   9.889   1.629  0.1662  0.4062 -0.0621
  460W        W 4660   5.160   5.575   3.549  0.2704 -0.1647 -0.0944
  461W        W 4661  10.045   7.893   1.633 -0.2461 -0.0188 -0.0195
  462W        W 4662  10.033   7.783  11.442 -0.1027 -0.1499 -0.2194
  463W        W 4663   2.221   7.202   9.430  0.4309  0.1943 -0.0629
  464W        W 4664   9.225   8.516   9.543  0.0172 -0.1926  0.0889
  465W        W 4665  10.291   5.047  12.405 -0.0930 -0.0607  0.0615
  466W        W 4666   4.494  10.205  13.491 -0.0320  0.1177 -0.0132
  467W        W 4667   3.169   8.500   3.090  0.2370  0.2622 -0.0498
  468W        W 4668   7.837   5.822   9.629 -0.3040  0.1519  0.1370
  469W        W 4669   4.351   6.990   4.150 -0.1043  0.0253 -0.1527
  470W        W 4670   1.668   1.960   3.155  0.0395 -0.3203 -0.1718
  471W        W 4671   6.645   6.683   3.092  0.0677  0.2361 -0.1799
  472W        W 4672   2.139  10.334   3.738 -0.2063  0.1345  0.2021
  473W        W 4673   8.309   8.763   9.474 -0.1517 -0.0948  0.2671
  474W        W 4674   4.333   8.282   1.005  0.1225  0.1105 -0.3823
  475W        W 4675   4.263   9.991  10.814 -0.1080 -0.2434  0.0453
  476W        W 4676   1.844   1.941   3.637  0.1645  0.0198  0.3093
  477W        W 4677   8.037   7.239  12.298 -0.0852  0.4512  0.2732
  478W        W 4678   4.374   0.860   0.952  0.1179  0.0412 -0.3118
  479W        W 4679   3.460   0.808   4.693 -0.3132  0.1044  0.1347
  480W        W 4680   4.199   2.102   0.374  0.0037  0.2756  0.4519
  481W        W 4681   1.996   4.891   9.263 -0.0855  0.2650 -0.0484
  482W        W 4682   3.209   1.851   3.066  0.0902 -0.0732 -0.0978
  483W        W 4683   8.669   4.285   9.200 -0.0155 -0.3457 -0.0024
  484W        W 4684   5.000   7.446  12.326 -0.0569  0.1796  0.1369
  485W        W 4685   9.971   6.028   0.354 -0.2278 -0.2352 -0.0672
  486W        W 4686   5.822   5.229  10.198 -0.1457  0.3771 -0.0968
  487W        W 4687   5.967   0.573  12.909  0.2616  0.1994 -0.1731
  488W        W 4688  10.443   7.258   3.760 -0.0058  0.0689  0.0736
  489W        W 4689   1.710   6.877   1.770 -0.1124 -0.4234  0.0406
  490W        W 4690   5.469   5.298  12.078 -0.0404 -0.1402 -0.2392
  491W        W 4691   1.152   9.493  11.999 -0.1135  0.1355  0.0262
  492W        W 4692   8.368   9.842  11.000  0.2016 -0.0344 -0.1136
  493W        W 4693   7.078  10.026  10.968 -0.2393  0.1281  0.1696
  494W        W 4694   4.301   7.562  12.053  0.0545 -0.0632  0.0311
  495W        W 4695  10.030   2.271   3.608  0.1835  0.2762 -0.0784
  496W        W 4696   7.572   6.278   9.135 -0.2646  0.3067 -0.2034
  497W        W 4697   5.101   9.099   5.183  0.0778 -0.0053 -0.1122
  498W        W 4698   4.927   7.090  10.355  0.0033  0.3419  0.0052
  499W        W 4699   2.350   8.448  13.310 -0.3407 -0.0731 -0.1295
  500W        W 4700   5.536   7.393  12.077 -0.1788 -0.1421 -0.1027
  501W        W 4701   0.252   7.513  13.281  0.0123  0.3309 -0.1274
  502W        W 4702   1.442   5.099   4.841  0.1208  0.1630  0.0254
  503W        W 4703   8.694   6.951  10.384 -0.2727 -0.0666 -0.0334
  504W        W 4704   5.725   2.526   2.963 -0.3147  0.0669 -0.0340
  505W        W 4705   6.882  10.039  12.845 -0.0005 -0.1845 -0.1347
  506W        W 4706   9.907   0.215   2.015  0.0753  0.1075 -0.0461
  507W        W 4707   5.845   4.977  12.791 -0.0703  0.1139 -0.0694
  508W        W 4708   8.880   8.500  12.078 -0.1510 -0.1205  0.4078
  509W        W 4709   2.891   7.548  13.499 -0.2376 -0.1773 -0.0129
  510W        W 4710   9.713   9.858  11.378  0.0664 -0.2683  0.2378
  511W        W 4711   8.475  10.248   2.068 -0.4880 -0.1761 -0.3518
  512W        W 4712   7.877   1.194  10.492 -0.0087  0.0943 -0.0256
  513W        W 4713   1.519   1.349   0.583 -0.0094 -0.1816 -0.1383
  514W        W 4714   1.007   1.245   4.674  0.2446 -0.1458 -0.1880
  515W        W 4715   4.974   1.975  12.886  0.0096  0.0687 -0.1112
  516W        W 4716   2.477   6.311   3.573 -0.1957 -0.3198  0.0452
  517W        W 4717   8.811   9.051   3.127  0.0537 -0.2039 -0.1102
  518W        W 4718   4.190   5.812   0.637  0.0702  0.2244 -0.0259
  519W        W 4719   6.444  10.435  10.517  0.0563  0.1847 -0.0213
  520W        W 4720   7.414   2.882   3.692 -0.0912 -0.3221  0.1745
  521W        W 4721   1.886   0.609  10.699 -0.1934  0.0182  0.2491
  522W        W 4722   6.860   0.447  13.063  0.2154  0.0739  0.1033
  523W        W 4723   6.946   6.542   0.327  0.0497 -0.0548  0.2085
  524W        W 4724   7.977   1.661  10.796 -0.0834 -0.2305  0.1538
  525W        W 4725   3.194   0.408   2.539 -0.1792 -0.2168  0.1797
  526W        W 4726   6.965   4.052  10.492  0.0909  0.1148  0.0490
  527W        W 4727   4.095   4.228   2.861 -0.0181  0.2086  0.1405
  528W        W 4728   1.405   7.969   3.749 -0.1251  0.1732  0.4066
  529W        W 4729   6.012   6.796   3.571  0.2575 -0.2896 -0.3009
  530W        W 4730   6.769   2.860   2.914 -0.1389  0.0356 -0.3396
  531W        W 4731   4.588   2.867   1.674 -0.1885  0.0741 -0.0585
  532W        W 4732   0.327   1.693  10.148 -0.0203 -0.0576  0.0641
  533W        W 4733   6.190   1.679   9.167  0.0555 -0.2627  0.0853
  534W        W 4734   2.556   8.674   4.518  0.4452  0.0464 -0.2861
  535W        W 4735   1.288   9.654   0.101  0.1649  0.0581 -0.3340
  536W        W 4736   2.079   0.189   1.497 -0.3198 -0.0876 -0.1465
  537W        W 4737   1.425   8.790  10.625 -0.0182  0.2966 -0.3873
  538W        W 4738   1.695   6.435   0.992  0.1860  0.1124 -0.2119
  539W        W 4739   0.293   6.910   0.575  0.1704 -0.1827  0.0807
  540W        W 4740   9.480   4.413  11.161  0.0542 -0.1692 -0.0358
  541W        W 4741   5.937   9.087  12.028 -0.2447 -0.1228 -0.3684
  542W        W 4742   9.280   6.221  12.856  0.3237  0.0312 -0.4017
  543W        W 4743   8.388   2.857   3.342  0.2708  0.0695  0.0533
  544W        W 4744  10.068   4.535   1.845  0.2078  0.0712  0.0450
  545W        W 4745   2.914   3.676   1.550 -0.5047 -0.1496  0.0481
  546W        W 4746   0.840   8.805   2.222  0.0848  0.1922  0.1000
  547W        W 4747   7.743   2.793   9.723  0.0477 -0.0263  0.1708
  548W        W 4748   7.640   9.657   9.747  0.2242  0.1686  0.0685
  549W        W 4749  10.319   1.819   2.122  0.0517 -0.2880  0.2566
  550W        W 4750   9.595   4.228   3.595  0.1149 -0.3035 -0.3762
  551W        W 4751   8.800   7.859  11.655  0.2825  0.0212  0.2412
  552W        W 4752   9.736   9.493   2.901 -0.2925 -0.1258 -0.1124
  553W        W 4753   6.827  10.238  11.467  0.0174  0.2148 -0.2372
  554W        W 4754   9.370   9.052  11.557 -0.1287 -0.1557 -0.2242
  555W        W 4755   4.092   1.679  11.696  0.2376 -0.1445  0.0112
  556W        W 4756   7.314  10.251  11.364 -0.0992 -0.0896  0.1448
  557W        W 4757   5.767   1.567  11.635  0.0381  0.0837  0.0030
  558W        W 4758   0.144   0.430  10.720  0.0347  0.0166  0.3016
  559W        W 4759   4.296   5.026   3.550  0.2624 -0.1758  0.0195
  560W        W 4760   6.894   5.655   2.142  0.0707  0.0059  0.0724
  561W        W 4761   3.413   0.197   9.596  0.1092 -0.1473 -0.1045
  562W        W 4762  10.319   9.683  12.871  0.2041  0.2360  0.2585
  563W        W 4763   2.037   0.221   0.991  0.2355 -0.3012  0.0244
  564W        W 4764   5.941   0.087  12.837 -0.2192  0.0697 -0.0180
  565W        W 4765   9.758   4.933   0.228 -0.0845  0.0260  0.0249
  566W        W 4766   6.726  10.189   0.429  0.0354  0.0788 -0.3511
  567W        W 4767   9.589   0.073   3.038 -0.1199  0.1923  0.0762
  568W        W 4768   9.002   3.245   4.057  0.0745  0.1053  0.2892
  569W        W 4769   4.526   2.625   2.461 -0.2645 -0.0124 -0.3050
  570W        W 4770   7.323   3.172   4.709 -0.1119 -0.0854 -0.2140
  571W        W 4771   8.120   5.948   0.478 -0.2368  0.4718  0.0981
  572W        W 4772   0.938   7.955   9.833 -0.1096 -0.0853  0.0248
  573W        W 4773   9.108   4.740  11.237  0.0579  0.3332 -0.3909
  574W        W 4774   5.930   6.378  12.815  0.0844  0.2631 -0.1539
  575W        W 4775   8.793   5.841   1.469 -0.4356 -0.2532 -0.0654
  576W        W 4776   5.997   1.869   4.803 -0.0426 -0.0615  0.2555
  577W        W 4777   7.698   7.163  10.810  0.2393  0.0266 -0.0084
  578W        W 4778   1.895   0.067   2.758 -0.3843 -0.2906 -0.0860
  579W        W 4779   6.368   7.715   1.864  0.1507  0.2518  0.1431
  580W        W 4780   1.176   1.386   5.135  0.0778  0.1865 -0.1488
  581W        W 4781   3.603  10.401  12.079 -0.0959 -0.0736 -0.2386
  582W        W 4782   8.962   2.374   3.983 -0.2515  0.1076  0.1111
  583W        W 4783   1.393   6.553   2.005  0.0100 -0.0806  0.0822
  584W        W 4784   3.866   9.666   4.793  0.0901  0.0084  0.2485
  585W        W 4785   0.450   3.073   9.771 -0.0994  0.2189 -0.0277
  586W        W 4786   7.181   8.056  11.665  0.1810 -0.2614  0.1079
  587W        W 4787   5.307  10.376   3.336  0.0202 -0.0698 -0.1598
  588W        W 4788   1.272   0.656  11.983 -0.0035 -0.1742  0.2500
  589W        W 4789   9.243   9.330   1.565 -0.0463  0.1161 -0.0458
  590W        W 4790   4.866   4.830   0.657  0.2226 -0.0272  0.1266
  591W        W 4791   6.882   9.146  10.746  0.1165 -0.1525  0.0741
  592W        W 4792   0.251   0.742  11.619 -0.1609 -0.2793  0.0737
  593W        W 4793   2.182   7.632   1.757 -0.0110  0.0652 -0.0369
  594W        W 4794   0.214   2.887   3.450 -0.2330  0.1205  0.0338
  595W        W 4795   8.450   1.297  11.292 -0.0968  0.1666 -0.0762
  596W        W 4796   7.065   4.924  12.544  0.1634  0.0259 -0.1211
  597W        W 4797   4.591   1.054   5.402 -0.3318 -0.1090 -0.0223
  598W        W 4798   8.381   1.017   0.424 -0.0246 -0.3709  0.1604
  599W        W 4799   0.796   3.222  11.799  0.1416 -0.1478 -0.2394
  600W        W 4800   8.075   0.652  11.238  0.0680 -0.2223  0.2247
  601W        W 4801   4.509   5.019   9.377 -0.2349 -0.0192 -0.1159
  602W        W 4802   6.471   0.171   3.102 -0.0731  0.0434  0.1056
  603W        W 4803   2.407   8.928   9.869  0.0271 -0.3644 -0.2414
  604W        W 4804   4.024   2.903   1.603 -0.2015 -0.0278  0.0724
  605W        W 4805   9.083   7.099   2.945  0.1123  0.0404  0.0560
  606W        W 4806  10.341   4.582   9.281  0.1259  0.0799  0.0050
  607W        W 4807   8.176   0.519   9.258  0.3396  0.1502 -0.2254
  608W        W 4808   7.227   6.538  12.320  0.0315 -0.0115  0.1051
  609W        W 4809   3.974   8.813   4.685  0.0761 -0.1015  0.1102
  610W        W 4810   1.119   8.793   3.477 -0.0377  0.2306  0.1893
  611W        W 4811   2.854   8.005   3.844  0.1526  0.0725 -0.0905
  612W        W 4812   3.642   7.724   4.211  0.1272  0.2652 -0.0301
  613W        W 4813   2.105   5.992   2.874 -0.0079 -0.2255  0.2825
  614W        W 4814   0.304   0.160  13.164 -0.1048 -0.1553 -0.4126
  615W        W 4815   8.226   3.402  11.954  0.0776 -0.1257 -0.1847
  616W        W 4816   1.268   8.759   0.128  0.2538  0.2247  0.2303
  617W        W 4817   4.081   2.182   9.347 -0.0949 -0.2912  0.0239
  618W        W 4818   4.651   0.371   4.103  0.0708  0.0791  0.1672
  619W        W 4819   1.906   6.931   0.747 -0.2128  0.0287 -0.2556
  620W        W 4820   9.234   1.355   3.913  0.3101 -0.1922  0.2630
  621W        W 4821   7.111   8.609  12.629  0.0899 -0.1216  0.0835
  622W        W 4822   5.366   6.879   0.421  0.0145  0.1801 -0.0239
  623W        W 4823   4.683   3.103   9.806 -0.0345  0.3345 -0.0190
  624W        W 4824   8.897   0.100   1.365  0.2521  0.2554  0.0326
  625W        W 4825   8.972   8.006   0.791  0.1735 -0.1202  0.2186
  626W        W 4826  10.313   2.092   4.793 -0.0543  0.1368 -0.1209
  627W        W 4827  10.113   7.913   2.601  0.2108 -0.0071 -0.0917
  628W        W 4828   3.365   9.755  12.742 -0.0100 -0.0396  0.2734
  629W        W 4829   1.199   0.417   2.133 -0.1146 -0.3246  0.1717
  630W        W 4830   3.262   0.885   1.779  0.0894 -0.2530 -0.1003
  631W        W 4831   9.539   5.565  12.601 -0.0812  0.0707 -0.0368
  632W        W 4832   1.789   7.978  11.131  0.2432  0.1362 -0.0144
  633W        W 4833   2.104   1.034   2.111  0.0301 -0.1963 -0.1175
  634W        W 4834   3.254   4.052  13.343 -0.1028 -0.0796 -0.0256
  635W        W 4835   8.914   1.283   9.102 -0.0376 -0.0865 -0.4691
  636W        W 4836  10.202   7.460  10.117  0.4324 -0.0668 -0.0946
  637W        W 4837   7.032   1.273   0.612  0.0706 -0.0331 -0.1754
  638W        W 4838   6.143   6.620   8.601 -0.3937  0.1109 -0.1132
  639W        W 4839   3.422   5.098   2.816 -0.1427 -0.1144 -0.2636
  640W        W 4840  10.031   1.476   2.838  0.2286 -0.1385  0.2625
  641W        W 4841   2.281   0.100  10.999 -0.1835 -0.0175  0.3385
  642W        W 4842   4.582   0.394   0.835  0.0700  0.0679  0.1373
  643W        W 4843   3.843   2.124   9.885  0.1033  0.2175  0.0242
  644W        W 4844   3.291   5.329  13.344  0.0862  0.2459 -0.2095
  645W        W 4845   6.485   4.526   4.161  0.3987 -0.0092  0.1965
  646W        W 4846   4.964   8.446   8.939 -0.2350 -0.1951  0.0983
  647W        W 4847   7.529   8.707  10.134 -0.5584  0.5096 -0.3323
  648W        W 4848   5.918   3.955   2.457 -0.0290  0.0668  0.0101
  649W        W 4849   8.633   4.192  11.524 -0.2224 -0.1437  0.2055
  650W        W 4850   1.158   3.949  12.839 -0.0463 -0.1261 -0.3330
  651W        W 4851   8.608  10.138  11.465  0.1390 -0.0796  0.0993
  652W        W 4852   8.352   4.416   9.553 -0.0255 -0.2201  0.0667
  653W        W 4853   5.425   4.559  12.334  0.2617  0.1233 -0.0040
  654W        W 4854   4.470   3.804   4.623  0.0254  0.1771  0.1846
  655W        W 4855   2.889   2.395  12.277 -0.0618  0.0264 -0.2038
  656W        W 4856   1.632   7.440  10.594 -0.4847  0.0194 -0.0407
  657W        W 4857   2.798   4.596  12.422  0.0497 -0.2071 -0.0243
  658W        W 4858   4.114   9.578   0.558  0.0570 -0.0334 -0.1107
  659W        W 4859  10.264   2.451   9.602  0.0236 -0.1584 -0.0496
  660W        W 4860   4.790   6.206   1.445 -0.0895 -0.0538  0.3771
  661W        W 4861   2.362   9.495   1.652 -0.1818  0.0346  0.1115
  662W        W 4862   3.766   1.022   9.915 -0.0955 -0.0464  0.0089
  663W        W 4863   8.232   0.324   2.378  0.2823 -0.0740 -0.0869
  664W        W 4864   4.377   7.948  11.658  0.3207  0.1223  0.4391
  665W        W 4865   5.808   5.256  11.310 -0.1219  0.0272  0.0381
  666W        W 4866   9.085   3.102  11.728 -0.0859  0.1353  0.0462
  667W        W 4867   4.635   5.935   9.163 -0.0121  0.2124 -0.1370
  668W        W 4868   8.929  10.289  13.142 -0.0632 -0.0306 -0.1559
  669W        W 4869   3.421   9.401  11.385 -0.0450 -0.1996  0.3870
  670W        W 4870   9.182   6.432   2.411  0.0820  0.1105  0.2067
  671W        W 4871   9.085   3.174   9.358  0.1761 -0.0427 -0.1054
  672W        W 4872   0.372   1.115   1.191 -0.1183 -0.0974  0.2545
  673W        W 4873   6.302   8.346  12.859 -0.2169 -0.2251  0.3551
  674W        W 4874   1.260   0.571   3.453  0.1250  0.0474  0.1950
  675W        W 4875   2.626   7.526   1.355  0.1095  0.2133 -0.0098
  676W        W 4876   3.073   4.513  13.517  0.1463  0.3396 -0.0376
  677W        W 4877   9.920   7.088   8.806 -0.0347 -0.0955 -0.0919
  678W        W 4878   2.237   5.752  10.280  0.1708  0.2838 -0.0279
  679W        W 4879   1.870   4.591   1.583 -0.0946 -0.1578  0.0418
  680W        W 4880   3.684   4.033  11.246  0.1420 -0.1306 -0.1133
  681W        W 4881   9.171   0.372   2.325 -0.1354 -0.0701 -0.2265
  682W        W 4882   7.649   6.955   3.366 -0.1301  0.0024  0.1070
  683W        W 4883   2.116   4.965  12.647  0.2549 -0.0739  0.1574
  684W        W 4884   3.622   6.951  10.931 -0.1358  0.0899  0.1497
  685W        W 4885  10.419   3.484   4.335 -0.3554  0.4356 -0.0997
  686W        W 4886   3.598   5.867   2.177  0.0265 -0.0038 -0.3322
  687W        W 4887   0.090   1.061  12.578  0.2122  0.3789 -0.3345
  688W        W 4888   2.460   4.635  11.511  0.0596 -0.2627  0.2676
  689W        W 4889   6.378   3.521   5.130  0.1850  0.2392  0.1346
  690W        W 4890   4.980   2.463   2.293  0.0281 -0.4905  0.2701
  691W        W 4891   8.490   2.839   1.261 -0.0102 -0.1763  0.1552
  692W        W 4892   8.207   5.809   1.423 -0.4101 -0.0264 -0.0432
  693W        W 4893   5.459   6.579   0.830 -0.1316 -0.2918 -0.0684
  694W        W 4894   3.342   8.473   5.206 -0.1617 -0.0216  0.3277
  695W        W 4895   2.488   5.377   0.452  0.0609 -0.0402 -0.0060
  696W        W 4896   5.632   8.417   1.777 -0.0321  0.0866  0.0222
  697W        W 4897   3.616   3.642  12.056  0.3004  0.0380  0.1048
  698W        W 4898   9.895   3.212  10.888 -0.1114 -0.0087 -0.0204
  699W        W 4899   4.251   2.328  13.112  0.1441 -0.2469 -0.0114
  700W        W 4900   5.321   2.440  13.140  0.2518  0.2225 -0.0860
  701W        W 4901   6.538   2.498   0.330  0.0979  0.3840  0.0445
  702W        W 4902   1.394  10.144  12.421 -0.1139  0.1534 -0.0342
  703W        W 4903   6.545   2.857   3.534 -0.1402 -0.1496  0.1525
  704W        W 4904   4.941   6.405  11.758  0.3267 -0.2635 -0.2803
  705W        W 4905   1.174   1.731  11.183 -0.0773  0.2253 -0.0437
  706W        W 4906   8.365   8.958  11.267  0.2325 -0.2613  0.1327
  707W        W 4907   0.820   4.466  13.511  0.1086  0.0089  0.2337
  708W        W 4908   0.151   3.850   4.029  0.0002  0.0053 -0.0384
  709W        W 4909   0.005   4.997   9.668 -0.0685  0.0270  0.2048
  710W        W 4910   4.773   8.880  10.988 -0.0460 -0.1258 -0.0279
  711W        W 4911   4.427   1.300   0.693 -0.0796 -0.3446  0.0407
  712W        W 4912   1.660   1.984  10.697  0.0392 -0.1285 -0.1076
  713W        W 4913   1.219   8.676   0.665 -0.0257 -0.1463  0.0520
  714W        W 4914   2.857   7.459   3.988  0.1304 -0.1612  0.0105
  715W        W 4915   2.893   1.170  13.365 -0.1450  0.2433  0.0066
  716W        W 4916   8.331   7.744  11.682 -0.0667  0.3616 -0.1072
  717W        W 4917   5.313   1.546  12.759 -0.2407  0.0812 -0.1161
  718W        W 4918   3.252   3.943   8.368  0.1386  0.1412 -0.4151
  719W        W 4919   6.702   6.054  10.143 -0.4277 -0.0016 -0.0676
  720W        W 4920   3.778   0.084   2.259  0.2277 -0.0595  0.0218
  721W        W 4921   9.989   2.142  10.561  0.2319 -0.1093 -0.2250
  722W        W 4922   3.074  10.058   4.007  0.0973 -0.1528  0.1227
  723W        W 4923   5.837   3.187  10.833  0.3624 -0.2516  0.2360
  724W        W 4924  10.237   2.547   4.553 -0.3202  0.1631 -0.3304
  725W        W 4925   1.831   8.280  13.033  0.1722 -0.2808  0.2749
  726W        W 4926   5.441   3.160   9.264  0.1918  0.2786 -0.0330
  727W        W 4927   4.043   3.732   3.870 -0.1114 -0.0773 -0.1881
  728W        W 4928   5.201   4.728  11.459  0.2853  0.0353  0.2551
  729W        W 4929   3.177   0.831   3.708  0.2820 -0.1938 -0.0133
  730W        W 4930   6.158   6.913  11.088 -0.0727  0.0146  0.2562
  731W        W 4931   3.300   7.725  10.858 -0.2001  0.3213  0.0178
  732W        W 4932   5.028   4.529   1.168 -0.2397  0.2072  0.1944
  733W        W 4933   3.676   4.085  12.329 -0.2792 -0.2606  0.0427
  734W        W 4934   7.850   1.496   3.599  0.0758 -0.0957  0.1009
  735W        W 4935   5.715   2.794   0.827  0.5522 -0.1522 -0.0324
  736W        W 4936   4.373   3.727  12.756 -0.1087  0.1212  0.1354
  737W        W 4937   3.458   0.451   2.113  0.2710  0.0062 -0.1907
  738W        W 4938   3.468   1.867  11.729 -0.4045  0.2385 -0.2928
  739W        W 4939   3.271   9.048  10.238 -0.0216  0.6541 -0.2477
  740W        W 4940   7.029   9.592  12.869  0.1842  0.2897 -0.3690
  741W        W 4941   9.652   8.639  13.406 -0.2317  0.0332 -0.0314
  742W        W 4942   9.796   6.636   1.392  0.1052  0.1407 -0.0466
  743W        W 4943   3.108   9.609   2.414  0.4387  0.1332 -0.0452
  744W        W 4944   0.014   4.866   1.456 -0.1424  0.2030  0.1359
  745W        W 4945   9.392   6.924  11.297  0.1721  0.0383  0.1063
  746W        W 4946  10.347   7.265   9.161  0.3976 -0.0801  0.1094
  747W        W 4947   7.068   0.890   1.580  0.0088  0.1279 -0.1279
  748W        W 4948   3.756   8.315  11.567 -0.0079  0.1907  0.0349
  749W        W 4949   2.503   7.792  11.728 -0.2161 -0.2748  0.1241
  750W        W 4950   4.896   4.666  10.196  0.1907  0.0401 -0.1172
  751W        W 4951   8.973   8.832   0.396  0.0735 -0.2103 -0.1806
  752W        W 4952   3.342   7.597  10.345 -0.0051  0.1743  0.0971
  753W        W 4953   1.969   5.411   9.352 -0.0335 -0.0748 -0.2114
  754W        W 4954   2.980   6.246  11.019  0.0815 -0.1945 -0.0000
  755W        W 4955   8.357   9.525   3.045  0.1457  0.0250 -0.1781
  756W        W 4956   5.453   5.476   9.345  0.1192 -0.1336 -0.0415
  757W        W 4957   6.941   8.005   9.696  0.3865 -0.2985 -0.1428
  758W        W 4958   5.949   4.410   2.678  0.1693  0.2210  0.5999
  759W        W 4959   8.809   3.048  11.186  0.2932  0.0274  0.0684
  760W        W 4960   0.280   2.235  13.461  0.0349 -0.1327 -0.0340
  761W        W 4961   0.637   9.616   1.723 -0.0941 -0.3241  0.2199
  762W        W 4962   1.310   2.116   3.946 -0.0094  0.3011  0.0465
  763W        W 4963   8.663   1.309   1.185  0.0717  0.1471 -0.0567
  764W        W 4964   7.252  10.166   0.615  0.2405 -0.3675  0.1753
  765W        W 4965   1.004   9.965  11.489 -0.0972 -0.0875 -0.2175
  766W        W 4966   2.956  10.406   1.346  0.0010  0.1786  0.2322
  767W        W 4967   0.126   2.206   9.969  0.1380  0.0069 -0.1130
  768W        W 4968   3.201   2.323   5.432 -0.1665  0.2156  0.1422
  769W        W 4969   5.275   2.212  11.269  0.0208  0.2740  0.0095
  770W        W 4970   5.030   4.673   2.963 -0.0557 -0.2587 -0.0647
  771W        W 4971   0.572   0.078   4.561  0.4094 -0.4470 -0.0016
  772W        W 4972   1.291  10.204   9.605 -0.1243  0.0782 -0.3001
  773W        W 4973   8.454   6.477  12.746  0.1629 -0.0763  0.0536
  774W        W 4974   9.011   2.880   0.254  0.0289  0.1412 -0.1765
  775W        W 4975   5.027   8.426   0.424  0.0024 -0.0990  0.0482
  776W        W 4976   9.888   8.341   2.469  0.5421  0.2236  0.0566
  777W        W 4977   4.646   9.642  11.757 -0.2304 -0.0066 -0.4131
  778W        W 4978   8.041   8.547  11.312  0.3991 -0.0306  0.2256
  779W        W 4979   9.985   2.002  12.957 -0.3675  0.0425  0.2447
  780W        W 4980   5.140   7.720   3.148 -0.1636  0.3594  0.0506
  781W        W 4981   4.648   5.448   9.554  0.2772 -0.0141  0.0312
  782W        W 4982   5.168   9.230  12.765 -0.2785  0.0299  0.1415
  783W        W 4983   6.524   1.252   3.940 -0.3275  0.0707 -0.1737
  784W        W 4984   9.208   4.408   9.279 -0.1346  0.2887 -0.2530
  785W        W 4985   9.854  10.124  12.285  0.0924  0.0458  0.1897
  786W        W 4986   6.645   1.851  13.215  0.2835 -0.3229  0.0793
  787W        W 4987   0.148   5.887   1.520 -0.2230 -0.1813 -0.1744
  788W        W 4988   6.305  10.351   4.228  0.0790 -0.1229  0.1879
  789W        W 4989   3.661   5.026   2.421  0.1883  0.0741 -0.0760
  790W        W 4990   3.727  10.382   9.337 -0.1876  0.0923  0.0255
  791W        W 4991   2.086   7.477   4.224  0.0660  0.1792 -0.0959
  792W        W 4992   1.346   7.810   0.690 -0.2213  0.0296  0.0945
  793W        W 4993   2.523   6.693  12.320  0.0635 -0.0372 -0.3648
  794W        W 4994   5.414   0.768   0.465  0.0023  0.1234 -0.2891
  795W        W 4995   3.704   8.203  10.341  0.1190  0.0628 -0.0371
  796W        W 4996   8.180   2.416   4.463  0.3215  0.0496 -0.0569
  797W        W 4997   3.420   1.258   4.989  0.4326  0.0879 -0.1518
  798W        W 4998   3.968   8.313   1.360  0.1456 -0.1297  0.3340
  799W        W 4999   0.733   5.650  13.199  0.1222 -0.1874  0.4115
  800W        W 5000   0.100   8.551   4.955 -0.2102 -0.1941 -0.0668
  801W        W 5001   8.964   6.103  10.435  0.3194  0.2277 -0.0321
  802W        W 5002   9.600   1.510   2.397  0.1608  0.1117 -0.0021
  803W        W 5003   9.960   1.679   0.250  0.3578 -0.0093  0.0272
  804W        W 5004   8.498   6.638   0.264  0.0112 -0.0712  0.1022
  805W        W 5005  10.042   5.314   2.416  0.1464  0.2815 -0.1377
  806W        W 5006   5.616   2.192  10.220  0.0216 -0.1233 -0.0866
  807W        W 5007   5.488   8.594   0.125  0.1820 -0.0489 -0.0100
  808W        W 5008   5.442   5.090  10.986  0.1951 -0.2349 -0.2591
  809W        W 5009   0.286   7.146  10.709 -0.0311  0.0446 -0.2106
  810W        W 5010   1.153   1.539   9.394 -0.1170 -0.1937  0.0632
  811W        W 5011   7.547   0.444  11.776  0.1819  0.1204 -0.2136
  812W        W 5012   4.535   4.124   1.285  0.0560 -0.1438 -0.0328
  813W        W 5013   3.076   8.900  12.492 -0.0916 -0.0317  0.1691
  814W        W 5014   0.178   2.132  10.622 -0.1920  0.3085 -0.2876
  815W        W 5015   5.906   3.031   2.970 -0.4060 -0.1783 -0.1426
  816W        W 5016   1.059   0.321  12.482  0.0913  0.0647 -0.2582
  817W        W 5017   2.559   4.740   4.507  0.1814 -0.1751 -0.0378
  818W        W 5018   1.529   5.531  13.008  0.2538  0.2626 -0.2271
  819W        W 5019  10.425   6.739   5.367 -0.3895 -0.0318 -0.0701
  820W        W 5020   6.948   8.998   1.405 -0.0924  0.0833 -0.0625
  821W        W 5021   5.999   8.527   3.765 -0.0836 -0.1393 -0.1748
  822W        W 5022   1.012   3.092  10.505 -0.1462  0.0810 -0.1473
  823W        W 5023   4.602   5.334   1.438  0.0640  0.1442  0.0764
  824W        W 5024   9.079   1.935   3.719 -0.0222 -0.2776 -0.1253
  825W        W 5025   0.926   5.093   1.225  0.1621 -0.1041 -0.0845
  826W        W 5026   9.052   1.809   9.091  0.2648  0.2409  0.0832
  827W        W 5027   9.269   2.174   2.914 -0.0467  0.0405  0.1876
  828W        W 5028   4.890   0.334  12.573  0.1958 -0.0932 -0.0845
  829W        W 5029   3.894   4.905  13.216 -0.0447  0.0681 -0.2885
  830W        W 5030   0.831   5.974   1.104 -0.1185  0.0736 -0.2768
  831W        W 5031   1.504   0.116   4.926  0.2244  0.2520 -0.0690
  832W        W 5032   2.891   1.956   4.821 -0.1084  0.0062  0.3170
  833W        W 5033   0.844   7.471  13.008  0.1412 -0.3304  0.0947
  834W        W 5034   3.784   4.692   3.756 -0.0516 -0.2667  0.2068
  835W        W 5035   9.269   2.716   9.388 -0.1754  0.0825  0.2145
  836W        W 5036   1.594   1.081  10.216  0.1132 -0.1255 -0.0345
  837W        W 5037   2.901   6.365   1.275 -0.0376 -0.4008 -0.1243
  838W        W 5038   9.196   2.379   9.808  0.0432  0.0425  0.0911
  839W        W 5039   0.337   5.517  11.069 -0.0845 -0.0591 -0.3545
  840W        W 5040   0.925   9.454   0.715  0.2699 -0.2798  0.0111
  841W        W 5041   5.204   0.379   0.052  0.0844  0.2211  0.1238
  842W        W 5042   9.241   8.606  11.337 -0.0881 -0.1466 -0.3254
  843W        W 5043   9.477   9.880  12.067  0.0828 -0.1484  0.1145
  844W        W 5044   5.650   6.546  10.027  0.1732  0.0850  0.3222
  845W        W 5045   2.195   2.965   1.331 -0.1205  0.0999 -0.0552
  846W        W 5046   0.036   7.678  11.139 -0.2413  0.0298  0.4225
  847W        W 5047   8.304   8.090   9.669  0.1019 -0.0077  0.4157
  848W        W 5048   8.734   6.741   3.222 -0.2899  0.0482  0.1775
  849W        W 5049   6.518   0.590  11.981 -0.0453  0.0392 -0.2136
  850W        W 5050   3.032   1.542  12.940  0.1927 -0.0671 -0.0292
  851W        W 5051   7.934   5.736   1.010  0.2055 -0.1607 -0.4366
  852W        W 5052   0.280   6.238  11.402  0.3575 -0.0447 -0.2214
  853W        W 5053  10.426   7.564  10.573  0.0660  0.4277  0.0796
  854W        W 5054   5.213   8.709   4.863  0.1724  0.0468 -0.1211
  855W        W 5055   0.482   4.414  10.384  0.0469  0.2351 -0.0160
  856W        W 5056   4.741   7.325  12.816  0.1813 -0.1563  0.0027
  857W        W 5057   0.564   1.206   8.667  0.0318  0.0414 -0.0145
  858W        W 5058   1.560   6.165  12.866  0.0712  0.3697  0.0554
  859W        W 5059   7.744   1.823   2.727 -0.2572 -0.2569  0.0072
  860W        W 5060   7.600   2.633   2.402 -0.1107 -0.0253  0.1813
  861W        W 5061   1.006   1.475   8.672 -0.1732 -0.2745  0.0533
  862W        W 5062   0.524   5.122   2.156  0.1311  0.2182  0.2988
  863W        W 5063   0.880   3.550   8.559  0.2732  0.1997  0.0995
  864W        W 5064   4.224   4.541   4.010 -0.2017  0.1739  0.2857
  865W        W 5065   8.341   7.304  12.788  0.3028 -0.0397  0.2272
  866W        W 5066   1.379   0.436  12.967  0.0082  0.1936  0.4240
  867W        W 5067   8.665   5.268   9.915 -0.1980 -0.3109 -0.1536
  868W        W 5068  10.244   2.906   0.962 -0.0273 -0.1337 -0.1178
  869W        W 5069   7.621   2.939   4.150 -0.0662  0.0848  0.0098
  870W        W 5070   0.366   0.419  12.738 -0.1285  0.0854  0.2260
  871W        W 5071  10.259   5.855   4.126 -0.2627 -0.0847  0.0361
  872W        W 5072   3.815   2.899  11.808  0.3084 -0.1778  0.0392
  873W        W 5073   9.584   2.953  11.723 -0.0214  0.0723  0.1964
  874W        W 5074   5.625   9.391   2.356 -0.0672 -0.0290 -0.0809
  875W        W 5075   1.264   8.569   1.176  0.0640  0.0946 -0.3702
  876W        W 5076   3.162   0.601  13.255  0.0407 -0.0111  0.3115
  877W        W 5077   1.892   0.622  10.172 -0.0638 -0.1416 -0.0480
  878W        W 5078   5.990   2.448  11.950 -0.3101 -0.0618  0.0622
  879W        W 5079   3.886   2.549   9.642  0.1274  0.1341 -0.0217
  880W        W 5080   9.400   1.645   1.929 -0.0442  0.0498 -0.4409
  881W        W 5081   9.250   7.960   0.144 -0.1029 -0.1274  0.6458
  882W        W 5082   0.266   4.344  11.697 -0.0062 -0.0109  0.1621
  883W        W 5083   5.608   2.320   0.635  0.2141  0.2354  0.0780
  884W        W 5084   7.224   9.239   1.758 -0.1510  0.0858 -0.4495
  885W        W 5085   8.099   2.258   2.879 -0.2431  0.2272 -0.0554
  886W        W 5086   4.538   1.232  12.245  0.0071 -0.1832 -0.1710
  887W        W 5087   2.103   3.485   1.021  0.3206 -0.1524  0.1411
  888W        W 5088   6.970   7.816  10.214  0.1978 -0.2096 -0.0210
  889W        W 5089   9.323   8.767   9.953 -0.1999  0.0063 -0.0431
  890W        W 5090   7.366   2.184  11.325  0.2089  0.2298 -0.0350
  891W        W 5091   1.538   1.662   4.015 -0.1370  0.0837  0.0467
  892W        W 5092   3.448   6.094  11.286 -0.1533 -0.0279  0.0801
  893W        W 5093   8.798   6.880  11.566 -0.5224  0.0354  0.0149
  894W        W 5094   2.992   6.986  12.146 -0.0052  0.0472 -0.1185
  895W        W 5095   0.417   1.381  12.932  0.0842 -0.1754 -0.2937
  896W        W 5096   5.383   2.459   2.650 -0.0446  0.0979  0.1340
  897W        W 5097   4.195   7.195  11.721 -0.0005  0.1007 -0.1112
  898W        W 5098   9.324   1.752  11.114 -0.1190  0.0764 -0.2104
  899W        W 5099   2.895   2.433   1.013  0.0526  0.1094  0.0430
  900W        W 5100   4.642   2.808  13.091 -0.1388 -0.1066 -0.0953
  901W        W 5101   3.708   1.027   3.456 -0.2318  0.3928 -0.0190
  902W        W 5102   4.311   2.147  11.871 -0.1836  0.0981 -0.0328
  903W        W 5103   3.505   9.005   9.157 -0.1224 -0.0654 -0.2246
  904W        W 5104   6.226   0.237  10.997  0.1857  0.2241 -0.0314
  905W        W 5105   7.197   4.625   3.504 -0.0098 -0.1222  0.3143
  906W        W 5106   9.488   7.805   0.783 -0.0519  0.0381 -0.0475
  907W        W 5107   0.610   6.109   1.581  0.1592  0.0006 -0.3221
  908W        W 5108   9.113   2.394   1.955  0.2891 -0.0972  0.2642
  909W        W 5109   8.640   9.407   0.697  0.2738  0.2265  0.1458
  910W        W 5110   3.304   3.485   3.858  0.1133 -0.2715  0.1945
  911W        W 5111   2.229   4.010  10.802  0.0335 -0.2631  0.1156
  912W        W 5112   8.850   4.195  12.942  0.1790  0.0211 -0.0676
  913W        W 5113   5.388   7.327   2.460 -0.2725  0.0880  0.1712
  914W        W 5114   9.691   2.820   3.036  0.0470 -0.1210  0.1715
  915W        W 5115   8.028   3.839   0.474  0.0058  0.3288 -0.1924
  916W        W 5116  10.212   1.401   2.380 -0.3932  0.2895  0.1510
  917W        W 5117   2.070   9.434  12.939 -0.2154  0.1799  0.0728
  918W        W 5118   1.833   2.230   4.036 -0.0226 -0.1024 -0.2155
  919W        W 5119   5.070   0.512   3.882 -0.1779  0.2258 -0.0470
  920W        W 5120   3.525   3.135  11.324 -0.0645 -0.0811 -0.0078
  921W        W 5121   2.910   0.481  12.776 -0.1726  0.0196 -0.1893
  922W        W 5122   7.650   9.273  12.172 -0.1579  0.0238 -0.0424
  923W        W 5123   7.472   9.925   3.455  0.0931  0.0520 -0.0486
  924W        W 5124   7.779   6.554  13.101  0.1102 -0.0698  0.1104
  925W        W 5125   6.244   1.229  10.862 -0.0627  0.1860  0.1789
  926W        W 5126   3.103   8.771   2.491 -0.1285 -0.0663 -0.4240
  927W        W 5127   1.453   0.267   3.122 -0.2257 -0.0373 -0.1361
  928W        W 5128   5.290   8.833   9.979  0.1199  0.3120 -0.1779
  929W        W 5129   8.028   6.173  12.785  0.0663  0.0050 -0.0413
  930W        W 5130   7.503   9.665   1.164 -0.1371 -0.0126 -0.2940
  931W        W 5131   5.752   5.361   2.317 -0.0296  0.0615 -0.0425
  932W        W 5132   4.737   8.266  11.938 -0.0308 -0.1275  0.0417
  933W        W 5133   3.379   6.651   1.156  0.0909  0.1197  0.0790
  934W        W 5134   5.662   3.409  11.942  0.1760 -0.0988 -0.1218
  935W        W 5135   9.405   1.362  10.676 -0.1633 -0.0033  0.2964
  936W        W 5136   1.713   4.880   0.929  0.1084 -0.0838  0.2228
  937W        W 5137   7.719   3.344  11.853  0.0745 -0.1538  0.1485
  938W        W 5138   3.043  10.257  12.013  0.0529  0.0107 -0.2308
  939W        W 5139   8.208   1.673   3.871 -0.0944  0.0772  0.0350
  940W        W 5140   8.993   5.112  10.323 -0.2508 -0.3943 -0.1137
  941W        W 5141   5.448   5.582   4.496 -0.0891  0.1154  0.2257
  942W        W 5142   6.669   6.886   4.330  0.1522 -0.2413 -0.2515
  943W        W 5143   4.545   6.602   3.913  0.0427 -0.1036 -0.3373
  944W        W 5144   2.666   6.698   2.843  0.1089 -0.0225  0.4373
  945W        W 5145   0.619   4.298   0.736 -0.0002  0.0320 -0.2440
  946W        W 5146   7.374   8.340  10.822  0.3559  0.2729  0.0788
  947W        W 5147   6.413   4.594   2.785  0.2033 -0.0984 -0.0619
  948W        W 5148   5.655   5.654   4.029 -0.0248  0.1388 -0.0493
  949W        W 5149   3.500   6.281  12.520  0.0366  0.2076 -0.0725
  950W        W 5150   9.509   9.750  13.234 -0.1898 -0.0478 -0.2453
  951W        W 5151   2.553   7.041  10.470 -0.3880  0.1940 -0.1974
  952W        W 5152   6.929   0.370   1.531 -0.3533  0.2211  0.0351
  953W        W 5153   9.178   2.445  10.279 -0.2277  0.0158 -0.2047
  954W        W 5154   7.925   5.710   2.731  0.0461 -0.0609 -0.4247
  955W        W 5155   5.410   1.399   4.763 -0.3026  0.2644  0.0455
  956W        W 5156   8.298   2.550   3.748 -0.2588 -0.2105  0.2280
  957W        W 5157   8.114   9.936  13.512  0.1127  0.1968  0.0497
  958W        W 5158   0.632   8.499   0.849  0.1191 -0.3239  0.0689
  959W        W 5159   0.006  10.349   1.445 -0.0197 -0.0335  0.3535
  960W        W 5160   4.918   3.801  10.372 -0.0404  0.2023 -0.3849
  961W        W 5161   7.585  10.078   2.034  0.0062 -0.3248 -0.2225
  962W        W 5162   7.703   2.483  11.547  0.1361 -0.0001 -0.2101
  963W        W 5163   4.238   8.310  13.506  0.0807 -0.4280 -0.0752
  964W        W 5164  10.048   8.760   1.563 -0.1529 -0.1047 -0.3043
  965W        W 5165   6.453   9.350  11.158  0.0908 -0.1240 -0.0358
  966W        W 5166   1.998   1.952   2.813 -0.2973  0.4027  0.1838
  967W        W 5167   9.149   1.713   2.937 -0.0444  0.1258  0.1221
  968W        W 5168   6.760   0.175   0.169  0.0916  0.0832  0.2990
  969W        W 5169   9.441   7.533   2.050  0.2469 -0.2434  0.3813
  970W        W 5170   9.782   0.845  12.004 -0.2656 -0.4694 -0.0735
  971W        W 5171   2.354   9.307   0.927 -0.2597 -0.0333 -0.1420
  972W        W 5172   9.783   2.017   9.732 -0.6375  0.1258 -0.1947
  973W        W 5173   3.741   0.325  10.858 -0.0018  0.1840  0.1800
  974W        W 5174   4.127   7.867   4.188 -0.2894  0.3351 -0.0824
  975W        W 5175   8.636   4.442  11.061 -0.2393 -0.1356  0.0248
  976W        W 5176   5.544   7.312   2.975  0.3121 -0.2095 -0.0369
  977W        W 5177   0.179   8.360   9.528  0.0391  0.2828 -0.2869
  978W        W 5178   1.617   8.290   0.790 -0.1019 -0.0992 -0.3090
  979W        W 5179   3.220   4.433  11.110 -0.1477 -0.1393  0.2636
  980W        W 5180   1.651   8.978  11.074  0.1121 -0.1079  0.1020
  981W        W 5181   9.889   1.017   2.432  0.0107  0.1292 -0.0063
  982W        W 5182   4.114   9.713   2.714 -0.1877 -0.0350 -0.2135
  983W        W 5183  10.021   2.261   8.133  0.2423 -0.1469  0.2345
  984W        W 5184   8.313   5.987   5.151 -0.4042 -0.2251  0.2023
  985W        W 5185   1.483   2.284   3.500 -0.1413  0.1449  0.3827
  986W        W 5186   1.946   6.093   0.014  0.1066  0.2300 -0.0385
  987W        W 5187   6.863   8.167  13.483  0.1251  0.1319  0.1188
  988W        W 5188   4.120   0.445  12.952 -0.1191  0.0618 -0.2718
  989W        W 5189   1.654   4.784  12.478  0.1153  0.0539 -0.1157
  990W        W 5190   1.684   1.400   3.567  0.0033  0.1789  0.0612
  991W        W 5191   2.003   8.035  13.442 -0.0467  0.1538 -0.0233
  992W        W 5192   8.521   0.200   0.679  0.3229  0.0645 -0.0709
  993W        W 5193   1.521   2.734   3.307 -0.0959  0.2601  0.1507
  994W        W 5194   3.572   2.192   0.327 -0.2604  0.4018 -0.1402
  995W        W 5195   4.431   4.812  11.980 -0.3878 -0.2364  0.0719
  996W        W 5196   1.225   2.528   2.943 -0.0801 -0.1382  0.1626
  997W        W 5197   9.008   0.583   3.494  0.0293 -0.0812  0.1296
  998W        W 5198   6.670   9.158  13.112  0.2141 -0.0149  0.3403
  999W        W 5199   2.643   0.022  12.915  0.0991 -0.1108 -0.0884
 1000W        W 5200   2.670   2.307   9.215 -0.0447  0.1270 -0.0490
 1001W        W 5201   6.854   7.176   2.266  0.0530 -0.0431  0.2069
 1002W        W 5202   6.388   3.994  13.129 -0.0078  0.2241  0.0303
 1003W        W 5203   8.610   3.003  12.070  0.0120 -0.1677 -0.1099
 1004W        W 5204   9.193   2.797   2.294 -0.2404  0.2602 -0.2211
 1005W        W 5205   6.579   1.974  11.184  0.0655 -0.1560 -0.0757
 1006W        W 5206   1.417   5.433   1.954 -0.1926 -0.2385  0.1520
 1007W        W 5207   0.838   7.939   1.746 -0.1321 -0.2005 -0.2180
 1008W        W 5208   5.905   7.710   2.160 -0.1306  0.1554  0.1944
 1009W        W 5209   1.806   0.543   2.864  0.1286  0.3593 -0.0864
 1010W        W 5210   0.263   8.485  12.482 -0.0530  0.0062 -0.5570
 1011W        W 5211   6.959   8.768  10.408 -0.5977  0.0746 -0.0370
 1012W        W 5212   8.587   9.267   2.176 -0.2065  0.0787  0.2974
 1013W        W 5213  10.251   2.887  11.183 -0.1224  0.4361 -0.2347
 1014W        W 5214   6.821   2.450   4.263 -0.0281 -0.0167  0.1259
 1015W        W 5215   3.192   4.827  10.001 -0.1053 -0.0652  0.2077
 1016W        W 5216   7.309   7.317   4.076 -0.1551 -0.3515  0.0248
 1017W        W 5217   1.862   2.802  10.461  0.0344  0.0680  0.1406
 1018W        W 5218   7.595   2.864   1.023 -0.0795 -0.0277  0.2003
 1019W        W 5219   9.018   7.077   0.678 -0.0054 -0.1605  0.1154
 1020W        W 5220   0.083   9.041  13.319  0.3416 -0.1607  0.1270
 1021W        W 5221   8.286   5.683   3.790  0.3674  0.1955  0.0645
 1022W        W 5222   8.942   2.609   1.105 -0.0667  0.0271 -0.2672
 1023W        W 5223   4.046   3.378  11.942  0.0343  0.1791 -0.2128
 1024W        W 5224   5.022   6.068   2.022  0.3260 -0.1009  0.2212
 1025W        W 5225   3.739   4.221   2.067 -0.1365 -0.1646  0.0135
 1026W        W 5226   5.404   8.372  13.093 -0.0131  0.0044 -0.1023
 1027W        W 5227   1.103   0.528   0.704 -0.0000  0.0733 -0.0429
 1028W        W 5228   7.088   6.053   2.026  0.0690 -0.1216  0.0465
 1029W        W 5229   9.031   3.891  11.820  0.0554  0.4898  0.1061
 1030W        W 5230   0.973   9.639  10.965  0.0418  0.0084  0.0738
 1031W        W 5231   1.609   8.588   9.894 -0.1079  0.0128 -0.2689
 1032W        W 5232   7.182   2.969  12.512 -0.3624 -0.1797  0.0702
 1033W        W 5233   3.970   4.098   1.298  0.0226  0.2448 -0.0866
 1034W        W 5234   5.169   1.512   1.190  0.3469  0.0915 -0.2539
 1035W        W 5235   9.521   5.749   0.529 -0.1425  0.1416 -0.2672
 1036W        W 5236   5.950   4.887   4.212  0.2214  0.2474 -0.2737
 1037W        W 5237   7.649   0.140  12.640 -0.1149 -0.0111  0.1453
 1038W        W 5238   9.036   3.900  12.474  0.0586  0.0419 -0.0559
 1039W        W 5239   7.295   3.632   1.546  0.3453  0.1762 -0.3396
 1040W        W 5240   0.281   4.318  12.259 -0.0616  0.0805 -0.2648
 1041W        W 5241   4.954   9.910   9.961 -0.2197  0.0291 -0.1158
 1042W        W 5242   1.839   1.779  12.920 -0.0114  0.0291 -0.4349
 1043W        W 5243   3.719   4.008   2.581 -0.0149  0.1759  0.1867
 1044W        W 5244   2.592   7.730  12.223  0.1542 -0.0030  0.0427
 1045W        W 5245   6.341   5.632  10.080  0.0845 -0.0675  0.1293
 1046W        W 5246   1.818   3.367  11.779  0.0187  0.0244 -0.2454
 1047W        W 5247   6.468   9.191   2.605  0.0008 -0.0604 -0.3070
 1048W        W 5248   9.796   8.379  10.542 -0.0477 -0.0004 -0.4373
 1049W        W 5249   6.067   4.875   8.910 -0.3234 -0.0952  0.3314
 1050W        W 5250   9.516   6.763   3.627 -0.1561  0.1207  0.3814
 1051W        W 5251   2.777   5.388   2.156  0.1465 -0.0729  0.0982
 1052W        W 5252   3.447   4.879  11.614 -0.1593  0.1522  0.2932
 1053W        W 5253   1.250   6.378  11.059 -0.0878  0.1534 -0.3257
 1054W        W 5254   0.818   1.718   3.241  0.4718  0.2779 -0.2547
 1055W        W 5255   4.015   0.547   0.515 -0.0346 -0.1147 -0.0002
 1056W        W 5256   6.089   9.567   2.608  0.3310  0.2934 -0.2876
 1057W        W 5257   3.904   4.692   9.241 -0.0462 -0.1483  0.2227
 1058W        W 5258   6.064   8.269   0.604 -0.4035 -0.0876  0.3772
 1059W        W 5259   4.185   6.311   0.766 -0.0747  0.0189  0.3358
 1060W        W 5260   5.082   8.868  10.547  0.0213  0.1260  0.1804
 1061W        W 5261   0.967   4.260  11.963  0.1760 -0.2488  0.2967
 1062W        W 5262   7.068   5.144   3.493 -0.0405 -0.1377  0.1506
 1063W        W 5263   1.852   0.189  12.238  0.1864  0.0889 -0.2077
 1064W        W 5264   1.663   2.341   0.406 -0.1549 -0.4698 -0.0139
 1065W        W 5265   3.122   1.957   0.861 -0.1794  0.2305 -0.2081
 1066W        W 5266   0.059   6.651  10.479  0.2010  0.1331 -0.0760
 1067W        W 5267   3.754   5.865  12.180  0.1447  0.1443 -0.0311
 1068W        W 5268   9.209   4.359  11.667 -0.3432 -0.0183  0.1351
 1069W        W 5269   5.894   8.607  12.833  0.1243  0.1922 -0.0301
 1070W        W 5270   9.281   8.176   9.126  0.0957 -0.1916 -0.1464
 1071W        W 5271   7.830   3.343  12.339 -0.3207 -0.0317 -0.2989
 1072W        W 5272   5.893   9.633   1.933 -0.1010  0.2945 -0.0511
 1073W        W 5273   3.910   6.416  11.985 -0.0543 -0.2260  0.2094
 1074W        W 5274   4.548   7.783   0.912 -0.0684  0.3907  0.0674
 1075W        W 5275  10.256   8.378   1.786 -0.1488  0.0584 -0.1387
 1076W        W 5276   7.513   3.988   9.701  0.0284  0.0929  0.3576
 1077W        W 5277   2.981   3.528   0.484 -0.2635 -0.2219  0.0287
 1078W        W 5278   0.713   3.430   3.277  0.0218 -0.1010 -0.4238
 1079W        W 5279   9.784   2.757   2.266 -0.2212 -0.2455 -0.0954
 1080W        W 5280   5.375   9.834   0.129  0.0951  0.0811  0.3279
 1081W        W 5281   9.462   8.306   0.753 -0.2428  0.0822  0.2495
 1082W        W 5282   3.215  10.024   0.579 -0.0009 -0.3333 -0.1963
 1083W        W 5283   7.717   8.138  10.313  0.0268 -0.3700  0.0546
 1084W        W 5284   0.827   4.075   4.621  0.1341  0.1060  0.0709
 1085W        W 5285   7.048   4.414  11.451  0.0384  0.2041 -0.1101
 1086W        W 5286   6.096   1.922  11.401  0.0116  0.3241  0.1038
 1087W        W 5287   5.000   0.209   9.265  0.0323 -0.0377 -0.1842
 1088W        W 5288   1.003   5.168  11.844 -0.0041  0.0428  0.0112
 1089W        W 5289   0.236   2.478   4.693  0.2283  0.0095 -0.2796
 1090W        W 5290   5.623   1.993  11.863  0.3633 -0.0578  0.0191
 1091W        W 5291   3.088   5.584   1.335 -0.0490  0.4336  0.1253
 1092W        W 5292   7.667   4.391   1.417  0.2193  0.0958 -0.2409
 1093W        W 5293   0.258   0.766  12.217 -0.0149  0.2137 -0.3617
 1094W        W 5294   9.768   3.703   0.157  0.3175 -0.3035  0.2887
 1095W        W 5295   3.421   8.915   3.210 -0.2048  0.0135 -0.0485
 1096W        W 5296   0.278   6.482   2.867 -0.0414  0.2944 -0.1331
 1097W        W 5297   8.555   6.833   9.129  0.1710 -0.3301  0.1010
 1098W        W 5298   9.739   7.862  10.179 -0.1335 -0.2887  0.0105
 1099W        W 5299   0.850   2.188  11.267 -0.3360  0.0408 -0.0140
 1100W        W 5300   1.199   2.660  11.431  0.2534 -0.0055  0.5107
 1101W        W 5301   6.758   6.381  13.373  0.2354  0.0071  0.1248
 1102W        W 5302   2.130   6.465   2.556  0.0886  0.2428 -0.0706
 1103W        W 5303   8.807   0.488   1.004  0.3432 -0.0351 -0.0591
 1104W        W 5304   9.365   6.461  11.572  0.0223 -0.0323  0.3787
 1105W        W 5305   3.492   3.169   4.862  0.4241  0.2217  0.2848
 1106W        W 5306   4.968   0.150  13.198 -0.1951 -0.2046  0.0501
 1107W        W 5307   5.187   2.963  12.397  0.0370  0.1791  0.1429
 1108W        W 5308   6.302   8.503  13.336  0.0332 -0.1346  0.1989
 1109W        W 5309   1.783   5.207   2.216  0.2453  0.3002  0.2129
 1110W        W 5310   8.211   5.889  12.008  0.0430 -0.2790  0.0504
 1111W        W 5311   7.611   5.300   2.587 -0.0948 -0.0349  0.0836
 1112W        W 5312   3.524   8.763   0.565 -0.0295  0.1429 -0.0095
 1113W        W 5313   0.443   9.144   4.240 -0.1097 -0.3369  0.1137
 1114W        W 5314   6.141   5.121   0.211  0.1492  0.1642  0.2278
 1115W        W 5315   1.882   3.600   3.497 -0.0475 -0.2939  0.1969
 1116W        W 5316   0.978   9.453   3.041  0.1746  0.3419 -0.1103
 1117W        W 5317   1.052   5.322   9.614  0.0469 -0.3036  0.2672
 1118W        W 5318   1.307   5.872   5.272 -0.0848  0.0458  0.0973
 1119W        W 5319   7.773   3.714  13.507  0.1160 -0.3929  0.0221
 1120W        W 5320   2.573   2.916   4.810  0.1717  0.0190 -0.2588
 1121W        W 5321   3.974   6.037   2.771 -0.5138  0.2528  0.0522
 1122W        W 5322   2.562   8.515   9.611 -0.0942 -0.0602 -0.4402
 1123W        W 5323   3.979   6.563   2.436 -0.3041  0.2113 -0.2356
 1124W        W 5324   4.021   9.504  10.813  0.1299  0.0882  0.0146
 1125W        W 5325   9.588   8.675   1.267  0.1080 -0.1244 -0.1371
 1126W        W 5326   8.456   8.563   9.871 -0.3056  0.0765  0.1585
 1127W        W 5327   3.745   5.075  11.247 -0.4259  0.1507  0.2033
 1128W        W 5328   5.543   4.148   4.690 -0.3361  0.0462  0.0795
 1129W        W 5329   0.209   5.412   9.447  0.0331 -0.1516  0.3755
 1130W        W 5330   4.917   8.848  12.555 -0.0935 -0.0281  0.2096
 1131W        W 5331   8.076   6.410  11.264  0.0645 -0.0662 -0.3182
 1132W        W 5332   7.422   9.167   1.340 -0.1836 -0.1601 -0.3097
 1133W        W 5333   9.365   9.995   2.244  0.0242 -0.0677  0.0218
 1134W        W 5334  10.427   0.455   9.139  0.0516 -0.0021  0.3195
 1135W        W 5335   5.831   2.786   5.051 -0.1987  0.2611 -0.2810
 1136W        W 5336  10.213   9.746  10.168 -0.4570 -0.1252 -0.2209
 1137W        W 5337   5.768   6.973   9.714  0.0354  0.1272 -0.1475
 1138W        W 5338   2.844   8.462   0.364 -0.0745  0.2789 -0.0308
 1139W        W 5339   6.375   1.046  11.738 -0.4073  0.0445  0.1742
 1140W        W 5340   3.849   9.898  10.489  0.1898  0.3318 -0.2752
 1141W        W 5341   3.771   7.942  11.222 -0.1993  0.2061  0.1954
 1142W        W 5342   2.228   4.462  11.055 -0.1209 -0.0664 -0.2359
 1143W        W 5343   7.744   0.288   0.262 -0.0401 -0.3213  0.0669
 1144W        W 5344   0.052   7.091   1.103  0.3323 -0.1855 -0.3342
 1145W        W 5345   1.861   1.142  11.542 -0.0106 -0.0714 -0.1569
 1146W        W 5346   5.969   9.172   0.120 -0.1298  0.0986 -0.0044
 1147W        W 5347   5.046   6.060   0.317 -0.1642 -0.0360  0.2754
 1148W        W 5348   1.896   2.245  12.880 -0.2759  0.0292 -0.1098
 1149W        W 5349   6.629   1.791   9.411  0.0298 -0.1161 -0.1113
 1150W        W 5350   4.609   3.041   2.126 -0.1443 -0.0231 -0.0446
 1151W        W 5351   0.340   6.968   2.780 -0.2081 -0.1140  0.1591
 1152W        W 5352   9.765   7.757  12.830  0.0432  0.1377 -0.3569
 1153W        W 5353   8.500   2.641   0.282  0.1333 -0.1838 -0.2786
 1154W        W 5354   1.626  10.109   3.683 -0.0974 -0.0079 -0.1659
 1155W        W 5355   4.278   0.719   5.139 -0.0986 -0.1848  0.4118
 1156W        W 5356   5.220   8.062   4.127 -0.0135  0.3601 -0.2009
 1157W        W 5357   5.797   9.907   1.535 -0.1040 -0.1053  0.1614
 1158W        W 5358   1.159   3.252   3.438  0.1816  0.3135  0.0823
 1159W        W 5359   6.753   1.943   3.380 -0.2305 -0.2652 -0.0105
 1160W        W 5360   4.421   1.593   9.556  0.3359  0.3943 -0.3221
 1161W        W 5361   3.337   0.773   9.761 -0.2989  0.1469 -0.0243
 1162W        W 5362   7.819   8.515   9.660  0.5703  0.0513 -0.1746
 1163W        W 5363   1.069   1.739  12.778 -0.1228  0.0547 -0.3223
 1164W        W 5364   8.627   0.209  12.835  0.1409 -0.1872 -0.0317
 1165W        W 5365   5.512   6.265  10.766 -0.2456 -0.3283 -0.2481
 1166W        W 5366   1.710   9.374   9.669  0.1710  0.4566 -0.2679
 1167W        W 5367   3.316   7.244  10.683 -0.0180  0.2651 -0.0813
 1168W        W 5368   5.707   4.693  13.146  0.1638 -0.1861 -0.0367
 1169W        W 5369   5.322   0.805   2.952  0.0120 -0.1841 -0.1325
 1170W        W 5370   0.117   4.635  13.116 -0.3164 -0.1922  0.0398
 1171W        W 5371   7.237   5.916   8.655 -0.0795 -0.1303 -0.0444
 1172W        W 5372   5.691  10.074  10.404 -0.2272  0.0526 -0.0709
 1173W        W 5373   9.615   0.437   3.376 -0.2429 -0.1065  0.2919
 1174W        W 5374   2.648   3.011   5.311 -0.1128 -0.1020  0.0426
 1175W        W 5375   1.476   9.942  10.153  0.0599 -0.3460  0.2842
 1176W        W 5376   5.931   9.762   0.178  0.1159 -0.3881 -0.0289
 1177W        W 5377   1.943  10.056  10.997  0.0569 -0.0133 -0.2098
 1178W        W 5378   0.292   9.507  13.529  0.2733 -0.0590 -0.4339
 1179W        W 5379   7.279   0.606  12.715  0.0138  0.0601  0.0422
 1180W        W 5380   3.777   8.071   9.627  0.0214 -0.2402 -0.2955
 1181W        W 5381   8.320   5.004  11.402 -0.0568 -0.0704 -0.2250
 1182W        W 5382   6.304   4.705   4.607 -0.0321  0.2787  0.3921
 1183W        W 5383   6.274   9.479  13.449 -0.1482 -0.0697 -0.0295
 1184W        W 5384   2.023   7.119  11.625  0.2079 -0.1717  0.1602
 1185W        W 5385   5.647   1.243   3.934 -0.0614 -0.2946  0.2859
 1186W        W 5386   2.129   7.388  12.392 -0.0446  0.0494  0.1777
 1187W        W 5387   9.104   9.284   0.660 -0.3976 -0.0676 -0.2405
 1188W        W 5388   2.657   1.547   4.495 -0.0094  0.1815  0.4103
 1189W        W 5389   0.374   3.921  10.443 -0.1488  0.1404 -0.2994
 1190W        W 5390   4.112   8.789  11.399  0.0348  0.2051  0.0693
 1191W        W 5391   1.075   7.559   3.374 -0.1389  0.0910 -0.2069
 1192W        W 5392   7.495   5.314  12.747 -0.0917 -0.3257  0.0506
 1193W        W 5393   6.477   8.048   1.418  0.0325 -0.0203  0.0100
 1194W        W 5394   1.656   9.627   3.471  0.1005  0.1251 -0.0909
 1195W        W 5395   3.369   0.323   5.046 -0.2307 -0.4449 -0.0254
 1196W        W 5396   2.391   0.492  10.167 -0.3309 -0.1908 -0.0196
 1197W        W 5397   2.500   9.987   4.069  0.1339  0.0831 -0.1057
 1198W        W 5398   0.259   4.742  10.752  0.0139  0.0860 -0.0861
 1199W        W 5399   3.805   9.680   1.864  0.0331 -0.1106 -0.1206
 1200W        W 5400   9.647   5.345   9.160  0.0470 -0.2189  0.4101
 1201W        W 5401   0.836   1.561   1.237  0.0460 -0.0183 -0.1354
 1202W        W 5402   6.636   3.094   9.529 -0.0885  0.3775  0.1143
 1203W        W 5403   0.355   3.791  12.739  0.0549 -0.1359  0.3562
 1204W        W 5404   2.139   3.667  12.034  0.0475  0.0752  0.0782
 1205W        W 5405   1.917   9.413   0.719 -0.0486  0.0211  0.1018
 1206W        W 5406   4.784   8.208   0.030  0.0897  0.1807  0.2885
 1207W        W 5407   5.397   6.938  10.114  0.1592 -0.0015  0.2968
 1208W        W 5408   6.039   6.126  11.406 -0.0631 -0.1326 -0.2306
 1209W        W 5409   1.476   3.360   4.923 -0.1426 -0.1700  0.0744
 1210W        W 5410   9.160   2.710  13.054 -0.0341 -0.2500 -0.0919
 1211W        W 5411   2.562   4.841   9.520 -0.1145 -0.2845 -0.1782
 1212W        W 5412   7.789   8.643   2.644 -0.1401  0.1453  0.1539
 1213W        W 5413   4.851   1.374   0.133  0.0584  0.0775 -0.1502
 1214W        W 5414   3.976   8.267   3.515  0.0709 -0.1649 -0.2755
 1215W        W 5415   2.671   1.825   9.532 -0.2296  0.0819 -0.4250
 1216W        W 5416   5.985   2.091   3.794  0.0536  0.1007  0.2946
 1217W        W 5417   0.002   9.477   0.922 -0.2945 -0.2528 -0.2373
 1218W        W 5418   3.449   8.538   9.358 -0.1499  0.3148  0.0703
 1219W        W 5419   2.176   8.812   3.166  0.2125  0.3413  0.0182
 1220W        W 5420   4.882   4.847   5.217  0.3465  0.0444 -0.1776
 1221W        W 5421   7.078   2.041   3.799 -0.1907 -0.1334  0.3835
 1222W        W 5422   3.080   2.241   2.651  0.2481 -0.0427  0.2884
 1223W        W 5423   5.900   8.107  12.547 -0.0171  0.0596  0.3497
 1224W        W 5424   8.489   4.873  13.227 -0.1412  0.1036  0.3266
 1225W        W 5425   2.536   4.874   0.451  0.0287 -0.0484 -0.0554
 1226W        W 5426   5.024   9.905   4.022  0.1060 -0.0598 -0.5420
 1227W        W 5427   4.923   1.302   4.934 -0.1033  0.4078 -0.0624
 1228W        W 5428   8.916   0.392  13.232  0.0720 -0.0908 -0.1213
 1229W        W 5429   2.824   0.701  10.014 -0.1946 -0.1793 -0.0306
 1230W        W 5430   5.679   2.944   9.675  0.2206 -0.0769 -0.1302
 1231W        W 5431   0.881   0.806   1.896  0.2523  0.1035  0.2672
 1232W        W 5432   3.752   8.592   4.238 -0.0966 -0.3792 -0.2566
 1233W        W 5433   4.273   6.291   1.317 -0.0583 -0.2393  0.0696
 1234W        W 5434   3.348   7.686  13.282  0.0297  0.1908  0.3738
 1235W        W 5435   4.350   4.417  11.089 -0.2115  0.0692 -0.0719
 1236W        W 5436   6.359   4.087   5.064  0.2059 -0.0550  0.2827
 1237W        W 5437   2.595  10.124   9.196  0.0814  0.0468 -0.1417
 1238W        W 5438   2.123   8.399   2.263 -0.1472 -0.0224 -0.1918
 1239W        W 5439   3.214   3.079   9.309 -0.0701  0.0129  0.3881
 1240W        W 5440   1.502   0.969   2.096  0.1047 -0.1389  0.3315
 1241W        W 5441   9.919   0.570   9.500  0.2290  0.1567  0.2902
 1242W        W 5442  10.093   7.912  10.748  0.1804 -0.3639 -0.0804
 1243W        W 5443   8.399  10.048  10.518  0.0698 -0.1078  0.3253
 1244W        W 5444   3.422   7.686   4.733  0.3090  0.2973  0.2764
 1245W        W 5445   9.280   9.978   2.735 -0.0495  0.1096 -0.0565
 1246W        W 5446   7.278   7.775  12.092  0.1722  0.0350  0.1844
 1247W        W 5447   5.280   3.755   3.030  0.1800  0.2561  0.1955
 1248W        W 5448   2.411   1.151   3.862 -0.1643 -0.0121 -0.1509
 1249W        W 5449   8.648   6.943  12.902 -0.2137 -0.1522  0.2021
 1250W        W 5450   4.002   6.338  10.017  0.0221 -0.1878  0.1516
 1251W        W 5451   3.804   2.352   4.312  0.1270 -0.0214 -0.0096
 1252W        W 5452   4.931   5.550   0.159 -0.1733  0.2246 -0.0510
 1253W        W 5453   1.446   6.111  13.346 -0.0596  0.1267 -0.0635
 1254W        W 5454   7.798   3.062   2.317  0.1168 -0.0564  0.1150
 1255W        W 5455   0.776   3.778   2.900  0.2424 -0.1098 -0.0317
 1256W        W 5456   3.582   1.063   2.887  0.1552  0.0373  0.3048
 1257W        W 5457   7.298   6.871   4.424  0.3354  0.1649 -0.0169
 1258W        W 5458   3.651   3.713   1.175 -0.0678 -0.1411 -0.3385
 1259W        W 5459   4.114   1.591   4.668 -0.0140  0.2027  0.0844
 1260W        W 5460   2.679   5.615   0.007  0.1334  0.0702  0.1965
 1261W        W 5461  10.192   9.116  12.878 -0.1568 -0.0120  0.1489
 1262W        W 5462   0.166   7.174  10.199  0.2440  0.2446  0.1794
 1263W        W 5463   2.906   5.270  11.473  0.2262 -0.1911  0.0557
 1264W        W 5464   6.318   2.249   2.251  0.1998  0.0546 -0.0513
 1265W        W 5465   4.109   0.039   9.800 -0.1005 -0.1232 -0.1831
 1266W        W 5466  10.430   8.791   0.585 -0.1956 -0.3200  0.2478
 1267W        W 5467   9.007   9.543   2.033 -0.2145  0.1060  0.0860
 1268W        W 5468   2.438   0.165  12.398 -0.1026 -0.1580  0.0559
 1269W        W 5469   4.897   4.437  12.080  0.2133 -0.2926 -0.0895
 1270W        W 5470   0.679   3.063  12.636  0.0175 -0.1567  0.2964
 1271W        W 5471   4.415   3.389   0.821 -0.0265  0.2251  0.0494
 1272W        W 5472   1.688   9.091   3.171  0.1361 -0.0049  0.0343
 1273W        W 5473   8.539   3.773  12.887  0.2780  0.0670  0.0683
 1274W        W 5474   0.157   1.985  12.078 -0.0342 -0.4227  0.2345
 1275W        W 5475   7.660   6.362   0.520 -0.0409  0.2669  0.1899
 1276W        W 5476   7.078   6.347   9.959 -0.0353 -0.3838  0.0139
 1277W        W 5477   8.929   1.038  13.068 -0.1888 -0.0573 -0.1989
 1278W        W 5478   2.717   2.810  12.702  0.0434  0.0776  0.1052
 1279W        W 5479   6.134   7.516  10.362  0.1932  0.1401 -0.0295
 1280W        W 5480   1.333   8.057  10.922 -0.0941  0.1705  0.2671
 1281W        W 5481   3.457   9.517   0.264  0.1455 -0.2021 -0.1972
 1282W        W 5482  10.341   7.388   4.567 -0.3513 -0.0898 -0.0069
 1283W        W 5483   2.416   3.813   1.373 -0.0375  0.2105 -0.0308
 1284W        W 5484   4.870  10.355   9.835 -0.1817 -0.0679  0.0320
 1285W        W 5485   4.315   0.233   1.984  0.0053  0.3076 -0.0335
 1286W        W 5486   0.224   2.223   2.860 -0.2471 -0.1688  0.2215
 1287W        W 5487   2.038   9.824   3.901 -0.2379 -0.2093  0.2671
 1288W        W 5488   7.182   2.312  10.914  0.2560  0.0130 -0.0258
 1289W        W 5489   1.434   7.856  11.679 -0.1776 -0.0375 -0.1776
 1290W        W 5490   4.870  10.157   1.607 -0.0568 -0.3045 -0.3560
 1291W        W 5491   4.762   9.178   1.060 -0.2154  0.0377 -0.2241
 1292W        W 5492   4.597   9.321   4.394  0.1803 -0.2533 -0.1093
 1293W        W 5493   8.227   8.338   3.454 -0.0802 -0.1280 -0.2799
 1294W        W 5494   4.399   2.772   3.242 -0.2146 -0.1636 -0.2219
 1295W        W 5495   2.577   8.854  10.924  0.0935  0.0157 -0.0884
 1296W        W 5496   5.521   7.199  11.540  0.0250 -0.0495  0.0955
 1297W        W 5497   4.707   7.547   0.439  0.1406  0.2406  0.0260
 1298W        W 5498   7.263   1.668   2.613  0.0400 -0.1694 -0.0914
 1299W        W 5499   0.902   5.212   0.492 -0.0776  0.1846  0.2567
 1300W        W 5500   4.608   1.374   2.466  0.1099 -0.1370 -0.3574
 1301W        W 5501  10.124   4.292   3.431 -0.0618  0.1194 -0.1818
 1302W        W 5502   1.995   2.475   0.064  0.1657 -0.4777  0.1079
 1303W        W 5503   8.499   7.942  10.754 -0.1720 -0.0465 -0.1337
 1304W        W 5504   7.513   5.115  11.512  0.0138 -0.1105 -0.2496
 1305W        W 5505   9.941   6.181  13.346  0.0363  0.1067  0.2795
 1306W        W 5506   9.881   3.493   4.186 -0.1443  0.2151  0.3934
 1307W        W 5507   7.799  10.094  11.507  0.1073  0.1201 -0.2930
 1308W        W 5508   4.905   6.581   2.800  0.2266 -0.0627  0.2624
 1309W        W 5509   6.810   3.737   9.955 -0.0864  0.2110 -0.1013
 1310W        W 5510   8.220   1.294  12.528  0.1535 -0.0982 -0.1978
 1311W        W 5511   2.009   3.777  13.486  0.1443  0.3079 -0.1318
 1312W        W 5512   8.196   7.056   2.566 -0.1365 -0.3003 -0.2202
 1313W        W 5513   1.128   1.261   0.974  0.1813  0.0156 -0.2712
 1314W        W 5514   7.470   6.780   3.881  0.1267 -0.3779  0.0737
 1315W        W 5515  10.310   8.330  11.009  0.0871  0.2103 -0.0013
 1316W        W 5516   6.203   9.991   0.694  0.2069  0.0876 -0.0848
 1317W        W 5517   3.783   0.768   1.897 -0.1248 -0.1554 -0.1546
 1318W        W 5518   3.940   4.584  12.062  0.1388  0.1683 -0.2592
 1319W        W 5519   3.374   7.630   3.304 -0.1027 -0.2291  0.0162
 1320W        W 5520   2.781   4.298  11.696 -0.0893  0.3131  0.0411
 1321W        W 5521   1.344   5.002   2.173 -0.0890  0.2128 -0.2341
 1322W        W 5522   3.807   7.383  10.384 -0.1015  0.0745 -0.1890
 1323W        W 5523   7.654   2.137  10.246 -0.1206 -0.3030 -0.0136
 1324W        W 5524   2.934   2.685   0.126  0.2271  0.2100 -0.2997
 1325W        W 5525   3.305   7.620   3.841  0.3963 -0.2202 -0.0549
 1326W        W 5526   2.384   5.393   3.883  0.1082  0.3107 -0.1460
 1327W        W 5527   1.041   6.240   1.777  0.1047  0.0403 -0.0120
 1328W        W 5528   0.791   8.734  12.068  0.1452  0.0804 -0.1196
 1329W        W 5529   0.452   9.562  11.580  0.1281 -0.3217 -0.1453
 1330W        W 5530  10.395   3.147   4.767 -0.1225  0.6012  0.1315
 1331W        W 5531   2.056   2.863  13.278 -0.3197 -0.2262  0.2003
 1332W        W 5532   4.696   4.487   4.823  0.5593  0.0009 -0.1953
 1333W        W 5533   6.335   7.317   4.479  0.0806  0.0979  0.0172
 1334W        W 5534   9.273   1.357  12.801 -0.0246 -0.0375  0.0757
 1335W        W 5535   2.929   1.033  12.855  0.1525  0.0933  0.0406
 1336W        W 5536  10.215   8.010  12.425  0.0054 -0.0303  0.1662
 1337W        W 5537   7.013   6.129  12.570  0.0123 -0.4488 -0.1351
 1338W        W 5538   3.498   5.378   2.060  0.0893 -0.0104 -0.1205
 1339W        W 5539   5.183   8.674   0.845  0.2565 -0.1574  0.0715
 1340W        W 5540   1.453   0.179   0.375 -0.0107 -0.0386 -0.5231
 1341W        W 5541   6.537   1.265   3.440  0.1574 -0.0036 -0.5201
 1342W        W 5542   3.729   1.627   4.978 -0.1403  0.0933 -0.2046
 1343W        W 5543  10.160   9.240   9.928 -0.2927 -0.0196 -0.0356
 1344W        W 5544   7.065   3.619  11.814 -0.1637  0.0144  0.5599
 1345W        W 5545   0.047   1.738  12.677  0.0802 -0.0007  0.0118
 1346W        W 5546   6.011   0.628  11.890  0.0673 -0.1185  0.1904
 1347W        W 5547  10.370   3.310  12.229 -0.2731 -0.0515  0.3311
 1348W        W 5548   3.654   2.670  10.161 -0.0668  0.1772  0.0704
 1349W        W 5549   8.976  10.390   0.901  0.2281 -0.0392 -0.3788
 1350W        W 5550   2.393   9.699   2.939 -0.0446 -0.2252 -0.1539
 1351W        W 5551   0.754   2.969   4.270 -0.0687 -0.2538 -0.1674
 1352W        W 5552   4.244   1.724   3.700 -0.1707 -0.3779  0.0976
 1353W        W 5553   3.166   2.541  12.766  0.1771 -0.0065  0.1132
 1354W        W 5554   8.089   9.918   2.041  0.2281 -0.3008 -0.0735
 1355W        W 5555   4.260   6.771   9.707  0.0998  0.2087  0.3628
 1356W        W 5556   8.114   5.610   9.267  0.2567 -0.0025 -0.1619
 1357W        W 5557   6.311   8.758   3.431 -0.1505 -0.2677 -0.0289
 1358W        W 5558   3.634   0.638   1.426 -0.3353  0.1782 -0.1890
 1359W        W 5559   6.159   1.646   3.344 -0.0464  0.1584  0.0156
 1360W        W 5560   6.166   1.559   2.031 -0.1296  0.2104  0.2930
 1361W        W 5561   9.200   3.751  13.482  0.0129  0.1768  0.1442
 1362W        W 5562   9.620   5.592   2.392 -0.1582  0.0189  0.0120
 1363W        W 5563   3.163   0.318   3.052 -0.1885 -0.1011 -0.0145
 1364W        W 5564   9.364   6.009   4.258  0.0843 -0.0613 -0.0273
 1365W        W 5565   4.705   3.466   0.344  0.2630  0.1774 -0.2474
 1366W        W 5566   7.279   6.611   2.847 -0.2493  0.2006  0.1104
 1367W        W 5567   7.788   9.038   3.049 -0.0693  0.1585  0.1248
 1368W        W 5568   3.214   9.373   9.332  0.1612 -0.0767  0.1259
 1369W        W 5569   8.154   9.395   1.751 -0.0653  0.0422 -0.0467
 1370W        W 5570   2.699   0.120   9.914  0.0692 -0.0693  0.1197
 1371W        W 5571  10.175   3.911   4.325  0.2980  0.1328 -0.0511
 1372W        W 5572   7.739   7.377   3.700 -0.0138  0.0211 -0.0628
 1373W        W 5573   6.658   7.498   3.224  0.3130 -0.0406 -0.0466
 1374W        W 5574   2.317   5.581  11.757 -0.4515  0.0448  0.1133
 1375W        W 5575   4.465   3.072   1.232  0.0273  0.0470  0.2322
 1376W        W 5576   2.333   7.889  11.265  0.1119  0.1652  0.0106
 1377W        W 5577   2.932   3.954   2.009 -0.2756  0.1638 -0.0306
 1378W        W 5578   6.970   3.432   4.392 -0.0389 -0.0555  0.3444
 1379W        W 5579   2.652   4.264   2.591  0.3484 -0.0619  0.1348
 1380W        W 5580   4.128   2.246  11.038  0.0932 -0.0155 -0.1254
 1381W        W 5581   1.493   7.586  11.095  0.1191 -0.0365 -0.1368
 1382W        W 5582   1.872   1.279   4.641  0.0181  0.1615 -0.0514
 1383W        W 5583   8.717   5.199  11.651  0.0624  0.1177 -0.0441
 1384W        W 5584   8.003   1.200  11.087 -0.1768  0.1537  0.1522
 1385W        W 5585   5.374   2.306   1.521 -0.0595  0.0204  0.5122
 1386W        W 5586   5.595   9.384   0.429  0.2124 -0.0939  0.3035
 1387W        W 5587   6.369   2.070   2.841  0.0133 -0.2610  0.0860
 1388W        W 5588   0.871   1.250   3.332  0.0622 -0.1581 -0.3084
 1389W        W 5589  10.151   5.805   2.239 -0.3350  0.0909  0.2512
 1390W        W 5590   4.344   4.840   4.952 -0.1167  0.2385 -0.0867
 1391W        W 5591   0.864   6.432   1.308  0.0537  0.1937 -0.0386
 1392W        W 5592   8.720   4.537   2.724 -0.2301 -0.3853 -0.2113
 1393W        W 5593   1.787   8.836   5.355  0.0971  0.0779  0.0768
 1394W        W 5594   9.718   7.593   1.387  0.1106  0.0477 -0.2567
 1395W        W 5595   2.361   3.249   3.963  0.1633 -0.1113  0.1967
 1396W        W 5596   0.620   9.458  10.611  0.0024 -0.1392  0.2512
 1397W        W 5597   7.031   0.696   0.011  0.1862  0.3344 -0.2549
 1398W        W 5598   7.364   7.627   1.512 -0.1867  0.1360  0.0670
 1399W        W 5599   3.886   9.539   3.516 -0.0260  0.1387  0.1234
 1400W        W 5600   1.776   8.672  12.234 -0.0995  0.2012  0.0350
 1401W        W 5601   2.678   6.935  12.839  0.2954 -0.3720  0.3401
 1402W        W 5602   4.351   5.593   3.476  0.3131  0.2601  0.1636
 1403W        W 5603   4.184   8.181  12.809  0.0949  0.0984 -0.1190
 1404W        W 5604   8.805   8.945  10.086  0.0275 -0.1389  0.1314
 1405W        W 5605   0.261   2.558  12.097 -0.1649  0.1749  0.1442
 1406W        W 5606   1.966   9.745   2.111 -0.0015 -0.0767  0.1856
 1407W        W 5607   5.069   4.797   2.463 -0.2782  0.0977  0.3137
 1408W        W 5608   3.074   4.873   0.488 -0.3052 -0.3180 -0.0784
 1409W        W 5609   6.350   5.895   2.070  0.2850 -0.1763  0.0504
 1410W        W 5610   5.611   7.632   0.737  0.0467 -0.1035  0.0995
 1411W        W 5611   3.277   3.224   2.853  0.0212 -0.0096  0.0386
 1412W        W 5612   1.868   9.368   4.052 -0.1126 -0.2648  0.0731
 1413W        W 5613   7.866   6.434  11.700 -0.0529  0.0892  0.1494
 1414W        W 5614   7.632   0.976   9.609  0.1502  0.2131 -0.0888
 1415W        W 5615   8.482   9.722  12.375  0.0112 -0.2298 -0.0782
 1416W        W 5616   3.495   2.492   1.408  0.3605 -0.1680 -0.0614
 1417W        W 5617   0.345   5.236   0.660  0.2253 -0.0214  0.1963
 1418W        W 5618   4.567   5.117   4.122  0.0352  0.2957  0.0350
 1419W        W 5619   5.762   5.294   1.274  0.3088 -0.0087  0.0100
 1420W        W 5620   2.956   7.881  11.939 -0.3307 -0.2388 -0.3323
 1421W        W 5621   1.503   9.864   5.459 -0.2638  0.3383  0.1797
 1422W        W 5622   5.080   4.286  12.805  0.2068 -0.2713 -0.2415
 1423W        W 5623   2.491   2.939   3.154  0.0807  0.2045  0.0733
 1424W        W 5624   9.885   3.284  12.063 -0.1744  0.4136 -0.0061
 1425W        W 5625   4.256   8.523   0.550  0.2349 -0.2607  0.1578
 1426W        W 5626   7.042   2.089   1.698  0.0988  0.1022  0.1795
 1427W        W 5627   0.783   1.734   1.696  0.0112 -0.0632  0.1027
 1428W        W 5628   4.132   5.569   2.949 -0.1135 -0.3490  0.0204
 1429W        W 5629   0.265   7.551  11.599 -0.0544 -0.1584  0.0938
 1430W        W 5630   1.698   1.494   9.342 -0.2573  0.0757  0.0219
 1431W        W 5631   0.081   4.888   1.952 -0.2989 -0.0146 -0.2214
 1432W        W 5632   5.382   0.881   4.824  0.0151 -0.4461 -0.0326
 1433W        W 5633   8.594   0.045  11.876  0.0482  0.0241  0.1061
 1434W        W 5634   3.414   0.359   5.611 -0.1077  0.0918  0.1126
 1435W        W 5635   6.530   6.319   2.762 -0.3404 -0.4398 -0.1141
 1436W        W 5636   9.136   0.611   0.098 -0.1630  0.1688  0.1105
 1437W        W 5637   9.608   8.905   1.740 -0.0372 -0.1809  0.1219
 1438W        W 5638   7.138   1.163   9.538 -0.0898  0.2317  0.1079
 1439W        W 5639   0.859   7.849   2.986  0.1950 -0.0126 -0.1289
 1440W        W 5640   9.253   5.066   3.450 -0.2308  0.2410  0.0998
 1441W        W 5641   1.752  10.266   0.075 -0.1518  0.1344  0.0859
 1442W        W 5642   6.103   3.612   1.981 -0.0364 -0.1260 -0.1278
 1443W        W 5643   5.136   0.645   1.685 -0.2155  0.2011  0.1159
 1444W        W 5644   5.473   9.097  10.862 -0.1008  0.0199  0.2942
 1445W        W 5645   1.253   3.759   4.719 -0.1947 -0.0429  0.4777
 1446W        W 5646   3.379   9.218   0.707 -0.0389 -0.1584  0.3825
 1447W        W 5647  10.327   6.755   2.038 -0.1554 -0.1253 -0.3596
 1448W        W 5648   3.475   7.528   0.270  0.0264 -0.0340 -0.0687
 1449W        W 5649   5.762   7.421  12.928 -0.3923  0.0379 -0.2377
 1450W        W 5650  10.369   1.160  11.828  0.1538  0.0796  0.2552
 1451W        W 5651   5.674   3.746   3.361  0.1477  0.3130 -0.1426
 1452W        W 5652   7.759   3.927   3.787  0.0866  0.2197 -0.3491
 1453W        W 5653   8.689   2.778  12.888  0.0425  0.0325 -0.0318
 1454W        W 5654   1.228   2.216   4.447 -0.0973 -0.3009 -0.0392
 1455W        W 5655   2.170   8.727  11.787  0.5857  0.3641  0.0457
 1456W        W 5656   3.936   0.426  10.406  0.2698  0.0790 -0.1949
 1457W        W 5657   7.684   0.840  12.521 -0.0223  0.3426  0.1970
 1458W        W 5658   4.641   8.522   3.005  0.1890 -0.1938  0.1648
 1459W        W 5659   2.975   4.742   2.804 -0.0668 -0.0237  0.4645
 1460W        W 5660   9.066   6.617  13.479  0.0847 -0.2702  0.0274
 1461W        W 5661   4.426   7.912   3.296 -0.0307 -0.2473 -0.3865
 1462W        W 5662   0.218   7.183   4.227  0.3212 -0.1069  0.0083
 1463W        W 5663   6.371   4.395  10.671  0.2983 -0.0736  0.5259
 1464W        W 5664   2.426   8.505   1.045 -0.3958  0.0065 -0.1505
 1465W        W 5665   4.794   4.481   9.659  0.0710  0.0364  0.1002
 1466W        W 5666   1.585   5.738   1.479 -0.0061  0.1202  0.3115
 1467W        W 5667   9.845   3.827   9.386 -0.1688 -0.1438 -0.2317
 1468W        W 5668  10.421   4.872   4.322 -0.2870 -0.1068 -0.0695
 1469W        W 5669   6.510   8.727  10.091 -0.0460 -0.1632  0.1800
 1470W        W 5670   5.010   8.369   3.249 -0.1357 -0.0588 -0.1631
 1471W        W 5671   7.576   7.625   2.780 -0.0974  0.1052 -0.2144
 1472W        W 5672   6.684   9.414  12.138 -0.0576 -0.1445  0.2551
 1473W        W 5673   8.737   6.704   1.294 -0.1863  0.0960  0.0705
 1474W        W 5674   5.635   9.292   9.931 -0.0144  0.0370  0.2364
 1475W        W 5675   4.114   7.551  11.340 -0.3251 -0.2220 -0.0308
 1476W        W 5676   4.080   4.046  10.179 -0.0206 -0.0510  0.1914
 1477W        W 5677   1.260   1.447   2.399  0.4896 -0.0048 -0.0286
 1478W        W 5678   2.070   0.206  10.357  0.2843  0.4264 -0.0195
 1479W        W 5679  10.089   5.079  10.118 -0.0259  0.1802  0.0002
 1480W        W 5680   3.849   1.808  10.278 -0.2525  0.0089 -0.0119
 1481W        W 5681   7.178   5.221   9.902 -0.1615 -0.4115  0.1798
 1482W        W 5682   4.561  10.098   0.752 -0.1934  0.3040 -0.0232
 1483W        W 5683   2.750  10.368   3.660  0.0280 -0.1955 -0.0424
 1484W        W 5684   3.009   4.895  12.012  0.1602  0.0619 -0.0732
 1485W        W 5685   2.708   4.098  12.650 -0.1398 -0.3163  0.1361
 1486W        W 5686   9.758   5.261  11.387 -0.0576  0.2399  0.0026
 1487W        W 5687   4.354   5.221   2.475  0.0470 -0.2995 -0.0835
 1488W        W 5688   1.321   5.426  11.559 -0.0914  0.0886 -0.0024
 1489W        W 5689   2.459   0.323   3.662 -0.0461 -0.1428 -0.2842
 1490W        W 5690   5.662   7.392   3.920  0.3722 -0.0032  0.0928
 1491W        W 5691   9.573   7.335   4.048 -0.0223  0.2389 -0.1831
 1492W        W 5692   8.290   7.200   0.746  0.0277  0.1476 -0.0128
 1493W        W 5693   3.702   3.932   1.653 -0.1771 -0.0351  0.0127
 1494W        W 5694   1.029   2.468  10.500  0.2915  0.1123  0.1265
 1495W        W 5695   9.406   6.343   9.094 -0.1914  0.0934  0.1658
 1496W        W 5696   5.761   9.147  13.069  0.1461 -0.2639 -0.0279
 1497W        W 5697   5.179   0.143   1.743 -0.0680  0.2815 -0.0123
 1498W        W 5698   1.533   2.320   1.605  0.1250  0.1381 -0.0606
 1499W        W 5699   8.042   5.101  12.908 -0.0201  0.0104 -0.1263
 1500W        W 5700   3.458   0.873   2.360  0.1217  0.1817 -0.0329
 1501W        W 5701   7.639   6.318   2.702 -0.0626  0.2393  0.3065
 1502W        W 5702   7.404   5.694   1.873 -0.2756 -0.0234 -0.3882
 1503W        W 5703   0.776   2.048   0.818 -0.0765  0.2203  0.1685
 1504W        W 5704   3.078   4.573   1.543  0.5010  0.0249  0.4327
 1505W        W 5705   8.910   9.336   1.147 -0.2746 -0.2715 -0.0852
 1506W        W 5706   3.268   2.072   4.279  0.1899 -0.0094 -0.2893
 1507W        W 5707   3.171   4.994   2.260  0.1843  0.5480  0.1396
 1508W        W 5708   5.435  10.309   1.397  0.2060 -0.3652 -0.0145
 1509W        W 5709   7.541  10.443   3.414  0.0282  0.3578  0.1284
 1510W        W 5710   5.899   0.823   0.265  0.2582  0.1143 -0.4439
 1511W        W 5711   8.931   2.019   4.443 -0.1159  0.3246 -0.2432
 1512W        W 5712   4.648   2.629   3.664  0.1139  0.0438  0.0394
 1513W        W 5713   9.900   9.130   2.616  0.1234 -0.0833  0.1289
 1514W        W 5714   4.146   8.554   3.892 -0.1040  0.0229  0.2865
 1515W        W 5715   4.198   9.437   3.957  0.0947 -0.1755 -0.0109
 1516W        W 5716   4.677   3.367   3.984 -0.2441 -0.0528  0.0949
 1517W        W 5717   7.137   3.376   0.538  0.2306  0.0565  0.0830
 1518W        W 5718   7.223   5.843  10.026  0.0405  0.0480  0.0037
 1519W        W 5719   2.485   8.440  10.091 -0.2576  0.0806  0.1676
 1520W        W 5720   2.762   1.999  13.099 -0.1447  0.3324 -0.1282
 1521W        W 5721   8.148   9.040  12.334  0.0652 -0.0736 -0.1064
 1522W        W 5722   5.997   2.254   0.212  0.2465  0.2544 -0.2118
 1523W        W 5723   1.902   8.970  10.441  0.2391  0.1588 -0.2032
 1524W        W 5724   7.567   4.010   1.735 -0.0576  0.0016  0.0410
 1525W        W 5725   0.677   5.733   9.702  0.3394 -0.0971  0.2896
 1526W        W 5726   2.995   0.582  10.507  0.2378 -0.0365  0.1292
 1527W        W 5727   0.354   6.226   8.385 -0.0285 -0.3389 -0.0545
 1528W        W 5728   7.517   3.407  13.220  0.0791 -0.0894 -0.1334
 1529W        W 5729   6.715   7.609  11.231 -0.2357 -0.1374 -0.1486
 1530W        W 5730   4.382   8.678   9.513 -0.0525 -0.2658 -0.1962
 1531W        W 5731   4.021   3.234   1.098 -0.1524 -0.1853  0.1682
 1532W        W 5732   6.871   7.564   9.403  0.0770 -0.2359  0.1178
 1533W        W 5733   7.981   4.261  10.976  0.0122  0.4135  0.0251
 1534W        W 5734   8.972   2.738   1.614  0.1593  0.2877  0.2445
 1535W        W 5735   6.514   3.392   1.227 -0.2389 -0.0927 -0.0538
 1536W        W 5736   5.995   2.420   9.919 -0.3827 -0.1016 -0.0986
 1537W        W 5737   7.817   2.970  12.796  0.1500  0.0854 -0.3503
 1538W        W 5738   2.853   1.853   0.278 -0.2139 -0.0806  0.0100
 1539W        W 5739   0.103   9.469   2.671 -0.0598 -0.1124  0.2250
 1540W        W 5740   4.166   6.114  12.334  0.0557 -0.0969 -0.0827
 1541W        W 5741   3.234   3.781  10.930  0.2822 -0.0130  0.2279
 1542W        W 5742   4.431   1.257  10.027  0.0016 -0.1567  0.0161
 1543W        W 5743   8.977   1.085   1.494  0.1449  0.0284 -0.0916
 1544W        W 5744   7.641   1.011   4.151  0.2369 -0.1254  0.0122
 1545W        W 5745   6.851   5.721  12.288  0.1997  0.3212  0.1377
 1546W        W 5746   4.974   1.207  10.119  0.1085  0.4946 -0.0474
 1547W        W 5747   4.015   2.803   5.512 -0.2652 -0.0147  0.0298
 1548W        W 5748   4.038   3.704   2.882  0.0159 -0.1100 -0.0502
 1549W        W 5749   1.624   0.063  12.678  0.2675 -0.2654  0.2836
 1550W        W 5750   9.260   4.709   0.772 -0.2940  0.2206  0.3227
 1551W        W 5751   4.921   3.935   8.715 -0.2536 -0.1643  0.3641
 1552W        W 5752   2.270   4.266   1.203 -0.0344 -0.0651 -0.3408
 1553W        W 5753   5.024   3.007   4.057 -0.1029  0.0054 -0.2136
 1554W        W 5754   0.233  10.387   4.184 -0.0648 -0.0870 -0.2352
 1555W        W 5755   1.998   4.034   8.599  0.0418 -0.1047  0.0080
 1556W        W 5756   5.374   8.539   3.874 -0.2668  0.0421  0.2574
 1557W        W 5757   9.720   9.289   1.354  0.1460  0.0756  0.0030
 1558W        W 5758   4.533   3.530   5.068  0.3870 -0.2016 -0.1024
 1559W        W 5759   3.900   2.574   2.985 -0.0901 -0.0580 -0.1117
 1560W        W 5760   1.964   4.159  11.990 -0.0251  0.0731  0.1556
 1561W        W 5761   3.934  10.015  12.148  0.0602 -0.0862  0.0553
 1562W        W 5762   1.911   2.455   5.567 -0.0892 -0.1340  0.0143
 1563W        W 5763   8.947   5.188  12.722  0.4280  0.0520  0.0141
 1564W        W 5764   7.276   5.450   3.191 -0.0493  0.2380  0.2209
 1565W        W 5765   7.719   0.712  13.023 -0.1370  0.0552 -0.2493
 1566W        W 5766   1.890   5.736   2.080  0.5683  0.1522  0.2348
 1567W        W 5767   0.815   1.718   2.315  0.0965  0.4063 -0.1772
 1568W        W 5768  10.064  10.222  10.133 -0.3106  0.1264 -0.1848
 1569W        W 5769   5.439   7.441   1.899 -0.1205 -0.1946  0.4062
 1570W        W 5770   8.601   8.383  12.566  0.1799  0.0223  0.3932
 1571W        W 5771   2.022   5.509   9.855  0.0297  0.3172  0.0613
 1572W        W 5772  10.384   8.282   3.230 -0.0791 -0.0207 -0.1065
 1573W        W 5773   0.026   9.864   1.746 -0.2306 -0.1237 -0.0012
 1574W        W 5774   0.110   8.085  12.786  0.0326 -0.0314  0.1921
 1575W        W 5775   4.809   1.047  13.260  0.0015 -0.0918 -0.0658
 1576W        W 5776   9.861   7.977   2.093 -0.2139 -0.0938  0.1424
 1577W        W 5777   0.862   5.926  10.229 -0.0591 -0.2954  0.1344
 1578W        W 5778   6.488   5.846   3.822 -0.1922 -0.2787 -0.1183
 1579W        W 5779   2.622   0.995   1.273 -0.2477  0.0352  0.2514
 1580W        W 5780   5.689   3.406   3.826 -0.0081 -0.1111  0.1885
 1581W        W 5781   3.145   0.344   4.523 -0.2591 -0.1332 -0.0614
 1582W        W 5782   5.768   5.339  10.764 -0.0368  0.1489 -0.1101
 1583W        W 5783   6.134   1.823   0.002  0.1050 -0.1045  0.3358
 1584W        W 5784   6.195   4.766  12.016  0.1026  0.2677  0.2316
 1585W        W 5785   2.488   3.218  11.041  0.3264 -0.1086 -0.0899
 1586W        W 5786   3.107   9.440   4.670  0.4011  0.1392  0.2254
 1587W        W 5787   7.010   9.305   2.784  0.0617  0.2371  0.0827
 1588W        W 5788   5.721   8.790   1.454  0.0111  0.0556  0.1457
 1589W        W 5789   5.912   7.183   2.698  0.0752  0.1912 -0.1447
 1590W        W 5790   4.242   7.886   1.848 -0.1051 -0.0595 -0.0059
 1591W        W 5791   3.369   3.989  11.771 -0.2889 -0.0603  0.2613
 1592W        W 5792   4.903   9.842   4.494  0.1627 -0.3363  0.0647
 1593W        W 5793   5.370   0.464  10.661 -0.0453 -0.1366  0.1338
 1594W        W 5794   1.929   7.687   9.607  0.0092 -0.2306  0.1726
 1595W        W 5795   7.338   1.075   0.254  0.1597  0.0736 -0.0001
 1596W        W 5796   1.346   6.942  12.718  0.3901 -0.1902 -0.0616
 1597W        W 5797   2.606   5.392   3.353 -0.4197 -0.2394  0.1119
 1598W        W 5798   3.051   4.631   9.432  0.0129  0.1986  0.0961
 1599W        W 5799   6.632   5.052  13.302  0.2383  0.0738 -0.0645
 1600W        W 5800   6.881   5.400   9.193 -0.0380 -0.1606  0.0857
 1601W        W 5801   1.120   1.965   9.707  0.0130  0.1430  0.1362
 1602W        W 5802   2.004   0.879   1.637  0.0559  0.0913  0.0810
 1603W        W 5803   7.486   2.462   1.333  0.0287 -0.1156 -0.2232
 1604W        W 5804   8.466   9.355  13.326  0.1901  0.1085 -0.0752
 1605W        W 5805   1.059   8.087   9.267  0.1037  0.0557  0.0421
 1606W        W 5806   0.928   4.380  12.779  0.1803  0.1988  0.0210
 1607W        W 5807   5.468   4.523  10.623  0.0634  0.0929  0.1645
 1608W        W 5808   8.496   6.473  12.222 -0.0436  0.3534  0.1390
 1609W        W 5809   9.832   7.532   2.387 -0.1517  0.0418  0.2376
 1610W        W 5810   7.026   6.938  10.145  0.2165 -0.0396 -0.0585
 1611W        W 5811   6.759   3.380  12.730 -0.2676 -0.0248 -0.2590
 1612W        W 5812   4.767   1.132   4.398 -0.1826 -0.1062 -0.0347
 1613W        W 5813   1.253   4.785   2.625 -0.1905 -0.3197 -0.1465
 1614W        W 5814   0.304   6.162   3.413 -0.3369 -0.1026  0.2777
 1615W        W 5815   0.658   1.034  11.842  0.3459 -0.1668 -0.0584
 1616W        W 5816  10.130   4.119   2.219  0.1472  0.0434  0.3263
 1617W        W 5817   4.444   2.643  11.985  0.0725  0.0842 -0.1290
 1618W        W 5818   0.605   3.496  12.232 -0.0738  0.3318  0.3969
 1619W        W 5819   9.965   8.753  10.196  0.1237 -0.2981  0.3279
 1620W        W 5820   1.896   5.188   0.298 -0.2348  0.0829  0.0780
 1621W        W 5821   9.948   4.980   2.849 -0.0147  0.1309  0.2982
 1622W        W 5822   6.497   0.929  12.395 -0.2547  0.3393 -0.0580
 1623W        W 5823   9.644   8.432   9.275 -0.0482 -0.0703  0.2245
 1624W        W 5824   7.021   7.267   1.421  0.0695 -0.3651 -0.2041
 1625W        W 5825   7.415   4.523   2.914  0.1959 -0.1850  0.2409
 1626W        W 5826   3.331   1.705   0.384 -0.0295  0.1707  0.0692
 1627W        W 5827   4.697   6.187  12.324  0.0370  0.1942 -0.0889
 1628W        W 5828   3.892   3.902   3.305  0.1777 -0.2003 -0.2378
 1629W        W 5829   0.092   0.010  10.026 -0.2616 -0.0421  0.2260
 1630W        W 5830   7.464   1.442   1.847  0.1256  0.3759 -0.0267
 1631W        W 5831   0.284   3.046  11.036 -0.0412 -0.1062  0.1139
 1632W        W 5832   2.773   3.049   0.554  0.1398 -0.0775  0.1644
 1633W        W 5833   7.891   0.278  10.906 -0.1358  0.0256 -0.3008
 1634W        W 5834   0.118   8.939   1.503  0.0688 -0.2186  0.0810
 1635W        W 5835   6.315   3.202  12.150  0.2218  0.0720 -0.0414
 1636W        W 5836   3.242   4.837   4.251  0.1966  0.2824  0.2170
 1637W        W 5837   6.648   5.198   0.233  0.3563  0.1358  0.1442
 1638W        W 5838   1.057   9.878   4.188 -0.2012 -0.2202  0.0635
 1639W        W 5839   6.229   6.278   2.340  0.0678 -0.1856 -0.0447
 1640W        W 5840   2.678   0.297   2.490 -0.2494 -0.1675 -0.1024
 1641W        W 5841   4.619   8.219  13.045 -0.0343  0.3586  0.0618
 1642W        W 5842  10.357   6.076   2.848 -0.0515  0.1129  0.1515
 1643W        W 5843   4.880   2.960   3.350  0.2241  0.0578 -0.0357
 1644W        W 5844   5.179   3.726   0.652 -0.1230  0.2503  0.0515
 1645W        W 5845   8.755   8.291   2.547  0.0750  0.2590  0.0038
 1646W        W 5846   1.502   3.183  10.510  0.1384  0.1046  0.1353
 1647W        W 5847   5.327   8.950  12.234 -0.0466  0.0886  0.1566
 1648W        W 5848   3.702   6.692   4.858  0.3554 -0.3114  0.2086
 1649W        W 5849   8.118   0.348  12.901  0.0504 -0.0115  0.0951
 1650W        W 5850   4.512   6.400   9.951  0.0383 -0.1846 -0.1966
 1651W        W 5851   6.846   8.856   1.892  0.1159 -0.2152 -0.4946
 1652W        W 5852   9.576   5.704  12.104  0.0073 -0.1969 -0.2535
 1653W        W 5853   4.112   0.277   3.946  0.1361  0.2036  0.4283
 1654W        W 5854   3.569   9.961   1.201 -0.0098  0.0358  0.0538
 1655W        W 5855   0.337   3.325   3.656  0.0695 -0.2742  0.1541
 1656W        W 5856   5.000   2.236   0.010 -0.2614 -0.0140 -0.3142
 1657W        W 5857   3.910   9.177   2.592 -0.4299  0.0928 -0.0480
 1658W        W 5858   0.584  10.220   0.521  0.0406 -0.0977 -0.2043
 1659W        W 5859   2.905   7.208   1.074 -0.0810  0.0328  0.1509
 1660W        W 5860   1.025   6.828  11.290 -0.0392  0.0789 -0.0023
 1661W        W 5861   9.966   8.045   0.778 -0.1572  0.3051 -0.1086
 1662W        W 5862   8.406   2.356  12.817 -0.1133  0.0109  0.2049
 1663W        W 5863   6.663   9.599   0.790  0.1725 -0.0546  0.1139
 1664W        W 5864   8.968   3.286   0.003 -0.2476 -0.1555  0.1534
 1665W        W 5865   2.822   1.032  11.503 -0.1877 -0.1920 -0.3158
 1666W        W 5866   0.158   8.770   2.015  0.1775 -0.1093  0.1296
 1667W        W 5867   5.162   1.062   1.934 -0.0484 -0.1866 -0.1524
 1668W        W 5868   6.845   5.714   3.484 -0.0385  0.3112 -0.0525
 1669W        W 5869   4.905   3.911  10.921 -0.3421  0.0700  0.0758
 1670W        W 5870   6.587   5.295   3.453 -0.1732  0.1871 -0.0224
 1671W        W 5871   0.289   8.828   2.829  0.3753  0.1570  0.1708
 1672W        W 5872   9.662   1.402   3.232  0.1097 -0.0622  0.0167
 1673W        W 5873   3.774   7.795  10.049 -0.2512 -0.0718  0.1870
 1674W        W 5874   1.727   0.746   4.240 -0.1166  0.1217  0.0751
 1675W        W 5875   9.656   7.976  13.350  0.0527 -0.1062 -0.3766
 1676W        W 5876   5.075   5.635   4.016 -0.1016  0.3161  0.1110
 1677W        W 5877   4.327   9.116  10.968  0.2323  0.3907  0.2002
 1678W        W 5878   7.748   6.410   4.249 -0.2004  0.1327  0.1952
 1679W        W 5879   3.496   7.645   0.908  0.2182 -0.1850 -0.2120
 1680W        W 5880   3.054   3.167  10.972  0.1416  0.1061  0.0859
 1681W        W 5881  10.104   4.138   0.861 -0.0361 -0.0927 -0.1289
 1682W        W 5882   7.805   5.318   9.486  0.1310 -0.4760 -0.0971
 1683W        W 5883  10.280   1.907   8.384 -0.2207  0.2278 -0.0691
 1684W        W 5884   4.779   4.974   1.147  0.3871 -0.4419 -0.1215
 1685W        W 5885   2.618   8.340   4.137  0.0041  0.0914 -0.0175
 1686W        W 5886   1.783   7.370  12.008  0.2261 -0.1807 -0.0995
 1687W        W 5887   5.351   0.735   2.474  0.0684 -0.3592 -0.4761
 1688W        W 5888   9.817   0.029  10.674  0.0833 -0.3815  0.2309
 1689W        W 5889   6.028   6.836  10.193  0.0064 -0.2451 -0.2176
 1690W        W 5890   7.083   2.571   1.665 -0.0641 -0.1761 -0.0241
 1691W        W 5891   2.135   9.023   0.500  0.1618  0.1759  0.0158
 1692W        W 5892   2.729   3.187   9.217  0.0447  0.4823  0.3824
 1693W        W 5893   3.099   6.231  10.559  0.0887  0.3791  0.2565
 1694W        W 5894  10.131   8.778   9.441  0.1270 -0.0632 -0.0677
 1695W        W 5895   2.989   1.702   4.099 -0.2750 -0.0422  0.1802
 1696W        W 5896   9.789   7.308   9.298  0.1544  0.0600  0.0456
 1697W        W 5897   4.514   0.158   9.461 -0.0730 -0.0601  0.2236
 1698W        W 5898   8.803   5.923   0.562 -0.0692  0.2161 -0.2979
 1699W        W 5899   3.259   3.401  12.298 -0.0655  0.0582  0.2219
 1700W        W 5900   8.588   2.726   4.505 -0.0560 -0.2204 -0.1305
 1701W        W 5901   4.771   7.575   8.187  0.0176  0.0719 -0.1949
 1702W        W 5902   4.229   2.247   2.486 -0.2508  0.2878  0.1732
 1703W        W 5903   4.904   9.654  11.321 -0.2503  0.1261 -0.0039
 1704W        W 5904   9.096   2.816   4.368 -0.1364 -0.0747 -0.2151
 1705W        W 5905   7.925   6.878  11.498 -0.0330 -0.1325  0.1641
 1706W        W 5906   0.316   6.001  10.968 -0.0028  0.1612  0.1369
 1707W        W 5907   4.606   6.215   0.556 -0.0967  0.0304 -0.0475
 1708W        W 5908   9.694   8.045   0.348 -0.3392 -0.0154  0.0128
 1709W        W 5909   4.689   3.311  12.812  0.1254  0.0906  0.1473
 1710W        W 5910   6.189   1.335   0.148 -0.1964  0.2118  0.3424
 1711W        W 5911   1.578   1.517  13.333 -0.3335 -0.0261  0.1704
 1712W        W 5912   4.897   0.607   2.718 -0.0975 -0.0201 -0.0021
 1713W        W 5913   9.747   1.024   0.803  0.1233  0.1413  0.1010
 1714W        W 5914   1.334   0.298   2.616  0.0922 -0.3038 -0.2865
 1715W        W 5915   5.781   2.349  10.702 -0.1095  0.1664  0.0898
 1716W        W 5916   8.880   5.845   4.192  0.1003 -0.0490  0.1781
 1717W        W 5917   7.103   1.563   2.176 -0.4729 -0.0079 -0.0511
 1718W        W 5918   1.062   7.230   2.427  0.2117  0.0860 -0.1749
 1719W        W 5919   2.777   0.212  13.349 -0.3499  0.0082  0.1043
 1720W        W 5920  10.173   1.030  13.192  0.0523 -0.1603  0.1027
 1721W        W 5921   8.095   9.376   0.679  0.0643 -0.0245  0.1508
 1722W        W 5922   5.132   6.828   1.342  0.0023 -0.0364 -0.4989
 1723W        W 5923   9.741   2.781  11.215 -0.1670  0.2267  0.2815
 1724W        W 5924   4.144  10.326  11.455  0.1786 -0.0214 -0.1053
 1725W        W 5925   0.826   0.798  12.273  0.0121  0.2626  0.0031
 1726W        W 5926   4.542   5.928   1.043 -0.0551  0.0509 -0.3266
 1727W        W 5927   5.965   4.731   0.552  0.1463 -0.1012  0.3400
 1728W        W 5928   0.046   6.796   9.444 -0.1837  0.1953  0.0263
 1729W        W 5929   8.460   1.741  10.983  0.1813 -0.0684  0.0261
 1730W        W 5930   8.290   3.032  12.459 -0.3086  0.0510 -0.0878
 1731W        W 5931   1.775   6.009  10.416  0.0050  0.1403  0.1272
 1732W        W 5932   2.693   0.980  10.446  0.1608  0.1026  0.3837
 1733W        W 5933  10.328   6.185   8.836 -0.2132  0.0936  0.2084
 1734W        W 5934  10.421   2.606  10.446  0.0659  0.3880 -0.1606
 1735W        W 5935   3.957   5.436   4.287 -0.1043  0.0308  0.0550
 1736W        W 5936  10.286   1.304   4.164 -0.0989  0.1534 -0.0005
 1737W        W 5937   9.818   2.002   2.329 -0.0249 -0.0324  0.3548
 1738W        W 5938   5.256   4.126   0.196 -0.2089  0.2423  0.0871
 1739W        W 5939   0.075   2.422   3.669  0.0362 -0.0274  0.1183
 1740W        W 5940   8.637   1.454  13.102  0.2527  0.3349 -0.0614
 1741W        W 5941   9.646   8.711   2.768 -0.1394  0.1207 -0.0818
 1742W        W 5942   0.051   7.639   3.411 -0.4146  0.3811  0.1285
 1743W        W 5943   1.831   7.053  11.029 -0.0739 -0.0864  0.2379
 1744W        W 5944   1.932   3.653   0.492  0.2377  0.1909 -0.3087
 1745W        W 5945   3.087   7.880   4.290 -0.1406 -0.4403 -0.0427
 1746W        W 5946   0.054   8.303  11.983  0.0361  0.2173  0.1820
 1747W        W 5947   4.090   1.384   2.733  0.1935  0.2347 -0.2020
 1748W        W 5948   1.057   3.559   5.688 -0.3162  0.2489 -0.4926
 1749W        W 5949   4.283   1.247  11.821  0.0729 -0.0180 -0.0075
 1750W        W 5950   3.210   6.817   3.003  0.1147 -0.1205 -0.0505
 1751W        W 5951   7.436   5.857   3.020  0.3644 -0.1707  0.1902
 1752W        W 5952   4.737   7.006   3.046 -0.1527  0.0923 -0.2284
 1753W        W 5953   1.068   7.017   4.192  0.0441 -0.2912 -0.0861
 1754W        W 5954  10.254   6.816   3.524 -0.0628 -0.0980 -0.0194
 1755W        W 5955  10.437   1.375   1.053  0.0635  0.1025 -0.0903
 1756W        W 5956   2.317   1.038  11.336  0.0677 -0.0957 -0.2330
 1757W        W 5957   3.102   2.646   4.096  0.0790 -0.1506  0.2059
 1758W        W 5958   7.713   1.666  12.747 -0.3292 -0.1076  0.1413
 1759W        W 5959   8.799   0.205  12.357 -0.0415  0.1795 -0.1063
 1760W        W 5960   5.293   1.237   9.091  0.2776  0.0691  0.0540
 1761W        W 5961   1.579   1.048  10.883 -0.0581 -0.1751 -0.0090
 1762W        W 5962   6.507   8.746   2.298  0.1518  0.2330 -0.0349
 1763W        W 5963   2.505   3.109   2.282  0.3288 -0.0917 -0.0470
 1764W        W 5964   5.286   9.642  13.169  0.0704 -0.1707  0.0691
 1765W        W 5965   7.841   9.965   2.474  0.2826 -0.4173 -0.0400
 1766W        W 5966   2.866   9.607   4.192 -0.0989 -0.1604 -0.2276
 1767W        W 5967  10.435   1.204   1.543  0.1411 -0.2699  0.1743
 1768W        W 5968   6.470   8.857   1.201  0.4519  0.1812  0.1174
 1769W        W 5969   8.519   6.204   1.927  0.0850 -0.1975 -0.0884
 1770W        W 5970   8.722   6.792   9.634  0.1990 -0.3568  0.4022
 1771W        W 5971   0.573   0.292  12.295 -0.0938 -0.2633  0.1522
 1772W        W 5972   3.407   0.694  12.777  0.0886  0.2283 -0.2040
 1773W        W 5973   4.494   0.094  10.102  0.1289  0.1887 -0.3206
 1774W        W 5974   3.961   4.526   2.472  0.3067  0.1309 -0.1333
 1775W        W 5975   3.306   8.358   2.610 -0.0279  0.0282 -0.1512
 1776W        W 5976   5.072   3.269   3.012  0.1379  0.4017  0.1842
 1777W        W 5977   2.127   1.004  10.886 -0.2489  0.0178 -0.1527
 1778W        W 5978   7.143  10.308   0.154 -0.0413 -0.1733  0.2380
 1779W        W 5979   0.439   3.228   4.649 -0.0154 -0.0270 -0.5184
 1780W        W 5980   6.003   0.073   2.847 -0.0769 -0.2188 -0.3192
 1781W        W 5981   1.260   9.786   3.750 -0.2673  0.4467  0.0391
 1782W        W 5982   4.508   0.810  11.053 -0.1698 -0.1583 -0.3522
 1783W        W 5983   2.703   4.509   9.883  0.1360 -0.1961 -0.0759
 1784W        W 5984   0.964   6.760   1.761  0.0450 -0.0810  0.2168
 1785W        W 5985   4.919   2.306  10.886  0.1139 -0.0928 -0.1031
 1786W        W 5986   2.287   1.709   1.962 -0.3167 -0.2374 -0.1918
 1787W        W 5987   4.892   9.180   9.433  0.0792  0.0832 -0.0462
 1788W        W 5988   5.816   6.486  11.152 -0.1234 -0.0642  0.0708
 1789W        W 5989   9.240   2.724   2.851  0.1665  0.3638  0.1938
 1790W        W 5990  10.334   6.946   0.287 -0.3168 -0.1375 -0.1043
 1791W        W 5991   9.548   1.045   3.602 -0.2368  0.1927 -0.0453
 1792W        W 5992   7.227   7.270  12.790  0.1905  0.2188 -0.1878
 1793W        W 5993   7.980   6.932  10.411 -0.1550  0.0926  0.2368
 1794W        W 5994   1.586   3.956   0.337 -0.1182  0.0931  0.1585
 1795W        W 5995   4.910   7.479   2.169 -0.2861 -0.2621 -0.3097
 1796W        W 5996   3.741   1.778   9.574 -0.0259  0.0582 -0.1234
 1797W        W 5997   7.339  10.016  10.539  0.2562 -0.5277  0.0347
 1798W        W 5998   4.185   0.773  12.155  0.2297  0.1544  0.1239
 1799W        W 5999   7.266   4.946   2.593 -0.1746  0.1362  0.0129
 1800W        W 6000   2.751   7.842   2.371  0.0288  0.5214  0.0363
 1801W        W 6001   1.453   7.185   1.500  0.1036  0.3162  0.0407
 1802W        W 6002  10.030   9.078  12.409  0.1308 -0.1753 -0.0484
 1803W        W 6003   6.651   0.213   1.080 -0.2174 -0.0683  0.0483
 1804W        W 6004   4.487   5.352  10.927  0.0886  0.0372  0.1450
 1805W        W 6005   4.660   9.169  10.461 -0.0164 -0.1499 -0.0319
 1806W        W 6006   8.824   3.490   8.446 -0.4609 -0.0368  0.1387
 1807W        W 6007   8.718  10.026   3.944  0.0492  0.0139 -0.0634
 1808W        W 6008   4.033   1.467   4.147 -0.0947  0.0351  0.0734
 1809W        W 6009   7.861   0.976   1.521  0.0568  0.1436  0.0220
 1810W        W 6010   5.720   7.946   9.546  0.2312  0.1842  0.0989
 1811W        W 6011   6.897   2.874  12.032 -0.2763 -0.1289 -0.1276
 1812W        W 6012   5.478   3.355   9.848  0.1441  0.0196 -0.1141
 1813W        W 6013   0.022   2.509   0.252 -0.0475  0.0613 -0.0498
 1814W        W 6014   1.185   8.054   3.296  0.2385  0.2898 -0.0653
 1815W        W 6015   0.702   9.393  11.990 -0.1129  0.1071 -0.2124
 1816W        W 6016   4.846   9.132   0.588 -0.1612 -0.1129  0.0028
 1817W        W 6017   9.196   4.613   0.317  0.0713  0.0574  0.0871
 1818W        W 6018   0.893   5.558   8.714 -0.0083 -0.0862 -0.0497
 1819W        W 6019   4.614   2.145  12.315 -0.0601 -0.2949  0.1430
 1820W        W 6020   5.494   5.545  10.306  0.2144  0.3091 -0.0492
 1821W        W 6021   1.038   5.480   4.702  0.1467 -0.0169  0.3492
 1822W        W 6022   5.802   2.051  13.283 -0.2721 -0.1448 -0.1144
 1823W        W 6023   4.645   2.873  10.245 -0.1466 -0.0130  0.0899
 1824W        W 6024   5.767   8.494  11.211 -0.0303  0.2496  0.0550
 1825W        W 6025   1.742   6.341  10.014  0.0242 -0.0048  0.1367
 1826W        W 6026   3.471   7.180  13.320  0.2982 -0.4387 -0.0854
 1827W        W 6027   5.352   5.025   9.177  0.1108 -0.0213  0.1624
 1828W        W 6028   2.646   6.903   1.872  0.1197  0.1765  0.2802
 1829W        W 6029   3.945   5.764   3.821  0.3568  0.1970  0.0268
 1830W        W 6030   5.061   0.087  10.744 -0.1145 -0.0592 -0.2125
 1831W        W 6031   1.591   2.342  10.360  0.0289 -0.1135  0.1383
 1832W        W 6032   6.166   9.658   1.058 -0.2630 -0.0505 -0.2299
 1833W        W 6033   0.518   6.652   9.498  0.0609 -0.2156 -0.1146
 1834W        W 6034   0.597   6.831  11.067 -0.0284 -0.1036 -0.2463
 1835W        W 6035   1.629   7.770   4.162  0.0630 -0.1152  0.0454
 1836W        W 6036   5.670  10.209  13.506  0.1669  0.1754 -0.1190
 1837W        W 6037   7.115   7.441   0.142 -0.2682 -0.0685 -0.2087
 1838W        W 6038   6.412   5.104   4.284 -0.0266  0.1135  0.0427
 1839W        W 6039   7.397   9.498  13.172 -0.1750 -0.2485  0.2512
 1840W        W 6040   0.791   6.922   8.816  0.0504  0.0745  0.2087
 1841W        W 6041   7.206   3.196   2.928  0.1155 -0.2373  0.0627
 1842W        W 6042   3.280   0.513   1.030 -0.0023  0.0545 -0.1375
 1843W        W 6043   1.111   9.425   3.534  0.0425  0.1456 -0.1274
 1844W        W 6044   7.307   0.400  13.206 -0.4603 -0.1745  0.1992
 1845W        W 6045   9.393   5.027   1.312 -0.2001  0.0378  0.0283
 1846W        W 6046  10.252   1.894   9.792 -0.2067  0.1221 -0.1107
 1847W        W 6047   3.373   4.957   1.344 -0.1280 -0.2505 -0.1194
 1848W        W 6048   1.207   7.582  12.010 -0.1654  0.1871  0.2400
 1849W        W 6049   0.875   3.481  11.156 -0.0592 -0.0298  0.4376
 1850W        W 6050   1.409   9.082   3.723  0.0303  0.5114 -0.3407
 1851W        W 6051   1.351   6.149   3.682 -0.1761 -0.0057 -0.2058
 1852W        W 6052   7.148   5.917   9.229  0.1129 -0.2699 -0.0920
 1853W        W 6053   1.570   4.378   0.623 -0.2285  0.0797 -0.1325
 1854W        W 6054   3.020   4.901  13.092 -0.0523  0.0054  0.1326
 1855W        W 6055   9.214   1.535  10.287 -0.1231 -0.1311  0.1456
 1856W        W 6056   6.054   8.579   1.990  0.1805  0.1728 -0.0585
 1857W        W 6057   3.758   9.457   0.903 -0.0343  0.0334  0.1173
 1858W        W 6058   2.983   2.363  10.879  0.2253  0.0175 -0.1675
 1859W        W 6059   6.039   2.393  11.212  0.0738 -0.1942  0.1236
 1860W        W 6060   1.184   5.086   1.691  0.0624  0.0821  0.0202
 1861W        W 6061   0.992   8.011  11.849  0.3313 -0.3581  0.2637
 1862W        W 6062   0.815   3.453   3.820  0.1411  0.1632  0.3558
 1863W        W 6063   4.487   1.608   4.357 -0.2145  0.2717  0.4149
 1864W        W 6064   2.904   1.919  10.538 -0.2334 -0.0105 -0.1322
 1865W        W 6065   8.242   5.471  10.323 -0.0205 -0.0606  0.0285
 1866W        W 6066   0.947   0.242  10.887 -0.1295 -0.1362 -0.0202
 1867W        W 6067   6.652   1.014   0.216  0.1748  0.4355 -0.1696
 1868W        W 6068   6.035   3.778  12.815  0.0048 -0.1474 -0.1512
 1869W        W 6069   1.295   1.888   0.908 -0.0882  0.0056  0.1929
 1870W        W 6070   4.563   6.976  10.030  0.0754 -0.2059  0.2368
 1871W        W 6071   7.741   3.934  13.076  0.0349  0.0966 -0.0484
 1872W        W 6072   6.004   4.229   0.489  0.4277 -0.0996 -0.0232
 1873W        W 6073   0.517   0.265   9.150 -0.3461  0.0120  0.0888
 1874W        W 6074   2.116   6.581   0.473  0.1635  0.0885  0.2717
 1875W        W 6075   1.081   3.686   4.117 -0.1924 -0.1087  0.1483
 1876W        W 6076   9.888   6.968   2.733 -0.2469 -0.1251  0.4349
 1877W        W 6077   9.192   2.559  12.575 -0.2386  0.0590  0.3726
 1878W        W 6078   3.497   2.486  12.145  0.3292 -0.2606  0.2692
 1879W        W 6079   9.242   5.777   8.590  0.1188 -0.1656  0.1867
 1880W        W 6080   2.518   2.321  10.796 -0.0824  0.1599  0.1808
 1881W        W 6081   9.314   3.068   3.332  0.1632  0.1071 -0.4026
 1882W        W 6082   5.474   0.720   4.036 -0.3602 -0.2582 -0.0898
 1883W        W 6083   5.240   8.841   1.683 -0.1340 -0.1319 -0.0489
 1884W        W 6084   8.526   8.324  11.756 -0.2129  0.1515 -0.1101
 1885W        W 6085   1.793   2.408   2.987  0.1202  0.2181  0.1041
 1886W        W 6086  10.069   1.553   3.776  0.1774  0.1229 -0.0373
 1887W        W 6087   4.335   5.801   1.543  0.0083 -0.2953 -0.1358
 1888W        W 6088   5.264   0.770  10.104 -0.0763  0.1161  0.0952
 1889W        W 6089   0.489   5.894   0.662  0.2153  0.1149 -0.3075
 1890W        W 6090   2.218   9.260   9.507  0.5619  0.1141  0.0976
 1891W        W 6091   4.455   5.919   2.645  0.0407 -0.0390 -0.2774
 1892W        W 6092   9.236   4.124   3.357  0.1638  0.0021  0.4456
 1893W        W 6093   5.658   5.875   2.817  0.1314 -0.0050 -0.1141
 1894W        W 6094   6.120   3.806   5.530 -0.0044  0.4099 -0.2469
 1895W        W 6095   3.732   2.977   0.103 -0.3884  0.1073 -0.0413
 1896W        W 6096   9.856   9.517  12.961  0.1321 -0.0796  0.2838
 1897W        W 6097   6.009   9.736   3.155 -0.1276  0.1169  0.1885
 1898W        W 6098   5.856   9.984   9.335  0.0964  0.2026  0.1086
 1899W        W 6099   9.400   6.506   4.553  0.0467 -0.3026 -0.2926
 1900W        W 6100   1.331   4.137  12.301 -0.0759  0.0182  0.2968
 1901W        W 6101   2.726   5.280  13.173 -0.1121 -0.0128  0.2222
 1902W        W 6102   0.729   7.211   4.961  0.0208  0.0545 -0.4524
 1903W        W 6103   1.796   3.326   1.991  0.1560 -0.1659  0.0341
 1904W        W 6104   3.576   1.992   1.727 -0.0361  0.0985 -0.1693
 1905W        W 6105  10.306   1.819  10.297  0.2095 -0.0278  0.1709
 1906W        W 6106   8.820   4.314  11.998 -0.0096  0.0617  0.1055
 1907W        W 6107   3.252   3.576   2.489 -0.1815 -0.2111  0.1203
 1908W        W 6108   7.633   9.902  13.383  0.1091  0.1783  0.1028
 1909W        W 6109   1.538   8.466   3.793 -0.2509 -0.0542  0.0721
 1910W        W 6110   5.727   1.548  13.114 -0.0348 -0.0440 -0.1085
 1911W        W 6111   3.547   3.046   1.445  0.0592 -0.4213  0.1101
 1912W        W 6112   8.329   9.045  10.216 -0.1125 -0.0560  0.3990
 1913W        W 6113   2.302   3.843  12.829  0.0560 -0.2386 -0.3060
 1914W        W 6114   3.904   9.858  12.628  0.0896 -0.1020  0.0615
 1915W        W 6115   8.570   3.722   3.976 -0.1470 -0.2388 -0.1080
 1916W        W 6116   5.416   1.520  10.853  0.2470  0.1065  0.0950
 1917W        W 6117   9.176   7.841   1.239  0.0575 -0.1202 -0.0452
 1918W        W 6118   0.924   3.316   0.571  0.0984  0.2022 -0.1340
 1919W        W 6119   2.329   6.455  11.784  0.4221 -0.0127  0.1085
 1920W        W 6120   2.858   8.860  12.917  0.0188  0.3101  0.0217
 1921W        W 6121   0.071   5.240   2.331 -0.0217  0.0426  0.0040
 1922W        W 6122   3.150   1.081  10.592 -0.1274 -0.0719 -0.1570
 1923W        W 6123   4.243   4.787   2.191  0.0002 -0.0210  0.1337
 1924W        W 6124   1.704   0.166   2.314 -0.1288 -0.0731 -0.2580
 1925W        W 6125   9.157   2.392  11.745 -0.1645 -0.1748  0.1629
 1926W        W 6126   6.824   8.475   1.447 -0.0761  0.0637  0.0871
 1927W        W 6127   2.556   0.767   3.418  0.3025 -0.3094 -0.2142
 1928W        W 6128   0.260   3.445  11.883 -0.2212  0.1549 -0.1834
 1929W        W 6129   2.441   7.282  10.920 -0.1328 -0.1811 -0.0989
 1930W        W 6130  10.095   3.602  10.624  0.0213 -0.0370  0.2319
 1931W        W 6131   6.059   0.611   1.790  0.1583  0.0966 -0.2806
 1932W        W 6132   1.047   8.526  10.807  0.0588 -0.1287 -0.0453
 1933W        W 6133   6.338   6.979  10.576  0.1410  0.1135  0.0009
 1934W        W 6134   8.001   2.713   2.665 -0.0446  0.2765 -0.2492
 1935W        W 6135   7.039  10.190  10.123 -0.0067  0.0844  0.2294
 1936W        W 6136   7.477   6.815   0.527  0.0192 -0.0270  0.1299
 1937W        W 6137  10.153   2.150   2.732 -0.1059  0.1752  0.1150
 1938W        W 6138   7.160   2.373   3.062  0.1103 -0.2336 -0.6224
 1939W        W 6139   9.821   3.288   8.473  0.2523  0.0268 -0.1531
 1940W        W 6140   8.143   2.547  12.429 -0.1888  0.1171 -0.2665
 1941W        W 6141   8.486   5.655  11.624  0.0697 -0.2660  0.1547
 1942W        W 6142   2.291   1.789   0.786 -0.0631  0.1938 -0.1830
 1943W        W 6143   8.000   4.665  12.164  0.3007 -0.1771 -0.1656
 1944W        W 6144   9.970   1.805   3.309 -0.0282 -0.2353 -0.1704
 1945W        W 6145   2.583   8.734  12.498  0.1494 -0.2166  0.2256
 1946W        W 6146   9.039   8.309   1.185 -0.2117 -0.1737 -0.1537
 1947W        W 6147   1.157   5.638   4.214 -0.2301  0.0975 -0.3262
 1948W        W 6148   2.903   4.202  12.155  0.2175  0.3163 -0.0910
 1949W        W 6149   0.566   5.742   3.356  0.2452  0.2210  0.0561
 1950W        W 6150   0.199   8.047   2.143 -0.2960  0.1822  0.1014
 1951W        W 6151   3.758   9.377  12.985 -0.1764 -0.1954 -0.2785
 1952W        W 6152   0.547   8.394   2.968  0.3012 -0.1961 -0.0634
 1953W        W 6153   4.557   3.804   2.932 -0.0242 -0.1704 -0.0289
 1954W        W 6154   6.070   4.665   0.024 -0.0512 -0.1748 -0.0745
 1955W        W 6155   2.252   7.457  12.856  0.0265  0.1150 -0.0330
 1956W        W 6156   6.031   4.968   0.999  0.0458  0.0561  0.2098
 1957W        W 6157   4.830   9.826  13.449 -0.4349  0.2131  0.2548
 1958W        W 6158   4.658   9.005   3.183 -0.1466 -0.0865  0.1421
 1959W        W 6159  10.268   9.318   0.257  0.2814  0.1844 -0.1473
 1960W        W 6160  10.389   3.308   1.297  0.3550 -0.3447  0.0964
 1961W        W 6161   0.569   4.316   2.143 -0.0142 -0.1282  0.0333
 1962W        W 6162   5.795   8.581   1.005  0.1742 -0.0581  0.2791
 1963W        W 6163   2.762   4.149   1.259  0.0531  0.0906 -0.2985
 1964W        W 6164   3.417   6.721  12.229 -0.2989 -0.0230  0.1650
 1965W        W 6165   0.900   9.940   9.436  0.0758 -0.1530 -0.2867
 1966W        W 6166   4.928   4.977   1.716  0.0922 -0.2574  0.0600
 1967W        W 6167   1.832   2.400   9.462 -0.1954  0.0316 -0.3736
 1968W        W 6168   7.392   6.054   9.619  0.2286  0.2329  0.1248
 1969W        W 6169   5.168  10.282  12.282  0.2700  0.1618  0.1186
 1970W        W 6170   2.629   3.794  10.436 -0.0883  0.3333 -0.1540
 1971W        W 6171  10.256   6.533   0.670 -0.0642 -0.1451 -0.2203
 1972W        W 6172   8.809   8.092   1.770  0.0485  0.1575 -0.0081
 1973W        W 6173   8.548   6.392   9.465 -0.0327  0.1694  0.0007
 1974W        W 6174   9.676   4.346  12.760 -0.3108  0.2184 -0.2420
 1975W        W 6175   6.571   7.840   2.695  0.1401  0.1523  0.1355
 1976W        W 6176   8.283   8.950  10.697 -0.1163 -0.2777 -0.0645
 1977W        W 6177   8.015   5.412  11.181  0.2027  0.1570 -0.1717
 1978W        W 6178   0.222   9.786  12.153  0.1687  0.0809  0.0743
 1979W        W 6179   7.779   5.614   3.701 -0.4692 -0.1062 -0.1957
 1980W        W 6180   9.361   5.248  13.072  0.1744 -0.1906 -0.1751
 1981W        W 6181   3.317  10.112   3.089 -0.1107 -0.2668 -0.0959
 1982W        W 6182  10.356   1.794   4.245 -0.4108 -0.1689  0.3610
 1983W        W 6183   5.558   6.063  11.263  0.1015  0.0389 -0.0002
 1984W        W 6184   3.881   9.160   8.776 -0.1064  0.2337  0.0669
 1985W        W 6185   6.017   6.222   9.859  0.1201 -0.0365  0.0694
 1986W        W 6186   5.927   4.762   3.407 -0.1616 -0.1926 -0.2362
 1987W        W 6187   5.766  10.311   9.789  0.3516 -0.1022 -0.0912
 1988W        W 6188   8.111   8.951  13.255  0.1708  0.0743 -0.5275
 1989W        W 6189   6.909   4.355   2.208 -0.1274  0.2228 -0.2586
 1990W        W 6190   0.929   3.186   4.868  0.0912  0.0448 -0.0115
 1991W        W 6191   0.098   2.148   1.792  0.0654 -0.0821  0.4750
 1992W        W 6192   0.989   6.804  12.388  0.0935  0.3450  0.2431
 1993W        W 6193   4.169   4.146  12.421 -0.1908 -0.5068  0.3381
 1994W        W 6194   6.641   2.505   1.947  0.0178  0.2387 -0.3047
 1995W        W 6195   3.763   0.428   9.907 -0.1004 -0.0564  0.1253
 1996W        W 6196   0.025   8.835  11.161  0.1943  0.1129  0.1538
 1997W        W 6197   1.002   8.384   1.632 -0.3942  0.0670  0.0865
 1998W        W 6198   9.369   8.526  10.877 -0.1063 -0.1149 -0.0905
 1999W        W 6199   0.858   5.285  13.522 -0.0696  0.2194  0.1906
 2000W        W 6200   0.670   7.607   0.005 -0.5309  0.1760 -0.0159
 2001W        W 6201  10.314   3.503   2.998 -0.4283 -0.0483 -0.1320
 2002W        W 6202   2.617   9.304  10.775  0.2799  0.0826 -0.1955
 2003W        W 6203   9.462   3.956   9.135  0.0231 -0.1915  0.0311
 2004W        W 6204   9.499   2.213   9.339 -0.0015  0.0983  0.1151
 2005W        W 6205  10.255   4.848  10.527  0.3238  0.0006 -0.0716
 2006W        W 6206   5.786   7.958  13.003  0.2971  0.2733 -0.0709
 2007W        W 6207   7.995   2.887   9.235 -0.1628  0.0887  0.1412
 2008W        W 6208   7.318   2.926  10.357  0.3361 -0.0081 -0.0050
 2009W        W 6209   5.984   7.854   3.571 -0.1440  0.2596 -0.3004
 2010W        W 6210  10.189   4.758   2.371  0.2167  0.0653  0.0910
 2011W        W 6211   2.323   0.572  11.149  0.2064  0.0244  0.0071
 2012W        W 6212   5.660   9.122   0.987 -0.1657  0.2382 -0.0291
 2013W        W 6213   5.221   7.063  12.990 -0.1372 -0.0251 -0.0656
 2014W        W 6214   3.028   0.811  12.399  0.0010 -0.2694  0.0620
 2015W        W 6215   4.980   3.936   3.889 -0.2500 -0.1515  0.1810
 2016W        W 6216   4.915   0.698  10.459  0.2361  0.2209  0.3286
 2017W        W 6217   1.291   3.277   1.517  0.0310 -0.2302 -0.0789
 2018W        W 6218   6.728   3.390   2.865  0.0717  0.3212  0.4257
 2019W        W 6219   8.074   6.621   4.593  0.1772 -0.0151  0.1145
 2020W        W 6220   4.076   0.909  10.767  0.2020  0.0479  0.1457
 2021W        W 6221   0.231   5.925   4.735 -0.1441  0.1765  0.1342
 2022W        W 6222   2.302   4.917   1.650 -0.1874  0.2681 -0.1454
 2023W        W 6223   6.409   4.383   2.343 -0.0856 -0.0488 -0.2314
 2024W        W 6224   3.781   0.411   0.949 -0.2400  0.2969 -0.2621
 2025W        W 6225   3.345   1.325   3.742 -0.0113 -0.1851 -0.1795
 2026W        W 6226   2.220   8.089  10.314 -0.3860  0.0299  0.2336
 2027W        W 6227  10.139   0.691  12.704  0.1011 -0.1303  0.1914
 2028W        W 6228   5.327   3.055   3.634 -0.0856 -0.0580  0.2210
 2029W        W 6229   0.957   0.371   4.222  0.0485 -0.0856  0.0903
 2030W        W 6230   5.352   9.878  11.467 -0.0897  0.2877  0.0226
 2031W        W 6231  10.009   4.534   5.596  0.0787 -0.0901  0.1124
 2032W        W 6232   7.577   6.606  11.243 -0.1168  0.2156 -0.2985
 2033W        W 6233   6.759   6.450   3.529 -0.0619  0.0622  0.0449
 2034W        W 6234   4.405  10.278   3.959 -0.0726  0.0653 -0.0931
 2035W        W 6235   0.483   6.828  12.240 -0.0422 -0.0699 -0.1114
 2036W        W 6236   6.223   7.081  11.880  0.1375  0.0542  0.2817
 2037W        W 6237  10.231   4.443  11.568  0.1650  0.2570 -0.1566
 2038W        W 6238   1.906   5.847  13.109 -0.2766 -0.3547  0.2477
 2039W        W 6239   2.941   8.111   1.613  0.2860 -0.4581  0.1231
 2040W        W 6240   0.904   1.266   2.061 -0.0502 -0.1806  0.3732
 2041W        W 6241   2.704   5.734   2.935 -0.2023 -0.2203  0.0736
 2042W        W 6242   5.549   4.308   4.135  0.1187  0.2209  0.0147
 2043W        W 6243   1.333   6.625  12.056  0.1093 -0.0656  0.1956
 2044W        W 6244   1.527   7.877  12.815  0.0036  0.2317  0.3453
 2045W        W 6245   7.651   3.767  12.579  0.0405 -0.1346  0.1784
 2046W        W 6246   9.629   0.040  12.577  0.2409  0.2538 -0.0594
 2047W        W 6247  10.159   1.217   0.131 -0.0769 -0.1034 -0.1975
 2048W        W 6248   5.015   8.422  10.139  0.4079  0.1322  0.0536
 2049W        W 6249   7.574   1.115  13.323  0.2113 -0.0354 -0.0491
 2050W        W 6250   3.903   6.571   0.306 -0.2298 -0.3207 -0.0200
 2051W        W 6251   3.742   2.613  11.096  0.0708  0.2062 -0.1544
 2052W        W 6252   5.729   9.865   0.641 -0.2223 -0.0203  0.0235
 2053W        W 6253   4.511   2.221   2.916 -0.1663  0.0296  0.3305
 2054W        W 6254   2.812   3.195  12.425 -0.2479 -0.0733 -0.1480
 2055W        W 6255   0.527   4.016  11.404  0.2919  0.2010 -0.0286
 2056W        W 6256  10.092   7.367  11.823 -0.0295 -0.1276  0.4658
 2057W        W 6257   1.171   4.746  12.248  0.0230  0.0155  0.0789
 2058W        W 6258   1.522   5.049  11.970 -0.2139  0.1272 -0.0256
 2059W        W 6259   7.592   6.461   3.210 -0.1021 -0.0254  0.2148
 2060W        W 6260   5.600   2.487  12.599 -0.3015 -0.0091  0.4485
 2061W        W 6261   6.406   9.801  10.240  0.0593  0.0123  0.0081
 2062W        W 6262   1.024   0.822  11.559  0.1507  0.0456  0.0842
 2063W        W 6263   4.019   7.286   1.768 -0.1119 -0.1312 -0.0210
 2064W        W 6264   5.563   4.324  12.789 -0.1042 -0.2686  0.1323
 2065W        W 6265   6.064   6.005  11.904  0.2581  0.2641  0.1390
 2066W        W 6266   3.165  10.433  11.046  0.0835  0.0278  0.1013
 2067W        W 6267   2.344   7.962   5.606  0.0013 -0.0536 -0.0699
 2068W        W 6268   3.078   4.811  10.774  0.2668  0.0753 -0.0273
 2069W        W 6269   5.938   4.980   4.826  0.0882  0.2330  0.0732
 2070W        W 6270   9.910   4.558   3.097  0.0023  0.1389  0.1225
 2071W        W 6271   3.250  10.317   0.941 -0.2446  0.1165  0.0246
 2072W        W 6272   6.603   0.974   0.807 -0.1976 -0.2501  0.2079
 2073W        W 6273   9.530   7.834   2.685 -0.1440  0.1779 -0.0093
 2074W        W 6274   4.862   5.913   3.338  0.0391  0.2208 -0.0266
 2075W        W 6275   4.647   6.731   1.423  0.0343 -0.0529  0.2418
 2076W        W 6276   0.624   2.762  10.643 -0.0647 -0.2009  0.1944
 2077W        W 6277   0.866   4.588   5.209  0.1745 -0.0020 -0.2582
 2078W        W 6278   6.800   7.947   1.848  0.1509 -0.0799  0.0492
 2079W        W 6279   3.078   1.380   2.782 -0.1047  0.0784  0.4669
 2080W        W 6280   5.321   2.785  11.481  0.0548 -0.2062  0.0500
 2081W        W 6281   0.879   6.722   3.539 -0.1895 -0.0857  0.0299
 2082W        W 6282   3.004   5.398   3.745 -0.2496  0.1530  0.2190
 2083W        W 6283   5.782   8.003  11.234 -0.0823  0.0537 -0.1339
 2084W        W 6284   7.946   6.456  10.326  0.5594  0.1307 -0.0767
 2085W        W 6285   5.528   0.705   1.089 -0.0285 -0.2216 -0.0429
 2086W        W 6286   9.025  10.438   2.885  0.1882 -0.2773  0.0014
 2087W        W 6287   9.341   3.346   0.314 -0.1489 -0.2332  0.2197
 2088W        W 6288  10.255   0.267   1.702 -0.0539 -0.0920 -0.0499
 2089W        W 6289   0.439   4.925   9.422  0.1173  0.2818  0.0287
 2090W        W 6290   4.570   3.683  13.239  0.0383  0.0267  0.1661
 2091W        W 6291   4.971   3.001   9.152  0.1690  0.2088 -0.2930
 2092W        W 6292   3.774   3.429   0.359  0.2704  0.1829  0.3439
 2093W        W 6293   3.962   8.818   2.264 -0.0153  0.2437  0.3301
 2094W        W 6294   1.985   3.379  13.139  0.0668 -0.3241  0.1278
 2095W        W 6295   1.635   3.326   3.154 -0.1593  0.0506 -0.0834
 2096W        W 6296   2.084   5.407   3.350  0.0080 -0.1940 -0.2485
 2097W        W 6297   1.930   4.568   8.716 -0.0044  0.1482  0.3270
 2098W        W 6298   8.504  10.196   1.010 -0.0600 -0.2071 -0.0827
 2099W        W 6299   3.418   8.001   3.013  0.1010 -0.0267 -0.1322
 2100W        W 6300   6.583   6.354   9.734  0.2727  0.0870 -0.4640
 2101W        W 6301   5.192   2.783   0.583 -0.2281 -0.0099  0.1561
 2102W        W 6302   9.293   4.894  13.401  0.0157  0.1551  0.0379
 2103W        W 6303   7.885   5.566   1.762  0.0300  0.1617 -0.0408
 2104W        W 6304   6.946   4.681   3.097  0.3330  0.1471  0.2774
 2105W        W 6305   3.541   2.750   3.787 -0.2213 -0.0892  0.1947
 2106W        W 6306   4.600   6.670   8.721 -0.2058 -0.1242  0.1237
 2107W        W 6307   0.114   7.125  11.842  0.0564 -0.1439  0.4430
 2108W        W 6308   2.143   7.413   0.655  0.0591  0.1496 -0.1503
 2109W        W 6309   4.060   1.440   1.020  0.1833 -0.2838 -0.0759
 2110W        W 6310   5.888   7.806   0.330  0.1387  0.0862 -0.3050
 2111W        W 6311   6.901   8.716  13.275  0.2134 -0.0312  0.2691
 2112W        W 6312   7.305   0.033   1.559  0.0023 -0.0024 -0.1049
 2113W        W 6313   5.264   2.317  11.849 -0.2652 -0.0459 -0.1044
 2114W        W 6314   4.614   8.357  12.481  0.2341  0.0470  0.0124
 2115W        W 6315   5.438   8.336  10.305 -0.0196 -0.1654  0.0055
 2116W        W 6316   8.376   0.259   3.414 -0.1679  0.0684  0.1631
 2117W        W 6317   3.146   5.437   2.520  0.0475  0.0216  0.0254
 2118W        W 6318   2.221   7.729   4.669  0.1329  0.0661 -0.2262
 2119W        W 6319   6.199   6.468   3.230 -0.1708 -0.2485 -0.2854
 2120W        W 6320   6.862   1.271  10.878  0.0134 -0.0878 -0.0370
 2121W        W 6321   8.892   9.787   0.390 -0.0307  0.0882 -0.2900
 2122W        W 6322   8.722   5.727   2.046 -0.0226  0.3415 -0.1164
 2123W        W 6323   9.373   5.849   9.152 -0.1028 -0.1083 -0.0679
 2124W        W 6324   2.034   4.856  11.309 -0.2287  0.0171  0.0814
 2125W        W 6325   7.080   9.431   9.655  0.2145  0.0015 -0.1102
 2126W        W 6326   3.190   6.673  11.751 -0.3167  0.1709  0.3466
 2127W        W 6327   3.569   9.256   9.866  0.1646 -0.5143 -0.0775
 2128W        W 6328   9.296   5.822   1.570 -0.2049  0.0510  0.0177
 2129W        W 6329   2.638   9.760   4.573  0.1222  0.1542  0.0711
 2130W        W 6330   5.566   0.145  11.845  0.2624  0.1769  0.2366
 2131W        W 6331   8.974  10.082   1.843 -0.0410  0.2014  0.0942
 2132W        W 6332   5.757   8.845   3.141  0.1521 -0.0494 -0.0109
 2133W        W 6333   6.516   7.786   4.266  0.1824  0.2937 -0.1038
 2134W        W 6334   4.426   1.936  12.782 -0.3275 -0.2068 -0.0165
 2135W        W 6335   4.103   5.022   4.016 -0.0476  0.3266  0.2881
 2136W        W 6336   2.289   7.380  11.919  0.2172 -0.2095 -0.1060
 2137W        W 6337   6.418   2.674   4.042  0.3884  0.1201 -0.0195
 2138W        W 6338   7.529   6.194  12.117  0.0403 -0.0412  0.1051
 2139W        W 6339   3.405   2.202  11.316  0.1226  0.0615 -0.5154
 2140W        W 6340   6.337   7.395  10.933 -0.2534  0.0477 -0.1452
 2141W        W 6341   7.691   4.140   0.250  0.1929 -0.2362 -0.1360
 2142W        W 6342   7.392   9.540  12.505  0.0209  0.2045  0.1305
 2143W        W 6343   6.016   4.136  12.384 -0.0274 -0.0928  0.2220
 2144W        W 6344   2.290   0.585   1.184 -0.1732 -0.0819 -0.1764
 2145W        W 6345   6.400   9.165   2.122  0.0103  0.0344  0.1700
 2146W        W 6346   0.423   6.008   2.977 -0.0766  0.1932  0.0459
 2147W        W 6347   8.307   7.987   1.640  0.0616  0.3576  0.1311
 2148W        W 6348   3.419   8.623   9.914 -0.3507  0.1710  0.2544
 2149W        W 6349   3.141   4.231   4.890  0.3230  0.0376 -0.0128
 2150W        W 6350   1.465   1.554   4.696  0.1275  0.1040 -0.1034
 2151W        W 6351   2.543   4.655  11.992 -0.1928  0.0325 -0.0803
 2152W        W 6352   6.368   9.725   2.234  0.0375  0.0355 -0.2050
 2153W        W 6353   6.925   7.004  12.387 -0.2976 -0.0309  0.0436
 2154W        W 6354   8.146   1.596  13.018  0.0497 -0.0613 -0.1968
 2155W        W 6355   8.082   4.706   4.101 -0.4673 -0.2834 -0.0128
 2156W        W 6356   7.318   4.494   9.556 -0.0035 -0.0733  0.2057
 2157W        W 6357   3.976   4.970  11.708  0.0181  0.0715  0.0912
 2158W        W 6358   3.595   3.639   8.096 -0.2574 -0.1054 -0.0632
 2159W        W 6359   1.255   6.987   0.535 -0.0234  0.2915  0.2407
 2160W        W 6360  10.070   2.635   2.696  0.0754 -0.4935 -0.1442
 2161W        W 6361   9.619   1.464  12.419  0.2822 -0.0593 -0.2170
 2162W        W 6362   5.751   0.841   9.772 -0.0947 -0.1268  0.2686
 2163W        W 6363   2.330   4.225  13.300 -0.2350 -0.0396  0.2415
 2164W        W 6364   7.781   8.443  12.351 -0.1651 -0.0685  0.0029
 2165W        W 6365   8.554   3.296   1.059 -0.0823  0.3628 -0.2706
 2166W        W 6366   5.979   7.755   9.970  0.0264  0.0740  0.2548
 2167W        W 6367   6.885   6.779   9.664 -0.1059 -0.2171 -0.1098
 2168W        W 6368   6.546   1.789   3.824  0.1992 -0.0917  0.0627
 2169W        W 6369   1.922   4.133  10.071 -0.1674 -0.1067  0.0816
 2170W        W 6370   2.448   1.899  11.386 -0.1932  0.0355  0.2454
 2171W        W 6371   5.444   6.699  13.443 -0.0121 -0.1054  0.0683
 2172W        W 6372   4.496   3.725   3.725  0.1566  0.2310 -0.0524
 2173W        W 6373   8.081   4.029  12.716 -0.3194 -0.1948  0.1042
 2174W        W 6374   1.685   5.870   9.849  0.0072 -0.1971 -0.0339
 2175W        W 6375   7.230   3.474  10.226 -0.0263  0.0567 -0.1309
 2176W        W 6376   0.957   7.462   1.401  0.3944 -0.3203  0.5489
 2177W        W 6377   4.804   6.685  11.262 -0.0774 -0.1314 -0.1036
 2178W        W 6378   0.694   8.264   2.087  0.2211  0.0933 -0.0490
 2179W        W 6379   1.484   2.061  13.122  0.2846 -0.0133 -0.3046
 2180W        W 6380   6.574   4.754  12.320  0.3212  0.0193  0.2215
 2181W        W 6381   6.921   6.745   2.585 -0.0799 -0.0455 -0.2081
 2182W        W 6382   6.402   0.299   1.475  0.0150  0.0825  0.1649
 2183W        W 6383   1.023   8.317   3.795  0.1269  0.1651 -0.1039
 2184W        W 6384   2.627   2.880   3.661  0.1095  0.0120 -0.2320
 2185W        W 6385   0.050   4.152  11.240 -0.0392  0.1354  0.3393
 2186W        W 6386   3.117   2.244  13.487 -0.2644 -0.2491  0.2950
 2187W        W 6387   4.082   5.086  12.207 -0.2844  0.1599 -0.1070
 2188W        W 6388   9.163   1.702  12.440 -0.1176 -0.0738  0.0825
 2189W        W 6389   8.494   3.687   1.610  0.1651 -0.0493 -0.0599
 2190W        W 6390   9.264   4.004   1.242 -0.0082  0.1826 -0.1167
 2191W        W 6391   0.769   6.270   9.804 -0.0516 -0.0367 -0.0843
 2192W        W 6392   6.235   9.182   0.851  0.2651  0.2778 -0.4252
 2193W        W 6393   8.956   0.520  11.574  0.0982 -0.0239  0.0767
 2194W        W 6394   1.753   9.798   1.023  0.0373 -0.2590  0.0942
 2195W        W 6395   8.664   7.343   0.445  0.2141 -0.1333 -0.0570
 2196W        W 6396   0.688   4.258   1.276 -0.1905  0.0821 -0.2188
 2197W        W 6397   7.715   0.100  11.434  0.0581 -0.1854  0.1183
 2198W        W 6398   1.229   2.746   1.736 -0.0048 -0.0393  0.2228
 2199W        W 6399   1.880   8.577   2.774 -0.1100  0.1585 -0.0371
 2200W        W 6400   7.655   4.648  10.800 -0.0711  0.1223  0.1181
 2201W        W 6401   1.751   9.687   2.549  0.0931  0.1587 -0.0586
 2202W        W 6402   8.084   8.605  12.716  0.1035 -0.1946 -0.2572
 2203W        W 6403   7.535   9.552  10.711  0.1488  0.1219  0.0784
 2204W        W 6404   0.465  10.021   3.877 -0.1033 -0.1698  0.0005
 2205W        W 6405   5.140   6.759   8.688 -0.0043  0.2868 -0.0247
 2206W        W 6406   3.726  10.167  11.625 -0.2132 -0.1702 -0.0899
 2207W        W 6407   7.107   1.032  10.021  0.0043 -0.2937 -0.0211
 2208W        W 6408   9.769   0.306  11.133 -0.1661 -0.1989 -0.2278
 2209W        W 6409   5.870  10.143   1.111  0.0104  0.1683  0.2757
 2210W        W 6410   4.602   1.275  11.291  0.0303  0.1628  0.1182
 2211W        W 6411   9.559   5.455   3.309  0.2615  0.0546 -0.3591
 2212W        W 6412   4.495   2.234   0.005 -0.0253 -0.2440  0.0505
 2213W        W 6413   6.594   2.557  11.060 -0.1979  0.0945 -0.2264
 2214W        W 6414   9.144   2.748  11.309 -0.0391  0.5338 -0.1559
 2215W        W 6415   0.535   1.784  11.413  0.1105 -0.0970  0.2476
 2216W        W 6416   4.636   7.565  11.486  0.0823  0.2248 -0.1418
 2217W        W 6417   8.543   1.824   1.606  0.2249  0.2771 -0.2836
 2218W        W 6418   0.388   3.746  10.985 -0.1909  0.3371  0.0635
 2219W        W 6419   3.187   4.627   1.017  0.0944  0.2096  0.0233
 2220W        W 6420   5.666   4.463   1.693 -0.1116 -0.0834 -0.2542
 2221W        W 6421   6.109   2.584   3.646 -0.1147  0.1590 -0.1993
 2222W        W 6422   0.203   4.736   0.066 -0.0017  0.1902  0.0710
 2223W        W 6423   3.929   0.330  12.207 -0.3008  0.1254 -0.0916
 2224W        W 6424   0.103   0.093   2.855  0.2023 -0.3543 -0.3893
 2225W        W 6425   9.377   9.457   4.216  0.2094  0.1095  0.0851
 2226W        W 6426   9.736   3.496  12.762  0.3153 -0.0435  0.0349
 2227W        W 6427   6.745   3.198   0.766  0.0826  0.1798 -0.2764
 2228W        W 6428   2.531   1.263  13.015  0.2034 -0.1878 -0.1124
 2229W        W 6429   8.559   5.263  10.683  0.0848  0.0025 -0.0317
 2230W        W 6430   3.860   9.324   9.377 -0.1655 -0.0776 -0.4172
 2231W        W 6431   1.542   7.559  12.417  0.1421 -0.0481 -0.1367
 2232W        W 6432   3.310   6.680   2.471 -0.0052 -0.1310 -0.0695
 2233W        W 6433   5.545   3.841   1.115 -0.2223  0.0870 -0.1642
 2234W        W 6434   4.451  10.092   9.692 -0.0369 -0.0555 -0.2603
 2235W        W 6435   4.487   6.889   9.222 -0.2124 -0.1090  0.0596
 2236W        W 6436   8.446   7.931   3.805  0.0591 -0.0425 -0.0647
 2237W        W 6437   6.726   8.049  12.085 -0.3205  0.1098  0.4208
 2238W        W 6438  10.222   7.988  10.251  0.2463 -0.3097  0.1490
 2239W        W 6439   5.921   9.006   3.576  0.3083  0.0992  0.0838
 2240W        W 6440   4.155   7.978  10.306 -0.2178 -0.3332 -0.1019
 2241W        W 6441   5.800  10.376   3.563  0.0044 -0.3318  0.1182
 2242W        W 6442   3.388   0.073   4.033 -0.0154 -0.0315  0.4256
 2243W        W 6443   7.768   0.395   9.548 -0.0547 -0.0880  0.2043
 2244W        W 6444   7.990  10.428   2.724 -0.5870  0.3266 -0.2604
 2245W        W 6445   7.303   2.515  13.347 -0.0097  0.0583  0.0498
 2246W        W 6446   1.392   3.118   0.440 -0.2931  0.2486  0.2981
 2247W        W 6447   6.934   8.947   3.449  0.0921 -0.0929 -0.1786
 2248W        W 6448   4.375   7.957   1.376 -0.4487 -0.1573  0.0396
 2249W        W 6449   8.968   1.977  10.508  0.1606  0.0627  0.0162
 2250W        W 6450   4.082   4.700  10.811  0.1354  0.1900 -0.0084
 2251W        W 6451   5.702   6.823   3.950  0.3383  0.3353  0.1040
 2252W        W 6452   4.366   6.015  10.270 -0.2763 -0.2449  0.1551
 2253W        W 6453   1.369   9.641   0.693 -0.0423 -0.1278 -0.0938
 2254W        W 6454   9.560   9.938  10.922  0.1840 -0.1179 -0.0417
 2255W        W 6455   7.104   2.595   0.256 -0.0599 -0.1903  0.0648
 2256W        W 6456   5.751   8.894   0.515  0.2804  0.0041  0.0617
 2257W        W 6457   1.083   2.605   3.488 -0.0393  0.0579  0.2685
 2258W        W 6458   4.884  10.197  12.639  0.4882 -0.2370  0.0100
 2259W        W 6459   9.410   1.209  12.030 -0.1667 -0.0217 -0.3171
 2260W        W 6460   4.163   0.518   2.814  0.0900  0.0653 -0.0097
 2261W        W 6461   3.578   6.132   3.697 -0.0849  0.0403 -0.1363
 2262W        W 6462   8.833   6.422  11.783  0.0933 -0.1249 -0.0580
 2263W        W 6463   3.283   1.298   3.234 -0.3443  0.2177  0.0901
 2264W        W 6464   0.145   2.639   2.485 -0.0140  0.0345 -0.1098
 2265W        W 6465   0.039   1.520  12.130  0.1586  0.0069  0.1048
 2266W        W 6466   5.301   4.080   3.455 -0.0301  0.1128 -0.1066
 2267W        W 6467   4.299   7.083   8.777 -0.1088  0.1775 -0.1601
 2268W        W 6468  10.328   2.538   9.117  0.0732 -0.0524 -0.3929
 2269W        W 6469   0.083   2.578  11.482  0.0022  0.1396 -0.1502
 2270W        W 6470   8.080   7.239   9.992  0.0871 -0.0806  0.2648
 2271W        W 6471   5.905   4.286  11.428 -0.2538 -0.2771  0.3288
 2272W        W 6472   2.137   9.220   0.024 -0.4131 -0.0633 -0.0667
 2273W        W 6473   9.033   1.555   2.282  0.0851  0.0582 -0.3604
 2274W        W 6474   5.732   1.201  13.465  0.1396  0.0281 -0.1710
 2275W        W 6475   0.820   6.681   8.029 -0.4578  0.0976  0.0213
 2276W        W 6476   7.991   7.218   1.186 -0.0228  0.1382  0.1210
 2277W        W 6477   2.735   4.841   1.814 -0.1464 -0.1329 -0.0592
 2278W        W 6478   9.092   6.240   3.873  0.3645  0.0530  0.1387
 2279W        W 6479   8.687  10.305   3.275 -0.0449  0.1309  0.0955
 2280W        W 6480   2.974   8.470  10.272  0.1741 -0.0101 -0.0342
 2281W        W 6481  10.036   2.821   9.898 -0.2288  0.0583 -0.3442
 2282W        W 6482   4.549   9.169  11.962  0.0452 -0.2794  0.2503
 2283W        W 6483   8.133   4.872   9.533  0.2234  0.1478  0.1704
 2284W        W 6484   8.686   2.731  11.609 -0.1247 -0.0583 -0.1391
 2285W        W 6485   6.205   8.054   3.956 -0.0008  0.2910  0.3040
 2286W        W 6486   8.882   4.107  10.432  0.0906 -0.2555 -0.3265
 2287W        W 6487   1.468   5.210   4.256  0.1011 -0.0804  0.1211
 2288W        W 6488   1.007   9.290   1.978  0.0165  0.1167  0.0552
 2289W        W 6489   6.149   0.062   1.013 -0.2116 -0.0805  0.1682
 2290W        W 6490   8.324   1.953  10.503 -0.0767 -0.0174 -0.0243
 2291W        W 6491   4.317  10.167   2.928 -0.0277  0.1912 -0.3559
 2292W        W 6492   4.214   3.253  11.501 -0.1559 -0.0997  0.3302
 2293W        W 6493  10.423   6.133   0.099  0.1827  0.1398 -0.3350
 2294W        W 6494   8.837   1.079   4.131  0.0449 -0.1461  0.1575
 2295W        W 6495  10.301   1.768   9.306  0.1048 -0.0473 -0.1031
 2296W        W 6496   3.644   4.968   0.533 -0.1073  0.3168  0.1232
 2297W        W 6497   7.557   8.919  13.147  0.1016 -0.1303 -0.0187
 2298W        W 6498   5.201   7.201  11.128 -0.3695  0.3524 -0.1393
 2299W        W 6499   2.126   1.575   3.663 -0.0527 -0.0231  0.0031
 2300W        W 6500   0.377   1.600   2.958  0.1721  0.1357  0.1450
 2301W        W 6501   2.715   9.588   1.281 -0.0051  0.3072  0.1176
 2302W        W 6502   2.114   4.707  13.508 -0.1855  0.3216 -0.0927
 2303W        W 6503   7.371   1.914   3.027  0.3111  0.0268  0.0838
 2304W        W 6504   2.492   0.336   9.538 -0.0361 -0.0650 -0.1377
 2305W        W 6505   5.510   0.293   3.822 -0.0173  0.2572  0.2357
 2306W        W 6506   1.990   2.828   3.273 -0.1749  0.0656 -0.1796
 2307W        W 6507   9.521   3.029   4.177  0.1877  0.0610 -0.1254
 2308W        W 6508   1.514   0.943   1.530 -0.0791  0.0811 -0.0160
 2309W        W 6509   9.357   8.786   3.244  0.1090  0.3362 -0.3003
 2310W        W 6510   6.465   4.229  12.121 -0.0786  0.2716  0.0524
 2311W        W 6511   5.261   0.191   4.235 -0.0587  0.1008 -0.1028
 2312W        W 6512   8.732   7.242  12.488  0.0364  0.1011 -0.2521
 2313W        W 6513   9.216   0.512   2.861 -0.0107 -0.1102 -0.0116
 2314W        W 6514   0.817   8.769  13.446 -0.1049 -0.1787 -0.0271
 2315W        W 6515   2.281   2.396  12.647  0.1358 -0.1801 -0.4265
 2316W        W 6516   2.993   9.573  11.045 -0.3282 -0.2494  0.2660
 2317W        W 6517   2.705   7.836   0.421 -0.1808  0.1369 -0.3983
 2318W        W 6518   1.721   6.819  10.007  0.2001  0.0568  0.1090
 2319W        W 6519  10.039   4.495  13.041  0.0909  0.0889  0.0113
 2320W        W 6520   7.246   9.200  10.419  0.1284 -0.1141  0.0412
 2321W        W 6521   7.996   0.435  12.334  0.2757  0.2326  0.0103
 2322W        W 6522   4.663   5.658  10.552 -0.2942  0.2534  0.0002
 2323W        W 6523   1.837   0.785  11.180 -0.1093 -0.0695  0.2172
 2324W        W 6524   3.055   4.046  11.380  0.3779  0.1285  0.0039
 2325W        W 6525   6.888   5.602   1.207  0.0069  0.1599  0.2297
 2326W        W 6526   2.210   0.709   4.355 -0.2208  0.1846 -0.0027
 2327W        W 6527   1.324   8.098   2.757 -0.0571 -0.0515 -0.2192
 2328W        W 6528   2.802   8.761   2.891 -0.0515  0.0237 -0.1062
 2329W        W 6529   1.973   1.890  12.413  0.1770  0.0281 -0.0488
 2330W        W 6530   7.667   8.481   0.872  0.5570 -0.0104  0.1655
 2331W        W 6531   1.929   5.595   2.522 -0.0316 -0.0647 -0.0302
 2332W        W 6532   4.316   3.929   9.427 -0.1991 -0.1397  0.0725
 2333W        W 6533   3.437   9.257  12.514  0.1892 -0.2816  0.1380
 2334W        W 6534   3.928   5.650  12.690  0.0748 -0.0849 -0.3379
 2335W        W 6535   3.049   6.302  13.252  0.4164 -0.1587 -0.0944
 2336W        W 6536   3.586   5.649   2.709 -0.0234 -0.0900  0.0336
 2337W        W 6537  10.265   4.281   9.749  0.0669 -0.0234 -0.2935
 2338W        W 6538   4.352   8.422   4.868  0.0982  0.1541 -0.0948
 2339W        W 6539   0.685   9.751   0.379  0.4013 -0.4863  0.2481
 2340W        W 6540   4.999   6.502   0.512 -0.1367 -0.1981  0.2587
 2341W        W 6541   5.569   6.035   0.988  0.0313  0.0354  0.0221
 2342W        W 6542   7.641  10.049   2.930 -0.0307 -0.3248  0.0122
 2343W        W 6543   1.413   0.640  10.533  0.1175 -0.1536  0.1205
 2344W        W 6544   7.371   6.441   1.266 -0.0148  0.1198 -0.1289
 2345W        W 6545   2.593   4.317   4.755 -0.2113  0.1094 -0.3579
 2346W        W 6546   5.575   7.941   1.785  0.0087  0.4031 -0.1496
 2347W        W 6547   1.000   1.447  10.868  0.0953  0.0910  0.0550
 2348W        W 6548   7.473   7.623  11.575  0.0896  0.0959  0.0070
 2349W        W 6549   4.537  10.090  11.251 -0.2141 -0.3898  0.0600
 2350W        W 6550   6.617   9.411  12.635 -0.1101  0.0273  0.0673
 2351W        W 6551   0.684   6.709   4.035  0.2384  0.1383 -0.1528
 2352W        W 6552   5.962   5.896   3.748 -0.0937  0.0484 -0.3768
 2353W        W 6553   8.424   7.892   0.691 -0.0217  0.1630 -0.0342
 2354W        W 6554   0.004   1.865   3.705 -0.2280  0.2309  0.1687
 2355W        W 6555   3.722   2.995   2.521  0.1006  0.1310  0.1380
 2356W        W 6556   4.653   2.043   2.328  0.1647 -0.0576 -0.0799
 2357W        W 6557   2.034   9.378  12.305  0.0889  0.1751 -0.0341
 2358W        W 6558  10.450   5.803   9.229 -0.0926  0.0349  0.1953
 2359W        W 6559   4.912   2.601   5.133 -0.0717  0.3392 -0.1733
 2360W        W 6560   6.141   3.225  10.403 -0.1008  0.1318  0.0076
 2361W        W 6561  10.362   2.259   5.304  0.0019 -0.3087 -0.0318
 2362W        W 6562   6.520   9.593   2.919  0.1201 -0.1878 -0.1784
 2363W        W 6563   0.531   7.075  12.660 -0.2152 -0.0462  0.0372
 2364W        W 6564   6.766   0.403  10.594  0.3224 -0.3096  0.0216
 2365W        W 6565   7.216   3.200  10.754  0.5153 -0.0587 -0.3137
 2366W        W 6566   8.940   1.027  10.912 -0.2824 -0.1819 -0.0386
 2367W        W 6567   1.405   2.604   4.215  0.1163  0.2135  0.3454
 2368W        W 6568   4.228   3.027   9.587  0.0273 -0.2153  0.1193
 2369W        W 6569   8.081   0.495   1.575  0.0418 -0.0886 -0.0752
 2370W        W 6570   8.834   6.984   0.159  0.0797  0.2870 -0.3679
 2371W        W 6571   7.197   6.526   9.336 -0.0161  0.1753  0.0241
 2372W        W 6572   3.402   1.516   0.907  0.0371  0.0770 -0.1097
 2373W        W 6573  10.255   7.109  13.322  0.3952  0.0774  0.2084
 2374W        W 6574   5.693   7.890   3.177  0.1011 -0.0993 -0.1601
 2375W        W 6575   9.941   0.545   0.796 -0.1181  0.0897  0.0278
 2376W        W 6576   8.346   4.565   0.161  0.2665  0.2638 -0.1060
 2377W        W 6577   4.233   8.318   3.077  0.4749  0.0746 -0.0028
 2378W        W 6578   4.173   7.408   3.555 -0.1612 -0.1874  0.0562
 2379W        W 6579   2.590   9.028   1.766  0.0099 -0.3600 -0.0485
 2380W        W 6580   7.043   0.568   1.975 -0.0465 -0.0111 -0.1396
 2381W        W 6581   4.919   5.406   9.124 -0.0640 -0.0947  0.1131
 2382W        W 6582   5.451  10.278   0.880 -0.1798  0.1081 -0.2655
 2383W        W 6583   0.288   6.932   1.866 -0.2710 -0.0177 -0.1818
 2384W        W 6584   2.332   6.066   0.367  0.0276  0.0065  0.4827
 2385W        W 6585   1.071   0.885   2.459  0.1354  0.0954 -0.1759
 2386W        W 6586   1.482   5.746   4.711 -0.1445  0.0480 -0.1064
 2387W        W 6587   6.014   9.491  10.299  0.1500 -0.1240 -0.0706
 2388W        W 6588   9.225   6.667   9.677  0.1566  0.3562 -0.2286
 2389W        W 6589   6.847   0.188   2.191 -0.0814  0.1409  0.0089
 2390W        W 6590   6.608  10.191   1.001 -0.4645 -0.0238 -0.1741
 2391W        W 6591   1.991   2.703   0.754 -0.1157  0.2229 -0.1888
 2392W        W 6592   3.829   9.225   3.077  0.1548 -0.1129  0.3588
 2393W        W 6593   6.734   1.978   1.275 -0.1649 -0.2883  0.5662
 2394W        W 6594   9.268   9.754  10.128  0.0240 -0.1376 -0.2096
 2395W        W 6595   3.166   0.031   2.251 -0.1579  0.1979  0.2418
 2396W        W 6596   2.863   7.982   9.657 -0.0720 -0.1866 -0.3612
 2397W        W 6597   8.656   5.057   2.690  0.0975 -0.0870 -0.0951
 2398W        W 6598   3.328   3.584  11.356  0.1278 -0.2752  0.0081
 2399W        W 6599   5.053   4.351   5.136 -0.1783 -0.0370  0.0572
 2400W        W 6600   3.415   5.347   0.401  0.0143  0.1378 -0.1343
 2401W        W 6601   5.103   0.813  10.935  0.0256  0.0545 -0.0559
 2402W        W 6602   5.099   7.911   0.610  0.2322 -0.0104  0.0710
 2403W        W 6603   0.129   4.232   2.512 -0.0004 -0.1602 -0.3251
 2404W        W 6604  10.360   4.077   9.268 -0.2388 -0.1809  0.0904
 2405W        W 6605   9.585   8.182  11.576  0.0746 -0.1683  0.0175
 2406W        W 6606   3.573   6.213   2.534 -0.1436  0.1975 -0.2566
 2407W        W 6607   4.361   4.972  11.384 -0.0013  0.2806 -0.0056
 2408W        W 6608   2.336   9.733   9.330 -0.2477 -0.1011 -0.5125
 2409W        W 6609   1.744   7.238   9.631 -0.1426  0.0292  0.1143
 2410W        W 6610   9.928   3.340   9.644  0.3449 -0.0491  0.1697
 2411W        W 6611   9.954   3.631   1.611  0.3584 -0.1405 -0.0318
 2412W        W 6612  10.130   1.003   2.844 -0.2157  0.0137 -0.2987
 2413W        W 6613   9.779   6.335  12.879  0.0771  0.2630 -0.2499
 2414W        W 6614   4.580   9.710   2.993  0.2748  0.3456  0.1842
 2415W        W 6615   5.338   8.898  13.083 -0.2128  0.2194  0.1248
 2416W        W 6616   5.954   3.854  11.762  0.2825  0.3497 -0.1990
 2417W        W 6617   9.611  10.399  10.260 -0.0769  0.1558 -0.4550
 2418W        W 6618   8.434   4.272  10.619  0.0480  0.0181  0.2013
 2419W        W 6619   9.827   2.629   9.256  0.0037  0.0676 -0.2388
 2420W        W 6620   3.849   3.406   8.609 -0.0189  0.1527 -0.3986
 2421W        W 6621   2.553   0.395   1.550  0.1685  0.0133  0.0839
 2422W        W 6622   0.861   4.144   9.628  0.0829  0.0738  0.1943
 2423W        W 6623   0.194   7.739  10.135  0.1656 -0.0061  0.0155
 2424W        W 6624   5.420   1.761   3.205  0.1211 -0.1149 -0.0801
 2425W        W 6625   3.705   1.530   3.443 -0.0526 -0.3279  0.2381
 2426W        W 6626   9.098   0.216   0.487  0.5550  0.2592  0.0078
 2427W        W 6627   4.099   0.385  11.344  0.0857  0.1350 -0.0653
 2428W        W 6628   8.471   9.158   9.726 -0.0969  0.0788  0.2885
 2429W        W 6629   7.613   2.686  12.462 -0.0745 -0.0670 -0.2447
 2430W        W 6630   4.238   1.115   4.388 -0.2425  0.0830 -0.1902
 2431W        W 6631   9.535   2.506  12.123 -0.2455 -0.1469 -0.2060
 2432W        W 6632   0.163   7.117   4.889 -0.4459  0.2338 -0.1333
 2433W        W 6633   9.001   7.196  11.196  0.2382  0.0144  0.0022
 2434W        W 6634   8.450   4.978   3.170 -0.3498  0.0198 -0.1319
 2435W        W 6635   0.657   1.047   2.808 -0.0210  0.0116  0.1930
 2436W        W 6636   6.994   5.796  10.546  0.0481  0.5117 -0.0924
 2437W        W 6637   6.281   3.272   1.656  0.3328  0.0123 -0.3094
 2438W        W 6638   8.522   1.922  11.414 -0.0095  0.1143  0.0509
 2439W        W 6639   1.399   9.430   8.951 -0.0340  0.0418  0.2736
 2440W        W 6640   4.792   1.097  12.751  0.1358  0.0101 -0.0345
 2441W        W 6641   5.472   0.271   9.833  0.0376  0.1476  0.0452
 2442W        W 6642   2.051   0.707  11.652  0.1660  0.3903 -0.0422
 2443W        W 6643   0.364   3.478   9.467 -0.4267 -0.1700 -0.1830
 2444W        W 6644   2.638   8.304   2.164  0.0796  0.4973  0.1688
 2445W        W 6645   2.387   5.781   4.281 -0.0620 -0.4598  0.0454
 2446W        W 6646   8.101   0.793   4.164 -0.0932  0.1003 -0.3008
 2447W        W 6647   3.623   3.295   2.044 -0.0035  0.2083  0.4204
 2448W        W 6648   5.887   8.667  12.338  0.0993  0.0594  0.3093
 2449W        W 6649   1.456  10.152   0.443 -0.0452 -0.1488 -0.0196
 2450W        W 6650   3.827   8.499   0.277  0.0263  0.0054  0.0295
 2451W        W 6651   6.967   9.816  13.342  0.2418  0.1921  0.1971
 2452W        W 6652   5.637   6.953  11.127 -0.0243 -0.3151 -0.0208
 2453W        W 6653   3.602   5.642   0.043  0.2646 -0.3770 -0.1081
 2454W        W 6654   8.135   5.395   0.320  0.2260  0.2436  0.1993
 2455W        W 6655   1.969   8.195   1.819 -0.0908 -0.0563 -0.3549
 2456W        W 6656   1.109   7.696  10.277  0.3369  0.0979  0.0640
 2457W        W 6657   7.865   2.332   9.675  0.1299  0.4199 -0.0180
 2458W        W 6658   4.321   7.158   0.265  0.1628 -0.1746 -0.1028
 2459W        W 6659   0.332   1.655   1.418  0.0489 -0.0251 -0.5152
 2460W        W 6660   2.015   2.405   3.608 -0.0409 -0.3355  0.1175
 2461W        W 6661   9.825   3.721   2.096  0.2659 -0.0772 -0.0221
 2462W        W 6662   5.613   7.137   9.219 -0.0420 -0.5128  0.1368
 2463W        W 6663   6.208   4.487  13.001  0.0320  0.1526 -0.1294
 2464W        W 6664   4.313  10.129  12.530  0.1626 -0.0340  0.0285
 2465W        W 6665   9.761   8.195  11.117  0.0191  0.0505  0.3250
 2466W        W 6666   6.631   5.177   1.961  0.3070 -0.0828 -0.2899
 2467W        W 6667  10.330   9.238   9.455  0.2020  0.0442 -0.1517
 2468W        W 6668   4.865   9.626   0.394  0.2221  0.1776  0.0512
 2469W        W 6669   0.256   7.225   3.273 -0.2307 -0.2589 -0.0935
 2470W        W 6670   4.528   1.247   1.941  0.3664  0.0178 -0.0836
 2471W        W 6671   6.329   4.484   0.901  0.1614  0.2399  0.0108
 2472W        W 6672   4.010   3.475   9.430 -0.0713 -0.0789  0.2898
 2473W        W 6673   8.899   9.685   1.486  0.0046 -0.1300 -0.0727
 2474W        W 6674   1.662   2.472   5.101  0.1690 -0.2007  0.0906
 2475W        W 6675   3.015   8.395   4.436 -0.3061 -0.0599  0.1636
 2476W        W 6676   4.008   5.928   1.065 -0.0454 -0.1708  0.2934
 2477W        W 6677   1.146   9.594  13.100  0.0603 -0.3247 -0.4345
 2478W        W 6678   7.081   4.327  10.879 -0.2980 -0.1850  0.0952
 2479W        W 6679   0.683   3.634   9.810 -0.0686  0.0262 -0.0502
 2480W        W 6680   5.924   6.846  11.532 -0.3234  0.2513  0.2417
 2481W        W 6681   6.685   7.617   0.012  0.0423 -0.2052 -0.1507
 2482W        W 6682   3.644   0.131   4.480  0.2839 -0.0604  0.4106
 2483W        W 6683   9.597   1.128   2.061  0.1484 -0.1009  0.0655
 2484W        W 6684   1.891   4.053   2.372  0.0648  0.3494 -0.1363
 2485W        W 6685   0.756   2.871   3.120  0.0718  0.0204 -0.1113
 2486W        W 6686   5.074   6.209  11.254  0.0698 -0.5908  0.2056
 2487W        W 6687   7.956   4.726  11.659  0.4927  0.3063 -0.0214
 2488W        W 6688   0.917   1.391  11.494 -0.1721  0.0411 -0.1386
 2489W        W 6689   0.819   9.239   0.209 -0.0759 -0.2255 -0.3363
 2490W        W 6690   9.272   7.093   4.464 -0.4268 -0.1432  0.0332
 2491W        W 6691   7.246   6.911   0.068  0.1705  0.0256 -0.3574
 2492W        W 6692   4.714   2.245   1.067  0.1430 -0.0592 -0.2581
 2493W        W 6693   0.501  10.080  13.116 -0.0744 -0.1080  0.1010
 2494W        W 6694   2.611   6.373  12.916  0.1443 -0.1313  0.1818
 2495W        W 6695   7.814   7.175   0.557  0.1519  0.1342 -0.2013
 2496W        W 6696   0.904   4.681   1.507  0.2179  0.0113 -0.0860
 2497W        W 6697   3.642   7.216   4.696  0.1717  0.0752  0.0453
 2498W        W 6698   7.806   8.759   1.377  0.1265 -0.4080 -0.1235
 2499W        W 6699   1.386   0.227   9.653 -0.0863  0.2225 -0.1712
 2500W        W 6700   8.936   2.079   1.165 -0.0996 -0.2177  0.0508
 2501W        W 6701   7.395   0.772   2.452  0.0492 -0.0214 -0.2202
 2502W        W 6702   5.771   2.082  12.337 -0.0154 -0.0302  0.1428
 2503W        W 6703   9.391   7.628   4.410 -0.3125 -0.2970 -0.1156
 2504W        W 6704   8.540   0.675  13.052 -0.2601  0.0324 -0.1111
 2505W        W 6705   5.390   7.654   0.258  0.1896  0.0032  0.2086
 2506W        W 6706   1.911   5.617  12.246 -0.0112 -0.0215 -0.0587
 2507W        W 6707   1.593   9.976   1.509  0.3074 -0.0487 -0.0377
 2508W        W 6708   3.225   9.519  10.428 -0.0629  0.0336  0.2043
 2509W        W 6709   3.392   5.082   3.537  0.0546 -0.1522 -0.1279
 2510W        W 6710   4.556   2.465  12.730 -0.2717 -0.3235  0.1219
 2511W        W 6711   0.691   3.298   0.134  0.2241 -0.2737  0.0034
 2512W        W 6712   4.972   2.069   2.914 -0.3520 -0.0179  0.4375
 2513W        W 6713   6.223   4.143   0.020 -0.2192 -0.0199  0.1453
 2514W        W 6714   9.583   5.789  13.056 -0.2465 -0.1601 -0.1741
 2515W        W 6715   4.089   9.374  10.145  0.0146  0.0815 -0.0279
 2516W        W 6716   7.909   4.474  10.414 -0.1237  0.0200 -0.3023
 2517W        W 6717   7.254   8.184  12.424 -0.5684 -0.3299 -0.0832
 2518W        W 6718  10.088   1.149  12.283 -0.2667 -0.0525  0.2646
 2519W        W 6719   9.362   2.316   0.979  0.2053 -0.1348 -0.1018
 2520W        W 6720   1.629   4.322   4.125 -0.0032  0.0061 -0.1217
 2521W        W 6721   1.557   0.979   2.625  0.0889 -0.0296  0.4857
 2522W        W 6722  10.331   3.797   1.230  0.0279  0.0099 -0.0688
 2523W        W 6723   7.872   4.906  11.157 -0.0743  0.4142  0.1140
 2524W        W 6724   0.506   4.855   4.400  0.0087 -0.1176  0.3225
 2525W        W 6725   0.611   1.537   0.180 -0.0993 -0.4709 -0.0226
 2526W        W 6726   6.799   6.515  10.417  0.2027 -0.0067  0.2137
 2527W        W 6727   8.760   4.204   3.846  0.0612 -0.0240  0.1729
 2528W        W 6728   4.302   1.791   0.739  0.3112 -0.0452 -0.2470
 2529W        W 6729   2.324   1.742   5.102  0.0043  0.1722 -0.2986
 2530W        W 6730   3.415   5.830  13.177 -0.0201 -0.1444  0.1795
 2531W        W 6731   7.586   9.865  11.092 -0.1059 -0.0736  0.1254
 2532W        W 6732   8.098   7.673  12.466 -0.2236  0.2179 -0.0916
 2533W        W 6733   0.362   1.465  11.079 -0.0509  0.1321 -0.2256
 2534W        W 6734   3.877   1.317   9.505  0.0384  0.3654  0.0249
 2535W        W 6735   9.091   7.668  12.549  0.0366 -0.2398  0.3785
 2536W        W 6736   3.140   9.863   0.070  0.1433  0.1842  0.2572
 2537W        W 6737   3.824   2.510   2.399 -0.2497  0.0167 -0.1333
 2538W        W 6738   1.988   5.472  10.602 -0.3993  0.2323 -0.2571
 2539W        W 6739   3.659   5.974   4.176  0.1536  0.2099  0.0188
 2540W        W 6740   0.320   0.329   9.650 -0.0401 -0.1754 -0.1792
 2541W        W 6741   8.769   9.738   2.388 -0.0531  0.1616 -0.1676
 2542W        W 6742   2.191   4.580   9.798  0.0958  0.0009  0.1381
 2543W        W 6743   0.516   1.005   2.310  0.0390  0.1067  0.2441
 2544W        W 6744   9.670   1.522  13.388  0.0412  0.0273 -0.2579
 2545W        W 6745   9.020   8.775  10.568 -0.1106 -0.0439 -0.0529
 2546W        W 6746   7.365   4.025   4.262 -0.1298 -0.1276  0.1010
 2547W        W 6747   5.218   4.060  12.394  0.2153  0.2258 -0.2085
 2548W        W 6748   9.891   3.747   3.459 -0.0373  0.0229  0.2176
 2549W        W 6749   1.924   6.477   4.381  0.3460  0.1699  0.4233
 2550W        W 6750   1.915   5.410  12.702 -0.3968  0.2557 -0.0233
 2551W        W 6751   0.702   3.302   5.266  0.2162 -0.2271 -0.1879
 2552W        W 6752   2.026   4.897  10.787 -0.3905  0.2953 -0.0546
 2553W        W 6753   8.975   8.184   2.969 -0.2699 -0.1388  0.1677
 2554W        W 6754   9.766   4.998   3.383  0.0441 -0.0647  0.6195
 2555W        W 6755   6.647   4.436   1.293 -0.0088 -0.0682  0.3747
 2556W        W 6756   0.603   7.393   2.445 -0.0241 -0.1253 -0.2227
 2557W        W 6757   3.314   5.859  10.840  0.1763  0.2513  0.1938
 2558W        W 6758   2.351   4.059  12.294 -0.2932 -0.0021  0.2296
 2559W        W 6759   3.792   7.543   2.680 -0.0701 -0.0277 -0.2430
 2560W        W 6760   0.366   9.888  10.835 -0.3614  0.0704 -0.2036
 2561W        W 6761   2.023   5.417   1.613 -0.0673  0.0309 -0.1123
 2562W        W 6762   8.967   3.370   0.644  0.1536 -0.1084  0.0654
 2563W        W 6763   0.670   6.257   4.843 -0.2978 -0.2686  0.0779
 2564W        W 6764  10.170   5.781   1.764 -0.0983 -0.1004  0.1399
 2565W        W 6765   2.876   2.255  11.388 -0.0802 -0.1804 -0.1888
 2566W        W 6766   5.129   3.499   3.499 -0.1275  0.2882 -0.0982
 2567W        W 6767   9.984   5.106   8.878  0.1009 -0.1618  0.0791
 2568W        W 6768   5.413   1.137   0.837  0.0443 -0.0475  0.0254
 2569W        W 6769   4.027   9.858  10.005 -0.0711  0.0073 -0.1832
 2570W        W 6770   6.565   5.151  11.810 -0.2923  0.2820  0.1387
 2571W        W 6771   8.640   8.610   2.998 -0.1238 -0.1903 -0.1186
 2572W        W 6772   1.407   3.603   3.658 -0.4180  0.2232 -0.0838
 2573W        W 6773   7.662   3.283  11.013 -0.0637 -0.0028  0.0945
 2574W        W 6774   6.933   4.981  11.530 -0.1402 -0.4002 -0.0596
 2575W        W 6775  10.304   3.212  10.203  0.0875 -0.0482  0.2363
 2576W        W 6776   4.574   0.673   5.728 -0.2270 -0.2539 -0.0030
 2577W        W 6777   1.787   2.960   0.141  0.0547 -0.1922 -0.0294
 2578W        W 6778   3.579   0.929  10.749 -0.1070 -0.1811 -0.0524
 2579W        W 6779   5.398   1.416   1.641  0.3178  0.0072  0.1145
 2580W        W 6780   5.818   8.322   9.840  0.0114 -0.0822  0.3961
 2581W        W 6781   2.650   3.106   9.705 -0.2253 -0.0541 -0.2588
 2582W        W 6782   1.325   1.821   3.537 -0.1200 -0.0356  0.3067
 2583W        W 6783   0.663   8.040  10.306 -0.0403  0.0978  0.1802
 2584W        W 6784   5.752   6.723   4.419 -0.0608  0.1030 -0.1896
 2585W        W 6785   8.952   9.146  11.290  0.3330 -0.2782 -0.1154
 2586W        W 6786   4.735   5.632  12.454  0.1602 -0.1330  0.4125
 2587W        W 6787  10.079   0.019  12.017 -0.3160  0.1443  0.2013
 2588W        W 6788   6.686   1.897  11.676 -0.0646  0.2903 -0.0266
 2589W        W 6789   1.363   7.663   9.803 -0.0676 -0.1236 -0.1121
 2590W        W 6790   0.338   8.574   3.398 -0.0791 -0.1070 -0.1143
 2591W        W 6791   8.048   3.687   0.988  0.1401 -0.0045 -0.1705
 2592W        W 6792   3.756   4.083   0.648 -0.0882  0.1217  0.1000
 2593W        W 6793  10.391  10.227   3.748 -0.1942  0.2988 -0.0452
 2594W        W 6794   7.598   4.019   0.724 -0.2671 -0.1561 -0.1230
 2595W        W 6795   5.608   9.339   1.456 -0.3366 -0.2806  0.0648
 2596W        W 6796   8.778   4.841   4.947  0.0016 -0.4420 -0.1630
 2597W        W 6797  10.028   0.369   3.619  0.1428 -0.0880  0.3521
 2598W        W 6798   7.729   8.330   3.784 -0.0717 -0.0126 -0.1872
 2599W        W 6799   0.414   9.218   1.904  0.1918  0.0975 -0.1981
 2600W        W 6800   3.883   7.619   4.694 -0.0633 -0.0313 -0.4571
 2601W        W 6801   0.243   2.164   0.915 -0.1285  0.0158 -0.3696
 2602W        W 6802   4.825   7.004  10.837 -0.0940  0.1112  0.4265
 2603W        W 6803   7.103   7.481   3.192 -0.1525 -0.4329 -0.3506
 2604W        W 6804   0.581   7.125  11.652 -0.4513 -0.1566  0.0934
 2605W        W 6805   4.854   8.942  13.084 -0.1507 -0.3286  0.0523
 2606W        W 6806   9.460   1.819  10.613 -0.0112 -0.2801  0.0811
 2607W        W 6807   0.481   6.157  10.441 -0.1912  0.0144 -0.2472
 2608W        W 6808   7.175   5.526   2.607  0.1501 -0.0823 -0.0063
 2609W        W 6809   3.457   5.815  12.602  0.1545 -0.2184 -0.0138
 2610W        W 6810   4.142   9.012  10.515  0.0602  0.0121  0.1806
 2611W        W 6811   1.413   0.167  11.991  0.1195  0.0594  0.1289
 2612W        W 6812   2.914   5.804  12.481  0.1275 -0.1779 -0.3778
 2613W        W 6813   6.586   3.141   4.038 -0.3728 -0.0889  0.0601
 2614W        W 6814   7.555   8.205  11.937 -0.0861  0.1258  0.0914
 2615W        W 6815   9.503   8.975   0.747 -0.1221 -0.1480 -0.1909
 2616W        W 6816   9.350   6.067  11.247  0.0781 -0.1971  0.1086
 2617W        W 6817   0.171   2.820  12.967 -0.0470  0.1059  0.1123
 2618W        W 6818   5.209   4.491   9.404 -0.0130 -0.0919 -0.0909
 2619W        W 6819   2.580   3.442  13.051 -0.1074 -0.1219  0.1316
 2620W        W 6820   6.659   4.307   8.448 -0.1350  0.0095 -0.1411
 2621W        W 6821   8.312   9.119   1.022  0.3198  0.0237  0.0361
 2622W        W 6822   3.975   5.175   1.951  0.1575 -0.3431 -0.1036
 2623W        W 6823   3.872   7.256   0.891 -0.3691 -0.2020  0.2199
 2624W        W 6824   9.490   5.214  11.856  0.0039 -0.2081 -0.2026
 2625W        W 6825   7.388   6.347   3.657  0.1756 -0.0382 -0.1525
 2626W        W 6826  10.062   1.447  12.845  0.0239  0.1495  0.1769
 2627W        W 6827  10.171   2.441   2.254 -0.0741 -0.0345 -0.2821
 2628W        W 6828   2.817   7.509   9.482 -0.0354  0.2671  0.1909
 2629W        W 6829   3.037   7.352   3.100 -0.0716 -0.0605  0.1438
 2630W        W 6830   9.596   4.372   1.070 -0.1932  0.3645 -0.0818
 2631W        W 6831   9.346   5.819  10.266  0.0762  0.2316  0.0260
 2632W        W 6832   2.485   7.387   3.012 -0.0853  0.1038  0.0855
 2633W        W 6833   6.097  10.017  13.325 -0.1545 -0.1161  0.3105
 2634W        W 6834   2.852   7.706   5.509  0.4046 -0.0882  0.0502
 2635W        W 6835   8.111   4.594   9.968 -0.1154  0.0625  0.1748
 2636W        W 6836   2.319   9.919   4.975  0.4131 -0.0318 -0.2610
 2637W        W 6837   2.766   0.270   1.962 -0.0407 -0.0557 -0.4312
 2638W        W 6838   4.299   6.723   0.505  0.1505 -0.1972  0.0759
 2639W        W 6839   3.073   6.139  12.750 -0.0428 -0.3724 -0.0899
 2640W        W 6840   7.255   8.396  10.336 -0.1260  0.0535  0.3100
 2641W        W 6841   8.848   1.751   0.079  0.1057 -0.4090  0.1638
 2642W        W 6842   2.338   3.062   0.826  0.3515  0.1894 -0.2702
 2643W        W 6843   2.574   5.013   3.675 -0.1086 -0.1161 -0.1753
 2644W        W 6844   2.221   8.939  12.225  0.3963  0.0602  0.2183
 2645W        W 6845   4.697   5.057   2.135 -0.2695 -0.0641 -0.0899
 2646W        W 6846   3.659   4.320  10.796  0.3862  0.3404  0.2812
 2647W        W 6847   9.130   4.975   4.005 -0.1992  0.0512 -0.0616
 2648W        W 6848   7.798   8.006   9.552  0.0125  0.1768  0.1915
 2649W        W 6849   4.423   3.184   3.003 -0.1367 -0.0388 -0.0012
 2650W        W 6850  10.025   3.366   2.564 -0.2514  0.2784 -0.3333
 2651W        W 6851   1.193  10.421   3.496 -0.0912  0.1645  0.1305
 2652W        W 6852   8.420   7.646   9.792  0.0298  0.0345 -0.0725
 2653W        W 6853   1.576   8.363  10.369 -0.2810  0.0080  0.2359
 2654W        W 6854   3.547   3.726   4.710 -0.1536 -0.2073 -0.2773
 2655W        W 6855   0.682   5.512   1.382 -0.0678  0.1539  0.0206
 2656W        W 6856   0.659   5.386  10.329 -0.0480 -0.0379  0.3572
 2657W        W 6857   2.106   0.284   9.814  0.1250 -0.2090  0.0213
 2658W        W 6858   8.944   1.382  11.271 -0.1671 -0.2268 -0.3032
 2659W        W 6859   4.446   4.984   5.503  0.0092 -0.2738 -0.0243
 2660W        W 6860   0.413   7.444  12.117  0.0740 -0.4801 -0.0998
 2661W        W 6861   9.998   6.655   9.585  0.3524 -0.1326 -0.2496
 2662W        W 6862   0.360   2.037   4.374 -0.1573  0.0798  0.0099
 2663W        W 6863   9.704   1.047   9.479  0.2350  0.1229 -0.1002
 2664W        W 6864   0.454   2.046   3.313 -0.0252  0.2097 -0.1153
 2665W        W 6865   1.689   4.780   4.491  0.3568 -0.2621 -0.1937
 2666W        W 6866   2.608   0.394   0.235 -0.3254  0.3600  0.2901
 2667W        W 6867   3.615   9.003   3.874  0.0159  0.1415 -0.1837
 2668W        W 6868   7.950   9.550  11.166  0.2122  0.5374  0.0456
 2669W        W 6869   9.019   9.156   2.381  0.1706 -0.2870  0.0596
 2670W        W 6870   2.286   3.917   2.662  0.0305 -0.0394 -0.1045
 2671W        W 6871   7.283   6.928   1.029  0.2125  0.0063 -0.0228
 2672W        W 6872   0.258   6.492  10.929 -0.1884 -0.0352 -0.0590
 2673W        W 6873   1.810   1.956  13.478  0.0569 -0.0493 -0.0702
 2674W        W 6874   5.118   7.489  11.806  0.0474 -0.1253 -0.0812
 2675W        W 6875   0.112   4.200   1.473  0.2430  0.0179 -0.0616
 2676W        W 6876   1.223   1.879   1.463 -0.0648  0.0342  0.2634
 2677W        W 6877   1.528  10.282   0.923  0.2156 -0.1217 -0.3330
 2678W        W 6878   4.071   0.125   3.403  0.0470 -0.0404 -0.2023
 2679W        W 6879   0.339   6.601  12.820 -0.4807  0.3399  0.3084
 2680W        W 6880   4.218  10.425   1.533 -0.0145  0.2513 -0.0153
 2681W        W 6881   3.204   3.723   9.765  0.0800  0.3831  0.0502
 2682W        W 6882   8.686   8.476   1.477 -0.2234  0.3333  0.2363
 2683W        W 6883   4.114   3.788  13.417  0.2648  0.0029 -0.1608
 2684W        W 6884   0.357   5.147   1.170 -0.2610 -0.0129  0.0537
 2685W        W 6885   8.406   0.064  10.959  0.2735  0.1383 -0.3254
 2686W        W 6886   2.491   4.005   2.186  0.1426  0.0060 -0.0616
 2687W        W 6887   2.253   5.423   2.897 -0.0796 -0.0151  0.0578
 2688W        W 6888   1.380   7.120   4.549  0.0067  0.0922 -0.0671
 2689W        W 6889   4.957   9.549  10.376 -0.0399 -0.1921  0.3129
 2690W        W 6890   3.405   5.352  11.768 -0.1202 -0.1274 -0.0766
 2691W        W 6891   1.509   0.539  12.475  0.1204  0.0295  0.2561
 2692W        W 6892   7.264   6.282  10.973 -0.0077 -0.1034  0.0238
 2693W        W 6893   8.513   7.457   4.272 -0.0250  0.2034  0.3258
 2694W        W 6894   0.557   1.065   3.752 -0.3890  0.1517 -0.0120
 2695W        W 6895   2.846   4.083  10.063 -0.1493  0.0510 -0.1057
 2696W        W 6896  10.446   5.551   4.555  0.1247 -0.0336  0.1821
 2697W        W 6897   7.970   6.935   3.835 -0.0364  0.0808 -0.2486
 2698W        W 6898   4.408   6.275  11.876  0.1750 -0.0603 -0.0023
 2699W        W 6899   4.900   2.542   1.417  0.0857 -0.2891  0.0223
 2700W        W 6900  10.152   9.408   3.463 -0.1326 -0.2229  0.0600
 2701W        W 6901   3.406   1.024  12.072 -0.1988  0.2847  0.1603
 2702W        W 6902  10.263   3.544   9.261  0.0109 -0.0385  0.0128
 2703W        W 6903   9.762   4.325  11.796 -0.0122  0.1710  0.4312
 2704W        W 6904   3.238   9.654   3.814 -0.1294  0.0964  0.1100
 2705W        W 6905   9.087   8.660   0.846  0.1818  0.0175  0.2138
 2706W        W 6906   8.857   2.387   3.046 -0.2543  0.0053 -0.3281
 2707W        W 6907   0.652   1.922  13.389 -0.0546 -0.2173 -0.1319
 2708W        W 6908   3.619   4.029   9.936 -0.1469 -0.0198  0.1982
 2709W        W 6909   1.248   4.723  11.029  0.0685 -0.1783 -0.2077
 2710W        W 6910   4.634   1.959   3.321  0.3402  0.0309  0.2530
 2711W        W 6911   9.010   4.663  12.339 -0.1372 -0.1342 -0.1460
 2712W        W 6912   4.314   0.471   9.877  0.2094 -0.1713 -0.0263
 2713W        W 6913   7.021   8.380   1.898 -0.2173 -0.1414 -0.2508
 2714W        W 6914   1.727   1.925   4.449  0.1173 -0.1259 -0.3225
 2715W        W 6915   3.614   5.335  12.399 -0.2598 -0.0571 -0.0475
 2716W        W 6916   0.592   0.031  10.005 -0.0683 -0.0023  0.1995
 2717W        W 6917   0.994   2.229  12.515  0.0238  0.1088  0.1857
 2718W        W 6918   8.471   2.315   1.197  0.1463  0.0523 -0.0723
 2719W        W 6919   3.256   4.358   1.960  0.0659 -0.2585 -0.3941
 2720W        W 6920   5.901   3.929   4.917  0.2087  0.2071  0.1192
 2721W        W 6921   5.635   4.364   2.263 -0.2543  0.1541  0.0029
 2722W        W 6922   2.883   5.803  13.111 -0.2481 -0.2997  0.1046
 2723W        W 6923   5.305   7.204   9.674  0.0131 -0.0704  0.0027
 2724W        W 6924   2.140   2.358  12.031 -0.1337 -0.1825 -0.1566
 2725W        W 6925   3.686  10.296   9.944  0.3283  0.3227 -0.0278
 2726W        W 6926   7.271   2.989  13.014 -0.1248 -0.1083 -0.1838
 2727W        W 6927   1.010   4.600   0.551 -0.0489  0.1846 -0.2833
 2728W        W 6928   1.195   2.918  11.865 -0.0787 -0.3183  0.1236
 2729W        W 6929   1.662   2.829   2.775 -0.0550  0.0811 -0.2070
 2730W        W 6930   3.999   6.197  10.891 -0.1268  0.0322 -0.0472
 2731W        W 6931   8.631   5.738  10.122 -0.0901  0.0946  0.0406
 2732W        W 6932   1.268   6.862  10.162  0.0208 -0.2513 -0.2620
 2733W        W 6933   7.160   9.933   9.640  0.0063 -0.2142  0.1855
 2734W        W 6934   1.247   3.281  11.538  0.1662  0.0591 -0.2158
 2735W        W 6935   5.959   5.296   3.223  0.0692  0.1204  0.0148
 2736W        W 6936   2.760  10.052   0.936  0.4116 -0.0586 -0.0444
 2737W        W 6937   7.057  10.332   2.606  0.0666 -0.1725 -0.1636
 2738W        W 6938   9.241  10.064  11.298  0.1489 -0.3634  0.2031
 2739W        W 6939   9.931   1.065  10.816 -0.0855  0.2034  0.4997
 2740W        W 6940   0.434   3.750  13.436  0.2212  0.0606 -0.1919
 2741W        W 6941   6.693   5.773   0.265  0.1133  0.2633  0.0015
 2742W        W 6942   0.794   9.533  10.114 -0.2943 -0.1982  0.0876
 2743W        W 6943   5.421   8.128   3.569 -0.2172  0.1079 -0.3742
 2744W        W 6944   7.293  10.029  12.018  0.0869  0.3585 -0.1599
 2745W        W 6945   2.686   5.547  10.112  0.1606 -0.2119 -0.1222
 2746W        W 6946   2.742  10.127   3.222 -0.1111  0.0965  0.0000
 2747W        W 6947   5.655   5.599   3.517  0.1313 -0.1050 -0.2151
 2748W        W 6948   3.436   1.752  10.031 -0.0749  0.2234 -0.1413
 2749W        W 6949   4.057   1.358  10.370  0.2670  0.0167 -0.2987
 2750W        W 6950   0.804   0.424  12.932 -0.1893 -0.0682 -0.0365
 2751W        W 6951   0.245   3.744   0.874  0.0635  0.1738  0.2637
 2752W        W 6952   5.159   2.875   9.815  0.2027  0.1863  0.1035
 2753W        W 6953   8.122   6.261   2.541  0.3462 -0.1762  0.2250
 2754W        W 6954   2.172   2.276   0.539 -0.0607  0.3955  0.2993
 2755W        W 6955   8.776   0.658   0.463 -0.0322 -0.2705 -0.0359
 2756W        W 6956   2.378   1.789   9.974 -0.4178 -0.4001  0.0405
 2757W        W 6957   9.952   8.816  10.724  0.0274  0.1603 -0.2667
 2758W        W 6958   8.100   2.767  11.467  0.1594  0.2383  0.1087
 2759W        W 6959   2.722   3.895  10.936  0.0369 -0.2077 -0.0981
 2760W        W 6960   6.282   3.757   4.627  0.2846 -0.0074 -0.1112
 2761W        W 6961   9.285   3.493  11.602 -0.1805 -0.2138 -0.1969
 2762W        W 6962   1.767   0.631   5.784 -0.0395 -0.0333  0.3774
 2763W        W 6963   4.562   0.849  11.682  0.2076 -0.1858  0.2008
 2764W        W 6964   4.673   4.628   4.262  0.0403  0.1099  0.0142
 2765W        W 6965   3.026   4.775   3.693 -0.1174 -0.2882 -0.0145
 2766W        W 6966   1.199   9.858   2.564 -0.2963  0.2605 -0.2403
 2767W        W 6967   9.123   4.355  10.826 -0.2228  0.2840  0.2458
 2768W        W 6968   6.908   6.392   1.644 -0.0404 -0.1828  0.6592
 2769W        W 6969   4.311   9.563  13.370 -0.0747 -0.0989  0.0623
 2770W        W 6970  10.001   6.576  10.360 -0.2224 -0.2841  0.0463
 2771W        W 6971   3.252   2.040  12.984  0.1256  0.2401 -0.0947
 2772W        W 6972   7.260   2.534  12.800  0.0532 -0.2241  0.2820
 2773W        W 6973   1.688   6.079  10.979 -0.3933 -0.5431  0.0672
 2774W        W 6974   0.738   9.570   3.881  0.0822 -0.0420 -0.2541
 2775W        W 6975   2.494   2.681   1.599  0.3118 -0.1505  0.1713
 2776W        W 6976   1.087   7.808  11.314  0.0077 -0.0811  0.1019
 2777W        W 6977   1.124   7.796   0.029 -0.1042 -0.3396  0.0338
 2778W        W 6978   5.710   0.683  11.455  0.0691  0.1739  0.1407
 2779W        W 6979   0.861   7.568   2.025 -0.2172  0.2180 -0.1643
 2780W        W 6980   2.188   9.995   2.514 -0.1724 -0.2536 -0.0226
 2781W        W 6981   9.141   1.010  10.129 -0.0862  0.3859  0.1440
 2782W        W 6982   5.556   6.679   9.051  0.0398  0.5209  0.2342
 2783W        W 6983   4.117   1.250   3.589 -0.0942  0.0416  0.1908
 2784W        W 6984   3.444   2.634   9.155  0.0388  0.3483 -0.0484
 2785W        W 6985   3.176   2.782   0.588  0.0219  0.1349 -0.1820
 2786W        W 6986   1.284   6.201   0.752  0.0170 -0.2368  0.0456
 2787W        W 6987  10.288   5.424  10.387  0.2572  0.1022 -0.1990
 2788W        W 6988   0.274   7.684   4.406 -0.0615 -0.0376 -0.1978
 2789W        W 6989   2.402   0.363   0.650 -0.1942  0.2572 -0.1169
 2790W        W 6990   9.200   0.855   1.989  0.1575 -0.0854  0.3349
 2791W        W 6991   7.049   5.398  11.883 -0.0849  0.1507 -0.3400
 2792W        W 6992   6.758   4.510   3.649 -0.0660  0.2138 -0.2704
 2793W        W 6993   5.530   9.368  11.315  0.4066  0.2092 -0.0343
 2794W        W 6994   1.253   9.946   1.144  0.0147  0.0578 -0.1226
 2795W        W 6995   7.691   1.388  11.812  0.1386 -0.1206  0.0568
 2796W        W 6996   0.095   2.583  10.923  0.0147 -0.2597 -0.0247
 2797W        W 6997   9.486   9.782  12.564  0.0181 -0.0739  0.4218
 2798W        W 6998   2.657   1.868   1.127 -0.0512  0.2000 -0.0791
 2799W        W 6999   7.773   8.194   1.453 -0.2226 -0.1780  0.2056
 2800W        W 7000   1.042   0.941  10.971 -0.1787  0.3962  0.2409
 2801W        W 7001   7.114   4.125   9.976  0.0735 -0.3817 -0.1250
 2802W        W 7002   0.101   5.841  13.088 -0.1493 -0.1215  0.1290
 2803W        W 7003   3.105   1.745   3.553  0.3115  0.0138 -0.0915
 2804W        W 7004   8.921   3.778   0.921 -0.0261  0.1180  0.0551
 2805W        W 7005   8.717   9.681  11.399  0.0133  0.2135  0.0786
 2806W        W 7006   4.522   6.456   3.284  0.1094 -0.4459 -0.0513
 2807W        W 7007   0.380   4.320  12.776 -0.3369  0.1031  0.0510
 2808W        W 7008   6.227   6.022   0.585  0.0025 -0.4765 -0.0681
 2809W        W 7009   9.941   2.784  12.169 -0.1452 -0.0711 -0.0309
 2810W        W 7010   6.794   4.055  11.683  0.2859 -0.0205  0.0180
 2811W        W 7011   7.835   7.697  11.972 -0.1678  0.0062  0.2107
 2812W        W 7012   5.908   6.048   0.232 -0.1013 -0.0777  0.0328
 2813W        W 7013   9.436   3.657   3.341 -0.1121  0.0010  0.2505
 2814W        W 7014   2.526  10.178  11.734  0.1263 -0.1755 -0.1376
 2815W        W 7015   5.749   6.345   4.079  0.1326  0.2945  0.0242
 2816W        W 7016   9.896   6.001   3.239 -0.1113 -0.2142 -0.0932
 2817W        W 7017   5.199   5.898   1.328 -0.0589 -0.2129 -0.1518
 2818W        W 7018   8.293   8.917  11.838 -0.0608 -0.0773  0.1562
 2819W        W 7019   9.736   9.344   0.501 -0.2734  0.1943 -0.2397
 2820W        W 7020   2.152   3.714   4.211  0.1833 -0.2190 -0.0318
 2821W        W 7021   0.100   2.505   1.289 -0.0432  0.2040  0.1856
 2822W        W 7022   9.356   7.145   0.082 -0.2146 -0.3199  0.0952
 2823W        W 7023   0.757   9.033   3.184  0.1243  0.1327 -0.3578
 2824W        W 7024  10.006   6.643   3.977 -0.2522 -0.1572 -0.2460
 2825W        W 7025   9.034   8.605   2.279  0.0782 -0.2496 -0.1035
 2826W        W 7026   7.023  10.434  11.881  0.2876  0.1415  0.1452
 2827W        W 7027   0.768   7.812  12.267 -0.1023  0.0374 -0.0718
 2828W        W 7028   3.778   8.358   0.765 -0.4400  0.0268 -0.0506
 2829W        W 7029   9.447   3.354   3.755  0.1100 -0.0792 -0.0864
 2830W        W 7030   9.798   3.788   1.150  0.2649  0.4726  0.2325
 2831W        W 7031   0.435   1.859   4.869  0.2901  0.1422 -0.1520
 2832W        W 7032   7.956   1.336   2.042 -0.1071 -0.0200 -0.0032
 2833W        W 7033   0.580   9.328  11.130 -0.2254  0.2119 -0.0820
 2834W        W 7034   5.432   6.183   1.778 -0.0904  0.1858  0.4226
 2835W        W 7035   9.353   9.618   0.267  0.0534  0.0980 -0.1731
 2836W        W 7036   9.845   1.550   4.209  0.1899 -0.1875  0.0223
 2837W        W 7037   3.201   9.877  11.688  0.0662 -0.2142  0.0122
 2838W        W 7038   1.602   2.450  11.834  0.3340 -0.2090 -0.2857
 2839W        W 7039   0.031   0.647   3.044  0.2378  0.0729 -0.0568
 2840W        W 7040   5.352   8.081  12.659 -0.2904 -0.3038  0.1679
 2841W        W 7041   1.213   6.876   9.175  0.2713 -0.3178 -0.1555
 2842W        W 7042   4.453   2.193   3.830  0.0206  0.1448  0.0452
 2843W        W 7043   6.311   0.715   3.275 -0.1316 -0.2777 -0.2178
 2844W        W 7044   2.410   8.918   3.850 -0.2128  0.2216  0.1182
 2845W        W 7045   6.345   2.979   2.712  0.0397 -0.2016  0.1323
 2846W        W 7046   6.312   0.095  13.533  0.1581 -0.0337  0.1974
 2847W        W 7047   6.800   5.492  13.134 -0.0735  0.0927 -0.2008
 2848W        W 7048   7.037   1.544   1.479  0.0259  0.1583  0.0721
 2849W        W 7049   7.781   3.580   3.136 -0.2499  0.0276 -0.0756
 2850W        W 7050   4.351   3.806  12.020 -0.1264  0.0212  0.3567
 2851W        W 7051   4.820   6.726  12.218 -0.1595  0.1791 -0.1254
 2852W        W 7052   8.697   3.980   2.033  0.2222 -0.3115  0.0157
 2853W        W 7053   7.630   2.595   0.182 -0.1609  0.0594 -0.2230
 2854W        W 7054   5.278   3.486   2.596 -0.0546 -0.2566 -0.1488
 2855W        W 7055   3.669  10.331   0.666 -0.0155 -0.1202 -0.1098
 2856W        W 7056   4.826  10.087   0.340 -0.0499  0.0037 -0.1830
 2857W        W 7057   0.087   3.761  11.539  0.0953  0.0011 -0.1742
 2858W        W 7058   5.510   7.567  10.939  0.1649 -0.0571 -0.2377
 2859W        W 7059  10.018   7.281  12.929 -0.0542  0.0697  0.1539
 2860W        W 7060   2.170   6.217  10.657 -0.2428  0.1236 -0.1387
 2861W        W 7061   2.792   0.489   1.115  0.4569  0.1833  0.0185
 2862W        W 7062   9.102   5.140  10.837 -0.2609 -0.3719  0.3910
 2863W        W 7063   2.241   9.014   5.312 -0.3472  0.0123  0.0735
 2864W        W 7064  10.032   3.410   0.919  0.2327  0.0778  0.0257
 2865W        W 7065   7.684  10.441   0.745 -0.0454  0.0519  0.1010
 2866W        W 7066   1.188   9.630  12.480 -0.3083  0.0154  0.1785
 2867W        W 7067   7.487   5.709  11.439  0.0357 -0.1889 -0.0222
 2868W        W 7068   7.327  10.201  12.520  0.0321  0.0202  0.0994
 2869W        W 7069   4.233   3.420   4.185  0.2489  0.2295  0.1423
 2870W        W 7070   8.893   2.131   9.469  0.1062 -0.0738 -0.0644
 2871W        W 7071   4.815   5.081  11.680  0.2728 -0.1352  0.2082
 2872W        W 7072   2.295   3.467  10.669  0.1343 -0.0800 -0.0147
 2873W        W 7073   5.691   8.577  10.654 -0.2332 -0.0062 -0.1938
 2874W        W 7074   5.621   5.805  12.135  0.0289 -0.0300 -0.0441
 2875W        W 7075   6.416   0.165   1.953  0.2120 -0.2623 -0.0027
 2876W        W 7076   8.299  10.056   0.557 -0.0920 -0.2332  0.1006
 2877W        W 7077  10.324   6.089  11.184 -0.2534  0.0850  0.2755
 2878W        W 7078  10.422   0.956   2.372  0.2975 -0.1445  0.1932
 2879W        W 7079   1.550   8.255   2.226 -0.4595 -0.0629 -0.0838
 2880W        W 7080   6.286   6.007  10.468  0.0150 -0.0085 -0.4938
 2881W        W 7081   5.106   9.394   2.851 -0.0565 -0.0103 -0.1371
 2882W        W 7082   1.256   5.608   8.335  0.3251 -0.2279  0.0697
 2883W        W 7083   1.656   9.802   8.708 -0.1337 -0.2066 -0.0634
 2884W        W 7084   4.298   5.465   1.017 -0.2367  0.1192  0.0929
 2885W        W 7085   4.680   2.061   9.553 -0.3711  0.0036  0.0332
 2886W        W 7086   2.307   6.672   0.992 -0.0736  0.0779 -0.2231
 2887W        W 7087   9.580   4.396   4.633  0.0757  0.0990  0.2438
 2888W        W 7088   4.935   2.126   4.758  0.1474  0.1223 -0.0879
 2889W        W 7089   4.151   5.901   9.020 -0.0778  0.2736  0.2771
 2890W        W 7090  10.397   4.095  13.097 -0.0173 -0.0992  0.1260
 2891W        W 7091   9.535   5.052   2.475 -0.2865 -0.1316  0.1164
 2892W        W 7092   0.361   6.195   1.077  0.0332  0.0099  0.0895
 2893W        W 7093   8.065   5.297   3.409 -0.1944  0.0841  0.0188
 2894W        W 7094   6.758   8.215  10.193  0.1371 -0.0927 -0.0814
 2895W        W 7095   4.568   5.521  10.052 -0.2123 -0.0514  0.1264
 2896W        W 7096   1.344   7.113  10.997  0.1803  0.1181 -0.1825
 2897W        W 7097   9.437   6.266   0.286  0.2802 -0.0297  0.2472
 2898W        W 7098   0.750   5.456   0.894 -0.1682 -0.0236 -0.2700
 2899W        W 7099  10.046   9.858   3.678  0.2680 -0.0498  0.2551
 2900W        W 7100   8.787   0.343   3.125 -0.1683  0.3154  0.3436
 2901W        W 7101  10.423   3.210   0.610  0.1047  0.0228  0.2748
 2902W        W 7102   6.995   7.708   0.884  0.2671 -0.0557  0.2703
 2903W        W 7103   6.040   3.274   4.787 -0.1777 -0.0079  0.2006
 2904W        W 7104   5.869   1.496  12.624  0.0172 -0.0189  0.0758
 2905W        W 7105   4.016   4.614   1.791 -0.0179  0.3585  0.3575
 2906W        W 7106   0.077   8.194   2.710  0.2209 -0.0948 -0.0381
 2907W        W 7107   4.711   0.430  10.836  0.1619  0.2829  0.2010
 2908W        W 7108   6.985   4.130   0.997  0.0065 -0.2077  0.0308
 2909W        W 7109   3.402   5.106  10.328  0.0231 -0.1351  0.0030
 2910W        W 7110   2.962   5.641  10.554  0.1901 -0.0466  0.0118
 2911W        W 7111   5.120   0.625  13.142  0.0515  0.1287 -0.0266
 2912W        W 7112   5.276   6.275   8.709  0.0249  0.1626  0.0630
 2913W        W 7113   9.142   3.827   0.449 -0.1315  0.2354 -0.2707
 2914W        W 7114   5.376   5.191   2.607  0.0126  0.0645 -0.3409
 2915W        W 7115   2.285   2.053   3.876  0.2854  0.2180  0.0704
 2916W        W 7116   6.059   0.195   3.856  0.2058  0.4776  0.2558
 2917W        W 7117   2.675   4.521   4.025 -0.3195 -0.3255 -0.2529
 2918W        W 7118   7.554   0.035  12.065  0.2233 -0.2285  0.1213
 2919W        W 7119   4.905   1.588  10.733 -0.0803  0.0562 -0.0362
 2920W        W 7120   2.156   6.923   2.138  0.4461  0.0637 -0.4658
 2921W        W 7121   8.412   4.489   5.026 -0.0340 -0.0117 -0.0392
 2922W        W 7122   1.865  10.099   9.204 -0.1268  0.1363 -0.0772
 2923W        W 7123   3.440   2.609   0.116  0.2924  0.0565 -0.1250
 2924W        W 7124   1.078  10.043  13.292  0.0290 -0.4570  0.4822
 2925W        W 7125   4.804   6.386   0.036  0.1865  0.0468 -0.3494
 2926W        W 7126   6.101   0.014   2.356 -0.0970  0.1913 -0.0126
 2927W        W 7127   2.221   0.657   5.442  0.0768  0.1878  0.0022
 2928W        W 7128   4.218   9.090  13.045  0.1227 -0.1315 -0.2377
 2929W        W 7129   4.053   8.489   9.857 -0.0267  0.1286 -0.3296
 2930W        W 7130   2.983   1.471  10.302  0.0702  0.1966 -0.1982
 2931W        W 7131   1.306   8.204   4.781 -0.4658 -0.0797 -0.1226
 2932W        W 7132   3.475   2.243  10.390 -0.3910 -0.0901  0.2241
 2933W        W 7133   0.274   3.312  12.610  0.1346  0.0230 -0.0273
 2934W        W 7134   0.326   1.056   3.306 -0.0815 -0.0229 -0.0447
 2935W        W 7135   3.381   1.276   9.705 -0.1140  0.3313 -0.2116
 2936W        W 7136  10.277   0.074   2.365 -0.1811  0.2631 -0.1202
 2937W        W 7137   8.400   4.850  10.316  0.1659 -0.1297 -0.3062
 2938W        W 7138   6.052   5.836  13.200  0.0181  0.2337  0.2581
 2939W        W 7139   7.970   5.853  11.495 -0.1205  0.1323  0.2063
 2940W        W 7140   4.666   1.164   9.608  0.0880  0.0781  0.0891
 2941W        W 7141   1.515   2.707   0.732  0.2042  0.0212  0.0603
 2942W        W 7142   6.260   2.713   3.168  0.0824 -0.1212 -0.0231
 2943W        W 7143   9.410   2.402  13.483 -0.0896  0.0133 -0.0082
 2944W        W 7144   4.143   8.469  10.323 -0.0303 -0.0266  0.0498
 2945W        W 7145   0.515   7.707  10.835  0.0532  0.0838  0.1047
 2946W        W 7146   1.889   1.158   3.972 -0.0765  0.0962 -0.1346
 2947W        W 7147   5.003   1.137   3.359  0.2136 -0.0793 -0.0524
 2948W        W 7148   5.236   5.097  10.119 -0.1928  0.4253  0.1160
 2949W        W 7149   1.014  10.345   4.430 -0.0926  0.0081 -0.2593
 2950W        W 7150   0.348   9.870  12.677  0.1114  0.2171 -0.0457
 2951W        W 7151   3.194   0.426  10.076  0.0939  0.0461  0.1665
 2952W        W 7152   2.796   3.554  11.363  0.1253 -0.0264 -0.0225
 2953W        W 7153   2.530   5.565  11.284 -0.0812 -0.0321 -0.0211
 2954W        W 7154   6.027   7.418   0.666 -0.0030 -0.2253  0.0879
 2955W        W 7155   0.683   5.249   9.138  0.0813  0.0353  0.2574
 2956W        W 7156   0.455   1.663   0.887 -0.0131  0.3246 -0.0082
 2957W        W 7157   3.659   7.155   8.980  0.2791  0.2698  0.0564
 2958W        W 7158  10.094   9.541   2.474 -0.1035  0.1506 -0.0450
 2959W        W 7159   7.166   3.770   3.898  0.0488  0.1794 -0.0694
 2960W        W 7160   5.923   3.047   2.034  0.0095  0.0844 -0.0190
 2961W        W 7161   9.423   8.992   0.201 -0.2744  0.1126 -0.0305
 2962W        W 7162   9.986  10.051   0.850 -0.1282  0.1808 -0.2787
 2963W        W 7163   0.013   0.295   3.340  0.0133  0.2347 -0.0283
 2964W        W 7164   0.032   0.647   0.094  0.1295  0.0618 -0.1113
 2965W        W 7165   9.415   9.058   3.878  0.0481 -0.1026  0.1103
 2966W        W 7166   7.677   7.747   2.323  0.1309  0.3730 -0.4544
 2967W        W 7167   2.104   2.880   9.845  0.2059 -0.1531 -0.1664
 2968W        W 7168   7.355   1.571   1.020  0.1270 -0.0870 -0.0007
 2969W        W 7169   7.966  10.403   2.217 -0.0174  0.0133 -0.0065
 2970W        W 7170   5.177   9.498   9.172 -0.1627 -0.0128  0.1309
 2971W        W 7171   2.133   4.635  12.269  0.1275  0.0454  0.2913
 2972W        W 7172   5.608  10.194   1.898  0.0098 -0.0024  0.1640
 2973W        W 7173   1.702  10.186  11.987 -0.0081 -0.1469  0.0958
 2974W        W 7174   1.431   8.827  13.179 -0.1539  0.1241  0.0220
 2975W        W 7175   3.630   1.437  10.859  0.1983 -0.0632  0.1958
 2976W        W 7176   1.540   2.295   1.105 -0.2416  0.1463 -0.0357
 2977W        W 7177   0.795   9.654  13.457 -0.0663 -0.1136 -0.0221
 2978W        W 7178   3.263   7.040   3.450 -0.2614 -0.1832  0.2603
 2979W        W 7179   4.574   7.148  12.405 -0.1236 -0.0071  0.1494
 2980W        W 7180   0.488   6.119   0.219  0.0015 -0.0364  0.4343
 2981W        W 7181   7.387   2.220   2.062  0.1907 -0.2511 -0.1873
 2982W        W 7182   0.786   8.864   2.712 -0.1784  0.1043 -0.1309
 2983W        W 7183   3.003   1.404   1.205  0.3986 -0.0037  0.4420
 2984W        W 7184   8.836   9.782  10.540  0.1574  0.2182  0.1076
 2985W        W 7185   4.986   2.135   3.731  0.1943 -0.4470 -0.0032
 2986W        W 7186   7.647   2.093  10.851 -0.1750 -0.0355  0.1248
 2987W        W 7187   6.674   6.755   4.845 -0.3358 -0.1180 -0.4967
 2988W        W 7188   0.979   1.626   2.803 -0.1243 -0.2807 -0.1565
 2989W        W 7189   0.371   3.036  12.173  0.0233  0.2356  0.1191
 2990W        W 7190   5.321   1.884  13.330 -0.1269  0.1838 -0.0528
 2991W        W 7191   1.346   1.117  11.317 -0.1480  0.1572 -0.1327
 2992W        W 7192   5.686   1.369   3.386 -0.1355  0.0528 -0.0810
 2993W        W 7193   1.926   5.966   4.250  0.0524  0.0200  0.0193
 2994W        W 7194   8.380   9.018   2.868  0.1759  0.1497  0.1338
 2995W        W 7195   4.837   8.014   3.628  0.1169  0.2001 -0.0312
 2996W        W 7196   5.011   5.703  10.207 -0.2127  0.1526  0.4959
 2997W        W 7197  10.328   3.440   2.170  0.0435  0.3873  0.1224
 2998W        W 7198   8.771   6.096  12.743 -0.2222  0.0528  0.1329
 2999W        W 7199   2.687   1.686   1.628  0.1118 -0.0703 -0.0682
 3000W        W 7200  10.415   9.261   3.845 -0.3690 -0.1731 -0.3490
 3001W        W 7201   8.948   1.532  10.815 -0.0027 -0.2302  0.0005
 3002W        W 7202   4.360   1.044   0.109 -0.1502 -0.3173  0.1855
 3003W        W 7203   7.459   7.817   9.919 -0.0353  0.3359 -0.4106
 3004W        W 7204   2.212   8.144   4.931 -0.0278  0.1917 -0.4705
 3005W        W 7205  10.332   1.289   9.532  0.5895  0.1371 -0.1777
 3006W        W 7206   4.069   5.721   0.056 -0.2913  0.0210 -0.1183
 3007W        W 7207   1.878   8.852   9.532 -0.0270 -0.4345 -0.1442
 3008W        W 7208   3.944   8.381   2.005 -0.1835 -0.0551 -0.0941
 3009W        W 7209   0.105   3.870   2.107 -0.1358  0.0409 -0.1095
 3010W        W 7210   5.749   3.639  10.550 -0.4217 -0.0625  0.3666
 3011W        W 7211   4.858   5.245  13.265  0.0473  0.0018 -0.1126
 3012W        W 7212  10.179   0.862   0.493  0.4629 -0.1407 -0.0678
 3013W        W 7213   0.112   6.757  13.202 -0.0072  0.0211  0.1080
 3014W        W 7214   1.303   0.648  10.045 -0.0818 -0.0049  0.1602
 3015W        W 7215   2.521   5.081  11.705 -0.1962 -0.1568 -0.3302
 3016W        W 7216   2.148   0.211   0.151 -0.0370  0.3148  0.0869
 3017W        W 7217   1.946  10.033  12.947 -0.0276  0.3887  0.0581
 3018W        W 7218   0.697   7.052   3.224 -0.0929 -0.0272 -0.2785
 3019W        W 7219  10.284   6.154  11.682  0.4346  0.0606  0.0209
 3020W        W 7220   8.041   2.389  10.550 -0.2154  0.0533  0.2457
 3021W        W 7221   8.607   5.799   4.691  0.1320 -0.1699  0.0116
 3022W        W 7222  10.245   8.748   1.116 -0.1634 -0.1708 -0.1511
 3023W        W 7223   0.795   4.040  12.453 -0.0645  0.0067  0.3274
 3024W        W 7224   0.707   8.897  10.692 -0.2611 -0.0472 -0.0794
 3025W        W 7225  10.384   5.074   0.381 -0.2174 -0.1703 -0.0583
 3026W        W 7226   4.841   7.880  12.573 -0.2266  0.0783 -0.0269
 3027W        W 7227   8.609   0.543   1.599 -0.6216  0.2937  0.0856
 3028W        W 7228   6.377   3.613   2.436 -0.2400 -0.0334  0.1822
 3029W        W 7229   3.033   8.951   0.412 -0.2908 -0.0023  0.0822
 3030W        W 7230   9.796   1.315  11.713  0.0696 -0.2747  0.1874
 3031W        W 7231   6.750   7.636  10.701 -0.0638 -0.4149 -0.0080
 3032W        W 7232   3.179   1.052  10.110 -0.0169  0.2332 -0.2673
 3033W        W 7233   2.274   0.090   9.154  0.1584 -0.0214 -0.1742
 3034W        W 7234   4.605   8.114   0.498 -0.1508 -0.0058 -0.2932
 3035W        W 7235   5.470   5.950   9.700 -0.0351 -0.0027 -0.1117
 3036W        W 7236   2.857   2.155   3.791 -0.0322  0.2735  0.2352
 3037W        W 7237   1.709  10.355   9.901  0.1554  0.4148 -0.3472
 3038W        W 7238   1.071   3.259  10.047 -0.1838 -0.1148 -0.0743
 3039W        W 7239   1.675   5.424  10.238 -0.2826  0.0709  0.0881
 3040W        W 7240   6.419   6.383  11.183  0.0294 -0.0075 -0.1141
 3041W        W 7241   4.959   0.511   0.492 -0.1033  0.0830 -0.3089
 3042W        W 7242   3.546   4.475   1.582  0.0812 -0.3262 -0.1801
 3043W        W 7243   3.522   3.430   9.577 -0.3026  0.1900  0.0875
 3044W        W 7244   3.414   3.519   1.626 -0.1011  0.0638 -0.1705
 3045W        W 7245  10.285   5.572   5.027  0.0036 -0.2004 -0.3316
 3046W        W 7246   5.233   6.650  11.007 -0.1023 -0.1905  0.2048
 3047W        W 7247   2.050   6.091   0.994  0.3298  0.0838  0.0418
 3048W        W 7248   2.131   0.032  12.748  0.1142  0.1221 -0.0154
 3049W        W 7249   3.674   7.338   3.531  0.2615 -0.4104 -0.0579
 3050W        W 7250   6.500   4.157  10.256  0.1062 -0.1756  0.0881
 3051W        W 7251   5.856   6.332   0.697 -0.0986  0.2213  0.0667
 3052W        W 7252   3.129   5.724   0.166 -0.1481 -0.1876  0.0119
 3053W        W 7253   9.342   2.349   4.367 -0.0105  0.2399 -0.6305
 3054W        W 7254   2.025   2.190   1.599  0.2655 -0.0398 -0.2049
 3055W        W 7255   6.978   8.343   2.831 -0.1308  0.3687 -0.1380
 3056W        W 7256   4.866   8.691   1.213  0.1522  0.1456  0.0171
 3057W        W 7257   0.793   6.346  10.887 -0.0520 -0.0444  0.0887
 3058W        W 7258   3.048   0.760   4.292  0.5190  0.0220 -0.3293
 3059W        W 7259   3.841   7.777   3.191  0.0287  0.0809 -0.1554
 3060W        W 7260   1.401   5.296   3.722 -0.0347  0.0378 -0.1455
 3061W        W 7261   0.996   9.986   0.727 -0.3558  0.0209  0.0639
 3062W        W 7262   2.578   4.821  10.708 -0.0913 -0.0794 -0.2596
 3063W        W 7263   7.772   1.245   1.032 -0.2807  0.2426  0.1120
 3064W        W 7264   3.916   9.327  11.259 -0.0851 -0.1416 -0.0799
 3065W        W 7265   5.203   0.552  11.701 -0.1579 -0.3336 -0.4269
 3066W        W 7266   9.930   4.297  12.284 -0.0156  0.0188 -0.0388
 3067W        W 7267   3.538   1.366  10.340 -0.1755  0.2675  0.2869
 3068W        W 7268   2.637   5.410  12.715 -0.2362 -0.1185  0.0562
 3069W        W 7269   6.958   3.164   9.136  0.2423  0.1559 -0.1115
 3070W        W 7270   9.202   0.317  10.541 -0.0450  0.0424  0.0724
 3071W        W 7271  10.137   3.171  13.028 -0.2580 -0.2377 -0.1519
 3072W        W 7272   2.939   6.993   0.119 -0.2308 -0.0750 -0.0049
 3073W        W 7273   3.375   4.331   2.828 -0.0973 -0.0652 -0.0490
 3074W        W 7274   5.994   4.829   9.937  0.0046  0.2620  0.0535
 3075W        W 7275   3.985   2.309   1.433  0.3847  0.1981 -0.0907
 3076W        W 7276   4.430   5.596   4.024 -0.0328  0.1302 -0.0408
 3077W        W 7277   9.742   9.065  11.960 -0.0710 -0.0943  0.0592
 3078W        W 7278   2.339   1.912  12.843 -0.0608 -0.0146  0.0288
 3079W        W 7279   8.170  10.384  11.487 -0.1749 -0.1567  0.0942
 3080W        W 7280   6.121   8.815  10.884  0.1248  0.2955 -0.0725
 3081W        W 7281   5.313   4.324  11.190  0.0387 -0.0694  0.4606
 3082W        W 7282   2.840   3.572   0.039  0.1739 -0.0161  0.0587
 3083W        W 7283   0.720   6.471   8.965  0.0244  0.0695  0.1848
 3084W        W 7284   2.639   7.909  10.120 -0.1106 -0.0191  0.1555
 3085W        W 7285   6.491   4.006   1.069 -0.2271  0.1303 -0.1333
 3086W        W 7286   2.624   6.543  10.290 -0.0823  0.0409 -0.2295
 3087W        W 7287   3.280   6.399   1.750 -0.0090  0.0936  0.2584
 3088W        W 7288   3.605   8.769   2.739  0.0428 -0.0479  0.3489
 3089W        W 7289   2.990   6.568  12.511 -0.1206  0.0793 -0.0534
 3090W        W 7290   5.507   0.742  12.026 -0.0269 -0.1635 -0.1288
 3091W        W 7291   4.434   5.135   3.024  0.0091 -0.1056 -0.2117
 3092W        W 7292   0.852   6.169   4.090 -0.0216 -0.2052  0.0973
 3093W        W 7293   7.871   4.358   9.440  0.0756  0.0493 -0.2650
 3094W        W 7294   0.441   0.107  11.687  0.2013 -0.1312  0.0323
 3095W        W 7295   3.874   8.708   1.592  0.1481 -0.0388  0.0856
 3096W        W 7296   3.191   5.415   3.173 -0.2455  0.0082  0.1396
 3097W        W 7297   1.711   1.838   1.240  0.0431  0.2854 -0.2799
 3098W        W 7298   5.130   4.757   4.254  0.2319 -0.0643 -0.3897
 3099W        W 7299   4.048   7.151   9.284  0.3572 -0.1488 -0.2579
 3100W        W 7300   2.729   9.954   0.423  0.2905  0.3444  0.3382
 3101W        W 7301   9.820   5.626   9.800  0.6754  0.1790 -0.0304
 3102W        W 7302   1.937   8.519  11.349 -0.1393 -0.1155 -0.0565
 3103W        W 7303   8.828   6.613  10.078 -0.1564  0.4045  0.0708
 3104W        W 7304   8.985   1.270   2.770 -0.1529 -0.0365 -0.0061
 3105W        W 7305   7.671   6.050  10.513  0.1141  0.1883  0.0997
 3106W        W 7306   6.591   4.233   4.592 -0.1594  0.1853  0.0864
 3107W        W 7307   4.139   3.246   2.037  0.2352  0.1993  0.2056
 3108W        W 7308   6.432   7.064   1.960  0.2146 -0.1108 -0.0042
 3109W        W 7309   2.977   0.720   2.180 -0.1738  0.2204  0.0776
 3110W        W 7310   6.125   4.686  12.520 -0.1653 -0.0955  0.0009
 3111W        W 7311   2.489   9.319  11.300 -0.1456 -0.0671  0.0046
 3112W        W 7312   3.588   8.055   2.234  0.1522 -0.0254  0.6417
 3113W        W 7313   9.030   7.081  13.253 -0.0081 -0.2443  0.0185
 3114W        W 7314   9.726   9.335  13.526 -0.1961 -0.1309 -0.2745
 3115W        W 7315   1.443  10.280  11.555  0.2720 -0.0787  0.1763
 3116W        W 7316   1.602   3.760   9.821 -0.0137 -0.0761  0.0718
 3117W        W 7317   5.822   1.696   1.603 -0.0837  0.2656  0.3063
 3118W        W 7318   2.829   7.429  10.016  0.1080 -0.0565  0.0310
 3119W        W 7319   1.849   6.949   4.563  0.1942  0.1577 -0.0758
 3120W        W 7320   7.655   1.834  12.128  0.0564  0.1804  0.3069
 3121W        W 7321   9.478   0.204   9.868  0.0009  0.0255  0.0687
 3122W        W 7322   1.774   4.220  13.305 -0.1948 -0.0310  0.0512
 3123W        W 7323   3.877   7.240   5.125  0.0156  0.1800 -0.3174
 3124W        W 7324   4.221   5.781  10.657 -0.0548 -0.0885 -0.1196
 3125W        W 7325   4.080   6.510   3.757  0.2484  0.2111  0.1777
 3126W        W 7326   4.899   2.407   3.337  0.0809 -0.0969 -0.1200
 3127W        W 7327   7.887   0.903   0.612  0.2932  0.0674  0.1716
 3128W        W 7328   8.298  10.441  12.523 -0.1711 -0.2486  0.2082
 3129W        W 7329   0.028   4.661  10.051  0.1642  0.0399 -0.3046
 3130W        W 7330   1.130   3.896   2.536 -0.1457 -0.0163  0.0957
 3131W        W 7331   6.667   1.449   0.009 -0.0484  0.0637  0.0248
 3132W        W 7332   0.881  10.415  11.871  0.1559  0.0713  0.3393
 3133W        W 7333   9.905   2.971  10.352  0.0863 -0.2381 -0.1571
 3134W        W 7334   4.581   2.411   0.538 -0.2428  0.0317  0.1725
 3135W        W 7335   8.734   7.286   2.632  0.0473 -0.1930  0.0216
 3136W        W 7336   3.032   5.338  12.369  0.0107  0.0745 -0.2150
 3137W        W 7337   8.527   7.121  13.341 -0.2025  0.1565  0.0353
 3138W        W 7338   3.144   8.271   2.182  0.2320 -0.2542  0.0082
 3139W        W 7339   3.426   7.051  11.605  0.2246  0.0944 -0.2427
 3140W        W 7340   1.601   6.513   9.141 -0.3918 -0.4041  0.0726
 3141W        W 7341   5.419   9.200  13.528 -0.0850 -0.2140  0.1929
 3142W        W 7342   3.477   4.030  12.931 -0.0259 -0.0411 -0.0979
 3143W        W 7343   3.384   0.424  12.324  0.0043  0.1601 -0.1013
 3144W        W 7344   9.186   6.826   8.672  0.0049 -0.1411  0.0342
 3145W        W 7345   4.094   6.911  10.205 -0.1681  0.2073  0.4503
 3146W        W 7346  10.083   8.023   4.069  0.0477 -0.3524 -0.3600
 3147W        W 7347   9.848   9.593  12.297  0.0491 -0.1261  0.4421
 3148W        W 7348   5.999   8.350   3.178 -0.1689  0.3494  0.0824
 3149W        W 7349   4.040   7.930  13.268  0.0564  0.0717  0.2370
 3150W        W 7350   7.795   7.999  13.404  0.2389 -0.0021  0.0801
 3151W        W 7351   2.161   6.904   8.478 -0.3044  0.0151 -0.1584
 3152W        W 7352   1.376   2.095  11.501 -0.1224 -0.0434 -0.3207
 3153W        W 7353   3.619   7.751   8.663  0.0506  0.3433 -0.1482
 3154W        W 7354   0.734   5.723  10.717  0.1372  0.1347  0.1495
 3155W        W 7355   6.404   6.560   0.229  0.0670  0.1669  0.4056
 3156W        W 7356   0.337   0.065   3.660 -0.1119  0.4215 -0.0344
 3157W        W 7357   7.693   4.843   9.218 -0.0828 -0.3689 -0.1291
 3158W        W 7358   6.211   8.920  12.987  0.1234  0.0723 -0.0188
 3159W        W 7359   8.181   1.555   0.522 -0.1683 -0.1362 -0.0557
 3160W        W 7360   4.249   8.404  11.996 -0.1124 -0.3175 -0.2608
 3161W        W 7361   9.199   2.835   3.806 -0.0840 -0.2882 -0.0651
 3162W        W 7362   5.787   2.309   2.486  0.3796 -0.1744 -0.1428
 3163W        W 7363   4.409   4.481  13.385 -0.0246 -0.1252  0.0734
 3164W        W 7364   0.303   4.455   9.600 -0.0890  0.3479  0.2834
 3165W        W 7365   6.744   8.730  12.250 -0.0511 -0.0318 -0.1062
 3166W        W 7366   0.068   5.233  11.388 -0.2654 -0.0036 -0.1150
 3167W        W 7367   8.139   9.155   0.169 -0.1847 -0.1998 -0.1524
 3168W        W 7368   8.833  10.363   2.432  0.2079  0.1633  0.3917
 3169W        W 7369   8.997   1.489  12.000 -0.3310 -0.0395 -0.1931
 3170W        W 7370   8.544   2.224   4.180 -0.0093  0.0001 -0.1649
 3171W        W 7371   9.930   7.454   1.859 -0.0107  0.0005 -0.2476
 3172W        W 7372   0.268   5.963   3.991  0.0119 -0.0679 -0.1408
 3173W        W 7373   4.549   3.294   9.354  0.1853  0.1280 -0.1466
 3174W        W 7374   6.903   1.751   0.895 -0.0395 -0.2926  0.3779
 3175W        W 7375   0.291   5.228   3.305 -0.2762  0.0635 -0.0187
 3176W        W 7376   7.048   0.723   0.536  0.2032 -0.0670  0.0961
 3177W        W 7377   5.358   8.455   1.311 -0.2197 -0.0197  0.3964
 3178W        W 7378   0.922   1.878  11.764  0.1995 -0.1163  0.1837
 3179W        W 7379   8.112   3.210   1.918  0.1067  0.6719 -0.1116
 3180W        W 7380   6.062   5.313   9.781  0.1955 -0.2240  0.1098
 3181W        W 7381   1.616   0.624   4.785 -0.0792  0.1174 -0.3212
 3182W        W 7382   9.959   4.967   0.641  0.0592 -0.4565  0.4745
 3183W        W 7383   0.192   0.816  13.002 -0.1651  0.1672  0.0875
 3184W        W 7384   3.929   1.056   4.958 -0.1147  0.1138  0.0672
 3185W        W 7385   8.494   1.815  12.665 -0.3105 -0.3313  0.2441
 3186W        W 7386   9.252   8.346  10.356 -0.0179 -0.1683 -0.0469
 3187W        W 7387   4.558   1.777  11.614 -0.0723  0.3698 -0.0256
 3188W        W 7388   3.229   1.599   4.550 -0.2143  0.0491 -0.1462
 3189W        W 7389   4.933   9.427   3.315 -0.1670  0.0498  0.0084
 3190W        W 7390   2.743  10.149  13.458  0.0795 -0.1641 -0.2461
 3191W        W 7391   7.502   3.703  12.074 -0.0892  0.1787 -0.2243
 3192W        W 7392   4.113   1.949   4.172 -0.1639  0.3694 -0.0207
 3193W        W 7393   3.419   6.333   9.728  0.3198 -0.1320  0.1532
 3194W        W 7394   2.811   6.529   5.292  0.0715  0.1154 -0.1712
 3195W        W 7395   4.166   4.000  11.458  0.0062  0.1599 -0.0301
 3196W        W 7396   2.149   2.392   9.129 -0.1205  0.3509  0.1881
 3197W        W 7397   2.336   1.498  12.203 -0.2843 -0.4094  0.1260
 3198W        W 7398   4.872   1.399  11.770 -0.0068 -0.3887 -0.1422
 3199W        W 7399   7.438   2.470   0.671  0.1030 -0.1859  0.0308
 3200W        W 7400   8.864   4.713  10.626  0.0857  0.0331  0.1120
 3201W        W 7401   0.032   0.327  11.786  0.3007 -0.0758  0.1242
 3202W        W 7402   0.575   1.119  10.663  0.5347  0.2207  0.2189
 3203W        W 7403   6.832  10.175  12.218  0.1061  0.1764 -0.2770
 3204W        W 7404   4.250   5.810   4.463 -0.0841  0.1118 -0.1013
 3205W        W 7405   6.898   6.617   1.192  0.0535 -0.2092 -0.4233
 3206W        W 7406   5.836   8.730  13.373  0.0664  0.2527  0.1167
 3207W        W 7407   9.039   6.448   0.900 -0.1176 -0.0113 -0.1221
 3208W        W 7408   3.118   2.803  12.336 -0.0125  0.0749 -0.0350
 3209W        W 7409   7.903   3.100   3.759  0.1303 -0.0219 -0.1049
 3210W        W 7410   9.376   8.270   2.591  0.1566 -0.0767  0.4292
 3211W        W 7411   8.271   9.158  12.838  0.2524 -0.2213 -0.1349
 3212W        W 7412   9.428   9.475  11.092 -0.1717 -0.2729 -0.0325
 3213W        W 7413   6.279   4.875   3.791  0.1661 -0.1531 -0.1775
 3214W        W 7414   6.897   5.036   0.928 -0.2774 -0.1053 -0.0108
 3215W        W 7415   5.949   7.611  13.414  0.0697  0.0616 -0.1203
 3216W        W 7416  10.372   2.967   3.845  0.0157 -0.2242 -0.0539
 3217W        W 7417   2.831   3.528   5.363 -0.0827  0.0254 -0.0680
 3218W        W 7418   7.724   4.138   4.654 -0.2792  0.1366 -0.1098
 3219W        W 7419   9.467   6.237   0.811 -0.2613 -0.0115  0.2066
 3220W        W 7420   2.211   3.062   9.347 -0.3052 -0.3220 -0.2036
 3221W        W 7421   6.360   9.834   3.996 -0.0145  0.1095  0.1607
 3222W        W 7422   0.687   2.016  10.271 -0.2955 -0.1381  0.0349
 3223W        W 7423   3.940   7.004   4.416  0.0786  0.1097  0.2607
 3224W        W 7424   1.993   5.943   9.355 -0.2899 -0.1990 -0.0523
 3225W        W 7425   5.078   0.687   0.932  0.0756  0.2078  0.0314
 3226W        W 7426   7.703   0.361   2.539 -0.3366 -0.1108  0.0791
 3227W        W 7427   2.761   2.538  13.147  0.1888  0.0984  0.1144
 3228W        W 7428   7.391   7.454  13.242 -0.0574  0.0156  0.1068
 3229W        W 7429   9.218   4.411   2.402 -0.0806  0.0600  0.1436
 3230W        W 7430  10.211   6.807  12.745  0.1171  0.0297 -0.1767
 3231W        W 7431   3.899   5.033  10.367  0.0976  0.0919  0.0909
 3232W        W 7432   7.424   9.662   0.665  0.0246 -0.0850  0.0635
 3233W        W 7433   9.213   0.793   3.920  0.0172  0.0355  0.0083
 3234W        W 7434   1.451   5.596  10.681  0.2888  0.0308  0.2711
 3235W        W 7435   2.002   0.593  12.506 -0.2197 -0.1333 -0.0119
 3236W        W 7436   3.673   9.647  11.695  0.0362 -0.1293 -0.2655
 3237W        W 7437   0.107  10.281  11.938  0.1515 -0.0560 -0.1836
 3238W        W 7438   2.807   5.165  10.433 -0.3481  0.0294  0.0060
 3239W        W 7439   5.332   5.405   8.812 -0.1312 -0.1423  0.0680
 3240W        W 7440   5.846   5.796  10.121 -0.2125 -0.3468 -0.0230
 3241W        W 7441   8.557   2.845   8.720 -0.1527 -0.1098  0.2328
 3242W        W 7442   5.800   7.258  10.136 -0.0249 -0.1459  0.0497
 3243W        W 7443   3.870   2.590  10.618  0.1516 -0.1207  0.0608
 3244W        W 7444   1.025   7.218   9.939  0.0964  0.1715  0.2086
 3245W        W 7445  10.402   6.978   8.706  0.1190 -0.0624  0.0106
 3246W        W 7446   2.588   7.038   9.795 -0.1489  0.0405 -0.2192
 3247W        W 7447   3.287   1.191   4.228  0.0112 -0.1097 -0.1000
 3248W        W 7448   4.268   5.805  11.718 -0.0058 -0.0140  0.0421
 3249W        W 7449   1.156   1.781   5.510  0.0921 -0.1668  0.2154
 3250W        W 7450   9.561   1.601   3.655  0.0153  0.0545  0.0809
 3251W        W 7451   8.852   9.796   0.944 -0.1691 -0.0393 -0.0772
 3252W        W 7452   6.680   0.167  12.677 -0.0702  0.1737  0.0853
 3253W        W 7453   2.530   9.635  12.206 -0.0787 -0.0223  0.2978
 3254W        W 7454   9.731   0.810  11.426 -0.0710 -0.1443 -0.0097
 3255W        W 7455   3.831   8.883  10.131 -0.0039  0.1834 -0.1949
 3256W        W 7456   5.467   0.433  12.822  0.0679  0.0010  0.0063
 3257W        W 7457   7.213   5.645   0.776  0.2244 -0.0403  0.1075
 3258W        W 7458   7.204   0.092  12.875  0.0025 -0.1041  0.0976
 3259W        W 7459   7.570   5.967   0.212  0.1008 -0.0304 -0.0621
 3260W        W 7460   2.078   2.868   3.766 -0.0676  0.0804 -0.0330
 3261W        W 7461   2.309   8.400   3.617 -0.0119 -0.2099  0.3861
 3262W        W 7462  10.299   7.909   4.481 -0.1615 -0.0198 -0.0867
 3263W        W 7463   5.100   5.961  12.174  0.0690  0.2620 -0.3114
 3264W        W 7464   5.737   2.302   4.592  0.1045  0.0816 -0.0888
 3265W        W 7465   0.241   4.709   2.370 -0.0497  0.2083  0.1367
 3266W        W 7466   7.556   3.512   3.796 -0.2903  0.0648  0.0204
 3267W        W 7467   5.556   4.174   0.662  0.0646 -0.1392 -0.0249
 3268W        W 7468   4.971   1.068   3.959 -0.1197  0.1785 -0.0963
 3269W        W 7469   5.351   6.581   3.658 -0.0953 -0.1392  0.1540
 3270W        W 7470   9.283   2.390   1.474  0.0396 -0.0667 -0.2250
 3271W        W 7471   1.360   2.966  12.595 -0.0079  0.0608  0.2699
 3272W        W 7472   7.439   3.232   3.365 -0.1975  0.0925  0.2062
 3273W        W 7473   9.889   7.101   3.720  0.2332  0.2064 -0.1457
 3274W        W 7474   1.930   1.394  10.558 -0.0760 -0.1681 -0.2624
 3275W        W 7475   0.984   6.519   2.337  0.0333 -0.2822  0.2751
 3276W        W 7476   6.938   9.755  12.400 -0.0917 -0.2361  0.2076
 3277W        W 7477   6.119   4.955   2.791  0.2767 -0.2111 -0.1685
 3278W        W 7478   4.259   3.327  13.100  0.0102 -0.1355 -0.0432
 3279W        W 7479   7.857   1.182  12.925  0.1328  0.0427 -0.1636
 3280W        W 7480   3.354   0.324  11.784  0.0991  0.0299 -0.2467
 3281W        W 7481   3.781   8.181   4.021 -0.1495  0.0305 -0.0899
 3282W        W 7482   9.572   2.223   3.814  0.2730  0.1748 -0.1292
 3283W        W 7483   6.372   1.765   0.884  0.3546 -0.0226 -0.0854
 3284W        W 7484   2.438   0.912   9.731 -0.0423  0.0769 -0.2669
 3285W        W 7485   9.600   0.739   0.377  0.0636 -0.1781 -0.0410
 3286W        W 7486   5.131   5.337  10.648 -0.0891 -0.0996 -0.3746
 3287W        W 7487   2.114   9.203  10.946 -0.0202 -0.2097 -0.0473
 3288W        W 7488  10.421   7.860   0.605 -0.1635  0.1858  0.2283
 3289W        W 7489   0.959   0.374   1.178  0.3699  0.0483 -0.0660
 3290W        W 7490   0.863   5.335   3.526  0.2782  0.0814  0.0052
 3291W        W 7491   2.514   3.877  11.852 -0.2798  0.0493  0.2072
 3292W        W 7492   8.710   4.569   0.470 -0.1248  0.1506  0.2992
 3293W        W 7493   9.702   1.168  13.097  0.1628  0.0106  0.1654
 3294W        W 7494   6.620   3.786   3.170 -0.0786 -0.3651  0.2317
 3295W        W 7495   5.070   3.153   0.231 -0.1494 -0.0699 -0.0383
 3296W        W 7496   6.204   2.522   2.696 -0.0419 -0.2052  0.1806
 3297W        W 7497   1.253   3.051   3.023  0.1338  0.1913  0.0148
 3298W        W 7498   5.477   2.169   0.160 -0.1072  0.1820  0.1479
 3299W        W 7499   5.148   1.538   4.070 -0.0363 -0.3314  0.0496
 3300W        W 7500   9.393   2.419   0.458 -0.0184  0.2247 -0.0873
 3301W        W 7501   0.885   2.873   0.232  0.0242  0.2389  0.2839
 3302W        W 7502   6.238   1.295  12.207 -0.1773 -0.0095  0.2585
 3303W        W 7503   4.015   4.275   9.643  0.2404  0.1584  0.0682
 3304W        W 7504   1.577   0.865  12.871  0.1230  0.1381 -0.0217
 3305W        W 7505   3.563   5.700   1.138 -0.1524  0.1519  0.0645
 3306W        W 7506   4.754   3.033   2.672  0.2889 -0.3246  0.0149
 3307W        W 7507   2.879   9.918  12.666  0.1102 -0.5872 -0.0693
 3308W        W 7508   2.181   8.610   9.251 -0.0923  0.1466  0.0808
 3309W        W 7509   7.524   6.993  13.159  0.1578  0.0953 -0.3084
 3310W        W 7510   2.167   3.226   2.793 -0.2640 -0.1400 -0.1807
 3311W        W 7511   6.795   4.887   1.576  0.1690  0.1751 -0.0571
 3312W        W 7512   5.864   2.058   3.191  0.3757  0.0485  0.1437
 3313W        W 7513   2.102   8.303   3.163  0.2657 -0.0208 -0.2685
 3314W        W 7514   3.420   8.955  12.016  0.1981  0.1414  0.1262
 3315W        W 7515   9.082   7.970   2.226 -0.0844  0.0226  0.0628
 3316W        W 7516   1.925   1.164   9.634  0.2832  0.2539  0.1021
 3317W        W 7517   7.301   2.181   0.209 -0.1259  0.0086 -0.1488
 3318W        W 7518   4.272   2.431   4.204 -0.0203 -0.0322 -0.0638
 3319W        W 7519   5.131   0.248   2.962  0.2086 -0.0919 -0.1918
 3320W        W 7520   2.144   6.335   3.951  0.2373  0.4014  0.0557
 3321W        W 7521   8.961   5.105   9.508  0.3428 -0.2152 -0.1490
 3322W        W 7522   6.969   9.838   2.831  0.1301  0.1712  0.0282
 3323W        W 7523   3.178   1.460  11.868 -0.0486 -0.0346 -0.3444
 3324W        W 7524   5.338   8.333   9.767  0.1013  0.2011 -0.0370
 3325W        W 7525   4.872   7.025   2.463 -0.0518 -0.0968 -0.0975
 3326W        W 7526   1.026   0.927   3.714 -0.3380  0.1323  0.0331
 3327W        W 7527   6.373   1.506  11.250 -0.1050 -0.0696 -0.4749
 3328W        W 7528   1.247   6.024  11.958 -0.0001 -0.0526 -0.0457
 3329W        W 7529   2.236   1.028  11.999  0.1854  0.0239 -0.2284
 3330W        W 7530   6.214   5.593   4.077  0.0239 -0.0170 -0.2847
 3331W        W 7531   3.036   8.452   9.644  0.3215 -0.2467 -0.2361
 3332W        W 7532   7.516   5.595   4.647  0.0832  0.0807 -0.0324
 3333W        W 7533   9.688   0.631   8.952 -0.2659 -0.0068 -0.0758
 3334W        W 7534   8.810   1.100  10.442  0.3215 -0.0062 -0.1655
 3335W        W 7535   8.666   8.001   1.262 -0.3965 -0.3269  0.2340
 3336W        W 7536   1.584   4.607  10.469  0.3373 -0.0482 -0.0928
 3337W        W 7537   8.865   2.760  10.065  0.1883  0.2439  0.0401
 3338W        W 7538   1.155   0.829   4.988 -0.1035 -0.0777 -0.0460
 3339W        W 7539   6.488   3.309  10.004 -0.1009 -0.1397 -0.0297
 3340W        W 7540   5.461   0.408   3.343 -0.2865  0.4635 -0.5054
 3341W        W 7541   6.282   6.426  10.220 -0.1221  0.0885 -0.2098
 3342W        W 7542   2.264  10.173   0.179 -0.0769  0.2842 -0.3082
 3343W        W 7543   4.923   6.420   9.043  0.0595  0.1299  0.0771
 3344W        W 7544   4.005   5.476   1.391  0.0263  0.3196 -0.1843
 3345W        W 7545   9.244   5.302  12.281  0.4217 -0.1190 -0.2033
 3346W        W 7546   7.396   6.246  11.517  0.0761  0.0545  0.1550
 3347W        W 7547   8.362   6.656  11.777 -0.1894  0.0187  0.3421
 3348W        W 7548   2.474   4.738   2.857 -0.0315  0.1524  0.0496
 3349W        W 7549   9.139   8.109  11.219 -0.1041 -0.0312  0.1977
 3350W        W 7550   4.211   8.810   3.095 -0.1996 -0.0612 -0.1971
 3351W        W 7551   7.671   5.634   0.544  0.1246 -0.0300 -0.3397
 3352W        W 7552   8.619   4.656   1.308  0.0568 -0.0003  0.3816
 3353W        W 7553   0.033   4.091   0.501 -0.0200  0.1022  0.1957
 3354W        W 7554   2.651   0.192   3.217  0.1802  0.1359  0.0743
 3355W        W 7555   8.261   4.457   3.212  0.2199 -0.0550 -0.1008
 3356W        W 7556   6.010   6.959   8.996 -0.0842  0.0929  0.1223
 3357W        W 7557   1.505   9.211  11.589  0.1251  0.1350 -0.1227
 3358W        W 7558   7.301   1.252  11.354 -0.1023 -0.1092 -0.0059
 3359W        W 7559   3.510   8.534   1.203 -0.0446 -0.0679  0.0290
 3360W        W 7560   4.587   6.766  11.778 -0.0084  0.0291  0.0934
 3361W        W 7561   3.154   7.162   9.630 -0.2456  0.1974 -0.0273
 3362W        W 7562   2.088   8.734  10.902  0.1840  0.0993 -0.0213
 3363W        W 7563   8.343   4.112   4.091 -0.0631 -0.0789 -0.0265
 3364W        W 7564   6.592   7.520  12.735 -0.4099  0.0167 -0.1055
 3365W        W 7565   1.098   9.258  10.478 -0.5325  0.2777  0.0052
 3366W        W 7566   1.136   6.675   0.886 -0.3911  0.1835 -0.3110
 3367W        W 7567   1.157   7.340   0.911  0.3477  0.2565  0.0967
 3368W        W 7568   0.653   1.515   9.605 -0.0232  0.3573  0.0041
 3369W        W 7569   3.512   4.886   1.904 -0.0190 -0.2010  0.1515
 3370W        W 7570   0.562   7.052  13.151 -0.1405 -0.1885 -0.0409
 3371W        W 7571   3.223   7.560  12.740  0.1670 -0.1302  0.1671
 3372W        W 7572   9.840   3.758  11.075  0.0257  0.2599  0.1060
 3373W        W 7573   9.814   2.517   0.655  0.3711  0.1063 -0.3929
 3374W        W 7574   3.462   6.685   3.760 -0.1803 -0.2092 -0.1409
 3375W        W 7575   0.082   4.407   0.963 -0.0373  0.2243 -0.0615
 3376W        W 7576   7.355   6.439  10.403  0.0677 -0.0510 -0.0690
 3377W        W 7577   3.982   9.940   3.787  0.0394  0.0486  0.1051
 3378W        W 7578   7.232   0.296   1.135 -0.1135  0.0951 -0.0981
 3379W        W 7579   4.473   1.456  12.680 -0.2229 -0.1720 -0.1185
 3380W        W 7580   0.574   9.925   9.070 -0.3472  0.2158 -0.0743
 3381W        W 7581   5.887   0.476   2.379  0.1390 -0.0385  0.5022
 3382W        W 7582   3.356   5.489  11.275  0.0482 -0.3157  0.1653
 3383W        W 7583   7.296   1.869   0.606 -0.0089  0.1472  0.4740
 3384W        W 7584   9.568   9.282  12.490  0.0761 -0.1906  0.0808
 3385W        W 7585   5.974   8.639  11.623  0.1703  0.1900 -0.1390
 3386W        W 7586   0.457   3.943  11.951  0.2135  0.1022 -0.0261
 3387W        W 7587   9.453   3.203  11.221 -0.0411  0.1511  0.2807
 3388W        W 7588   5.756   5.771   1.911  0.1283 -0.1927 -0.2404
 3389W        W 7589   6.788   1.536  12.526 -0.0170  0.0075  0.1097
 3390W        W 7590   7.710   8.629   2.132  0.1244  0.1679 -0.0381
 3391W        W 7591   9.122   5.862  12.351 -0.0996 -0.1049  0.0047
 3392W        W 7592   0.652   8.379   4.285 -0.0929 -0.1786 -0.0221
 3393W        W 7593   2.286   1.852  11.883  0.4627  0.1051 -0.0623
 3394W        W 7594   6.098   9.265   3.002  0.0775 -0.1673 -0.0612
 3395W        W 7595   8.557   2.983  13.340  0.0282 -0.0652  0.0459
 3396W        W 7596   6.361   4.770   1.770  0.0683  0.0677  0.0432
 3397W        W 7597   3.945   3.664   1.994 -0.0647  0.0902  0.2002
 3398W        W 7598   4.099   8.881   0.089 -0.0195  0.0168  0.0517
 3399W        W 7599   2.782   1.195   4.128  0.2172 -0.1490 -0.0685
 3400W        W 7600  10.251   8.556  12.402  0.2755  0.0194 -0.1070
 3401W        W 7601   5.358   5.011  13.309 -0.2662 -0.2026  0.0827
 3402W        W 7602   6.636   8.093  11.510  0.2081  0.0367  0.0343
 3403W        W 7603   1.676   3.728   2.729  0.0064 -0.1225 -0.1383
 3404W        W 7604  10.221   0.665  10.439  0.1594  0.2016  0.4405
 3405W        W 7605   7.573   4.804   2.133  0.1538 -0.0838 -0.1503
 3406W        W 7606   6.310  10.126   1.372  0.2906 -0.0608  0.0802
 3407W        W 7607   0.668   2.490   4.320  0.0909 -0.1524 -0.0936
 3408W        W 7608   8.057   2.965  11.051  0.1992 -0.1459  0.0335
 3409W        W 7609   3.831   6.706   0.794  0.2410 -0.0437 -0.0577
 3410W        W 7610   3.390   5.925   9.178 -0.1025 -0.0590  0.0412
 3411W        W 7611   8.350  10.402  10.136  0.1045  0.3424 -0.0421
 3412W        W 7612   7.339   3.965  13.433 -0.3434  0.0855  0.2376
 3413W        W 7613   3.279   8.778   4.156  0.0910 -0.1587  0.1872
 3414W        W 7614  10.145   5.735  13.452  0.1477  0.0374 -0.1179
 3415W        W 7615   4.450   6.987  11.376  0.0722 -0.1495  0.0651
 3416W        W 7616   1.788   2.012  11.933  0.0367 -0.1488  0.1216
 3417W        W 7617   1.918   2.461   2.479  0.0114 -0.2179 -0.0007
 3418W        W 7618   5.346   1.620  10.379 -0.0126 -0.0366 -0.0298
 3419W        W 7619   2.713   2.493   2.982 -0.5160 -0.1391 -0.2068
 3420W        W 7620   2.044   4.438  10.567 -0.3838 -0.2509 -0.0133
 3421W        W 7621   1.887   1.335   1.690 -0.1658  0.0060  0.0326
 3422W        W 7622   4.914   4.302  10.640 -0.0444  0.0805  0.1169
 3423W        W 7623   3.105   4.190  10.650  0.0796  0.0567  0.1219
 3424W        W 7624   2.265   7.847   8.737 -0.1047 -0.0264 -0.1320
 3425W        W 7625   8.139   8.151  12.597  0.0278  0.0564  0.0346
 3426W        W 7626   0.982  10.036   4.791 -0.1913 -0.1643  0.0710
 3427W        W 7627   0.214  10.018  10.154  0.2456  0.2916 -0.2143
 3428W        W 7628   4.523   3.229  11.001 -0.1708  0.3031  0.1389
 3429W        W 7629   8.783   7.868   4.232  0.0491  0.3433  0.2420
 3430W        W 7630   2.368   1.311   3.262  0.3455  0.4780  0.0822
 3431W        W 7631   0.106   3.541  10.584 -0.0343 -0.0811 -0.1731
 3432W        W 7632   4.269   7.760   2.780 -0.0061  0.0762 -0.2774
 3433W        W 7633   5.183   0.780  12.501 -0.1724  0.3021 -0.0079
 3434W        W 7634   4.720   6.053   4.367  0.1263  0.1496  0.0207
 3435W        W 7635   8.517   6.619  11.240  0.1272 -0.2519 -0.1017
 3436W        W 7636   5.193   5.941  10.609 -0.2340  0.0305  0.1684
 3437W        W 7637   3.948   1.022   0.692  0.0240 -0.0414  0.1005
 3438W        W 7638   7.298   0.096   9.916 -0.1379  0.0984  0.3672
 3439W        W 7639  10.352   3.440  11.011  0.1303 -0.0197 -0.2191
 3440W        W 7640   1.992   6.415  12.390 -0.2015 -0.1649  0.0241
 3441W        W 7641   4.380   2.118  10.074  0.0370 -0.0768  0.1352
 3442W        W 7642   5.385   4.014  10.646  0.0650 -0.2750  0.1178
 3443W        W 7643   1.449   7.415  13.437 -0.2255  0.5542  0.0149
 3444W        W 7644   6.237   3.429   2.877 -0.0898 -0.1561 -0.2444
 3445W        W 7645   6.924   7.482   2.738  0.2041 -0.1634  0.2636
 3446W        W 7646   7.945  10.272  11.078 -0.1371  0.4147  0.0783
 3447W        W 7647   7.310   2.125   2.583  0.1567 -0.1997  0.3596
 3448W        W 7648   7.584   0.897   1.907  0.2302  0.2344 -0.0916
 3449W        W 7649   2.868   9.709   1.753  0.3118 -0.2201  0.3173
 3450W        W 7650   0.815   6.277   0.638  0.1820  0.2924  0.1022
 3451W        W 7651   9.556   2.004  12.534  0.0006  0.2242  0.0906
 3452W        W 7652   4.180   8.287  11.309 -0.0233  0.0963 -0.0373
 3453W        W 7653   5.457   1.746  12.356  0.0037  0.2278  0.2016
 3454W        W 7654   7.797   7.215  12.747  0.0584 -0.1442 -0.2343
 3455W        W 7655   1.350   8.830  12.072  0.0616 -0.2505  0.0544
 3456W        W 7656   0.643   3.892   4.123  0.3544 -0.0474  0.1490
 3457W        W 7657   9.877   5.109  10.593 -0.2620 -0.1681 -0.0764
 3458W        W 7658   4.232   4.025   4.225 -0.2482  0.0462  0.1239
 3459W        W 7659  10.033   2.655   4.031 -0.1187  0.0361  0.3729
 3460W        W 7660   4.893   2.611   2.843 -0.0850  0.2085 -0.2024
 3461W        W 7661   8.831   3.174   3.523 -0.0641  0.1967 -0.0504
 3462W        W 7662   3.466   5.940   1.708  0.1157  0.3761  0.2152
 3463W        W 7663   3.170   3.213   0.798 -0.1867 -0.2526 -0.0260
 3464W        W 7664   9.755   6.068  11.715 -0.5427  0.0806  0.0189
 3465W        W 7665   8.337   9.733   1.011 -0.2043 -0.0641 -0.1815
 3466W        W 7666   5.885   7.162   0.302  0.3271  0.1580 -0.2577
 3467W        W 7667   3.521   0.690   0.557 -0.1028  0.1457  0.0666
 3468W        W 7668   9.532  10.204  13.521 -0.1731 -0.4435 -0.0286
 3469W        W 7669   4.800   5.184  10.349  0.1417  0.0794  0.0669
 3470W        W 7670   6.558   0.880  10.699 -0.0922 -0.0210 -0.1995
 3471W        W 7671   4.046   9.806   1.450  0.0206 -0.3177  0.1644
 3472W        W 7672   8.116   2.294   0.299  0.0354  0.1901  0.1767
 3473W        W 7673   6.194   2.288  12.375  0.0727  0.1646  0.1156
 3474W        W 7674   8.077   6.805  10.984 -0.1871 -0.0969 -0.1434
 3475W        W 7675   7.410   2.990   0.512 -0.1124 -0.0769  0.0190
 3476W        W 7676   7.616   5.320   0.123 -0.1107 -0.1184 -0.0874
 3477W        W 7677   2.398   4.204   4.308  0.0973  0.5428 -0.0155
 3478W        W 7678   5.304   6.169   8.221  0.0417  0.0376 -0.2725
 3479W        W 7679   2.837   8.505  13.325  0.0206  0.1572  0.1009
 3480W        W 7680   6.973   5.468   1.672 -0.2087 -0.4124 -0.0799
 3481W        W 7681   6.881   6.188   8.815  0.3427 -0.1401  0.1045
 3482W        W 7682   5.281   6.585   4.170 -0.0525 -0.0846  0.1320
 3483W        W 7683   2.816   5.950   1.091 -0.1220  0.1055  0.1831
 3484W        W 7684   4.705   1.796   1.917  0.0247  0.2458  0.2210
 3485W        W 7685   9.305   0.867  10.594 -0.2399  0.0679  0.0749
 3486W        W 7686   9.102   7.090   3.442  0.0469 -0.1512 -0.2085
 3487W        W 7687   2.349   3.768   3.758 -0.0758  0.1480 -0.2766
 3488W        W 7688   6.663   9.737   9.729  0.0705 -0.2201  0.2365
 3489W        W 7689   9.569   6.142  12.427 -0.3203  0.1719 -0.5427
 3490W        W 7690   1.904   8.741   3.587 -0.0169  0.1771 -0.1642
 3491W        W 7691   2.398   5.315   9.615 -0.0656 -0.0192  0.0299
 3492W        W 7692   7.391   7.741  10.569 -0.0890 -0.0080  0.2019
 3493W        W 7693   2.892   4.468   3.246  0.1614 -0.0085 -0.3157
 3494W        W 7694   4.571   4.233   3.825  0.1958  0.2790  0.1582
 3495W        W 7695   9.142   9.515  13.331 -0.1851 -0.0427  0.1000
 3496W        W 7696   0.736   5.340   4.294  0.0142 -0.1115  0.1428
 3497W        W 7697   3.576   0.994   1.024  0.0912  0.0332  0.0041
 3498W        W 7698   4.153   6.703  11.597  0.1573  0.1887  0.0257
 3499W        W 7699   6.785   6.340   2.273  0.0937 -0.2429 -0.0263
 3500W        W 7700   5.894   6.656   0.217 -0.1180 -0.2919 -0.0517
 3501W        W 7701   0.228   6.906  11.408  0.1182  0.3830 -0.2213
 3502W        W 7702   0.180   8.851   3.782 -0.0552  0.1233  0.1177
 3503W        W 7703   4.754   6.143   2.964  0.0680 -0.1175  0.0136
 3504W        W 7704   1.769   6.510  13.438  0.1185 -0.0435  0.2536
 3505W        W 7705   2.445   2.744   0.095  0.1356 -0.1202  0.0622
 3506W        W 7706  10.371   7.450   0.197 -0.2094  0.0041  0.3608
 3507W        W 7707   8.333   2.840  10.627  0.0370 -0.0040  0.4127
 3508W        W 7708   1.975   7.771   5.131 -0.1174 -0.1276 -0.0268
 3509W        W 7709   1.939   9.621  11.210  0.0314  0.0551  0.0833
 3510W        W 7710   0.923   1.329   4.090 -0.1100  0.2026  0.0909
 3511W        W 7711   4.369   9.682   4.690 -0.2296  0.3067 -0.1919
 3512W        W 7712   9.604   7.317  12.101 -0.4595  0.3909  0.1923
 3513W        W 7713   7.358   1.613   0.179  0.0905  0.0885 -0.1781
 3514W        W 7714   4.324   1.371  10.810  0.1429 -0.3315 -0.3376
 3515W        W 7715   4.420   7.223   2.147  0.1302  0.1359  0.2338
 3516W        W 7716   0.202   6.135  12.756 -0.0147  0.0972  0.3753
 3517W        W 7717   4.013   8.478   2.644 -0.0729 -0.0548  0.1455
 3518W        W 7718   8.121   3.656   9.608  0.1928 -0.2636  0.2889
 3519W        W 7719   8.649   4.966   0.165  0.0205  0.2041 -0.1976
 3520W        W 7720   5.684   1.762   9.343  0.1212  0.0559  0.1626
 3521W        W 7721   3.846   5.537  10.481 -0.1950  0.1478  0.2779
 3522W        W 7722   5.059   8.433  12.266 -0.0994  0.2059 -0.0482
 3523W        W 7723   6.357   4.889   2.304 -0.1324 -0.1164 -0.0122
 3524W        W 7724   9.847   5.018   1.580 -0.0930  0.1989  0.0856
 3525W        W 7725   5.679   9.951  12.424  0.2094 -0.0339 -0.0898
 3526W        W 7726   2.928   1.506   9.801 -0.0726 -0.1416 -0.0969
 3527W        W 7727   6.320   4.124  11.597 -0.5019  0.1754 -0.0744
 3528W        W 7728   4.756   5.984  11.544 -0.1261 -0.1524  0.0948
 3529W        W 7729   3.212   3.555  13.161 -0.0881  0.2038  0.3706
 3530W        W 7730   4.130   0.876  10.205 -0.2167  0.1848 -0.1286
 3531W        W 7731   8.154   8.531   0.120  0.0983 -0.2543  0.2589
 3532W        W 7732   1.795   0.209   4.077  0.0281  0.1545  0.3380
 3533W        W 7733   5.534   1.600   0.754  0.0237 -0.1358 -0.0787
 3534W        W 7734   9.884   7.185   0.150 -0.0686  0.0682 -0.1204
 3535W        W 7735   4.042  10.417  10.346 -0.1295 -0.0249 -0.1786
 3536W        W 7736   2.479   6.960   0.611  0.0040 -0.0025  0.0071
 3537W        W 7737   6.704   7.152  11.805  0.0802  0.1382 -0.2243
 3538W        W 7738   4.800   5.758   0.640  0.0746 -0.0430  0.1385
 3539W        W 7739   5.746   1.256   0.432 -0.1046 -0.0919 -0.2353
 3540W        W 7740   5.739   6.363  13.349  0.0115 -0.2117  0.3009
 3541W        W 7741   4.351   5.937  11.149 -0.0558  0.0718 -0.1917
 3542W        W 7742   4.674   4.223  12.505 -0.1271 -0.0063  0.2352
 3543W        W 7743   5.400   9.681  10.144 -0.0614  0.0528 -0.0341
 3544W        W 7744   6.562  10.222   9.980  0.1363 -0.0754 -0.1472
 3545W        W 7745   3.326   5.791   9.696 -0.1039 -0.1429  0.1985
 3546W        W 7746   2.285   1.930  13.364  0.0118 -0.2648  0.0394
 3547W        W 7747   4.173   4.501  11.556 -0.2178  0.0041 -0.1602
 3548W        W 7748   6.817   0.711  11.544 -0.0990 -0.0796 -0.3216
 3549W        W 7749   9.225   4.316  12.687 -0.2920  0.2563 -0.1618
 3550W        W 7750   8.443   0.047   2.906  0.1603 -0.2102 -0.1771
 3551W        W 7751   1.001   5.850   2.567  0.4771 -0.0456 -0.0689
 3552W        W 7752   9.258   0.684   0.825  0.0862  0.0517 -0.1435
 3553W        W 7753   3.957   9.199   1.905 -0.0323 -0.2321 -0.2461
 3554W        W 7754   6.030   6.517   1.122 -0.3168  0.0173 -0.2683
 3555W        W 7755   4.089   8.592  12.461 -0.0500  0.4659 -0.4982
 3556W        W 7756   0.281   0.309   2.408 -0.1052 -0.1613  0.1935
 3557W        W 7757   2.646   8.209  12.099 -0.0568  0.2350 -0.0545
 3558W        W 7758   1.560   0.280  10.832  0.3672  0.3000 -0.0032
 3559W        W 7759   6.488   7.742   9.963  0.1216 -0.0486  0.1522
 3560W        W 7760   1.902   5.238  11.584 -0.3125 -0.2543  0.1411
 3561W        W 7761   4.678   3.425   3.297 -0.2008 -0.1478 -0.1074
 3562W        W 7762   1.882   9.225   2.211  0.2181  0.1492 -0.3737
 3563W        W 7763   8.719   1.648   4.172  0.2120 -0.3162 -0.0405
 3564W        W 7764   4.494   1.025   1.456 -0.0373  0.4376 -0.1506
 3565W        W 7765   4.839   4.384   3.430 -0.2270 -0.1687  0.0149
 3566W        W 7766   8.341   7.535  10.320 -0.0311  0.0984 -0.0727
 3567W        W 7767   7.726   6.105  13.234 -0.1622  0.1183  0.3440
 3568W        W 7768   3.672   5.040   4.496  0.1260  0.2416 -0.3070
 3569W        W 7769   7.147   4.866  10.698 -0.0009 -0.4896  0.2026
 3570W        W 7770  10.173   7.951   0.152  0.1367 -0.0584 -0.1968
 3571W        W 7771   1.472   9.980   2.060 -0.2095  0.4476  0.1118
 3572W        W 7772   3.639   8.612  13.337 -0.2976 -0.0567  0.2367
 3573W        W 7773   6.243   4.572  11.246 -0.1543 -0.1418 -0.0224
 3574W        W 7774   0.570   7.900  11.274 -0.3380 -0.0345  0.2358
 3575W        W 7775   6.121   8.264   9.354 -0.0753  0.0168 -0.1304
 3576W        W 7776   2.232   2.372  13.177  0.1912  0.1646 -0.1823
 3577W        W 7777   8.647   5.685   0.040  0.0987  0.2374 -0.3167
 3578W        W 7778   0.778   1.414   9.087 -0.0904 -0.4573  0.1182
 3579W        W 7779   3.944   1.278  11.310  0.0348  0.2162  0.0735
 3580W        W 7780   1.241   2.187  13.528 -0.1247 -0.4165  0.3897
 3581W        W 7781   3.934   9.924  11.237 -0.2521 -0.3063  0.0156
 3582W        W 7782   5.652   1.419   1.221 -0.0855  0.1531 -0.0236
 3583W        W 7783   0.001   3.584   1.723 -0.1048  0.0189  0.2111
 3584W        W 7784   3.829   6.440   1.263  0.2512 -0.2268  0.3108
 3585W        W 7785   4.709   2.912  12.549  0.0118  0.2108 -0.0622
 3586W        W 7786   3.740   5.570   9.758 -0.2769  0.1832 -0.3060
 3587W        W 7787   7.357   0.967   0.837 -0.0885 -0.2563 -0.0564
 3588W        W 7788   8.420   3.241   3.817 -0.0994  0.0907  0.0159
 3589W        W 7789   8.611   8.491   3.778 -0.1558 -0.1413 -0.3418
 3590W        W 7790   9.686   0.681   2.842 -0.0414 -0.0719 -0.1161
 3591W        W 7791   8.468   4.587   4.515  0.0166 -0.0554  0.1679
 3592W        W 7792   6.590  10.120  13.460  0.0739  0.0251 -0.1610
 3593W        W 7793   3.520   8.032   3.577 -0.1361  0.1663  0.0268
 3594W        W 7794   0.077   9.870  11.640 -0.0848 -0.2984  0.1124
 3595W        W 7795   2.908   7.111   5.272  0.0759 -0.1473  0.2257
 3596W        W 7796   4.222   1.937   1.249  0.0755  0.1618 -0.0338
 3597W        W 7797   2.899   8.899   9.938 -0.2650  0.3823  0.0833
 3598W        W 7798   2.156   8.402  12.176 -0.0945  0.1678 -0.2157
 3599W        W 7799   9.635  10.322  11.593  0.0781  0.1748 -0.1028
 3600W        W 7800   7.769   5.676   2.245 -0.3954  0.0630  0.1992
 3601W        W 7801   2.081   5.040   4.658 -0.2081 -0.1056 -0.0686
 3602W        W 7802   9.547   6.231   2.942 -0.1823  0.1081 -0.3331
 3603W        W 7803   2.104   4.323   9.190  0.1771 -0.0254  0.0256
 3604W        W 7804   4.021   5.527   8.721  0.1427 -0.0323 -0.0501
 3605W        W 7805   4.894   4.782  12.438 -0.0353 -0.1405 -0.0942
 3606W        W 7806   8.258   8.145  10.151 -0.0154  0.2030  0.0325
 3607W        W 7807   5.714   4.864  11.780  0.2842 -0.4110 -0.1381
 3608W        W 7808   0.614   8.020  13.235 -0.3857  0.1106 -0.0617
 3609W        W 7809   4.633   9.603   2.478 -0.0084  0.2362 -0.0106
 3610W        W 7810   9.051   3.252  10.833 -0.0879  0.0075 -0.2678
 3611W        W 7811   5.640   3.958   2.017 -0.0238 -0.0148 -0.0975
 3612W        W 7812   3.330   9.935   1.723 -0.1523 -0.2257  0.1035
 3613W        W 7813   1.147   8.470  11.709  0.4976 -0.0488  0.0300
 3614W        W 7814   1.248   9.449   9.946  0.1745 -0.0061  0.0154
 3615W        W 7815   5.018   1.456   0.716 -0.0665 -0.2390  0.0158
 3616W        W 7816   9.465   8.313   3.084 -0.1800 -0.1876 -0.0651
 3617W        W 7817   3.963   3.655  12.411  0.2473 -0.5002 -0.0983
 3618W        W 7818   8.213   3.552   0.133  0.0334 -0.0234  0.0317
 3619W        W 7819   5.434   8.201   4.823 -0.0312 -0.0033  0.1278
 3620W        W 7820   5.464   0.497   4.510  0.1286 -0.0276  0.1349
 3621W        W 7821   2.347   3.886   0.857 -0.0851 -0.0390 -0.2676
 3622W        W 7822   3.243   1.887   5.161 -0.0105 -0.0897 -0.1592
 3623W        W 7823   5.905   5.666   0.794  0.1005  0.1181  0.5485
 3624W        W 7824   9.534   9.102  13.107 -0.1537 -0.0537 -0.1527
 3625W        W 7825   4.473  10.109   2.340  0.1604  0.0080  0.0781
 3626W        W 7826   4.294   1.714   2.237 -0.0117 -0.4164 -0.1761
 3627W        W 7827   2.888   7.822   2.992 -0.2056  0.1349 -0.1075
 3628W        W 7828   7.644   8.264  12.783  0.3960  0.1819  0.2219
 3629W        W 7829   9.823   8.575   3.352  0.1655 -0.0387  0.0020
 3630W        W 7830   0.625   2.454   2.456  0.0681 -0.1392 -0.3535
 3631W        W 7831   8.176   3.334   0.594 -0.1560  0.1548  0.1010
 3632W        W 7832   2.021   1.332   0.744 -0.0728 -0.2740 -0.1927
 3633W        W 7833   9.758   5.445  10.935  0.0938 -0.1340  0.0955
 3634W        W 7834   1.549   0.722   0.675  0.4781 -0.2880 -0.1221
 3635W        W 7835   3.447   3.164  12.714 -0.1468 -0.2293  0.1675
 3636W        W 7836   5.501  10.072  11.950 -0.1370  0.0909  0.0316
 3637W        W 7837   4.598  10.357   5.099  0.0918  0.0810  0.3427
 3638W        W 7838   4.620   0.916   3.587  0.1806  0.0204 -0.0483
 3639W        W 7839   2.531   2.475   3.469 -0.0288  0.1590 -0.3126
 3640W        W 7840   9.416   9.542   2.470 -0.1581  0.1454  0.0069
 3641W        W 7841   7.600   1.631  13.267 -0.2408  0.1489  0.0521
 3642W        W 7842   2.275   2.672   2.813 -0.1201 -0.4115  0.1451
 3643W        W 7843   3.372   4.958   8.621  0.1310 -0.1916  0.1343
 3644W        W 7844   1.672   3.256   2.531 -0.0422 -0.1954 -0.3487
 3645W        W 7845   2.319   6.914   0.108 -0.1494 -0.0521 -0.1688
 3646W        W 7846   0.885   4.741   3.510 -0.2942 -0.4237 -0.2044
 3647W        W 7847   5.706   6.864  12.990  0.0221  0.1108  0.0024
 3648W        W 7848   5.493   5.844   9.023  0.1968 -0.0246 -0.0234
 3649W        W 7849   8.975   9.722  10.986 -0.1459 -0.2023 -0.1583
 3650W        W 7850   3.287   0.019   1.798 -0.1569  0.2357  0.0404
 3651W        W 7851   3.804   0.402   5.294 -0.0495 -0.1086 -0.0409
 3652W        W 7852   3.670   6.242   0.856 -0.0149 -0.0527  0.1414
 3653W        W 7853   1.823   0.266  11.718  0.0566  0.0953 -0.3024
 3654W        W 7854   6.292   4.335   9.697  0.0086 -0.0847  0.0746
 3655W        W 7855   8.704   0.526   2.636  0.1716 -0.3915 -0.2151
 3656W        W 7856   8.758   6.140   9.891  0.0192  0.0060  0.1601
 3657W        W 7857   1.483   5.280   2.794  0.2182  0.2357  0.3922
 3658W        W 7858   9.387   5.093   0.509  0.1382  0.0343 -0.3998
 3659W        W 7859   8.553   5.874   9.205 -0.1307  0.1355 -0.2484
 3660W        W 7860   6.550  10.192   2.248 -0.1109  0.2873 -0.1109
 3661W        W 7861   7.061   6.831  13.124 -0.2514  0.0409  0.1176
 3662W        W 7862   1.685   5.628  11.325 -0.1107  0.0696 -0.0048
 3663W        W 7863   6.944   3.502   2.371  0.1988 -0.1585  0.3268
 3664W        W 7864   5.112   1.631   3.596  0.1515 -0.1387  0.0484
 3665W        W 7865   8.423   3.961  10.275 -0.0593  0.0599 -0.0811
 3666W        W 7866   7.909   3.994  10.385  0.0888  0.0715  0.3120
 3667W        W 7867   3.794   4.995   1.007 -0.0854 -0.0948  0.0983
 3668W        W 7868   2.859   5.254   2.839  0.1879  0.0933  0.2678
 3669W        W 7869   2.480   3.982  11.356  0.1486 -0.1837  0.0350
 3670W        W 7870  10.176   0.471   2.633 -0.0953 -0.1245  0.0213
 3671W        W 7871   0.420   2.471  10.285  0.0159  0.0964  0.0978
 3672W        W 7872   0.449   0.160   0.243  0.1475 -0.2347 -0.2168
 3673W        W 7873   6.169   9.413  12.948  0.0007  0.2705  0.0822
 3674W        W 7874   0.815   2.045   4.172 -0.3187 -0.3818  0.4286
 3675W        W 7875  10.309   5.320   3.471  0.3466 -0.2496  0.1784
 3676W        W 7876   4.265   0.391  11.813  0.2091  0.1314 -0.1304
 3677W        W 7877   5.687   0.953   1.531  0.0259  0.0810 -0.0081
 3678W        W 7878   4.386   5.468   1.967 -0.2217  0.1625  0.0472
 3679W        W 7879   5.708   9.115  12.554 -0.5778  0.1567 -0.1833
 3680W        W 7880   6.902   1.714   5.277  0.1000  0.0002 -0.1534
 3681W        W 7881   2.591  10.089   1.401 -0.2313  0.0087 -0.2205
 3682W        W 7882   8.385   1.227   4.034 -0.2019 -0.0497  0.0200
 3683W        W 7883   6.265   3.702  10.309 -0.4043 -0.1103 -0.0675
 3684W        W 7884   9.440   9.845   1.727 -0.1577 -0.3553 -0.2002
 3685W        W 7885   2.553   3.912   5.514 -0.1044  0.0270  0.1028
 3686W        W 7886   5.101   5.836   9.380 -0.2168 -0.2096  0.1162
 3687W        W 7887   4.278   4.408   4.552  0.0713 -0.2846  0.0637
 3688W        W 7888   1.483   9.260  12.821  0.0553  0.0154  0.0360
 3689W        W 7889   0.724   3.593  10.335  0.1624 -0.0849 -0.0048
 3690W        W 7890   9.633   2.713   3.610  0.1229  0.1238  0.0216
 3691W        W 7891   9.713   8.361   1.663  0.1741 -0.1479  0.0848
 3692W        W 7892   7.747   4.282  11.932  0.2570 -0.0010  0.1584
 3693W        W 7893   5.674   2.425  11.576 -0.2437  0.1189  0.1205
 3694W        W 7894   5.796   2.363   9.247 -0.0858 -0.0239 -0.1306
 3695W        W 7895   2.389   8.861  10.459  0.2164  0.0803  0.2361
 3696W        W 7896   0.959   0.844  10.437 -0.1189  0.0813  0.0673
 3697W        W 7897   3.994   6.175  11.537 -0.0373 -0.0417 -0.3149
 3698W        W 7898   5.209   9.089   1.213  0.1350  0.1997  0.1058
 3699W        W 7899   2.951   9.139   2.192 -0.1222 -0.1252 -0.0389
 3700W        W 7900   0.056   0.299  12.317 -0.5178 -0.1008  0.2535
 3701W        W 7901   1.036   7.932  12.970  0.2529  0.0187 -0.1817
 3702W        W 7902   6.332   7.693  12.231 -0.0783 -0.3900 -0.1989
 3703W        W 7903  10.127   9.894  11.979 -0.2570 -0.4062 -0.3176
 3704W        W 7904   9.569   3.258   9.997 -0.0542  0.0773 -0.1679
 3705W        W 7905   2.631   1.297   2.686 -0.2896 -0.0660 -0.0852
 3706W        W 7906   1.182   7.233  10.487  0.0068 -0.0401  0.1731
 3707W        W 7907   9.561  10.024   3.613  0.0869  0.2524  0.3624
 3708W        W 7908   7.257   2.102   1.119 -0.4151 -0.3328 -0.1513
 3709W        W 7909   6.339   3.783   1.570  0.2215 -0.2167 -0.0031
 3710W        W 7910   6.701   1.663   1.838  0.1049  0.1460  0.0513
 3711W        W 7911   3.453   7.210  10.016  0.4378 -0.1445  0.2944
 3712W        W 7912   8.744   5.232   4.092 -0.2023 -0.0103 -0.3311
 3713W        W 7913   5.003   3.715  12.980 -0.2303 -0.2924  0.0856
 3714W        W 7914   8.659   3.348  10.582 -0.1376  0.0582  0.3428
 3715W        W 7915   1.461   9.441  11.142  0.1348 -0.1503 -0.0770
 3716W        W 7916   9.053   3.090   1.101  0.0007  0.1506 -0.0366
 3717W        W 7917   1.809   1.889   0.647  0.2850 -0.1228 -0.2356
 3718W        W 7918   0.346   3.661   1.380  0.4247  0.1317  0.0208
 3719W        W 7919   4.109  10.136   0.428 -0.2842 -0.1261 -0.0506
 3720W        W 7920   9.579   3.002   2.621 -0.2000  0.4459  0.1476
 3721W        W 7921  10.364   5.734   0.433  0.2305  0.1368  0.2881
 3722W        W 7922   0.405   6.584  10.072 -0.0101 -0.1988 -0.1498
 3723W        W 7923   2.217   3.456  12.552 -0.0214  0.0285  0.2996
 3724W        W 7924   4.898   0.522   9.690 -0.1962  0.0772  0.1361
 3725W        W 7925   2.363   7.910  13.141 -0.6043  0.2017  0.0919
 3726W        W 7926   6.909   2.350  13.057  0.1689 -0.0389  0.0175
 3727W        W 7927   1.679   6.468   3.890  0.2640 -0.1878  0.1504
 3728W        W 7928   4.202   0.421   1.241 -0.1147  0.1674 -0.1133
 3729W        W 7929   6.413   2.427  13.333  0.0542  0.0515 -0.0742
 3730W        W 7930   8.393   5.930  11.128  0.0231 -0.0435 -0.0948
 3731W        W 7931   5.551   5.123   3.528 -0.2169  0.1154 -0.0431
 3732W        W 7932   2.592   8.851   0.718  0.2896  0.2238  0.2043
 3733W        W 7933   2.197   1.770   4.616  0.0717  0.2917  0.0355
 3734W        W 7934   7.534   4.685   0.121  0.0073  0.1938  0.0036
 3735W        W 7935   3.689   4.491   5.234  0.1122 -0.3165 -0.3677
 3736W        W 7936   0.923   6.474  10.263  0.1640  0.0694 -0.1825
 3737W        W 7937   1.435   2.747   1.292 -0.1199 -0.0329  0.1543
 3738W        W 7938   6.830   2.019   2.188 -0.1496 -0.0394  0.1653
 3739W        W 7939   0.814   0.769   3.261 -0.2994 -0.0935 -0.2472
 3740W        W 7940   0.982   3.818   3.510 -0.2927  0.2496  0.1478
 3741W        W 7941   4.898   7.624   4.601 -0.0168 -0.1605  0.2808
 3742W        W 7942   4.070   5.460  11.411 -0.1160  0.3078 -0.3227
 3743W        W 7943   0.958   2.156   3.541 -0.2241 -0.2771  0.0286
 3744W        W 7944   4.458   4.154  12.963 -0.2125 -0.3563  0.1367
 3745W        W 7945   6.402   2.566  12.712 -0.0098 -0.0173 -0.2974
 3746W        W 7946   6.108   1.170   1.710  0.1973 -0.2612 -0.1018
 3747W        W 7947  10.146   4.035   3.851 -0.0996  0.0508  0.1924
 3748W        W 7948   4.957   6.263   3.941 -0.3490  0.2780 -0.2179
 3749W        W 7949   1.353   9.139   0.480  0.1522 -0.0978  0.1347
 3750W        W 7950   1.502   3.713   1.183  0.0575 -0.0809  0.2683
 3751W        W 7951   4.485   6.436   1.800 -0.1142  0.0966  0.3296
 3752W        W 7952   7.176   6.500   0.800  0.2166  0.1276  0.1010
 3753W        W 7953  10.333   4.100  11.998 -0.1188 -0.3994 -0.0689
 3754W        W 7954   9.205   9.590  11.633 -0.1202  0.1866  0.0341
 3755W        W 7955   3.205   4.361   9.846  0.2182 -0.1213 -0.0059
 3756W        W 7956   4.735   8.690   8.554  0.2743  0.1083 -0.1867
 3757W        W 7957   3.045   6.358   2.210 -0.0228 -0.0522 -0.0127
 3758W        W 7958   4.972   3.406  10.935 -0.0070  0.1055 -0.1871
 3759W        W 7959   3.330   3.916  10.291 -0.0658  0.1619  0.1335
 3760W        W 7960   7.871   9.721   3.341  0.1363 -0.0716 -0.0095
 3761W        W 7961   3.394   0.815   5.222 -0.1480 -0.0905  0.0980
 3762W        W 7962   0.248   5.120  10.243 -0.0039  0.4114 -0.2110
 3763W        W 7963   7.716   0.877  11.931 -0.0892 -0.0569 -0.1699
 3764W        W 7964   3.350   2.649   2.315 -0.4347  0.0036  0.0388
 3765W        W 7965   9.102   0.190  11.911 -0.0960 -0.1335  0.0774
 3766W        W 7966   9.146   9.563   3.135 -0.1783  0.1232 -0.2656
 3767W        W 7967   9.183   9.219  10.270  0.4537  0.1078 -0.0237
 3768W        W 7968   1.236   1.251  13.119 -0.0381  0.0056 -0.1263
 3769W        W 7969   7.904   7.896   3.564  0.0087 -0.0531  0.2422
 3770W        W 7970   9.809   9.387   3.851  0.0418  0.0028 -0.2327
 3771W        W 7971   7.381   3.777   4.676 -0.1504 -0.3343 -0.0956
 3772W        W 7972   0.437   1.564   3.527  0.0492 -0.0651  0.1577
 3773W        W 7973   9.995   2.297  12.543  0.1181 -0.1867 -0.1573
 3774W        W 7974   2.747   5.479   0.968 -0.0442  0.2921 -0.1187
 3775W        W 7975   8.105   4.703   1.379 -0.1960  0.0720 -0.1350
 3776W        W 7976   9.207   8.489  12.470  0.2337  0.0358 -0.0702
 3777W        W 7977   7.647   2.979  11.497 -0.2207  0.0859 -0.0307
 3778W        W 7978   1.451   8.097   9.567 -0.0013 -0.1850  0.0538
 3779W        W 7979   0.308   8.151   4.646  0.0230  0.0632  0.0091
 3780W        W 7980   5.147   1.339   5.403 -0.1866 -0.5341 -0.0020
 3781W        W 7981   2.023   0.318   5.077  0.3316  0.1215  0.1689
 3782W        W 7982   2.771   0.795   1.678  0.1119 -0.0846 -0.2625
 3783W        W 7983   3.087   6.361   2.766 -0.1777 -0.3114 -0.0112
 3784W        W 7984   3.539   5.164  12.881  0.3746  0.0515 -0.0258
 3785W        W 7985   1.632   9.854  10.677  0.0773  0.2691 -0.1161
 3786W        W 7986   0.538   1.965  12.810 -0.3948  0.0440 -0.1560
 3787W        W 7987   5.892   7.214  10.708  0.1310 -0.1910  0.2329
 3788W        W 7988   1.129   2.427   5.028  0.0901  0.1749  0.0061
 3789W        W 7989   3.272   6.701   0.691 -0.2771  0.0329  0.0379
 3790W        W 7990   5.450   4.671   0.558  0.0721 -0.0874  0.3493
 3791W        W 7991   8.035   6.525   1.983  0.1451 -0.1502 -0.2484
 3792W        W 7992   9.932   8.002  11.887 -0.3863  0.1677  0.0760
 3793W        W 7993   5.181   2.447  10.417  0.2293 -0.0939  0.0822
 3794W        W 7994   1.321   7.569   2.214  0.0444 -0.1090  0.2197
 3795W        W 7995   4.014   9.367   4.417 -0.2743  0.0212  0.1247
 3796W        W 7996   5.986   3.832   3.779 -0.2884 -0.3599  0.0624
 3797W        W 7997   9.033   8.302   0.367  0.1691 -0.1716 -0.2102
 3798W        W 7998   0.225   9.255   0.565 -0.0068 -0.1933 -0.0478
 3799W        W 7999   0.189   1.331   2.018 -0.0016 -0.3767  0.1699
 3800W        W 8000   0.130   6.624   1.051 -0.2811  0.3724  0.0334
 3801W        W 8001   6.661   4.672  12.898 -0.1695  0.0082 -0.2171
 3802W        W 8002  10.035   7.393  10.942  0.1664  0.5610  0.3482
 3803W        W 8003   7.039   9.622  10.570 -0.1221 -0.1458 -0.1035
 3804W        W 8004   7.891   5.309  12.293 -0.0854 -0.1168  0.1266
 3805W        W 8005   6.458   2.045   0.442  0.1070 -0.0287  0.1352
 3806W        W 8006   8.664   0.332  10.065 -0.3977  0.2130  0.1377
 3807W        W 8007   2.146   2.186  11.106  0.2003  0.2534  0.3446
 3808W        W 8008   0.355   4.483   5.213 -0.0020  0.2572 -0.1297
 3809W        W 8009   9.429   2.805  10.056  0.1763 -0.0155  0.0425
 3810W        W 8010  10.079   2.228  10.112  0.0255  0.0104  0.2087
 3811W        W 8011   3.960   2.407   0.010 -0.1743  0.1223 -0.5003
 3812W        W 8012   4.905   0.937   2.304  0.2858 -0.1728  0.0751
 3813W        W 8013   1.652   8.925   4.164 -0.1045 -0.1869  0.0517
 3814W        W 8014   9.654   1.982   5.119 -0.0369  0.3408 -0.2218
 3815W        W 8015   8.802   4.789   2.155 -0.0948 -0.0939  0.2075
 3816W        W 8016   5.063   8.291  10.676  0.1970  0.0275  0.3287
 3817W        W 8017   3.552   4.393   0.045 -0.0356  0.0799  0.1308
 3818W        W 8018   1.583   5.120  10.634  0.2797 -0.0318  0.2108
 3819W        W 8019   3.734   0.672  11.905 -0.0902  0.0215  0.2420
 3820W        W 8020   3.377   7.027   0.324  0.0733 -0.1096  0.1458
 3821W        W 8021   9.417  10.420   2.011  0.1535  0.1052  0.0195
 3822W        W 8022   2.998   9.855   9.943 -0.1934 -0.1603  0.0194
 3823W        W 8023   6.124   7.122  12.766 -0.0722  0.0361 -0.1090
 3824W        W 8024   8.472   0.215  13.327  0.2553 -0.0059  0.1463
 3825W        W 8025   1.997  10.262   4.280  0.1947 -0.1463 -0.0906
 3826W        W 8026   6.071   2.706   9.474  0.3582  0.3090 -0.2542
 3827W        W 8027   4.718   4.112   4.270  0.0604 -0.1511 -0.0715
 3828W        W 8028   0.728  10.395  10.487 -0.1652  0.1743 -0.3711
 3829W        W 8029   1.438   8.985  10.127 -0.1849 -0.0604 -0.2138
 3830W        W 8030   4.209   3.302   2.533  0.0208 -0.2177  0.1201
 3831W        W 8031   5.868   4.194  13.199  0.1858  0.3505  0.0605
 3832W        W 8032   9.865   8.787  12.838 -0.0549 -0.0331 -0.0569
 3833W        W 8033   0.083   2.779   9.999  0.1057 -0.0165  0.1275
 3834W        W 8034   7.971   1.826   9.757  0.0866 -0.0118  0.1749
 3835W        W 8035   1.835   1.437  11.073  0.2521  0.1729 -0.2270
 3836W        W 8036   0.675   8.154   1.274  0.2577 -0.1559 -0.0956
 3837W        W 8037   4.563   8.442   3.506  0.2288 -0.0358 -0.1011
 3838W        W 8038   8.457   3.229  12.894 -0.0772  0.0009  0.4147
 3839W        W 8039  10.351   8.477   2.296  0.0798  0.0866 -0.2649
 3840W        W 8040   0.897  10.423  11.311 -0.0083  0.0208  0.1820
 3841W        W 8041   1.132   2.884   9.167  0.0398  0.0089  0.1260
 3842W        W 8042   3.670   4.492   1.067  0.1151  0.1984  0.1686
 3843W        W 8043   4.730   7.996   2.879 -0.3460  0.0833  0.2121
 3844W        W 8044   9.875   4.867   9.290 -0.0680  0.1030 -0.2243
 3845W        W 8045   2.623   3.084   8.362  0.1238 -0.1360  0.0732
 3846W        W 8046  10.328   1.895   1.221 -0.0607  0.0207 -0.0598
 3847W        W 8047  10.062   1.165  11.302  0.1093 -0.1979 -0.2220
 3848W        W 8048   5.575   9.901  10.996  0.2992  0.0227  0.1641
 3849W        W 8049   8.289   2.724  10.152  0.1093 -0.0438  0.0712
 3850W        W 8050   1.363   3.012   2.217  0.0447 -0.0304 -0.2963
 3851W        W 8051   4.544   8.729  12.157 -0.0776  0.2242  0.1967
 3852W        W 8052   6.380   4.626  10.183 -0.0260 -0.3670 -0.3125
 3853W        W 8053   4.630   7.784   2.357 -0.0244 -0.2462  0.1699
 3854W        W 8054   7.341   8.517   1.260  0.0917 -0.0838  0.0782
 3855W        W 8055   9.213   5.373   2.562  0.1262  0.1831  0.2185
 3856W        W 8056   4.949   6.225  10.262  0.0711 -0.0783 -0.1868
 3857W        W 8057   9.589   6.945   4.889 -0.0113  0.1004 -0.1483
 3858W        W 8058   7.249   4.012   2.439  0.1476 -0.0427  0.1033
 3859W        W 8059   4.416   2.490   9.669 -0.1258  0.0436 -0.0403
 3860W        W 8060   2.277   0.582   1.934  0.0309 -0.1589  0.0364
 3861W        W 8061   5.876   7.413  11.239 -0.3244 -0.1049  0.1028
 3862W        W 8062  10.221   5.623  10.842  0.1788  0.2378 -0.2199
 3863W        W 8063   0.921   7.108   0.170  0.3214  0.2341 -0.0637
 3864W        W 8064   3.723   7.150   8.493 -0.0148  0.0507 -0.2998
 3865W        W 8065   4.571   7.367   2.693 -0.1219  0.2056 -0.2883
 3866W        W 8066   8.498   5.331  12.886  0.2920 -0.1102  0.1784
 3867W        W 8067   5.177   0.989   9.605  0.3753  0.1545 -0.3295
 3868W        W 8068   9.445   3.657   4.838  0.3879  0.6239  0.0204
 3869W        W 8069   8.672   7.619   2.010  0.4522 -0.2545  0.0688
 3870W        W 8070   1.048   0.339  10.403  0.0612 -0.0660  0.2853
 3871W        W 8071   0.818   0.825   4.146  0.1383 -0.0198 -0.1390
 3872W        W 8072   2.559   8.842   0.031  0.2748  0.0661 -0.1266
 3873W        W 8073   6.889   9.261   2.293 -0.1593 -0.4440 -0.0925
 3874W        W 8074   3.846   9.378  13.491  0.0952 -0.0045  0.0372
 3875W        W 8075   6.727   5.467   3.939 -0.0102 -0.2446 -0.3363
 3876W        W 8076   1.248   9.021   3.021  0.1806  0.0050  0.2363
 3877W        W 8077   3.647   6.629   2.898  0.1837  0.2469 -0.1608
 3878W        W 8078   4.545   2.892  11.482 -0.2093  0.0186  0.0271
 3879W        W 8079   9.046   5.476   0.696 -0.1694 -0.2222 -0.1229
 3880W        W 8080   0.107   6.192   1.996 -0.3582  0.2435 -0.3014
 3881W        W 8081   2.619   1.559  13.509  0.2155 -0.1203 -0.1906
 3882W        W 8082   7.777   1.028  11.487 -0.1743  0.0230  0.1298
 3883W        W 8083   2.688   0.727  13.307  0.0829  0.0680 -0.1516
 3884W        W 8084   4.419   8.543   2.127 -0.0461 -0.1201  0.0309
 3885W        W 8085   9.159  10.088   3.253  0.2224  0.0045 -0.3058
 3886W        W 8086   7.756   5.420   3.062  0.2574  0.7173 -0.0524
 3887W        W 8087   3.470   7.203  12.226 -0.1930  0.1931 -0.3927
 3888W        W 8088   5.634   9.486   9.449  0.3719  0.0957 -0.1777
 3889W        W 8089   1.438   7.437   3.700 -0.0841  0.1652 -0.0080
 3890W        W 8090   3.502   9.554  10.889  0.2493  0.0807 -0.0663
 3891W        W 8091   4.966   3.275  11.531  0.1133  0.1296 -0.2007
 3892W        W 8092   0.896   2.057   5.206 -0.1245 -0.1021  0.1039
 3893W        W 8093   8.271   4.318  11.828 -0.1802 -0.0804  0.1382
 3894W        W 8094   2.435   8.391  11.173  0.2791 -0.1865 -0.0671
 3895W        W 8095   0.044   7.345   9.744  0.3008  0.1128 -0.1965
 3896W        W 8096   9.719   6.720   9.973 -0.2156  0.0039  0.0418
 3897W        W 8097   4.387   5.898  12.851 -0.0912  0.0029  0.2641
 3898W        W 8098   7.900   9.674   0.296  0.0384  0.1539 -0.1029
 3899W        W 8099   1.387   6.610   1.400 -0.0132 -0.0275  0.1197
 3900W        W 8100   1.244   7.462   0.340  0.0261  0.6161  0.2683
 3901W        W 8101   8.079   2.959   8.500  0.0516 -0.0059 -0.0083
 3902W        W 8102   7.047   8.727   2.364  0.0645 -0.1378 -0.3793
 3903W        W 8103   6.125   8.581   4.258  0.2157  0.1771 -0.1742
 3904W        W 8104   4.663   8.023  10.525 -0.0871  0.0918  0.0323
 3905W        W 8105   8.272   3.752  10.706 -0.1436 -0.2938 -0.0956
 3906W        W 8106   1.370   8.574   2.628 -0.1554  0.1062 -0.4143
 3907W        W 8107   1.379  10.398   9.108  0.3007  0.0321  0.2031
 3908W        W 8108   0.932   8.875   9.812  0.2161 -0.1196 -0.0533
 3909W        W 8109   5.351   7.945   1.338 -0.0097  0.1223  0.1442
 3910W        W 8110   6.310   7.295  11.424 -0.1172 -0.3187  0.2124
 3911W        W 8111   5.806   1.783  10.645  0.2146  0.0465  0.3128
 3912W        W 8112   9.499   4.845   8.831 -0.0145 -0.2412  0.0898
 3913W        W 8113   6.533   3.313   4.682 -0.3004  0.0930 -0.1747
 3914W        W 8114   5.723   2.800   3.461  0.3605 -0.1558 -0.1004
 3915W        W 8115   3.127   2.810   5.461 -0.1727  0.1701  0.2424
 3916W        W 8116   4.344   3.652  10.253  0.1030  0.1278 -0.2099
 3917W        W 8117   5.318   0.262   2.309  0.1611  0.1752 -0.0905
 3918W        W 8118   1.628   2.681   3.788  0.1065  0.0078  0.1619
 3919W        W 8119   1.900   3.983   3.880 -0.1711 -0.0161 -0.0550
 3920W        W 8120   5.959   6.763   2.386 -0.0428 -0.1158 -0.1313
 3921W        W 8121   9.439   0.476   9.437 -0.2775  0.0062 -0.1471
 3922W        W 8122   5.374   4.061   1.626 -0.2048  0.2423  0.1918
 3923W        W 8123   2.296   5.525  13.083 -0.3544 -0.1112  0.0018
 3924W        W 8124   0.729   6.477   3.118  0.0445  0.2562  0.1426
 3925W        W 8125   7.273   0.311   0.296 -0.2100 -0.1705 -0.0768
 3926W        W 8126   3.201   2.814   1.090 -0.4190  0.0262 -0.0904
 3927W        W 8127   9.881   4.104  13.322 -0.2577  0.0510  0.1538
 3928W        W 8128   4.551   6.126  10.747 -0.0321 -0.0527 -0.3338
 3929W        W 8129   0.471   6.995   3.733  0.0885 -0.1204  0.2626
 3930W        W 8130   1.279   3.091   0.992  0.1167 -0.2814 -0.1153
 3931W        W 8131   7.127   4.650  13.316  0.1922  0.1947 -0.1584
 3932W        W 8132   6.529   8.049  10.986 -0.0035 -0.2235 -0.2483
 3933W        W 8133  10.119   6.511  10.853  0.0088  0.1245  0.2199
 3934W        W 8134   6.457   0.507   2.364 -0.3588  0.2792 -0.0674
 3935W        W 8135   4.577   4.809   2.604  0.0509 -0.0253 -0.4411
 3936W        W 8136   6.373   6.736   1.482 -0.4338  0.0119 -0.3062
 3937W        W 8137   9.242   0.965  11.325  0.3009 -0.1090  0.2754
 3938W        W 8138   1.082   4.610  10.541 -0.1314 -0.2608  0.0896
 3939W        W 8139   8.791   7.606   1.525 -0.0717  0.0624  0.2270
 3940W        W 8140   4.201   2.827   2.746 -0.0828 -0.3079  0.5120
 3941W        W 8141  10.245   3.511   3.889  0.0354 -0.1704 -0.0574
 3942W        W 8142   3.887   6.157   4.597  0.1654  0.1154  0.1897
 3943W        W 8143   0.654   2.163  12.126  0.0405 -0.0553 -0.1186
 3944W        W 8144   8.234   4.464  11.313 -0.1231 -0.2515  0.0452
 3945W        W 8145   2.336  10.301  10.100 -0.1314 -0.2439 -0.1985
 3946W        W 8146   5.341   2.213   5.025 -0.0473 -0.0693 -0.3414
 3947W        W 8147   2.933   2.675   9.422  0.1255 -0.2213  0.2270
 3948W        W 8148   6.000   7.317  12.311  0.1426  0.2361 -0.0931
 3949W        W 8149   8.714   9.692  11.890  0.0377 -0.1300 -0.2304
 3950W        W 8150   5.534   2.782   5.815  0.2130 -0.1904 -0.0299
 3951W        W 8151   8.214   9.854   1.510  0.3566  0.1346  0.0493
 3952W        W 8152   7.866   3.776  11.004  0.0245 -0.1911 -0.2047
 3953W        W 8153   2.152   5.305  11.119 -0.0755 -0.0341 -0.2181
 3954W        W 8154   0.031   7.669   1.609  0.0319 -0.1077  0.1364
 3955W        W 8155  10.343   5.337  11.887  0.1070 -0.0932 -0.0457
 3956W        W 8156   0.380   7.524   1.972 -0.1707 -0.2046 -0.3129
 3957W        W 8157   7.713   2.508  13.010  0.0024  0.1191 -0.1212
 3958W        W 8158   4.246   7.636  10.663  0.0686  0.1233  0.1782
 3959W        W 8159   1.633   4.161   5.277  0.2812 -0.0229  0.5404
 3960W        W 8160   3.349   9.445   1.975  0.0958  0.0723  0.2378
 3961W        W 8161   1.819   2.438  12.396 -0.0866 -0.1926 -0.1445
 3962W        W 8162   1.083   7.049  13.138 -0.2063  0.2030 -0.4149
 3963W        W 8163   1.824   0.539   0.328 -0.3913  0.3687 -0.0410
 3964W        W 8164   2.493   3.546   0.453 -0.0621 -0.1137  0.2677
 3965W        W 8165   1.644   7.914  10.577 -0.2095  0.0076  0.2245
 3966W        W 8166   7.074   6.692  11.356  0.2375  0.0736 -0.2230
 3967W        W 8167   7.323   9.125  11.571 -0.0921  0.2171  0.0867
 3968W        W 8168   0.938   4.007  11.110 -0.0876 -0.3086 -0.0879
 3969W        W 8169   7.197   8.102   1.505 -0.1471 -0.0906  0.1332
 3970W        W 8170   9.939   5.560  11.768 -0.0216 -0.0116  0.0849
 3971W        W 8171  10.083   0.404   0.262 -0.0837 -0.2391 -0.1441
 3972W        W 8172   5.248   7.948   2.195  0.0605 -0.2524  0.2270
 3973W        W 8173   9.569   7.114   8.457  0.1161  0.1196  0.1583
 3974W        W 8174   2.545   6.281   0.795 -0.0113  0.0502  0.0700
 3975W        W 8175   1.529   0.324   0.989 -0.1413  0.0732  0.1693
 3976W        W 8176   1.135   2.030   3.068  0.3870  0.0467 -0.0724
 3977W        W 8177   4.067   8.618  13.022 -0.0480  0.0621 -0.1903
 3978W        W 8178   1.662   2.614   2.039  0.1095  0.2880 -0.1327
 3979W        W 8179   7.396   8.166   0.625 -0.0020 -0.0080  0.1055
 3980W        W 8180   9.384   3.275   2.175 -0.3751 -0.1368  0.0882
 3981W        W 8181   8.288   1.197   0.886 -0.0364 -0.0983  0.1715
 3982W        W 8182   6.802   9.378   0.010  0.0254  0.1485  0.0256
 3983W        W 8183   4.541   8.358   9.892 -0.3370 -0.0401 -0.1533
 3984W        W 8184   3.442   7.180   2.553 -0.1926 -0.0652  0.1152
 3985W        W 8185   6.498   8.353   1.909 -0.1060 -0.3212 -0.2460
 3986W        W 8186   5.497   5.174   4.151 -0.1118 -0.0401  0.1819
 3987W        W 8187   5.484   9.613   4.461 -0.0125 -0.1409  0.2332
 3988W        W 8188   3.244   9.271   4.140 -0.0515 -0.0148 -0.1572
 3989W        W 8189   2.255   6.035   2.269 -0.2189 -0.2270 -0.1307
 3990W        W 8190   4.991   3.717   4.401 -0.2169 -0.0848  0.0608
 3991W        W 8191   8.967   0.563  12.762  0.1121 -0.0764  0.1046
 3992W        W 8192   8.484   4.610  12.235 -0.1629 -0.0213  0.2683
 3993W        W 8193   8.333   6.067  12.463  0.3227 -0.1302  0.2592
 3994W        W 8194   7.159   6.709   3.365  0.1207 -0.2462  0.0456
 3995W        W 8195   9.352  10.438  10.910 -0.2382 -0.0328  0.5378
 3996W        W 8196   1.026   0.348   4.721 -0.1477  0.0903 -0.1364
 3997W        W 8197   0.340   2.006   0.372  0.0174 -0.3214 -0.3533
 3998W        W 8198   4.904   9.327  13.443  0.0637  0.1289  0.2107
 3999W        W 8199   5.760   4.894  12.252 -0.1594  0.2548  0.0265
 4000W        W 8200   7.864   6.470   3.693  0.0869 -0.0831 -0.2225
 4001W        W 8201   3.850   5.426  13.173  0.1595  0.1488 -0.2126
 4002W        W 8202   6.102   7.667   2.657 -0.0816 -0.1259 -0.2038
 4003W        W 8203   1.282   6.070   2.252  0.1531  0.0239  0.3557
 4004W        W 8204   4.937   3.213   0.772  0.2057 -0.2689 -0.2503
 4005W        W 8205   8.740   2.016   2.121  0.0830  0.1540 -0.0110
 4006W        W 8206   3.222   7.994   5.289  0.2852  0.1501 -0.6097
 4007W        W 8207   1.557   9.297  10.650 -0.2476 -0.3883 -0.0560
 4008W        W 8208   7.092   2.612   2.183 -0.0836  0.1235 -0.0372
 4009W        W 8209   3.982   9.106  12.596 -0.0518  0.2074 -0.2436
 4010W        W 8210   8.967   1.763  12.964  0.1273 -0.0131 -0.0828
 4011W        W 8211   0.271   5.720  13.530  0.3465  0.0488 -0.2036
 4012W        W 8212  10.063   8.355  11.525  0.0385 -0.1779 -0.1645
 4013W        W 8213   9.442   3.662   1.754 -0.0922 -0.5126 -0.0961
 4014W        W 8214   7.364   7.942   0.166  0.1230 -0.0866  0.0021
 4015W        W 8215   6.377   6.064   0.047 -0.2452 -0.0613 -0.2333
 4016W        W 8216   8.801   0.980   0.876 -0.1310  0.0814  0.1400
 4017W        W 8217   8.780   8.852  10.970  0.3438 -0.2345 -0.2049
 4018W        W 8218  10.168   8.641   2.790  0.1092 -0.1121  0.0157
 4019W        W 8219   6.179   0.925  13.330  0.0747 -0.1862 -0.0143
 4020W        W 8220   9.218   8.166  13.181 -0.1973 -0.0888 -0.4574
 4021W        W 8221   0.258   5.682   1.069  0.1025 -0.1463  0.3917
 4022W        W 8222   2.592   1.729   3.576  0.0047 -0.0272 -0.0368
 4023W        W 8223   6.935   4.303   2.764  0.0524  0.0596  0.1763
 4024W        W 8224   8.942   3.546   1.337 -0.2298 -0.1023  0.0283
 4025W        W 8225   1.240   0.768   4.473 -0.1234 -0.1710 -0.0943
 4026W        W 8226  10.360   9.470  12.442  0.0519 -0.0384  0.0139
 4027W        W 8227   8.141   3.001   0.937 -0.1405  0.2714 -0.0953
 4028W        W 8228   5.096   1.977   0.911  0.4222  0.0526 -0.4527
 4029W        W 8229   2.815   9.507  11.667  0.2366  0.0827  0.0729
 4030W        W 8230   8.595   2.335  10.021  0.0157  0.0011  0.2866
 4031W        W 8231  10.206   9.260  10.999  0.1289  0.1682 -0.0736
 4032W        W 8232   0.422   3.177   1.550 -0.1448 -0.1584 -0.2939
 4033W        W 8233   6.233   6.319   3.693 -0.1135 -0.1666 -0.0578
 4034W        W 8234   0.229   3.119   9.113  0.1200  0.1089  0.3483
 4035W        W 8235   9.915   6.044  10.699  0.3653  0.1761  0.2182
 4036W        W 8236   7.344   4.088  12.327 -0.0816  0.0663 -0.4292
 4037W        W 8237   7.277   5.245   2.142 -0.1272  0.2851 -0.2592
 4038W        W 8238   3.343   3.319  11.752  0.0399 -0.2265 -0.0843
 4039W        W 8239   0.672   8.199  10.831  0.1310  0.1407 -0.2519
 4040W        W 8240   0.364   5.239  11.800 -0.0133  0.3135  0.1499
 4041W        W 8241   2.550   2.467   4.013 -0.0233 -0.0969 -0.0853
 4042W        W 8242   5.450   3.510  13.282  0.0049 -0.0785 -0.3175
 4043W        W 8243   7.869  10.214  13.103 -0.0370  0.0242  0.0645
 4044W        W 8244   5.718   2.386   1.147 -0.2227 -0.2367  0.4947
 4045W        W 8245   2.393   4.511   3.550 -0.4649  0.1822 -0.0532
 4046W        W 8246   4.958   7.697  13.522  0.2650 -0.2807  0.0834
 4047W        W 8247   4.243   4.227   0.278 -0.0853 -0.0912  0.2291
 4048W        W 8248   6.535   1.182   2.067  0.0389  0.1561  0.1080
 4049W        W 8249   0.258   4.805  12.171 -0.0752 -0.0217 -0.1142
 4050W        W 8250   5.431   9.726   1.096  0.0919 -0.1311  0.0185
 4051W        W 8251   4.416   0.192  13.329  0.0358 -0.1257  0.1231
 4052W        W 8252  10.018  10.350   0.026 -0.1768  0.1068 -0.1823
 4053W        W 8253   5.267   2.461   0.984  0.3729  0.2419 -0.0262
 4054W        W 8254   3.024   7.204  13.158 -0.0023  0.2697  0.2098
 4055W        W 8255   1.127   5.901   9.665 -0.0547 -0.0497 -0.2603
 4056W        W 8256   9.939   6.242   0.986 -0.0657 -0.0209 -0.0556
 4057W        W 8257   6.703   6.580  12.373  0.0307  0.5005 -0.0195
 4058W        W 8258   5.336   6.725   9.624  0.2724 -0.1277 -0.0152
 4059W        W 8259   2.993   1.825  11.588 -0.3100 -0.2208 -0.0960
 4060W        W 8260   4.170   2.739   2.100  0.0272 -0.0631  0.2090
 4061W        W 8261   4.820   9.025   2.677 -0.1018 -0.1151  0.0695
 4062W        W 8262   2.922   2.826  10.619 -0.3011 -0.0520 -0.0483
 4063W        W 8263   3.019   3.192   1.411  0.3245  0.0404 -0.1565
 4064W        W 8264   4.129   8.889   9.160 -0.0681  0.0399 -0.2134
 4065W        W 8265   4.639   6.168   8.677 -0.0248 -0.3400  0.0044
 4066W        W 8266   5.966   6.138   1.664 -0.2615  0.1937 -0.1642
 4067W        W 8267   6.027   6.092  10.911 -0.2282 -0.2498 -0.3687
 4068W        W 8268   9.823   7.501   2.871  0.2504 -0.1732 -0.0812
 4069W        W 8269   8.521   9.354  10.993  0.0487  0.0741  0.0812
 4070W        W 8270   6.766  10.061  10.478  0.1596 -0.0949 -0.1870
 4071W        W 8271   9.796   0.790  13.422  0.1489 -0.2273 -0.1158
 4072W        W 8272   4.632   0.839  10.035 -0.0319  0.0669  0.1618
 4073W        W 8273   7.713   9.777  11.956 -0.0401 -0.2371 -0.1266
 4074W        W 8274   7.708   1.356  12.342 -0.0243  0.0298 -0.0853
 4075W        W 8275   4.865   1.692  10.045 -0.0305  0.0628  0.2886
 4076W        W 8276   4.719   3.557   1.258  0.0372 -0.3881 -0.1924
 4077W        W 8277   4.923   0.092   3.714  0.3396 -0.0389 -0.0046
 4078W        W 8278   4.902   9.403  12.335  0.0982  0.1901  0.2502
 4079W        W 8279   3.006   1.189   4.706  0.3001  0.1211 -0.1073
 4080W        W 8280   1.329  10.423  11.087 -0.0664  0.3310 -0.1347
 4081W        W 8281   6.453   7.382   1.443  0.0433  0.0450  0.3496
 4082W        W 8282   8.565   7.733  12.656 -0.2247  0.0132 -0.3705
 4083W        W 8283   6.725   7.430  12.191 -0.0050  0.1647 -0.1712
 4084W        W 8284   8.603   1.472  11.713  0.1650  0.1209 -0.1512
 4085W        W 8285  10.039   2.138   1.789 -0.1414 -0.4082 -0.0338
 4086W        W 8286   6.287   5.351   9.337 -0.0458 -0.1256 -0.1909
 4087W        W 8287   7.310   8.573  11.686 -0.1217 -0.1905  0.1241
 4088W        W 8288   8.925   6.818   2.497 -0.0950 -0.2739  0.1603
 4089W        W 8289   1.142   4.299   3.429 -0.1090 -0.1174  0.0730
 4090W        W 8290   2.531   1.073  12.504  0.0217  0.2328  0.0574
 4091W        W 8291   5.687   5.842  10.634 -0.0523 -0.4070  0.0893
 4092W        W 8292   1.742  10.344  10.632  0.0663 -0.3800  0.0184
 4093W        W 8293   0.486   2.122   3.829 -0.1987  0.1361  0.1130
 4094W        W 8294   5.555   0.755   2.003 -0.4017 -0.1601  0.2727
 4095W        W 8295   6.323   7.917   3.113 -0.1316 -0.1669 -0.0594
 4096W        W 8296   2.798  10.393   4.411 -0.0970 -0.1666  0.1678
 4097W        W 8297   0.667   6.168   9.342  0.0220 -0.2548 -0.3289
 4098W        W 8298   8.148   5.546  12.635  0.1630  0.0717 -0.2109
 4099W        W 8299  10.328   2.129  11.616  0.1456 -0.0819 -0.1006
 4100W        W 8300   4.846   8.332   2.380  0.0208  0.0721 -0.0018
 4101W        W 8301   5.112   4.215  10.194  0.1603  0.0506  0.2295
 4102W        W 8302   8.829   7.109   1.687 -0.0951  0.2090 -0.3215
 4103W        W 8303   1.481  10.026   4.921 -0.4460 -0.1640 -0.3046
 4104W        W 8304   7.048   7.761  12.589  0.0527 -0.0741 -0.0815
 4105W        W 8305   8.166   0.020   0.348  0.0925 -0.2707 -0.0035
 4106W        W 8306   0.370   8.934   0.147 -0.0921  0.1866  0.0461
 4107W        W 8307   2.085   1.177   2.640 -0.0130  0.2581  0.0234
 4108W        W 8308   4.885   4.475  11.129  0.4369  0.1057 -0.1906
 4109W        W 8309   4.766   6.876   1.972 -0.0852  0.1190  0.0464
 4110W        W 8310   5.795   6.770  12.485 -0.1365 -0.1912 -0.0677
 4111W        W 8311   7.731   9.989   1.530  0.2129 -0.1867 -0.2520
 4112W        W 8312   5.707   3.102  12.391  0.1993 -0.2875  0.0326
 4113W        W 8313   2.630   6.663   4.044  0.2789  0.1774 -0.0749
 4114W        W 8314   9.776   9.933   2.623 -0.2752  0.4476  0.2205
 4115W        W 8315   3.329   0.765   3.192  0.2482 -0.0449 -0.0882
 4116W        W 8316   6.377   3.992   4.149  0.0366 -0.1401  0.0801
 4117W        W 8317   6.141   2.377   0.685  0.2921  0.1804 -0.1766
 4118W        W 8318   5.882   0.921   0.765 -0.0005  0.2405 -0.0832
 4119W        W 8319   7.553  10.421  13.469  0.2802 -0.1780  0.2355
 4120W        W 8320   7.025   6.750   2.091 -0.0199  0.1241  0.1770
 4121W        W 8321   9.087   8.405   3.423  0.0047 -0.2453 -0.0476
 4122W        W 8322   5.982   7.364   1.142 -0.4133  0.1775  0.2271
 4123W        W 8323   4.881   6.832  13.295  0.0545 -0.0004  0.1276
 4124W        W 8324   2.695   5.921   2.175  0.0939 -0.0595 -0.0498
 4125W        W 8325   0.694   2.724   4.807  0.1611  0.0152  0.0923
 4126W        W 8326  10.083   1.724  11.847  0.1520  0.0124  0.3378
 4127W        W 8327   6.874   6.538  12.807  0.1448  0.1605 -0.2299
 4128W        W 8328   5.435   8.659  12.591 -0.0926  0.2949 -0.1318
 4129W        W 8329   0.552  10.352   3.184 -0.1049  0.3946  0.1668
 4130W        W 8330   6.826   6.637  11.858  0.1019 -0.1279 -0.0501
 4131W        W 8331  10.186   3.957   3.019  0.1613  0.1043 -0.0966
 4132W        W 8332   0.080   1.240   2.792 -0.1911 -0.1798 -0.0117
 4133W        W 8333  10.312   6.946  10.947 -0.1109  0.1019 -0.4003
 4134W        W 8334   4.239   9.595   9.639 -0.0452  0.3408  0.0565
 4135W        W 8335   5.289   8.484   4.345 -0.0127  0.3779 -0.0778
 4136W        W 8336   5.599   7.677   2.670 -0.4390 -0.0347 -0.2921
 4137W        W 8337   7.777   6.036   3.467 -0.0789 -0.1701 -0.1950
 4138W        W 8338   7.423   3.909  10.332  0.3842 -0.1265 -0.3083
 4139W        W 8339   7.491   2.513  10.589  0.2095  0.1801 -0.0539
 4140W        W 8340   6.217   0.494   0.317 -0.0296  0.0285 -0.3291
 4141W        W 8341   1.516   6.554   0.437 -0.3728  0.0088 -0.0503
 4142W        W 8342   2.761   0.264   9.106 -0.3803 -0.1856  0.2457
 4143W        W 8343   9.586   3.551   2.528  0.3787 -0.0807  0.0084
 4144W        W 8344   6.621  10.368  10.971 -0.0890 -0.0941 -0.0885
 4145W        W 8345   0.114   8.675  11.629  0.0064 -0.1481 -0.1979
 4146W        W 8346   9.667   3.793  11.948 -0.0169  0.1439 -0.3019
 4147W        W 8347   5.430   4.003  13.269  0.2760  0.0738 -0.1059
 4148W        W 8348   4.092   0.225   4.519  0.0235  0.1427  0.3762
 4149W        W 8349   1.854   9.816   4.640 -0.2813  0.1219 -0.2791
 4150W        W 8350   9.164   7.097  10.679 -0.2038 -0.0286 -0.0299
 4151W        W 8351   3.143   8.914  13.362 -0.0048  0.1662 -0.0064
 4152W        W 8352   8.132   0.944  12.218  0.1210  0.3278  0.0383
 4153W        W 8353   4.541   2.911   4.086  0.2390  0.0725  0.0401
 4154W        W 8354   8.287   3.187   9.716 -0.5328 -0.2956  0.0768
 4155W        W 8355   2.093   5.189   0.740  0.0698  0.0404  0.1178
 4156W        W 8356   1.691   4.529  10.963 -0.1502  0.0837 -0.2849
 4157W        W 8357   4.370   4.984   1.703 -0.0255  0.2044  0.0445
 4158W        W 8358   5.976   2.338  12.957 -0.0997  0.0732  0.1801
 4159W        W 8359   9.864   3.221   1.959 -0.1809  0.3078 -0.0728
 4160W        W 8360   3.805   4.387   3.306  0.0959  0.1135 -0.1140
 4161W        W 8361   1.479   8.147   1.724  0.3241  0.1365 -0.2333
 4162W        W 8362   2.947   2.032  12.584 -0.0092 -0.1271 -0.2374
 4163W        W 8363   2.098   3.582   2.256 -0.1725  0.0057 -0.0321
 4164W        W 8364   8.939   2.527  10.907 -0.0289  0.0301 -0.1805
 4165W        W 8365   0.990   9.396   2.549 -0.1841 -0.1540 -0.1284
 4166W        W 8366   5.193   7.348   0.591 -0.2334 -0.0582  0.0967
 4167W        W 8367   9.115   7.585   0.552  0.1578  0.0956 -0.1561
 4168W        W 8368   3.142   1.849  11.073 -0.0672 -0.2110  0.1299
 4169W        W 8369   2.264   3.977   0.361  0.0157 -0.1237  0.0385
 4170W        W 8370   9.832   3.386  11.481 -0.0555  0.0889  0.0068
 4171W        W 8371   7.995   6.324  12.221  0.1456 -0.0968  0.3432
 4172W        W 8372   2.407   7.493   9.805  0.1084 -0.3417 -0.0095
 4173W        W 8373   2.582   9.230   4.445 -0.2290 -0.1762 -0.2248
 4174W        W 8374   3.937   5.195   9.458  0.1314 -0.1070 -0.0281
 4175W        W 8375  10.084   9.130   0.775  0.0263  0.0205  0.2019
 4176W        W 8376   9.882   5.811  11.263 -0.1227 -0.2429  0.1891
 4177W        W 8377   4.677   7.225  11.945 -0.1710  0.1235 -0.1560
 4178W        W 8378   8.084   1.775   1.792 -0.0896  0.2176  0.0292
 4179W        W 8379   7.944   3.106  10.106  0.2616  0.1336  0.1546
 4180W        W 8380   4.677   3.058   4.943  0.1345 -0.0478 -0.0895
 4181W        W 8381   0.732   3.978  13.039 -0.2086  0.2654 -0.0305
 4182W        W 8382   3.205   2.310   3.165 -0.3974  0.2512  0.3580
 4183W        W 8383   7.695   7.528   3.238 -0.1448  0.1952  0.0906
 4184W        W 8384   4.547   5.082  12.436 -0.3106 -0.0754 -0.2604
 4185W        W 8385   2.449   9.223  12.592  0.1421 -0.0723  0.2744
 4186W        W 8386   4.801   0.038   2.561 -0.0795 -0.0465  0.3742
 4187W        W 8387   0.650   0.485  11.345  0.2482  0.0595  0.2637
 4188W        W 8388   0.975   2.036   8.504  0.1024  0.1320  0.0692
 4189W        W 8389   1.991   7.478  11.200  0.2235  0.0167 -0.3027
 4190W        W 8390   0.980   7.683   2.541 -0.2749 -0.0681  0.0745
 4191W        W 8391   8.598   4.714  12.726 -0.3666  0.2426  0.1262
 4192W        W 8392   0.259   7.969  12.327 -0.0748  0.0347  0.1804
 4193W        W 8393   6.770   2.741  11.589  0.2461 -0.1611 -0.3020
 4194W        W 8394   5.739   6.381  11.694 -0.3973 -0.0203 -0.1580
 4195W        W 8395   1.908   3.807  12.496  0.0153 -0.2477  0.1949
 4196W        W 8396   4.479   3.367   1.678 -0.1255  0.1851 -0.0838
 4197W        W 8397   0.529   1.236   1.676 -0.1642  0.2491  0.0859
 4198W        W 8398   1.238   8.596   9.482  0.1651  0.1194  0.0117
 4199W        W 8399   2.401  10.300   0.715 -0.2172  0.4278 -0.0570
 4200W        W 8400   5.342   5.001   0.979  0.3122 -0.3953 -0.1051
 4201W        W 8401   1.884   0.415  12.976  0.1747 -0.2611  0.0524
 4202W        W 8402   2.319   7.913   2.144  0.1053  0.2896  0.5302
 4203W        W 8403   9.046   7.910  10.638 -0.2651 -0.2719 -0.0443
 4204W        W 8404   5.035   1.585   2.606 -0.0668  0.1081  0.1184
 4205W        W 8405   1.651   9.081   0.081  0.1016 -0.0531  0.0830
 4206W        W 8406   3.751   6.537   4.189  0.1613 -0.1320  0.1706
 4207W        W 8407   1.664   9.912   9.658 -0.0684 -0.2073 -0.3112
 4208W        W 8408   6.706   9.356   1.688  0.0370  0.1232 -0.2286
 4209W        W 8409  10.215   3.309   0.078 -0.2775  0.0732 -0.0219
 4210W        W 8410   0.579   0.649   0.392 -0.2040  0.2255 -0.0776
 4211W        W 8411   7.598   1.447   0.612  0.1040  0.1696  0.2158
 4212W        W 8412   2.772   1.894   5.297  0.0609  0.2267 -0.2237
 4213W        W 8413   8.435   3.408  11.035 -0.5084  0.3201  0.0431
 4214W        W 8414   6.437   4.855   3.251 -0.1162 -0.0274  0.2965
 4215W        W 8415   6.485   9.720   0.354 -0.1045 -0.0553 -0.1640
 4216W        W 8416   9.426   8.095  12.690  0.0315  0.0557 -0.2966
 4217W        W 8417   3.947   7.007   3.781  0.1731  0.1340  0.2938
 4218W        W 8418   3.677   5.072   9.912 -0.1033  0.1966 -0.0359
 4219W        W 8419   0.505   1.787  10.710 -0.1019 -0.1128  0.0443
 4220W        W 8420   2.447   8.636   5.042  0.1527  0.1189 -0.1601
 4221W        W 8421   3.638   7.919   0.553  0.0645  0.0721 -0.2074
 4222W        W 8422   0.498   2.155   1.431  0.2248  0.1546  0.0721
 4223W        W 8423   7.984   9.106   2.563  0.0517  0.1461  0.1262
 4224W        W 8424   2.892   8.419   3.605 -0.0248  0.1530 -0.3469
 4225W        W 8425   9.703   2.029  11.002 -0.0254 -0.0843  0.0982
 4226W        W 8426  10.080   4.388   1.297 -0.1026 -0.2741 -0.2696
 4227W        W 8427   0.490   5.304   9.811 -0.0336  0.0466 -0.5340
 4228W        W 8428   3.541   0.698  10.286  0.2120  0.2034  0.0085
 4229W        W 8429   9.499   4.812  11.558 -0.1554 -0.0361 -0.3218
 4230W        W 8430   4.995   3.253   1.753  0.3851  0.1275  0.0508
 4231W        W 8431   9.715   4.501  13.533  0.0199 -0.0495  0.0570
 4232W        W 8432   9.939   0.820   3.348 -0.1786  0.0032  0.1964
 4233W        W 8433  10.356   1.951   0.085 -0.2234 -0.2276 -0.2663
 4234W        W 8434   0.360   7.459   0.504  0.1612  0.1337 -0.0747
 4235W        W 8435   4.109  10.442  10.967  0.0825  0.1996 -0.0259
 4236W        W 8436   9.888   6.045   3.735  0.1799 -0.0044 -0.2722
 4237W        W 8437   2.313   0.177   4.150  0.1110 -0.1730 -0.0165
 4238W        W 8438  10.042   7.506  12.398  0.0437 -0.0772  0.0443
 4239W        W 8439   8.385   0.665   0.856 -0.0758 -0.1812  0.2825
 4240W        W 8440   1.725   4.008  10.567  0.1459  0.1317 -0.0210
 4241W        W 8441   1.685   3.663   5.285  0.0672  0.0726  0.5435
 4242W        W 8442   9.623   8.767  12.385  0.2063 -0.1293  0.1639
 4243W        W 8443   5.506   3.825  12.722 -0.0966 -0.0447  0.2205
 4244W        W 8444   7.332   0.677   9.399  0.1073 -0.0800  0.1673
 4245W        W 8445   6.997   1.693  11.239  0.0577 -0.0359 -0.2204
 4246W        W 8446   6.130   7.701  12.711  0.1206 -0.2595  0.0026
 4247W        W 8447   5.436   6.071   3.741  0.2048  0.1490  0.0563
 4248W        W 8448   7.457   7.661   0.610  0.3364 -0.0322  0.0418
 4249W        W 8449   1.861   8.070   2.591 -0.2754 -0.3830  0.3437
 4250W        W 8450   7.708   8.918   0.082  0.1089  0.0762  0.0360
 4251W        W 8451   2.615   1.490  11.701 -0.1032 -0.1198 -0.1692
 4252W        W 8452   1.129   1.020   0.541 -0.0502 -0.1427 -0.1038
 4253W        W 8453   3.246   8.532   0.133  0.1149 -0.1602 -0.0109
 4254W        W 8454   5.212   5.555  12.577  0.1806  0.1750 -0.4077
 4255W        W 8455   9.222   8.988  12.704 -0.4508  0.2423  0.0639
 4256W        W 8456   9.069   4.568  10.108  0.0637  0.1041  0.2325
 4257W        W 8457  10.144   1.666  13.300 -0.1383  0.1673 -0.0909
 4258W        W 8458   4.442   1.506   1.477  0.0918  0.1231  0.1509
 4259W        W 8459   0.223   2.133  11.218 -0.2491  0.0085 -0.0606
 4260W        W 8460   7.640   2.323   4.428  0.1113 -0.0021  0.1457
 4261W        W 8461   7.847   6.781   2.913  0.2622  0.1185  0.0761
 4262W        W 8462   0.549   2.930   2.675  0.0358  0.0336  0.0070
 4263W        W 8463   0.458   5.524   2.859 -0.0077  0.2538  0.1273
 4264W        W 8464   2.913   0.985   5.183  0.2571 -0.0113 -0.2650
 4265W        W 8465   7.794   6.679   1.035 -0.2339 -0.1018  0.1734
 4266W        W 8466   7.990   4.251  13.420  0.0975  0.1669 -0.2152
 4267W        W 8467   8.729   2.282   1.670 -0.0563  0.4478 -0.0640
 4268W        W 8468   2.329   3.811   4.650  0.1290 -0.3296  0.1199
 4269W        W 8469   4.701   4.508  11.596  0.2742  0.0011 -0.1324
 4270W        W 8470   7.269   1.760  11.656 -0.1494  0.0894  0.0670
 4271W        W 8471   0.257   5.298   4.236  0.0613  0.1383 -0.4030
 4272W        W 8472   3.052   0.039  10.545  0.2665 -0.1593 -0.1212
 4273W        W 8473   6.028   0.938   2.159  0.0451 -0.1060  0.0367
 4274W        W 8474   2.969   7.295   1.665  0.0319  0.0716  0.2821
 4275W        W 8475   9.476   7.037   1.861  0.2259  0.0858  0.1257
 4276W        W 8476   6.152   4.972  13.184  0.0578 -0.5182 -0.1782
 4277W        W 8477   7.212   1.329  10.462  0.1699  0.3303 -0.2384
 4278W        W 8478   7.576   7.221   9.920 -0.1665 -0.0160  0.4798
 4279W        W 8479   9.886   5.902   2.718 -0.0393 -0.1789  0.0153
 4280W        W 8480   3.781   3.522   2.446 -0.3099  0.2167  0.0690
 4281W        W 8481   2.170   8.931   4.763  0.3127  0.0222 -0.2067
 4282W        W 8482  10.447   3.784   3.515  0.0404  0.0508  0.2099
 4283W        W 8483   5.826   7.182   2.223 -0.0284 -0.1728 -0.1887
 4284W        W 8484   4.947   2.861   4.558  0.3270  0.0537  0.0096
 4285W        W 8485   1.092   9.130  10.992 -0.0810  0.3645 -0.0954
 4286W        W 8486   2.812   5.886   0.478  0.0499  0.0446 -0.0617
 4287W        W 8487   2.198   3.079   1.874 -0.2708  0.2221 -0.0070
 4288W        W 8488   9.751  10.301   0.453  0.1024  0.0885 -0.0753
 4289W        W 8489   6.005   3.438   9.955  0.0616  0.1622  0.1274
 4290W        W 8490   3.591   0.092   3.232 -0.0424 -0.2523 -0.0026
 4291W        W 8491   2.212   7.740   1.216  0.0449  0.1305 -0.0537
 4292W        W 8492   2.432  10.432   1.792  0.0104  0.3175  0.0455
 4293W        W 8493   6.561   2.773  10.339  0.0979 -0.0482  0.2914
 4294W        W 8494   3.602   7.207   3.039  0.0339 -0.1159 -0.0143
 4295W        W 8495   2.327   3.433  13.532 -0.0236  0.0179  0.2840
 4296W        W 8496   2.992   6.661   9.560 -0.3279  0.2022 -0.1960
 4297W        W 8497   8.553   6.661   4.371 -0.0803  0.2352 -0.0086
 4298W        W 8498   1.036   7.449  12.570  0.1435 -0.1866  0.0318
 4299W        W 8499   1.220   5.006   0.840  0.0477  0.2384 -0.2479
 4300W        W 8500   4.452   6.534  10.432 -0.0120  0.0471 -0.2408
 4301W        W 8501   6.570   9.163   3.170  0.2096  0.2355 -0.3102
 4302W        W 8502   9.508   7.246   0.542 -0.1316  0.1921 -0.0639
 4303W        W 8503   2.349   1.180  13.516  0.0059 -0.0912 -0.2530
 4304W        W 8504   1.650   9.424  13.243  0.0321  0.1185 -0.1295
 4305W        W 8505   2.633   5.922  10.894  0.1906 -0.2866  0.1328
 4306W        W 8506   9.256   7.986   9.598 -0.2551  0.0585 -0.0588
 4307W        W 8507   0.182   9.293  12.024 -0.0069  0.2819 -0.1996
 4308W        W 8508   1.205   3.421   2.633 -0.1024  0.1547  0.0492
 4309W        W 8509   2.951   7.963  12.500 -0.2051  0.1195  0.0057
 4310W        W 8510   0.213   6.445   1.519 -0.3387  0.1427  0.2700
 4311W        W 8511   4.014   7.828   1.006  0.2123 -0.0408 -0.1701
 4312W        W 8512   3.003   2.275   0.455 -0.0597 -0.1408 -0.0538
 4313W        W 8513   1.848   6.169   0.536 -0.0810  0.3213 -0.3024
 4314W        W 8514   9.679   4.083   2.994 -0.0146  0.0057  0.1017
 4315W        W 8515   2.409   5.770   0.803 -0.0440  0.2038  0.2168
 4316W        W 8516   5.643   7.637  10.452 -0.4472 -0.1720  0.1568
 4317W        W 8517   9.310   6.329  10.172 -0.1528 -0.2432 -0.1974
 4318W        W 8518   3.281   2.809  13.192  0.1144 -0.0966 -0.0050
 4319W        W 8519   4.004   4.187   3.736 -0.1311 -0.0731 -0.2107
 4320W        W 8520   4.121   0.712   9.124 -0.0721  0.1151  0.1901
 4321W        W 8521   8.951   6.477   0.407 -0.2645  0.0515  0.1462
 4322W        W 8522   3.938   3.618   0.768 -0.0013 -0.3088 -0.4038
 4323W        W 8523   3.831   4.906   3.290 -0.0513  0.0347  0.0835
 4324W        W 8524   7.103   3.958   1.898  0.0616  0.0165 -0.1545
 4325W        W 8525   0.650   4.796   0.262  0.1184 -0.1516 -0.0230
 4326W        W 8526   9.580   0.619   2.208 -0.0564  0.0153 -0.2257
 4327W        W 8527   1.943   2.092   4.847 -0.0392 -0.2338  0.2254
 4328W        W 8528   5.161   2.964  10.362 -0.0738 -0.2115  0.0450
 4329W        W 8529   5.919   2.855  12.903 -0.4090  0.0087  0.0184
 4330W        W 8530   8.627   1.445   3.107 -0.1418  0.0740 -0.1412
 4331W        W 8531   0.950   4.253   1.814 -0.2312  0.1197 -0.4217
 4332W        W 8532   5.270   5.299   1.442 -0.2810  0.0235 -0.2504
 4333W        W 8533   1.881   8.194   0.345 -0.1203  0.0544  0.0165
 4334W        W 8534   7.987   6.773  12.012  0.1399  0.1157 -0.1791
 4335W        W 8535  10.375   6.049   0.789  0.0178 -0.1569  0.1466
 4336W        W 8536   8.666   2.867   0.765  0.1112  0.0483 -0.0104
 4337W        W 8537   4.292   3.733   0.390  0.4477 -0.1823 -0.4713
 4338W        W 8538   0.407   4.059   4.923  0.4529 -0.1590 -0.1595
 4339W        W 8539   5.931   2.560   5.498 -0.0697 -0.0976 -0.0694
 4340W        W 8540   1.557   7.033   2.203 -0.1568  0.4548 -0.1363
 4341W        W 8541   5.808   5.244   9.131 -0.2017  0.2155  0.1216
 4342W        W 8542   4.621   5.037   9.927  0.1893  0.0569  0.0509
 4343W        W 8543   7.123   1.301  13.427  0.2486  0.0992  0.2748
 4344W        W 8544   4.840   8.792   9.722 -0.0643 -0.0058  0.0507
 4345W        W 8545   0.368   8.537   2.432 -0.0196  0.0848  0.0375
 4346W        W 8546   2.484   7.336  11.419  0.1284 -0.3327 -0.0139
 4347W        W 8547   7.489   9.238  10.009 -0.3855  0.4041 -0.2294
 4348W        W 8548   1.224   4.145   2.972  0.0982 -0.0577  0.2453
 4349W        W 8549   1.958  10.264   4.839  0.1459  0.1253  0.0675
 4350W        W 8550   6.535   1.429   0.542 -0.3648 -0.2070  0.3434
 4351W        W 8551   7.131   0.314  11.008  0.2602  0.1781  0.0975
 4352W        W 8552   0.702   7.167   1.731  0.0458  0.0983  0.1200
 4353W        W 8553   5.893   4.830   2.036 -0.2022  0.0877 -0.0245
 4354W        W 8554   5.971   9.637  11.269 -0.0797 -0.1912 -0.3619
 4355W        W 8555   9.315   0.385   1.748 -0.3504  0.0465 -0.1383
 4356W        W 8556  10.094   6.341   1.871  0.2244  0.4564  0.1144
 4357W        W 8557   7.718   2.775   4.608  0.2196 -0.4112 -0.3688
 4358W        W 8558   4.352   5.382  12.751  0.0637 -0.2898  0.0498
 4359W        W 8559   3.191   4.312  12.680 -0.0463 -0.0675 -0.0846
 4360W        W 8560   0.905   7.357  11.238 -0.1728 -0.2212 -0.0219
 4361W        W 8561   5.994  10.044  12.048  0.3131  0.3330  0.0635
 4362W        W 8562   1.488   6.726  11.328 -0.0687  0.2728 -0.2243
 4363W        W 8563   8.185   0.846  12.775 -0.0144  0.1442 -0.2746
 4364W        W 8564   4.422   2.504  10.523  0.0427  0.0147  0.1489
 4365W        W 8565   7.219   7.231   1.886 -0.2872  0.2624 -0.1117
 4366W        W 8566   5.549   1.275   9.551 -0.1615  0.0268  0.1061
 4367W        W 8567  10.009   4.104   8.390 -0.1164  0.0395 -0.0526
 4368W        W 8568   7.735   5.106   4.675 -0.1507  0.1780 -0.2957
 4369W        W 8569   2.051   8.573  10.244  0.0153  0.0991  0.0677
 4370W        W 8570   3.795   3.736  10.413  0.2870  0.1275 -0.2274
 4371W        W 8571   7.115   3.766   2.938  0.2621  0.0551 -0.1551
 4372W        W 8572   4.417   9.983   1.730 -0.1071  0.0756  0.0752
 4373W        W 8573   8.389   7.659   3.346  0.2110  0.1525  0.0889
 4374W        W 8574   9.670   1.804   2.807 -0.2937  0.2460  0.1488
 4375W        W 8575   6.658   2.312   3.755  0.2268  0.3241 -0.0982
 4376W        W 8576   4.375   9.283   2.760  0.0965 -0.0512 -0.0598
 4377W        W 8577   3.466   9.952  11.237  0.2334  0.1260  0.2248
 4378W        W 8578   3.069   2.542   3.576  0.2158  0.2109 -0.1772
 4379W        W 8579   8.224   5.770   3.274 -0.2163  0.0969  0.0407
 4380W        W 8580   9.877   3.264   0.470 -0.2415  0.1184 -0.0647
 4381W        W 8581   5.742   3.537   2.844  0.1203  0.1209  0.1470
 4382W        W 8582   7.698   9.332  12.791  0.2034 -0.2036 -0.2429
 4383W        W 8583   9.051   4.693  12.930  0.0111 -0.3293  0.2925
 4384W        W 8584   9.553   2.906   0.394 -0.0101 -0.2041 -0.0206
 4385W        W 8585   3.352   6.523   3.346  0.0839  0.4382 -0.1638
 4386W        W 8586   0.329   7.918   0.223  0.2289  0.0864 -0.2670
 4387W        W 8587   4.304   8.163   9.434 -0.1460 -0.0656 -0.2134
 4388W        W 8588   5.055   5.828   4.720  0.2698  0.2782 -0.0478
 4389W        W 8589   9.273   2.441   3.380 -0.1652 -0.1513 -0.1589
 4390W        W 8590   8.379   5.470   1.762 -0.0376 -0.1013 -0.2521
 4391W        W 8591   4.152   7.047  10.888  0.1034  0.1380 -0.2334
 4392W        W 8592   4.938   1.111   2.765 -0.0900 -0.0083 -0.1130
 4393W        W 8593   2.885   4.982   3.278  0.0223  0.2345  0.0071
 4394W        W 8594   3.648   3.606   4.227 -0.3966  0.0952  0.2049
 4395W        W 8595   8.872   3.158   2.100 -0.0354  0.3268 -0.2534
 4396W        W 8596   8.318   9.919   9.679 -0.1901  0.3574  0.1503
 4397W        W 8597   0.546   2.647   1.524 -0.0476  0.0173 -0.1451
 4398W        W 8598   4.249   6.777   2.021 -0.0579 -0.1027  0.2705
 4399W        W 8599   7.329   4.866   0.565  0.2794 -0.0345 -0.6481
 4400W        W 8600   9.277   7.946  10.101  0.1232  0.2437 -0.0056
 4401W        W 8601   6.247   7.769   9.528 -0.0989 -0.0620  0.3011
 4402W        W 8602   9.079   4.363   2.986 -0.0589  0.0125  0.0117
 4403W        W 8603  10.144   9.379  11.925 -0.2964 -0.0705  0.2863
 4404W        W 8604   6.811   4.562  10.502 -0.0537  0.3514 -0.0181
 4405W        W 8605   4.747   5.904   9.807 -0.0621 -0.0015  0.2892
 4406W        W 8606   5.764   0.975   2.682  0.0346  0.1847  0.1187
 4407W        W 8607   2.724   4.510  11.078  0.1708  0.1515  0.1083
 4408W        W 8608  10.228   0.683  12.062 -0.1530  0.0307  0.2813
 4409W        W 8609   2.213   9.512   2.470  0.2666  0.1641 -0.0970
 4410W        W 8610   3.791   3.290   3.028  0.3353 -0.2667 -0.1749
 4411W        W 8611   1.917   9.082   9.961 -0.1364 -0.1561  0.0692
 4412W        W 8612   3.125   0.919   1.293 -0.0472 -0.1214  0.1533
 4413W        W 8613   0.357  10.083   0.084  0.0968 -0.1118 -0.1906
 4414W        W 8614   3.124   1.711  13.448  0.2852  0.0411  0.1774
 4415W        W 8615   0.275   3.257   3.089 -0.1876 -0.0469  0.1792
 4416W        W 8616   4.986   6.067  12.712  0.1608 -0.1044 -0.2801
 4417W        W 8617   3.890   0.555   4.858 -0.2820 -0.2476  0.2991
 4418W        W 8618   7.821   5.110   0.575 -0.2481 -0.0430  0.2355
 4419W        W 8619   3.911   6.968  13.452  0.1533  0.0576  0.4308
 4420W        W 8620   1.768   0.702   1.190 -0.1914  0.0965  0.0906
 4421W        W 8621   4.240   4.042   0.820  0.3014 -0.0279 -0.0033
 4422W        W 8622   5.764   2.656  13.356  0.0619  0.2065 -0.1212
 4423W        W 8623   1.683   5.775  11.846 -0.0158 -0.1477 -0.1010
 4424W        W 8624   2.902   1.067   9.668 -0.1142  0.0989 -0.0887
 4425W        W 8625   4.895   6.746   3.609  0.1283 -0.0907  0.0988
 4426W        W 8626   9.858   4.017   9.858 -0.1473  0.1925 -0.0290
 4427W        W 8627   3.059   6.205  11.544 -0.0661 -0.1354 -0.1197
 4428W        W 8628   9.225   1.994  13.285  0.1493 -0.0738 -0.2382
 4429W        W 8629   9.520   0.786   9.908 -0.4394 -0.0507  0.1828
 4430W        W 8630   8.590   1.103  12.108  0.0461  0.1496  0.2226
 4431W        W 8631   0.039   3.590  13.143  0.0054 -0.1145  0.1406
 4432W        W 8632  10.182   3.026   2.959 -0.1103 -0.0039  0.0003
 4433W        W 8633   8.642   8.372  13.454 -0.1032 -0.0925 -0.2145
 4434W        W 8634   6.143   8.729   0.251  0.0252  0.1851  0.1286
 4435W        W 8635   9.840   0.411  11.800  0.0217  0.1973  0.0364
 4436W        W 8636   5.471   2.869   1.266 -0.2586 -0.0533 -0.2095
 4437W        W 8637   3.525   0.031   2.735  0.2855 -0.3091  0.0199
 4438W        W 8638   7.969   8.047   2.092 -0.0650 -0.0008  0.0035
 4439W        W 8639   6.408   8.201   3.534 -0.0581  0.2260  0.1420
 4440W        W 8640   7.807   1.885   3.273  0.1724  0.1415  0.0838
 4441W        W 8641   0.925   1.597   0.610 -0.0842 -0.1226 -0.1894
 4442W        W 8642   2.363   9.635   0.480  0.3702  0.1280 -0.3174
 4443W        W 8643   7.216   7.735   2.051  0.0186  0.0779 -0.1055
 4444W        W 8644   5.540   7.133   1.087  0.0535  0.1067 -0.3597
 4445W        W 8645   3.589  10.270  13.172  0.1261  0.0513  0.0630
 4446W        W 8646   2.180   2.647   4.215 -0.3484  0.0600 -0.4317
 4447W        W 8647   6.988   8.385   9.329  0.2531  0.0632  0.0840
 4448W        W 8648   0.379   5.206   0.141 -0.2130 -0.0939 -0.1733
 4449W        W 8649  10.313   6.769   2.564 -0.1430  0.1649  0.0212
 4450W        W 8650   8.184   9.479  12.036 -0.0021  0.4943  0.1780
 4451W        W 8651   4.075   6.125   2.304 -0.0487  0.0653 -0.0503
 4452W        W 8652   4.564   3.596  11.630  0.2824  0.1179  0.2572
 4453W        W 8653   7.448   9.564   0.150  0.0977 -0.0266  0.4595
 4454W        W 8654   6.527   6.087   3.314  0.0586 -0.0156 -0.2439
 4455W        W 8655   3.376   5.466   8.835 -0.0383 -0.0070 -0.0455
 4456W        W 8656   8.694   4.139   4.414 -0.2176  0.1108  0.1686
 4457W        W 8657   4.915   2.553   9.476 -0.0294  0.3346  0.3702
 4458W        W 8658   9.191   5.485   4.203 -0.1341  0.2116  0.2469
 4459W        W 8659   9.897   7.575   0.530 -0.1268 -0.0302 -0.1676
 4460W        W 8660   1.921  10.095  12.461  0.0527  0.0784  0.3031
 4461W        W 8661   2.446   6.247   1.324 -0.1562 -0.4037 -0.2747
 4462W        W 8662   0.244   0.058   0.940  0.0679 -0.0014  0.1809
 4463W        W 8663   1.594   6.985  11.755 -0.0264 -0.0267  0.1705
 4464W        W 8664   2.982   9.087  11.240  0.2677  0.2564  0.1977
 4465W        W 8665   5.946   5.860   2.385 -0.0359  0.0829 -0.2373
 4466W        W 8666   2.362   5.180  13.495  0.0171 -0.0454  0.0509
 4467W        W 8667   0.751   3.324   2.422 -0.0836 -0.0906  0.1875
 4468W        W 8668   1.650   2.514  13.241  0.1083  0.2943  0.2195
 4469W        W 8669   5.047   4.176  11.667 -0.0034 -0.0397 -0.1192
 4470W        W 8670   8.826   1.414  12.639 -0.3313  0.0585 -0.1636
 4471W        W 8671   9.832  10.396   9.586  0.0054  0.0803 -0.2243
 4472W        W 8672   0.260   6.584   0.144 -0.3836 -0.2761 -0.4148
 4473W        W 8673   5.308   0.302  12.269 -0.1049 -0.1737 -0.1332
 4474W        W 8674   8.779   8.773  11.677  0.1456  0.0954 -0.0495
 4475W        W 8675   3.350   9.818   4.992 -0.1324 -0.2040  0.4449
 4476W        W 8676   3.643   7.920   1.723 -0.1520 -0.0538 -0.1777
 4477W        W 8677   9.878   4.829   1.133  0.1089  0.0997  0.0477
 4478W        W 8678   6.122  10.138   1.858  0.1806 -0.2285 -0.0487
 4479W        W 8679   6.606   4.089   5.499 -0.1790  0.2795  0.2516
 4480W        W 8680   7.297   5.139   9.285  0.3482 -0.2021  0.0660
 4481W        W 8681   6.321   2.510  10.649  0.0358 -0.0872  0.3358
 4482W        W 8682   4.878   2.634  11.224 -0.2695 -0.1895 -0.1318
 4483W        W 8683   3.658   6.045  10.570 -0.3891 -0.0394 -0.2040
 4484W        W 8684   6.881   3.136  10.320  0.1300 -0.0505  0.1351
 4485W        W 8685   0.837   3.464   1.608  0.0588 -0.2627 -0.1707
 4486W        W 8686   3.990   2.122  11.502  0.0753 -0.0020  0.0600
 4487W        W 8687   1.155   0.290  11.588 -0.5638  0.2752  0.1871
 4488W        W 8688   1.079   5.861  12.415  0.1839 -0.2119  0.0803
 4489W        W 8689   3.051   0.423   1.542 -0.1320 -0.2790 -0.2902
 4490W        W 8690   2.755   9.415  10.274  0.0586  0.2516 -0.1356
 4491W        W 8691   2.277   4.429  12.819 -0.1280 -0.0146  0.0521
 4492W        W 8692   7.480   1.672   4.480  0.3440 -0.1425 -0.1110
 4493W        W 8693   5.510   3.893   3.832 -0.0890 -0.2368 -0.1346
 4494W        W 8694   8.581   7.066   2.131  0.6359  0.0229 -0.0072
 4495W        W 8695   1.737   8.262  12.547 -0.2677 -0.1237 -0.0310
 4496W        W 8696   8.022   4.096   9.819  0.2020 -0.2377 -0.2783
 4497W        W 8697   7.847   7.593  13.077 -0.0417 -0.1916  0.4550
 4498W        W 8698   3.278   6.428   9.226 -0.3230 -0.1246 -0.0545
 4499W        W 8699  10.344   5.835   3.596 -0.6098 -0.2511 -0.0368
 4500W        W 8700   1.438   4.462  12.802  0.3137 -0.1048 -0.1755
 4501W        W 8701   7.652   3.010   2.823  0.3131 -0.2011 -0.0374
 4502W        W 8702   1.415   1.790   0.210  0.0251  0.1424  0.0429
 4503W        W 8703   5.872   1.523  11.127  0.2613  0.1179  0.2255
 4504W        W 8704   0.198   8.899  10.294 -0.0838  0.1732 -0.1215
 4505W        W 8705   3.795   6.613   5.375 -0.1049 -0.1412 -0.0842
 4506W        W 8706   0.424   5.516  12.797  0.1269  0.1518  0.0462
 4507W        W 8707   5.129   3.889   9.579  0.1690  0.1032 -0.1218
 4508W        W 8708   7.001   2.997   3.423  0.2791 -0.3704  0.0866
 4509W        W 8709   4.991   9.059   4.588  0.2158  0.1643  0.0666
 4510W        W 8710   7.482   0.433   0.752  0.0262 -0.3543  0.0013
 4511W        W 8711   0.600   7.537   3.459  0.2649  0.0863 -0.1950
 4512W        W 8712   5.987   0.601   1.263  0.2184  0.0799  0.2021
 4513W        W 8713   8.618   0.937  12.568 -0.2133 -0.0253 -0.3962
 4514W        W 8714   3.397   6.296   4.537  0.1883 -0.2737  0.2317
 4515W        W 8715   0.136   1.498   4.537 -0.0152 -0.0059 -0.1142
 4516W        W 8716   6.586   2.271  10.159 -0.1005  0.1808 -0.0916
 4517W        W 8717   9.641   6.579  10.788  0.1414  0.3171 -0.1214
 4518W        W 8718   8.734   0.006  10.535  0.0999  0.3804 -0.1206
 4519W        W 8719   6.379  10.252  12.918 -0.2493  0.3223  0.2250
 4520W        W 8720   1.664   7.769   0.173 -0.2925 -0.1815  0.3233
 4521W        W 8721   6.636   4.274   3.135  0.1618 -0.1414 -0.1775
 4522W        W 8722   1.055   9.046  12.882  0.3645 -0.2998  0.0170
 4523W        W 8723   4.483   1.299   3.963  0.3369 -0.2264  0.1223
 4524W        W 8724   4.726   6.797  12.792 -0.2411 -0.0226 -0.0452
 4525W        W 8725   9.661   5.825   0.037 -0.1267  0.1422 -0.0856
 4526W        W 8726   6.266   4.031  11.131  0.4530  0.0391  0.2013
 4527W        W 8727   9.341   7.328   0.989  0.1288  0.1234  0.1506
 4528W        W 8728   6.834   9.816  11.862 -0.3696  0.1655  0.0581
 4529W        W 8729   8.964   4.116   9.936  0.0910 -0.1000  0.0974
 4530W        W 8730   7.854   1.542   1.447 -0.0766 -0.0382  0.1018
 4531W        W 8731   3.638   3.194  13.203 -0.0027 -0.1428 -0.0794
 4532W        W 8732   8.058   6.734   0.596 -0.0722 -0.0431  0.0134
 4533W        W 8733   3.036   3.064  11.428 -0.0577  0.0795  0.1116
 4534W        W 8734   1.053   7.640  10.811 -0.0678  0.0755 -0.1063
 4535W        W 8735  10.006   4.880  11.772 -0.1798 -0.2108 -0.0901
 4536W        W 8736   7.037   5.924  11.610 -0.1406 -0.4717  0.2022
 4537W        W 8737   0.319   7.951   3.106  0.5169  0.2840  0.2288
 4538W        W 8738   3.977   6.454   3.225 -0.0803  0.0059 -0.2112
 4539W        W 8739   7.334   6.447   8.674  0.0160  0.3348  0.0800
 4540W        W 8740   9.753   6.102  10.230  0.1796  0.0851 -0.2774
 4541W        W 8741   7.364   4.641  11.698  0.0456 -0.1644 -0.0171
 4542W        W 8742  10.087   2.714  12.864 -0.1772  0.0847 -0.0726
 4543W        W 8743   2.807   9.630   5.022  0.0354 -0.2272  0.3090
 4544W        W 8744   0.684   9.055  10.232  0.0520 -0.1013  0.1681
 4545W        W 8745   3.292   6.088   1.240 -0.0953  0.0165 -0.2680
 4546W        W 8746   7.673   4.166   2.186  0.3040 -0.1489  0.0996
 4547W        W 8747   2.192  10.384  12.018 -0.0337 -0.3721 -0.0928
 4548W        W 8748   6.790   7.418   1.831  0.0155  0.0596 -0.0655
 4549W        W 8749   8.389   2.131  12.332  0.1353 -0.0928  0.0530
 4550W        W 8750   7.891   9.508   2.230  0.3798 -0.2027  0.0597
 4551W        W 8751   0.273   6.130   9.656 -0.2042  0.4402  0.3612
 4552W        W 8752   6.864   0.594  12.486  0.3812  0.1466  0.0910
 4553W        W 8753   0.392   7.299  11.192  0.1056 -0.0453 -0.1301
 4554W        W 8754   9.838   8.610   0.839 -0.0491 -0.1782 -0.3895
 4555W        W 8755   6.762   7.049  12.823 -0.0308 -0.2681  0.2759
 4556W        W 8756   1.197   9.234  13.432 -0.2971  0.2031 -0.3119
 4557W        W 8757   4.906   7.105  11.489 -0.0098 -0.0224 -0.1497
 4558W        W 8758   5.653   9.558  12.752 -0.2331 -0.0240  0.0366
 4559W        W 8759   0.422   2.808   0.105 -0.0448  0.1635  0.0498
 4560W        W 8760   0.121   8.136  13.350  0.0395 -0.1103 -0.1083
 4561W        W 8761   3.406   3.817   2.114  0.0789  0.0502  0.0595
 4562W        W 8762   7.510   5.213  10.868 -0.0546  0.0144  0.1331
 4563W        W 8763   1.068   2.330  11.868 -0.1559 -0.0958 -0.1120
 4564W        W 8764   9.934   9.589   1.636 -0.0345 -0.0508  0.3723
 4565W        W 8765  10.334   1.432  10.987  0.1407 -0.0611 -0.1388
 4566W        W 8766   3.126   8.680   8.713  0.2648  0.1842  0.3478
 4567W        W 8767   1.894   7.633  10.180  0.1150 -0.1731  0.1431
 4568W        W 8768   7.600   9.506  11.497  0.2043 -0.0683  0.1638
 4569W        W 8769   5.309   7.600   4.247  0.0382 -0.0934 -0.1206
 4570W        W 8770   6.138   2.826  10.924 -0.4642  0.0061 -0.2389
 4571W        W 8771   8.424   8.693  13.055 -0.0254 -0.1208  0.0667
 4572W        W 8772   2.365   6.263   4.384 -0.3686 -0.0746 -0.4106
 4573W        W 8773  10.056   5.963  12.112  0.2413  0.1660  0.0290
 4574W        W 8774   0.262   4.992  12.680  0.0524  0.0975 -0.0248
 4575W        W 8775   2.215   9.615   4.338 -0.2273 -0.0995 -0.1077
 4576W        W 8776   2.736   6.548  11.463 -0.2742  0.1911 -0.0178
 4577W        W 8777   0.292   9.450  10.216 -0.1011  0.0810  0.1316
 4578W        W 8778   1.403   0.291   4.400  0.4210 -0.2880 -0.0552
 4579W        W 8779   1.248   2.029   1.979 -0.2353 -0.3088 -0.0268
 4580W        W 8780   2.197   2.142   2.252  0.0081  0.0223  0.0741
 4581W        W 8781   7.351   5.356  12.290  0.1434  0.0835  0.0391
 4582W        W 8782   0.246   3.234  13.462  0.1845  0.0183  0.2306
 4583W        W 8783   6.959   2.385  11.957  0.2531 -0.0793  0.2919
 4584W        W 8784   6.148   1.082   3.611  0.0771 -0.0839 -0.2667
 4585W        W 8785   1.009   3.171  12.960 -0.2436  0.2253  0.0067
 4586W        W 8786   5.363   5.245  11.617 -0.1366  0.0572  0.1806
 4587W        W 8787   0.279   1.442   9.190 -0.1324 -0.2038  0.1119
 4588W        W 8788   8.470   3.488   2.070  0.0967 -0.0547 -0.2287
 4589W        W 8789   8.694   6.928  12.034  0.3912 -0.0264 -0.0193
 4590W        W 8790   5.552   7.530   3.453 -0.0310 -0.0279  0.0811
 4591W        W 8791   1.759   9.524   0.243  0.0824 -0.2935 -0.2042
 4592W        W 8792   1.267   8.674  11.238  0.0530 -0.1633  0.0361
 4593W        W 8793   3.868   1.437  12.723  0.0105 -0.0550  0.2219
 4594W        W 8794   8.068   1.656   9.287 -0.1297  0.0452 -0.0687
 4595W        W 8795   9.224   6.900  10.142  0.0336 -0.0604 -0.3438
 4596W        W 8796   3.977   0.986   1.297 -0.0643  0.0318 -0.0935
 4597W        W 8797   2.150   7.587   2.659 -0.0711 -0.0104 -0.2786
 4598W        W 8798   2.426   5.175   1.202  0.4405 -0.4319 -0.0279
 4599W        W 8799   8.408   0.498  12.492  0.0752  0.1744  0.0732
 4600W        W 8800   7.193   2.694   2.679  0.2264 -0.0587  0.0241
 4601W        W 8801   9.814   6.271  11.202 -0.1949  0.4872  0.0795
 4602W        W 8802   4.251   1.830  13.207  0.1344  0.1655  0.2587
 4603W        W 8803  10.167   2.319   0.970  0.0970  0.2415 -0.2444
 4604W        W 8804   4.460   0.018  10.638 -0.0268 -0.0478 -0.1080
 4605W        W 8805   1.733   8.627   1.745  0.1179 -0.3373  0.1430
 4606W        W 8806   3.878   1.882   2.504 -0.3875 -0.0614  0.0952
 4607W        W 8807   5.572   1.969  12.816  0.1806 -0.2915 -0.1834
 4608W        W 8808   0.621   7.065   8.383  0.1509  0.0163 -0.1663
 4609W        W 8809   2.588   7.239  12.324  0.2511  0.0627 -0.0988
 4610W        W 8810   5.017   3.757  11.392 -0.0848  0.0525 -0.3508
 4611W        W 8811   7.332   4.412   1.896 -0.0734  0.3369  0.0094
 4612W        W 8812   1.750   4.417   1.143  0.2329 -0.2390  0.2143
 4613W        W 8813   5.422   7.624   9.188 -0.1047  0.0951 -0.0297
 4614W        W 8814   2.491   9.327   3.323 -0.1958 -0.0042  0.0227
 4615W        W 8815   7.860   7.976   0.475  0.1024 -0.1282 -0.0455
 4616W        W 8816   2.381   0.606  10.654  0.1160  0.0425 -0.1875
 4617W        W 8817   0.066   2.370   4.153  0.0936  0.2582 -0.0572
 4618W        W 8818   4.385   2.970   4.583 -0.2924 -0.0645  0.2147
 4619W        W 8819   7.812   2.364  12.085 -0.0159  0.1448 -0.1088
 4620W        W 8820   4.868   5.555   1.105 -0.0946  0.0850 -0.0408
 4621W        W 8821   3.672   6.188   8.297  0.2388  0.3850  0.0895
 4622W        W 8822   6.756   4.427   9.931 -0.4849  0.2352  0.1338
 4623W        W 8823   0.275   2.266   9.371  0.2743 -0.0936 -0.0417
 4624W        W 8824   0.221   9.478   1.361  0.1807 -0.2817 -0.1938
 4625W        W 8825  10.273   4.815   3.307 -0.1631  0.3130  0.0752
 4626W        W 8826   8.712   9.137  10.511  0.1472 -0.0383  0.1891
 4627W        W 8827   6.320   5.528   0.455 -0.0255 -0.2234 -0.0081
 4628W        W 8828   1.728   6.207   5.372 -0.1511 -0.1085 -0.0311
 4629W        W 8829   4.783   3.984   0.368 -0.1607  0.2462  0.1600
 4630W        W 8830   3.513   4.408  11.620 -0.1258 -0.1688 -0.3460
 4631W        W 8831   8.846   3.772  10.895  0.0740  0.0352  0.2482
 4632W        W 8832   4.217   3.192  10.062 -0.0256 -0.1376 -0.0751
 4633W        W 8833   4.871   0.882   9.177  0.3061 -0.1718 -0.1476
 4634W        W 8834   0.783   4.734   2.494 -0.1240  0.0555 -0.0243
 4635W        W 8835   5.230   9.542  10.871 -0.0913 -0.2118  0.1568
 4636W        W 8836   0.476   0.102  10.996 -0.1103  0.1834  0.0928
 4637W        W 8837   9.730   7.083   3.171  0.0216  0.1001 -0.1088
 4638W        W 8838   1.623   1.135   0.994  0.1168 -0.1434  0.0608
 4639W        W 8839   2.967  10.375   2.819  0.2742 -0.0628  0.0330
 4640W        W 8840   7.824   2.520  11.037 -0.0548 -0.2710  0.3196
 4641W        W 8841   3.302   1.672   2.034 -0.0570  0.1648 -0.0055
 4642W        W 8842   5.145   0.317   1.230  0.0912  0.2938  0.0886
 4643W        W 8843   6.874   3.045   0.273  0.1576 -0.0824  0.0401
 4644W        W 8844   2.935   0.218  12.294  0.0192  0.0849 -0.0957
 4645W        W 8845   7.494   0.567   9.905 -0.2783 -0.1292 -0.0563
 4646W        W 8846   4.153   2.654   3.671 -0.0073  0.0408 -0.0084
 4647W        W 8847   0.879   6.811  11.887  0.0012  0.2646  0.0327
 4648W        W 8848   5.962   5.738   9.136  0.2530  0.5887 -0.0651
 4649W        W 8849   9.606   9.910   9.348  0.0488  0.4994 -0.4245
 4650W        W 8850   5.391   9.235  10.368  0.1850  0.0481 -0.1200
 4651W        W 8851   4.811   7.138   8.889  0.0978  0.0372 -0.0183
 4652W        W 8852   0.073   7.220  12.397  0.1804  0.1731 -0.1529
 4653W        W 8853   8.497   3.197   8.197 -0.0835 -0.5314  0.0535
 4654W        W 8854  10.395  10.081  10.587  0.0889  0.2961  0.1619
 4655W        W 8855   1.874   3.913   1.377 -0.3733 -0.0283  0.2622
 4656W        W 8856   8.826   1.156   0.151  0.3673 -0.1196  0.4386
 4657W        W 8857   5.651   5.253   0.701 -0.0230  0.0186  0.0334
 4658W        W 8858   1.186   5.629  13.387  0.1013 -0.0772  0.0496
 4659W        W 8859   3.970   8.257   8.792  0.3083 -0.0922  0.0337
 4660W        W 8860   7.888   7.644   0.880 -0.1281  0.0493 -0.2144
 4661W        W 8861   1.160   9.992  11.999  0.1823 -0.1064  0.2040
 4662W        W 8862   6.680   9.835   1.353  0.1053 -0.0428 -0.0933
 4663W        W 8863  10.020   8.311  13.374  0.5507  0.1469  0.4527
 4664W        W 8864   4.442   8.756  12.727  0.0320  0.2690 -0.1805
 4665W        W 8865   6.313   8.700   0.704 -0.0985  0.2552  0.2244
 4666W        W 8866   9.480   7.246  13.095 -0.5474 -0.0195 -0.5353
 4667W        W 8867  10.145   5.121  11.030 -0.1227 -0.2576 -0.2221
 4668W        W 8868   2.423   6.921   3.156  0.3028 -0.2220 -0.3548
 4669W        W 8869   6.311   0.540  11.454  0.1267  0.1579  0.0044
 4670W        W 8870   9.061   5.592   4.645 -0.0736 -0.1047  0.1466
 4671W        W 8871   8.762  10.142  12.234 -0.1527 -0.1265  0.0170
 4672W        W 8872   9.961   7.542  13.419 -0.0272  0.0350 -0.3335
 4673W        W 8873   0.408   9.968   2.081 -0.0628 -0.0755 -0.1130
 4674W        W 8874   5.898   3.969   4.308 -0.0067 -0.1330  0.0892
 4675W        W 8875   3.285   8.134  11.334 -0.2194 -0.1352 -0.0633
 4676W        W 8876   9.088   0.539  10.132 -0.2273 -0.1757  0.3105
 4677W        W 8877   2.470   1.352   0.511  0.1444 -0.2323  0.1785
 4678W        W 8878   9.475   5.155   2.959  0.0627 -0.1789 -0.0433
 4679W        W 8879   8.510   3.616   0.694  0.3068  0.0290  0.0438
 4680W        W 8880   9.194   6.083  11.859  0.2728  0.2986 -0.0238
 4681W        W 8881   8.528   5.048   1.565  0.3313 -0.0301 -0.1357
 4682W        W 8882   3.850   7.727  12.286  0.0837  0.1616 -0.2836
 4683W        W 8883   0.632   4.256   3.272  0.0485 -0.1586  0.2590
 4684W        W 8884   3.687   9.321  10.447 -0.1054  0.1618 -0.0175
 4685W        W 8885   0.675   4.541   4.695 -0.0239 -0.2867 -0.2496
 4686W        W 8886   3.065   2.143   1.391 -0.2120  0.0633 -0.0360
 4687W        W 8887   2.360   9.143   2.189  0.0101  0.2035 -0.1972
 4688W        W 8888   0.700   8.238   3.403 -0.0421  0.2900  0.1369
 4689W        W 8889   6.351   1.781   9.850  0.2192  0.0826  0.0903
 4690W        W 8890   1.604   6.195  12.293 -0.0232  0.1686 -0.0477
 4691W        W 8891   1.992   6.883   4.086 -0.0279  0.1590  0.3419
 4692W        W 8892   8.699   6.251  10.837  0.1093 -0.0875  0.0607
 4693W        W 8893   3.473   8.919   1.761  0.0824  0.2779  0.0400
 4694W        W 8894   4.703  10.448   1.224 -0.0414 -0.2395  0.2580
 4695W        W 8895   3.703   1.673  11.309  0.0276  0.1495 -0.0402
 4696W        W 8896   2.995   5.120   9.532  0.1108  0.2671  0.1682
 4697W        W 8897   7.760   4.318   4.138  0.4683  0.0972 -0.4228
 4698W        W 8898   0.522   9.373   0.994 -0.1152 -0.0432 -0.0226
 4699W        W 8899   9.224   7.663  11.408  0.0945  0.0669 -0.0077
 4700W        W 8900   8.738   7.784   0.277 -0.0769 -0.3768 -0.2767
 4701W        W 8901   6.451   4.925   1.206 -0.1503  0.0231 -0.0731
 4702W        W 8902   3.923   0.159   5.772  0.2690  0.1913 -0.0854
 4703W        W 8903   6.469   2.650   9.724 -0.1525 -0.0933 -0.1765
 4704W        W 8904   7.531   0.676   0.006  0.0255  0.1029  0.1458
 4705W        W 8905   7.399   6.769  12.772  0.0077 -0.0092  0.0598
 4706W        W 8906   0.721   8.724   1.276 -0.0445  0.0682 -0.2227
 4707W        W 8907   7.367   0.170   2.077  0.2484 -0.1207 -0.2017
 4708W        W 8908   6.819   4.210   8.926 -0.3550  0.1184  0.2318
 4709W        W 8909   6.869   1.449   4.259 -0.1498 -0.2568  0.1734
 4710W        W 8910   8.658   1.556   3.686  0.0834 -0.2843  0.1055
 4711W        W 8911   8.025   1.659  10.225  0.1280  0.0779 -0.0984
 4712W        W 8912   2.521   3.467   3.053  0.1295 -0.0902 -0.3010
 4713W        W 8913   0.582   6.513   1.919  0.1008  0.1161 -0.0881
 4714W        W 8914   1.037   8.978  11.739  0.1629  0.0656  0.0818
 4715W        W 8915  10.245   5.885   9.725 -0.3353  0.0166 -0.1607
 4716W        W 8916   0.111   5.635   2.044 -0.0672 -0.0580 -0.2938
 4717W        W 8917   4.731   7.770  11.985  0.0576  0.0421 -0.0387
 4718W        W 8918   7.292   6.421   2.290  0.1638  0.1454  0.2627
 4719W        W 8919   2.421   8.105  12.534 -0.1392  0.1471 -0.1298
 4720W        W 8920   5.558   8.284  12.219  0.1276  0.0716  0.0985
 4721W        W 8921   5.856   9.945   4.580 -0.0603  0.2817 -0.2091
 4722W        W 8922   3.986   8.194   4.583 -0.1997  0.1901 -0.2423
 4723W        W 8923   7.079   0.169  12.360  0.0039  0.2025  0.2556
 4724W        W 8924   5.601   3.553   8.897 -0.2171 -0.1328 -0.1856
 4725W        W 8925   9.892  10.089  12.780 -0.1598  0.2721  0.0145
 4726W        W 8926   1.135  10.445  12.885  0.1463 -0.2301 -0.1089
 4727W        W 8927   1.983   5.616   4.947  0.0293  0.1604 -0.0051
 4728W        W 8928   6.822   7.929   3.105 -0.3456  0.2260  0.0043
 4729W        W 8929   0.517   1.662  11.920  0.1384 -0.0353 -0.3203
 4730W        W 8930   6.191   8.688   9.749 -0.0445 -0.1205 -0.0650
 4731W        W 8931   1.388  10.287   2.842  0.1552  0.0263  0.2368
 4732W        W 8932   8.095   7.127   2.030 -0.3219  0.1158 -0.5599
 4733W        W 8933   3.021   0.475  11.399  0.2158 -0.1403  0.0186
 4734W        W 8934   3.753   7.803  10.655 -0.2819  0.2875  0.1478
 4735W        W 8935   9.505   1.775  12.968 -0.0589  0.0147 -0.2291
 4736W        W 8936   6.574   0.984  11.226  0.1829 -0.2884  0.3853
 4737W        W 8937   9.853   0.043   1.126  0.0647  0.2234  0.1043
 4738W        W 8938   0.106   7.232   2.352 -0.0938  0.2798 -0.1731
 4739W        W 8939   9.093   5.010   4.537 -0.1874 -0.0993  0.0223
 4740W        W 8940   3.322   8.051   9.447  0.0726 -0.1261  0.0253
 4741W        W 8941   8.209   4.527   9.100 -0.0803 -0.3487  0.4691
 4742W        W 8942   5.040   3.729   0.001 -0.0266  0.1968  0.0728
 4743W        W 8943   2.422   9.952   1.899  0.3275  0.2222 -0.0243
 4744W        W 8944   1.512   8.583   3.176 -0.0647  0.0988  0.0960
 4745W        W 8945   8.355   6.864  12.439  0.1192 -0.0822  0.0301
 4746W        W 8946   9.428   3.438   0.863  0.2934 -0.0791 -0.0885
 4747W        W 8947   0.952   5.795  11.656  0.4500  0.0011  0.1500
 4748W        W 8948   1.205   4.629  11.716 -0.0812 -0.2565 -0.0903
 4749W        W 8949  10.065   4.447  10.186  0.0704 -0.0136  0.2853
 4750W        W 8950   2.099   9.944   1.530 -0.2867 -0.0855  0.2244
 4751W        W 8951   8.891   6.188  11.346  0.4438 -0.0312  0.1701
 4752W        W 8952   5.062   4.856  10.676  0.3798  0.0673 -0.1605
 4753W        W 8953   9.838   5.395  13.297 -0.2792  0.0270  0.0788
 4754W        W 8954   8.905   2.025  11.041  0.4504  0.2843  0.1179
 4755W        W 8955   9.129   1.051  12.398 -0.0825 -0.1357  0.0352
 4756W        W 8956  10.261   8.615  13.089  0.1172 -0.0450 -0.0505
 4757W        W 8957   6.410   0.824  12.874  0.0360  0.1749 -0.0696
 4758W        W 8958   0.632   9.533   2.257  0.2524  0.3528  0.2094
 4759W        W 8959   4.066   2.057   2.991  0.0496 -0.1046 -0.2196
 4760W        W 8960   4.437   8.136   3.855  0.0633  0.0447  0.2024
 4761W        W 8961   9.134  10.077   1.350  0.0374  0.0657  0.0633
 4762W        W 8962   3.625  10.069   4.621  0.2644  0.0936 -0.2129
 4763W        W 8963   0.673   7.882   4.263 -0.1942 -0.0765 -0.0338
 4764W        W 8964   1.895   8.991  13.199  0.1431 -0.0233 -0.0139
 4765W        W 8965   0.686   0.680   1.445  0.0682 -0.3017 -0.3154
 4766W        W 8966   2.056   8.435   9.734 -0.0861  0.1698  0.1300
 4767W        W 8967   2.167   4.717   0.999 -0.0133 -0.2433 -0.1859
 4768W        W 8968  10.037   7.605   3.695  0.2248 -0.2304  0.1156
 4769W        W 8969   0.665   9.190   1.455 -0.0775 -0.0620  0.0276
 4770W        W 8970   7.881   4.935   3.124  0.2052  0.0471 -0.0599
 4771W        W 8971   5.737   1.367   2.027  0.1182  0.2877  0.4913
 4772W        W 8972   7.978   5.316  11.659  0.2442 -0.0770  0.0151
 4773W        W 8973   3.540  10.200   0.218  0.1272 -0.0194  0.1397
 4774W        W 8974   4.449   7.513   9.187 -0.2964  0.0568 -0.3178
 4775W        W 8975   8.940   3.556   1.814  0.0873 -0.1432 -0.1067
 4776W        W 8976   6.493   8.219   0.952  0.0159 -0.0101 -0.1285
 4777W        W 8977   6.132   9.957  10.689  0.0688  0.1271 -0.4907
 4778W        W 8978   6.031   6.703   1.887  0.0812  0.2609  0.1118
 4779W        W 8979   1.375   2.768  10.132 -0.1763 -0.1740  0.3584
 4780W        W 8980   0.412  10.253  12.331 -0.1092 -0.1196  0.1632
 4781W        W 8981   9.282   7.516  10.407  0.1337  0.0611 -0.3509
 4782W        W 8982   3.503   8.039   1.193  0.0135  0.2996 -0.1821
 4783W        W 8983   4.607   4.274   1.757  0.1173  0.2065  0.1667
 4784W        W 8984   4.186   6.161   0.274 -0.1197 -0.3233  0.1341
 4785W        W 8985   1.157   5.498  10.081  0.0213  0.2035 -0.0135
 4786W        W 8986   9.403   4.337  10.369 -0.0595 -0.1263  0.0115
 4787W        W 8987   3.556   1.967  13.416  0.1829 -0.1772  0.2420
 4788W        W 8988   8.127   2.213  10.112  0.0842  0.1976 -0.0261
 4789W        W 8989  10.079   0.836   4.413  0.0735  0.1003  0.1622
 4790W        W 8990   8.538   8.402   0.907 -0.0206  0.0677 -0.0589
 4791W        W 8991   9.380   5.985  10.728  0.2497 -0.1731 -0.2273
 4792W        W 8992   6.732   2.437   2.510  0.1602 -0.0404 -0.1948
 4793W        W 8993  10.439   4.351   4.175 -0.0526  0.1077  0.1711
 4794W        W 8994   1.781   0.695  12.048 -0.3764 -0.2987  0.2483
 4795W        W 8995   7.161   0.345   2.569 -0.0202 -0.2859 -0.1160
 4796W        W 8996   5.722   0.821  10.404  0.0826  0.3864  0.0843
 4797W        W 8997   9.182   5.933   2.533  0.0524 -0.3052 -0.0817
 4798W        W 8998   2.949  10.421   0.276 -0.2655  0.2515  0.1659
 4799W        W 8999   3.661   2.082   1.162 -0.0280  0.0566  0.3428
 4800W        W 9000   9.850  10.047  10.532  0.2429  0.0669  0.1623
 4801W        W 9001   7.681   7.551   0.152  0.0221  0.0922  0.3642
 4802W        W 9002   8.449   0.827   2.372  0.5658 -0.0922 -0.1154
 4803W        W 9003   8.353  10.341   3.727 -0.0460  0.0042 -0.2282
 4804W        W 9004   9.504   3.946  13.036 -0.0456 -0.1269 -0.2125
 4805W        W 9005   3.664   9.835   0.628 -0.4610 -0.0191 -0.0109
 4806W        W 9006   1.909   1.420  11.982 -0.1856 -0.0494  0.2608
 4807W        W 9007   0.415   7.982  11.823 -0.3713  0.2005 -0.3531
 4808W        W 9008   3.648   4.002   5.126  0.2375  0.0191  0.3039
 4809W        W 9009   8.861   5.016   0.613  0.1083  0.2021  0.0866
 4810W        W 9010   6.221   0.810   4.550  0.1158 -0.1971 -0.0376
 4811W        W 9011   7.343   5.797   3.533 -0.3795  0.1768 -0.1024
 4812W        W 9012   4.079   2.136  10.542 -0.1232  0.1929 -0.0868
 4813W        W 9013   4.049   7.678   9.452  0.1574 -0.1755 -0.0873
 4814W        W 9014   0.393   9.902   2.966 -0.1077  0.0950 -0.0323
 4815W        W 9015   2.352   7.201   1.074  0.0823 -0.0142  0.0031
 4816W        W 9016   6.866   7.252  13.299 -0.1866 -0.1774  0.1382
 4817W        W 9017   0.757   8.972   0.612  0.0968  0.3975  0.2138
 4818W        W 9018   7.232   9.974   1.545 -0.1525 -0.1044  0.1744
 4819W        W 9019   7.568   5.131   3.552 -0.3702  0.1154 -0.0221
 4820W        W 9020  10.338  10.086   9.713  0.0850 -0.2101  0.0417
 4821W        W 9021   6.660   3.703  13.422 -0.0813  0.1543 -0.1612
 4822W        W 9022   1.212   8.043   4.248 -0.0332  0.1222 -0.0121
 4823W        W 9023   8.635   6.211   2.458 -0.1631  0.1033  0.1558
 4824W        W 9024   8.488   3.394   3.230  0.1610  0.0215  0.1270
 4825W        W 9025   2.375   9.189  11.810 -0.0109  0.0199 -0.2626
 4826W        W 9026   3.033   4.098   9.455  0.0032 -0.0501 -0.2144
 4827W        W 9027   8.683   7.223   9.945 -0.0007  0.1868 -0.3317
 4828W        W 9028   7.033   5.484  12.685 -0.1747 -0.0869 -0.0547
 4829W        W 9029   2.944   1.359   0.320 -0.3687  0.1539 -0.1890
 4830W        W 9030   1.067  10.085   1.616 -0.1844  0.0524 -0.1785
 4831W        W 9031   9.472   6.904   2.327 -0.0057 -0.2766  0.0195
 4832W        W 9032   6.651   2.450   1.470  0.3949 -0.0647  0.3159
 4833W        W 9033  10.205   2.329  13.272 -0.1643  0.3104 -0.3235
 4834W        W 9034   9.060   3.728  12.967 -0.0651 -0.0886 -0.2763
 4835W        W 9035   8.533   6.155   0.156 -0.0097  0.1690  0.1995
 4836W        W 9036   6.973   6.815   3.876  0.3844  0.1679 -0.0860
 4837W        W 9037  10.398   1.803   3.072  0.0161 -0.2142  0.1126
 4838W        W 9038   7.026   8.685  10.889 -0.1792 -0.1487 -0.1221
 4839W        W 9039   4.296   7.862   9.884  0.1094  0.1716  0.2835
 4840W        W 9040   1.119   4.790  13.225  0.1992 -0.0912  0.3880
 4841W        W 9041   4.787   4.586   2.118  0.1890  0.1798 -0.0523
 4842W        W 9042   9.222   1.421   8.725 -0.0664 -0.0038 -0.2205
 4843W        W 9043   5.483   1.211  10.092 -0.0857  0.0551 -0.0834
 4844W        W 9044   4.166   5.189   9.907  0.1156 -0.4003 -0.3954
 4845W        W 9045  10.348   6.363   3.237  0.1156  0.0576  0.2130
 4846W        W 9046   9.482  10.226  13.059 -0.0417  0.0158  0.0659
 4847W        W 9047   5.608   1.613   4.265 -0.1392  0.0105  0.1337
 4848W        W 9048   3.524  10.359   5.386  0.1990  0.0914 -0.1623
 4849W        W 9049   2.044   5.791   3.787  0.0573 -0.1203 -0.2410
 4850W        W 9050   9.150   7.077  12.753  0.1242 -0.0919 -0.2048
 4851W        W 9051   0.575   9.157  13.228  0.1069 -0.0963  0.0283
 4852W        W 9052   5.025   7.259   3.428  0.1856 -0.1204  0.2060
 4853W        W 9053   3.434   6.483  10.278 -0.0109 -0.0172 -0.0496
 4854W        W 9054   6.923   1.049  12.739  0.0430 -0.0476 -0.1291
 4855W        W 9055   8.846   2.924   3.121  0.1343  0.0325 -0.2376
 4856W        W 9056   8.828   1.079   2.250  0.2144  0.0590  0.1589
 4857W        W 9057   9.491   8.972  11.066  0.0889 -0.1169  0.1794
 4858W        W 9058   5.046   6.095   0.827 -0.1552  0.0163  0.0889
 4859W        W 9059   1.365   1.142  11.824  0.2241 -0.1168  0.0467
 4860W        W 9060   5.525  10.356  10.820 -0.0076 -0.1694  0.1739
 4861W        W 9061   6.409   3.707  12.483  0.4290  0.1099  0.0207
 4862W        W 9062   0.236   9.350  12.936 -0.0066 -0.0846  0.1124
 4863W        W 9063   3.980   3.085  11.095  0.0982  0.0140  0.0839
 4864W        W 9064   0.522   9.334   2.882 -0.2843 -0.0583 -0.0285
 4865W        W 9065   8.436   0.877   1.288 -0.1490 -0.0696 -0.0100
 4866W        W 9066   6.392   2.362  11.566 -0.1786 -0.2856 -0.2374
 4867W        W 9067   1.816   3.178  12.725  0.3030 -0.0125  0.1094
 4868W        W 9068   9.332   1.861   9.705 -0.0848 -0.0798  0.3341
 4869W        W 9069   8.024   4.011   3.272 -0.0340  0.2042 -0.1351
 4870W        W 9070   1.815   4.021  11.090  0.0819 -0.1927  0.0654
 4871W        W 9071   1.014   1.571   9.975 -0.0487 -0.2437 -0.0090
 4872W        W 9072   8.930   3.748   3.667  0.1216 -0.0135  0.1152
 4873W        W 9073   0.856   8.482  13.066 -0.1084  0.5125 -0.2335
 4874W        W 9074  10.089   4.817   4.800  0.1690  0.3639 -0.0204
 4875W        W 9075   9.852   2.782  13.357 -0.0735 -0.0544  0.0766
 4876W        W 9076   4.753   3.854   9.908 -0.3380  0.1891 -0.0472
 4877W        W 9077   9.730   5.119   9.716 -0.3807  0.3815 -0.0215
 4878W        W 9078   6.234   2.064  10.895  0.3501  0.0534  0.1874
 4879W        W 9079   7.638   6.916   1.991  0.1677 -0.2000 -0.0596
 4880W        W 9080   6.965   0.136   0.692  0.1843 -0.0086  0.3001
 4881W        W 9081   3.760   3.095   9.869  0.0366  0.0379  0.0929
 4882W        W 9082   8.132   8.339  10.574  0.0262  0.1465  0.1997
 4883W        W 9083   8.246   8.055  12.106 -0.2396  0.3753  0.0077
 4884W        W 9084   1.590   2.974  13.105  0.0683 -0.1085 -0.2520
 4885W        W 9085   5.691  10.055  13.027  0.0286 -0.0491 -0.1489
 4886W        W 9086   1.286   2.226  10.944  0.2422 -0.0640 -0.2734
 4887W        W 9087   6.405   8.878   1.675 -0.1003  0.4482 -0.2151
 4888W        W 9088   6.144   6.195   9.306 -0.2232 -0.0874 -0.0959
 4889W        W 9089   5.574   3.173   4.901 -0.2661 -0.1874  0.0311
 4890W        W 9090   4.741   7.895   4.194 -0.0081 -0.1546  0.3349
 4891W        W 9091   1.329   5.157  12.519  0.0113 -0.2426  0.3999
 4892W        W 9092   4.192   2.822  12.733  0.1285 -0.1546  0.0459
 4893W        W 9093   4.486   9.971   1.229  0.3279  0.1949 -0.1175
 4894W        W 9094   3.936   0.370   9.470 -0.0548  0.4077 -0.0313
 4895W        W 9095   8.193   0.527   2.871  0.1111  0.1596  0.1041
 4896W        W 9096   2.685   8.521   1.494 -0.1803 -0.1283 -0.4875
 4897W        W 9097   1.148   1.180   2.889 -0.1648  0.2589 -0.2013
 4898W        W 9098   5.889   5.695  11.096  0.1799 -0.0474 -0.2395
 4899W        W 9099   8.293   6.120   3.611  0.4194  0.0609 -0.0021
 4900W        W 9100   2.930   9.408  12.612  0.1007  0.0621  0.1107
 4901W        W 9101   1.935   9.473  11.761  0.0824 -0.1138 -0.0046
 4902W        W 9102   7.486   8.168  11.259  0.0048 -0.0856  0.1172
 4903W        W 9103   1.826   9.055  11.980  0.0241 -0.1637 -0.1195
 4904W        W 9104   8.737   2.470  13.337  0.0713  0.1045 -0.4054
 4905W        W 9105   8.481   0.624  11.985  0.1078  0.0048 -0.1719
 4906W        W 9106   1.606   2.825   9.592  0.0931  0.0328  0.2327
 4907W        W 9107   1.016   3.194   1.964  0.0977  0.0169 -0.4319
 4908W        W 9108   1.414   6.141   4.205  0.0091 -0.1974  0.0002
 4909W        W 9109   4.968   1.588   4.531 -0.3548 -0.3467 -0.2893
 4910W        W 9110   4.657   7.555  10.387  0.1197 -0.2426  0.4348
 4911W        W 9111   7.640   4.413   3.313 -0.3424  0.1466 -0.2792
 4912W        W 9112   2.250   6.756  13.135 -0.2337 -0.0989  0.1590
 4913W        W 9113   3.629   0.549   2.772  0.0096 -0.0180 -0.3348
 4914W        W 9114  10.143   1.353  10.409 -0.2033  0.0426  0.0709
 4915W        W 9115   0.966   9.151  12.365 -0.1186 -0.0046 -0.1689
 4916W        W 9116   3.232   3.422  10.546  0.1102 -0.2906 -0.0866
 4917W        W 9117   7.839   3.877   2.525 -0.1467 -0.0793 -0.2220
 4918W        W 9118   2.351   2.987  10.588  0.0108  0.0885 -0.1836
 4919W        W 9119   5.099   8.551   2.776  0.0156  0.2265 -0.1594
 4920W        W 9120   2.688   2.924   1.130  0.3611  0.0116  0.2529
 4921W        W 9121   5.299   3.575   1.545 -0.0263  0.0118 -0.2492
 4922W        W 9122   1.598   2.695  10.832  0.4391 -0.0741  0.1695
 4923W        W 9123   6.982   8.390   0.497 -0.0382 -0.0213  0.1853
 4924W        W 9124   0.149  10.379   1.903 -0.0508  0.1266 -0.0346
 4925W        W 9125   6.115   1.655   5.223 -0.0991 -0.0874 -0.1481
 4926W        W 9126   8.569   6.241   1.125 -0.2125 -0.1279  0.0670
 4927W        W 9127   0.348   5.728  11.536  0.3377  0.1054  0.1661
 4928W        W 9128   3.881   8.878   0.965 -0.1112 -0.2694  0.0194
 4929W        W 9129   3.403  10.298  12.588 -0.1623  0.0916 -0.3395
 4930W        W 9130   0.081   6.192  10.157  0.0819 -0.4314  0.0844
 4931W        W 9131   6.154   8.130  11.881 -0.4085  0.1826 -0.0019
 4932W        W 9132   9.591   2.385   2.583 -0.0513  0.1047 -0.0565
 4933W        W 9133   5.279   5.531  13.230 -0.0237  0.1710  0.2291
 4934W        W 9134   5.507   7.940  10.079  0.0064  0.0781  0.0884
 4935W        W 9135   1.650  10.422  13.173 -0.1311 -0.0248 -0.1081
 4936W        W 9136   4.403   9.591  11.157  0.0576 -0.4089  0.1981
 4937W        W 9137   8.806   7.426  12.978  0.0499 -0.0021  0.2386
 4938W        W 9138   4.427   0.804   4.048  0.2807  0.1121  0.1501
 4939W        W 9139   7.556   6.245  12.585  0.0454 -0.1269 -0.0829
 4940W        W 9140   9.988   2.308   0.240 -0.0033 -0.0739 -0.1466
 4941W        W 9141   4.548   1.710  12.107 -0.2567 -0.1430 -0.0472
 4942W        W 9142   7.263   3.008   1.489 -0.0446  0.0531  0.1198
 4943W        W 9143   9.009   5.676  12.864  0.0162  0.0240  0.1291
 4944W        W 9144   1.817   8.002   4.699  0.0423  0.1243 -0.0310
 4945W        W 9145   4.938   9.641   1.387  0.1473  0.1558 -0.0173
 4946W        W 9146   7.950   7.767  10.017 -0.3169 -0.2796  0.2437
 4947W        W 9147   9.104   8.738   2.774 -0.1680  0.1726  0.2332
 4948W        W 9148   6.763   2.957   1.803 -0.1358  0.0648  0.0629
 4949W        W 9149   1.182   6.533   8.803 -0.0392 -0.1384  0.0950
 4950W        W 9150   6.679   7.275   9.758  0.1941 -0.2461  0.1321
 4951W        W 9151   8.273   8.061   0.061 -0.0030  0.2481  0.3675
 4952W        W 9152   8.287   5.204   3.870 -0.1613 -0.3456 -0.0026
 4953W        W 9153  10.397   4.297   0.003 -0.0514 -0.0296  0.0194
 4954W        W 9154   2.387   5.854   9.753 -0.1001 -0.1749  0.1502
 4955W        W 9155   2.609   8.021   1.237 -0.0597 -0.2341 -0.0260
 4956W        W 9156   6.621   8.627   3.861  0.1262 -0.1428  0.1275
 4957W        W 9157   3.933  10.409   1.162  0.4176  0.2030 -0.1193
 4958W        W 9158   0.742   4.191   2.653 -0.0162 -0.0575 -0.1249
 4959W        W 9159  10.422   0.345   3.893 -0.1512  0.0741  0.1519
 4960W        W 9160   2.830   6.936  10.916  0.0475 -0.0251  0.1226
 4961W        W 9161   6.071   1.138   4.140 -0.1219 -0.0541 -0.0914
 4962W        W 9162   4.789   1.918   0.342  0.0178  0.0443 -0.2353
 4963W        W 9163   4.108   6.728   1.543 -0.1252  0.4191  0.2512
 4964W        W 9164   2.029   6.002  12.580 -0.1488 -0.0958  0.0569
 4965W        W 9165  10.352   3.809   0.038 -0.2582 -0.0547 -0.0758
 4966W        W 9166   7.282   8.468   0.043 -0.1813 -0.0551  0.1119
 4967W        W 9167   6.617   0.601   2.852 -0.1100  0.0618 -0.1594
 4968W        W 9168   4.168   1.852   1.734  0.1003  0.0100 -0.3275
 4969W        W 9169   7.102   9.387   0.903  0.0025 -0.0197 -0.2767
 4970W        W 9170   9.874   1.555   9.585 -0.0302 -0.0649  0.2740
 4971W        W 9171   7.514   5.225   0.928 -0.0525 -0.0422  0.1205
 4972W        W 9172   8.897   5.409   1.693  0.3002 -0.1462  0.0027
 4973W        W 9173   5.390   5.742   2.342  0.3632 -0.0585  0.0102
 4974W        W 9174   5.368   1.696   9.915  0.0276 -0.1612  0.0728
 4975W        W 9175   1.437   2.415   2.492 -0.1118 -0.0012  0.3510
 4976W        W 9176   5.170   9.388   1.761  0.2275 -0.2479 -0.3869
 4977W        W 9177   6.953   5.106   4.327  0.0309  0.1714 -0.4978
 4978W        W 9178   5.132   6.946   9.217 -0.0422 -0.4049 -0.1702
 4979W        W 9179   8.978   4.871   1.680 -0.0261  0.1829 -0.5183
 4980W        W 9180   7.548   6.983  12.327  0.4440 -0.0298  0.2753
 4981W        W 9181   6.308  10.390  11.435  0.0237 -0.0444 -0.0157
 4982W        W 9182   3.842   0.533   3.246  0.0978  0.0277 -0.0486
 4983W        W 9183   6.136   4.144   2.027 -0.1343 -0.0739  0.2338
 4984W        W 9184  10.055   5.872  12.967 -0.1391 -0.0940 -0.1882
 4985W        W 9185   5.922   3.969   9.740  0.0479  0.4404  0.2917
 4986W        W 9186   0.513   0.160   1.359  0.3105 -0.1627 -0.0670
 4987W        W 9187   9.868   3.191   1.348  0.0802  0.0353 -0.3506
 4988W        W 9188   9.097   8.576  13.492  0.3924 -0.1713  0.1838
 4989W        W 9189   5.580   3.334   2.250 -0.2269  0.0632  0.1362
 4990W        W 9190   4.504  10.308   3.400  0.0401  0.0556  0.1075
 4991W        W 9191   7.730   4.791   2.684  0.2850 -0.2294  0.0194
 4992W        W 9192   5.713   8.616   9.455 -0.3883 -0.0697 -0.0640
 4993W        W 9193   8.028   6.238   0.966 -0.0609  0.1189 -0.5282
 4994W        W 9194   3.077   3.028   8.742  0.3850 -0.0012 -0.1894
 4995W        W 9195   7.585   4.441  13.252 -0.1215  0.0421  0.1183
 4996W        W 9196   9.580   0.245   0.204  0.1076 -0.0883 -0.2181
 4997W        W 9197   1.113   4.060   0.425 -0.0927  0.0392  0.0491
 4998W        W 9198   9.340   4.270  12.160  0.0531 -0.3111 -0.0158
 4999W        W 9199   4.367   8.004  12.264  0.0598  0.2139  0.2719
 5000W        W 9200   1.536   3.701   1.693 -0.1315  0.0638  0.1196
 5001W        W 9201   2.146   9.061   4.300  0.0623 -0.1085 -0.1743
 5002W        W 9202   2.615   0.496   4.439  0.0931 -0.1484  0.2413
 5003W        W 9203   3.547   1.199   2.011  0.1997  0.2463 -0.1358
 5004W        W 9204   0.389   6.470   4.325 -0.2574  0.2550  0.2942
 5005W        W 9205   5.552   7.189  12.549  0.0382 -0.2575  0.1929
 5006W        W 9206   2.060   5.985  11.527 -0.0729 -0.1530  0.0761
 5007W        W 9207   5.949   4.733  10.405 -0.0494 -0.0534 -0.0736
 5008W        W 9208   0.477   3.825   3.628  0.3954 -0.0306 -0.1309
 5009W        W 9209   7.388   3.533   9.560 -0.0051  0.0493  0.1428
 5010W        W 9210   9.581   1.688  11.965  0.3217 -0.2165  0.2060
 5011W        W 9211   8.202   3.534  10.100  0.2058 -0.2022 -0.1354
 5012W        W 9212   7.695   2.902  13.309  0.0230 -0.1022 -0.0272
 5013W        W 9213   2.712   9.793  10.654 -0.0194  0.1052 -0.1910
 5014W        W 9214   0.873   6.504   4.455  0.4599 -0.2185 -0.1340
 5015W        W 9215   0.779   6.038   2.149 -0.0966 -0.0594  0.0242
 5016W        W 9216   8.657   0.484   2.121 -0.0026  0.1965 -0.1975
 5017W        W 9217   2.764   3.613   2.336  0.2421 -0.1651 -0.2425
 5018W        W 9218   0.860   7.217  12.112  0.0896  0.0956  0.0824
 5019W        W 9219   0.869   6.619  12.866  0.1568  0.0134 -0.2954
 5020W        W 9220   9.248   0.307   3.961 -0.1420  0.0806 -0.0571
 5021W        W 9221   1.086   2.590   2.245 -0.1048  0.0257 -0.0790
 5022W        W 9222   5.633   3.092   5.399  0.0583  0.1157  0.0170
 5023W        W 9223   6.485   6.813  11.490  0.1501 -0.0686  0.1734
 5024W        W 9224   2.870   7.459  10.493  0.0058 -0.0141 -0.2948
 5025W        W 9225   6.918   8.200  10.695 -0.3424 -0.0252  0.0530
 5026W        W 9226   0.737   5.080  12.284 -0.0570 -0.1071  0.0680
 5027W        W 9227   2.386   7.056   2.572 -0.0876 -0.3070 -0.3044
 5028W        W 9228   5.249   1.108   4.384  0.1191  0.5532  0.1230
 5029W        W 9229   2.827   2.672  11.641  0.0710  0.0158  0.3855
 5030W        W 9230   7.906   7.697   1.414 -0.1354  0.2145  0.3453
 5031W        W 9231   0.874   4.104  10.619 -0.2221  0.0302  0.2752
 5032W        W 9232   1.061   8.300  13.498 -0.1877  0.0466  0.0748
 5033W        W 9233   1.178   2.378   0.591  0.0011 -0.2764 -0.1027
 5034W        W 9234   9.659   8.370  10.064 -0.1572 -0.1613  0.0560
 5035W        W 9235   8.717   1.996   2.750  0.1972 -0.0451 -0.0227
 5036W        W 9236   3.047   6.106   5.026 -0.1147 -0.0369 -0.1285
 5037W        W 9237   0.525   6.122  11.869 -0.1532  0.1344 -0.1106
 5038W        W 9238   9.781   4.330   4.091 -0.0462  0.0858  0.3760
 5039W        W 9239   7.185   1.963  13.331  0.0318 -0.0278  0.0604
 5040W        W 9240   1.542   6.535   2.491 -0.1070 -0.0154  0.2318
 5041W        W 9241   5.631   0.762  13.232 -0.0866 -0.0500  0.0825
 5042W        W 9242   1.553   1.617  10.183 -0.1275  0.0754 -0.3552
 5043W        W 9243   0.210   8.601  10.767 -0.2624  0.2060 -0.3349
 5044W        W 9244   8.437   8.985   0.529 -0.2651  0.2152 -0.4908
 5045W        W 9245   8.270   7.479   1.698 -0.2153  0.1997  0.0455
 5046W        W 9246   0.052  10.170   3.198  0.0784  0.0604 -0.0256
 5047W        W 9247   0.765   2.443  13.482  0.2234 -0.1733  0.3618
 5048W        W 9248   1.410   3.808  13.386  0.0891 -0.0765  0.1248
 5049W        W 9249   8.883   1.366   9.955 -0.0096  0.1046 -0.2249
 5050W        W 9250   3.228   2.672  11.162  0.1102 -0.1842  0.0804
 5051W        W 9251  10.020  10.341   2.742 -0.0855  0.2850  0.0296
 5052W        W 9252   8.637   0.890   9.985 -0.3556 -0.0587 -0.0907
 5053W        W 9253  10.103   1.742  12.375 -0.0811 -0.1027  0.0439
 5054W        W 9254  10.061   5.365   9.403 -0.0767  0.2564  0.0177
 5055W        W 9255   9.339   9.185   2.856 -0.0269 -0.0744 -0.1110
 5056W        W 9256   3.283  10.055   2.581 -0.5359 -0.1754 -0.0859
 5057W        W 9257   7.451   2.075  12.883 -0.1136 -0.1727  0.1363
 5058W        W 9258   3.956   9.984   9.515 -0.0627  0.0263 -0.0298
 5059W        W 9259   4.134   1.038   3.109 -0.2045 -0.0128 -0.0769
 5060W        W 9260   5.293   0.429  11.219 -0.1175  0.0485 -0.0006
 5061W        W 9261   2.879   1.249   3.623 -0.1412  0.1729  0.0099
 5062W        W 9262   6.027   1.117   1.238 -0.0800  0.0180  0.0556
 5063W        W 9263   0.413   4.727  11.289 -0.0820  0.2189 -0.2642
 5064W        W 9264   8.239   4.701   2.710 -0.3301  0.2109  0.1383
 5065W        W 9265   8.899   5.539  11.966 -0.0267  0.1498  0.2257
 5066W        W 9266   3.207   7.662   2.622  0.0481  0.3088  0.0613
 5067W        W 9267   0.543   6.797   1.451 -0.1635  0.2524  0.2834
 5068W        W 9268  10.042   3.978  11.511 -0.1604  0.4684  0.0077
 5069W        W 9269   0.511   1.622  12.461 -0.1585 -0.1389  0.1081
 5070W        W 9270   2.511   6.479   2.192 -0.0033 -0.3512 -0.4630
 5071W        W 9271   8.933   0.007  11.322  0.1187 -0.2862 -0.1471
 5072W        W 9272   3.839   1.998  12.911 -0.2187 -0.1471  0.1755
 5073W        W 9273   1.723   3.151   3.547 -0.2049 -0.4468 -0.0169
 5074W        W 9274   8.178   3.242   1.416 -0.0273 -0.0974 -0.0382
 5075W        W 9275   3.782   4.628   4.288  0.1026  0.0863 -0.2691
 5076W        W 9276   0.766   0.492   2.322  0.0981 -0.3456 -0.2942
 5077W        W 9277   5.649   7.686  12.530  0.1622  0.3077 -0.1006
 5078W        W 9278   1.970   3.249  10.332 -0.1847  0.1137  0.1477
 5079W        W 9279   2.694   4.986   2.398 -0.1659 -0.1023 -0.2930
 5080W        W 9280   1.501   3.696  11.578 -0.0324 -0.0788 -0.0746
 5081W        W 9281   5.467   0.941   3.544  0.1996  0.2969 -0.0503
 5082W        W 9282   9.413  10.412   2.517 -0.1844 -0.0730  0.0501
 5083W        W 9283   4.189   6.114   4.087  0.2447  0.0226  0.2892
 5084W        W 9284   6.523   0.081   2.614  0.1724  0.1258 -0.1353
 5085W        W 9285   0.922   2.874   5.798  0.2990  0.1164  0.1317
 5086W        W 9286   7.948   7.264   2.903 -0.1921  0.0191 -0.5090
 5087W        W 9287   8.301   3.959   9.231  0.4006  0.0088 -0.1160
 5088W        W 9288   9.077   4.080  11.223  0.1396 -0.2013 -0.0040
 5089W        W 9289   3.457   4.519   2.393 -0.1586  0.0012  0.0194
 5090W        W 9290   9.471   2.077  10.106 -0.1440  0.0605 -0.2213
 5091W        W 9291   5.314   2.759   3.169  0.0682  0.0875 -0.0666
 5092W        W 9292   5.578   7.049   3.537 -0.3450  0.2028 -0.0887
 5093W        W 9293   5.110   6.259   9.716 -0.0806  0.1164 -0.0393
 5094W        W 9294   2.898   7.066  11.454 -0.0578  0.1575 -0.1028
 5095W        W 9295   4.611   4.373   2.999 -0.1745  0.1472 -0.2247
 5096W        W 9296   7.282   3.969  11.236  0.0448 -0.1053 -0.1338
 5097W        W 9297   8.587   2.001  13.196 -0.1118  0.0526 -0.0917
 5098W        W 9298   9.545   4.578   1.653  0.3328 -0.1608 -0.0242
 5099W        W 9299   1.416   7.621   1.170 -0.2112 -0.2159 -0.1268
 5100W        W 9300   9.923   3.601  13.251  0.2711  0.0741  0.2034
 5101W        W 9301   0.996   1.242  12.714  0.0103  0.0562  0.0598
 5102W        W 9302   5.040   1.505   2.101  0.0537 -0.3371 -0.1223
 5103W        W 9303  10.442   1.685  11.444 -0.2827 -0.0083 -0.2108
 5104W        W 9304   9.083   1.495   3.352  0.2207  0.1576  0.0273
 5105W        W 9305   7.733   3.743   9.257 -0.3427 -0.3260  0.0828
 5106W        W 9306   5.730   9.597  11.746  0.0050  0.1413 -0.0699
 5107W        W 9307   0.335   3.649   2.592  0.3488 -0.1722  0.1992
 5108W        W 9308   8.618   8.851   2.473 -0.2555  0.0239  0.0650
 5109W        W 9309   6.094   0.541   2.807  0.1340  0.0644  0.2054
 5110W        W 9310   1.799   3.795   4.793  0.2086 -0.0364  0.1565
 5111W        W 9311   2.631   6.580   0.392 -0.4010  0.0713  0.1011
 5112W        W 9312   1.183   6.276   2.701 -0.0266 -0.6092 -0.4286
 5113W        W 9313   0.546   1.044  11.266 -0.1427 -0.2721  0.1651
 5114W        W 9314   2.821  10.125   4.886 -0.3080  0.2090  0.0941
 5115W        W 9315  10.292   6.321   2.361 -0.0114  0.2087 -0.3192
 5116W        W 9316   6.285   3.240  11.202  0.2632 -0.1431 -0.0610
 5117W        W 9317   9.476   2.746   1.897 -0.1978  0.0821  0.1789
 5118W        W 9318   7.832   5.850  12.399  0.1472 -0.3960  0.0608
 5119W        W 9319   7.281   3.002   0.008  0.1199  0.1455 -0.1052
 5120W        W 9320   8.246   8.542   2.492 -0.2179  0.3866  0.1096
 5121W        W 9321   6.936   4.872   9.639  0.0760 -0.4504 -0.1348
 5122W        W 9322   1.771   8.608   1.223 -0.1162 -0.1416 -0.0697
 5123W        W 9323   1.586   7.960  12.160  0.0679  0.0495  0.0884
 5124W        W 9324   0.619   6.414  12.470  0.1374  0.0996 -0.0953
 5125W        W 9325   3.845   2.002  12.042 -0.0578  0.0920 -0.2418
 5126W        W 9326   0.517   8.537  10.373  0.3066  0.0486 -0.0392
 5127W        W 9327   1.943   3.431   1.484  0.1222 -0.3812  0.0970
 5128W        W 9328   7.336   5.795  12.502 -0.1577  0.2737  0.1820
 5129W        W 9329   6.830   3.911  12.239 -0.0883 -0.2455  0.1641
 5130W        W 9330   8.969   2.356   2.504  0.0087  0.2482  0.0845
 5131W        W 9331   4.607   7.073   8.341 -0.2092 -0.0235  0.4549
 5132W        W 9332  10.056   7.045  12.249 -0.1133  0.1068  0.0276
 5133W        W 9333   2.041   8.575   4.042 -0.0429 -0.0349  0.0316
 5134W        W 9334   3.517   9.057   1.266 -0.1892  0.0994 -0.1480
 5135W        W 9335   1.954   5.516   1.125 -0.0157 -0.2618  0.0263
 5136W        W 9336   9.031   2.226   0.130  0.1225  0.3019 -0.2172
 5137W        W 9337  10.238   2.385  12.092  0.0282  0.3983 -0.1262
 5138W        W 9338   1.270   4.084   3.836 -0.0691  0.0230  0.0839
 5139W        W 9339   4.363   3.665  11.181  0.0543 -0.0979  0.2372
 5140W        W 9340   9.739   8.694   9.715 -0.3992  0.0563  0.0384
 5141W        W 9341   7.733   4.594   0.617  0.1111  0.0729  0.0531
 5142W        W 9342   2.975   5.786  11.237 -0.2360 -0.1667  0.1629
 5143W        W 9343   4.269   5.587  12.310  0.0907  0.0256  0.2324
 5144W        W 9344   2.781   0.476  10.954  0.0613  0.1904 -0.0807
 5145W        W 9345   5.966   4.092   0.954 -0.0341 -0.0999  0.3862
 5146W        W 9346   3.057   3.521   3.265 -0.1536 -0.0538  0.0280
 5147W        W 9347   5.208   3.614  11.832  0.0860 -0.1732 -0.2160
 5148W        W 9348   8.373   4.944  11.909 -0.0746 -0.1509 -0.0828
 5149W        W 9349   4.240   0.011   0.794 -0.1817 -0.2786 -0.2013
 5150W        W 9350   8.723   8.872   1.140  0.0631  0.0465 -0.0617
 5151W        W 9351   5.374   1.893   4.622  0.1846  0.0400 -0.3335
 5152W        W 9352   8.352   1.821   3.315  0.1111  0.0409 -0.2939
 5153W        W 9353   0.500   3.475  11.396 -0.0921 -0.0856  0.1532
 5154W        W 9354   5.483   3.725   4.395  0.0874  0.4426 -0.0425
 5155W        W 9355   3.710   4.552   9.931  0.2091  0.0839 -0.0618
 5156W        W 9356   8.166   9.206   3.375  0.0159 -0.0067  0.0279
 5157W        W 9357   8.636   7.030   4.017  0.1102 -0.0598 -0.1669
 5158W        W 9358   4.359   6.420   2.833  0.1248 -0.4255  0.1485
 5159W        W 9359   4.526   2.169   1.595 -0.0214  0.2009 -0.0319
 5160W        W 9360   5.723  10.146   3.152  0.2939 -0.1713 -0.1518
 5161W        W 9361   6.941   4.394  12.045 -0.1349 -0.1500 -0.0997
 5162W        W 9362   6.416   0.531   9.610 -0.0495 -0.0768 -0.2616
 5163W        W 9363   2.709   3.877   4.991 -0.0331 -0.2509 -0.0623
 5164W        W 9364   6.228   2.004  11.964  0.2465 -0.0112 -0.1917
 5165W        W 9365   0.073   5.189  10.731 -0.1031 -0.2177 -0.1246
 5166W        W 9366   6.630   4.000   2.028 -0.1503  0.0401  0.0297
 5167W        W 9367   3.193   6.452   4.129 -0.1862 -0.2168  0.2659
 5168W        W 9368   2.771   5.928   1.593 -0.1845 -0.0070 -0.1298
 5169W        W 9369   9.149   1.059   0.526 -0.0345  0.0012  0.0553
 5170W        W 9370   9.163   3.814   2.220 -0.1589 -0.1978  0.0483
 5171W        W 9371   9.453   3.096  10.489 -0.1840 -0.0021  0.7000
 5172W        W 9372   3.640   3.620  12.743  0.1810 -0.0553  0.0697
 5173W        W 9373   7.288   3.185  12.057 -0.3052 -0.1690 -0.1784
 5174W        W 9374   1.089   0.037   0.719 -0.1085  0.0033 -0.0853
 5175W        W 9375   7.945   3.807  11.928 -0.2446  0.1957 -0.2231
 5176W        W 9376   4.081   9.139   1.424 -0.1214 -0.2049 -0.1520
 5177W        W 9377   3.736   7.735  12.772 -0.0260 -0.0772  0.1287
 5178W        W 9378   2.610   0.140  11.936 -0.2235 -0.0499  0.0875
 5179W        W 9379   7.019   4.384  12.568 -0.1292  0.0908 -0.0718
 5180W        W 9380   2.093   9.651   9.837 -0.0750  0.1416  0.2024
 5181W        W 9381   7.196   7.196   0.601  0.1247 -0.0834  0.0269
 5182W        W 9382   0.725   3.763   0.449  0.0456  0.2478 -0.2084
 5183W        W 9383   8.862   1.964   3.282  0.2131 -0.0879  0.1038
 5184W        W 9384   1.287  10.283   4.004  0.0369 -0.3888  0.0489
 5185W        W 9385   7.179   5.938   1.512 -0.2318 -0.3902 -0.1465
 5186W        W 9386   3.734   4.119   4.192 -0.0648  0.0596 -0.0837
 5187W        W 9387   9.540   6.450  12.051 -0.1751 -0.0697 -0.1523
 5188W        W 9388   1.770   3.804  12.996  0.0573 -0.0319 -0.3344
 5189W        W 9389   8.399   0.215   1.214 -0.0180 -0.1623  0.2411
 5190W        W 9390   6.183   2.986   4.402 -0.1304  0.0094  0.3276
 5191W        W 9391  10.304   8.879  12.046  0.1941  0.3787  0.0981
 5192W        W 9392  10.196   9.226   1.309 -0.0229  0.2345  0.0660
 5193W        W 9393  10.048   0.286   3.109 -0.0678  0.1377 -0.1155
 5194W        W 9394   3.124   3.180   9.791  0.1724  0.1786  0.0244
 5195W        W 9395   4.585   7.296  13.367  0.1109  0.0951  0.2006
 5196W        W 9396   0.073   8.066   1.260 -0.3965 -0.0101  0.2375
 5197W        W 9397   8.935   6.472   2.854 -0.2422  0.1281 -0.2594
 5198W        W 9398   7.268   4.402   0.437  0.0334 -0.2154 -0.1174
 5199W        W 9399   3.256   7.707   1.441  0.0819  0.0391 -0.2899
 5200W        W 9400   6.114   3.517   4.155 -0.0637  0.0054  0.0683
 5201W        W 9401   1.719  10.282   5.283 -0.0935 -0.0473 -0.1076
 5202W        W 9402   1.272   3.655   3.051 -0.0975  0.0419  0.2042
 5203W        W 9403   9.734   8.557   4.095  0.1495 -0.2577  0.0045
 5204W        W 9404   6.675   0.743  10.211 -0.1523 -0.0529  0.0235
 5205W        W 9405   2.846   8.984  10.492 -0.1173  0.1442  0.2110
 5206W        W 9406   6.813   3.660   0.848  0.1705  0.0410 -0.1667
 5207W        W 9407   3.731   1.326   4.497  0.0847  0.1892 -0.1968
 5208W        W 9408   0.835  10.047   3.546 -0.2369 -0.1089 -0.2645
 5209W        W 9409   4.780   6.893   0.308  0.1298 -0.2513  0.3726
 5210W        W 9410   1.546   9.000   1.434  0.1938 -0.0197 -0.0028
 5211W        W 9411   9.549   0.211  13.250  0.0932  0.2323  0.0175
 5212W        W 9412   3.205   1.821   9.592  0.0467 -0.1791 -0.1721
 5213W        W 9413   4.091   9.864   4.325  0.1260  0.0271 -0.2758
 5214W        W 9414   9.047   6.115   2.062 -0.1878  0.3487  0.1655
 5215W        W 9415   2.191   0.436   3.274  0.2074  0.1790  0.0922
 5216W        W 9416   7.465   7.135   2.922  0.0080 -0.0255 -0.0673
 5217W        W 9417   0.848   8.304  11.298  0.0453 -0.0464 -0.0837
 5218W        W 9418   0.571   2.532   1.004 -0.3303 -0.2525 -0.1654
 5219W        W 9419   5.964  10.222  11.034  0.0456 -0.1622 -0.1120
 5220W        W 9420   6.626   5.668  11.775 -0.0135  0.0937 -0.2566
 5221W        W 9421   3.287   8.293   0.655 -0.0684 -0.2044  0.0632
 5222W        W 9422   0.185   1.655   9.650 -0.0909  0.1498 -0.0964
 5223W        W 9423   2.928   3.445  10.143 -0.1346 -0.2764  0.1440
 5224W        W 9424   9.345   3.689  11.065 -0.0279  0.0121  0.1991
 5225W        W 9425   9.541   7.342  12.601  0.0075  0.1118  0.3547
 5226W        W 9426   6.819   8.530  11.738  0.2039  0.0186  0.0409
 5227W        W 9427   3.081   3.439   1.977 -0.1674 -0.0697 -0.1151
 5228W        W 9428   0.088   0.408  11.287 -0.3450  0.1549  0.0036
 5229W        W 9429   0.136   3.761  12.289  0.2603 -0.1447  0.3730
 5230W        W 9430   6.451   3.164   3.222 -0.0727  0.1173  0.1448
 5231W        W 9431   7.480   7.730  12.801 -0.0812  0.2356  0.0285
 5232W        W 9432   6.511   6.241   1.346 -0.2073 -0.2919 -0.0443
 5233W        W 9433   3.749   3.607  11.024  0.0368  0.0006  0.1476
 5234W        W 9434   2.986   8.978   4.564  0.1140 -0.3513  0.1731
 5235W        W 9435   7.399   4.381   0.951  0.0194 -0.1932  0.0181
 5236W        W 9436   6.726   1.792  10.350 -0.0971  0.1887  0.2157
 5237W        W 9437   0.031   5.728  12.478 -0.0005  0.0828  0.0964
 5238W        W 9438   4.923   2.770  11.798  0.1537 -0.0565 -0.1740
 5239W        W 9439   8.161   3.301  10.535 -0.3692 -0.1197  0.1511
 5240W        W 9440   6.000   0.888  12.386  0.1669  0.1315  0.1302
 5241W        W 9441   2.672   8.675  12.030 -0.0441 -0.3009  0.3675
 5242W        W 9442   3.171   4.011   4.089  0.2692  0.2806 -0.1327
 5243W        W 9443   6.900   7.765   1.387  0.2900  0.0381 -0.0165
 5244W        W 9444   5.399   5.927  13.047  0.1738  0.0374  0.0867
 5245W        W 9445   3.208   8.522  11.693  0.3840 -0.0845 -0.2926
 5246W        W 9446   2.454   7.327   2.138  0.4820  0.2344 -0.0203
 5247W        W 9447   8.336   3.876  11.172 -0.2012  0.3096  0.2068
 5248W        W 9448   2.861   9.709  13.196  0.0293 -0.0368 -0.0433
 5249W        W 9449   9.755   2.224   1.291  0.2850  0.0527 -0.1800
 5250W        W 9450   2.860   9.782   9.452  0.0251 -0.1563 -0.0670
 5251W        W 9451   8.390   6.696   2.837  0.2040  0.2861  0.0086
 5252W        W 9452   9.637   8.091   1.247  0.0459  0.0356  0.2843
 5253W        W 9453   6.219   6.550  11.826  0.0400 -0.2542 -0.3429
 5254W        W 9454   4.681   3.829   0.845 -0.0146  0.1492 -0.0011
 5255W        W 9455   1.155   8.353   9.938  0.1453 -0.1079  0.0320
 5256W        W 9456   2.050   3.648   3.016  0.4328 -0.4575  0.1630
 5257W        W 9457   5.153   3.073   5.105 -0.0430  0.0338  0.0039
 5258W        W 9458   1.980   9.476   3.092  0.1383 -0.0197  0.3414
 5259W        W 9459   0.614   8.280  12.177 -0.0984  0.2062  0.1212
 5260W        W 9460   5.247   1.702  11.450  0.0560 -0.0628  0.1727
 5261W        W 9461   1.373   5.905   2.938  0.2719 -0.1245 -0.0981
 5262W        W 9462   8.231   1.808   2.841 -0.1162  0.1034  0.0754
 5263W        W 9463   5.114   7.203  13.522  0.0522 -0.1358  0.1670
 5264W        W 9464  10.177   7.768   3.073  0.0917 -0.1917 -0.0285
 5265W        W 9465   5.211   2.144  12.449  0.1747 -0.0181  0.0427
 5266W        W 9466   9.895   6.304   9.053 -0.0755  0.0342  0.1475
 5267W        W 9467   2.294   8.072   0.780 -0.0777  0.1782 -0.0098
 5268W        W 9468   3.982   6.207   1.723 -0.2565  0.1019 -0.0550
 5269W        W 9469  10.350   9.893   0.079  0.2150 -0.2204 -0.3117
 5270W        W 9470   3.237   9.293  13.055  0.0674  0.4760 -0.0515
 5271W        W 9471   2.466   5.466  10.784 -0.1416  0.0798  0.3294
 5272W        W 9472   5.214   5.162   2.110  0.1055  0.4019  0.1597
 5273W        W 9473   7.583   5.008  13.252 -0.1339  0.4289  0.0318
 5274W        W 9474   4.274   9.455   1.136  0.1828  0.0593  0.0348
 5275W        W 9475   9.564   5.323  10.132  0.1099 -0.1144 -0.2402
 5276W        W 9476   1.088   1.409   0.213  0.1951 -0.2346 -0.0028
 5277W        W 9477   7.564   6.090   0.937  0.1545  0.1080 -0.2406
 5278W        W 9478   1.173   5.614   1.106 -0.0619 -0.1383  0.2683
 5279W        W 9479   1.709  10.158   2.460  0.2266 -0.0368 -0.4838
 5280W        W 9480   3.285   0.912  11.615  0.2140  0.0682  0.2404
 5281W        W 9481   0.517   3.364   0.975 -0.3897  0.1256 -0.0582
 5282W        W 9482   4.855   3.829   1.655 -0.2031  0.0927 -0.0115
 5283W        W 9483   2.849   9.328   3.714 -0.3419 -0.0281 -0.0033
 5284W        W 9484   4.867   2.578   8.805 -0.1217 -0.2122 -0.0388
 5285W        W 9485   4.422   9.130   9.682 -0.1632 -0.0771  0.0919
 5286W        W 9486   0.911   2.836   0.781 -0.0532  0.0957  0.2514
 5287W        W 9487  10.295   5.644  11.473  0.1962  0.2776  0.2316
 5288W        W 9488   6.334   2.117   1.775 -0.1562 -0.0289 -0.0620
 5289W        W 9489   5.404   2.285   3.297 -0.3028  0.2934 -0.1161
 5290W        W 9490   4.642   8.680   0.264  0.0219 -0.1240  0.0985
 5291W        W 9491   2.346   4.711  10.279  0.0688 -0.1082  0.0334
 5292W        W 9492   6.050   5.842   8.632  0.0628  0.2724 -0.0126
 5293W        W 9493   0.449   1.208  12.256 -0.1251 -0.0662 -0.1798
 5294W        W 9494   2.556   6.948  11.763  0.2016 -0.1878 -0.0179
 5295W        W 9495   8.078   1.751  12.431  0.0279  0.2354 -0.0072
 5296W        W 9496   2.529   7.189  13.328  0.5692 -0.4253  0.1557
 5297W        W 9497   5.536   2.704  10.116 -0.1985 -0.3039  0.1290
 5298W        W 9498   4.765   0.166   0.225  0.1494  0.0288  0.2132
 5299W        W 9499   0.392   1.168   4.241  0.2369  0.0172 -0.1102
 5300W        W 9500   2.760  10.177  10.279  0.0678 -0.0420  0.4188
 5301W        W 9501   1.472   2.078  12.520  0.1020 -0.4454 -0.1270
 5302W        W 9502   2.833   5.585   4.243 -0.1474  0.2169 -0.1807
 5303W        W 9503  10.424   2.939  11.876  0.2354 -0.0865  0.0031
 5304W        W 9504   7.095   3.942   0.553  0.0235 -0.2308  0.0295
 5305W        W 9505   5.137   7.616  11.352 -0.0192  0.0123  0.0295
 5306W        W 9506   2.315   8.589   1.867  0.2315  0.2478 -0.0430
 5307W        W 9507   0.288   9.930   1.316  0.3439  0.0457 -0.3320
 5308W        W 9508   3.523   6.673   8.880  0.2492 -0.1973  0.3881
 5309W        W 9509   5.079   6.552   2.328 -0.1720 -0.1843 -0.2074
 5310W        W 9510   9.409   2.872   1.367  0.3214 -0.0442  0.2123
 5311W        W 9511   0.858   4.457   4.246  0.1866 -0.1658 -0.1299
 5312W        W 9512   3.527   8.112   4.473 -0.0314  0.1130  0.2141
 5313W        W 9513   1.484   0.040   1.840  0.0202 -0.2513 -0.2370
 5314W        W 9514   4.675   3.520   2.564 -0.1826  0.0679  0.0079
 5315W        W 9515   9.289   6.248   1.316 -0.0220  0.1110  0.1674
 5316W        W 9516   8.913   8.077  12.750 -0.0770 -0.0371 -0.0053
 5317W        W 9517   8.725   3.676   0.256 -0.2647  0.1656  0.2524
 5318W        W 9518   7.692   6.519  10.750  0.0878 -0.1504 -0.1536
 5319W        W 9519   3.988   3.943   4.739  0.0433 -0.1038  0.0477
 5320W        W 9520   1.360   2.869   4.962 -0.5003  0.2653  0.3898
 5321W        W 9521   0.405   4.232  10.846 -0.1313 -0.4550 -0.0497
 5322W        W 9522   8.998   9.666  12.359  0.1222  0.1424 -0.0864
 5323W        W 9523   2.586   3.919   9.178 -0.0293 -0.1561  0.1019
 5324W        W 9524   9.630   2.951   9.593 -0.0878 -0.1725  0.2200
 5325W        W 9525   3.134   7.836   1.951  0.2165 -0.0018  0.2272
 5326W        W 9526   4.820   3.701  12.532  0.0573 -0.2073  0.0682
 5327W        W 9527   3.266   8.163  12.745 -0.2639 -0.2699 -0.3311
 5328W        W 9528   7.856   2.232   2.337 -0.2066  0.2370  0.0680
 5329W        W 9529   4.359   6.697  13.511  0.0728 -0.2056 -0.1243
 5330W        W 9530   9.175   6.758  11.970 -0.0274  0.0192  0.0875
 5331W        W 9531   8.930   6.583  12.972 -0.4115  0.1324 -0.0613
 5332W        W 9532   0.748   1.500  10.386  0.1372  0.0294  0.2936
 5333W        W 9533   5.986   4.321  10.102  0.1994 -0.1920  0.0536
 5334W        W 9534   4.761   9.855  10.718  0.2093 -0.1448 -0.2314
 5335W        W 9535   9.108   4.327   1.853 -0.0006 -0.1586 -0.0361
 5336W        W 9536   0.377   1.801   1.944  0.2182  0.1877 -0.0850
 5337W        W 9537   5.969   1.149  11.403 -0.3002  0.0984  0.1799
 5338W        W 9538   1.552   4.769   9.025  0.1034  0.2292  0.2581
 5339W        W 9539   7.614   7.961   1.828 -0.2115  0.0603  0.1832
 5340W        W 9540   3.004   0.442   9.580 -0.1462  0.1975 -0.0148
 5341W        W 9541   8.414   9.610   0.304  0.3502 -0.1204  0.2550
 5342W        W 9542   3.471   5.572   3.781  0.2112  0.0338 -0.2682
 5343W        W 9543   0.016  10.005   0.840  0.1669 -0.0095  0.0384
 5344W        W 9544   0.622   2.432   0.482 -0.0770  0.1221 -0.2317
 5345W        W 9545   3.039   7.470   0.494 -0.1742 -0.0104  0.1289
 5346W        W 9546   3.569   0.692  13.483  0.0490  0.1671 -0.3023
 5347W        W 9547   8.360   5.465   5.101 -0.1533 -0.1538 -0.0658
 5348W        W 9548   0.285   2.932   1.106 -0.2894 -0.0355 -0.1997
 5349W        W 9549   4.819   4.268   9.175  0.1148 -0.0088  0.2620
 5350W        W 9550   6.712   7.317  10.247 -0.3471  0.2228  0.0787
 5351W        W 9551  10.037   5.436   3.052  0.1354 -0.2800  0.2289
 5352W        W 9552   9.334   2.012   2.290  0.3443 -0.0845 -0.2897
 5353W        W 9553   6.372   2.914  13.100 -0.0268  0.1294  0.0862
 5354W        W 9554   4.726   7.793   9.574  0.0351 -0.0087 -0.1979
 5355W        W 9555   7.152   0.450  10.233  0.2522  0.1254 -0.1766
 5356W        W 9556   2.532   7.344   0.269 -0.0932 -0.1328  0.0401
 5357W        W 9557   4.779   5.768   1.663  0.1727  0.1023 -0.3144
 5358W        W 9558   2.606   8.448  10.681  0.2426 -0.2372  0.0626
 5359W        W 9559   1.071   1.863  10.611 -0.0084 -0.2751 -0.3944
 5360W        W 9560   8.814   3.487  12.560 -0.1995  0.3504 -0.1061
 5361W        W 9561   3.963   2.975   3.350 -0.0220  0.1096  0.1634
 5362W        W 9562   9.548  10.370   1.544 -0.0119 -0.1056  0.2312
 5363W        W 9563   3.420  10.000  10.251  0.0065  0.1322 -0.0965
 5364W        W 9564   0.322   8.167   9.942  0.0443  0.2397 -0.0247
 5365W        W 9565   5.565   1.700   2.415  0.0026  0.0863  0.1844
 5366W        W 9566   4.558   0.185   4.654  0.1137 -0.1828  0.1631
 5367W        W 9567   8.315   0.928  10.443  0.0142  0.2434  0.3588
 5368W        W 9568   7.269   8.757   1.686 -0.1611  0.0718  0.0222
 5369W        W 9569   1.531   1.571  11.578  0.1632  0.0034  0.2156
 5370W        W 9570   9.363   6.619  12.529 -0.1371  0.2126 -0.0266
 5371W        W 9571   1.239   9.589   1.671  0.2303 -0.1473 -0.3628
 5372W        W 9572   9.233  10.152  10.528  0.2263  0.1035 -0.1000
 5373W        W 9573   6.989   1.585   3.095 -0.2994 -0.0755 -0.1232
 5374W        W 9574   3.222   9.637   0.926  0.0732 -0.1006  0.0522
 5375W        W 9575   6.735   7.024   0.229 -0.0528 -0.3090 -0.1875
 5376W        W 9576   9.893   1.583  10.805  0.0721 -0.0863 -0.0765
 5377W        W 9577   9.741   4.359   9.415 -0.2071  0.0184 -0.2099
 5378W        W 9578   2.196   0.671  13.382  0.0347 -0.1865 -0.2613
 5379W        W 9579   6.472   0.830   1.297  0.1751 -0.0685 -0.1051
 5380W        W 9580   9.556   1.522   0.761 -0.2264 -0.2313  0.2713
 5381W        W 9581   5.481   2.476   9.613 -0.2584 -0.2326 -0.0943
 5382W        W 9582   0.077   9.475   2.139 -0.0478  0.2576 -0.1610
 5383W        W 9583  10.359   6.818   1.568 -0.0604 -0.3884  0.0593
 5384W        W 9584   7.368   6.787   9.780 -0.0092 -0.0683 -0.0967
 5385W        W 9585   1.997   2.338   9.995 -0.1046 -0.0597  0.0232
 5386W        W 9586   1.694   8.720   2.266  0.2181  0.2731 -0.1346
 5387W        W 9587   6.308   0.494  12.536 -0.1376 -0.0689  0.2665
 5388W        W 9588   3.404   4.606  10.366 -0.2939  0.0001 -0.0812
 5389W        W 9589   2.673   8.868   3.371 -0.4783  0.0770 -0.2296
 5390W        W 9590   8.722   5.580   2.596 -0.0596  0.1639 -0.0985
 5391W        W 9591   5.716   5.690  11.659  0.3497  0.4821  0.1202
 5392W        W 9592   9.122   0.024  10.152  0.1410  0.0697  0.0602
 5393W        W 9593   4.910   0.452   2.133  0.0821  0.0634  0.2008
 5394W        W 9594   8.938   0.998  11.731  0.2400  0.0333  0.0689
 5395W        W 9595   9.326   5.606  11.099  0.0754  0.2139  0.0478
 5396W        W 9596  10.365   9.018   2.400 -0.0476 -0.0759 -0.0142
 5397W        W 9597   2.024   4.570   3.157  0.2216  0.0588 -0.0957
 5398W        W 9598   1.431   9.471   2.208 -0.2678  0.0344 -0.0876
 5399W        W 9599   9.122   3.611   9.799  0.1865  0.0951  0.0552
 5400W        W 9600   3.754   1.865   0.721 -0.0460  0.1373 -0.0751
 5401W        W 9601   0.202   7.723   2.550  0.0179 -0.0186 -0.1439
 5402W        W 9602   5.811   1.588  10.143 -0.2760 -0.1835  0.2257
 5403W        W 9603   7.299   5.395   3.849  0.0285 -0.0492 -0.0674
 5404W        W 9604   2.105   7.936  12.173  0.0018  0.0902 -0.3398
 5405W        W 9605   6.194  10.195   3.288 -0.3087 -0.3179 -0.1041
 5406W        W 9606   9.889   1.593   1.124 -0.0912  0.1403  0.3182
 5407W        W 9607   2.179   3.072   4.525  0.1082  0.3139  0.0154
 5408W        W 9608   5.213   3.373  12.742  0.1130 -0.0115  0.0174
 5409W        W 9609   2.806   6.474  11.975  0.1058  0.0676  0.0437
 5410W        W 9610   8.411   8.137   2.961 -0.0115 -0.4184  0.3613
 5411W        W 9611   6.292   2.857   4.863 -0.1578 -0.3449  0.1100
 5412W        W 9612   1.149   3.570   5.228  0.0940 -0.0459 -0.2636
 5413W        W 9613   7.300   5.492  13.225  0.1383  0.1969  0.4466
 5414W        W 9614   7.102   3.535   0.039 -0.0453  0.3736  0.3287
 5415W        W 9615   1.860   5.309   3.961  0.2613  0.1644  0.1186
 5416W        W 9616   0.893  10.331  12.438  0.1245  0.0060  0.1493
 5417W        W 9617   6.869   9.573  11.081  0.0772  0.2777 -0.0720
 5418W        W 9618   8.301   1.334   1.586 -0.1143  0.0979 -0.3522
 5419W        W 9619   3.351   1.787  10.622 -0.2337  0.0984 -0.0020
 5420W        W 9620   3.180   5.494  12.861  0.4997 -0.0043 -0.4459
 5421W        W 9621   2.875   7.461  11.051  0.2363  0.2916  0.2351
 5422W        W 9622   2.686   8.074  13.517 -0.0718 -0.1599 -0.3684
 5423W        W 9623   0.272   4.710   0.569  0.2269  0.0504  0.0329
 5424W        W 9624   2.958   8.023  13.116 -0.2216 -0.0702  0.1248
 5425W        W 9625   1.529   5.759  12.562 -0.1058 -0.1240  0.2049
 5426W        W 9626   1.489   8.790  12.609 -0.0532  0.1120 -0.0450
 5427W        W 9627   3.213   0.968   0.173 -0.0401  0.4662  0.1863
 5428W        W 9628   2.454  10.415   2.792 -0.1810 -0.3316 -0.1265
 5429W        W 9629   4.096   2.273   2.001 -0.0955  0.3723  0.3550
 5430W        W 9630   4.156   2.619  10.094 -0.2717  0.4450 -0.0511
 5431W        W 9631   3.264   5.141   0.888 -0.0060 -0.1354  0.0796
 5432W        W 9632   1.502   0.689  11.549 -0.2009 -0.4569 -0.1486
 5433W        W 9633   2.087   6.290  13.003  0.2281  0.0584  0.2718
 5434W        W 9634   0.306   3.339   8.649 -0.0441  0.4057  0.1183
 5435W        W 9635   9.302   0.523  10.948 -0.0937 -0.0271  0.0466
 5436W        W 9636   1.131  10.400  10.045 -0.0746  0.5199 -0.1330
 5437W        W 9637   3.156   6.774  10.518 -0.2447 -0.2739 -0.0172
 5438W        W 9638   9.823   4.014  10.393 -0.3762 -0.0791 -0.1020
 5439W        W 9639   0.873  10.125  10.862  0.0583 -0.1145 -0.1236
 5440W        W 9640   9.369   4.850   9.370 -0.0804  0.1932 -0.1022
 5441W        W 9641   0.670   0.602   9.462  0.1455 -0.0456 -0.0685
 5442W        W 9642   0.575   7.191   1.101 -0.1814  0.1050 -0.2069
 5443W        W 9643   5.985   2.703  10.363 -0.0652  0.3405 -0.2928
 5444W        W 9644   3.928   8.421   9.247 -0.1747 -0.0722  0.0376
 5445W        W 9645   7.040  10.178   2.081 -0.0979  0.0946  0.2834
 5446W        W 9646   7.388   2.193  11.825 -0.1659  0.2183  0.0597
 5447W        W 9647   8.434   8.061  11.312 -0.0382 -0.0419 -0.0459
 5448W        W 9648   7.184   4.726  10.064 -0.1700 -0.0945 -0.1800
 5449W        W 9649   8.262   1.059  11.692 -0.1089  0.1465 -0.0450
 5450W        W 9650  10.401   4.897   0.931 -0.0601 -0.0868 -0.5729
 5451W        W 9651   2.678   5.391   1.631  0.4466  0.2363 -0.0977
 5452W        W 9652   1.855   3.999   0.921  0.1142  0.0644  0.3506
 5453W        W 9653   9.248   5.622   2.076  0.1854  0.2813  0.0084
 5454W        W 9654   5.387   0.282   0.652  0.0892  0.0032  0.2267
 5455W        W 9655   3.838   7.160   0.401  0.0094  0.0391 -0.3180
 5456W        W 9656   9.250   0.909   2.505  0.0648  0.0465 -0.0579
 5457W        W 9657  10.077   6.457  12.018  0.0875 -0.2923 -0.1024
 5458W        W 9658   0.754   7.705   1.034  0.3172  0.0608 -0.0413
 5459W        W 9659   3.019   6.353   3.686  0.1856 -0.1588  0.0219
 5460W        W 9660   4.799   7.948  10.037 -0.3352 -0.0947  0.0465
 5461W        W 9661  10.373   7.252   1.891 -0.1468  0.1243  0.0549
 5462W        W 9662   2.642   8.344   3.153 -0.0696 -0.2294 -0.1394
 5463W        W 9663  10.213   4.593   0.395  0.0483 -0.0532 -0.0217
 5464W        W 9664   5.483   5.804   0.530 -0.3721  0.0316 -0.0963
 5465W        W 9665   7.899   6.068   4.648 -0.1791  0.0696 -0.0092
 5466W        W 9666   0.392   4.612   3.962 -0.0321  0.2091 -0.3294
 5467W        W 9667   3.720   1.879   4.479  0.2072  0.0417 -0.0519
 5468W        W 9668   1.077   9.067   1.000  0.3768  0.1065  0.0058
 5469W        W 9669   9.694   2.519  10.335 -0.1498 -0.2453  0.0048
 5470W        W 9670   4.388   4.506   9.317 -0.1959  0.3380 -0.0930
 5471W        W 9671   2.406   9.100   2.859 -0.1761  0.0336 -0.0596
 5472W        W 9672   1.524   8.252  11.397  0.3154 -0.0992  0.0622
 5473W        W 9673   4.484   9.155  11.451 -0.1271  0.0238  0.3028
 5474W        W 9674   1.852   0.243   4.618  0.5544 -0.1697  0.0512
 5475W        W 9675   3.516   2.213  12.578  0.0897 -0.1815 -0.1643
 5476W        W 9676   4.780   1.099   0.992  0.0498  0.3998  0.0171
 5477W        W 9677   3.596   2.966   8.824 -0.1718 -0.0956 -0.4573
 5478W        W 9678   8.352   7.552   2.823  0.3315 -0.3168 -0.1295
 5479W        W 9679   4.081   0.551  13.475  0.1256 -0.2330  0.0006
 5480W        W 9680   2.918   8.528  11.150 -0.4364  0.1051  0.1206
 5481W        W 9681   8.783   8.811   9.580 -0.0117 -0.0908 -0.2365
 5482W        W 9682   7.302   0.890  11.710  0.1906 -0.0971  0.1211
 5483W        W 9683  10.303   7.313   0.653 -0.1963 -0.1652 -0.0647
 5484W        W 9684   4.875   1.996  10.437  0.2724 -0.1645 -0.1075
 5485W        W 9685   8.957   7.155   1.222 -0.2609 -0.0201  0.1237
 5486W        W 9686   9.678   2.700  12.634 -0.0581 -0.2187 -0.0277
 5487W        W 9687   7.969   3.533  12.886 -0.0068  0.0711  0.0219
 5488W        W 9688   5.619   1.774   5.101  0.0475  0.2438 -0.1447
 5489W        W 9689   7.333   8.814   0.417  0.0161 -0.0436  0.0093
 5490W        W 9690   2.894   9.282   0.888  0.3602  0.2471 -0.1374
 5491W        W 9691   5.622   9.293   2.861  0.3706 -0.2822  0.0613
 5492W        W 9692   5.980   0.419  13.373 -0.0800 -0.0716 -0.1363
 5493W        W 9693   2.988   9.785  12.143  0.1324  0.0827  0.0359
 5494W        W 9694   1.103   4.010   8.711  0.0942 -0.5049  0.2794
 5495W        W 9695   2.120   5.581   0.104  0.4351 -0.0795  0.0690
 5496W        W 9696  10.434   0.109   0.027  0.2221 -0.0482  0.2143
 5497W        W 9697   6.462   4.342  12.597  0.0226  0.1667 -0.0505
 5498W        W 9698   6.380   2.519   4.523  0.1371 -0.3201  0.1812
 5499W        W 9699   3.053   8.277   1.151  0.2292  0.0168 -0.2691
 5500W        W 9700   3.709   3.898   9.423 -0.0378 -0.3319 -0.0411
 5501W        W 9701   8.286   7.625  11.111 -0.1054 -0.1606 -0.1019
 5502W        W 9702   6.606   4.738   8.695 -0.1002 -0.0068 -0.1126
 5503W        W 9703   8.197   2.003   0.735  0.1502 -0.3932  0.2925
 5504W        W 9704   2.231   4.718   2.066 -0.1662  0.0808 -0.0824
 5505W        W 9705   0.653   0.252   0.769  0.3091 -0.3946 -0.2411
 5506W        W 9706   8.678   3.533   9.405 -0.1995 -0.1017 -0.0579
 5507W        W 9707   6.564   8.578  10.568 -0.3276 -0.0602 -0.0275
 5508W        W 9708   6.822   2.452  12.481 -0.0352 -0.1217  0.1985
 5509W        W 9709   5.355   1.856   1.822  0.2358 -0.0688 -0.0398
 5510W        W 9710   6.227   1.566  10.457  0.0394 -0.1584 -0.0796
 5511W        W 9711   4.799   8.588   1.764  0.4137  0.2330 -0.0247
 5512W        W 9712   1.370   3.615  12.487  0.0516 -0.0190 -0.0209
 5513W        W 9713   4.343   0.413  12.484 -0.2272 -0.2296 -0.1145
 5514W        W 9714   4.155   1.848   5.085 -0.1966 -0.1234  0.0434
 5515W        W 9715   0.176   1.376   8.396  0.0451 -0.1229 -0.0586
 5516W        W 9716   3.507   9.817   9.809  0.3638  0.3274 -0.2692
 5517W        W 9717  10.396   0.791   3.544 -0.0821  0.3210 -0.0064
 5518W        W 9718   6.328   7.027   1.031  0.3553  0.0665  0.2206
 5519W        W 9719   1.279   8.997   2.371  0.0961  0.1473  0.0247
 5520W        W 9720   6.414   8.813  11.427  0.0497 -0.0337 -0.1602
 5521W        W 9721  10.055   4.714   9.741  0.0275 -0.1216  0.0921
 5522W        W 9722   4.519   8.673  13.209 -0.0884  0.2872 -0.2284
 5523W        W 9723   2.493   3.597   1.888 -0.1502  0.2125 -0.2389
 5524W        W 9724   7.764   7.478   1.911 -0.1899 -0.1021 -0.3606
 5525W        W 9725   7.540   0.893   3.290 -0.2540 -0.3666  0.1289
 5526W        W 9726   3.031   9.009   9.073 -0.0648 -0.1539  0.0653
 5527W        W 9727   6.765   4.925   3.858  0.0945 -0.1396 -0.1290
 5528W        W 9728   0.151   2.605   0.712 -0.0300  0.1650  0.2376
 5529W        W 9729   1.706   2.939   1.665  0.0307  0.0955  0.0469
 5530W        W 9730   0.556   0.699   9.939 -0.2993 -0.0180 -0.0345
 5531W        W 9731   7.271   6.773  10.876 -0.1430  0.2260 -0.2314
 5532W        W 9732   5.679   0.265   0.161 -0.1606  0.1582  0.0426
 5533W        W 9733   8.919   2.439   0.602 -0.1314 -0.2051  0.3271
 5534W        W 9734   3.477   8.366   1.719  0.1906 -0.1017 -0.0035
 5535W        W 9735   5.058   3.980   1.182  0.0365  0.0079 -0.1775
 5536W        W 9736   0.460   7.945   0.674 -0.2890 -0.0764 -0.1600
 5537W        W 9737   2.124   2.677  10.969 -0.0993 -0.0439 -0.3144
 5538W        W 9738   8.116   7.988   2.574  0.4980  0.1408  0.0899
 5539W        W 9739   5.578   0.470   1.553 -0.0314  0.4006  0.1114
 5540W        W 9740   7.922   2.878  11.997 -0.0182  0.1849  0.0852
 5541W        W 9741   5.923   4.504  10.907 -0.4810 -0.3346 -0.0288
 5542W        W 9742   7.500  10.155   1.113 -0.0531 -0.1848 -0.1972
 5543W        W 9743   3.447   4.568  13.140  0.2464  0.0853  0.0561
 5544W        W 9744   5.763   6.832   3.072  0.2773  0.1079  0.2172
 5545W        W 9745   8.438   9.648  10.245  0.2467 -0.3121 -0.0072
 5546W        W 9746   3.820   1.652   1.412 -0.1370  0.0698  0.0398
 5547W        W 9747   4.288   4.638  12.496 -0.3675 -0.3823  0.1159
 5548W        W 9748   6.549   6.847  13.324  0.2459  0.3058  0.1775
 5549W        W 9749   3.168   8.906   3.630 -0.1869  0.4097  0.1137
 5550W        W 9750   9.034   3.173  10.207  0.1952 -0.1493 -0.0590
 5551W        W 9751   3.332   8.054   9.986  0.0011  0.1000  0.1259
 5552W        W 9752   1.788   5.611   2.973  0.0837 -0.1824 -0.0170
 5553W        W 9753   7.479   7.392   1.086 -0.2430  0.0872  0.0672
 5554W        W 9754   3.548   5.434   1.556  0.0471 -0.1371  0.0030
 5555W        W 9755   7.722   3.663   9.998 -0.1181 -0.0547 -0.1633
 5556W        W 9756   6.295   7.379   0.178  0.0365 -0.0504 -0.0336
 5557W        W 9757   1.854   0.675   2.334  0.1310  0.2358 -0.1768
 5558W        W 9758   1.525   4.892   0.443  0.1054  0.1178  0.0996
 5559W        W 9759   8.685   4.677  11.544  0.1793  0.2303  0.0678
 5560W        W 9760   7.236   2.058   4.247 -0.1244 -0.0994 -0.1113
 5561W        W 9761   6.281   8.695  11.996  0.0221 -0.1646 -0.1901
 5562W        W 9762   6.895  10.431  13.289  0.0931  0.1290  0.1753
 5563W        W 9763   6.093   8.610  10.349  0.1500  0.0868  0.0190
 5564W        W 9764   1.397   7.176   3.288 -0.3036  0.0668 -0.1154
 5565W        W 9765   5.783   4.500   9.662 -0.2074  0.1426 -0.0933
 5566W        W 9766   7.324   3.678   0.928 -0.1570 -0.0310 -0.0315
 5567W        W 9767   7.978   1.309   9.760 -0.2840  0.2954  0.1594
 5568W        W 9768   0.906   6.027   3.071 -0.2830  0.2856 -0.1109
 5569W        W 9769   3.583   2.442  13.051  0.2287  0.0046 -0.1256
 5570W        W 9770   4.864   5.272   2.660  0.1479 -0.1192  0.3022
 5571W        W 9771   5.374   6.259   9.256  0.3428  0.0464 -0.1465
 5572W        W 9772   6.261   5.657  12.226 -0.1115  0.1198  0.1031
 5573W        W 9773   3.770   5.967   9.488 -0.3192 -0.0547  0.0606
 5574W        W 9774   2.875   1.974  10.039 -0.2346  0.0568 -0.0675
 5575W        W 9775   9.265   3.844   2.775 -0.1663 -0.1996 -0.0331
 5576W        W 9776   4.181   9.627   2.201  0.2936  0.1581  0.3490
 5577W        W 9777   6.300   4.062   2.790  0.0987  0.0469  0.0135
 5578W        W 9778   6.258   5.951   2.818  0.0001 -0.0200  0.4283
 5579W        W 9779   2.631   9.591   2.149 -0.2435  0.1641 -0.0391
 5580W        W 9780   7.427   9.628   3.033 -0.1609 -0.0247  0.0495
 5581W        W 9781   4.984   9.183  10.081 -0.0469 -0.1360 -0.1358
 5582W        W 9782   1.310   7.146  12.164 -0.1507  0.2362  0.0001
 5583W        W 9783   2.978   2.656   1.559  0.2820 -0.1567  0.0010
 5584W        W 9784   9.914   2.684   1.254 -0.0950 -0.1935 -0.0295
 5585W        W 9785   5.017   7.459  10.751 -0.0376 -0.1622  0.1085
 5586W        W 9786   0.351   1.342  11.611  0.2501 -0.1337  0.1777
 5587W        W 9787   8.281   0.366  10.541 -0.1991 -0.1191  0.0542
 5588W        W 9788   2.586   4.278   5.220 -0.0502 -0.1000 -0.0568
 5589W        W 9789   5.548   0.142  13.217  0.3028 -0.1237  0.1713
 5590W        W 9790   6.030   7.323   1.794  0.1162 -0.1201 -0.1089
 5591W        W 9791  10.369   6.845   3.065 -0.2550  0.0708 -0.0268
 5592W        W 9792   5.571   0.398   2.770  0.2844  0.1878 -0.0832
 5593W        W 9793   4.512   0.736   0.453 -0.2338 -0.3096 -0.2015
 5594W        W 9794   8.183   2.781  13.028  0.1892  0.1695 -0.1523
 5595W        W 9795   7.268   2.247  12.326 -0.1552  0.1520 -0.2697
 5596W        W 9796   1.731   9.264   4.610 -0.2023  0.2202 -0.0267
 5597W        W 9797   5.341   1.377  11.989  0.1289  0.2006  0.1095
 5598W        W 9798   1.481   4.881   9.575  0.1996  0.0954  0.0829
 5599W        W 9799   1.003   5.511   3.004  0.0310 -0.2923  0.1806
 5600W        W 9800   9.163   0.687   1.362 -0.0361 -0.0296 -0.0704
 5601W        W 9801   1.697   0.199   3.559  0.2353  0.4249  0.0276
 5602W        W 9802   4.340   6.902   3.455 -0.0214  0.0147 -0.1211
 5603W        W 9803   0.926   4.911  11.438  0.3516  0.3014 -0.5718
 5604W        W 9804   1.444   3.441  13.059  0.3329  0.1051 -0.0589
 5605W        W 9805   3.111   5.316   9.947 -0.1909 -0.2657  0.0827
 5606W        W 9806   5.070   7.782   1.738  0.0357  0.1520  0.0501
 5607W        W 9807   1.393   7.403  12.925  0.2938 -0.0147  0.1074
 5608W        W 9808   0.264   6.579  11.848  0.1186 -0.0729  0.3884
 5609W        W 9809   7.644   2.168  13.407 -0.4186 -0.3732 -0.0421
 5610W        W 9810   6.161   8.525   1.458  0.2812 -0.0047 -0.1568
 5611W        W 9811   9.720   2.276   3.142  0.1580  0.0900 -0.0703
 5612W        W 9812   0.614   5.832   4.443 -0.0270 -0.4065  0.2767
 5613W        W 9813   1.721   2.023   2.269  0.0298 -0.5428 -0.3267
 5614W        W 9814   7.198   8.850   0.915  0.2326  0.1886 -0.0578
 5615W        W 9815   7.030   6.221   2.759 -0.1535  0.1233  0.0990
 5616W        W 9816   2.914   2.375  10.378 -0.0037  0.0447  0.1366
 5617W        W 9817   2.796   7.385  11.849  0.1888  0.2432 -0.2165
 5618W        W 9818   4.456   7.636   3.860 -0.0467  0.0493 -0.0940
 5619W        W 9819   7.501   8.828  10.690 -0.0088 -0.1007 -0.0062
 5620W        W 9820   1.475   7.634   9.324  0.0543 -0.2940  0.0822
 5621W        W 9821   5.581   8.059  10.734  0.1497  0.2370 -0.0795
 5622W        W 9822  10.263   3.544  12.685 -0.0350 -0.1735 -0.0875
 5623W        W 9823   7.473   1.145  10.866 -0.0760  0.2874 -0.1027
 5624W        W 9824  10.304   7.633   2.139 -0.0408 -0.1948 -0.0023
 5625W        W 9825   8.112   2.526   4.947 -0.0442  0.2419  0.3548
 5626W        W 9826   9.663   1.842   1.580 -0.1965  0.4568  0.2340
 5627W        W 9827   3.918   2.175   3.788 -0.0722  0.3598 -0.0304
 5628W        W 9828   7.429   1.203   1.362 -0.0386 -0.4478  0.1336
 5629W        W 9829   7.992   9.672  13.057 -0.1843 -0.0260  0.3100
 5630W        W 9830   8.213   1.778   2.305  0.0125 -0.1520 -0.0355
 5631W        W 9831   2.571   7.364   4.486  0.0938  0.1012 -0.0152
 5632W        W 9832   9.823   8.265  12.377  0.3524 -0.1512  0.1993
 5633W        W 9833   3.573   4.878  10.798 -0.1682  0.0715 -0.1110
 5634W        W 9834   9.152   6.542  11.089 -0.1197  0.0679  0.2268
 5635W        W 9835   3.131   4.117   2.456 -0.3232 -0.0894 -0.0692
 5636W        W 9836   1.441   5.560   8.822 -0.0711  0.0085  0.2036
 5637W        W 9837   5.210   9.370   0.806 -0.0743  0.0357  0.0328
 5638W        W 9838   0.340   9.191   9.793  0.4510  0.3999 -0.2295
 5639W        W 9839   8.213   7.567   2.287 -0.1213  0.1778 -0.1047
 5640W        W 9840   2.095   4.489   3.980  0.2704  0.1752 -0.2342
 5641W        W 9841   7.310   0.991  12.236  0.1776  0.1530 -0.3300
 5642W        W 9842   1.295  10.006   3.257 -0.0321 -0.3695 -0.4246
 5643W        W 9843   2.909   4.626  10.331  0.1174 -0.2184  0.0121
 5644W        W 9844   3.648   3.158   0.740 -0.1478 -0.0525  0.1161
 5645W        W 9845   6.654   1.241  10.384  0.0870 -0.1441  0.0409
 5646W        W 9846  10.006   9.237   2.001 -0.1252  0.2772 -0.0638
 5647W        W 9847   9.379   5.235   1.749  0.1030  0.0046 -0.0979
 5648W        W 9848   2.598   0.651  12.252 -0.2138 -0.0959 -0.0545
 5649W        W 9849   1.427   9.947  12.855  0.0175 -0.1548 -0.1320
 5650W        W 9850   6.797   6.582  10.908  0.0880  0.0965 -0.1223
 5651W        W 9851   1.552   9.914  13.308  0.1092 -0.1904 -0.0081
 5652W        W 9852   1.960   5.663   0.616  0.0673 -0.1175  0.0732
 5653W        W 9853   8.176   6.312   1.498 -0.0139 -0.2042  0.0780
 5654W        W 9854   5.396   2.892  12.900  0.1672  0.1144  0.0461
 5655W        W 9855   4.427   4.324  12.026  0.0386  0.1677 -0.0794
 5656W        W 9856   7.979   3.185   3.314 -0.0621  0.0768  0.0759
 5657W        W 9857   1.799   0.479   1.856  0.2986  0.1276 -0.3858
 5658W        W 9858   3.432   4.444   4.040 -0.2109  0.3464  0.0264
 5659W        W 9859  10.244   4.599  12.087  0.1782  0.0685  0.2883
 5660W        W 9860   1.454   1.895   2.709 -0.1470 -0.0561 -0.0600
 5661W        W 9861   7.722   7.039   9.405  0.3241 -0.1616 -0.1541
 5662W        W 9862   4.283   9.303   3.318  0.1054 -0.2232 -0.0546
 5663W        W 9863   3.261   3.004  10.240  0.0725 -0.0727 -0.2543
 5664W        W 9864   9.392   2.314  10.663  0.2302 -0.2374  0.2158
 5665W        W 9865   3.251   5.013  11.172 -0.0428  0.2657  0.0514
 5666W        W 9866   3.417   8.633  11.272  0.0105  0.0551  0.0395
 5667W        W 9867   7.319   4.222   3.798 -0.3090  0.3260  0.4338
 5668W        W 9868   8.255   8.909   1.597 -0.0026 -0.0454  0.2050
 5669W        W 9869   6.817   4.792   2.512  0.2925  0.0234 -0.1295
 5670W        W 9870   6.646   7.452   0.548  0.2057 -0.3113 -0.0427
 5671W        W 9871   3.571   6.260   4.982 -0.2895 -0.1156 -0.1244
 5672W        W 9872   0.497   0.640  13.338 -0.3651 -0.1987  0.1312
 5673W        W 9873   6.885   2.708   0.677  0.0452 -0.0057  0.0212
 5674W        W 9874   1.611   2.920  11.439 -0.3143  0.1729  0.1454
 5675W        W 9875  10.071   9.847   3.173  0.4167 -0.3489 -0.3056
 5676W        W 9876   6.603   3.248  11.644  0.1432  0.2949 -0.4210
 5677W        W 9877   9.371   5.407   9.539  0.1249 -0.0721 -0.2708
 5678W        W 9878   1.664   9.907   4.179  0.1733  0.1126 -0.4482
 5679W        W 9879   9.074   4.913   2.569 -0.1695  0.1877 -0.1088
 5680W        W 9880   7.514   4.109  10.836 -0.1140  0.1398 -0.2971
 5681W        W 9881   0.909   6.226  13.211  0.0343  0.0861 -0.3097
 5682W        W 9882   3.635   9.710   3.046 -0.1506 -0.0301 -0.3821
 5683W        W 9883   2.968   3.745   3.684 -0.1736 -0.1047  0.3162
 5684W        W 9884   8.429   7.138  11.180 -0.0105 -0.0153 -0.4724
 5685W        W 9885  10.449   6.147  10.615  0.1534  0.0867  0.0336
 5686W        W 9886   1.470   2.365   9.816  0.0251  0.0683 -0.0358
 5687W        W 9887   6.482   1.593   4.868  0.5207 -0.2028  0.0290
 5688W        W 9888   6.198   5.024  11.498  0.2939  0.1783 -0.0948
 5689W        W 9889   7.306   9.935   2.418  0.0871 -0.2282 -0.1265
 5690W        W 9890   1.929   4.290   0.219 -0.0088  0.1673 -0.1804
 5691W        W 9891   0.920   9.453  11.515 -0.2251 -0.1243 -0.0616
 5692W        W 9892   4.776   9.601   0.884  0.1156 -0.1234  0.1700
 5693W        W 9893   2.146   8.291   1.331  0.5426 -0.2249 -0.1167
 5694W        W 9894   1.836   7.127  13.292  0.0469 -0.3817  0.2782
 5695W        W 9895   8.340   4.844   2.030  0.3194  0.1674  0.2746
 5696W        W 9896   0.944   6.743   9.800 -0.2230  0.0453  0.1236
 5697W        W 9897   4.592   4.586   1.408 -0.4372 -0.0793  0.0545
 5698W        W 9898   7.971   7.764  10.674  0.1449  0.2078 -0.0362
 5699W        W 9899   0.455   7.059   9.775  0.1485  0.1027  0.1732
 5700W        W 9900   2.635   2.579   0.605 -0.0464 -0.1117 -0.0217
 5701W        W 9901   3.559   1.227   1.498  0.1311  0.0994  0.0093
 5702W        W 9902   9.687   9.098  10.019 -0.0739 -0.0207  0.0857
 5703W        W 9903   5.048   0.094  11.853 -0.0347  0.1563 -0.1694
 5704W        W 9904   5.160   7.015  12.000 -0.2829  0.1006  0.4677
 5705W        W 9905   5.429   9.764   2.128 -0.3100 -0.0238  0.0621
 5706W        W 9906   7.004   4.067   9.525  0.1481 -0.0406  0.4546
 5707W        W 9907   1.413   6.398  10.473  0.1204 -0.3046  0.0278
 5708W        W 9908   8.359   6.211  11.656 -0.1644 -0.0023  0.0480
 5709W        W 9909   1.135   6.559   3.943 -0.3524  0.1120  0.1063
 5710W        W 9910   3.832   8.011   2.749 -0.1666  0.1135  0.5703
 5711W        W 9911   6.986   2.229   0.608  0.2988  0.1091  0.1150
 5712W        W 9912   8.525   6.641   1.758 -0.0069 -0.0648 -0.2263
 5713W        W 9913   5.721   3.283  12.823  0.1695 -0.2242  0.0757
 5714W        W 9914   4.628   7.189   3.690  0.1231 -0.4504  0.0395
 5715W        W 9915   1.026   3.494   1.104  0.1813 -0.0518  0.2161
 5716W        W 9916   5.779   6.301   3.505 -0.0050 -0.1601 -0.3500
 5717W        W 9917   0.440   7.426   9.267 -0.2798 -0.2324 -0.2215
 5718W        W 9918  10.222   5.291   1.312  0.0986 -0.0443  0.0351
 5719W        W 9919   9.163   7.153  12.264 -0.1261  0.1855  0.1262
 5720W        W 9920   3.280   9.466  11.942  0.0981  0.0117 -0.0244
 5721W        W 9921   4.496   0.137  11.164 -0.1100  0.1491 -0.1267
 5722W        W 9922   1.442   3.613   2.257 -0.0430 -0.1080 -0.2450
 5723W        W 9923   8.176   7.650   0.296  0.1251  0.2030 -0.2315
 5724W        W 9924   7.137   0.559   4.192 -0.0370  0.2305 -0.2391
 5725W        W 9925   4.100   4.030  10.932 -0.3744 -0.1187 -0.2187
 5726W        W 9926   9.830   6.566  12.429  0.2165  0.0036  0.1763
 5727W        W 9927   6.231   6.767   2.827 -0.0475 -0.1937  0.0369
 5728W        W 9928   0.979   2.283   1.601  0.3002 -0.2168 -0.1058
 5729W        W 9929   8.388   2.265   2.435  0.0177  0.1192 -0.2751
 5730W        W 9930   1.254   6.348   3.245  0.1260 -0.3095  0.1466
 5731W        W 9931   2.719   3.060   1.836 -0.0930 -0.0933 -0.0604
 5732W        W 9932   6.488   6.404   1.885 -0.2001 -0.0667  0.1004
 5733W        W 9933   3.776   8.829   9.590 -0.2073 -0.2842 -0.0090
 5734W        W 9934   8.715   2.874   3.983 -0.1348  0.2450  0.0543
 5735W        W 9935   6.356   2.171   4.109 -0.0001 -0.0293  0.0918
 5736W        W 9936   3.437   3.695   0.668 -0.1766 -0.1713  0.2339
 5737W        W 9937   2.893   5.019   0.030  0.1810  0.0226 -0.0447
 5738W        W 9938   2.602   6.403   9.824  0.0780  0.0325  0.1994
 5739W        W 9939   6.856   4.393   1.735 -0.0632  0.1645  0.0162
 5740W        W 9940   9.147   7.466   9.883 -0.0068  0.1113 -0.0877
 5741W        W 9941   1.762   7.819   2.043  0.2082  0.2944  0.0368
 5742W        W 9942   4.938   7.496   9.256 -0.2827 -0.0364  0.1844
 5743W        W 9943   8.066   7.226   3.384 -0.2986 -0.0647  0.0287
 5744W        W 9944   8.643   5.461   1.158  0.0552 -0.1221 -0.0478
 5745W        W 9945   1.070   2.468   1.091 -0.2360  0.2758  0.0479
 5746W        W 9946   1.932   4.112   4.429  0.0351  0.0969 -0.2543
 5747W        W 9947   0.421   5.086   2.649  0.1143  0.0306  0.4780
 5748W        W 9948   4.501   3.916  10.669 -0.4271 -0.2875 -0.0440
 5749W        W 9949   3.130   1.800   5.675  0.0548 -0.0021  0.1086
 5750W        W 9950   6.003   0.264   3.295  0.0171 -0.1276  0.1423
 5751W        W 9951   3.416   3.718   2.925 -0.2178 -0.2238 -0.2880
 5752W        W 9952   1.564   5.825   0.930  0.1850 -0.1608 -0.1651
 5753W        W 9953   7.479   3.185   9.905  0.0877 -0.1374 -0.0803
 5754W        W 9954   5.275   4.603   3.434  0.1421  0.1497  0.0851
 5755W        W 9955   6.756   9.087   0.747  0.0842 -0.1134 -0.1091
 5756W        W 9956   2.412   2.564  10.370 -0.0088  0.0530 -0.0146
 5757W        W 9957   6.481   1.560   2.942 -0.1459  0.0831  0.3002
 5758W        W 9958   7.960   1.905  11.197  0.1531 -0.0778 -0.1317
 5759W        W 9959   5.264   4.472  13.292 -0.1685  0.1482 -0.4250
 5760W        W 9960   3.920   8.016  11.878 -0.1494  0.0722  0.0578
 5761W        W 9961   9.285   4.829   2.085  0.0865  0.0461 -0.0868
 5762W        W 9962   8.032   9.993  10.092 -0.3226  0.2278  0.2439
 5763W        W 9963  10.365   5.452   9.879 -0.1153 -0.0250 -0.0175
 5764W        W 9964   3.615   8.676  10.522  0.1050  0.0928 -0.1558
 5765W        W 9965   2.156   6.022  12.040 -0.0691 -0.0447 -0.3098
 5766W        W 9966   7.449   1.257   3.681 -0.0067 -0.2722  0.0678
 5767W        W 9967   4.256   2.743   0.249  0.3627 -0.0570  0.0833
 5768W        W 9968   6.225  10.077   9.687 -0.0500 -0.0203  0.2463
 5769W        W 9969   9.672   0.488  12.816 -0.3447 -0.0580 -0.2450
 5770W        W 9970   9.940   3.908  12.819  0.0113 -0.4423  0.0380
 5771W        W 9971   4.177   4.967   4.506  0.1647  0.2691 -0.1055
 5772W        W 9972  10.443   8.033  11.506 -0.1656 -0.0882 -0.1871
 5773W        W 9973   1.670   9.220   2.638  0.2697  0.2572  0.0100
 5774W        W 9974   2.278   0.844   2.967 -0.0910  0.2291  0.0056
 5775W        W 9975   4.798   6.331  13.086 -0.2005  0.1052  0.1590
 5776W        W 9976  10.076   2.675  11.645 -0.0229  0.0433  0.1594
 5777W        W 9977   1.975   4.887   3.573  0.1602 -0.0930 -0.0267
 5778W        W 9978   5.782   1.294  10.607  0.0203  0.2499  0.0709
 5779W        W 9979  10.126   0.170  11.443 -0.0863  0.0891 -0.1177
 5780W        W 9980   8.814   7.658  10.239 -0.1046 -0.2056 -0.3120
 5781W        W 9981  10.355   1.440   5.477  0.0396 -0.2089  0.0027
 5782W        W 9982   0.294   0.788   5.084  0.0138 -0.0312 -0.5138
 5783W        W 9983   4.840   4.725  13.321  0.0478 -0.2189 -0.2524
 5784W        W 9984   5.050   7.735   2.637 -0.2024 -0.2427 -0.0343
 5785W        W 9985   7.786   4.591   8.769 -0.5113 -0.2512  0.1965
 5786W        W 9986   9.875   3.091   3.838 -0.2919 -0.0732  0.2193
 5787W        W 9987   7.831   5.599   4.196  0.1018  0.1912 -0.0086
 5788W        W 9988   6.869   5.272  10.874 -0.2328  0.0159 -0.0518
 5789W        W 9989  10.282   7.375   2.711 -0.0458  0.0541  0.0094
 5790W        W 9990   8.375   5.871   2.781  0.2130  0.1416  0.0600
 5791W        W 9991   7.776   2.228   0.891 -0.1631  0.0187 -0.1674
 5792W        W 9992   5.741   8.190  11.723 -0.1673  0.0930 -0.0543
 5793W        W 9993   4.594   6.320   2.350  0.2003 -0.1364 -0.1493
 5794W        W 9994   3.843   6.644  12.449  0.1046  0.2576 -0.2949
 5795W        W 9995   2.557   1.252  10.073 -0.1125 -0.0601 -0.3690
 5796W        W 9996   5.516   4.972  10.468  0.0114 -0.5517  0.4490
 5797W        W 9997   5.721  10.449  12.285  0.2672 -0.0554  0.2398
 5798W        W 9998   8.812  10.110  10.095 -0.2520 -0.1418 -0.1089
 5799W        W 9999   6.072   3.063   1.227 -0.2528  0.1730  0.2157
 5800W        W10000   8.584   4.446   1.795  0.3261 -0.0597  0.2854
 5801W        W10001   4.292   0.159   0.315  0.1293 -0.1496 -0.3139
 5802W        W10002   4.564   2.437   2.004 -0.4103 -0.2162  0.2045
 5803W        W10003   1.807   3.159   0.710  0.1801 -0.0381 -0.2143
 5804W        W10004   7.187   1.613  12.959  0.5334  0.0859  0.1592
 5805W        W10005   4.072   0.872  11.533 -0.1646 -0.3009 -0.1657
 5806W        W10006   8.493   9.670  12.883 -0.2758 -0.0862 -0.1432
 5807W        W10007   2.676   7.175   3.574  0.3943 -0.0936  0.1444
 5808W        W10008   9.264   7.699  13.008 -0.2446 -0.0067 -0.0921
 5809W        W10009   1.597   8.762  11.655 -0.0455 -0.0267  0.3622
 5810W        W10010   4.710   5.696  11.973  0.0831 -0.0710 -0.0217
 5811W        W10011   2.815   1.747  12.109  0.0419  0.0890 -0.0266
 5812W        W10012  10.004   4.149   0.314 -0.0176  0.1049 -0.2799
 5813W        W10013   1.833   0.992  13.296 -0.3683 -0.2142 -0.0825
 5814W        W10014   2.961   4.481   4.452  0.1913  0.2725  0.0115
 5815W        W10015   3.730  10.370   3.713 -0.1597  0.0482  0.3091
 5816W        W10016   2.848   7.292   2.651  0.2206  0.1073 -0.1454
 5817W        W10017   1.629   3.201   9.935  0.2435 -0.0840 -0.0214
 5818W        W10018   9.636   5.238   4.334 -0.1247  0.2542  0.0718
 5819W        W10019   6.190   2.784   0.087  0.1950  0.0381 -0.1680
 5820W        W10020   3.902  10.378  12.486  0.0795 -0.0008  0.0683
 5821W        W10021   1.828   0.144   8.880 -0.1620 -0.1259  0.1210
 5822W        W10022   5.686   2.736   1.713  0.2987  0.1156 -0.1384
 5823W        W10023   1.059   2.909   2.611  0.2442 -0.1066 -0.0784
 5824W        W10024   1.646   5.928   3.377 -0.0466  0.0302 -0.1621
 5825W        W10025   5.257   2.610   4.222 -0.0911  0.1479  0.0163
 5826W        W10026   3.800   8.191  12.452  0.0875  0.0155  0.2500
 5827W        W10027   7.700   8.361   3.208 -0.0471  0.4724 -0.0004
 5828W        W10028   3.471   1.182  12.577 -0.2161  0.1048  0.0483
 5829W        W10029   3.115   9.952   4.529  0.2092 -0.1953  0.1200
 5830W        W10030   0.208   5.409   1.608  0.1265  0.0417 -0.0242
 5831W        W10031   2.577   2.067   2.609 -0.1605  0.0672  0.2571
 5832W        W10032   6.223   7.782  11.231  0.2344 -0.2938  0.0784
 5833W        W10033   7.409   1.686   5.143 -0.0118 -0.0464  0.0621
 5834W        W10034   9.636   0.060   3.748  0.1153  0.2457 -0.0746
 5835W        W10035   4.549   0.468   2.438 -0.0247 -0.0391  0.3864
 5836W        W10036   7.021   2.595   1.117  0.3287 -0.0917 -0.1546
 5837W        W10037   3.728   0.257   0.275  0.1164 -0.0477 -0.0891
 5838W        W10038   2.799   1.502   3.191 -0.3355 -0.0467 -0.2315
 5839W        W10039   6.785   1.944   4.264 -0.0454 -0.0843  0.0148
 5840W        W10040   1.224   1.387   3.726 -0.4778 -0.1237  0.0627
 5841W        W10041   3.424   9.729  13.207 -0.1543  0.2614  0.3686
 5842W        W10042   3.856   7.042  11.362 -0.1793 -0.2879  0.2070
 5843W        W10043   9.482   5.716   3.789  0.2761 -0.1587 -0.1485
 5844W        W10044   3.895   5.908   3.312  0.0968  0.0863 -0.2034
 5845W        W10045   6.836   4.479   0.697 -0.0666 -0.1092 -0.1639
 5846W        W10046   0.865   5.471  12.580  0.0956 -0.1572  0.0591
 5847W        W10047   4.303   0.297   5.501 -0.4032 -0.0028 -0.0573
 5848W        W10048   3.958   9.864  13.160  0.2829  0.2394 -0.0918
 5849W        W10049   3.358   1.087  13.127 -0.2621 -0.1020 -0.0877
 5850W        W10050   7.342   4.948   3.136  0.1056  0.0854 -0.0867
 5851W        W10051   9.031   5.876   1.051  0.0752 -0.1066 -0.0127
 5852W        W10052   6.044   9.871   3.640 -0.1354 -0.0899  0.1254
 5853W        W10053   0.751   5.367  11.417 -0.1280  0.0841 -0.1686
 5854W        W10054   1.274   5.549  12.113 -0.0690  0.2229 -0.1122
 5855W        W10055   2.315   5.212   2.064  0.3530  0.2461  0.0596
 5856W        W10056   3.193   9.955  10.711 -0.0222  0.3715 -0.1600
 5857W        W10057   8.065   8.620  10.145  0.3030  0.2887 -0.2935
 5858W        W10058   6.432   2.076   4.653  0.1848  0.3473 -0.2062
 5859W        W10059   3.644   6.556  11.509 -0.0218  0.1735  0.0382
 5860W        W10060   5.151   2.612   3.701 -0.3563 -0.0707 -0.4388
 5861W        W10061   5.125   9.415   2.324  0.0232  0.1172  0.1015
 5862W        W10062   8.970   4.221   0.206  0.1961 -0.0248 -0.1667
 5863W        W10063  10.202   4.055   1.725 -0.0926 -0.1846 -0.2739
 5864W        W10064   7.035   0.849  10.570 -0.2014 -0.2161  0.1437
 5865W        W10065   2.079   8.101   4.249  0.3001  0.2338  0.0998
 5866W        W10066   4.670   4.750   3.795 -0.2845  0.2411  0.1543
 5867W        W10067   7.776   2.633  10.199  0.1613  0.1585 -0.1197
 5868W        W10068   1.804   1.064   3.033  0.1346 -0.1630  0.0017
 5869W        W10069   4.221   9.647  12.165  0.0823 -0.0489 -0.3074
 5870W        W10070   0.758   2.244   9.455  0.0030  0.2984  0.2989
 5871W        W10071   1.485   2.834   8.692  0.1891  0.1062  0.0023
 5872W        W10072  10.074   0.232   4.738 -0.0293 -0.2333 -0.3872
 5873W        W10073   4.907   6.433  10.685  0.0030 -0.6014  0.2041
 5874W        W10074   8.117   0.793   1.951 -0.2595  0.0377  0.0875
 5875W        W10075   1.638   4.669  13.446 -0.1414 -0.1566  0.2322
 5876W        W10076   3.555   8.537   2.240 -0.0823 -0.1211 -0.2608
 5877W        W10077   8.213   2.901   5.354 -0.6412  0.0470 -0.0035
 5878W        W10078   1.045   3.920   1.405 -0.0862  0.0870  0.0724
 5879W        W10079   7.593   6.329   9.978  0.2846  0.1359  0.2933
 5880W        W10080   6.045   9.468  12.404  0.2880 -0.2738 -0.1050
 5881W        W10081   5.868   6.817   0.704  0.2741  0.1090  0.0804
 5882W        W10082   0.015   1.759   2.563  0.1423 -0.1823 -0.0563
 5883W        W10083   7.197   5.318  10.441  0.3476 -0.0400 -0.0205
 5884W        W10084   7.672   9.261   0.447 -0.1925  0.0054 -0.1059
 5885W        W10085   9.999   0.220   9.989  0.1124  0.2425 -0.0798
 5886W        W10086   1.630   8.090   1.242 -0.0768  0.2816  0.1826
 5887W        W10087   6.985   2.731  10.693 -0.2467 -0.1012  0.3629
 5888W        W10088   4.232   3.808   2.432  0.0694  0.2626  0.1478
 5889W        W10089   3.166   2.280  11.795  0.2293 -0.3000  0.0759
 5890W        W10090   4.133   3.254   0.069  0.0797 -0.0507 -0.0103
 5891W        W10091   8.484   2.584   2.860 -0.1380  0.1625  0.3184
 5892W        W10092   9.381   0.262  11.472 -0.2429 -0.3239  0.1345
 5893W        W10093   6.421   3.669  11.392 -0.0635  0.2003  0.1812
 5894W        W10094   3.271   1.926  12.166  0.2387  0.0037  0.0776
 5895W        W10095   0.461   4.667   1.201 -0.5469 -0.2964  0.0086
 5896W        W10096   5.542   6.609   2.028 -0.1217 -0.0443  0.1076
 5897W        W10097   4.764   9.370  10.902 -0.1116  0.0933  0.2051
 5898W        W10098   4.316   5.405   0.345 -0.2875  0.2588 -0.1914
 5899W        W10099   1.239   3.260   4.425 -0.0434  0.0906  0.1137
 5900W        W10100   6.172   3.257  12.684 -0.2436  0.0639  0.2142
 5901W        W10101   7.776   2.106   9.266 -0.1719  0.0868  0.2163
 5902W        W10102   2.166   4.480   2.540  0.1588 -0.1198 -0.2194
 5903W        W10103   2.615   9.130   4.965  0.0641  0.1526  0.0835
 5904W        W10104   9.820   9.081   4.232 -0.1378 -0.3102 -0.1461
 5905W        W10105   8.525   4.363   2.323  0.1499  0.1091 -0.1401
 5906W        W10106   7.245   7.198  11.785 -0.0050 -0.0105 -0.0975
 5907W        W10107   3.699   2.723  12.628 -0.2033  0.3116  0.1111
 5908W        W10108   9.297   6.636   3.213  0.1585 -0.2090  0.0865
 5909W        W10109   5.267   4.745  12.839  0.0078  0.0453 -0.2099
 5910W        W10110   2.826   3.837   2.806  0.1225 -0.2090 -0.0706
 5911W        W10111   9.965   8.769   2.157  0.1947  0.1211  0.0471
 5912W        W10112   5.482   5.854   4.901  0.1974 -0.0886  0.2506
 5913W        W10113   6.146   2.025  10.317  0.1660 -0.1052  0.0633
 5914W        W10114   6.232   8.759   2.837 -0.0200  0.2452  0.2030
 5915W        W10115   4.889   9.858   2.038 -0.2218 -0.1301 -0.0279
 5916W        W10116   4.319   6.205   9.546 -0.0043  0.1939 -0.3847
 5917W        W10117   7.488   3.541   2.699 -0.4353  0.0973  0.2895
 5918W        W10118   2.382   8.531   2.730 -0.1606 -0.1062  0.1152
 5919W        W10119   3.944   6.250  12.785  0.5494 -0.0881 -0.1290
 5920W        W10120   5.015   1.292  12.385 -0.1103 -0.0524  0.3461
 5921W        W10121   2.607   2.167   0.766  0.1093 -0.0646 -0.1349
 5922W        W10122   3.862   6.514   9.508  0.2071 -0.0511 -0.0624
 5923W        W10123   8.693   1.854   0.774  0.5347 -0.0156 -0.4395
 5924W        W10124   5.115   4.431   3.874 -0.2345  0.0719  0.0802
 5925W        W10125   5.394   4.780   1.392 -0.2909  0.1002  0.0605
 5926W        W10126  10.306   3.278   3.441  0.0388  0.1038  0.2163
 5927W        W10127   1.903  10.265   1.257  0.0001  0.0339 -0.1022
 5928W        W10128   8.205   7.165   0.270  0.0703 -0.2175 -0.0017
 5929W        W10129   5.465   0.050   4.854 -0.0239 -0.2027  0.0379
 5930W        W10130   5.602   7.503   1.424 -0.1055  0.2589  0.1336
 5931W        W10131   9.585   7.486   3.475  0.2245 -0.0185 -0.2731
 5932W        W10132   2.263   6.786   3.639  0.1141  0.1161  0.1251
 5933W        W10133   1.928   6.562  10.417 -0.1418 -0.4424  0.1170
 5934W        W10134   3.481   7.579  11.378  0.1320 -0.2758  0.2038
 5935W        W10135   5.033   6.532   1.738 -0.1359  0.2586  0.0340
 5936W        W10136   3.111   3.988   5.347 -0.0377  0.1454  0.3714
 5937W        W10137   4.492   9.237  12.537 -0.0625 -0.0657 -0.3428
 5938W        W10138   2.887   5.392  11.933 -0.0693 -0.0250  0.1835
 5939W        W10139   0.609   2.211   1.998  0.0503 -0.4517  0.0437
 5940W        W10140   7.343   4.492   2.417 -0.0686 -0.1055 -0.0528
 5941W        W10141   3.062   8.161  10.657  0.1020 -0.1834 -0.0895
 5942W        W10142   0.619   0.012   2.718  0.1266 -0.2162  0.1771
 5943W        W10143   7.196   7.894   2.629  0.0257  0.1135 -0.1255
 5944W        W10144  10.199   0.869   1.043 -0.3287 -0.0406 -0.0733
 5945W        W10145   9.002   1.815  11.521  0.2806  0.0034 -0.1555
 5946W        W10146   7.508   4.473   4.951  0.0760  0.3343  0.0025
 5947W        W10147  10.348  10.066  12.433  0.0459  0.3762  0.1050
 5948W        W10148   2.729   3.939  13.137  0.0482  0.0886 -0.3025
 5949W        W10149   7.864   9.882   0.837 -0.1380  0.2691 -0.2145
 5950W        W10150   9.068   4.908  11.880  0.0242  0.0609 -0.3475
 5951W        W10151   7.080   1.911  12.060  0.0701 -0.4298  0.0732
 5952W        W10152   0.121   4.857  11.683 -0.3064  0.0934 -0.1243
 5953W        W10153   3.489   3.000   3.286  0.0092 -0.0504 -0.0962
 5954W        W10154   8.837   3.690  11.387 -0.2941 -0.1534 -0.0481
 5955W        W10155   3.882   9.436   5.257  0.0984  0.0796  0.0483
 5956W        W10156   6.053   9.326  10.887 -0.2274  0.0635 -0.0906
 5957W        W10157   4.800   1.793  11.157 -0.2440  0.0538 -0.0670
 5958W        W10158   7.454   9.085   2.192  0.0600 -0.1111 -0.2081
 5959W        W10159   3.630   2.084  10.945 -0.0028  0.0491 -0.0584
 5960W        W10160   1.838   4.649  12.967 -0.2268  0.1420 -0.0002
 5961W        W10161   8.514   5.247   9.358  0.1737  0.2013 -0.0047
 5962W        W10162   9.010   5.438   3.080  0.0077 -0.0735  0.1097
 5963W        W10163   5.600   4.764   3.893 -0.1302 -0.0445  0.6260
 5964W        W10164   8.314   1.052   2.803 -0.0347 -0.0220 -0.1439
 5965W        W10165   4.881   5.962   2.429  0.2229  0.0962  0.1113
 5966W        W10166   3.546   6.160   0.118  0.2592 -0.2134  0.0431
 5967W        W10167   7.560   4.823   1.190  0.0091  0.0374 -0.1966
 5968W        W10168   7.586   2.426   4.946  0.2722 -0.0085 -0.1690
 5969W        W10169   6.627   0.224  11.646  0.2752  0.0970 -0.1805
 5970W        W10170   6.976   0.402   3.697  0.1031 -0.0280 -0.0134
 5971W        W10171   6.736   2.146  10.737  0.0046 -0.3979 -0.3976
 5972W        W10172   9.686   4.491   0.597  0.0165 -0.3070 -0.0897
 5973W        W10173   9.440   5.936   9.797  0.2749  0.2338  0.2248
 5974W        W10174   6.204   4.365   1.452  0.1711 -0.2047 -0.0113
 5975W        W10175   1.253   4.052   0.921 -0.0360 -0.0297  0.0937
 5976W        W10176   0.203   9.769   0.447 -0.0916  0.2343  0.1437
 5977W        W10177   8.474   4.008   3.474 -0.3848 -0.0282  0.1454
 5978W        W10178   5.488   4.375  11.705 -0.1236 -0.0021  0.1984
 5979W        W10179   4.429   9.169   8.619 -0.1304  0.1341 -0.1084
 5980W        W10180   3.372   0.132  13.476 -0.0705  0.1110 -0.0492
 5981W        W10181   0.841   4.404  11.514  0.0837 -0.1039 -0.2186
 5982W        W10182   0.318   3.088   2.112  0.0095 -0.1418 -0.2188
 5983W        W10183   9.285   1.114   1.091 -0.0946  0.3124  0.2298
 5984W        W10184   2.584  10.149  12.260  0.0036 -0.1197 -0.0125
 5985W        W10185   4.944   8.782  11.897 -0.0132  0.2641  0.3249
 5986W        W10186   1.466   1.539  10.687  0.0190 -0.0557  0.0870
 5987W        W10187   4.434   9.766   3.557  0.0662  0.1984  0.0632
 5988W        W10188   4.361   5.038  13.310  0.2359  0.0767 -0.1037
 5989W        W10189   0.637   2.932  13.193  0.0441 -0.1017  0.3230
 5990W        W10190   3.805   0.186  11.722 -0.2857 -0.0141  0.0363
 5991W        W10191   4.612   4.251  10.210 -0.1600 -0.2664  0.2321
 5992W        W10192   3.549   2.686   4.641 -0.0424  0.0411 -0.0040
 5993W        W10193   6.759   3.791   4.836  0.2922  0.1977 -0.1174
 5994W        W10194   1.028  10.136   0.249 -0.0389  0.2044  0.0115
 5995W        W10195   7.124   3.263   1.948  0.0213 -0.1057 -0.2932
 5996W        W10196   1.211   7.795   8.789  0.0286 -0.0151 -0.0678
 5997W        W10197   5.667   3.185  10.269 -0.1844 -0.1536  0.1996
 5998W        W10198   5.385   4.426   2.714  0.2344  0.0746  0.1337
 5999W        W10199   9.546   4.966  11.011 -0.0468  0.0288  0.4181
 6000W        W10200   9.940   2.015   4.004  0.0522 -0.0015 -0.0415
 6001W        W10201   0.569   6.881   4.531  0.2055  0.0242  0.0300
 6002W        W10202   8.772   9.928   2.903 -0.0295  0.0586 -0.0731
 6003W        W10203   0.958   2.516   3.935  0.2151  0.0589  0.0768
 6004W        W10204   5.937   1.940   0.629 -0.0027  0.1280 -0.0637
 6005W        W10205   2.348   5.728   1.897 -0.2023 -0.1736  0.1177
 6006W        W10206   5.496   9.847   3.504 -0.1576  0.3455 -0.0880
 6007W        W10207   5.141   5.044   0.215  0.0612  0.0537  0.0524
 6008W        W10208   4.413   8.900   3.607  0.0639  0.1648 -0.0933
 6009W        W10209   9.772   7.600   8.742 -0.2025 -0.1916 -0.0496
 6010W        W10210   7.082   1.832  10.706  0.1300  0.0663 -0.2104
 6011W        W10211  10.007   4.242  11.116  0.0648  0.0403 -0.1837
 6012W        W10212   8.710   4.530   3.385 -0.0120  0.2523 -0.2832
 6013W        W10213   0.249   3.539   0.319  0.0579 -0.4785 -0.1671
 6014W        W10214   5.321   2.655   4.777 -0.0839 -0.2022  0.0439
 6015W        W10215   0.565   2.205   8.952 -0.1505 -0.4270 -0.2042
 6016W        W10216   0.217   4.166  10.013  0.0623 -0.1456 -0.1452
 6017W        W10217   1.131  10.269   2.344 -0.3110 -0.2752  0.0091
 6018W        W10218   7.209   9.477  12.006 -0.1104 -0.0852 -0.1057
 6019W        W10219   9.322   9.642  10.589 -0.2697 -0.2152  0.1870
 6020W        W10220   6.224   0.525  10.516  0.1249  0.4753  0.2392
 6021W        W10221   5.723   4.004  10.994 -0.2104  0.0107  0.2031
 6022W        W10222   3.679   7.917   9.131  0.1995  0.0495 -0.0486
 6023W        W10223   7.737   9.658  10.267 -0.1315 -0.2971  0.3724
 6024W        W10224   7.359   2.037   4.777 -0.2261 -0.2172  0.0947
 6025W        W10225   6.843   8.841   0.226  0.0547  0.0696  0.2431
 6026W        W10226   2.306   5.004   3.197  0.2224 -0.1253 -0.1926
 6027W        W10227   4.003   2.431  12.186  0.0711 -0.1574 -0.1659
 6028W        W10228   0.752   7.256  10.761  0.0347  0.1276  0.0254
 6029W        W10229   6.055   7.505   3.168 -0.3990 -0.0679  0.0498
 6030W        W10230   1.283  10.443  13.498 -0.0080 -0.3249  0.0907
 6031W        W10231   7.877   2.558   4.007  0.0937  0.0013  0.0609
 6032W        W10232   4.426   2.043   4.585  0.0091 -0.0918  0.0789
 6033W        W10233   3.543   2.987  10.827 -0.2499 -0.0577 -0.1947
 6034W        W10234   6.893   7.146  11.341  0.1704 -0.2635 -0.2083
 6035W        W10235   1.002   7.161   3.695 -0.0713 -0.0653  0.0774
 6036W        W10236   8.987   6.185   9.416  0.2060 -0.0579 -0.0615
 6037W        W10237   0.493   2.605  11.180  0.1252 -0.1361 -0.0257
 6038W        W10238   8.891   6.170  13.261 -0.1709 -0.0649  0.1298
 6039W        W10239   1.003   1.771   4.803 -0.2456 -0.0261 -0.0578
 6040W        W10240   3.574   6.938  10.377 -0.1015 -0.0981 -0.0446
 6041W        W10241   9.037   1.591   1.331 -0.1301 -0.1991  0.2377
 6042W        W10242   5.234   9.953  10.540  0.2424  0.1739 -0.0476
 6043W        W10243   9.801  10.268   2.267  0.2581  0.1497 -0.1298
 6044W        W10244   8.731   8.146  10.373 -0.0846 -0.2371  0.2064
 6045W        W10245   6.573   5.545  10.582  0.0839 -0.0041 -0.2289
 6046W        W10246   8.077   5.136   2.681  0.2727 -0.1084 -0.0489
 6047W        W10247   7.410   4.554  12.232  0.0871 -0.0127  0.1939
 6048W        W10248   1.267   0.536  11.139  0.1922  0.0604 -0.1367
 6049W        W10249  10.010   8.958  13.341 -0.1917  0.0864 -0.0943
 6050W        W10250   6.254   1.755  12.388  0.2729  0.1071 -0.3802
 6051W        W10251   6.421   7.674   1.019  0.4044  0.0038 -0.0943
 6052W        W10252   3.920   6.730  12.957  0.1660 -0.1360  0.1659
 6053W        W10253   0.037   8.095   3.695  0.0286 -0.2937 -0.0179
 6054W        W10254   7.537   1.262   2.363  0.3276  0.1454  0.2896
 6055W        W10255   2.362   0.725   2.459 -0.1205 -0.0533 -0.2278
 6056W        W10256   4.439   7.129  10.484 -0.0296  0.1108 -0.1285
 6057W        W10257   9.232   6.739   1.477  0.1982  0.2554  0.0316
 6058W        W10258   3.575   3.929   3.769  0.1928 -0.2012  0.0707
 6059W        W10259   7.737   1.916   0.279  0.2147 -0.1590  0.2929
 6060W        W10260   4.376   2.566   1.358 -0.1117  0.2673  0.1346
 6061W        W10261   5.884   0.360   9.510 -0.2267 -0.2901 -0.3141
 6062W        W10262   2.899   5.039   1.309  0.1606 -0.1423  0.0120
 6063W        W10263  10.417   3.962  10.788 -0.4704 -0.1549  0.0637
 6064W        W10264   0.861   1.043   9.503 -0.0301  0.2096 -0.0317
 6065W        W10265   8.917   6.332   1.588  0.2517  0.0605 -0.0818
 6066W        W10266   7.643   3.683  11.490 -0.2688 -0.1016 -0.0263
 6067W        W10267   4.591   9.578  10.044  0.0586  0.0789  0.1078
 6068W        W10268   7.034   2.403  10.343 -0.0261  0.2044 -0.1250
 6069W        W10269   4.098   3.440   4.685 -0.1017 -0.3496 -0.0372
 6070W        W10270   4.109   1.263   2.277 -0.1286  0.0168  0.2518
 6071W        W10271   9.202   5.460   1.264 -0.0110  0.2198  0.1787
 6072W        W10272   9.888   6.792  11.219  0.0210  0.1859  0.2060
 6073W        W10273   1.129   8.176  10.482 -0.3021  0.1171 -0.2613
 6074W        W10274   1.354   9.061   9.548 -0.3267 -0.0015  0.2589
 6075W        W10275   9.771   5.676   4.182 -0.0976  0.0125 -0.1457
 6076W        W10276   1.790   2.968   4.225 -0.0594 -0.1306 -0.1641
 6077W        W10277   9.584   1.296  11.146  0.1445  0.0175 -0.0780
 6078W        W10278   1.624   2.876  12.145 -0.2653 -0.0823 -0.3083
 6079W        W10279   4.428   0.497  10.352  0.1375 -0.3943 -0.1657
 6080W        W10280   2.391   1.258   1.776 -0.1635 -0.0140 -0.1214
 6081W        W10281   6.006   5.263  11.937 -0.1080  0.0880 -0.1357
 6082W        W10282   7.072   4.153   3.275 -0.1340  0.2015 -0.0633
 6083W        W10283   7.216   7.292  10.831 -0.2543  0.1353 -0.0698
 6084W        W10284   0.744   4.070  10.089  0.0110 -0.5204  0.2412
 6085W        W10285   2.632   5.994  10.400  0.1193 -0.0421  0.0255
 6086W        W10286   2.430   8.028   2.795 -0.1673  0.0104  0.1860
 6087W        W10287   7.980   7.877   3.056 -0.0696  0.0348  0.2401
 6088W        W10288   0.968   1.304  12.170 -0.1083  0.1089  0.2110
 6089W        W10289   2.767   1.081  12.038  0.1009 -0.0042  0.1998
 6090W        W10290   9.839   7.266   0.981 -0.1671  0.0595  0.1693
 6091W        W10291   2.485   6.168   9.379 -0.1170 -0.0368 -0.0090
 6092W        W10292   6.892   8.915  11.341  0.2103  0.3764 -0.1671
 6093W        W10293   5.037   5.209   3.126  0.1242  0.0174 -0.1121
 6094W        W10294   5.515   4.990   9.684 -0.0586  0.1257  0.0233
 6095W        W10295   8.625   4.697   4.005  0.0141  0.0028 -0.1131
 6096W        W10296   9.976   2.691  10.785 -0.2916 -0.0084 -0.0450
 6097W        W10297   7.271  10.139  13.176 -0.1762 -0.0842  0.1936
 6098W        W10298   4.683   3.332   4.458  0.2192 -0.0888  0.0308
 6099W        W10299   7.449   2.691  11.997  0.1398  0.2415 -0.4078
 6100W        W10300  10.303   0.080   9.422 -0.1176  0.1825 -0.0854
 6101W        W10301   4.825   8.285   9.481 -0.0417  0.2382  0.2138
 6102W        W10302   2.271  10.117  10.616  0.2062  0.1009 -0.0369
 6103W        W10303   2.399   9.985  13.154 -0.2690  0.2964  0.0347
 6104W        W10304   4.619   3.209  13.473 -0.2675 -0.0522 -0.2732
 6105W        W10305   0.669   4.769  11.845 -0.1070 -0.3081 -0.0374
 6106W        W10306   2.102   0.786   4.873  0.0319 -0.1904  0.0203
 6107W        W10307   4.029   6.607  11.121 -0.0429  0.0982  0.2685
 6108W        W10308   0.231   4.258   3.670 -0.0794 -0.1348  0.1473
 6109W        W10309   5.354   5.056  12.478  0.1330  0.0804 -0.1124
 6110W        W10310   4.673   5.747   5.052 -0.0837  0.0093  0.1265
 6111W        W10311   8.929   5.796  10.870  0.2150 -0.1517 -0.3025
 6112W        W10312   3.661   3.687  13.220  0.0456 -0.1454 -0.0556
 6113W        W10313   6.676   5.235  12.246 -0.2402 -0.0177 -0.0939
 6114W        W10314   5.584   5.489   9.804 -0.1442  0.0558 -0.2158
 6115W        W10315   2.595   9.232   0.367 -0.0079 -0.0840 -0.0837
 6116W        W10316   3.949  10.313   4.177 -0.1123  0.0838 -0.0237
 6117W        W10317   6.482   1.352   1.152 -0.1591 -0.0256 -0.3001
 6118W        W10318   8.209   5.181   4.340  0.2790  0.2649 -0.1722
 6119W        W10319   7.035   5.784   4.777 -0.0120  0.0905  0.0736
 6120W        W10320   2.250   9.285  10.304  0.0056 -0.0686  0.0680
 6121W        W10321   0.811   4.478  11.038  0.0362 -0.0252 -0.3439
 6122W        W10322   1.259   0.763   1.120 -0.0133 -0.1530  0.1778
 6123W        W10323   1.360   1.058   3.340 -0.0908 -0.2865 -0.0180
 6124W        W10324   2.394   3.399  10.190  0.0279 -0.0202  0.1547
 6125W        W10325  10.202   8.375   9.881 -0.0922 -0.3366  0.1889
 6126W        W10326   0.042   0.348   4.405  0.0092  0.1120 -0.0797
 6127W        W10327   2.309   8.229  11.712 -0.4034  0.1721 -0.1588
 6128W        W10328   9.832   6.509   0.413 -0.1611  0.0830 -0.0144
 6129W        W10329   6.023   5.797  12.711  0.2788  0.1114  0.2247
 6130W        W10330   6.699   5.885   1.723  0.1655  0.0928 -0.0010
 6131W        W10331   2.899   6.958   4.354  0.0451 -0.2714 -0.2459
 6132W        W10332   6.313   0.582   0.877 -0.2828  0.3176  0.0191
 6133W        W10333   4.972   7.674   5.060 -0.4660 -0.1302  0.2680
 6134W        W10334   8.616   3.431   2.620  0.4430  0.2592 -0.2377
 6135W        W10335   7.728   0.241   1.169  0.2055  0.1931 -0.1240
 6136W        W10336   8.083   1.552  11.567 -0.0344  0.0991 -0.0256
 6137W        W10337   0.679  10.006   2.514  0.0476  0.2509 -0.0136
 6138W        W10338   5.239   6.364   1.282 -0.1896  0.3177  0.0244
 6139W        W10339   5.522   3.178   1.662 -0.2463 -0.0577  0.0766
 6140W        W10340   6.672   6.126  10.821  0.3618 -0.2004 -0.1926
 6141W        W10341   1.705   6.577  10.911  0.2449 -0.0728  0.1319
 6142W        W10342   2.005   1.045   3.502 -0.1778  0.0720 -0.1107
 6143W        W10343   5.907   9.090   1.846  0.0326 -0.2493  0.1202
 6144W        W10344   6.675   5.505   4.546  0.1189  0.1562 -0.0377
 6145W        W10345   3.496   4.350   9.441  0.1992  0.3014  0.3048
 6146W        W10346   3.192   7.303   9.093  0.0225 -0.0689  0.1317
 6147W        W10347   7.405   5.478   5.135 -0.0446 -0.3575  0.1823
 6148W        W10348   3.251   1.784   2.526  0.2046 -0.2176 -0.0269
 6149W        W10349   4.279   1.726  11.211  0.2631  0.1540 -0.1057
 6150W        W10350   6.453   1.566   2.413  0.0227  0.3156 -0.1363
 6151W        W10351   5.467   2.229   2.088 -0.1282  0.0993  0.1422
 6152W        W10352   1.934   6.823   3.200 -0.2109 -0.0785 -0.1086
 6153W        W10353   3.914   5.961  13.183  0.2057 -0.0162 -0.0446
 6154W        W10354   0.216   2.204   2.297  0.0876  0.0459  0.1227
 6155W        W10355   7.379   4.831   1.640  0.2582 -0.0702  0.1881
 6156W        W10356   0.754   9.772  12.286 -0.2313  0.0185  0.0224
 6157W        W10357   7.488  10.367  10.925  0.0139  0.2365  0.3179
 6158W        W10358  10.331   6.559  11.319 -0.2887 -0.2948  0.3209
 6159W        W10359   6.155   5.774   9.604 -0.0528  0.0563 -0.1608
 6160W        W10360   8.307   3.088   2.890 -0.1108  0.0747 -0.1492
 6161W        W10361   4.188   9.927  11.739  0.0520 -0.3213 -0.0519
 6162W        W10362   0.493   9.867   0.871 -0.0196  0.3469  0.2862
 6163W        W10363   1.450   7.684   3.096 -0.2078 -0.0083  0.0413
 6164W        W10364   9.678   2.427  11.599  0.1017  0.3173 -0.1141
 6165W        W10365   4.054   2.290   4.866  0.2400  0.0687  0.0872
 6166W        W10366   9.868   8.697  11.176  0.0754 -0.1969 -0.5142
 6167W        W10367  10.232   1.966  10.999 -0.3397 -0.2034 -0.1043
 6168W        W10368   1.516   6.981   0.987 -0.1548 -0.1673  0.2836
 6169W        W10369   6.428   9.142  11.816 -0.0594 -0.0617  0.3878
 6170W        W10370   3.608   9.923   4.126  0.0939  0.4097  0.2605
 6171W        W10371   6.791   3.349  12.214  0.1359  0.0715 -0.1093
 6172W        W10372   6.158  10.071   2.712  0.0690 -0.2031 -0.0734
 6173W        W10373   2.716   9.823   3.691 -0.1885  0.1819  0.3986
 6174W        W10374   7.626   5.474   1.346 -0.1356  0.1316  0.0854
 6175W        W10375   6.898   3.916   4.372  0.2143 -0.0369  0.0933
 6176W        W10376   6.927   5.170   2.967  0.2451  0.2330  0.3218
 6177W        W10377   3.649   1.995   3.268  0.2318  0.0604 -0.1581
 6178W        W10378   4.844   1.752  12.484 -0.3779 -0.1777 -0.1554
 6179W        W10379   2.342   7.735   9.273 -0.0411 -0.0663  0.0010
 6180W        W10380   9.621   3.857   3.867  0.0483  0.1815  0.2836
 6181W        W10381  10.334   0.393  13.102 -0.1391  0.0951 -0.0911
 6182W        W10382   9.346   2.941  13.451  0.1075 -0.0268  0.0170
 6183W        W10383   2.667   2.728  11.161  0.0167 -0.3460  0.3777
 6184W        W10384   8.505   7.149   3.056 -0.1046  0.0971 -0.2007
 6185W        W10385   2.085   5.090  12.048  0.1891 -0.0249 -0.1963
 6186W        W10386   2.584   1.205   2.219  0.0268  0.3359  0.1984
 6187W        W10387   3.268   0.509  10.971  0.1208 -0.2552 -0.0342
 6188W        W10388   3.518   0.445   3.657 -0.2317 -0.4948 -0.1966
 6189W        W10389   5.744   0.472  10.990 -0.1199  0.2223  0.3578
 6190W        W10390   2.623   1.578  12.597 -0.2487 -0.2086 -0.0633
 6191W        W10391   2.411   2.622   9.510 -0.0097  0.0421  0.0198
 6192W        W10392   9.905   9.562   0.955 -0.0532 -0.1103  0.1112
 6193W        W10393   7.994   6.224   3.034  0.0129 -0.0958 -0.0830
 6194W        W10394   3.753   2.733   1.047 -0.3308 -0.2392  0.0678
 6195W        W10395  10.079   6.301   9.939  0.1338 -0.1286  0.3827
 6196W        W10396   1.246   0.334   5.832 -0.4298  0.1095  0.1819
 6197W        W10397   0.809   2.995   1.266 -0.1111 -0.2217  0.1133
 6198W        W10398   3.621   3.412   9.060 -0.2465 -0.1323 -0.0620
 6199W        W10399   5.091   4.453   1.686  0.1490 -0.0699  0.0629
 6200W        W10400   2.089   8.714   0.134 -0.5656  0.0688  0.0215
 6201W        W10401   2.424   4.232   8.770 -0.0206  0.1026  0.0794
 6202W        W10402   7.914   4.316   0.961  0.1808  0.1914 -0.1115
 6203W        W10403   6.595   5.362  11.331 -0.1459 -0.0587  0.0254
 6204W        W10404   7.993   8.486   1.786 -0.0105 -0.1225  0.1868
 6205W        W10405   4.658   4.413   5.455  0.2088  0.0256  0.2079
 6206W        W10406   4.450   6.356  11.370 -0.3547  0.0910  0.3059
 6207W        W10407   7.453   0.152   2.943 -0.0007 -0.3017 -0.1578
 6208W        W10408   8.472   6.350   8.989  0.1032 -0.0354  0.1706
 6209W        W10409   3.791   7.655   5.244 -0.0116 -0.3325  0.1748
 6210W        W10410   5.426   1.195  11.503  0.1192  0.1693 -0.2076
 6211W        W10411   0.239   6.015   2.438  0.3577 -0.0378 -0.1114
 6212W        W10412   2.847  10.228   1.790 -0.0181 -0.0519  0.1987
 6213W        W10413   9.747   6.113   1.449  0.0225  0.2799 -0.1597
 6214W        W10414   0.719   0.524   5.143 -0.2299 -0.2184  0.0165
 6215W        W10415  10.261   1.977   0.604 -0.1396 -0.0011  0.0627
 6216W        W10416   4.183   7.541   0.583  0.3318 -0.2353  0.1490
 6217W        W10417   4.450  10.000  12.991 -0.1025  0.1655 -0.0791
 6218W        W10418   7.756   7.231   2.449 -0.3659  0.1516  0.0603
 6219W        W10419   3.975   1.487   0.441 -0.1563 -0.0540 -0.4668
 6220W        W10420   7.139   4.536   4.171 -0.2403  0.0196  0.2015
 6221W        W10421   5.550   3.957   5.476  0.0461  0.2181 -0.3476
 6222W        W10422   1.318   6.614  13.100  0.2889  0.1413 -0.1530
 6223W        W10423   5.468   9.360   3.348 -0.3457 -0.1149  0.0033
 6224W        W10424   4.321   6.480   4.501  0.1890 -0.1149 -0.1981
 6225W        W10425   7.108   7.804  11.009 -0.0016  0.0415  0.0424
 6226W        W10426   1.451   6.754   9.589 -0.0826  0.0488 -0.0031
 6227W        W10427   3.216   6.779  13.025 -0.0663  0.0883 -0.4846
 6228W        W10428   6.068   0.062  11.971  0.1742 -0.3485  0.1487
 6229W        W10429   5.521   4.464   1.032  0.0681  0.0664  0.0364
 6230W        W10430   4.437   9.796   0.291  0.0928 -0.0135  0.0220
 6231W        W10431   5.226   9.874   0.623  0.0504  0.1102  0.0304
 6232W        W10432   0.462   7.554  12.602 -0.1464 -0.2283 -0.0807
 6233W        W10433   6.540   0.694   1.873 -0.2722  0.1499 -0.2579
 6234W        W10434   4.881   4.126  13.305 -0.1912  0.2756  0.1761
 6235W        W10435   1.182   2.700  13.200  0.0710 -0.1816  0.3203
 6236W        W10436   3.916   8.997   3.503 -0.0998  0.1900  0.2116
 6237W        W10437   0.679   4.904   0.823  0.1854 -0.0098 -0.0927
 6238W        W10438   3.686   5.408   3.161  0.0284  0.0320 -0.0261
 6239W        W10439   6.657   4.651  11.730 -0.3233 -0.0710  0.0119
 6240W        W10440   3.970   7.087   2.522  0.1168 -0.0448 -0.1861
 6241W        W10441   2.727   0.734   3.879  0.0689  0.1637  0.2930
 6242W        W10442   5.852   0.419  10.138 -0.2985  0.4741 -0.0346
 6243W        W10443   0.325   8.371  11.250 -0.0230 -0.2564 -0.0536
 6244W        W10444   2.988   3.667  11.841  0.1474 -0.0786 -0.2599
 6245W        W10445   2.200   7.385   3.432 -0.1632  0.0584 -0.0811
 6246W        W10446   2.225   5.978   4.792  0.2030 -0.0031  0.1939
 6247W        W10447   3.859   7.416  10.927  0.0059 -0.3627 -0.1801
 6248W        W10448   5.540   1.094  12.443 -0.0716  0.2044  0.1041
 6249W        W10449   0.020   5.680   3.148  0.2341 -0.0418 -0.2560
 6250W        W10450   7.349   8.342   9.764  0.0266 -0.0362 -0.3007
 6251W        W10451   5.409   7.231  10.535  0.1114  0.1875  0.0498
 6252W        W10452   0.665   5.998  12.843  0.2488  0.1095  0.0596
 6253W        W10453   2.596   4.629   1.277 -0.1049  0.1109 -0.1300
 6254W        W10454   2.770   8.180   0.784  0.1846  0.0883 -0.0349
 6255W        W10455   6.742   3.978  12.810 -0.0670 -0.0056  0.2714
 6256W        W10456   1.451   9.555   2.931 -0.1331 -0.0637  0.1233
 6257W        W10457   4.077   5.682  10.063  0.0830  0.1149 -0.0760
 6258W        W10458   1.428   1.064  12.313  0.2052  0.6315 -0.2464
 6259W        W10459   5.994   1.450   0.801  0.1619 -0.1539  0.0274
 6260W        W10460   5.107   1.832  12.023 -0.1892 -0.0404  0.0989
 6261W        W10461   6.493   7.192   2.658  0.1441  0.1309 -0.1250
 6262W        W10462   7.157   0.342  11.520 -0.2214 -0.1493 -0.0780
 6263W        W10463   0.127   0.584   1.480  0.1798 -0.2305  0.1638
 6264W        W10464   1.873   7.807   0.800 -0.2130  0.2714 -0.1008
 6265W        W10465   9.742   6.246   4.833 -0.0608 -0.2835  0.0579
 6266W        W10466   9.668  10.368   4.292 -0.0148  0.1709 -0.2335
 6267W        W10467   1.093   2.682   4.562 -0.1133  0.1626 -0.1927
 6268W        W10468   5.452   3.323  11.441  0.1459  0.1028 -0.0970
 6269W        W10469   0.931   9.892   2.080  0.0146 -0.2324  0.1055
 6270W        W10470   4.567   7.147   0.704  0.0311 -0.2243 -0.1403
 6271W        W10471   8.442   4.090   2.887 -0.0774 -0.2820  0.1712
 6272W        W10472   0.150   9.549  11.127  0.1136  0.0001  0.0159
 6273W        W10473   3.452  10.368   5.903 -0.1092 -0.2135 -0.0910
 6274W        W10474   1.174   1.298  10.405  0.0877 -0.2630 -0.1242
 6275W        W10475   7.000   8.156   1.060  0.2796  0.3281 -0.0142
 6276W        W10476   4.894   1.378   1.606 -0.0823  0.2767 -0.0139
 6277W        W10477   1.222   5.004   3.131 -0.0196  0.4801  0.1991
 6278W        W10478   9.389  10.150   9.819  0.1165  0.3627  0.1955
 6279W        W10479   0.949   4.894  12.704  0.3002  0.0340 -0.0295
 6280W        W10480   6.252  10.141   0.235  0.2251 -0.2590 -0.1153
 6281W        W10481   2.351   6.316  11.150  0.0113  0.0149 -0.1852
 6282W        W10482   9.078  10.093  11.821  0.2397 -0.1814  0.1997
 6283W        W10483   0.101   4.953   3.785 -0.0169 -0.1888 -0.2536
 6284W        W10484  10.242   6.078   4.966  0.1087  0.1083 -0.1340
 6285W        W10485   1.238   1.532   1.837 -0.2128  0.0774 -0.1203
 6286W        W10486  10.055   4.423   4.480 -0.1669  0.1274 -0.0066
 6287W        W10487   7.091   6.058   0.013  0.0906 -0.1652  0.0782
 6288W        W10488   5.200   7.009   3.894 -0.0936 -0.1927  0.0705
 6289W        W10489   5.527   8.147   0.938  0.1997 -0.1276 -0.1926
 6290W        W10490   6.999   6.209  12.039  0.2743 -0.0103 -0.1088
 6291W        W10491   2.809   9.293   2.660  0.2582 -0.2216  0.0978
 6292W        W10492   8.731   5.068  12.252 -0.1659 -0.1185 -0.2862
 6293W        W10493   3.235   9.149  10.789  0.0944  0.1592  0.0283
 6294W        W10494   0.533   3.954   1.748  0.0530 -0.0836 -0.0083
 6295W        W10495   3.682   2.441  11.675  0.0003 -0.3317  0.0593
 6296W        W10496   7.296   6.752   1.619 -0.3665 -0.0144  0.1742
 6297W        W10497   2.059   5.936   1.516  0.3420 -0.0547  0.1307
 6298W        W10498   3.605   2.519   3.380  0.0153 -0.0039 -0.1851
 6299W        W10499   7.879   2.864   1.486 -0.2457 -0.0071 -0.0898
 6300W        W10500   8.429   5.846   0.929 -0.3358  0.1002  0.2216
 6301W        W10501   1.425   8.227   0.363  0.0446  0.4725  0.2167
 6302W        W10502   9.618   7.820   3.879  0.0756 -0.0995 -0.0158
 6303W        W10503   5.020   2.533  12.715 -0.2888  0.1258 -0.0721
 6304W        W10504   6.321   3.594   0.701  0.2102  0.0058  0.0149
 6305W        W10505   2.655   4.255   1.751 -0.1729  0.0159  0.1666
 6306W        W10506   9.183   1.986   0.628  0.3100 -0.2414 -0.1469
 6307W        W10507   5.309   1.400   0.263 -0.3352  0.1393  0.2161
 6308W        W10508  10.401   5.125   9.126  0.1797 -0.0290 -0.2017
 6309W        W10509   3.647   1.583   2.969  0.1124  0.0150  0.1673
 6310W        W10510   3.749  10.241   1.689 -0.1849  0.3604  0.2134
 6311W        W10511   5.879   2.211   1.630 -0.3389  0.1495  0.0799
 6312W        W10512   5.339  10.245  10.032  0.1322 -0.0268  0.3740
 6313W        W10513   6.820   0.989  12.043  0.0738  0.0042 -0.1485
 6314W        W10514  10.326   9.912   2.764 -0.0385  0.0543  0.0290
 6315W        W10515   2.059   4.669  11.775 -0.0031 -0.3022  0.2714
 6316W        W10516   3.639   5.832   0.545  0.0790  0.3019  0.0191
 6317W        W10517   7.863   8.425  13.214 -0.1724  0.1246  0.0521
 6318W        W10518   1.662   4.810   4.001  0.0176  0.0837  0.0164
 6319W        W10519   0.985   3.760  11.572 -0.0786  0.3625  0.0889
 6320W        W10520   8.123   1.940  13.469  0.2551 -0.1538 -0.5058
 6321W        W10521   8.762  10.148  12.698  0.2369  0.0147 -0.2986
 6322W        W10522   5.664   5.242   1.752  0.3098 -0.2842 -0.0272
 6323W        W10523   3.224   6.672  11.185  0.0608  0.2857 -0.2575
 6324W        W10524   4.619   4.740  12.850 -0.0512  0.0186  0.0875
 6325W        W10525   4.832   4.739   9.152 -0.1180 -0.1079  0.1601
 6326W        W10526   1.393   9.413   4.100 -0.2912  0.3379  0.0856
 6327W        W10527   2.734   1.698   2.246  0.1336  0.2777  0.0470
 6328W        W10528   2.998   9.246   3.149  0.1925 -0.2255  0.1781
 6329W        W10529   3.931   1.258  13.293 -0.2515  0.2356 -0.1812
 6330W        W10530   5.819   0.458  12.359 -0.2349  0.1077  0.4242
 6331W        W10531   5.751   5.371  12.469 -0.1050  0.1663  0.0041
 6332W        W10532   9.628   6.292   9.526 -0.1170  0.2961 -0.0885
 6333W        W10533   5.994   5.473   2.803 -0.0257  0.1270  0.0952
 6334W        W10534  10.302   7.239  11.408  0.1276 -0.0466  0.2996
 6335W        W10535   6.493   4.498   0.358 -0.0916  0.1254 -0.2154
 6336W        W10536  10.355   0.030  10.935  0.2041  0.1752 -0.0012
 6337W        W10537   5.477   1.867   1.293  0.0555 -0.0121  0.3907
 6338W        W10538   9.825   3.621   2.956  0.1520  0.2269  0.3753
 6339W        W10539   0.610   1.972   2.688  0.1345  0.0388 -0.2514
 6340W        W10540   2.400   5.622  12.279 -0.2351 -0.0339  0.0389
 6341W        W10541   5.320   5.623   1.812  0.5393 -0.0497  0.1867
 6342W        W10542   2.285   6.819   8.972 -0.0201 -0.0722  0.2677
 6343W        W10543   3.561   6.809   1.669 -0.1481 -0.3698 -0.0350
 6344W        W10544   4.740   4.845   3.285 -0.1889 -0.1076  0.0022
 6345W        W10545   8.422   6.311   0.667  0.0243 -0.2207  0.1170
 6346W        W10546   3.262   1.685   1.485 -0.0936 -0.3434  0.0101
 6347W        W10547   0.482   3.382  13.057  0.1995 -0.0024  0.0539
 6348W        W10548   2.897   0.292   4.033  0.1382 -0.3572 -0.3044
 6349W        W10549   9.185   3.761   4.076  0.0508  0.2688  0.1000
 6350W        W10550   1.268   4.218  10.838 -0.0536 -0.0268  0.3947
 6351W        W10551   1.939   9.027  12.623 -0.4399  0.0455  0.2695
 6352W        W10552   4.720   6.458   0.976  0.1291 -0.1727  0.3273
 6353W        W10553   0.837   2.664  12.240 -0.0275  0.1812 -0.0255
 6354W        W10554   9.386   0.872   3.195 -0.0521  0.0571  0.1491
 6355W        W10555   6.299   2.156   3.363 -0.0123  0.2750 -0.0988
 6356W        W10556   7.132   9.073  12.923 -0.1714 -0.0096 -0.0309
 6357W        W10557  10.436   4.676   2.857  0.1976  0.1364 -0.2811
 6358W        W10558   3.114   9.900   9.056  0.2329 -0.1947 -0.1159
 6359W        W10559   9.998   2.827   0.282 -0.2016  0.0038 -0.3831
 6360W        W10560   8.755   4.009  13.352 -0.0357 -0.0981 -0.5052
 6361W        W10561   3.507   9.533   1.492 -0.0086  0.0931 -0.0128
 6362W        W10562   0.778   7.045   9.353  0.0973  0.0290 -0.0308
 6363W        W10563   0.139   1.058   0.657  0.0142 -0.1323  0.3472
 6364W        W10564   3.820   6.901  11.900  0.1043  0.0757  0.0720
 6365W        W10565   3.467   5.372  10.778 -0.3295  0.1752  0.2069
 6366W        W10566   3.338   4.146   0.979  0.0246  0.2108  0.0938
 6367W        W10567   5.977   3.205   0.751 -0.0761 -0.2181 -0.1327
 6368W        W10568   1.698   0.715   3.325 -0.1859 -0.1579 -0.1270
 6369W        W10569   2.455   9.798  10.178 -0.0962  0.0303  0.1165
 6370W        W10570   1.072   5.024   3.953  0.0817 -0.0665 -0.0275
 6371W        W10571  10.028   5.032   3.783 -0.1826 -0.1010  0.3167
 6372W        W10572   1.391   3.550   0.738 -0.0960  0.0315  0.1493
 6373W        W10573   3.564   3.537   3.399  0.0003 -0.0715 -0.2191
 6374W        W10574   9.242   3.506  12.146 -0.2565 -0.0640 -0.0486
 6375W        W10575   3.925   5.688   1.837  0.2645 -0.1137 -0.0677
 6376W        W10576   9.963   3.555  10.100 -0.0601 -0.2782  0.0685
 6377W        W10577   2.817   0.591   0.642 -0.2628  0.3282  0.3629
 6378W        W10578   1.009   7.311   2.895 -0.2048 -0.2368 -0.1699
 6379W        W10579   9.163   1.481  13.296 -0.4380  0.1427 -0.0018
 6380W        W10580   5.272   3.919   9.082  0.1954 -0.1353  0.1772
 6381W        W10581   8.049   0.013  13.421 -0.0025  0.3621 -0.4520
 6382W        W10582   4.989   8.186   0.984  0.0105 -0.2812 -0.0827
 6383W        W10583   8.009   8.122  10.999  0.1508 -0.1011 -0.3631
 6384W        W10584   2.110   8.474   4.590  0.1716  0.0755  0.1795
 6385W        W10585   7.346   3.718   3.376  0.1963  0.0306  0.0620
 6386W        W10586   5.601   6.603   1.539  0.0412  0.0158  0.1260
 6387W        W10587   5.676   3.337   1.186  0.0243 -0.2942 -0.2401
 6388W        W10588   3.841   1.633   2.029  0.0987 -0.0828 -0.2101
 6389W        W10589   2.347   4.928  13.054  0.1718 -0.0996 -0.1023
 6390W        W10590   6.247   1.502  11.764 -0.0249  0.1574  0.0266
 6391W        W10591   7.011   1.534  10.068 -0.0446 -0.3375 -0.0647
 6392W        W10592   9.662   0.588   3.889  0.1185  0.1303 -0.4646
 6393W        W10593   9.923   5.593   3.660  0.0402 -0.3455  0.4447
 6394W        W10594   2.696   3.716   4.152  0.0866  0.2357 -0.0753
 6395W        W10595   1.830   4.365  11.465  0.0593  0.2404 -0.0510
 6396W        W10596   9.794   0.428  12.336 -0.1241 -0.2257  0.0779
 6397W        W10597   4.099   7.341   3.081 -0.0560  0.5488 -0.1419
 6398W        W10598   9.954   8.237   2.966  0.1289  0.1214 -0.2589
 6399W        W10599   0.617   7.390   3.996 -0.2055  0.2023 -0.1040
 6400W        W10600   8.885   8.569  12.914 -0.1553 -0.4193  0.1466
 6401W        W10601   4.067   2.266   0.875 -0.2649  0.0912 -0.1095
 6402W        W10602   2.350   7.653   3.862  0.2525 -0.1147 -0.0802
 6403W        W10603   0.409   4.273   4.419  0.0212  0.2275 -0.1328
 6404W        W10604   2.109   9.875  12.069 -0.0003 -0.1968 -0.0012
 6405W        W10605   9.114   0.119  12.806  0.2049 -0.4576  0.1169
 6406W        W10606   5.323   6.455  12.925  0.1081  0.2399 -0.1021
 6407W        W10607   8.840   5.917   2.920 -0.1187  0.2638 -0.1541
 6408W        W10608   4.302   0.830   2.139 -0.0221 -0.0025  0.2809
 6409W        W10609   1.818   2.868   4.824 -0.0444 -0.0240 -0.2730
 6410W        W10610   7.246   7.187   3.584 -0.0632  0.1292 -0.2666
 6411W        W10611   6.216   6.537  10.725  0.2285  0.0542  0.1460
 6412W        W10612   4.394   9.565  10.512 -0.0917 -0.0391  0.1169
 6413W        W10613   5.653   4.134   9.305  0.0641 -0.0448 -0.0454
 6414W        W10614   5.234   8.921   3.079  0.1861  0.1001  0.0920
 6415W        W10615   1.250   4.127   4.360  0.1098  0.1199  0.0405
 6416W        W10616   7.713   4.671   3.769  0.0216 -0.0131 -0.2310
 6417W        W10617   1.111   6.497   0.156 -0.0868  0.0388  0.2102
 6418W        W10618   2.839   2.776   2.555 -0.2091 -0.0959  0.0078
 6419W        W10619   5.866   2.798   2.505 -0.3459 -0.2797  0.1200
 6420W        W10620   6.649   1.481  12.038 -0.5730  0.0651  0.0284
 6421W        W10621   7.916   3.674   1.632 -0.3215 -0.0248  0.1023
 6422W        W10622  10.319   3.293  11.507 -0.2290  0.0146  0.1155
 6423W        W10623   5.177   6.864  12.540  0.1314 -0.0843 -0.0205
 6424W        W10624   6.478   9.138   0.339 -0.0568  0.1793  0.2373
 6425W        W10625  10.426   4.355  10.449  0.0878 -0.3225 -0.2167
 6426W        W10626   1.788   7.649  13.168 -0.2461  0.1044  0.0237
 6427W        W10627   7.407   8.213   2.209  0.1591 -0.0757  0.0513
 6428W        W10628   4.715   0.635   1.276 -0.1290 -0.0276  0.0510
 6429W        W10629   1.861   0.020   0.558 -0.2251  0.3159 -0.0804
 6430W        W10630   4.765   2.311  13.141  0.5297  0.0652  0.0062
 6431W        W10631   3.375   2.721   2.884 -0.0387  0.1537  0.1063
 6432W        W10632   3.884   9.160   0.448  0.2930 -0.1071 -0.1667
 6433W        W10633   8.355   4.508   0.919 -0.1047 -0.3118  0.0015
 6434W        W10634   5.302   6.534  10.392  0.0028  0.1496  0.0975
 6435W        W10635   1.131   3.584   0.200  0.2455  0.3003 -0.1672
 6436W        W10636   0.927   6.050   0.214 -0.1901  0.0845 -0.1402
 6437W        W10637   1.196   6.323  12.551  0.0065  0.3353  0.0337
 6438W        W10638   9.375   5.443  10.623  0.0324  0.2272  0.0164
 6439W        W10639   5.951   0.122   1.552  0.2779  0.1172 -0.1563
 6440W        W10640   8.887   2.267  12.850 -0.2878 -0.2570 -0.0268
 6441W        W10641   0.945   0.385   9.871 -0.2344  0.0904 -0.1867
 6442W        W10642   2.664   3.651  12.276  0.0888  0.0060  0.1360
 6443W        W10643   0.898   6.207   3.586  0.6051 -0.0191  0.0291
 6444W        W10644   1.559   1.376  12.720  0.3468 -0.2095  0.0508
 6445W        W10645   8.511   3.055   9.303 -0.1276  0.1735 -0.0732
 6446W        W10646   1.657   1.464   2.752 -0.3685  0.1633  0.3562
 6447W        W10647   0.355   1.000   0.167 -0.0702  0.2402 -0.0852
 6448W        W10648   2.057   7.150  10.603 -0.2274 -0.0855  0.0661
 6449W        W10649   1.859   5.471   4.472 -0.0497 -0.2170 -0.3277
 6450W        W10650   4.401   9.461   1.685  0.4817  0.2451 -0.0816
 6451W        W10651   7.505   2.832   1.942 -0.1340 -0.0472  0.1307
 6452W        W10652   3.630   6.383   2.085  0.1948 -0.2005 -0.2388
 6453W        W10653   9.738   4.560   5.056 -0.0230 -0.1374 -0.0311
 6454W        W10654   3.325   2.290   9.916  0.0421 -0.0596 -0.0597
 6455W        W10655   9.710   7.894   9.262  0.1395 -0.0674 -0.0035
 6456W        W10656   0.104   2.725   2.980  0.6045 -0.1230 -0.2618
 6457W        W10657   2.240   9.790   3.402  0.2275 -0.0345 -0.0746
 6458W        W10658   3.311   4.049   3.318 -0.0522 -0.3409 -0.0730
 6459W        W10659   7.708   6.013   1.423 -0.0263  0.2746  0.0940
 6460W        W10660   4.377   4.772  10.248  0.1852  0.1179  0.1525
 6461W        W10661   7.994   3.416   2.629 -0.0018  0.1006  0.1023
 6462W        W10662   5.071   4.564   0.192 -0.5542 -0.4197  0.1390
 6463W        W10663   6.777   2.153   0.042 -0.0878  0.0186 -0.0743
 6464W        W10664   1.308   4.454   0.195 -0.1467 -0.0784 -0.0046
 6465W        W10665   3.880   4.120  11.854  0.3150 -0.0914 -0.2846
 6466W        W10666   6.641   3.550   0.351 -0.0623  0.2654  0.0218
 6467W        W10667   5.484   2.740   2.179  0.1710 -0.1927  0.1267
 6468W        W10668   6.261   5.611   3.489  0.1500 -0.2054  0.2313
 6469W        W10669   6.882   3.481   3.488 -0.2089 -0.2585  0.0744
 6470W        W10670   0.344   6.244  13.311 -0.1716 -0.1917 -0.0272
 6471W        W10671   4.702   5.284   0.693 -0.0281  0.0382 -0.2453
 6472W        W10672   4.823   7.434   9.896  0.0030 -0.1087 -0.0055
 6473W        W10673   5.124   1.987   2.317  0.0764  0.0625 -0.0992
 6474W        W10674   0.929   0.212   0.313 -0.0393 -0.0140 -0.0247
 6475W        W10675   4.124   8.028   2.308  0.1300  0.3829 -0.3741
 6476W        W10676   0.290   5.367  12.331  0.1720 -0.0857 -0.0260
 6477W        W10677   7.653   4.986  12.008  0.2523 -0.2679  0.0926
 6478W        W10678   1.536   7.280  10.119 -0.2516 -0.0394  0.1163
 6479W        W10679   3.584   6.949   9.461 -0.0260  0.0185 -0.1831
 6480W        W10680   3.382   7.869  12.284 -0.1878 -0.1623  0.1627
 6481W        W10681   7.896   5.176   2.123  0.1783 -0.2147 -0.0662
 6482W        W10682   2.605   2.222   1.924  0.0507  0.1800  0.0403
 6483W        W10683   4.784   2.436  10.131  0.0735 -0.0713  0.1968
 6484W        W10684   8.144   4.291   0.506  0.1023 -0.0315 -0.0018
 6485W        W10685   0.915   9.994   2.941 -0.0827  0.2710 -0.0718
 6486W        W10686   6.371   7.985   2.263  0.0945  0.4259  0.1327
 6487W        W10687   2.356   8.309   0.356 -0.1268  0.2147  0.0771
 6488W        W10688   7.149   1.094   2.092 -0.0200 -0.1609 -0.0722
 6489W        W10689   3.035   7.368   2.190 -0.0078 -0.3465  0.0815
 6490W        W10690   9.258   7.515  10.903  0.2501 -0.5870  0.0973
 6491W        W10691   9.634  10.030   3.106  0.2192  0.4961  0.4185
 6492W        W10692   2.207   6.660   9.965 -0.1125  0.0640 -0.0908
 6493W        W10693   2.039   4.743   0.490  0.2562  0.1447 -0.0283
 6494W        W10694   1.741   9.668  12.604  0.1826  0.1958  0.1809
 6495W        W10695   4.402   1.373  13.163 -0.1081 -0.1995  0.4702
 6496W        W10696   4.412   6.901   2.547  0.2473 -0.2550 -0.2381
 6497W        W10697   0.053   9.619   9.794 -0.1885  0.1479 -0.1169
 6498W        W10698   7.834  10.133  12.339 -0.0940  0.2563  0.1328
 6499W        W10699   1.136   4.895   0.154  0.2821 -0.1844 -0.1257
 6500W        W10700   3.734   8.957   8.361 -0.1396 -0.0088 -0.0610
 6501W        W10701   0.398   2.237  11.671  0.2387 -0.0087 -0.0843
 6502W        W10702   7.003   9.764   0.369  0.0983 -0.1998 -0.1782
 6503W        W10703   4.559   5.848   0.209  0.0117  0.1580  0.0332
 6504W        W10704   9.346   4.804  10.549  0.2229  0.0293 -0.2832
 6505W        W10705   2.458   1.660   4.048 -0.0937 -0.0680 -0.1647
 6506W        W10706   1.128   3.715   9.594  0.0194 -0.0837 -0.0729
 6507W        W10707   3.275   2.954   1.832  0.2066 -0.2141 -0.3060
 6508W        W10708   5.125  10.266  13.527  0.0318 -0.0137  0.1579
 6509W        W10709   2.205   5.095   2.565 -0.1763  0.3652  0.1204
 6510W        W10710   3.565   2.202   2.728  0.0462 -0.0868 -0.2535
 6511W        W10711   4.563   2.186   5.089 -0.0886  0.3103 -0.2133
 6512W        W10712   9.915   6.793  13.166  0.0812  0.1256 -0.1633
 6513W        W10713   3.778   2.660   0.543  0.3938  0.1721  0.0144
 6514W        W10714   3.099   3.084   3.609  0.1461 -0.0854  0.3150
 6515W        W10715   7.866   1.462   0.091  0.2525  0.0880 -0.2552
 6516W        W10716   4.861   3.885   3.368 -0.3524 -0.0537  0.2985
 6517W        W10717   3.336   2.177   3.776 -0.1035 -0.3083  0.2621
 6518W        W10718   1.281   0.672   0.223 -0.3154 -0.0454 -0.2277
 6519W        W10719   8.033   1.431   3.107 -0.1087 -0.1535 -0.0046
 6520W        W10720   5.397   1.298   2.953  0.2137  0.1672 -0.1515
 6521W        W10721   5.377  10.277   3.848 -0.3449  0.1833  0.0484
 6522W        W10722   8.959   3.386   3.088 -0.1670 -0.2501  0.3856
 6523W        W10723   8.521   4.841   9.824 -0.0085  0.2092 -0.3623
 6524W        W10724   4.995   0.919  11.986 -0.1449 -0.1198 -0.1613
 6525W        W10725   7.335   4.399  10.449 -0.0352  0.2413 -0.0137
 6526W        W10726   5.780   3.663   1.589 -0.0534 -0.0278  0.2155
 6527W        W10727   8.403   9.313  11.555  0.1289 -0.2376  0.1115
 6528W        W10728   2.018   7.908  12.781 -0.1227 -0.1414  0.1871
 6529W        W10729   7.940   8.028  11.541  0.1998 -0.1197 -0.0084
 6530W        W10730   2.674   2.161  11.852  0.4249 -0.2073  0.2845
 6531W        W10731   1.160   2.976   3.936  0.0955 -0.2176  0.0732
 6532W        W10732   4.947   2.497  12.202  0.0677 -0.1588 -0.1573
 6533W        W10733   2.917   2.600   2.098  0.0669 -0.1872  0.0258
 6534W        W10734   0.915   0.179   1.688 -0.2712  0.0205 -0.1896
 6535W        W10735   0.945   7.850   3.770 -0.2772  0.0992  0.1961
 6536W        W10736   5.963   9.070   2.393  0.1270  0.0600  0.0039
 6537W        W10737   1.438   5.453   3.287 -0.1898  0.1998  0.3220
 6538W        W10738   3.840   5.711  10.976  0.0609  0.0423 -0.0262
 6539W        W10739   6.292   2.829  11.505 -0.0872  0.0211 -0.2960
 6540W        W10740   8.048   5.928  10.111 -0.2145  0.1190  0.1127
 6541W        W10741   2.324   2.079   5.424 -0.0815  0.4436  0.0830
 6542W        W10742   5.673   1.694   0.114  0.1581 -0.4063 -0.0899
 6543W        W10743   4.939   8.820   3.604  0.0390  0.1227  0.0115
 6544W        W10744   1.977   5.668   8.890  0.0587 -0.0528 -0.0552
 6545W        W10745   2.825   8.292   2.646 -0.0947 -0.2348  0.0389
 6546W        W10746   7.961   1.347   2.607 -0.1906 -0.0326 -0.1081
 6547W        W10747   5.650   6.771  10.641 -0.1159  0.2271  0.0986
 6548W        W10748   4.938   7.899  10.927 -0.3064  0.1918 -0.1200
 6549W        W10749   4.540   4.889  10.791 -0.2181 -0.0439  0.1995
 6550W        W10750   8.589   3.249   4.320 -0.0540  0.2557 -0.2758
 6551W        W10751   4.229   4.759   9.718 -0.3552 -0.0557  0.0519
 6552W        W10752   0.506   7.509   2.960  0.0740  0.0957  0.1293
 6553W        W10753   7.227   3.496  11.267 -0.3982 -0.3082  0.0781
 6554W        W10754   8.439   1.378   2.117 -0.2914  0.2232 -0.1148
 6555W        W10755   1.539   6.163  11.498 -0.1488 -0.0570 -0.2150
 6556W        W10756   0.584   5.591   1.876  0.0979  0.0732 -0.1794
 6557W        W10757   2.258   8.847   1.388  0.1322 -0.2713 -0.1048
 6558W        W10758   4.995   2.202   1.847 -0.0853 -0.2923 -0.0857
 6559W        W10759   0.814   9.489   4.422  0.1906 -0.0144 -0.1256
 6560W        W10760   3.491   6.194  11.873 -0.0738 -0.3652 -0.2226
 6561W        W10761   5.297   2.999  11.011  0.0510 -0.1683  0.2038
 6562W        W10762   0.949   3.996  13.506 -0.0738  0.3214 -0.0900
 6563W        W10763   4.359   8.358   1.638  0.1302 -0.1897  0.1546
 6564W        W10764   6.308   4.347   3.554  0.0403  0.0309 -0.0648
 6565W        W10765   9.648   7.721  11.112  0.0273  0.2783  0.0436
 6566W        W10766   3.750   8.028   0.123  0.1714 -0.0844 -0.1059
 6567W        W10767   7.932   4.588   4.585 -0.0763  0.0966 -0.1504
 6568W        W10768   8.879   9.297   0.179 -0.2515  0.4255  0.0954
 6569W        W10769   9.088   2.293   9.026  0.3776  0.5162  0.0290
 6570W        W10770   8.706   7.445  10.714  0.0077  0.1101 -0.0658
 6571W        W10771   6.102   9.516   0.544 -0.1885  0.0107  0.1062
 6572W        W10772   7.305   5.551   9.533  0.2591  0.2605 -0.4138
 6573W        W10773   0.778   4.225   3.795 -0.3116  0.1973  0.0596
 6574W        W10774   3.536   7.553   2.227 -0.1257  0.1963 -0.0494
 6575W        W10775   8.817   7.748  11.149 -0.4155  0.0451  0.2247
 6576W        W10776   0.917   5.187   2.604  0.2756 -0.2066  0.1552
 6577W        W10777   9.228   7.907   3.368  0.1191  0.0075  0.0302
 6578W        W10778   7.681   8.440   0.303 -0.2328  0.2471 -0.4080
 6579W        W10779   5.324   6.485  12.134  0.0728  0.1153 -0.4047
 6580W        W10780   1.521   0.225  10.236  0.2314 -0.2732 -0.1617
 6581W        W10781  10.361   1.692   1.658 -0.1763  0.0716 -0.0380
 6582W        W10782   7.715   7.970  12.353 -0.4539  0.2164  0.0431
 6583W        W10783   2.252   1.061   9.267 -0.2196 -0.0165  0.1209
 6584W        W10784   9.414   3.426   1.336  0.3877  0.1272  0.1480
 6585W        W10785   9.356   1.421  11.587 -0.0928  0.0525  0.0070
 6586W        W10786   9.455   1.315   1.514 -0.4594 -0.2629  0.0207
 6587W        W10787   0.099   1.244   3.713 -0.0776 -0.4068 -0.1860
 6588W        W10788   7.862   4.561   1.803 -0.1690 -0.1209 -0.1529
 6589W        W10789   8.548   1.625  12.186 -0.1399  0.0893  0.1723
 6590W        W10790   7.126   7.426   9.885 -0.0848  0.1314 -0.0452
 6591W        W10791   6.761   2.877   4.554  0.3336 -0.3898 -0.2087
 6592W        W10792   9.367   7.342   2.565  0.0254  0.3341  0.1688
 6593W        W10793   5.096   2.080   8.628 -0.0269 -0.1595 -0.0965
 6594W        W10794   6.545   5.906   0.935  0.0204 -0.0062  0.0623
 6595W        W10795   5.088   4.199   3.025 -0.0972  0.2784 -0.4010
 6596W        W10796   1.701   4.999   1.783  0.2986  0.1328 -0.1721
 6597W        W10797   9.211   2.839   0.707 -0.0410  0.0819  0.0392
 6598W        W10798   5.907   8.101   2.744  0.1793  0.0298 -0.1661
 6599W        W10799   9.498   3.776  10.129  0.2338  0.2259  0.0884
 6600W        W10800   2.747   6.702  13.297 -0.0271 -0.0123 -0.0232
 6601W        W10801   6.122   6.000   1.116 -0.4562 -0.1186 -0.0030
 6602W        W10802   9.581   6.854   4.135 -0.4775 -0.2402  0.1090
 6603W        W10803   3.598   5.081   4.019 -0.3669 -0.1121 -0.0269
 6604W        W10804   2.819   6.815   2.365  0.0210  0.1025  0.1326
 6605W        W10805   0.223   2.202   5.701 -0.0323  0.0464 -0.0159
 6606W        W10806   5.881  10.389   0.525  0.0388  0.2777 -0.0886
 6607W        W10807   5.936   3.676  13.297 -0.0558  0.0912  0.0874
 6608W        W10808   7.597   7.732  11.052 -0.1608  0.0442 -0.3020
 6609W        W10809  10.196   3.731   0.529  0.1008  0.2700  0.2392
 6610W        W10810   0.961   2.373   9.934  0.0831 -0.1577 -0.0249
 6611W        W10811   4.992  10.070   3.496  0.1105 -0.1517  0.0508
 6612W        W10812   7.922   9.532   2.794 -0.0077 -0.0580  0.0886
 6613W        W10813   1.914   6.919   1.330 -0.2727  0.2475 -0.1860
 6614W        W10814   7.818   8.555  10.913  0.1463 -0.2916  0.0846
 6615W        W10815   8.971   5.672  11.482 -0.2518 -0.4029  0.1134
 6616W        W10816   2.104   6.258   9.668 -0.3509  0.2005 -0.1763
 6617W        W10817   1.324   0.710   2.953 -0.0154 -0.0124 -0.2369
 6618W        W10818   1.480   9.265  12.319  0.0425 -0.0424 -0.2411
 6619W        W10819   6.171  10.314  12.416 -0.1490 -0.1037 -0.1985
 6620W        W10820   0.573   9.968  11.806  0.0306 -0.1515 -0.2021
 6621W        W10821   3.551   4.872  12.150 -0.2417  0.0765 -0.0568
 6622W        W10822   1.472   6.693   4.320 -0.2137  0.1914  0.0525
 6623W        W10823   5.960   4.330  11.934 -0.1441 -0.0477 -0.1339
 6624W        W10824   5.096   5.454   9.796 -0.3693 -0.1526  0.2230
 6625W        W10825   9.570   4.181   1.986  0.2135  0.1777 -0.0061
 6626W        W10826   5.440   8.978   3.665  0.1259  0.2502 -0.2289
 6627W        W10827   1.092   5.794   3.456 -0.0234  0.2804  0.2684
 6628W        W10828   4.110   9.384  11.722 -0.2192  0.0155  0.0236
 6629W        W10829   9.582   1.168   2.776  0.2147 -0.1436 -0.0823
 6630W        W10830   9.226   1.489   0.262  0.1052  0.0270 -0.2308
 6631W        W10831   0.215  10.244   2.511  0.1327 -0.0718 -0.0294
 6632W        W10832   1.510   0.428   9.126 -0.2516  0.1491 -0.1122
 6633W        W10833   4.366   6.525  12.476  0.0394 -0.2852  0.1117
 6634W        W10834   2.367   9.456   3.861  0.0162  0.0230 -0.0230
 6635W        W10835   1.057   8.493  12.443  0.1773  0.0300 -0.2582
 6636W        W10836   1.576   7.373   0.675  0.4479 -0.1513  0.1003
 6637W        W10837   3.125   5.929   2.424  0.0638 -0.3675  0.2274
 6638W        W10838   4.075   4.462  12.944  0.0898  0.4619  0.0401
 6639W        W10839   8.139   9.947   2.939  0.2981 -0.1099  0.0723
 6640W        W10840   4.406  10.041  10.314  0.0518  0.0067 -0.0596
 6641W        W10841   6.603   2.979  12.501 -0.2046  0.0461  0.0898
 6642W        W10842   8.298   2.201   1.919  0.1101  0.0880  0.1714
 6643W        W10843   8.361   1.384   0.082  0.0095 -0.1554 -0.1866
 6644W        W10844   0.344   3.834   3.119 -0.0948  0.2525 -0.2913
 6645W        W10845   7.840   2.394   1.773  0.1878  0.1630  0.0851
 6646W        W10846   2.621   2.523   4.531 -0.1032 -0.0860  0.0096
 6647W        W10847   3.125   5.926   3.976  0.1507 -0.0956 -0.0543
 6648W        W10848   7.434   5.941   2.474  0.2442 -0.3643 -0.1912
 6649W        W10849   2.642   8.129   4.720 -0.0554  0.0434  0.0753
 6650W        W10850   1.145   6.787   3.097  0.0897 -0.1342  0.0442
 6651W        W10851   9.147   0.046   0.011  0.0275  0.3857 -0.1668
 6652W        W10852   1.663   8.684   0.450 -0.2407 -0.1196  0.0612
 6653W        W10853   4.123   4.585   1.328  0.0238 -0.2046  0.1057
 6654W        W10854   9.146   9.785   3.700  0.3867  0.3395 -0.0686
 6655W        W10855   5.240   1.391  13.298  0.2259  0.4438 -0.0647
 6656W        W10856   5.559   7.155   4.328  0.0904 -0.4506 -0.1447
 6657W        W10857   2.445   2.140   4.901  0.2875 -0.0225  0.4026
 6658W        W10858   4.767   2.714   0.902 -0.1780 -0.1952 -0.1968
 6659W        W10859   3.893   0.269   1.718  0.3436  0.2856 -0.1980
 6660W        W10860   6.275   8.172   8.832  0.1980  0.0046 -0.0337
 6661W        W10861   4.084   1.247   1.732  0.1429  0.0182  0.0799
 6662W        W10862   1.229   2.035  10.193 -0.0976  0.0659 -0.1036
 6663W        W10863   3.891   4.508  10.382 -0.3117 -0.0744  0.5513
 6664W        W10864   4.105   2.304  12.630  0.0507 -0.0966 -0.1605
 6665W        W10865   4.849  10.188   2.958 -0.0112 -0.0023  0.0309
 6666W        W10866   2.028   0.647   0.750 -0.1825  0.0296  0.0470
 6667W        W10867   8.703   4.914  11.051  0.1510 -0.1272  0.1999
 6668W        W10868   0.982   9.159   3.989 -0.4150 -0.0132 -0.1656
 6669W        W10869   6.263   1.714   1.431 -0.0711 -0.0067  0.0293
 6670W        W10870   5.749   2.783   4.577 -0.0544 -0.2294 -0.0834
 6671W        W10871   3.029   7.473  12.275  0.1641  0.3741  0.0804
 6672W        W10872   4.329   5.998   3.142  0.1311  0.0028  0.1050
 6673W        W10873   5.792   6.502   9.505 -0.1419  0.0348  0.1558
 6674W        W10874   0.700   5.713   3.934 -0.1419  0.0790  0.1500
 6675W        W10875   0.087   0.377   0.545 -0.1438  0.0644  0.0633
 6676W        W10876   9.443   5.697   2.887  0.3653 -0.0303  0.1073
 6677W        W10877   0.417   2.628  12.593 -0.3422  0.0344 -0.0027
 6678W        W10878   8.102   4.095   1.403  0.0096  0.2922  0.0677
 6679W        W10879   0.495   4.578   2.854  0.2830  0.0203 -0.0411
 6680W        W10880   8.933   0.628  12.183  0.0031 -0.1529  0.0590
 6681W        W10881   9.972   5.734   0.779 -0.2873  0.0564  0.1085
 6682W        W10882   1.872   3.466   9.454  0.0879 -0.0515 -0.1864
 6683W        W10883   1.654   8.440  13.486 -0.0299  0.0768 -0.4507
 6684W        W10884   7.743   6.595   1.556 -0.0765  0.1921 -0.0159
 6685W        W10885   5.920   1.859   1.110 -0.2125 -0.1774 -0.3979
 6686W        W10886   4.771   5.597  12.960 -0.3992  0.0234 -0.0781
 6687W        W10887   6.446   5.011   0.691  0.0403  0.2936  0.0709
 6688W        W10888  10.251   4.934  12.908  0.3639 -0.0151 -0.0765
 6689W        W10889   1.532   1.124   0.154  0.3039  0.1536 -0.0097
 6690W        W10890   4.609   2.978   0.486 -0.0071 -0.0934  0.2224
 6691W        W10891   3.160   3.127   0.066  0.0520  0.3424  0.0927
 6692W        W10892   7.339   2.558   9.949  0.1489  0.0686 -0.1648
 6693W        W10893   8.333   9.542   2.498  0.2819  0.2785  0.1263
 6694W        W10894   6.805   9.398  11.604  0.1159  0.2449  0.1990
 6695W        W10895   9.397   6.683  13.106 -0.0908 -0.2336 -0.2486
 6696W        W10896   0.572   6.699  10.604  0.1548  0.1924 -0.1119
 6697W        W10897   8.607   2.355  10.542  0.0780 -0.1394  0.2428
 6698W        W10898   0.749  10.251   1.079  0.0862 -0.1505  0.2987
 6699W        W10899   8.050   8.479  11.801  0.2811  0.1365 -0.3454
 6700W        W10900   9.639   5.937   1.951 -0.1344 -0.0638 -0.1147
 6701W        W10901   8.680   1.548  10.364  0.1755 -0.2456  0.1273
 6702W        W10902   3.763   3.229  10.405 -0.0777 -0.0250  0.0746
 6703W        W10903   2.588   4.990  11.179 -0.1568 -0.0729  0.3236
 6704W        W10904   2.259   1.220   4.330  0.1893 -0.0255  0.1288
 6705W        W10905   6.632   5.189  12.783  0.0885  0.0067 -0.0237
 6706W        W10906   7.856   3.876   4.291 -0.0377  0.0783 -0.1219
 6707W        W10907   7.594   4.761   4.289 -0.5310  0.0281  0.0680
 6708W        W10908   1.639   9.663  12.135 -0.1489 -0.0913  0.0130
 6709W        W10909   9.172   5.658  13.340  0.3443 -0.1318  0.2620
 6710W        W10910   0.265   8.513   1.285 -0.1176 -0.1119  0.3523
 6711W        W10911   4.374   8.826   1.158 -0.2370  0.2018 -0.2006
 6712W        W10912   5.322   4.701   2.035  0.3015  0.0066 -0.0127
 6713W        W10913   7.362   8.022   9.318 -0.1379  0.0231  0.1016
 6714W        W10914   6.520   3.244  10.752  0.1934 -0.1916 -0.0840
 6715W        W10915   3.580   4.250   4.646  0.1021  0.0909 -0.1965
 6716W        W10916   2.095   4.309   0.695 -0.0424 -0.0566  0.0363
 6717W        W10917   6.533   9.742  13.091 -0.0229  0.2964  0.0550
 6718W        W10918   4.652   7.482   3.192 -0.0376 -0.2046 -0.0269
 6719W        W10919   5.073   7.967  13.058  0.3061  0.3094  0.0632
 6720W        W10920   7.039   6.209   3.227 -0.3926 -0.1824 -0.2042
 6721W        W10921   9.068   9.823  12.853 -0.1553  0.3885  0.3722
 6722W        W10922   9.591   4.736  12.127  0.3973 -0.1484  0.1518
 6723W        W10923   5.240   8.108  13.518  0.3419 -0.2940 -0.0986
 6724W        W10924   4.962   1.589   3.132 -0.3484 -0.1699  0.4766
 6725W        W10925   2.133   3.601   9.853  0.1377 -0.1055 -0.1012
 6726W        W10926   7.026   3.239   9.769 -0.1333  0.2670  0.0317
 6727W        W10927   2.934   4.802  11.520 -0.1445  0.3469 -0.0576
 6728W        W10928   0.033   2.156   8.875 -0.1480  0.2120 -0.3114
 6729W        W10929   5.985   7.740  10.811  0.0009 -0.1479  0.1548
 6730W        W10930   6.129   1.197   3.109  0.1060  0.0258 -0.0444
 6731W        W10931   9.298   7.438   1.499  0.3104  0.3960  0.1055
 6732W        W10932   2.572   7.878   4.254 -0.2804 -0.0337 -0.1896
 6733W        W10933   8.563   8.616  10.464  0.2450 -0.0115  0.3538
 6734W        W10934   2.913   1.416  10.871 -0.1799 -0.1210  0.1569
 6735W        W10935   5.012   6.293   4.661  0.3117 -0.3719  0.2697
 6736W        W10936   7.831   7.329  11.305  0.2695  0.0427 -0.2422
 6737W        W10937   8.618   2.575   2.116 -0.2868 -0.2026  0.0764
 6738W        W10938   6.388   0.280  13.026  0.5465  0.1712 -0.2405
 6739W        W10939   2.794   6.731   3.488  0.0656  0.1116  0.2590
 6740W        W10940   4.033   5.203  10.867  0.2947  0.0235 -0.0120
 6741W        W10941   1.714   6.398   2.992  0.1937  0.1368 -0.0993
 6742W        W10942   9.589   0.060  12.045 -0.2073  0.3154 -0.1849
 6743W        W10943   8.000   4.697  13.148 -0.0530 -0.1866 -0.0305
 6744W        W10944   3.957   0.892   2.596  0.0938 -0.1208  0.0857
 6745W        W10945   8.275   1.089  13.229 -0.2846 -0.1631 -0.3049
 6746W        W10946   2.282   6.451   3.059 -0.0687  0.1197  0.1583
 6747W        W10947   3.994   0.721   4.306  0.1649 -0.0120  0.0061
 6748W        W10948   4.531   1.061  10.508  0.0604 -0.2245  0.2458
 6749W        W10949   6.667   5.925   2.459 -0.1925 -0.5517 -0.1156
 6750W        W10950   3.106   1.221   2.260 -0.4053  0.0908  0.2042
 6751W        W10951   8.039   6.387   0.221 -0.0302  0.2930  0.0190
 6752W        W10952   9.703   4.780  10.229 -0.0450 -0.1088  0.2574
 6753W        W10953   1.613   4.244   8.971  0.1116  0.0706 -0.1985
 6754W        W10954   9.561   7.911  10.668  0.0420  0.1589  0.1122
 6755W        W10955   7.987   0.767  10.753 -0.1122 -0.1962  0.2636
 6756W        W10956   2.073   0.976  12.841  0.0272  0.0238  0.2372
 6757W        W10957   7.482   9.457   2.566  0.1377  0.0552 -0.0921
 6758W        W10958   4.387   1.708   0.143 -0.0416  0.0151 -0.1543
 6759W        W10959   2.644   5.740   4.725  0.0371  0.0590 -0.0260
 6760W        W10960   6.254   2.215   1.240  0.2359 -0.0284 -0.0866
 6761W        W10961   3.219   5.774  11.675  0.1719  0.2797  0.0537
 6762W        W10962   2.947   1.058   0.814 -0.1856  0.1002  0.0707
 6763W        W10963   3.782   4.578  12.528 -0.0063 -0.0263  0.0589
 6764W        W10964   2.443   4.183   9.564 -0.2221 -0.2010  0.1999
 6765W        W10965   4.312   4.542   3.505  0.0860  0.2172 -0.2840
 6766W        W10966  10.057   8.278   1.264  0.1654 -0.1627 -0.1144
 6767W        W10967   5.960   3.613  12.306  0.0649  0.1119  0.0447
 6768W        W10968   0.511   7.651   1.489  0.0415  0.3087  0.0484
 6769W        W10969   6.424   9.698  11.560 -0.1285  0.1864 -0.0593
 6770W        W10970   4.740   9.350   3.770  0.2258 -0.0831 -0.1505
 6771W        W10971   4.044  10.348  12.962 -0.0222  0.3498  0.0619
 6772W        W10972   8.952   9.049  13.160  0.1032 -0.1873 -0.4365
 6773W        W10973   0.508   2.358   8.451  0.0582 -0.2589  0.1260
 6774W        W10974   7.991   5.067  10.656 -0.0622 -0.0764  0.2178
 6775W        W10975   9.549   4.012  11.499  0.3285  0.3127 -0.0758
 6776W        W10976   1.072   9.029   9.164  0.2873  0.3108  0.0421
 6777W        W10977   7.650   5.463   9.970  0.0572  0.0714 -0.0673
 6778W        W10978   2.662   7.192   9.178  0.0096  0.2029 -0.0371
 6779W        W10979   1.979  10.264   1.941  0.0890 -0.3350  0.1925
 6780W        W10980   2.688   7.710   1.845 -0.0948  0.3490  0.1337
 6781W        W10981   6.834   1.221  11.570 -0.2891  0.0272 -0.1090
 6782W        W10982  10.287   9.984   2.265  0.0502 -0.2654  0.0574
 6783W        W10983   1.945   8.062   3.683 -0.0045  0.0269  0.0999
 6784W        W10984   6.838   0.924   3.776 -0.1639  0.4123  0.1764
 6785W        W10985  10.126   6.817   1.106 -0.1405  0.1634  0.0979
 6786W        W10986   2.127   3.753  10.330 -0.1536 -0.1601 -0.1899
 6787W        W10987   3.902  10.069   3.157 -0.0614 -0.1298  0.0384
 6788W        W10988   6.329   7.994   0.014  0.0150  0.2429  0.2372
 6789W        W10989   6.266   9.588   1.536  0.0250  0.3709 -0.0529
 6790W        W10990   5.281   3.420  10.535  0.0624 -0.2424  0.0150
 6791W        W10991   6.731   4.675  11.074  0.0343 -0.1318  0.2304
 6792W        W10992   6.053   2.775  12.419  0.0885  0.1294 -0.0397
 6793W        W10993   3.137   8.781   0.947 -0.1288 -0.0537 -0.0402
 6794W        W10994   0.308   6.430   0.630 -0.1808  0.0357  0.0101
 6795W        W10995   7.588   2.003   3.836  0.1485  0.0746 -0.1820
 6796W        W10996   2.431   0.052   1.175  0.1847  0.1349 -0.2558
 6797W        W10997   1.987   3.907  11.578 -0.0381  0.0544  0.1554
 6798W        W10998   0.127   7.139  12.869 -0.2778 -0.1109 -0.3704
 6799W        W10999   0.358   1.070   9.592 -0.1583 -0.1677  0.1077
 6800W        W11000   5.950   7.465  11.720  0.4274 -0.0356  0.1306
 6801W        W11001   1.058   4.572   1.061 -0.2669  0.0339  0.1699
 6802W        W11002   6.968   1.665   4.669  0.1142 -0.0189  0.0661
 6803W        W11003   5.244   8.925   0.408 -0.1579  0.2878 -0.2143
 6804W        W11004   3.520   4.871   9.533 -0.3328  0.2150  0.2500
 6805W        W11005   4.250   0.064   2.492 -0.2171 -0.0797  0.0481
 6806W        W11006   8.133   6.306   9.770 -0.3213  0.0302 -0.1903
 6807W        W11007   1.612   4.527  12.050  0.0466 -0.0976 -0.1047
 6808W        W11008   1.273   8.573   1.955  0.2932 -0.1191  0.2653
 6809W        W11009   6.531   8.542  11.036  0.0235  0.0153  0.0358
 6810W        W11010   0.543   2.519   3.454 -0.0998  0.1137  0.0822
 6811W        W11011   6.478   6.108  12.166 -0.0448  0.0134 -0.5743
 6812W        W11012   3.494   8.611  12.560  0.0259  0.0883  0.2967
 6813W        W11013   1.895   2.703  12.792 -0.2126 -0.0196 -0.0462
 6814W        W11014   5.824   2.909  11.363 -0.0266  0.2132 -0.0443
 6815W        W11015   4.264   5.022   1.191 -0.0409 -0.0487  0.1044
 6816W        W11016   9.007   7.729   2.704  0.0436 -0.0594  0.2930
 6817W        W11017   8.297   0.507   0.293  0.2063  0.0446 -0.1893
 6818W        W11018   4.321   4.353  10.603 -0.0362  0.1638 -0.0585
 6819W        W11019   8.834   4.520  13.388  0.3411  0.0886  0.1424
 6820W        W11020   9.423   1.843   1.140 -0.0064  0.0146 -0.0532
 6821W        W11021   5.451   0.066  10.366 -0.2045 -0.1250  0.0796
 6822W        W11022   9.550   1.982  11.531  0.0925 -0.0650  0.2264
 6823W        W11023   7.170   3.563  12.444 -0.0148 -0.2048  0.0582
 6824W        W11024   1.582   3.969   3.377 -0.1367  0.1759 -0.1282
 6825W        W11025  10.298   5.423  12.874 -0.0886 -0.3254  0.0544
 6826W        W11026   2.906   1.570   0.742  0.0561  0.3902  0.3978
 6827W        W11027  10.167   7.898  13.098  0.0926 -0.1398 -0.0101
 6828W        W11028   8.303   1.703   1.141  0.2331  0.4611 -0.0064
 6829W        W11029   5.735   0.224   1.985 -0.0446 -0.2348 -0.0892
 6830W        W11030   1.162   4.893   4.517 -0.0266 -0.4409 -0.1696
 6831W        W11031   3.441   7.981  11.777 -0.1826  0.4842  0.0961
 6832W        W11032   5.515  10.365  11.332  0.1932  0.1221 -0.0694
 6833W        W11033   2.543   0.573   5.071  0.0391  0.1683  0.0283
 6834W        W11034   6.686   2.441   3.245 -0.1091 -0.4616 -0.0622
 6835W        W11035   0.350   5.811  10.055 -0.2824  0.2602  0.0903
 6836W        W11036   8.726   2.310  12.010  0.0217  0.1058  0.2408
 6837W        W11037   2.066   1.467  13.236 -0.0646  0.2718  0.1565
 6838W        W11038   6.208   5.956   8.035 -0.1542 -0.0367 -0.4962
 6839W        W11039   5.522   9.792   2.647 -0.3230  0.1187  0.0543
 6840W        W11040  10.141   7.286   1.423  0.2503  0.0678 -0.2120
 6841W        W11041   5.978   4.917   1.509 -0.0340 -0.1403 -0.6121
 6842W        W11042   1.372   4.181   9.693  0.2694  0.1600  0.1298
 6843W        W11043   1.269   0.019   1.285 -0.0870 -0.3902  0.3730
 6844W        W11044  10.186   1.377   3.329  0.1183  0.5329  0.1472
 6845W        W11045   3.848  10.115   2.591  0.2111  0.2439  0.0400
 6846W        W11046   3.980   4.533   0.620 -0.1116  0.1604  0.0440
 6847W        W11047   3.184   5.706   0.809  0.4315  0.1402  0.1565
 6848W        W11048   6.982   4.213  13.168  0.0386  0.0233 -0.2791
 6849W        W11049   3.627   9.583   2.427 -0.0808 -0.0373 -0.0661
 6850W        W11050   4.450   5.536  13.342 -0.2617  0.0975  0.2061
 6851W        W11051   2.713   4.038   0.124 -0.1371 -0.2771 -0.0732
 6852W        W11052   7.141   2.908   4.265  0.1403  0.1020 -0.0143
 6853W        W11053   1.528   4.578   3.076  0.2982 -0.0526 -0.3006
 6854W        W11054   1.587   5.362   0.786  0.0979  0.0393  0.0300
 6855W        W11055   9.854   9.802   2.110  0.2501  0.1227 -0.0544
 6856W        W11056   9.236  10.184  12.364 -0.2847  0.2127  0.1526
 6857W        W11057   2.363   2.552   1.035 -0.0509 -0.0640  0.0890
 6858W        W11058   7.072   9.529   1.405 -0.0014 -0.1792 -0.0124
 6859W        W11059  10.302   4.666  11.012 -0.1160 -0.0741  0.0065
 6860W        W11060   2.775   4.446  13.022  0.2208  0.0609  0.0447
 6861W        W11061   0.597   0.898  12.722 -0.2636 -0.1322 -0.0004
 6862W        W11062   8.283   7.148  10.728 -0.3739 -0.0998  0.0842
 6863W        W11063   5.151   8.677   9.304  0.3471 -0.3652 -0.2319
 6864W        W11064   7.757   7.379  10.352  0.3959  0.2549  0.1844
 6865W        W11065   1.834   6.383   1.520  0.0493 -0.0108 -0.1796
 6866W        W11066   1.405   1.229   4.291  0.0530 -0.0308  0.3998
 6867W        W11067   2.964   2.669   9.964 -0.0448  0.0619  0.0795
 6868W        W11068   2.619   3.886   3.336 -0.0419 -0.2429  0.0997
 6869W        W11069   8.969   4.847   3.068  0.2491 -0.0400  0.1993
 6870W        W11070   1.664   3.765  12.070 -0.0791  0.1838 -0.2221
 6871W        W11071   9.792   6.560   3.215 -0.1249  0.1260 -0.0481
 6872W        W11072   3.157   9.990   5.438  0.0261  0.0718 -0.0641
 6873W        W11073   2.580   0.158  10.488 -0.2890  0.1304 -0.0480
 6874W        W11074   6.058   4.934   9.433  0.2448 -0.1947 -0.0350
 6875W        W11075   0.595   5.068  10.914  0.0217  0.1493  0.1233
 6876W        W11076   5.810   0.755   3.115  0.3263  0.2072 -0.0447
 6877W        W11077   5.230   7.690   3.762 -0.1297 -0.2358  0.2717
 6878W        W11078   5.873   8.118  10.356  0.0382 -0.0361  0.1134
 6879W        W11079   0.429   4.257   0.280  0.1019 -0.0841  0.0091
 6880W        W11080   8.614   6.624  13.330 -0.2483 -0.1868  0.0619
 6881W        W11081   3.341   0.254   0.613  0.0747 -0.1898  0.2277
 6882W        W11082   5.836   6.236  12.342 -0.1080 -0.0275  0.3528
 6883W        W11083   4.269   7.063  12.794 -0.1580 -0.0569 -0.1286
 6884W        W11084   1.191   7.183   1.894 -0.0251 -0.1873 -0.3390
 6885W        W11085   5.434   3.054   2.713 -0.1934  0.0893 -0.0149
 6886W        W11086  10.211   0.747  11.539  0.4126 -0.1341  0.0505
 6887W        W11087   7.684   4.345  12.577 -0.0113  0.4280  0.3758
 6888W        W11088   2.158   8.569  12.659 -0.1518  0.0933 -0.1397
 6889W        W11089   1.946   7.379   2.285  0.1013  0.3275  0.1941
 6890W        W11090   4.417   5.304   8.388  0.0891  0.0929 -0.1616
 6891W        W11091   1.833   0.683   9.603  0.0944  0.0872  0.0919
 6892W        W11092   8.719   9.172   1.730  0.0509  0.2490 -0.0036
 6893W        W11093   2.448   2.050  12.382  0.1423 -0.0536  0.0066
 6894W        W11094   1.230   5.867  11.191 -0.2254  0.1383  0.0830
 6895W        W11095   9.800   9.129   3.275  0.1616  0.1194 -0.0759
 6896W        W11096   3.972   4.243  13.374 -0.2774 -0.1191 -0.0076
 6897W        W11097   0.594   2.809   9.340 -0.0366 -0.1197  0.1738
 6898W        W11098   9.760  10.012   1.309  0.2885  0.0750 -0.0073
 6899W        W11099   8.588   2.782   5.043  0.1062 -0.1913  0.0436
 6900W        W11100   8.442   7.595  13.410  0.0892 -0.0756 -0.0233
 6901W        W11101   3.744   3.690  11.572 -0.2396 -0.2130 -0.5003
 6902W        W11102   4.828   1.511  13.014 -0.2947  0.0782 -0.0054
 6903W        W11103   5.051   3.360   9.527  0.3418  0.0346 -0.0326
 6904W        W11104   7.692   5.469  10.433 -0.1284  0.1352 -0.0681
 6905W        W11105   5.382   5.912   3.250 -0.0826 -0.2045 -0.0783
 6906W        W11106   8.277   5.844   2.242  0.0932 -0.2822  0.1151
 6907W        W11107   3.654   8.912  12.952 -0.0515 -0.4604 -0.0442
 6908W        W11108   4.210   7.463  10.108 -0.0430 -0.1515  0.1668
 6909W        W11109   1.740   3.571  10.803  0.3289 -0.0424 -0.0311
 6910W        W11110  10.378   5.611   2.596  0.3777  0.1614 -0.3661
 6911W        W11111   3.722   4.691   2.866 -0.0351 -0.0121 -0.1333
 6912W        W11112   5.030   8.617  13.480  0.0676 -0.1173 -0.0323
 6913W        W11113   0.757   5.505  12.056  0.0543 -0.3880  0.1038
 6914W        W11114   1.219  10.331  10.611 -0.1257  0.1647 -0.0577
 6915W        W11115   8.277   6.666   1.093  0.1278  0.1209 -0.1529
 6916W        W11116   6.077   3.040   3.882  0.2542  0.0427 -0.1438
 6917W        W11117   3.495   0.201  10.350  0.0218 -0.1247  0.0674
 6918W        W11118   7.350   3.469   9.063  0.3358  0.2155 -0.0786
 6919W        W11119   1.361   9.670   4.544 -0.0976  0.1608 -0.1791
 6920W        W11120   3.120   8.723   1.436  0.0954  0.1306 -0.2461
 6921W        W11121   7.978   0.770   1.112 -0.2550  0.0131 -0.2348
 6922W        W11122   4.155   3.501   3.432  0.2237 -0.0977  0.4154
 6923W        W11123   6.841   9.787   2.382  0.1592 -0.1100  0.1393
 6924W        W11124   2.995   9.035  11.791  0.2494  0.0676  0.2069
 6925W        W11125   5.244   3.238   4.463  0.0183  0.0671 -0.0884
 6926W        W11126   8.226   4.040   1.898 -0.0099  0.0281  0.3179
 6927W        W11127   0.997   8.692  10.350  0.0977  0.2178  0.2258
 6928W        W11128   7.187   9.703   1.977  0.0205  0.0294 -0.1822
 6929W        W11129   2.293   6.450  13.534  0.1143 -0.2232 -0.0924
 6930W        W11130   8.768   3.455  11.833 -0.1527  0.0452 -0.1848
 6931W        W11131   6.089   5.560  10.503  0.0914  0.2235  0.0051
 6932W        W11132   7.803   2.147  12.537  0.0498 -0.0289  0.0709
 6933W        W11133  10.385   7.594  12.763 -0.0463 -0.2668 -0.2641
 6934W        W11134   6.188   5.369  12.938 -0.5516 -0.2268  0.0941
 6935W        W11135   3.932   7.806   3.712 -0.1792  0.0583 -0.0898
 6936W        W11136   0.741   6.713   0.463  0.0131  0.2306  0.3639
 6937W        W11137   0.775   8.740   3.808  0.1166 -0.0513  0.1347
 6938W        W11138   3.426   9.328   3.480 -0.1136 -0.0730 -0.1040
 6939W        W11139   0.079   7.877   9.579  0.0512  0.0088 -0.1457
 6940W        W11140   0.479   9.316  12.426  0.1218 -0.0507 -0.0582
 6941W        W11141  10.391   5.175   2.814  0.2087  0.0529  0.2486
 6942W        W11142   8.174   4.542  12.636  0.3259 -0.3206  0.0769
 6943W        W11143   7.500   1.605  11.050 -0.2215 -0.2097  0.0866
 6944W        W11144   1.067   5.755   0.624  0.0891  0.1861 -0.0322
 6945W        W11145   4.436   1.716  10.374  0.1246  0.0277 -0.0110
 6946W        W11146   2.586   4.662  13.483 -0.0512  0.1378  0.3713
 6947W        W11147   5.206   2.666   0.037  0.0282 -0.0344  0.1452
 6948W        W11148   9.853   9.196   9.558 -0.2886  0.1546  0.4529
 6949W        W11149   1.638   0.357  13.445  0.3001 -0.3571 -0.0722
 6950W        W11150   8.439   1.912   4.589  0.4792 -0.2394  0.2984
 6951W        W11151   7.914   0.829   2.401 -0.0022 -0.1964 -0.1973
 6952W        W11152   1.821   7.316   3.076  0.2003  0.0697 -0.2525
 6953W        W11153   2.299   3.015  12.905 -0.0559  0.1228  0.2275
 6954W        W11154   8.303   1.266   3.481 -0.2686  0.3393  0.2237
 6955W        W11155   8.918   2.098  12.416 -0.0873 -0.3705 -0.0420
 6956W        W11156   1.091   5.569   9.187  0.2216 -0.0523 -0.0149
 6957W        W11157   2.888   3.286   4.042  0.0217 -0.4363  0.1925
 6958W        W11158   2.551   5.112  12.218 -0.4629  0.1408  0.1162
 6959W        W11159   4.558   0.087  12.868  0.3240  0.1850  0.2652
 6960W        W11160   2.570  10.075   9.742 -0.2106  0.2130  0.0060
 6961W        W11161   3.796   4.607   8.736  0.0794 -0.0115  0.1317
 6962W        W11162   6.950   7.776  13.115 -0.0303  0.3501  0.0100
 6963W        W11163   8.012   4.085  11.473  0.1320 -0.0001  0.3186
 6964W        W11164   8.149   6.740   3.278  0.0910 -0.3749 -0.3103
 6965W        W11165   9.480   4.692   4.256  0.0228  0.2904  0.2398
 6966W        W11166   7.053   6.102   1.040 -0.0424  0.0649 -0.2293
 6967W        W11167   6.404   3.479  13.077 -0.1461  0.2881  0.1674
 6968W        W11168   7.609   8.812  12.662 -0.0047  0.2196 -0.2009
 6969W        W11169   1.726  10.308   3.220 -0.2754 -0.1930 -0.1717
 6970W        W11170   9.494   4.049  10.753  0.0337 -0.3753  0.1042
 6971W        W11171   0.710  10.435   4.064  0.2842  0.0222 -0.1667
 6972W        W11172   6.876   4.746   0.257 -0.0365 -0.2720 -0.0175
 6973W        W11173   5.225   6.252  13.408 -0.0367 -0.1841 -0.0668
 6974W        W11174   0.998   2.737  10.933 -0.1258  0.3114  0.0142
 6975W        W11175   1.727   4.582   9.989 -0.1152 -0.2281  0.1244
 6976W        W11176   1.338   5.954  10.192 -0.2857  0.2143  0.0971
 6977W        W11177   6.433   9.831  12.318 -0.1362  0.2010  0.1489
 6978W        W11178   8.219   8.554   1.238 -0.0398  0.1184  0.0844
 6979W        W11179   6.093   9.866  12.718 -0.0223  0.1139  0.3236
 6980W        W11180   5.520   8.995   2.080 -0.2069 -0.1198  0.2027
 6981W        W11181   8.988   3.051  12.466 -0.0899 -0.0413  0.1262
 6982W        W11182   6.864   2.291  11.432  0.2297 -0.0736 -0.1185
 6983W        W11183   2.558   6.162  12.376 -0.0663 -0.0780  0.2731
 6984W        W11184   9.242  10.143   0.412  0.1083  0.1561 -0.2181
 6985W        W11185   8.487   7.159   1.303 -0.0893 -0.0014 -0.2569
 6986W        W11186   5.767   8.639   2.664 -0.1165  0.1912  0.2833
 6987W        W11187   8.913   9.231  11.795  0.2260  0.0487  0.1343
 6988W        W11188   1.464   9.682  11.624 -0.1681 -0.1933 -0.1898
 6989W        W11189   4.653   8.374  10.982  0.0164 -0.0669  0.0067
 6990W        W11190   3.097  10.178  13.133 -0.0257  0.0765  0.2889
 6991W        W11191   3.952   3.234  12.704  0.2494 -0.0264  0.0615
 6992W        W11192   4.598   8.948   4.055  0.0721 -0.1588 -0.0201
 6993W        W11193   3.634   1.459   2.462  0.0507  0.1546  0.1052
 6994W        W11194   1.510   5.741   3.888  0.3553  0.1510 -0.2342
 6995W        W11195   0.856   7.342   4.502 -0.0347  0.1346 -0.3116
 6996W        W11196   2.021   8.512   0.759  0.0110 -0.4445  0.2694
 6997W        W11197   4.648   8.537  10.479 -0.0067 -0.1169  0.0098
 6998W        W11198   3.964   6.690  10.598 -0.2130  0.0468 -0.0608
 6999W        W11199   7.359   6.901   2.430 -0.1190 -0.3071 -0.3114
 7000W        W11200   6.852   0.792   2.441 -0.1332  0.1297  0.2312
 7001W        W11201   2.751   0.921   0.263 -0.1615  0.0054 -0.1953
 7002W        W11202   7.482   0.064  10.422  0.0973 -0.0962  0.3330
 7003W        W11203   3.588   3.036  12.237 -0.1978  0.0505 -0.1911
 7004W        W11204   8.395   3.710  11.623  0.1422 -0.0453  0.3884
 7005W        W11205   7.995   3.715   4.805 -0.1390 -0.0223  0.1555
 7006W        W11206   2.358   7.493  10.320 -0.2429  0.0700  0.0036
 7007W        W11207   1.837   3.418   3.953  0.0431  0.0927  0.1884
 7008W        W11208   8.166   2.212  11.522 -0.0927  0.3175 -0.0164
 7009W        W11209   0.588   3.298  10.720  0.0857  0.0428 -0.3234
 7010W        W11210   0.732   3.848   0.931 -0.0830 -0.0149  0.0282
 7011W        W11211   5.120   4.233   2.167  0.1462 -0.2084 -0.0541
 7012W        W11212   9.442   8.559  12.958 -0.0271 -0.2083 -0.2188
 7013W        W11213   2.577   4.411   0.830  0.0113 -0.0702  0.0262
 7014W        W11214   3.729   2.705   1.914  0.2755  0.4045 -0.1013
 7015W        W11215   1.788   3.333  12.285 -0.1175 -0.0464  0.1643
 7016W        W11216   9.882   4.681  11.256 -0.1704  0.0569  0.0290
 7017W        W11217   8.329   7.606   1.175  0.0936  0.0485  0.0089
 7018W        W11218   4.790   2.488   4.103 -0.0894 -0.0121 -0.1918
 7019W        W11219   8.598   7.797   2.459  0.0454 -0.1314 -0.0574
 7020W        W11220   1.491   4.994  12.965  0.0471 -0.1133 -0.0449
 7021W        W11221   8.716   0.248   0.202 -0.0306 -0.0354  0.2347
 7022W        W11222  10.165   7.104   4.211 -0.0049  0.1654  0.0387
 7023W        W11223   6.879   8.850   2.848 -0.0369  0.1486  0.3938
 7024W        W11224   3.826   0.940  12.888  0.3536  0.0377  0.0191
 7025W        W11225   3.711   8.419   3.141 -0.2117 -0.0982  0.1329
 7026W        W11226   5.515   2.647  12.118 -0.1773 -0.0563 -0.3122
 7027W        W11227   5.938   6.944   1.402  0.0348  0.1340  0.3729
 7028W        W11228   1.330   0.367   3.887  0.1002 -0.1327 -0.2022
 7029W        W11229   9.557   1.980   0.266  0.0010  0.0058 -0.2414
 7030W        W11230   9.414   4.967  12.588  0.0768  0.0509 -0.0159
 7031W        W11231   6.801   2.966   2.449 -0.0013  0.0499 -0.7248
 7032W        W11232   2.187   6.695  10.823  0.1905 -0.0816 -0.1454
 7033W        W11233   2.321   1.347   4.822  0.2147  0.2804 -0.1678
 7034W        W11234   2.407   9.787  12.670 -0.0962 -0.0779 -0.0830
 7035W        W11235   9.824   2.136  12.084  0.3373 -0.1504  0.1183
 7036W        W11236   8.226   0.546  10.001  0.0509 -0.1290  0.0079
 7037W        W11237   4.064   7.409   4.065  0.1128  0.3692  0.1379
 7038W        W11238   6.639   1.214   1.601 -0.3053  0.3217  0.0810
 7039W        W11239   5.676   0.206   1.143 -0.1177  0.2441  0.0602
 7040W        W11240   2.447   0.950   0.811  0.1955 -0.1462 -0.0304
 7041W        W11241   0.138   6.242  12.238  0.2556  0.0802  0.0724
 7042W        W11242   4.240   9.564  12.859 -0.0714  0.3229  0.1542
 7043W        W11243   7.796   0.473  10.317  0.0061 -0.0659 -0.0208
 7044W        W11244   4.249   7.446   1.319  0.0369  0.1333 -0.0516
 7045W        W11245   4.486   2.046  10.788 -0.0714  0.1308  0.1827
 7046W        W11246   9.052   5.434   3.733  0.0929  0.0709  0.3480
 7047W        W11247   2.160   3.151   0.373 -0.2261 -0.0542  0.0659
 7048W        W11248   8.596   8.875   0.021 -0.1062  0.2888  0.2356
 7049W        W11249  10.251   0.365   1.183  0.1475  0.0651  0.1257
 7050W        W11250   6.781   2.742  13.410  0.2614  0.0447 -0.0461
 7051W        W11251   5.655   2.723   0.296 -0.0880  0.2064 -0.1846
 7052W        W11252   5.046   6.383   3.293  0.3954 -0.1215 -0.0782
 7053W        W11253   2.022   2.205   1.020  0.0743  0.1256  0.0683
 7054W        W11254   9.344   0.254   1.219 -0.0397  0.0138 -0.1586
 7055W        W11255   4.597   5.975   3.732 -0.1675  0.2664 -0.2624
 7056W        W11256   3.723   5.760  11.608  0.0982  0.2955  0.1544
 7057W        W11257   0.568   5.828  12.367  0.1715 -0.0294  0.0167
 7058W        W11258   8.007   3.256  13.322 -0.1327 -0.0128  0.0770
 7059W        W11259   6.388   5.875   4.625 -0.2197  0.0365  0.1424
 7060W        W11260   0.351   0.566   3.569  0.0606  0.0827  0.1008
 7061W        W11261   9.957   1.176   9.915  0.1201 -0.1220 -0.1487
 7062W        W11262  10.160   1.383   0.615  0.0846 -0.2760 -0.0525
 7063W        W11263   6.744   5.483   0.711 -0.1476  0.3018 -0.0364
 7064W        W11264   4.451   5.959   2.011  0.0166  0.2649 -0.1608
 7065W        W11265   9.533   3.861  12.482  0.2667  0.0520  0.3420
 7066W        W11266   7.008  10.338   1.218  0.0337 -0.1033  0.0627
 7067W        W11267   9.090   5.538   9.974  0.1013 -0.0582 -0.0961
 7068W        W11268   2.728   2.034   3.222 -0.1746  0.2281 -0.2859
 7069W        W11269   9.891   5.866   9.350  0.0686  0.0647 -0.0020
 7070W        W11270   7.980   7.181  13.271 -0.4049  0.2945  0.1134
 7071W        W11271   2.264   6.193  10.172 -0.5360  0.0482  0.2415
 7072W        W11272   4.587   4.535   0.374  0.4055 -0.0540 -0.0438
 7073W        W11273   1.641   8.459  10.905 -0.2552  0.1032 -0.1968
 7074W        W11274   0.661   3.803   2.303  0.0194  0.0681  0.0211
 7075W        W11275   4.975   0.926  11.436 -0.1941  0.1587  0.2751
 7076W        W11276   0.415   0.466   4.121 -0.2001  0.3323 -0.0348
 7077W        W11277   0.811   3.013  11.342 -0.4031  0.3350 -0.0298
 7078W        W11278   1.502   5.753   9.357 -0.3540  0.2434 -0.0256
 7079W        W11279   5.208   7.551  12.743  0.1465  0.0470  0.0272
 7080W        W11280   9.196   5.783   3.363 -0.4059 -0.1247 -0.3541
 7081W        W11281   7.986  10.387  10.537 -0.1214  0.2541 -0.0071
 7082W        W11282   6.485   6.824   3.813  0.4320 -0.1228 -0.0577
 7083W        W11283   1.086   6.307  11.499  0.1631  0.0976 -0.0157
 7084W        W11284   1.733   6.252   4.810 -0.2054 -0.0535 -0.0262
 7085W        W11285   8.888   1.488   1.822  0.1785  0.2379  0.0298
 7086W        W11286   9.281   4.175   0.754  0.0168  0.0557  0.2918
 7087W        W11287   4.353   8.398   4.308  0.0889 -0.0822  0.1387
 7088W        W11288   2.052   0.614   3.766 -0.0914  0.4138  0.0238
 7089W        W11289   9.820   7.511  10.538 -0.1742 -0.0139  0.1658
 7090W        W11290   4.933   5.171  12.809 -0.2096  0.1449  0.1634
 7091W        W11291   0.337   3.959   9.534  0.0288  0.3286 -0.0079
 7092W        W11292   5.536   9.131  11.712  0.2096 -0.1593  0.2823
 7093W        W11293   5.243   1.820   0.407 -0.1344 -0.0335 -0.2010
 7094W        W11294   6.795   2.954   1.330  0.0299  0.4271  0.0116
 7095W        W11295   9.958   9.924  13.263 -0.2700 -0.3315 -0.0906
 7096W        W11296   2.928   5.084   4.645  0.2540 -0.0289 -0.1478
 7097W        W11297   8.478   0.756  10.905 -0.1150 -0.2376  0.0836
 7098W        W11298   8.004   4.514   2.280  0.0474 -0.2211 -0.3724
 7099W        W11299   2.003   4.286   1.962  0.0079  0.2036  0.1183
 7100W        W11300   7.652   4.379   9.970 -0.1530  0.1013  0.2579
 7101W        W11301   8.553   5.844  13.150  0.0605  0.3045 -0.0576
 7102W        W11302  10.228   9.132   2.942 -0.3072 -0.1183 -0.1889
 7103W        W11303   5.191   2.153  10.007 -0.1697 -0.3015  0.0411
 7104W        W11304   1.900   6.662   9.519  0.0346 -0.0091 -0.2690
 7105W        W11305   8.571   8.510   2.024  0.1107 -0.1139 -0.2626
 7106W        W11306   2.138   2.897  12.367  0.1754 -0.0590  0.1225
 7107W        W11307   7.581   1.476   3.115 -0.2008  0.1370 -0.1571
 7108W        W11308   8.536  10.265   1.531 -0.1593 -0.1229  0.2276
 7109W        W11309   7.839   9.370  13.379  0.1054  0.5271 -0.1716
 7110W        W11310   9.549   8.538   0.331  0.0419  0.2771 -0.2132
 7111W        W11311   2.645  10.396   8.770  0.3040 -0.1024 -0.1237
 7112W        W11312  10.349   4.098  12.562 -0.0093 -0.1108 -0.1536
 7113W        W11313   2.411   5.579   2.433  0.0900 -0.1133  0.0091
 7114W        W11314   9.514   3.012   9.035 -0.2487  0.0875 -0.2311
 7115W        W11315   6.215   4.279   9.159 -0.0128  0.3198 -0.1128
 7116W        W11316   1.829   4.311  12.547  0.1382 -0.1492  0.1846
 7117W        W11317   8.371   5.411   2.945 -0.2994  0.4598 -0.2620
 7118W        W11318   7.852   3.259   4.564 -0.2537  0.2352 -0.1470
 7119W        W11319  10.113   0.747   1.562  0.1101  0.2973 -0.2386
 7120W        W11320   4.303   5.323  10.387 -0.1149 -0.1067 -0.2368
 7121W        W11321   5.847   2.912  11.880 -0.0820 -0.2539 -0.0962
 7122W        W11322   4.133   2.651  11.563  0.2427  0.2578 -0.1797
 7123W        W11323   1.118   8.055   2.136  0.1059  0.2954 -0.0787
 7124W        W11324   6.701   1.056   2.937  0.1413 -0.0157 -0.0787
 7125W        W11325   9.967   2.157   9.214 -0.2191  0.1236  0.0541
 7126W        W11326   6.242   5.175  12.466  0.0966 -0.0778  0.2025
 7127W        W11327   3.750   9.457  12.197 -0.0910 -0.1367  0.0412
 7128W        W11328   3.736   3.934   0.183 -0.2704 -0.3982  0.1205
 7129W        W11329   5.691   1.989  11.151  0.0229  0.3072  0.0294
 7130W        W11330   3.254   0.141  12.897  0.0806 -0.4520 -0.1650
 7131W        W11331   9.648   0.947  12.531  0.1113 -0.0150  0.3163
 7132W        W11332  10.244   3.735   9.762 -0.2951 -0.1452 -0.2396
 7133W        W11333   8.111   9.442  10.661 -0.2990  0.1020  0.1618
 7134W        W11334   6.841   3.084  11.144 -0.3354  0.1057  0.0198
 7135W        W11335   1.182   8.695   4.098 -0.0896 -0.0106  0.0758
 7136W        W11336  10.384   0.782   9.647  0.3235 -0.3422 -0.0777
 7137W        W11337   1.362   5.427   0.331 -0.2004  0.0123  0.0941
 7138W        W11338   2.586   0.925   4.664  0.1838 -0.1195 -0.0133
 7139W        W11339   2.554   7.578   0.818 -0.2413  0.1094  0.1433
 7140W        W11340   3.188   8.156   4.831  0.1406 -0.2403 -0.0951
 7141W        W11341   9.132   8.860   1.462 -0.1791  0.0890 -0.1503
 7142W        W11342   4.282   7.256   4.689 -0.5016  0.0726  0.0661
 7143W        W11343   9.366   6.783   0.460 -0.3177 -0.0380  0.0951
 7144W        W11344   4.070   8.983   4.116  0.2578  0.1371  0.0362
 7145W        W11345   3.948   3.963  12.889 -0.3043 -0.1586 -0.0115
 7146W        W11346   6.180   3.639   0.221  0.1015 -0.2947  0.2277
 7147W        W11347   0.638   7.511   9.842 -0.0183 -0.0034 -0.1723
 7148W        W11348   3.616   0.535  11.371 -0.0238 -0.0360 -0.2052
 7149W        W11349   1.940   5.273  13.251  0.2261 -0.0933  0.3227
 7150W        W11350   7.840   0.020   1.663 -0.0698  0.1455 -0.0224
 7151W        W11351   9.942   9.635  10.801  0.1756 -0.3147  0.2272
 7152W        W11352   9.537   0.267   0.734  0.1847 -0.1008  0.1028
 7153W        W11353   9.309   3.410   4.410 -0.2330 -0.3091  0.1275
 7154W        W11354   1.382   2.700   0.153  0.2902  0.1779 -0.0607
 7155W        W11355   9.065   8.253  11.707 -0.1157 -0.1734  0.0345
 7156W        W11356   5.903   0.634   3.654 -0.1967  0.1155 -0.2212
 7157W        W11357   2.194   0.137   2.231 -0.0367 -0.1404  0.0891
 7158W        W11358   6.731   3.892   2.613  0.1023  0.2527  0.3728
 7159W        W11359   7.068   0.840  11.050  0.0755  0.1505 -0.0452
 7160W        W11360   0.507   1.193  10.110 -0.0407 -0.1996  0.1831
 7161W        W11361  10.413   6.709  12.243  0.0481  0.2283  0.0172
 7162W        W11362   3.705   8.386  10.910  0.1346  0.0875  0.0367
 7163W        W11363   1.712   4.537   2.202  0.2340  0.1087  0.0274
 7164W        W11364   9.986  10.314   3.373 -0.0432 -0.4072 -0.2980
 7165W        W11365   6.890   5.692   2.957 -0.0243  0.0947 -0.0387
 7166W        W11366   1.366   0.454   1.524  0.2283 -0.0724  0.0829
 7167W        W11367   2.411   7.879   3.351 -0.2372  0.1622 -0.0168
 7168W        W11368   8.861   9.422   2.803  0.3065 -0.0733 -0.0885
 7169W        W11369   0.578   0.991   8.220  0.2665  0.3984  0.0311
 7170W        W11370   9.469   5.673  11.608  0.3922  0.0850 -0.2051
 7171W        W11371   9.861   0.211   9.075  0.3644  0.3079 -0.0465
 7172W        W11372   6.958   1.992  12.685 -0.0487 -0.1317 -0.0957
 7173W        W11373  10.003   0.283   4.168  0.0563 -0.3044  0.2882
 7174W        W11374   8.342   5.372   2.285  0.0469  0.0191  0.1913
 7175W        W11375  10.224   5.249   1.813  0.3144  0.1499 -0.0392
 7176W        W11376   9.493   3.030  12.317  0.1948 -0.2610 -0.0222
 7177W        W11377   0.201   2.634   1.910  0.0479 -0.2182 -0.0119
 7178W        W11378   4.479  10.114   4.552  0.4332 -0.1768 -0.3748
 7179W        W11379   3.306  10.346   4.831  0.0790  0.0775  0.2215
 7180W        W11380   8.445   0.368  11.380 -0.0406  0.3981  0.3443
 7181W        W11381   9.341   8.641  11.876  0.0783 -0.2515 -0.1455
 7182W        W11382   3.760   5.384   0.749 -0.1307  0.1273  0.0564
 7183W        W11383   8.031   0.548  11.734  0.4995 -0.1007  0.0984
 7184W        W11384   5.313   3.079  11.855 -0.0620 -0.1969 -0.1121
 7185W        W11385   8.638   3.166   1.610 -0.1175 -0.1799  0.0097
 7186W        W11386   8.939   1.919  10.019 -0.1494 -0.1459  0.1275
 7187W        W11387   9.527   6.435   1.806 -0.0554 -0.0176 -0.2311
 7188W        W11388   6.372   1.651   4.346  0.0131  0.0017  0.0417
 7189W        W11389   1.437   1.992   9.287  0.2756 -0.0698  0.3052
 7190W        W11390   2.863   3.142  11.899 -0.0713  0.2766  0.1324
 7191W        W11391   3.123   7.160   4.792  0.3620 -0.2637 -0.0097
 7192W        W11392   8.770   2.819   2.566  0.1015 -0.0333 -0.1581
 7193W        W11393   4.851   2.146   9.108  0.0671 -0.0130 -0.0038
 7194W        W11394   6.875   1.323   2.543 -0.0769  0.1692  0.0626
 7195W        W11395   6.817   5.662   8.778 -0.0696 -0.1881  0.4330
 7196W        W11396   9.386   4.002   9.659  0.1675  0.1757 -0.0177
 7197W        W11397   5.480   6.386   3.085 -0.2215 -0.2423  0.1399
 7198W        W11398   7.433   8.698  11.212 -0.0507 -0.0381 -0.0541
 7199W        W11399   3.104   6.992   3.904 -0.3233 -0.0914  0.1611
 7200W        W11400   5.881   9.965   2.303  0.2826 -0.0856  0.3145
 7201W        W11401   0.342   1.655   4.015 -0.0033  0.0583 -0.0939
 7202W        W11402   5.542   8.165   0.443 -0.0953 -0.1201 -0.3526
 7203W        W11403   5.399   9.989   9.036  0.0994 -0.3786 -0.1411
 7204W        W11404   4.485   9.261   0.237 -0.2507  0.0961 -0.0135
 7205W        W11405   0.003   1.276  10.031 -0.0854 -0.5582  0.1942
 7206W        W11406   5.024   3.455   4.831  0.2960 -0.0963  0.0920
 7207W        W11407   6.205   5.734   1.573 -0.0698 -0.1331  0.0928
 7208W        W11408   0.110   0.821   4.090  0.2346  0.1690 -0.1652
 7209W        W11409   5.839   1.083  11.859 -0.0418  0.1052 -0.0770
 7210W        W11410   5.031   4.971   9.593 -0.2666  0.1531  0.1412
 7211W        W11411   3.719   6.703   9.951 -0.0573  0.2097  0.0461
 7212W        W11412   3.055   8.408  12.292 -0.2883  0.0502  0.0881
 7213W        W11413   5.473   6.302   0.304 -0.2394 -0.1025 -0.0013
 7214W        W11414   1.421   9.918  11.134  0.0981 -0.2033  0.2755
 7215W        W11415   0.414   4.554   1.710  0.1722  0.2003  0.0142
 7216W        W11416   2.711   5.032   9.989 -0.0387 -0.2111  0.0262
 7217W        W11417   4.727   9.463  12.995 -0.4145 -0.2458  0.1472
 7218W        W11418   9.086   9.250  10.799 -0.0308 -0.1780 -0.0131
 7219W        W11419   2.510   1.412   1.016 -0.1220  0.1814 -0.0918
 7220W        W11420   8.355   3.850   2.419  0.0969  0.1274 -0.1588
 7221W        W11421   1.931   5.014   9.736 -0.0357 -0.0079  0.0441
 7222W        W11422   1.147   7.985   1.346 -0.0648  0.0052  0.1215
 7223W        W11423   1.292   8.404  12.878 -0.1665  0.0656 -0.2342
 7224W        W11424   6.732   0.998  13.210  0.0670  0.0561  0.0742
 7225W        W11425   8.308   2.481   0.731  0.0436  0.0052  0.1205
 7226W        W11426   5.181   1.018   1.359 -0.0561  0.1228  0.3936
 7227W        W11427   8.191   8.670   3.984 -0.0153  0.1706  0.1423
 7228W        W11428   5.143   9.733  11.958 -0.1364  0.0427 -0.0146
 7229W        W11429   3.544  10.104   2.163  0.2174  0.1274  0.0461
 7230W        W11430   6.656   3.635   4.037 -0.0797  0.2607 -0.1849
 7231W        W11431   0.924   5.050  10.065  0.0036 -0.1284  0.0149
 7232W        W11432   1.755   3.385  11.307  0.2029 -0.3743  0.0870
 7233W        W11433   1.169   3.743  10.079  0.0314  0.2050  0.1382
 7234W        W11434   9.592   0.806   1.601  0.2088 -0.1934 -0.0919
 7235W        W11435   6.327   7.409   2.285 -0.1952  0.0441  0.0949
 7236W        W11436   5.505   5.110   4.697  0.1146 -0.1701 -0.1739
 7237W        W11437   2.064   1.410  10.023  0.0469  0.0342  0.0277
 7238W        W11438   1.439   4.773   1.407 -0.1415 -0.1028  0.0235
 7239W        W11439   1.770   3.399   4.496  0.1041  0.2716  0.1019
 7240W        W11440   6.471   5.911  11.261  0.1004  0.1070  0.5388
 7241W        W11441   7.650   2.422   2.886 -0.1870 -0.0740 -0.4418
 7242W        W11442   6.043   8.103   1.841 -0.1784 -0.4729  0.0174
 7243W        W11443   6.953   2.311   9.572  0.1080  0.0356  0.0484
 7244W        W11444   0.711   2.706  11.756  0.3275 -0.1205 -0.0298
 7245W        W11445   8.342   2.713   9.672  0.1530 -0.1105 -0.0793
 7246W        W11446   1.500   1.606  12.199 -0.1232 -0.2724 -0.1750
 7247W        W11447   8.125   4.370   3.714  0.1162  0.1719  0.2243
 7248W        W11448  10.171   7.736   1.160 -0.0703  0.1702  0.2191
 7249W        W11449   7.381   0.435   3.399 -0.0492 -0.1813 -0.1486
 7250W        W11450   1.327   2.539  12.310  0.0137 -0.2528 -0.1636
 7251W        W11451   6.408   7.671   3.728 -0.1563  0.0908 -0.1422
 7252W        W11452   2.734   7.622  12.867 -0.0109 -0.3554 -0.1634
 7253W        W11453   9.000   7.512  13.460 -0.2495  0.2488 -0.0638
 7254W        W11454   7.440   3.641   2.140  0.0337  0.0066 -0.0349
 7255W        W11455   6.643   0.529  11.082 -0.0003  0.5710  0.0244
 7256W        W11456   4.175  10.405  11.980  0.1711  0.2220  0.1264
 7257W        W11457   5.246   0.416   5.230  0.1108  0.0301  0.2044
 7258W        W11458   6.066   7.336   3.626 -0.0123 -0.0397 -0.3067
 7259W        W11459   1.312   0.814   9.554  0.2090 -0.0369 -0.0061
 7260W        W11460   3.451   1.192   0.545 -0.1175  0.0939  0.1822
 7261W        W11461   9.432   8.961   9.371 -0.2454 -0.0593  0.1124
 7262W        W11462   2.131   1.156   1.229  0.1166  0.1200 -0.0334
 7263W        W11463   4.032   8.389   8.225 -0.3172 -0.2456 -0.1311
 7264W        W11464   6.960   2.735   3.835 -0.1338 -0.0586  0.2768
 7265W        W11465   1.573   6.097   1.861  0.0480  0.1288 -0.0563
 7266W        W11466  10.430   2.865  12.402 -0.0467  0.0357 -0.1642
 7267W        W11467   9.604   4.711   3.761 -0.0358 -0.3433 -0.1641
 7268W        W11468   6.417   8.935  13.438 -0.0602 -0.3610 -0.3292
 7269W        W11469   5.594   4.323   5.146  0.3339 -0.2855 -0.0247
 7270W        W11470   3.057   9.703   2.884 -0.0834  0.2344  0.0871
 7271W        W11471   6.592   7.983  12.575  0.0321 -0.0753  0.0267
 7272W        W11472   0.376   8.190   1.660  0.1601  0.1679 -0.1480
 7273W        W11473   2.826   0.099   0.806  0.0915 -0.0473 -0.1270
 7274W        W11474   7.234   3.706  10.763 -0.0498  0.2474 -0.1424
 7275W        W11475   6.343   5.405   1.028 -0.0835 -0.0675 -0.0673
 7276W        W11476   1.237   9.170   4.524 -0.0839  0.0261  0.3129
 7277W        W11477   8.178   4.121  12.261 -0.0770  0.0746  0.2133
 7278W        W11478   3.056   9.995   2.146  0.1195 -0.1033  0.0687
 7279W        W11479   2.246   0.477  12.013 -0.0581  0.4759 -0.0763
 7280W        W11480   4.782   9.096   1.585  0.1455  0.1056  0.1275
 7281W        W11481   8.949   5.277   5.222 -0.0825 -0.0239  0.0149
 7282W        W11482   4.693   8.683   0.756  0.2880  0.0444  0.1225
 7283W        W11483   4.307   2.733   0.812  0.3107 -0.1485 -0.0917
 7284W        W11484   7.393   2.857  11.090 -0.1482  0.1186 -0.0923
 7285W        W11485   4.758   2.285  11.774 -0.0889 -0.2637  0.2367
 7286W        W11486   5.012   9.904   2.593 -0.2537 -0.1220 -0.3389
 7287W        W11487   3.490   6.695  13.500 -0.1866  0.3312 -0.0723
 7288W        W11488   9.821   4.955   2.048 -0.2731 -0.0187 -0.3976
 7289W        W11489   2.818   6.468   4.449  0.0357 -0.2484 -0.2635
 7290W        W11490   8.858   4.353   0.944 -0.2386  0.1200 -0.3148
 7291W        W11491  10.008   3.117  12.546 -0.0447  0.0668  0.1375
 7292W        W11492  10.181   9.173  10.439 -0.0349 -0.2838 -0.0316
 7293W        W11493   2.588   6.160   2.679 -0.0476 -0.0649 -0.0338
 7294W        W11494   4.846   8.116  11.379  0.3429  0.0911 -0.1985
 7295W        W11495   8.808   8.049  12.270 -0.0448 -0.1706 -0.3260
 7296W        W11496   9.396   1.823   4.170 -0.2517 -0.0116  0.0978
 7297W        W11497   0.968   7.602   9.455  0.0009  0.3150 -0.0868
 7298W        W11498   5.721   5.489  12.929 -0.2010  0.0847 -0.1911
 7299W        W11499   8.624   5.460   3.395  0.0349  0.0358  0.1866
 7300W        W11500   3.254   7.404   4.327 -0.2040  0.0162  0.1461
 7301W        W11501   4.905   3.354  12.181  0.0282 -0.0994 -0.5064
 7302W        W11502   0.847   7.681   0.547 -0.1184  0.0545 -0.1979
 7303W        W11503   2.711   3.059  13.332 -0.4082 -0.2854 -0.1502
 7304W        W11504   2.630   8.800   2.396  0.2221 -0.0616  0.2944
 7305W        W11505   1.599   7.502   2.616 -0.2787 -0.3463 -0.0006
 7306W        W11506   4.192   8.668  10.845  0.4694 -0.3533  0.3675
 7307W        W11507   5.699   8.778   4.136  0.3050 -0.0357  0.0358
 7308W        W11508   1.769   0.728   5.279  0.0853  0.0062 -0.0299
 7309W        W11509   9.262   7.266  11.727 -0.0343 -0.0776  0.1599
 7310W        W11510   8.080   5.838   0.002 -0.1987 -0.1638 -0.0079
 7311W        W11511   0.629   8.120  12.706 -0.0504 -0.3411  0.1255
 7312W        W11512   5.093  10.033  11.033 -0.4155 -0.0030  0.3321
 7313W        W11513   8.470   9.415   1.386  0.0147  0.1105 -0.3139
 7314W        W11514   3.264   7.599   9.777 -0.0787 -0.1038  0.1244
 7315W        W11515   5.803   8.144   1.328 -0.1129  0.0619 -0.0148
 7316W        W11516   7.915   0.922  10.034 -0.1487  0.1279 -0.2487
 7317W        W11517   5.100   2.307   0.502 -0.3192 -0.2440 -0.1000
 7318W        W11518   7.478   7.886   1.102  0.2960 -0.1545 -0.0520
 7319W        W11519   6.622   4.550  13.389 -0.1264 -0.2266 -0.0947
 7320W        W11520   6.854   2.841  12.911  0.0467 -0.0479 -0.1612
 7321W        W11521   6.683   5.356   9.670 -0.0214  0.3126 -0.0787
 7322W        W11522   2.724   8.938   1.196  0.2980 -0.1035 -0.3665
 7323W        W11523   9.998   8.939   3.699  0.1794  0.1746 -0.1340
 7324W        W11524   8.889   6.763  12.501 -0.0253 -0.3944  0.0001
 7325W        W11525   7.756   1.921  11.643  0.4095  0.2536 -0.0905
 7326W        W11526   7.931   2.020  13.030 -0.2101 -0.2588  0.3938
 7327W        W11527   7.760   4.837  12.564  0.0509 -0.0179  0.1250
 7328W        W11528   9.699   4.084   1.533 -0.1392 -0.1311 -0.2870
 7329W        W11529   5.848   9.048  10.484 -0.0690  0.3573 -0.3708
 7330W        W11530   2.741   4.927   0.887  0.2387  0.0040  0.3647
 7331W        W11531   5.879   3.181   0.217 -0.1037 -0.0088  0.3461
 7332W        W11532   3.358   2.629  10.616  0.1092  0.0458 -0.2120
 7333W        W11533   1.412   2.476  12.805  0.1981 -0.2903  0.2851
 7334W        W11534   0.721   0.524  11.835 -0.0910 -0.2867  0.0642
 7335W        W11535   2.818   8.205  11.584  0.0210 -0.0690 -0.0375
 7336W        W11536   4.711   2.700   0.072  0.0679 -0.0997  0.0471
 7337W        W11537  10.177   6.889  11.694 -0.0223  0.2302 -0.0653
 7338W        W11538   2.320   0.131   4.682 -0.1000 -0.1081 -0.1102
 7339W        W11539   2.204   4.980   4.147  0.0901  0.0061 -0.2434
 7340W        W11540  10.345  10.230  13.141  0.1959  0.2649 -0.1875
 7341W        W11541   3.076   9.935   1.278  0.0901 -0.1829 -0.3026
 7342W        W11542   2.160   1.437  12.709 -0.1360  0.0861 -0.1810
 7343W        W11543   3.409   5.396   9.431  0.2088  0.1309  0.2898
 7344W        W11544   5.640   4.427   0.115  0.3066  0.5710  0.2968
 7345W        W11545   7.187   9.101  13.466  0.0954 -0.0740 -0.1094
 7346W        W11546   8.362   4.358  13.128 -0.0375  0.3061  0.2749
 7347W        W11547   1.940   1.549   3.210  0.1845  0.1793 -0.0271
 7348W        W11548   6.889   6.259  11.295  0.1099 -0.2036  0.2540
 7349W        W11549   6.363   9.040  12.354  0.2407  0.1046 -0.1132
 7350W        W11550   1.967   9.359   1.278  0.0688  0.0005  0.4386
 7351W        W11551   8.763   4.146   1.423  0.0114  0.1242 -0.0931
 7352W        W11552   6.616   8.738  12.792 -0.2077 -0.2260  0.0332
 7353W        W11553   2.205   3.651  11.150 -0.0084 -0.0531  0.0269
 7354W        W11554  10.382   8.452  10.377 -0.2729  0.0060  0.2501
 7355W        W11555   6.064   9.143   1.355 -0.2572  0.0667  0.1143
 7356W        W11556   7.984   5.711  10.775 -0.0475  0.3591  0.0884
 7357W        W11557   2.970   9.547   0.472 -0.0803  0.1800  0.0032
 7358W        W11558   7.717   3.346   1.301  0.2543 -0.3015  0.3041
 7359W        W11559   0.512   5.613   2.393  0.0343 -0.0364  0.3150
 7360W        W11560   5.554   2.579  11.069  0.1427 -0.1042  0.0011
 7361W        W11561   1.113   5.266  10.517  0.1670  0.1499  0.1323
 7362W        W11562   7.287   8.487  13.068  0.1539  0.3049  0.0272
 7363W        W11563   4.102   6.844   2.963  0.1006 -0.2096  0.2036
 7364W        W11564   6.121   5.285   1.977 -0.2787  0.2925 -0.1965
 7365W        W11565   8.365   4.045   0.141 -0.0796 -0.4399 -0.0026
 7366W        W11566   4.761   9.369   2.011  0.0750 -0.0055  0.0722
 7367W        W11567   1.720   9.497  10.172  0.1379 -0.1180 -0.3990
 7368W        W11568   5.312   8.548   2.226 -0.2300 -0.1222  0.1469
 7369W        W11569   8.118   6.222  10.721  0.1569 -0.0892 -0.0170
 7370W        W11570   6.322   5.498  13.452  0.0358 -0.1457  0.0902
 7371W        W11571   3.172  10.373   9.946  0.0765  0.0565  0.0490
 7372W        W11572   4.417   3.092   3.637  0.0517 -0.2349 -0.1979
 7373W        W11573   9.665   7.797  12.342 -0.0577 -0.0487 -0.0459
 7374W        W11574   1.339   0.826  13.326 -0.3135 -0.0826  0.0116
 7375W        W11575   0.277   3.540  10.077  0.2130  0.2746 -0.1434
 7376W        W11576   6.824   9.939   3.814 -0.4365 -0.0084  0.1892
 7377W        W11577   8.578   4.791   9.207  0.0233 -0.0155 -0.1857
 7378W        W11578   5.735   8.809  10.079 -0.1545  0.2472 -0.0834
 7379W        W11579   2.191   1.012  10.369  0.2151 -0.0182 -0.1915
 7380W        W11580   0.651   9.944  10.389  0.3792 -0.0269  0.0374
 7381W        W11581   3.022   6.389  10.035 -0.0275  0.1434 -0.2988
 7382W        W11582   7.027   9.117  12.439 -0.2760  0.1885 -0.0950
 7383W        W11583   9.989   5.586  12.410  0.1631  0.0550 -0.0266
 7384W        W11584   9.536   7.711  11.817  0.2566 -0.0392 -0.2363
 7385W        W11585   7.376   1.207  12.742  0.1647  0.0245  0.0507
 7386W        W11586   1.974   1.948  10.290 -0.1817  0.1056 -0.0861
 7387W        W11587   1.771   9.527   1.698 -0.2594 -0.3999  0.1257
 7388W        W11588   5.436   5.556   0.997 -0.1583  0.0626  0.2952
 7389W        W11589   8.460   6.558   3.667 -0.1901 -0.1245 -0.2959
 7390W        W11590   4.597   7.529   1.784 -0.0210 -0.1461  0.0040
 7391W        W11591  10.273   8.768   3.312 -0.1192 -0.1402 -0.1085
 7392W        W11592   3.255   5.923   3.382  0.2079  0.4782 -0.1594
 7393W        W11593   8.663   1.468   0.522  0.1250 -0.1835  0.0426
 7394W        W11594   9.010   5.355   0.207 -0.3197  0.0116 -0.2676
 7395W        W11595   8.789   8.458  11.310  0.1457 -0.0068  0.3820
 7396W        W11596   6.099   1.631   3.953  0.0479  0.1180 -0.3461
 7397W        W11597   2.262   0.816   0.363  0.0045 -0.2173  0.0180
 7398W        W11598   5.408   6.104  10.160 -0.0134 -0.0325  0.1539
 7399W        W11599   1.751   6.638  12.794  0.3370  0.0198 -0.0474
 7400W        W11600   0.985   6.954   1.272 -0.1690  0.0726 -0.1970
 7401W        W11601   3.009   3.157  12.875  0.2931  0.1567  0.2518
 7402W        W11602   4.066  10.152   2.055  0.1427  0.0072 -0.1273
 7403W        W11603   0.068   1.070  11.257 -0.0720  0.1395 -0.1512
 7404W        W11604   5.975   3.199  13.262  0.1642  0.2146  0.1257
 7405W        W11605   3.988   3.713   9.007 -0.3886 -0.0428  0.1404
 7406W        W11606   4.787   0.466  11.417  0.1029  0.0705 -0.1234
 7407W        W11607   4.855  10.244  10.325  0.2357 -0.1498  0.0148
 7408W        W11608   3.101   7.005  12.605  0.0866 -0.1132 -0.0497
 7409W        W11609   3.722   8.252  12.968  0.0782 -0.0927 -0.1161
 7410W        W11610   6.313   5.460   2.395 -0.0898 -0.2426 -0.0587
 7411W        W11611   7.514   3.322  12.685  0.1844  0.0900  0.1093
 7412W        W11612   5.717   5.781   1.416 -0.1586  0.2429  0.2032
 7413W        W11613   5.011   3.321  10.042  0.3204  0.0705 -0.5779
 7414W        W11614   6.414  10.265   3.735 -0.0113  0.0527 -0.1153
 7415W        W11615   5.313   7.465  10.091  0.1546  0.0113 -0.2494
 7416W        W11616   0.120   4.599   4.752  0.2971 -0.2883 -0.2651
 7417W        W11617   4.361   3.846   1.653 -0.1015 -0.0785  0.0373
 7418W        W11618   0.088   9.779   9.264  0.2555 -0.1216 -0.3070
 7419W        W11619   6.396   3.549   3.577  0.0638  0.1392 -0.1489
 7420W        W11620   1.978   3.192  10.930  0.2818  0.2001  0.1150
 7421W        W11621   4.477   0.929   2.624 -0.0143 -0.1202  0.0628
 7422W        W11622   0.025   9.232  11.503  0.2395 -0.1384 -0.1898
 7423W        W11623   0.555   7.928   9.535 -0.0996  0.0326  0.3915
 7424W        W11624  10.436   6.789   4.511 -0.0513 -0.0420 -0.0291
 7425W        W11625   4.130  10.130   4.912  0.1466  0.0269  0.0887
 7426W        W11626   9.145   3.572   9.001 -0.0539  0.0164  0.1831
 7427W        W11627   3.262   2.831  11.864  0.1724 -0.0278 -0.1099
 7428W        W11628  10.033   6.447   2.768  0.1431  0.0586 -0.0818
 7429W        W11629   7.219   4.152   1.457 -0.0294  0.0642 -0.1164
 7430W        W11630   2.573   3.403   4.545  0.4573 -0.4044  0.2099
 7431W        W11631   0.551   5.137   3.864  0.1247 -0.2449 -0.2424
 7432W        W11632   5.109   8.899   4.101  0.0655  0.2719 -0.2278
 7433W        W11633   4.668   3.333  10.542  0.1039 -0.2097  0.3126
 7434W        W11634   9.049   2.707  12.089  0.2253  0.1630  0.3536
 7435W        W11635   8.354   1.304  10.060 -0.0015  0.2704 -0.1365
 7436W        W11636   8.117   1.386  12.054 -0.3686  0.0581  0.0572
 7437W        W11637   8.277   4.929   0.505 -0.0370  0.0172  0.0295
 7438W        W11638   2.292   9.936   1.062 -0.0482  0.2858  0.2063
 7439W        W11639  10.085   8.420   0.383  0.3099  0.1331 -0.2884
 7440W        W11640   7.626   9.524   1.650 -0.0742  0.2852  0.2383
 7441W        W11641   3.173   4.072   1.514 -0.0082 -0.2070  0.4776
 7442W        W11642   2.531   3.047  11.520 -0.0950 -0.0526  0.0115
 7443W        W11643   6.235   6.746   9.759  0.1391  0.2753  0.3012
 7444W        W11644   6.196   3.623  10.843  0.2265 -0.2434  0.2311
 7445W        W11645   5.856   0.448   0.735  0.0299  0.2218  0.1601
 7446W        W11646   1.916  10.094  11.511 -0.3853 -0.1750 -0.0403
 7447W        W11647   5.398   8.142   2.633 -0.0856  0.0033 -0.5198
 7448W        W11648   8.487   5.825  10.618  0.0093 -0.2415  0.0953
 7449W        W11649   1.064   4.518  10.031 -0.1704 -0.2769 -0.2333
 7450W        W11650   3.805   7.464  11.786  0.1744  0.3240  0.0979
 7451W        W11651   3.420   9.252   2.780  0.0973 -0.0769  0.3271
 7452W        W11652   1.015   1.096   1.460  0.0903 -0.1530  0.2106
 7453W        W11653   7.084   4.631   1.199 -0.0726  0.1144  0.1447
 7454W        W11654   7.962   9.933  10.722  0.0399 -0.1115 -0.2045
 7455W        W11655   8.116   4.814   3.555  0.2234 -0.2896 -0.1821
 7456W        W11656   6.118   2.930   9.946  0.1517 -0.2942 -0.3877
 7457W        W11657   1.772   4.841   2.619  0.3392 -0.0466 -0.1873
 7458W        W11658   7.224   7.330  10.356  0.0433  0.1363  0.3347
 7459W        W11659   5.906   1.981   2.102  0.2558 -0.0932  0.2138
 7460W        W11660   3.414   2.734   9.698 -0.0838 -0.2959 -0.2207
 7461W        W11661   7.067   5.063  13.042 -0.5193  0.3582 -0.0587
 7462W        W11662   8.042   0.931   3.180 -0.2064 -0.1174 -0.1919
 7463W        W11663   8.310   8.545  12.248  0.0461  0.1477  0.0624
 7464W        W11664  10.361   8.308   0.867  0.1430 -0.2849 -0.3165
 7465W        W11665   1.250   4.304  13.226  0.0043  0.0302  0.2034
 7466W        W11666   7.146   5.263   4.792 -0.0146  0.0510  0.2768
 7467W        W11667   0.625   6.658   0.963  0.0600 -0.2544  0.3928
 7468W        W11668   3.336   4.667   3.229  0.2583  0.1799  0.2450
 7469W        W11669   2.232   2.123   9.522 -0.1791 -0.0293 -0.4687
 7470W        W11670   0.277   9.104  10.756  0.3433  0.0340 -0.1705
 7471W        W11671   7.435   7.093  11.304  0.2347  0.0100  0.6803
 7472W        W11672   3.946   3.605   9.901  0.0665 -0.1082 -0.0509
 7473W        W11673   9.089   1.516   0.842  0.0838  0.3965  0.1525
 7474W        W11674  10.228   9.751   1.299  0.0730 -0.1782 -0.0205
 7475W        W11675  10.284   3.913  10.235  0.1509 -0.3879  0.4101
 7476W        W11676   2.918   3.614   9.348  0.0814 -0.1453 -0.0872
 7477W        W11677   1.931   9.935   2.952 -0.2253  0.2640  0.2076
 7478W        W11678   9.559   7.590   0.197  0.0864  0.1443 -0.2209
 7479W        W11679   7.100   5.895  13.024  0.0153  0.0371 -0.2342
 7480W        W11680   7.041   3.654  13.050 -0.3698 -0.0227 -0.1852
 7481W        W11681   2.671   6.892   1.372 -0.2174  0.1413 -0.0587
 7482W        W11682   4.631   4.059  11.318 -0.0742 -0.1177 -0.3006
 7483W        W11683   9.019   6.649   1.946 -0.1502  0.0051  0.0768
 7484W        W11684   9.769   2.079  13.379  0.1687  0.0980 -0.0048
 7485W        W11685   8.340   8.056  13.079 -0.2116 -0.0083 -0.0340
 7486W        W11686  10.432   8.569   0.045 -0.1412  0.0639  0.0920
 7487W        W11687   6.494   6.727   2.358  0.0089  0.0974 -0.1048
 7488W        W11688   0.716   0.850   4.689  0.0073 -0.1152 -0.2758
 7489W        W11689   3.510   1.365   0.048  0.3314 -0.1402 -0.1455
 7490W        W11690   0.038   2.322  12.795  0.0630 -0.0460 -0.0434
 7491W        W11691   1.044   1.783  12.236 -0.1037  0.1079 -0.1863
 7492W        W11692   8.380   3.083   2.356 -0.0680  0.1082 -0.0777
 7493W        W11693   0.985   0.456  13.415  0.1638  0.0159 -0.0141
 7494W        W11694   7.187   0.725   2.941 -0.3288  0.1953 -0.1138
 7495W        W11695   9.174   3.160   1.684 -0.3043 -0.0643  0.1617
 7496W        W11696   7.930   5.531  13.143 -0.0108 -0.3717  0.0577
 7497W        W11697   9.126   9.975  13.524  0.4782  0.0480 -0.0331
 7498W        W11698   9.482   2.276  12.941  0.1611 -0.2088 -0.4311
 7499W        W11699   1.486   5.964   0.271  0.2971 -0.3641  0.0119
 7500W        W11700   7.023   6.021   3.831 -0.0176 -0.0950  0.3475
 7501W        W11701   4.266   1.501   8.788 -0.2336 -0.2218  0.2060
 7502W        W11702   4.050   1.575   9.899  0.1501 -0.1966  0.0501
 7503W        W11703   1.733   3.092   1.174 -0.1682 -0.0415 -0.0511
 7504W        W11704   9.940   8.270  12.882  0.3405 -0.1023 -0.1391
 7505W        W11705   4.975   1.006   0.465 -0.1502  0.1434  0.1198
 7506W        W11706   2.208   6.881  12.615  0.0875 -0.0942 -0.2508
 7507W        W11707   1.684   8.360   4.351  0.0162  0.1941 -0.0173
 7508W        W11708   5.792   1.510  12.116 -0.1683  0.3110 -0.1743
 7509W        W11709  10.231   2.924   2.280 -0.2409 -0.1589 -0.2500
 7510W        W11710   7.155   5.647   0.308  0.1210  0.0976 -0.1126
 7511W        W11711   9.635   5.382   0.859  0.3718  0.2366 -0.3806
 7512W        W11712   2.175   1.860  10.713  0.2614  0.0755 -0.0091
 7513W        W11713   5.204   6.751   4.639 -0.1310 -0.0356  0.1730
 7514W        W11714   0.351   6.674   3.337 -0.0571  0.2628 -0.1861
 7515W        W11715   1.154   5.885  12.935 -0.0662 -0.1431  0.1455
 7516W        W11716   2.804   0.161   4.833  0.0368  0.2364 -0.1738
 7517W        W11717   1.497   9.436   1.170  0.0030 -0.0594  0.1866
 7518W        W11718   1.838   7.179   0.313  0.0117 -0.1946 -0.0062
 7519W        W11719   8.732   3.552  10.060  0.3140 -0.4440  0.0169
 7520W        W11720   5.755   9.644  13.266  0.1410 -0.0021  0.0491
 7521W        W11721   5.717   3.274   4.324  0.0201 -0.3489  0.1528
 7522W        W11722   4.158   3.239   9.003 -0.2687  0.2717 -0.0654
 7523W        W11723   0.417   0.420   1.860  0.3531 -0.1459  0.1223
 7524W        W11724   7.250   1.202   2.850 -0.0741 -0.1345  0.1952
 7525W        W11725   6.090  10.235  10.163  0.1562 -0.1441 -0.2773
 7526W        W11726   5.527   3.267   3.225 -0.1170 -0.1340  0.2488
 7527W        W11727   0.246   7.232   1.508  0.5552  0.0759  0.0009
 7528W        W11728   2.763   6.151   0.086  0.2577  0.1781 -0.1373
 7529W        W11729   8.006   6.006   1.848  0.0159  0.0516 -0.0281
 7530W        W11730   9.664   6.262   2.436 -0.2031  0.2691 -0.1311
 7531W        W11731   0.244   5.461   3.743 -0.1236 -0.0765 -0.3296
 7532W        W11732   6.744   4.098  11.169 -0.0021  0.2810  0.0014
 7533W        W11733   4.488   6.645  10.922  0.4601 -0.3163  0.3045
 7534W        W11734   0.743   0.807   0.936  0.0956  0.1243 -0.1788
 7535W        W11735   0.791   9.456  12.785  0.2644  0.1381  0.0553
 7536W        W11736   1.632   6.042   8.979 -0.1238  0.3718 -0.1098
 7537W        W11737   4.893   2.019   4.261 -0.2178 -0.0838  0.0258
 7538W        W11738   8.599   2.136   0.321  0.1813 -0.1566  0.0199
 7539W        W11739   2.556   2.694  12.087  0.0466 -0.1056  0.2477
 7540W        W11740   7.913   9.079  10.955  0.1777 -0.2975 -0.2608
 7541W        W11741   0.444   0.394   3.121 -0.1150  0.1146 -0.1992
 7542W        W11742   0.860  10.341   9.057 -0.0357 -0.1741 -0.2089
 7543W        W11743   2.701   2.057   4.333 -0.0005 -0.2246 -0.2087
 7544W        W11744   5.480   4.140   9.896 -0.2999  0.1179  0.1040
 7545W        W11745   5.956   5.900   3.204  0.1805  0.1798  0.1360
 7546W        W11746   2.668   9.962   2.608 -0.0166  0.1570 -0.0100
 7547W        W11747   8.441   7.521  12.172  0.1776 -0.1603  0.1085
 7548W        W11748   1.687   4.412   3.669  0.0164  0.2077  0.1005
 7549W        W11749   8.768   0.609  10.502  0.0233  0.1447 -0.2173
 7550W        W11750   8.493   3.973   9.743  0.0746 -0.0261 -0.2138
 7551W        W11751   5.522   2.751  10.613  0.0477 -0.2310 -0.0648
 7552W        W11752   5.972   7.925   0.906 -0.0239  0.0649 -0.0539
 7553W        W11753   2.804   5.049   4.078 -0.0580  0.0898 -0.1438
 7554W        W11754   4.706   0.792  12.375 -0.0984 -0.1043 -0.2165
 7555W        W11755   3.300   5.688  12.145  0.1666  0.0447  0.3058
 7556W        W11756   7.401   2.787   3.147  0.2089 -0.0897 -0.2395
 7557W        W11757   5.707   6.926  12.006  0.2337  0.3104  0.1713
 7558W        W11758   0.901   6.365  12.068  0.2037 -0.0468 -0.0822
 7559W        W11759   9.435   4.594   3.269 -0.5628  0.1771 -0.1819
 7560W        W11760   0.908   2.596   8.656  0.1714 -0.3128  0.0645
 7561W        W11761   3.275   7.208  11.161  0.0011 -0.0080  0.0330
 7562W        W11762   0.538   7.477  10.371 -0.0509 -0.1830  0.4046
 7563W        W11763   4.435   7.070   1.655  0.3156 -0.2056 -0.3711
 7564W        W11764   7.946   9.568  12.455 -0.2005  0.1906 -0.1579
 7565W        W11765   6.583   2.364   0.936 -0.3096  0.1633 -0.1829
 7566W        W11766   9.346   4.211   5.068  0.0230 -0.4199  0.1217
 7567W        W11767   3.361   5.459   4.257  0.2859  0.0970 -0.1613
 7568W        W11768   5.911   0.131  10.598 -0.1345 -0.2846  0.4851
 7569W        W11769   2.247   3.223   3.439 -0.0229  0.1382 -0.2100
 7570W        W11770   3.694   0.290  12.711  0.2708 -0.0514  0.1662
 7571W        W11771  10.379   1.312   8.862  0.2807 -0.1261  0.1979
 7572W        W11772   8.848   2.902  10.580 -0.1962  0.0354 -0.2052
 7573W        W11773   5.430   5.423   0.174 -0.3551  0.0367 -0.1508
 7574W        W11774   0.574   8.678   1.779 -0.2310 -0.0470 -0.1646
 7575W        W11775   1.555   1.124   5.009  0.0382 -0.1865  0.1176
 7576W        W11776   7.077   1.158   3.323  0.3503  0.3589 -0.0074
 7577W        W11777   3.407   5.634  10.244  0.0880 -0.1083  0.2997
 7578W        W11778   5.425   6.833   2.705  0.0237  0.2666  0.1234
 7579W        W11779   7.713   1.758   2.204  0.1586  0.2209 -0.0162
 7580W        W11780   0.691   4.591  12.369  0.1944 -0.0109  0.1344
 7581W        W11781   8.413   5.613   4.287 -0.0587 -0.0398 -0.3169
 7582W        W11782   1.067   3.736  12.119  0.1527  0.1255  0.2670
 7583W        W11783   0.535   2.602   9.798 -0.1040 -0.0488 -0.3002
 7584W        W11784   7.915   4.296   2.877 -0.2835  0.0186  0.2026
 7585W        W11785   5.572   2.405   3.748  0.0196 -0.1614 -0.2284
 7586W        W11786   7.163   5.208   1.307 -0.4605  0.0820  0.1551
 7587W        W11787   6.092   4.986  10.946  0.0440 -0.0309 -0.0440
 7588W        W11788   1.826   7.086   3.613 -0.4740 -0.0696  0.0945
 7589W        W11789   4.335   2.670   5.067  0.0650  0.0104 -0.1222
 7590W        W11790   8.835   0.079   1.893  0.0537 -0.0706 -0.0392
 7591W        W11791   1.473   9.039   1.926 -0.3520  0.4746  0.2822
 7592W        W11792   0.111  10.402  12.747  0.2918 -0.2051 -0.2303
 7593W        W11793   9.617   3.034  13.007  0.0191 -0.0506 -0.3712
 7594W        W11794   8.393  10.146   2.544 -0.1144 -0.1338  0.1319
 7595W        W11795   0.594   8.434  11.684  0.3066  0.3727  0.0127
 7596W        W11796   3.898   2.907   4.874  0.0156  0.0857 -0.2656
 7597W        W11797   4.723   0.824   1.864 -0.2378 -0.0497 -0.1565
 7598W        W11798   4.503   2.214  11.345 -0.1858  0.0162  0.0233
 7599W        W11799   7.703   3.215   0.179 -0.2509  0.2026  0.2947
 7600W        W11800   0.535   2.390  13.036  0.1724 -0.1709  0.3302
 7601W        W11801   7.071   5.628   4.277 -0.2772  0.5247  0.1212
 7602W        W11802   0.771   5.837   5.158  0.3048 -0.1409  0.1218
 7603W        W11803   0.252   5.687  10.507  0.0935  0.2924  0.2197
 7604W        W11804   0.252  10.435  10.534  0.1349 -0.4080  0.1112
 7605W        W11805   5.304   8.068  11.179 -0.2792  0.0966 -0.0790
 7606W        W11806   3.327   2.395   1.841  0.1239 -0.1220 -0.1655
 7607W        W11807   5.617   3.958  12.121  0.1471 -0.1929 -0.2231
 7608W        W11808   4.878   5.929  13.353 -0.2334  0.1522  0.0454
 7609W        W11809   9.980   9.070   9.077 -0.2140 -0.0138  0.1424
 7610W        W11810   5.245   8.143  11.739 -0.0782  0.1130 -0.1734
 7611W        W11811   3.605   0.027  11.250 -0.0608 -0.4023 -0.2210
 7612W        W11812   8.776  10.169  10.930 -0.0476 -0.0387 -0.1596
 7613W        W11813   6.428   7.655  11.738  0.0206  0.0601 -0.0220
 7614W        W11814   6.036   7.725   1.490  0.1157 -0.1061  0.0059
 7615W        W11815   9.875   6.620   2.205  0.1063  0.0536  0.2592
 7616W        W11816   6.238   6.604   4.227  0.0568  0.0934  0.0921
 7617W        W11817   3.640   5.060   9.045  0.2598  0.3852  0.0794
 7618W        W11818   2.769   6.395   1.745  0.2669  0.0248  0.0306
 7619W        W11819   2.613   1.847  10.954 -0.0227 -0.0681 -0.1631
 7620W        W11820   3.818   3.171   3.793 -0.2836  0.0836  0.2310
 7621W        W11821   7.390   8.004  13.192  0.1066 -0.1391  0.2429
 7622W        W11822   0.096   3.529   5.497  0.0410 -0.0963  0.0465
 7623W        W11823   0.522   0.477   5.620 -0.0222 -0.3075 -0.2618
 7624W        W11824   4.279   7.590  12.560  0.2290 -0.0652  0.0646
 7625W        W11825   0.996   5.508   2.180 -0.2893  0.0656  0.0758
 7626W        W11826   9.748   7.317  11.425 -0.0327  0.0251  0.3598
 7627W        W11827   6.736   3.585  10.438 -0.2608  0.1301  0.2337
 7628W        W11828   7.249   4.803  11.172 -0.4318 -0.0776 -0.1628
 7629W        W11829   0.444   6.367   3.805 -0.2056 -0.0203 -0.0701
 7630W        W11830   6.865   5.833   9.676 -0.3107 -0.0092 -0.2157
 7631W        W11831   2.392  10.138   4.548  0.2630 -0.0887 -0.1633
 7632W        W11832   0.940   2.675  12.779  0.0197  0.0562 -0.0683
 7633W        W11833   4.831   6.670   4.343  0.0111  0.0439 -0.1021
 7634W        W11834   1.447   6.741   3.494 -0.2796  0.1647  0.1308
 7635W        W11835   7.768   7.185  11.853 -0.0255 -0.0255  0.0405
 7636W        W11836   5.726   4.745  11.306 -0.1399  0.0834  0.3250
 7637W        W11837   4.894  10.050  11.662 -0.2229 -0.2944 -0.0843
 7638W        W11838   2.552   0.579  11.652 -0.1189 -0.0196  0.1922
 7639W        W11839   8.803   7.935  13.237  0.0048  0.0559 -0.1489
 7640W        W11840   7.531   9.874  12.859  0.0703 -0.2649  0.0288
 7641W        W11841   0.212   8.051  10.579 -0.2726 -0.1270  0.0831
 7642W        W11842   6.536   6.163  11.643 -0.0285 -0.0453  0.0019
 7643W        W11843   0.595   4.729  13.011  0.3401  0.0991  0.1250
 7644W        W11844   9.473   5.338   0.034 -0.2334  0.2438 -0.0528
 7645W        W11845   6.035   3.267   2.478  0.0559  0.0762  0.1776
 7646W        W11846   4.976   0.580   3.269 -0.0100 -0.0224  0.2569
 7647W        W11847   0.753   7.208   0.644  0.0467  0.0979  0.0102
 7648W        W11848   9.146   9.009   1.951  0.2893 -0.0703 -0.1218
 7649W        W11849   3.585   8.595   3.661  0.3604  0.0175  0.2381
 7650W        W11850   6.008   1.371   2.476  0.4082  0.2608  0.2290
 7651W        W11851   9.692   2.485   9.788 -0.1357  0.0704  0.1592
 7652W        W11852   7.544   7.480  12.329 -0.0593  0.0696 -0.0111
 7653W        W11853   9.887   0.832   4.877  0.2274 -0.0802 -0.0621
 7654W        W11854   2.134   5.871  11.043 -0.2997 -0.0148  0.3479
 7655W        W11855   8.596   8.515   0.382  0.0757 -0.1018  0.0645
 7656W        W11856   3.928   6.454  13.403  0.3490  0.1558 -0.0633
 7657W        W11857   7.944   5.100  10.138  0.4431 -0.0086 -0.2801
 7658W        W11858   6.397   9.945  11.107  0.1627 -0.1209 -0.0113
 7659W        W11859   1.818   8.259  11.762  0.2129  0.2234 -0.0012
 7660W        W11860   3.243   8.563  13.047  0.2274 -0.2082  0.0886
 7661W        W11861   4.385   6.153  13.333 -0.0888  0.0367  0.0111
 7662W        W11862   2.442   8.108   1.713 -0.1111  0.0767  0.0372
 7663W        W11863   1.683   2.423  11.270  0.0287  0.0556  0.1560
 7664W        W11864   2.151   1.592   5.584  0.0107  0.0450 -0.0621
 7665W        W11865   7.558   0.657  11.243 -0.2620 -0.2437  0.0716
 7666W        W11866   3.542   1.719   4.003 -0.1303 -0.1247 -0.1056
 7667W        W11867   1.278   4.195  10.270 -0.1778 -0.0226 -0.0897
 7668W        W11868   0.910   3.205   9.496  0.0867 -0.0110  0.0756
 7669W        W11869   2.194   2.002   3.284 -0.1510 -0.0965 -0.1177
 7670W        W11870  10.249   3.817   2.551  0.0046  0.1283 -0.0706
 7671W        W11871   9.821   5.641  10.459  0.0446  0.5382 -0.1574
 7672W        W11872   2.057   2.339  10.634 -0.2903  0.1163 -0.3632
 7673W        W11873   5.180   3.479   1.094  0.0501  0.1917 -0.1318
 7674W        W11874   0.208   8.375   0.462  0.0396  0.0022  0.0979
 7675W        W11875   7.911   8.822   0.501 -0.0179 -0.2396 -0.0619
 7676W        W11876   7.497   3.448   4.300 -0.1935  0.2424  0.0262
 7677W        W11877   0.210   3.756   8.932 -0.2304 -0.1746 -0.1807
 7678W        W11878   1.387   3.097  11.023 -0.0489  0.2342 -0.1974
 7679W        W11879   1.637   5.637  13.488  0.3099  0.3523 -0.3479
 7680W        W11880   7.147   9.261   0.436  0.0535  0.1263  0.0722
 7681W        W11881   9.445   1.342   9.884 -0.2536  0.0267  0.0476
 7682W        W11882   8.050   2.673   2.171  0.0033 -0.0604 -0.1322
 7683W        W11883   1.913   9.776   5.170 -0.0985 -0.3821  0.1294
 7684W        W11884   2.896   6.042   8.999  0.1774 -0.1583 -0.2892
 7685W        W11885  10.258   9.439  13.275  0.1732  0.0754  0.1234
 7686W        W11886   9.697   9.231  10.651 -0.2572  0.1751  0.2267
 7687W        W11887  10.130   0.077  12.536  0.0450  0.0499 -0.1088
 7688W        W11888   0.542   9.051  11.640  0.1070 -0.0103 -0.0271
 7689W        W11889   4.784   7.707   1.329 -0.1191 -0.2806 -0.0328
 7690W        W11890   4.232   1.591   3.215  0.0228 -0.4980 -0.0098
 7691W        W11891   8.644   9.274  12.246 -0.0675  0.1303  0.0649
 7692W        W11892   5.579   3.643   9.444  0.1879  0.1168  0.1568
 7693W        W11893   4.467   7.313   9.617 -0.0908 -0.0759  0.1813
 7694W        W11894   1.083   5.438  10.999 -0.1901 -0.0872 -0.1109
 7695W        W11895   1.171   1.734   4.337 -0.2289 -0.2424 -0.0230
 7696W        W11896   8.272  10.031  12.029  0.0023 -0.2763  0.0413
 7697W        W11897   4.256   0.948  12.696  0.4252 -0.0937 -0.1211
 7698W        W11898   5.134   5.624   2.865  0.1442  0.0105 -0.0956
 7699W        W11899   8.829   9.339  12.742 -0.0345  0.0405 -0.1214
 7700W        W11900   6.530   8.374   2.956  0.0835 -0.0988 -0.0423
 7701W        W11901   6.738   5.250   2.511  0.2910  0.1868  0.0640
 7702W        W11902   6.752   7.680   2.265 -0.0257  0.0381 -0.0431
 7703W        W11903   5.020   9.235  11.839  0.3799 -0.0401 -0.1348
 7704W        W11904   6.403   2.830   0.910 -0.3453 -0.2753 -0.2473
 7705W        W11905   6.082   1.856  12.856  0.1447 -0.0694  0.1006
 7706W        W11906   2.679  10.258  10.892 -0.2641 -0.0903  0.0438
 7707W        W11907   8.192   6.489   4.066  0.1910 -0.2408 -0.3234
 7708W        W11908   2.676   2.969  10.185  0.1419  0.2351  0.2918
 7709W        W11909   5.015   6.961   0.857  0.0008  0.2446  0.0014
 7710W        W11910   4.700   9.740  12.602  0.0895 -0.1071  0.2614
 7711W        W11911   7.630   3.478  10.547  0.2251 -0.2292  0.2592
 7712W        W11912   2.052   7.166  10.024 -0.0626 -0.1455  0.0544
 7713W        W11913   2.068   9.093  11.432 -0.0226  0.0705  0.2192
 7714W        W11914   4.936   6.654   9.986 -0.1378  0.0972  0.1699
 7715W        W11915   4.095   3.105   0.542 -0.3787  0.0305 -0.0758
 7716W        W11916   3.996  10.416  13.473  0.3355 -0.2659 -0.0080
 7717W        W11917   0.190   8.142   4.160 -0.2119 -0.0016 -0.2830
 7718W        W11918   3.936   1.667  13.526  0.1595  0.1561 -0.2315
 7719W        W11919   9.970   1.272   1.508 -0.0629 -0.0457 -0.1674
 7720W        W11920   8.910   6.261   3.350 -0.1982  0.1868 -0.0255
 7721W        W11921   4.195   3.481  10.737  0.0348 -0.2109  0.1285
 7722W        W11922   3.010   0.665   4.808  0.0858 -0.0717 -0.2320
 7723W        W11923   5.630   4.763   3.005 -0.3242 -0.0578  0.4238
 7724W        W11924  10.347   2.317   3.220 -0.1154  0.2750 -0.1831
 7725W        W11925   2.067   9.738  13.395  0.0884 -0.0539 -0.2695
 7726W        W11926   7.436   6.714  11.789  0.0021 -0.1417 -0.0802
 7727W        W11927   7.004  10.432  10.580 -0.3219  0.0944  0.0819
 7728W        W11928   8.312   5.296  13.400 -0.3121 -0.3901  0.2067
 7729W        W11929   1.432   6.948   0.064 -0.0747 -0.2460 -0.0493
 7730W        W11930   7.804   9.177  10.411 -0.0377  0.0759  0.0656
 7731W        W11931   1.941   7.786   3.209  0.4210  0.1628 -0.1649
 7732W        W11932   0.098   2.816   9.501  0.0806  0.2513 -0.1032
 7733W        W11933   7.522   3.645   0.376 -0.1178 -0.2810  0.1182
 7734W        W11934   0.388   4.735   3.380 -0.0611  0.0158  0.3286
 7735W        W11935   5.919  10.080  11.579 -0.4626  0.0726  0.2058
 7736W        W11936   3.648   5.534   8.296 -0.0899 -0.0343  0.0244
 7737W        W11937   0.610   0.645  10.877  0.1028 -0.3621  0.0888
 7738W        W11938   1.695   1.913  11.158  0.1363 -0.4209  0.1789
 7739W        W11939   3.505   6.458  10.798  0.2795  0.1153 -0.3167
 7740W        W11940   8.341   2.676   1.693 -0.0108 -0.2553 -0.0099
 7741W        W11941   9.115   3.606  10.497  0.1568  0.1179  0.2273
 7742W        W11942   8.807   1.079   3.544 -0.2642 -0.1289  0.1819
 7743W        W11943   6.187   5.565  11.520 -0.2996  0.0684 -0.3399
 7744W        W11944   3.966   7.185   9.788 -0.2078  0.1741  0.0440
 7745W        W11945   2.740   0.078  11.324 -0.0322  0.1335  0.1983
 7746W        W11946   4.952   0.027   0.751 -0.1419  0.3808 -0.1219
 7747W        W11947   7.754   6.065  11.082  0.0728  0.3226  0.2320
 7748W        W11948   8.767   5.826   3.667 -0.0525 -0.1646  0.1856
 7749W        W11949   9.913   1.638  11.327 -0.0338  0.0015 -0.3331
 7750W        W11950   1.975   6.560  11.408  0.2948 -0.0025 -0.3050
 7751W        W11951   3.751   1.078   4.015  0.3436 -0.0500  0.1801
 7752W        W11952   0.651  10.444   2.176 -0.5623  0.2120  0.1727
 7753W        W11953   5.217  10.175   2.229  0.0369  0.0062 -0.0092
 7754W        W11954   7.167   3.225   1.017  0.3460 -0.1107  0.0202
 7755W        W11955   7.813   3.258   9.493  0.1826  0.5516 -0.0718
 7756W        W11956   8.898   5.261   2.204 -0.0700 -0.0824 -0.3494
 7757W        W11957   8.370   1.305  10.737  0.0805 -0.0028 -0.1987
 7758W        W11958   3.267   8.308   4.016 -0.0492 -0.1936 -0.1871
 7759W        W11959   2.618   6.434  10.753  0.0660 -0.0865  0.0206
 7760W        W11960   8.160   6.930   1.599 -0.1462  0.0822 -0.0556
 7761W        W11961   0.719   5.080   3.079 -0.2323 -0.1733 -0.4593
 7762W        W11962   0.244   0.604   0.971 -0.1708  0.0431  0.3209
 7763W        W11963   4.507   7.517   4.348  0.0707 -0.0458 -0.0241
 7764W        W11964   5.039   0.287  10.143 -0.1441  0.1588 -0.1269
 7765W        W11965   3.772   7.558   1.377  0.2351  0.4486 -0.1391
 7766W        W11966   0.072  10.323  11.372  0.2469 -0.2080 -0.1041
 7767W        W11967   4.677   5.529  11.444 -0.0846 -0.1521  0.5305
 7768W        W11968  10.346   1.093   5.098 -0.1950 -0.0956  0.1358
 7769W        W11969   0.429   7.854   3.840 -0.3967  0.2091  0.0707
 7770W        W11970   1.033   5.764   1.692 -0.1298  0.2472 -0.2764
 7771W        W11971   5.071   1.297  11.144  0.1460  0.0194  0.0959
 7772W        W11972   2.298   5.233  10.268  0.1772  0.0677 -0.0198
 7773W        W11973   8.609   6.829   0.780 -0.2128 -0.0284  0.1483
 7774W        W11974   6.689   9.868   1.898 -0.2370  0.2610  0.1693
 7775W        W11975   2.692   3.693   9.827  0.2160  0.2825 -0.2694
 7776W        W11976   2.301   1.792   0.269  0.3932 -0.1016 -0.0773
 7777W        W11977   9.894   5.442   0.283  0.1182  0.2536 -0.3557
 7778W        W11978   7.946   2.684   3.214  0.1405  0.0088  0.0012
 7779W        W11979   5.014  10.432  11.345  0.2053 -0.0629 -0.3183
 7780W        W11980   3.459   3.469  10.116 -0.1979  0.0155 -0.2299
 7781W        W11981   7.279   6.343  13.068 -0.1597  0.2900  0.1033
 7782W        W11982   2.752   5.799   3.644 -0.0502 -0.1588 -0.4406
 7783W        W11983   4.113   8.023   0.489 -0.1031  0.2167  0.2684
 7784W        W11984   4.418   8.231   2.575  0.1251 -0.2696 -0.3108
 7785W        W11985   5.377   5.624  10.967 -0.0251  0.0422  0.2761
 7786W        W11986   4.149   2.981  12.213  0.2040  0.0354  0.1503
 7787W        W11987   8.848   3.624   4.454  0.0163  0.1984 -0.1083
 7788W        W11988   8.226   3.657   2.953 -0.1603 -0.5370  0.0761
 7789W        W11989   7.213   9.811  11.512  0.2718  0.1827 -0.0192
 7790W        W11990   5.207   6.985   2.101 -0.0049  0.1029 -0.2885
 7791W        W11991   2.428   6.713   9.461 -0.0079  0.3449 -0.0014
 7792W        W11992   3.360   3.594   0.119 -0.0094  0.2544 -0.1020
 7793W        W11993   2.891   3.960   0.734 -0.1854 -0.1763 -0.1275
 7794W        W11994   1.565   7.395  11.533  0.0990 -0.0401 -0.1096
 7795W        W11995   4.526   1.709   2.849 -0.0375 -0.0770 -0.0501
 7796W        W11996  10.191   6.693   9.092 -0.1890 -0.0585 -0.1072
 7797W        W11997   5.353  10.251   2.815 -0.1739  0.0016 -0.0604
 7798W        W11998   2.520   9.661   0.019  0.2442 -0.1445 -0.1415
 7799W        W11999   7.784   9.033   1.842 -0.0640  0.3961 -0.1228
 7800W        W12000   9.433   4.486   9.825  0.0562 -0.3035  0.2901
 7801W        W12001   7.720   0.945   2.812  0.0119 -0.0584  0.1094
 7802W        W12002   2.364   2.487  11.586 -0.1083  0.0226 -0.1699
 7803W        W12003   8.841   5.254  13.301 -0.1766  0.0578 -0.1343
 7804W        W12004   9.644   4.051   2.485 -0.0801  0.2366  0.0257
 7805W        W12005   4.790  10.378   2.055 -0.2033  0.2040 -0.1883
 7806W        W12006   9.299   0.683  11.826 -0.1155 -0.1356 -0.1726
 7807W        W12007   1.415   7.029   2.757 -0.0871 -0.0821  0.3512
 7808W        W12008   7.213   6.420   4.110  0.0788  0.1939 -0.0465
 7809W        W12009   5.429   3.569  10.959  0.0300 -0.1558 -0.1717
 7810W        W12010   1.729   6.076   2.520 -0.0290 -0.1021  0.0616
 7811W        W12011   3.314   7.184   0.824  0.0371  0.1033  0.0104
 7812W        W12012   4.019   7.491   2.246  0.0858  0.3230 -0.0033
 7813W        W12013   2.664   3.381   3.568 -0.2986  0.0530 -0.1420
 7814W        W12014   9.089   5.971   0.144  0.3011 -0.0161 -0.1703
 7815W        W12015   9.696   0.628  10.347 -0.0686  0.2216  0.1042
 7816W        W12016   3.690   6.942   2.150  0.2819 -0.1878  0.2218
 7817W        W12017   6.490   5.664  12.662 -0.0051 -0.1089  0.2895
 7818W        W12018   0.120   3.156   2.595  0.1187  0.1401  0.0057
 7819W        W12019   6.741   7.148  10.836 -0.1127  0.0624 -0.0291
 7820W        W12020   8.565   3.495  13.325 -0.1442  0.2204 -0.1978
 7821W        W12021   1.528   0.871   3.791 -0.0904  0.0659 -0.0980
 7822W        W12022   4.397   8.382   9.000 -0.3380  0.1463  0.3026
 7823W        W12023   9.998   2.665   1.851  0.0574 -0.2790  0.1305
 7824W        W12024   9.265   3.396  12.712  0.0958 -0.0699 -0.2434
 7825W        W12025   1.117   3.034   5.375 -0.0028  0.0791  0.0171
 7826W        W12026   6.833   4.649   4.547 -0.2724  0.0516 -0.3902
 7827W        W12027   6.773   7.073   3.430  0.0321  0.1216 -0.2790
 7828W        W12028   6.502   0.524  13.433  0.1370  0.2204 -0.1274
 7829W        W12029   4.832   5.769  10.974  0.0243 -0.2588 -0.4489
 7830W        W12030   8.428   8.503  10.926 -0.2352 -0.1917  0.0760
 7831W        W12031   2.843   6.269   3.175  0.0290  0.0400  0.0896
 7832W        W12032  10.145   0.600  10.978  0.1131 -0.0678 -0.0937
 7833W        W12033   9.724   8.680   4.545 -0.0270 -0.1137  0.1131
 7834W        W12034   7.295   9.164   3.221  0.1385  0.4140  0.1114
 7835W        W12035   3.729   0.813  12.437  0.0361  0.1357  0.1569
 7836W        W12036   9.508   8.806  10.435 -0.0934 -0.0049 -0.1166
 7837W        W12037   1.523   5.154  11.178  0.0558 -0.0466 -0.1321
 7838W        W12038  10.327   6.271   9.401  0.0266 -0.4196  0.2387
 7839W        W12039   2.068   9.106   1.742  0.0413  0.2368 -0.0658
 7840W        W12040   0.848   1.994   0.327  0.1135 -0.2826 -0.1726
 7841W        W12041   0.344   3.045  11.572 -0.5132 -0.1695  0.0332
 7842W        W12042   9.954   4.844   4.225  0.1584 -0.1183 -0.1180
 7843W        W12043   6.113   0.786  11.040  0.0074 -0.0616 -0.1286
 7844W        W12044   1.872   0.150  11.234  0.0801  0.0075  0.1280
 7845W        W12045   3.545   6.355  13.050  0.2343  0.1382  0.1161
 7846W        W12046   5.199   4.855  11.945  0.2313  0.0814 -0.0551
 7847W        W12047   9.175   5.191  11.427 -0.1957  0.1975  0.1742
 7848W        W12048   4.174   9.239   4.878 -0.4611 -0.1011  0.0187
 7849W        W12049   2.257   0.408   2.748 -0.0850  0.1479  0.1526
 7850W        W12050   4.558   1.255   3.054 -0.2033 -0.2263  0.0125
 7851W        W12051   4.949   2.182   5.373 -0.6601  0.2087 -0.0492
 7852W        W12052   5.662   4.651   9.203  0.2724  0.1183 -0.0430
 7853W        W12053   2.757   3.287  10.540 -0.0403  0.0161 -0.1356
 7854W        W12054   6.875   0.628   1.106  0.0018 -0.4640  0.2208
 7855W        W12055   2.416   2.558   2.381  0.0993  0.0556 -0.1663
 7856W        W12056   2.839   8.842   4.000  0.0184  0.0254  0.0044
 7857W        W12057   6.495   2.591  12.082  0.2289  0.2751  0.0517
 7858W        W12058   4.340   4.912   0.669  0.0620 -0.3153 -0.1566
 7859W        W12059   9.788   5.155  12.261 -0.4682  0.1320 -0.0664
 7860W        W12060   4.821   8.166   1.432 -0.2326  0.1361 -0.0849
 7861W        W12061   4.335   9.074   0.702  0.1363  0.0855  0.1428
 7862W        W12062   6.965   9.578   3.302  0.1838  0.0709  0.1412
 7863W        W12063   9.874   5.252  12.791 -0.0767 -0.0493 -0.1084
 7864W        W12064   8.542   4.695   8.674 -0.1503  0.3176 -0.1887
 7865W        W12065   2.677   3.409   0.949  0.3296 -0.1102  0.1387
 7866W        W12066   7.821   9.052  11.432  0.0855  0.3456  0.1280
 7867W        W12067   1.757   1.398   2.267  0.0898  0.0628 -0.0866
 7868W        W12068   3.072   8.053   3.374 -0.0264  0.0512 -0.1569
 7869W        W12069   9.936   2.706   5.364  0.2544 -0.0898  0.0261
 7870W        W12070   1.393   3.302   9.430  0.0289  0.0731  0.0359
 7871W        W12071   0.387   4.303  13.300 -0.1899 -0.0288 -0.1348
 7872W        W12072   8.182   9.771  11.582 -0.2841 -0.1818 -0.0672
 7873W        W12073   1.855   6.419   2.109 -0.1114  0.2523  0.1782
 7874W        W12074   8.075   3.413   4.147  0.0325 -0.1195 -0.0511
 7875W        W12075   0.757   7.626  11.678 -0.0413  0.0142 -0.0147
 7876W        W12076   0.625  10.415  12.811  0.0345  0.0253 -0.1737
 7877W        W12077   3.153   3.676   1.120 -0.0594  0.1175 -0.2758
 7878W        W12078   7.499   6.890  10.285 -0.2115  0.2586  0.3170
 7879W        W12079   1.944  10.052  10.252  0.2285 -0.3196  0.0872
 7880W        W12080   7.594   7.159   1.499  0.5563  0.2815 -0.3003
 7881W        W12081   3.675   5.987  10.056  0.0219 -0.1481  0.1161
 7882W        W12082   5.343   3.572  12.340 -0.3334 -0.3705 -0.0465
 7883W        W12083   4.681   4.995   4.648 -0.0660 -0.1635  0.0892
 7884W        W12084   2.860   4.539   2.227 -0.0185  0.0882 -0.1849
 7885W        W12085   9.116   4.565   3.671  0.0349 -0.1462 -0.6433
 7886W        W12086  10.324   4.234   8.723 -0.2237  0.0313 -0.3382
 7887W        W12087   5.372   8.967   2.579  0.1999 -0.0312 -0.0787
 7888W        W12088   0.545   9.158   3.666  0.0878 -0.0538 -0.1334
 7889W        W12089   8.582   2.032   3.733 -0.0461  0.0218  0.0144
 7890W        W12090   6.792   3.590  11.029  0.1432  0.0187  0.1778
 7891W        W12091   5.154   7.824  10.480  0.1133  0.0389 -0.0458
 7892W        W12092   6.046   3.639   1.136 -0.5385 -0.2525 -0.0160
 7893W        W12093   3.953   0.502   2.296  0.3050 -0.1251 -0.0254
 7894W        W12094   8.067  10.225   1.181  0.1955  0.1109  0.1529
 7895W        W12095   0.468   1.525   5.707  0.2739 -0.1140  0.1348
 7896W        W12096   4.393   8.822  10.090  0.1935  0.1675  0.3908
 7897W        W12097   1.915   6.351   3.471  0.1245 -0.1462 -0.0282
 7898W        W12098   1.563   3.763   4.244  0.0041  0.0427  0.1429
 7899W        W12099   3.447   8.776   4.764  0.3261 -0.1992 -0.1049
 7900W        W12100   1.348   4.267  11.316  0.0635 -0.0291 -0.2271
 7901W        W12101   0.353   0.729   2.680  0.2264  0.2341  0.0883
 7902W        W12102   8.835   3.869   3.148  0.1172  0.0678 -0.3125
 7903W        W12103   9.592   3.563  10.594 -0.0050  0.0809 -0.0121
 7904W        W12104   4.451   8.738   2.629  0.1179 -0.1112  0.3421
 7905W        W12105   8.210   6.289  13.224 -0.1519  0.0641 -0.1720
 7906W        W12106   5.571   1.740   3.765  0.0709 -0.0320 -0.3340
 7907W        W12107  10.177   4.573   3.841  0.3856 -0.0211 -0.1605
 7908W        W12108   0.074   6.771   3.943  0.0319 -0.2759 -0.0595
 7909W        W12109   8.091   2.825   0.125  0.3786  0.0351  0.1448
 7910W        W12110   6.937   1.165   1.167 -0.0130  0.2317  0.3412
 7911W        W12111   8.186   5.353   9.772 -0.1512  0.0008  0.1882
 7912W        W12112   4.598   4.454   0.855  0.2282  0.1751  0.0778
 7913W        W12113   2.995   2.899   3.144  0.0683  0.0098  0.3787
 7914W        W12114   9.364   2.822  10.892 -0.1448  0.0141 -0.3108
 7915W        W12115   8.059   2.052   1.372 -0.2664  0.2004  0.3136
 7916W        W12116   6.786   4.108   3.935 -0.1822  0.0901 -0.1954
 7917W        W12117  10.289   9.952  11.083 -0.2423  0.1606  0.0464
 7918W        W12118   4.460   7.891  11.149 -0.0139  0.1026  0.0280
 7919W        W12119   4.304   2.296   3.348 -0.1666 -0.2382 -0.0097
 7920W        W12120   6.427   6.193  12.694  0.1241  0.3064 -0.1657
 7921W        W12121   2.575   9.528   9.716  0.1534  0.2294 -0.0769
 7922W        W12122   6.525   5.339   1.470  0.1401 -0.0628  0.2578
 7923W        W12123   0.770   9.736   1.256 -0.0740  0.0362  0.1465
 7924W        W12124   9.334   2.295  11.175 -0.2594  0.1424 -0.1282
 7925W        W12125   7.175   5.376  11.312 -0.0033  0.2118 -0.1391
 7926W        W12126   3.863   5.292   3.630  0.0310 -0.2089  0.1822
 7927W        W12127   2.382   4.420   0.302 -0.1979 -0.0083  0.1406
 7928W        W12128   6.799   5.573  10.104 -0.1268  0.3154  0.1220
 7929W        W12129   2.972   6.143   9.546 -0.1069 -0.0028 -0.1650
 7930W        W12130   9.289   0.387  12.359 -0.4357  0.1615  0.5463
 7931W        W12131   2.570   4.354  10.617  0.0468 -0.1477  0.0576
 7932W        W12132   5.502   5.967  12.579 -0.0620  0.2222 -0.1581
 7933W        W12133   4.578  10.411  11.690  0.1677 -0.3516 -0.0155
 7934W        W12134   7.850   6.824   9.932  0.0074  0.0174  0.0567
 7935W        W12135   0.442   2.734   3.928 -0.0203  0.2938 -0.2272
 7936W        W12136   8.663   5.024   3.642  0.1404  0.1625  0.2681
 7937W        W12137   7.581   5.814  12.887 -0.1791 -0.3328 -0.3821
 7938W        W12138   9.594   6.728   0.023 -0.1166  0.2389 -0.0836
 7939W        W12139   4.223   0.425  10.847 -0.2673  0.0548 -0.1639
 7940W        W12140   9.881   6.934   0.638 -0.1455 -0.2430 -0.2134
 7941W        W12141   8.379   6.674  10.604 -0.0079  0.3128 -0.2370
 7942W        W12142   2.596   2.247   0.121  0.2265 -0.1323  0.0269
 7943W        W12143   2.136   9.608  10.625  0.1104  0.0393 -0.1095
 7944W        W12144   5.473   3.229   0.639  0.1932  0.0544 -0.1560
 7945W        W12145   7.179   1.420  12.033 -0.0675 -0.1045  0.0213
 7946W        W12146   9.517   9.370   2.016  0.0553 -0.1151  0.0294
 7947W        W12147   2.353   1.441  11.054 -0.0528  0.1614 -0.3925
 7948W        W12148   9.060   6.605  10.594  0.3793 -0.0922  0.0488
 7949W        W12149   1.051   5.280  13.020 -0.0643 -0.1761  0.1178
 7950W        W12150   1.041   2.156   2.591 -0.3725 -0.3011  0.1087
 7951W        W12151   8.780   2.611   3.571  0.2295  0.3066 -0.2877
 7952W        W12152   6.745   8.650   0.911 -0.4245  0.2316 -0.1394
 7953W        W12153   9.460   7.110   9.644 -0.2120 -0.0230  0.0779
 7954W        W12154   4.613   0.547  12.962  0.0541  0.4164  0.1018
 7955W        W12155   5.363   2.011  10.708  0.0798 -0.0611 -0.2841
 7956W        W12156   6.765   7.248   0.989 -0.0647 -0.0438 -0.0307
 7957W        W12157   2.257   0.107  11.543 -0.1016  0.0348 -0.0384
 7958W        W12158   4.230   2.963  10.592 -0.1391 -0.1361 -0.0610
 7959W        W12159   3.979   0.064   2.882  0.1987 -0.2946 -0.2890
 7960W        W12160   2.241  10.311   3.256  0.2386  0.1067 -0.1516
 7961W        W12161   2.097   8.229  10.790 -0.1604 -0.0373  0.0423
 7962W        W12162   7.898   0.410   3.294 -0.2836 -0.3159  0.4226
 7963W        W12163   9.930  10.210   1.785 -0.0852  0.0217 -0.2220
 7964W        W12164   4.100   2.816  13.318  0.0146  0.1010  0.1161
 7965W        W12165   8.592   4.146  12.508  0.0048  0.1736  0.1118
 7966W        W12166   2.720   0.601   2.896 -0.1877  0.0002 -0.2140
 7967W        W12167   3.015   2.950   4.541 -0.0537 -0.1960  0.2936
 7968W        W12168   1.469   5.249   1.357  0.1889 -0.1230  0.1710
 7969W        W12169   0.146   4.325   3.166 -0.2735 -0.1321 -0.0640
 7970W        W12170   7.057   9.876   1.039  0.1994  0.3736 -0.3629
 7971W        W12171   7.597   1.666  10.504  0.0225 -0.0202 -0.0600
 7972W        W12172   7.556   4.928  10.393 -0.0889  0.3393 -0.0666
 7973W        W12173   5.440   3.505   0.254  0.1443 -0.0337  0.1538
 7974W        W12174   8.684   3.711   8.924 -0.0529  0.1306  0.2071
 7975W        W12175   2.994   6.880  10.058 -0.2983  0.1617 -0.2107
 7976W        W12176   9.518   8.972   2.334 -0.3666  0.2817 -0.1967
 7977W        W12177   7.837   0.396   2.028 -0.0825  0.1651  0.0110
 7978W        W12178   3.059   9.242   1.535 -0.1682 -0.3618 -0.1058
 7979W        W12179   8.682   8.896  12.551 -0.0311 -0.0337 -0.1004
 7980W        W12180   5.217   1.995   9.519  0.0078  0.0365  0.2554
 7981W        W12181  10.226   5.362   4.103 -0.0970 -0.0975  0.2074
 7982W        W12182   6.551   0.150  12.180  0.1579 -0.0505  0.0802
 7983W        W12183   4.600   2.493   4.614  0.1322  0.1325  0.2241
 7984W        W12184   9.389   3.408  13.184 -0.0128 -0.3842  0.1599
 7985W        W12185   3.527   2.206   4.874 -0.0055 -0.4118  0.1889
 7986W        W12186  10.064   0.707  10.000 -0.0908 -0.0174 -0.1388
 7987W        W12187   2.111   7.698  10.717  0.2014  0.0433  0.0002
 7988W        W12188   2.590   9.319  13.183 -0.1727  0.2865  0.1360
 7989W        W12189   9.425   6.230  13.315 -0.1686 -0.0034 -0.1505
 7990W        W12190  10.043   2.372  11.213  0.3374  0.1942  0.0477
 7991W        W12191   1.165   9.746  10.458 -0.0229  0.1504 -0.1297
 7992W        W12192   7.826   1.733   0.975 -0.0959  0.0187  0.0589
 7993W        W12193   7.989   6.053   4.015  0.1452  0.3050  0.0458
 7994W        W12194   5.196   3.472   4.029  0.0220 -0.2305 -0.1435
 7995W        W12195   0.679   2.737   2.048 -0.1647  0.0118  0.0306
 7996W        W12196   9.269   4.245   4.058 -0.1360  0.1283 -0.1369
 7997W        W12197   5.270   7.853  12.189 -0.1958  0.2427 -0.0158
 7998W        W12198   8.000   4.919   0.093 -0.1765  0.1658  0.0673
 7999W        W12199   0.861   3.585  12.680  0.3596 -0.3167 -0.3103
 8000W        W12200   9.586   5.768   1.091  0.1126  0.3226  0.1509
 8001W        W12201   4.125   4.772   0.152 -0.0565 -0.0028  0.0813
 8002W        W12202   2.990   5.993   4.480  0.1752 -0.0753  0.0096
 8003W        W12203   7.338   4.050  12.879  0.1093  0.1682 -0.1277
 8004W        W12204   7.376   2.448   3.982 -0.1015  0.2257 -0.0596
 8005W        W12205  10.155   4.861  13.475  0.3141 -0.0010  0.1392
 8006W        W12206   8.206   7.287  11.695  0.0060 -0.1379  0.0991
 8007W        W12207   2.782   8.389  12.733  0.0548  0.3200 -0.1890
 8008W        W12208   3.516   9.576   4.461  0.2873 -0.2457 -0.0018
 8009W        W12209   1.197   4.561   3.884  0.0162  0.0489  0.1140
 8010W        W12210   8.427   3.986   1.037 -0.2199 -0.4545  0.0014
 8011W        W12211   6.235   6.527  12.407  0.2321  0.0654 -0.1602
 8012W        W12212   1.830   4.656   4.953  0.0573 -0.0472  0.0697
 8013W        W12213   0.476   5.911   8.790  0.2057 -0.1370 -0.1319
 8014W        W12214   3.689   1.358  11.737 -0.0233 -0.0037  0.0954
 8015W        W12215   3.018   7.784   0.932  0.0670  0.1086  0.2167
 8016W        W12216   0.673   1.604   4.422  0.1254 -0.2142 -0.1767
 8017W        W12217   9.509   8.241   3.650  0.0088  0.1859 -0.3985
 8018W        W12218   8.127   9.958  12.691 -0.1992 -0.3559  0.0336
 8019W        W12219   1.979   2.890  11.806 -0.0886  0.0659 -0.0186
 8020W        W12220   7.269   5.799  12.012  0.4439  0.2108 -0.3384
 8021W        W12221   5.901   0.210  11.460  0.1340 -0.0278  0.1240
 8022W        W12222   6.301   5.448  10.974  0.2374 -0.1836 -0.0831
 8023W        W12223   6.060   1.871   2.560 -0.0272  0.2973  0.0666
 8024W        W12224   8.397  10.161  13.103  0.0779 -0.2097  0.0627
 8025W        W12225   5.186   4.313   4.436 -0.1471  0.0644  0.0035
 8026W        W12226   8.565   0.754   0.002 -0.0088  0.0270 -0.2774
 8027W        W12227   6.334   8.384  12.381  0.1087 -0.0879  0.0264
 8028W        W12228   2.532   5.917  12.778  0.1602  0.0972  0.2083
 8029W        W12229   7.739   6.234   2.207 -0.3748 -0.1343  0.1928
 8030W        W12230   8.868   7.531   0.955  0.1608  0.0915 -0.0890
 8031W        W12231   6.733   7.058   9.277  0.0884  0.0251  0.3179
 8032W        W12232   2.348   8.931  13.004 -0.0631 -0.1960 -0.2314
 8033W        W12233   7.530  10.363   2.524 -0.0889 -0.1098  0.1539
 8034W        W12234   6.800   0.680   3.302 -0.5026 -0.2767 -0.1500
 8035W        W12235   7.295   4.915   3.921  0.0613  0.1951 -0.1184
 8036W        W12236   2.008   3.819   9.088  0.2552  0.1149 -0.0396
 8037W        W12237  10.139   0.101   0.710 -0.0011 -0.1428 -0.1623
 8038W        W12238   4.390   0.672   4.602 -0.2441 -0.1667 -0.0505
 8039W        W12239   9.710   6.936  12.750 -0.2454  0.2833 -0.1839
 8040W        W12240   8.698   6.008  12.077 -0.0542 -0.3801  0.2468
 8041W        W12241   5.511   3.935  11.494  0.0858  0.3654 -0.0046
 8042W        W12242   3.126   0.871   2.746  0.1364 -0.1020  0.0243
 8043W        W12243   2.399   4.300   3.001 -0.2361 -0.3002  0.0678
 8044W        W12244   2.704   0.970  10.939 -0.1827  0.1257 -0.1397
 8045W        W12245   9.737   3.243  13.494  0.1266  0.0822  0.0202
 8046W        W12246   0.884   8.431   2.564  0.1383  0.0086  0.1365
 8047W        W12247   5.171   7.524   1.035 -0.0769 -0.3022  0.0890
 8048W        W12248   6.099   4.375   3.137  0.0510 -0.0999  0.0778
 8049W        W12249   3.260   3.851  12.415 -0.1343 -0.0666 -0.0054
 8050W        W12250   5.051  10.078   1.111 -0.4156  0.0302 -0.4037
 8051W        W12251   9.007   4.533   4.376 -0.2465  0.1750  0.0203
 8052W        W12252   7.514   4.044   2.944 -0.1431  0.1592  0.0889
 8053W        W12253   3.451   9.034   2.248 -0.2445  0.0299  0.0623
 8054W        W12254   3.057   3.096   5.064  0.0513  0.0283 -0.0053
 8055W        W12255   7.979   4.859   0.938  0.0515  0.1158 -0.1443
 8056W        W12256   0.893   1.717   3.781  0.1789 -0.1840  0.4433
 8057W        W12257   2.863   8.011  11.088 -0.0277  0.2424  0.0590
 8058W        W12258   8.510   3.118  10.175 -0.0472 -0.1240 -0.0674
 8059W        W12259   2.463   8.818  11.434 -0.4341  0.1643 -0.0545
 8060W        W12260   2.939   5.156   5.167  0.1390 -0.0341  0.0303
 8061W        W12261   9.541   8.475   2.171 -0.1846  0.4079  0.0896
 8062W        W12262   1.948   8.787   8.806 -0.1358  0.2736  0.1576
 8063W        W12263   8.768  10.233   0.488 -0.0416 -0.3502  0.0693
 8064W        W12264   6.162   3.925   3.254 -0.0813  0.3059 -0.2364
 8065W        W12265   6.347   1.371  12.676  0.1659  0.1259 -0.2193
 8066W        W12266   8.660   3.802  12.156  0.1076  0.2336 -0.1170
 8067W        W12267   9.427   1.917   3.331 -0.1427  0.0418 -0.2985
 8068W        W12268   1.182   7.999  12.471  0.0433  0.4012 -0.2150
 8069W        W12269   9.478   7.912   1.727 -0.0157  0.1834  0.0784
 8070W        W12270   8.756   6.888  10.896 -0.1686 -0.4153  0.0673
 8071W        W12271   4.350   9.086   2.283 -0.3637 -0.3547  0.1397
 8072W        W12272   0.262   7.115   0.076  0.0050  0.1297 -0.2198
 8073W        W12273   0.476   8.379   0.021 -0.0820 -0.1112 -0.0938
 8074W        W12274   8.729   7.331  11.738 -0.0584  0.0964  0.0027
 8075W        W12275   8.065   8.053   1.057 -0.0430  0.0133  0.4319
 8076W        W12276   3.074   4.315   3.701  0.0744 -0.3315 -0.2313
 8077W        W12277   8.686   5.546  12.412 -0.0264 -0.0956  0.1280
 8078W        W12278   2.055   1.669  11.460  0.0775 -0.0001  0.1737
 8079W        W12279  10.133   9.633  11.447  0.1279 -0.0506  0.1973
 8080W        W12280   0.419   1.485   2.506 -0.2167 -0.0913  0.0258
 8081W        W12281   6.631  10.134   3.015 -0.0289  0.1334 -0.1001
 8082W        W12282   0.571   0.443  10.401  0.3252 -0.0060  0.1727
 8083W        W12283   4.755   1.803  13.424  0.0436  0.0934 -0.0340
 8084W        W12284   9.811   1.935   0.766  0.1190  0.2512  0.2063
 8085W        W12285   0.720   1.332  13.326  0.0736  0.2094  0.4284
 8086W        W12286   3.219   8.670  10.761  0.0422  0.1702  0.2945
 8087W        W12287   8.932   5.573  10.447  0.1741  0.0350 -0.0772
 8088W        W12288   6.525   8.428   0.281 -0.0155 -0.2782  0.1953
 8089W        W12289   3.780   6.834   3.371  0.2265 -0.0323  0.1464
 8090W        W12290   8.607   5.390   0.454  0.1793 -0.0727  0.1234
 8091W        W12291   6.808   6.915   1.687 -0.0288  0.0060 -0.1899
 8092W        W12292   3.100   9.741   3.359  0.3208 -0.0391 -0.1585
 8093W        W12293   5.392   3.966   2.507 -0.0567  0.1091 -0.0684
 8094W        W12294   3.159   0.494   0.231 -0.3077  0.1943 -0.2634
 8095W        W12295   3.931   3.441   1.563  0.0189 -0.0995  0.0331
 8096W        W12296   7.991   3.606   2.137  0.0472  0.1431 -0.2344
 8097W        W12297   2.210   7.788   0.345 -0.3111  0.0519  0.0192
 8098W        W12298   7.461   6.293   1.783  0.1694  0.4859 -0.0745
 8099W        W12299   8.524   1.498   2.618  0.0435  0.0766  0.3296
 8100W        W12300   2.478   7.188   4.024 -0.0753  0.1530  0.0785
 8101W        W12301   2.946   9.346  13.535  0.2285 -0.3616  0.0372
 8102W        W12302   6.411   6.725  12.820  0.2950 -0.0952 -0.0509
 8103W        W12303   3.603   8.956  11.583 -0.1185  0.2310 -0.3421
 8104W        W12304   5.983   3.223   3.423  0.0773 -0.0143 -0.2249
 8105W        W12305   6.166   9.520  11.944  0.2605 -0.0500  0.0210
 8106W        W12306   9.372   7.459   3.029 -0.0378  0.0143  0.0607
 8107W        W12307   3.955   5.475  11.945  0.1373 -0.3456  0.2594
 8108W        W12308   8.316   4.710  10.804  0.4335 -0.1289  0.1167
 8109W        W12309   5.774   1.329   9.064 -0.0067 -0.1143 -0.0063
 8110W        W12310   2.117   8.902   2.522 -0.1817  0.0043 -0.0683
 8111W        W12311   6.251   8.383   2.480  0.2317  0.1069 -0.0179
 8112W        W12312   5.203   6.130   2.719  0.0119 -0.0078 -0.3834
 8113W        W12313   7.527   6.470   0.026  0.0046  0.1876  0.0261
 8114W        W12314   0.768   8.058   0.272 -0.1535 -0.2486 -0.0054
 8115W        W12315   0.318   3.029  10.355 -0.0088  0.1252  0.0083
 8116W        W12316   9.712   3.023   0.903 -0.2112  0.0140  0.1240
 8117W        W12317   0.392   3.343   4.117 -0.1629  0.0102  0.0447
 8118W        W12318   0.876   4.810   2.001  0.2070 -0.3946 -0.2953
 8119W        W12319   7.255   1.711   3.473  0.0714 -0.2586 -0.0126
 8120W        W12320   7.677   4.875   9.773 -0.0815 -0.2538  0.0422
 8121W        W12321   2.338   8.046   9.700 -0.2539  0.2526  0.0655
 8122W        W12322   1.931   1.111  12.369  0.1969  0.0153  0.2343
 8123W        W12323   1.048   6.720  10.693  0.0135  0.0815 -0.0145
 8124W        W12324   2.452   5.673   1.312  0.2725  0.2285  0.1216
 8125W        W12325   0.841   8.824   5.118 -0.2772  0.1728 -0.0117
 8126W        W12326   0.695   6.976  10.217  0.1535 -0.2277 -0.0265
 8127W        W12327   8.913   4.072   2.559  0.1281 -0.2602 -0.3264
 8128W        W12328   0.576   8.047   2.527 -0.0875 -0.2404  0.1066
 8129W        W12329   0.190   0.891  10.245  0.1327  0.0409 -0.1604
 8130W        W12330   9.955   8.901   0.280  0.5628  0.0472  0.0568
 8131W        W12331   5.971   1.963   4.322  0.1067 -0.2162 -0.0288
 8132W        W12332   6.986   2.054   9.999 -0.2167 -0.1176  0.1893
 8133W        W12333   6.333   5.147  10.211  0.3916  0.1985 -0.4785
 8134W        W12334   4.855   5.553   2.128  0.1064 -0.0854  0.0096
 8135W        W12335   0.697   8.406   9.571  0.0887 -0.0636 -0.3480
 8136W        W12336   4.889   5.018  11.172 -0.0047  0.0923 -0.2721
 8137W        W12337  10.290   6.202   1.356 -0.1012 -0.0368 -0.2015
 8138W        W12338   0.244   6.440   9.115 -0.0266 -0.0681  0.1724
 8139W        W12339   3.961   4.986  12.699  0.0869 -0.2049 -0.0718
 8140W        W12340   3.995   7.507   0.110 -0.0066 -0.0547 -0.1492
 8141W        W12341   3.881   0.931   0.231  0.1761 -0.0023  0.0609
 8142W        W12342   4.297   6.766   1.057  0.3169  0.1971  0.0526
 8143W        W12343   5.036  10.036  13.072 -0.1284 -0.0135  0.0446
 8144W        W12344   5.016   7.203   1.654  0.2598  0.2344 -0.0800
 8145W        W12345   2.070   3.010  11.351  0.1735  0.0198  0.0610
 8146W        W12346   1.207   2.447   9.351 -0.1322  0.1997 -0.2945
 8147W        W12347   3.688   7.135  12.701  0.0060 -0.2129 -0.1271
 8148W        W12348   1.347   4.566   1.853  0.4002  0.1829  0.0454
 8149W        W12349   0.511   1.339   4.895 -0.1163  0.0122  0.2336
 8150W        W12350   3.686   9.460   3.971  0.0068 -0.1230  0.3191
 8151W        W12351   5.645   9.620  10.610  0.2468  0.0865 -0.3620
 8152W        W12352   8.435   6.256   3.184 -0.0509  0.1863  0.0773
 8153W        W12353   0.981   8.165   0.726  0.0443  0.4219 -0.1301
 8154W        W12354   1.441   4.828   3.548  0.1264  0.5729  0.3629
 8155W        W12355  10.236   3.611   4.804  0.0546  0.1096  0.1850
 8156W        W12356   9.473   6.701   2.754  0.1032  0.5823 -0.3452
 8157W        W12357   3.106   5.228   1.783  0.0252  0.0902 -0.1222
 8158W        W12358   2.004   2.949   2.363 -0.1326  0.0005 -0.0251
 8159W        W12359   0.925   9.980   9.926 -0.1856 -0.2652 -0.1201
 8160W        W12360   1.404   1.589   3.142  0.1196 -0.0802  0.5706
 8161W        W12361   1.680   3.477   0.036 -0.2440  0.0702  0.0713
 8162W        W12362   4.734   1.673   3.910  0.1425 -0.2516  0.0908
 8163W        W12363   9.427   3.312   2.959 -0.0295  0.1779 -0.3090
 8164W        W12364   7.787   2.923  10.590 -0.2887 -0.0800 -0.2019
 8165W        W12365   8.699   2.573  12.451 -0.1862 -0.0314 -0.1017
 8166W        W12366   5.726   8.179  13.452 -0.1330 -0.0384  0.2616
 8167W        W12367   7.107   5.089   0.011  0.1945 -0.0174 -0.0956
 8168W        W12368   0.788   0.035  13.278  0.4133  0.1474  0.0100
 8169W        W12369   2.928   3.612  12.754  0.0887 -0.1336 -0.0959
 8170W        W12370   9.631   7.107   1.348  0.0316 -0.3508 -0.1815
 8171W        W12371   1.752   1.946   9.688  0.0854  0.0839 -0.0191
 8172W        W12372   8.332   5.835   9.689  0.0066  0.0666 -0.0151
 8173W        W12373   4.542   0.196   3.037 -0.1577  0.0280 -0.2722
 8174W        W12374   4.716   8.099   1.944  0.1961  0.2342  0.3128
 8175W        W12375   2.748   9.196  12.213  0.3969 -0.2651 -0.1190
 8176W        W12376   6.738   6.819   0.714 -0.0828 -0.2364  0.3234
 8177W        W12377   6.560   6.365   4.541 -0.1448  0.2131 -0.0351
 8178W        W12378   1.601   3.660  10.280 -0.0385 -0.1855  0.0909
 8179W        W12379   4.212   4.722   2.961  0.1182  0.1030 -0.0863
 8180W        W12380  10.320   5.372   0.843  0.0518  0.0883  0.3397
 8181W        W12381   0.634   1.191   0.705 -0.2594 -0.3825 -0.3887
 8182W        W12382   6.815   3.878   1.492  0.3257 -0.3192 -0.1332
 8183W        W12383   6.461   4.888   9.728 -0.2250  0.2198 -0.1573
 8184W        W12384   4.996   8.946   2.100 -0.1594  0.3237 -0.1161
 8185W        W12385   3.543   0.552   4.196  0.1487  0.2363  0.0378
 8186W        W12386   7.775   8.827  11.963 -0.1290 -0.1706  0.0613
 8187W        W12387   7.056   4.823   2.081 -0.1191 -0.0446 -0.0706
 8188W        W12388   6.572   1.650  10.832 -0.2012  0.2566 -0.1741
 8189W        W12389   1.086   4.344   2.312 -0.0716 -0.0067 -0.1490
 8190W        W12390   7.955   0.132   3.753 -0.0603 -0.2262 -0.0255
 8191W        W12391   9.029   7.660  11.995 -0.1458 -0.0015 -0.1817
 8192W        W12392   5.432   4.053   8.593 -0.0662 -0.1424 -0.0191
 8193W        W12393   3.542   6.131   3.019 -0.0020  0.5888  0.0182
 8194W        W12394   5.164   9.479   9.696 -0.1288 -0.1234  0.0205
 8195W        W12395  10.368   6.294   3.786 -0.0187 -0.0299 -0.0203
 8196W        W12396   0.706   6.248   2.604  0.0221 -0.0323 -0.1230
 8197W        W12397   8.031   0.540  13.417  0.1525 -0.0548  0.1948
 8198W        W12398   1.574   4.763  11.467 -0.0053 -0.1475  0.1064
 8199W        W12399   1.911   9.965   0.567  0.1226 -0.2842 -0.0248
 8200W        W12400   4.364   3.356  12.402 -0.1452  0.1744  0.0956
 8201W        W12401   6.987   7.047   2.968  0.0224  0.2117 -0.2126
 8202W        W12402   8.182   2.393  13.303 -0.2322 -0.0733  0.1294
 8203W        W12403   7.324   9.222  11.056  0.3907 -0.1831 -0.0120
 8204W        W12404   0.447   3.536   1.946 -0.0734  0.0348  0.2506
 8205W        W12405   9.802   5.425   1.976 -0.0720 -0.1707  0.3816
 8206W        W12406   9.870   4.498  10.649  0.0105 -0.0006  0.1805
 8207W        W12407   2.194   1.731   1.409 -0.0237 -0.1510  0.0780
 8208W        W12408   6.804   8.274   2.343 -0.1057 -0.2830  0.3654
 8209W        W12409   6.104   3.374  11.708 -0.0302 -0.1182  0.1427
 8210W        W12410   2.100   6.917  12.075  0.1209  0.0469 -0.0855
 8211W        W12411   9.456   6.223   3.487 -0.0009  0.0345 -0.3170
 8212W        W12412  10.368   5.297  13.402  0.0784 -0.1002 -0.2147
 8213W        W12413   1.448   1.414   1.421  0.1167  0.1033  0.2182
 8214W        W12414   6.587   4.020   0.522  0.1291  0.0585  0.4154
 8215W        W12415   9.754   9.544  10.272  0.0805 -0.0051 -0.1357
 8216W        W12416   3.490  10.165   8.847 -0.0879 -0.0748 -0.1395
 8217W        W12417  10.198   9.665   0.582 -0.2590 -0.0761  0.1333
 8218W        W12418   4.495   7.728  13.000 -0.0650 -0.1107 -0.0570
 8219W        W12419   9.942   0.094  13.025  0.2079  0.0800  0.2015
 8220W        W12420   6.012   1.481   9.636  0.0673  0.0243  0.1403
 8221W        W12421   3.236   8.967   9.562 -0.1656 -0.0816 -0.0005
 8222W        W12422   2.937   8.673   1.994  0.3342  0.0639  0.0906
 8223W        W12423  10.028   4.387   2.641 -0.1213 -0.0761  0.1053
 8224W        W12424   0.072   9.566  10.635 -0.4888  0.0503 -0.0436
 8225W        W12425   9.674   4.586   2.329 -0.0060  0.0441 -0.0511
 8226W        W12426   4.284   6.880  12.129 -0.0997 -0.0265 -0.0732
 8227W        W12427   5.060   9.160  11.288  0.1293  0.2726 -0.1814
 8228W        W12428   1.228   3.701  10.623  0.2807  0.2186 -0.1166
 8229W        W12429   5.185   6.871   3.158  0.1964  0.3069 -0.2412
 8230W        W12430   4.507   3.153  11.922 -0.2370  0.3961 -0.0596
 8231W        W12431   6.362   3.153   0.464  0.1820  0.2550 -0.2227
 8232W        W12432   9.687   6.899  11.717 -0.1075 -0.3501 -0.2412
 8233W        W12433   4.117   1.764  12.368 -0.0260 -0.1665  0.1315
 8234W        W12434   4.694   0.314   1.693  0.0178 -0.1872 -0.1402
 8235W        W12435   3.921   4.216   9.091  0.0347  0.3222  0.0845
 8236W        W12436   3.224   4.839  12.557 -0.2105  0.3192  0.1322
 8237W        W12437   3.319   1.329  11.311 -0.0763 -0.1256  0.0055
 8238W        W12438   2.716   6.516   9.116  0.3143 -0.0980 -0.0059
 8239W        W12439   2.905   4.411   0.475  0.0612  0.2536  0.0902
 8240W        W12440   1.151   1.750  13.373  0.2404  0.2541 -0.0553
 8241W        W12441   4.659   9.992  12.141 -0.0424 -0.1202  0.0043
 8242W        W12442   1.943   7.735  11.662  0.0619 -0.1613 -0.1532
 8243W        W12443   6.539   3.951  10.717 -0.0979 -0.2006 -0.2882
 8244W        W12444   5.568   8.665  11.889  0.1205 -0.0077  0.1144
 8245W        W12445   5.338   1.063  12.926  0.0559  0.0010 -0.0847
 8246W        W12446   2.061   9.213   3.558  0.1237 -0.2405  0.0813
 8247W        W12447   3.492   9.041   0.123 -0.0506  0.1335  0.3009
 8248W        W12448   6.476   5.423   2.912 -0.0027  0.1651 -0.0520
 8249W        W12449   6.936   0.255   3.023  0.0138 -0.1586 -0.1457
 8250W        W12450   3.869  10.119   5.731 -0.0793  0.1279  0.0248
 8251W        W12451   9.827   9.252  11.364 -0.2055  0.0498  0.2023
 8252W        W12452   7.065   3.149  11.602 -0.0945 -0.1293  0.2072
 8253W        W12453   8.550   3.151   0.292  0.2688 -0.1175 -0.0498
 8254W        W12454   7.822   6.726   2.414 -0.2605 -0.3349  0.0973
 8255W        W12455   7.382   4.649  12.826  0.0225  0.0678 -0.1455
 8256W        W12456   3.398   8.209  13.333  0.2035 -0.0136 -0.0232
 8257W        W12457   0.100   8.948  12.528 -0.1746 -0.0589  0.1206
 8258W        W12458   5.539   7.720  11.577 -0.0401 -0.0930  0.1313
 8259W        W12459   2.988   0.640  11.913 -0.1499 -0.2098 -0.0217
 8260W        W12460   1.420   1.301   9.721  0.3127 -0.0576 -0.0560
 8261W        W12461   1.263   7.626   1.725  0.1074 -0.2128  0.0200
 8262W        W12462   8.395   6.654   2.310 -0.1792  0.1642 -0.0140
 8263W        W12463   6.410   7.041  12.341  0.1440 -0.0374 -0.0157
 8264W        W12464   0.895   3.548  13.251 -0.0818 -0.2428  0.2094
 8265W        W12465   6.470   3.379   9.100  0.0123 -0.3021  0.1365
 8266W        W12466  10.072   3.109   4.372  0.2868 -0.1666 -0.1509
 8267W        W12467   6.847   5.052  10.251 -0.3617 -0.2029 -0.1609
 8268W        W12468   5.555   6.284   2.444  0.0782  0.0882 -0.3809
 8269W        W12469   0.939   0.163   3.087 -0.1891 -0.1761  0.2264
 8270W        W12470   6.932   7.624  11.698  0.4051  0.1519 -0.0330
 8271W        W12471   8.141   6.890  12.913 -0.1395  0.1959 -0.0529
 8272W        W12472   8.196   5.372   0.804 -0.1301 -0.3698  0.1921
 8273W        W12473  10.118   8.177   9.408  0.2782 -0.1574 -0.2997
 8274W        W12474   6.914   8.981  11.853  0.2986 -0.2622  0.1550
 8275W        W12475   8.591   5.396  11.153 -0.2035  0.0839  0.0656
 8276W        W12476   9.433   4.667   2.794 -0.1333  0.1072 -0.1361
 8277W        W12477   7.196   0.819  13.090 -0.0858 -0.1697  0.2538
 8278W        W12478   2.337   5.843   3.309 -0.1908  0.0179 -0.1971
 8279W        W12479  10.390   7.750  11.972 -0.4816  0.0350  0.1297
 8280W        W12480   8.063   2.082   3.656  0.0973  0.0396 -0.2498
 8281W        W12481   6.944   5.793  11.081 -0.0743  0.0179  0.0082
 8282W        W12482   1.444   8.055  13.278 -0.2891 -0.0168  0.0775
 8283W        W12483   2.602   2.954   4.258  0.0855  0.1681 -0.0031
 8284W        W12484   8.042   2.541   1.154 -0.0678 -0.0904  0.1906
 8285W        W12485   3.870   5.189   0.114 -0.1079  0.2305  0.0495
 8286W        W12486   8.405   1.834   9.976 -0.0544 -0.1224  0.0621
 8287W        W12487   0.997   4.559   2.995  0.3459 -0.1776 -0.0204
 8288W        W12488   2.934   5.273  10.889  0.1833  0.1115 -0.0784
 8289W        W12489   4.950   4.057   4.757 -0.2627  0.0867 -0.1493
 8290W        W12490   4.657   5.025   0.184  0.1162 -0.1287 -0.1180
 8291W        W12491   9.316   1.067  13.535  0.0438  0.0783 -0.1639
 8292W        W12492   5.945   2.509   2.077  0.1384 -0.3178 -0.1938
 8293W        W12493   9.696   9.530  11.780  0.3659  0.0026  0.2073
 8294W        W12494   7.913   8.746   3.572 -0.0303  0.0229  0.1566
 8295W        W12495   5.182   9.847   3.088  0.0336 -0.0156 -0.0550
 8296W        W12496   6.405   3.731  11.929  0.2023 -0.1466 -0.4006
 8297W        W12497   4.033   8.913  11.943 -0.0830  0.0140  0.1036
 8298W        W12498   3.708   8.984  10.966  0.1661 -0.1907  0.2058
 8299W        W12499  10.179   2.736   3.420 -0.2126 -0.0430  0.0777
 8300W        W12500   9.807   1.632  10.223  0.0884 -0.1025  0.4008
 8301W        W12501   2.379   0.447  12.965 -0.1110 -0.0701 -0.1281
 8302W        W12502   3.931   2.758   4.090  0.0813  0.3271  0.1149
 8303W        W12503   6.485   2.078  12.722  0.2594  0.2054 -0.1058
 8304W        W12504   5.809   2.006   9.735  0.0088  0.1124  0.0038
 8305W        W12505   7.201   4.287   4.638 -0.0739  0.1661  0.0508
 8306W        W12506   0.477   8.380   3.836  0.1320 -0.1146  0.1100
 8307W        W12507   9.568   3.934   4.362  0.1258  0.1622 -0.0809
 8308W        W12508   2.329   9.719  11.597  0.0055 -0.1422 -0.1623
 8309W        W12509  10.196   5.886  10.282  0.0918 -0.3629  0.1104
 8310W        W12510   4.878   7.428   4.019 -0.3087  0.0431  0.1516
 8311W        W12511   5.480   3.054  13.492  0.1966  0.2379  0.2634
 8312W        W12512   2.998   1.302   1.742  0.0535  0.3141 -0.0956
 8313W        W12513   4.413   5.319  11.903  0.1518  0.3211 -0.3831
 8314W        W12514   2.108   4.539   4.606 -0.0567 -0.4135  0.4335
 8315W        W12515   5.358   6.741  11.574 -0.2214 -0.0272 -0.0587
 8316W        W12516   4.828   3.910  12.009  0.0767  0.0267 -0.0976
 8317W        W12517   4.351   4.083   3.365 -0.0298  0.1395  0.2115
 8318W        W12518   0.613   5.100   1.659 -0.1480 -0.0866  0.0450
 8319W        W12519  10.193   7.272   3.274 -0.2868 -0.0760  0.0454
 8320W        W12520   5.703   4.078   2.958 -0.3308  0.0987 -0.0615
 8321W        W12521   9.101   8.932  12.206  0.0776 -0.0638 -0.0008
 8322W        W12522   3.390   1.716  12.669  0.1367  0.2530 -0.0187
 8323W        W12523   7.735  10.168   0.310 -0.1967 -0.0331 -0.2384
 8324W        W12524   2.822   9.971  11.369 -0.2245  0.0711 -0.0318
 8325W        W12525   9.254   9.356  12.103 -0.2233  0.0354  0.2059
 8326W        W12526   4.563   7.405  10.989  0.2601 -0.0292 -0.1790
 8327W        W12527   2.029   1.650   4.199  0.2224 -0.3607  0.2863
 8328W        W12528   9.783   0.253   2.506 -0.0889 -0.1472 -0.1822
 8329W        W12529   4.001   7.260  12.317 -0.1772  0.3209 -0.1812
 8330W        W12530   8.535   7.046   3.567 -0.0527  0.3009  0.1660
 8331W        W12531   4.683   0.606  13.488  0.0734  0.1719  0.1361
 8332W        W12532   3.704   4.579  11.199 -0.0853 -0.0847 -0.1921
 8333W        W12533   9.212   8.423   1.679 -0.1035 -0.1849 -0.0789
 8334W        W12534   6.524   6.863  10.109  0.2750  0.1120  0.0946
 8335W        W12535   0.525   1.814   9.230 -0.0673 -0.1264  0.1704
 8336W        W12536   0.979   1.068   9.990  0.0609  0.0552 -0.0981
 8337W        W12537   1.730   7.359   1.854  0.1268 -0.1706  0.1467
 8338W        W12538   7.407   5.693  10.850  0.1406 -0.2494  0.0780
 8339W        W12539   5.811   7.823  12.104  0.1042  0.0555 -0.1142
 8340W        W12540   5.262   1.099  10.560  0.1952  0.0782 -0.0306
 8341W        W12541   4.250   4.247   2.052 -0.1811  0.0854 -0.0810
 8342W        W12542   0.184   7.593   1.001 -0.0573 -0.0855 -0.0461
 8343W        W12543   7.491   0.561  10.756  0.0721 -0.0428 -0.1350
 8344W        W12544   2.917   3.964   4.557 -0.0629  0.1035 -0.1571
 8345W        W12545  10.322   6.769  10.000  0.0696 -0.1373  0.1187
 8346W        W12546   4.711   7.200   1.194 -0.0946 -0.1432  0.4578
 8347W        W12547   3.154  10.364  11.553 -0.4497 -0.1878  0.1833
 8348W        W12548   6.407   0.096   0.599 -0.0743 -0.3155  0.1003
 8349W        W12549   1.800   6.532  11.894  0.2497 -0.2073 -0.0405
 8350W        W12550   6.463  10.127  11.846 -0.1232 -0.0020 -0.5804
 8351W        W12551   1.454   5.177  13.426 -0.0074  0.3430 -0.3879
 8352W        W12552   3.335  10.162   9.543  0.1164 -0.0078  0.1363
 8353W        W12553   5.728   8.194   2.206 -0.1426 -0.2628 -0.2147
 8354W        W12554   5.861   6.274  10.405 -0.2117  0.1430  0.0876
 8355W        W12555   6.494   9.555  10.680 -0.6001 -0.0790 -0.1256
 8356W        W12556   9.125   3.204   2.588 -0.0056 -0.4081 -0.3028
 8357W        W12557   1.443   5.659   2.529 -0.0194  0.2899  0.5373
 8358W        W12558   8.013   0.365   0.740 -0.2207 -0.0110  0.2298
 8359W        W12559   6.871   7.865   0.426 -0.0136 -0.0944  0.1471
 8360W        W12560   6.327   2.777   2.250  0.0933  0.2097 -0.2953
 8361W        W12561   1.773   8.079   9.967 -0.1376  0.0732 -0.0674
 8362W        W12562   6.531   4.953  10.658 -0.1068  0.0452  0.1590
 8363W        W12563   1.895   6.914   2.626  0.0370 -0.2266  0.0985
 8364W        W12564   7.949   9.416   1.266 -0.1296 -0.2360  0.1566
 8365W        W12565   0.395   8.682  13.178 -0.1684  0.0751  0.1435
 8366W        W12566   8.557   4.397  10.046  0.1278  0.2491 -0.2243
 8367W        W12567  10.360   3.084   1.751  0.0049  0.1284 -0.1433
 8368W        W12568   1.884   7.589   3.769 -0.2109 -0.0461  0.0048
 8369W        W12569   2.286   6.263   1.839 -0.3689 -0.4100 -0.2467
 8370W        W12570   7.435   5.237   4.304 -0.3468  0.3024 -0.1684
 8371W        W12571   0.731   8.810  11.175  0.2843  0.2879 -0.1099
 8372W        W12572   1.576   6.902  10.574 -0.3683 -0.0504  0.1101
 8373W        W12573   3.490   0.150   1.343  0.0955 -0.0878 -0.2015
 8374W        W12574   0.048   4.384   2.036 -0.1446 -0.0467  0.0115
 8375W        W12575   9.922   4.734  12.537 -0.1690 -0.4168 -0.1703
 8376W        W12576   3.755   0.069   4.934 -0.1522  0.0662  0.0180
 8377W        W12577   6.757   6.244   9.318 -0.2514  0.1581  0.0000
 8378W        W12578   9.469   6.696   1.037 -0.1899  0.0589 -0.0727
 8379W        W12579   0.718   3.012   3.596  0.1783 -0.1783 -0.1297
 8380W        W12580   9.817   8.508  11.965  0.1332 -0.1880 -0.0447
 8381W        W12581   7.766   6.905   0.162  0.2884  0.2989 -0.2616
 8382W        W12582   0.462   9.061   2.397  0.0288 -0.3536  0.0592
 8383W        W12583   2.102   3.822   1.790 -0.3117 -0.0516  0.1351
 8384W        W12584   8.810   2.299  11.406  0.2528  0.0281 -0.1821
 8385W        W12585   5.032   8.461  12.782 -0.2493  0.0326 -0.4740
 8386W        W12586   2.399   1.962   9.049 -0.0410 -0.1890  0.1939
 8387W        W12587   1.817   7.111  12.795  0.0888 -0.2891 -0.0165
 8388W        W12588   1.254   7.186   9.536 -0.1659 -0.0428  0.0974
 8389W        W12589   3.323   3.787   9.007 -0.1299  0.0561  0.2602
 8390W        W12590   9.623   7.607   9.700 -0.0680 -0.0526 -0.0655
 8391W        W12591   8.220   8.888   2.124 -0.0254  0.1371 -0.0359
 8392W        W12592   2.899   1.008   3.161  0.0023  0.1375  0.0875
 8393W        W12593   0.730   6.668  13.406 -0.1753  0.1397  0.0804
 8394W        W12594   0.199   0.855   1.887 -0.2120 -0.1030 -0.1250
 8395W        W12595   9.317   4.402  13.204  0.3288 -0.1636  0.4393
 8396W        W12596   1.118   7.192  11.664  0.2880  0.0165  0.1640
 8397W        W12597   5.104   3.036   2.334  0.3601 -0.1031 -0.1611
 8398W        W12598   3.167   5.858   2.900 -0.1184  0.3013 -0.0764
 8399W        W12599   9.319   0.708  13.175 -0.0282 -0.0448  0.0137
 8400W        W12600   7.639   3.918   1.258  0.1744  0.1728  0.0313
 8401W        W12601   2.973   0.419   3.537 -0.0488  0.4169 -0.0585
 8402W        W12602   0.613  10.224   1.658 -0.2214 -0.1256 -0.0579
 8403W        W12603   1.479   4.204   1.535  0.1134  0.1075  0.1467
 8404W        W12604   5.436   3.726  10.172  0.0263  0.0324 -0.2175
 8405W        W12605   0.666   2.273  10.813  0.1247  0.1282  0.0350
 8406W        W12606   8.179   1.893  11.930 -0.0203  0.0670  0.0286
 8407W        W12607   6.384   9.069  10.575 -0.3331  0.3934 -0.2139
 8408W        W12608   2.401   4.187  10.137  0.1051  0.0595 -0.0764
 8409W        W12609   5.268   8.606  11.033 -0.2646 -0.0923 -0.1727
 8410W        W12610   4.317   0.655   1.669  0.2702  0.0902 -0.1032
 8411W        W12611   0.116   1.575   0.395  0.2215  0.2469  0.0815
 8412W        W12612   4.831   6.519   8.340  0.0843  0.2207  0.1107
 8413W        W12613   6.358   7.894   0.547  0.1452  0.5240  0.0415
 8414W        W12614   6.575   3.970   9.320 -0.3140  0.1124 -0.0652
 8415W        W12615   0.531   1.969   9.803 -0.0391  0.0668  0.2109
 8416W        W12616   5.264   0.954  13.526  0.0521  0.0141  0.1301
 8417W        W12617   8.801   3.178   9.758 -0.1044 -0.2411  0.0617
 8418W        W12618   7.945   0.938   0.144 -0.0563 -0.0235  0.2042
 8419W        W12619   3.223   6.959   2.021  0.2396  0.3152 -0.1152
 8420W        W12620   4.036   5.614   2.331  0.0021 -0.0745  0.1023
 8421W        W12621   5.007   3.045   1.274  0.0920  0.1168  0.1817
 8422W        W12622   7.765   5.681  11.912 -0.2535 -0.1467 -0.2147
 8423W        W12623   4.134   5.882   4.961  0.1089 -0.0942 -0.1612
 8424W        W12624   9.711   4.873  13.117 -0.1704 -0.0201 -0.0284
 8425W        W12625   1.404   4.993  10.168 -0.0733  0.0333  0.0173
 8426W        W12626   0.636   5.650   0.298 -0.0603  0.1815  0.3364
 8427W        W12627   5.602   2.929   4.000 -0.0772  0.2759 -0.0754
 8428W        W12628   4.514   0.682   3.119 -0.1175 -0.2496  0.2886
 8429W        W12629   7.838   5.033   1.635 -0.0469 -0.0330  0.0824
 8430W        W12630   0.174   1.450  10.547  0.1372  0.0717 -0.2551
 8431W        W12631   3.542   7.169   3.972 -0.3820  0.0528 -0.0699
 8432W        W12632   4.621   1.436   3.498  0.2057  0.2151 -0.0686
 8433W        W12633   5.248   9.784  12.647  0.0188  0.0291  0.1010
 8434W        W12634   9.589   6.727   9.286 -0.3378 -0.2338  0.0400
 8435W        W12635   2.603   7.868  10.670 -0.0683 -0.0338 -0.1252
 8436W        W12636   6.656   2.039  12.229  0.1655 -0.0754 -0.1339
 8437W        W12637   3.671  10.311  10.711 -0.1488 -0.4402  0.0837
 8438W        W12638   3.969   5.127   2.791  0.1995  0.0006  0.1364
 8439W        W12639   0.398   2.232   5.176 -0.0855  0.0124 -0.2434
 8440W        W12640   8.318   6.736  10.059 -0.3410  0.0203  0.0302
 8441W        W12641   6.864   2.009   2.829  0.1601  0.0074 -0.0689
 8442W        W12642   1.801   5.061   3.113 -0.5140 -0.2428 -0.2200
 8443W        W12643   0.739   6.056  11.307 -0.0426  0.2752  0.0927
 8444W        W12644  10.024   7.111   9.723 -0.2158 -0.0269  0.0238
 8445W        W12645   5.558   5.859  13.504  0.1519 -0.4546  0.2498
 8446W        W12646   8.928   8.357  10.818 -0.0149  0.0527 -0.2276
 8447W        W12647   6.201   1.474  13.184 -0.0188  0.1957 -0.0117
 8448W        W12648   8.107   8.361   0.612 -0.2379 -0.3264  0.2130
 8449W        W12649   0.544   9.567   3.343 -0.2884 -0.1445 -0.1673
 8450W        W12650   0.363  10.216   9.488 -0.3282  0.0198  0.0528
 8451W        W12651   4.633   1.689   1.070  0.1893 -0.3472  0.2671
 8452W        W12652   8.112   0.075  12.010  0.0267 -0.1826  0.1605
 8453W        W12653   2.354   6.854  11.341  0.2427  0.2006 -0.0363
 8454W        W12654   5.162   2.787   1.738 -0.2205 -0.0466  0.0273
 8455W        W12655   5.736   7.447   9.611  0.0778  0.1662 -0.1356
 8456W        W12656   3.739   0.279  13.176  0.1835  0.0889 -0.1823
 8457W        W12657   4.917   3.980   2.619 -0.0089 -0.2409  0.1452
 8458W        W12658   0.531   4.765   9.982 -0.2051  0.1643  0.1048
 8459W        W12659   5.414  10.313   0.382 -0.0667 -0.1233 -0.0007
 8460W        W12660   3.855   5.001   1.503  0.0103  0.1593 -0.0229
 8461W        W12661   5.923   2.493   4.132 -0.2407 -0.1508  0.0836
 8462W        W12662   6.205   8.283  11.353 -0.0854  0.0799 -0.1823
 8463W        W12663   3.424   4.934   0.025 -0.0449  0.1815 -0.1264
 8464W        W12664   3.079   6.783   1.589 -0.0276 -0.0112  0.3793
 8465W        W12665   4.228   3.676   1.172  0.3372 -0.0267 -0.1411
 8466W        W12666   0.385   0.505   4.685  0.1273 -0.1619 -0.3230
 8467W        W12667   5.172   5.754  11.356  0.2600  0.1206 -0.0859
 8468W        W12668   8.877   7.508   3.217 -0.4237  0.2735 -0.0521
 8469W        W12669   3.190   7.998   0.220  0.0554 -0.2254 -0.1900
 8470W        W12670  10.344   6.332   4.336 -0.2576 -0.1258  0.1012
 8471W        W12671  10.344   2.838  13.446 -0.2620 -0.2391  0.0783
 8472W        W12672   7.047   0.531  11.995  0.1559 -0.1650 -0.0063
 8473W        W12673   9.677   1.244   0.337 -0.1409  0.1332 -0.0788
 8474W        W12674   1.717   6.832  12.369  0.1595  0.0970  0.0613
 8475W        W12675   9.837   3.463   9.002 -0.0226  0.1645 -0.1819
 8476W        W12676   8.842   4.519   9.661  0.2359 -0.2215  0.0927
 8477W        W12677   7.508   0.868  10.369  0.1503  0.1802  0.2629
 8478W        W12678   3.549   2.125   2.238  0.0376  0.0587  0.1641
 8479W        W12679   2.444   1.673   2.905  0.1509 -0.1056  0.3648
 8480W        W12680   9.739   5.528   1.489  0.2796  0.0293 -0.1391
 8481W        W12681   2.572   6.039  11.566  0.0112 -0.2935 -0.0569
 8482W        W12682   6.848   6.026   4.321  0.1429  0.0336  0.0397
 8483W        W12683   7.276   3.087   2.410  0.1948  0.2593  0.2905
 8484W        W12684   1.025   8.548   3.039  0.0956  0.2937  0.0396
 8485W        W12685   9.479  10.249   0.944  0.2957  0.0724 -0.2378
 8486W        W12686   7.515   1.960   1.550 -0.0741  0.0687 -0.1332
 8487W        W12687   2.883   7.595   3.506  0.2106  0.0200 -0.0106
 8488W        W12688   1.043   3.776   2.024  0.1189 -0.0927 -0.1590
 8489W        W12689   7.711   3.314   0.759  0.0766 -0.0617  0.4065
 8490W        W12690   7.118   3.254   3.891 -0.1078  0.0696 -0.2894
 8491W        W12691   1.895   2.596   1.269 -0.0466 -0.0036 -0.1560
 8492W        W12692   3.073   1.385  12.362 -0.1074 -0.0412 -0.2697
 8493W        W12693   6.506   3.238   2.147  0.3823  0.1855 -0.0038
 8494W        W12694   1.359   3.780  11.077 -0.0445  0.2984  0.3044
 8495W        W12695   2.675   6.147   4.042 -0.0630 -0.0477 -0.2595
 8496W        W12696   3.875   9.777   0.179 -0.2959  0.0008  0.0906
 8497W        W12697   0.877   0.569   2.811  0.1513  0.1724  0.0880
 8498W        W12698   3.544   1.553  13.133 -0.0934  0.1319  0.0991
 8499W        W12699   0.414   9.086   4.891 -0.1221 -0.1619 -0.2580
 8500W        W12700   9.206   0.148   3.347  0.0810  0.0427 -0.0104
 8501W        W12701   9.885   6.663   4.500 -0.0308 -0.0478  0.1527
 8502W        W12702   6.719   1.454  12.987  0.3116 -0.4137  0.4193
 8503W        W12703   4.806   2.845  10.766  0.4135 -0.0932 -0.1210
 8504W        W12704   1.787   7.002   9.174  0.1359  0.2003 -0.0937
 8505W        W12705   8.149   6.752  13.423 -0.0901  0.0556 -0.2016
 8506W        W12706   4.311   8.867   1.815 -0.1749 -0.0270 -0.0081
 8507W        W12707   7.880   6.651  12.584 -0.1969  0.0608  0.2648
 8508W        W12708  10.377   2.466   8.496 -0.1371  0.1249  0.3447
 8509W        W12709   0.837   0.943   0.106 -0.0995 -0.0294 -0.0300
 8510W        W12710   4.397   3.515   9.755 -0.1666 -0.0698 -0.1185
 8511W        W12711   5.878   1.074  12.918 -0.0217 -0.3954 -0.1240
 8512W        W12712   5.692   4.956   0.152  0.3401  0.2012  0.2505
 8513W        W12713   4.753   6.534   9.492  0.0407 -0.3167 -0.0387
 8514W        W12714   4.450   7.807   0.025 -0.3753 -0.1303  0.1301
 8515W        W12715   3.319   7.524  11.870 -0.4531  0.4340 -0.1350
 8516W        W12716   9.560   5.214   3.828  0.0558 -0.2668  0.1516
 8517W        W12717   3.249  10.326   3.533 -0.3235  0.0001  0.0958
 8518W        W12718   8.103   2.938   4.254  0.0610  0.0803 -0.0795
 8519W        W12719   1.870   7.370   1.119 -0.2114  0.0080  0.0172
 8520W        W12720   8.975   5.524   9.007 -0.1519 -0.2286  0.2493
 8521W        W12721   1.126   0.762  12.683 -0.1522  0.1226 -0.3021
 8522W        W12722   8.981   1.571   9.572 -0.2075 -0.0655  0.1722
 8523W        W12723   2.947   5.349   0.535  0.2551  0.1186 -0.0413
 8524W        W12724   7.208   2.646  11.500  0.0476 -0.1361  0.0716
 8525W        W12725   5.414   7.661  13.273 -0.0753 -0.2204 -0.1408
 8526W        W12726   3.558   9.910   3.533  0.0106  0.0135 -0.0765
 8527W        W12727   5.107   1.494   9.560  0.2889  0.0302  0.0873
 8528W        W12728   4.693   8.616  11.538  0.3448 -0.0593 -0.0791
 8529W        W12729   7.000   8.247  11.227  0.0596  0.0903  0.3332
 8530W        W12730   7.568   6.522   4.681  0.0042  0.0078  0.0019
 8531W        W12731   7.579   3.277   1.801  0.1316 -0.1368 -0.2121
 8532W        W12732   0.343   8.908   0.973  0.2278 -0.1486  0.0899
 8533W        W12733   5.261   8.706  11.496 -0.1298 -0.0158  0.0373
 8534W        W12734   7.322   1.725  12.490 -0.0361  0.1647 -0.0235
 8535ION    NA+12735   6.315   7.024   0.515  0.0501 -0.0105 -0.2215
 8536ION    NA+12736   3.065   2.098   2.155  0.0633 -0.2530 -0.3282
 8537ION    NA+12737  10.427   8.812   9.886  0.0132  0.1031 -0.3771
 8538ION    NA+12738  10.194   6.570   0.028  0.0753 -0.2054 -0.2412
 8539ION    NA+12739   1.122   0.832   9.107 -0.2625  0.0901  0.3388
 8540ION    NA+12740   6.660   6.257   0.607 -0.1581 -0.2665  0.0934
 8541ION    NA+12741   5.495   2.320   5.613 -0.0035  0.0613  0.0239
 8542ION    NA+12742   2.820   5.908  11.971  0.1806  0.0759  0.3655
 8543ION    NA+12743   4.961   5.216  12.204  0.1478  0.3013  0.0676
 8544ION    NA+12744   6.352   7.341  13.157  0.0393 -0.2239  0.1217
 8545ION    NA+12745   2.363  10.142  11.253 -0.0082  0.0385 -0.1924
 8546ION    NA+12746   4.142   8.142  10.840  0.2094  0.2203 -0.2367
 8547ION    NA+12747   1.763   7.481   4.636 -0.0544  0.0789  0.1095
 8548ION    NA+12748   2.103   4.120   3.395 -0.1255  0.2967  0.1092
 8549ION    NA+12749   6.260   6.378  13.213 -0.1446 -0.2487 -0.1255
 8550ION    NA+12750   9.135   4.529   1.361 -0.0781 -0.0168 -0.2783
 8551ION    NA+12751   5.875   5.536   0.275  0.2697  0.2479  0.1624
 8552ION    NA+12752   0.908   9.555   9.102  0.2422 -0.0906  0.3158
 8553ION    NA+12753   4.734   5.288   3.604 -0.0671 -0.1552  0.0876
 8554ION    NA+12754   0.841   6.834   2.733  0.1418 -0.1518 -0.2567
 8555ION    NA+12755   3.796   3.086   4.461 -0.3701  0.0536 -0.0917
 8556ION    NA+12756   5.549   2.012   2.789 -0.1640  0.1055  0.1782
 8557ION    NA+12757   2.125   2.537   1.957  0.0515  0.2023 -0.0195
 8558ION    NA+12758   5.347   6.140  11.709  0.2123  0.1569  0.5221
 8559ION    NA+12759   2.523   3.344   1.460 -0.0046  0.2863  0.1546
 8560ION    NA+12760   0.129   1.285  13.329 -0.1474  0.0256 -0.0146
 8561ION    NA+12761   4.420   8.898   4.510 -0.1024  0.2421  0.0003
 8562ION    NA+12762   3.991   1.249  12.216 -0.1182  0.2839  0.0922
 8563ION    NA+12763   2.281   7.303   8.830 -0.0800 -0.0712  0.1388
 8564ION    NA+12764   5.400  10.311  12.698 -0.1322 -0.1277  0.1359
 8565ION    NA+12765   4.157   0.094   9.064  0.1961 -0.1303 -0.1817
 8566ION    NA+12766   9.948   6.905   1.779  0.2157 -0.3334  0.0575
 8567ION    NA+12767   1.584   9.001   0.897  0.4244 -0.1982  0.1784
 8568ION    NA+12768   3.483   7.392   1.781  0.0180  0.0547  0.1586
 8569ION    NA+12769   5.373   1.238   2.430 -0.0349 -0.2989  0.1305
 8570ION    NA+12770   6.340   1.029   2.580 -0.0266  0.0616  0.1621
 8571ION    NA+12771   8.720   9.484   3.425  0.1152 -0.1579  0.2127
 8572ION    NA+12772   2.181   2.546   4.702 -0.2061  0.1327  0.2128
 8573ION    NA+12773   4.057   0.706   3.649  0.0532 -0.0282 -0.1330
 8574ION    NA+12774   9.885   1.604   1.982  0.2847 -0.0242  0.1258
 8575ION    NA+12775   9.535   6.412   3.971  0.1677  0.1238  0.2253
 8576ION    NA+12776   0.533   6.754   5.004 -0.0136  0.0334  0.0606
 8577ION    NA+12777   8.434   2.373   3.281  0.1832 -0.1746 -0.0854
 8578ION    NA+12778   4.317   6.521  13.017  0.2879 -0.0880  0.0844
 8579ION    NA+12779   7.500   0.708   1.247  0.0601  0.1552 -0.0752
 8580ION    NA+12780   8.346   5.409  12.091 -0.1214  0.1930  0.0414
 8581ION    NA+12781   8.305   2.226  10.984  0.2816 -0.1328 -0.1088
 8582ION    NA+12782   2.262   7.168   1.675 -0.1289  0.3634 -0.1171
 8583ION    NA+12783   5.789   5.357   8.618 -0.2811  0.0387  0.1038
 8584ION    NA+12784   1.113   2.812   9.706 -0.2183 -0.4117 -0.0233
 8585ION    NA+12785   8.317   0.194   1.863  0.0121  0.1778  0.2599
 8586ION    NA+12786   5.514   8.385   3.085  0.0393 -0.0442  0.0659
 8587ION    NA+12787   6.045   4.040  10.570 -0.0300  0.1277  0.0873
 8588ION    NA+12788   0.378   6.653   2.372  0.1260  0.0958  0.1299
 8589ION    NA+12789   1.987   4.035   9.589  0.2679  0.0828 -0.2671
 8590ION    NA+12790   8.482   5.007   0.974  0.2787 -0.1916  0.1344
 8591ION    NA+12791   7.039   6.428   4.609 -0.2515 -0.1188  0.0562
 8592ION    NA+12792   1.379   3.342  12.053  0.0845  0.2342 -0.2201
 8593ION    NA+12793   9.627   6.971  10.469  0.0793  0.2414 -0.2122
 8594ION    NA+12794   9.988   3.757  12.325 -0.2081  0.0392  0.4126
 8595ION    NA+12795   7.286   7.386   2.410  0.0287  0.0641  0.2750
 8596ION    NA+12796   9.899  10.258  11.075 -0.3110 -0.0759  0.0973
 8597ION    NA+12797   2.112   8.361   5.354 -0.1293  0.0513 -0.0456
 8598ION    NA+12798   9.831   9.757   0.250 -0.1659  0.0813  0.2464
 8599ION    NA+12799   2.832   6.715   0.910  0.2258 -0.0651  0.3470
 8600ION    NA+12800  10.371   0.523   2.113 -0.1035  0.0565 -0.1294
 8601ION    NA+12801   8.189   5.511   8.766  0.1278  0.0751 -0.1781
 8602ION    NA+12802   4.905   7.638   8.699  0.0473  0.0946 -0.3516
 8603ION    NA+12803   9.651   4.947   4.769  0.3863  0.0505  0.2625
 8604ION    NA+12804   9.124   1.966   1.731 -0.3539 -0.1767 -0.0620
 8605ION    NA+12805   8.452   3.159  11.546 -0.0613  0.1165 -0.0641
 8606ION    NA+12806   5.578   7.203  13.421  0.0133  0.4206  0.1147
 8607ION    NA+12807   8.547   9.721   1.916  0.0732  0.1621  0.1029
 8608ION    NA+12808   9.618   6.150   8.669  0.1961  0.0453  0.1484
 8609ION    NA+12809   0.419  10.117   4.913  0.1512  0.3405 -0.1042
 8610ION    NA+12810   2.735   0.759   9.314 -0.0391  0.1105  0.2206
 8611ION    NA+12811   6.865   3.208  13.259 -0.3533  0.0636  0.1787
 8612ION    NA+12812   2.507   1.514  10.492 -0.0637 -0.1739 -0.0591
 8613ION    NA+12813   5.882  10.130   4.044 -0.2061  0.1788  0.2740
 8614ION    NA+12814   6.066   8.259  10.815 -0.0201 -0.0346  0.2376
 8615ION    NA+12815   4.482   4.285   2.517  0.1539 -0.1033 -0.0793
 8616ION    NA+12816   6.370   3.927   8.806  0.0006  0.0510  0.0662
 8617ION    NA+12817   5.192   3.732   2.012  0.1907  0.2142 -0.2378
 8618ION    NA+12818   1.503   4.307   2.534  0.2575  0.3012 -0.1135
 8619ION    NA+12819   0.116   9.769   3.606 -0.1440  0.0991 -0.1792
 8620ION    NA+12820   0.498   3.062   0.601 -0.0442  0.0839 -0.2066
 8621ION    NA+12821   3.241   9.444   5.290  0.3256 -0.1696  0.2512
 8622ION    NA+12822   9.705   7.858   3.219  0.2061  0.1466  0.0008
 8623ION    NA+12823   5.801   4.308   3.577  0.1762  0.3480  0.0323
 8624ION    NA+12824   4.969   1.925   1.427 -0.2513 -0.1227 -0.0999
 8625ION    CL-12825   0.559   9.751   9.708 -0.1930  0.2786  0.0980
 8626ION    CL-12826   8.111   3.583   3.617  0.0557  0.1673 -0.2571
 8627ION    CL-12827   1.240   6.395   9.924 -0.1949 -0.0429 -0.0053
 8628ION    CL-12828   1.049   3.126  12.304  0.2159 -0.0659 -0.0052
 8629ION    CL-12829   0.736   6.994   2.155 -0.2454  0.2523 -0.0620
 8630ION    CL-12830   6.665   9.387  10.229  0.0197 -0.1466 -0.1096
 8631ION    CL-12831   0.212   1.821  13.172 -0.0402 -0.1198  0.0490
 8632ION    CL-12832   1.617   7.278   4.117  0.3985 -0.3077  0.1434
 8633ION    CL-12833   4.287   2.721  11.076  0.0074  0.1614  0.0448
 8634ION    CL-12834  10.401   3.269   9.699 -0.1606  0.1349 -0.1613
 8635ION    CL-12835   7.137   6.080   0.546  0.2539  0.3454  0.0845
 8636ION    CL-12836   3.114   6.178  12.240  0.1316 -0.2144  0.2525
 8637ION    CL-12837   9.452   3.500   9.427  0.0483  0.1772  0.1312
 8638ION    CL-12838  10.122   7.073  10.462  0.0067 -0.0762  0.1946
 8639ION    CL-12839   6.558   5.969  13.100 -0.1283 -0.0694 -0.1386
 8640ION    CL-12840  10.098  10.154  11.582  0.0667 -0.1183 -0.0962
 8641ION    CL-12841   7.026   4.890  12.013 -0.1107  0.1282  0.1471
 8642ION    CL-12842   1.762   7.718   1.548  0.1452 -0.2148  0.1792
 8643ION    CL-12843   1.724   2.402   4.573 -0.2027  0.2339  0.2364
 8644ION    CL-12844  10.029   7.083   2.228 -0.1208 -0.3025  0.1939
 8645ION    CL-12845  10.192   3.618  11.899 -0.1218 -0.0186  0.4392
 8646ION    CL-12846   2.150  10.288   9.598 -0.2009  0.0124 -0.0592
 8647ION    CL-12847   1.454   4.087   2.035 -0.1136 -0.3490 -0.2381
 8648ION    CL-12848   8.973   6.674   3.671  0.0017 -0.1202 -0.1356
 8649ION    CL-12849   3.642   8.520  11.985 -0.1131 -0.0028 -0.0360
 8650ION    CL-12850   2.430   9.709  11.043  0.0345  0.2765  0.0971
 8651ION    CL-12851   6.350   3.771   9.797  0.0515 -0.1790 -0.0064
 8652ION    CL-12852   3.119   9.389   9.841  0.1137 -0.1756 -0.1043
 8653ION    CL-12853   6.280   6.573   0.705 -0.0997 -0.2949  0.0738
 8654ION    CL-12854   4.690   3.948   2.169  0.1638 -0.1576 -0.0744
 8655ION    CL-12855   6.675   6.382   4.007 -0.2477 -0.2204  0.0631
 8656ION    CL-12856   5.996   4.433   3.962  0.0293 -0.1040  0.1019
 8657ION    CL-12857   6.404   8.000  10.510 -0.5743  0.0215 -0.3124
 8658ION    CL-12858   7.433   0.473   1.668 -0.2680 -0.2237 -0.4492
 8659ION    CL-12859   5.876   3.584  11.279 -0.0597  0.0220  0.3606
 8660ION    CL-12860   6.449   3.215  13.517  0.2492 -0.1200 -0.0636
 8661ION    CL-12861   0.848   9.348   9.529 -0.3376  0.1133 -0.2165
 8662ION    CL-12862   1.725   4.486   9.441  0.1852  0.2474  0.0003
 8663ION    CL-12863   3.600   1.536  12.219  0.2487  0.3032 -0.1176
 8664ION    CL-12864   2.247   6.676   1.597  0.0920  0.0059 -0.1167
 8665ION    CL-12865   5.206   5.649  11.817  0.0848 -0.0281 -0.0222
 8666ION    CL-12866   3.030   6.289   0.767  0.3370  0.1551  0.2073
 8667ION    CL-12867   0.758   2.836  10.162 -0.1016 -0.4058 -0.1254
 8668ION    CL-12868   5.407   2.085   4.143 -0.0957  0.2100  0.1063
 8669ION    CL-12869   0.161   5.718  12.016 -0.1507 -0.3875 -0.1408
 8670ION    CL-12870   8.742   8.013   3.388  0.2697  0.1360 -0.0328
 8671ION    CL-12871   4.185   5.663   9.483  0.2665 -0.1684 -0.1049
 8672ION    CL-12872   3.385   3.087   4.149  0.2905  0.2079  0.1364
 8673ION    CL-12873   5.159   8.274   1.776  0.2228  0.3800 -0.2952
 8674ION    CL-12874   5.131   5.070   3.807 -0.1193 -0.1512 -0.0312
 8675ION    CL-12875   4.526   9.815   4.146 -0.2743  0.0098  0.1562
 8676ION    CL-12876   1.461   4.144  11.790 -0.2807  0.1468 -0.1712
 8677ION    CL-12877   8.932   5.026   1.117  0.0573  0.2343 -0.2263
 8678ION    CL-12878   5.845   5.354  13.380 -0.3974 -0.2320  0.0925
 8679ION    CL-12879   2.368   5.975  13.284 -0.0506 -0.2358 -0.1867
 8680ION    CL-12880   7.631   8.103   2.726 -0.3577  0.0794 -0.0979
 8681ION    CL-12881   4.553   0.378   3.618  0.0221 -0.2053 -0.0419
 8682ION    CL-12882   9.557   2.231   1.926 -0.1993  0.0565  0.0298
 8683ION    CL-12883   0.445   8.664   9.877  0.1887  0.0438  0.0739
 8684ION    CL-12884   3.555   7.500   9.397  0.0354 -0.1744 -0.2394
 8685ION    CL-12885   9.887   6.159   4.284 -0.1746  0.1092  0.1847
 8686ION    CL-12886   8.018   3.331  11.432  0.3025  0.1444 -0.0404
 8687ION    CL-12887   8.480   6.216  10.293  0.1550 -0.0876 -0.2657
 8688ION    CL-12888   2.475   2.057  10.385  0.4298 -0.1052 -0.1219
 8689ION    CL-12889   5.851   1.563   2.919  0.1741 -0.0060 -0.1743
 8690ION    CL-12890   2.227   2.180   4.349 -0.1798  0.1673 -0.0224
 8691ION    CL-12891  10.427  10.273   0.400  0.3038  0.2056  0.0166
 8692ION    CL-12892   6.062   6.981  13.369 -0.0128  0.2556  0.2262
 8693ION    CL-12893   8.528  10.219   0.038 -0.1536 -0.1519  0.0451
 8694ION    CL-12894   3.013   5.919  10.091  0.0106  0.1294  0.2396
 8695ION    CL-12895   9.624   1.174  10.300  0.3576  0.2655  0.1461
 8696ION    CL-12896  10.115   1.109   1.937 -0.2444  0.0333 -0.0100
 8697ION    CL-12897   7.826   5.146   3.999 -0.0064  0.1508 -0.1055
 8698ION    CL-12898   8.505   2.697  11.070 -0.0901  0.1218  0.1240
 8699ION    CL-12899   2.897   7.688   4.710  0.2058 -0.0220 -0.0206
 8700ION    CL-12900   2.496   2.212   1.444  0.2341  0.1444  0.0823
 8701ION    CL-12901  10.011   8.090   3.557 -0.0567  0.1252 -0.1061
 8702ION    CL-12902   9.634   7.307  10.104 -0.0480 -0.3192 -0.0472
 8703ION    CL-12903   9.850   2.164   4.473  0.3914 -0.0165  0.2041
 8704ION    CL-12904   4.648   5.607   3.036  0.1872  0.0431  0.0584
 8705ION    CL-12905  10.078   8.936  11.628  0.2633  0.4056  0.5090
 8706ION    CL-12906   0.083   9.571   3.166  0.2768  0.2540 -0.4216
 8707ION    CL-12907   4.125   3.827   5.205 -0.0559  0.1509  0.2015
 8708ION    CL-12908   1.853   4.171   2.887  0.1487  0.0315  0.0910
 8709ION    CL-12909   4.181   5.017   9.021  0.1802  0.0541 -0.1652
 8710ION    CL-12910   3.327   7.163   1.373 -0.2760  0.0385 -0.1355
 8711ION    CL-12911   6.956   1.450   3.713 -0.0821 -0.2756 -0.1879
 8712ION    CL-12912   4.874   6.988   9.619  0.2608 -0.3010  0.1509
 8713ION    CL-12913  10.362   6.344  13.049  0.0013  0.0053 -0.0351
 8714ION    CL-12914   0.130   2.898   4.341 -0.1897 -0.0441 -0.1276
  10.45109  10.45109  13.53604
