Protein in INSANE! Membrane UpperLeaflet>POPC=1.0 LowerLeaflet>POPC=1.0
10365
    1AU     AUC    1   5.752   7.904   6.308 -0.0179 -0.0525  0.0311
    1AU     AUC    2   5.975   7.991   6.463  0.0130 -0.0011 -0.0194
    1AU     AUC    3   5.779   7.760   6.586 -0.0439  0.0770  0.1513
    1AU     AUC    4   5.693   8.052   6.031 -0.1026  0.0804 -0.0871
    1AU     AUC    5   5.485   7.822   6.160 -0.0826 -0.0169  0.0206
    1AU     AUC    6   5.492   8.118   6.257  0.0086  0.0105 -0.0042
    1AU     AUC    7   5.677   8.078   6.578  0.0748 -0.0350  0.0496
    1AU     AUC    8   5.788   7.743   6.068 -0.0888  0.0308 -0.0175
    1AU     AUC    9   5.975   7.706   6.338  0.0931  0.0190 -0.0295
    1AU     AUC   10   5.627   7.589   6.345  0.0168 -0.0215  0.0616
    1AU     AUC   11   5.456   7.844   6.456  0.0897  0.0382 -0.0032
    1AU     AUC   12   5.994   7.965   6.128 -0.0103 -0.0096  0.0797
    1AU     AUC   13   5.830   8.217   6.281 -0.0378 -0.1450 -0.0093
    1AU     AUC   14   6.237   8.103   6.653  0.0153  0.0004 -0.0539
    1AU     AUC   15   6.083   7.820   6.800  0.0068 -0.0081 -0.0562
    1AU     AUC   16   5.842   7.591   6.864 -0.1518 -0.0640 -0.0625
    1AU     AUC   17   5.679   8.158   5.703 -0.0109  0.0187  0.0093
    1AU     AUC   18   5.387   7.923   5.831 -0.1151 -0.1075 -0.0088
    1AU     AUC   19   5.175   7.719   5.976  0.0076 -0.0227  0.0253
    1AU     AUC   20   5.231   8.360   6.199  0.0154 -0.0414 -0.0435
    1AU     AUC   21   5.387   8.343   6.528 -0.1497 -0.1037  0.0099
    1AU     AUC   22   5.607   8.275   6.811  0.0491  0.0248 -0.0466
    1AU     AUC   23   5.840   7.533   5.821 -0.0892  0.0336  0.0176
    1AU     AUC   24   6.071   7.469   6.058 -0.0396 -0.0067  0.0610
    1AU     AUC   25   6.252   7.476   6.339 -0.0446  0.0662  0.0435
    1AU     AUC   26   5.537   7.228   6.360  0.0050  0.0756 -0.1004
    1AU     AUC   27   5.321   7.478   6.554 -0.0151  0.0234  0.1866
    1AU     AUC   28   5.164   7.778   6.659  0.0071 -0.0146 -0.0222
    1AU     AUC   29   6.278   8.038   6.014  0.0075 -0.0374 -0.0149
    1AU     AUC   30   6.095   8.315   6.125  0.0306 -0.0232  0.0275
    1AU     AUC   31   5.882   8.535   6.288  0.0933 -0.0334  0.0044
    1AU     AUC   32   5.671   7.404   6.644 -0.0446  0.0027 -0.0370
    1AU     AUC   33   5.490   7.639   6.802 -0.0511 -0.0123 -0.0011
    1AU     AUC   34   6.292   8.132   6.347  0.0070 -0.0030  0.0518
    1AU     AUC   35   6.051   8.380   6.524 -0.0345 -0.0663 -0.0026
    1AU     AUC   36   5.318   7.442   6.207  0.0046 -0.1218  0.0510
    1AU     AUC   37   5.163   7.746   6.303 -0.0100  0.0152  0.0962
    1AU     AUC   38   6.031   8.100   5.800 -0.0065  0.0308  0.1021
    1AU     AUC   39   5.809   8.373   5.937 -0.0215 -0.0162  0.0058
    1AU     AUC   40   5.922   8.173   6.793  0.0234 -0.0051  0.0469
    1AU     AUC   41   5.724   7.928   6.890  0.0217  0.0660 -0.0244
    1AU     AUC   42   5.444   8.280   5.929  0.0643 -0.0505 -0.0385
    1AU     AUC   43   5.169   8.027   6.058 -0.0414  0.0497 -0.1314
    1AU     AUC   44   6.297   7.801   6.460  0.0088 -0.0314  0.0220
    1AU     AUC   45   6.059   7.490   6.594  0.0582  0.0238  0.0644
    1AU     AUC   46   5.731   7.825   5.699 -0.0350  0.0195 -0.0666
    1AU     AUC   47   5.487   7.588   5.886 -0.0019 -0.0212  0.0251
    1AU     AUC   48   5.150   8.069   6.428  0.0864 -0.0339  0.0154
    1AU     AUC   49   5.383   8.027   6.725  0.0153  0.0387  0.0145
    1AU     AUC   50   5.680   7.372   6.096 -0.0007  0.0462  0.0531
    1AU     AUC   51   5.877   7.306   6.310 -0.0997 -0.0426  0.0360
    1AU     AUC   52   5.594   8.452   6.233  0.0482 -0.0065 -0.0495
    1AU     AUC   53   5.730   8.453   6.564 -0.0625  0.0551  0.0637
    1AU     AUC   54   6.089   7.765   5.888  0.0242 -0.0857  0.0034
    1AU     AUC   55   6.324   7.770   6.197 -0.0454  0.0131  0.0010
    1AU    AUSL   56   5.632   7.301   6.982 -0.0773  0.0424 -0.0169
    1AU    AUSL   57   5.746   7.037   6.585  0.0365 -0.0261  0.0318
    1AU     AUL   58   5.752   7.003   7.003 -0.0010  0.0179  0.0022
    1AU       S   59   6.061   6.742   6.783 -0.3355 -0.0709 -0.1273
    1AU     LIG   60   6.032   6.271   6.841 -0.0826  0.2489 -0.0251
    1AU     LIG   61   6.264   6.025   7.142  0.2049 -0.0817 -0.0166
    1AU     LIG   62   6.051   6.049   7.520 -0.0710 -0.1996  0.1944
    1AU       S   63   5.309   6.975   7.097  0.2319 -0.2376 -0.1740
    1AU     LIG   64   5.213   6.654   7.321 -0.3613  0.0664 -0.1346
    1AU     LIG   65   5.260   6.682   7.726  0.0999 -0.1043  0.2671
    1AU     LIG   66   5.440   6.901   8.011 -0.1674 -0.2494  0.3787
    1AU    AUSL   67   5.335   7.178   6.655 -0.0177 -0.0508  0.0170
    1AU    AUSL   68   5.033   7.521   6.616  0.0918 -0.0125 -0.0294
    1AU     AUL   69   4.885   7.234   6.777  0.0487 -0.0091  0.0482
    1AU       S   70   5.275   6.996   6.763 -0.1392  0.2632  0.1927
    1AU     LIG   71   5.044   6.645   6.881  0.7189  0.1583  0.1775
    1AU     LIG   72   5.143   6.198   6.868 -0.1785 -0.0518 -0.6515
    1AU     LIG   73   4.937   5.957   6.994  0.0368 -0.0293  0.1701
    1AU       S   74   4.593   7.096   6.447 -0.0812 -0.1525 -0.3271
    1AU     LIG   75   4.172   7.253   6.457 -0.0321  0.1432 -0.0281
    1AU     LIG   76   3.864   6.935   6.525  0.1228 -0.3360 -0.0930
    1AU     LIG   77   3.616   6.751   6.121  0.0730 -0.2491 -0.3274
    1AU    AUSL   78   5.216   7.445   7.004 -0.0330 -0.0456  0.0153
    1AU    AUSL   79   5.568   7.697   7.148  0.1645 -0.0165 -0.0775
    1AU     AUL   80   5.524   7.396   7.253 -0.0059 -0.0848 -0.0496
    1AU       S   81   5.075   7.234   7.209  0.0985 -0.2579 -0.0767
    1AU     LIG   82   4.836   6.961   7.442  0.0645 -0.1969 -0.2772
    1AU     LIG   83   4.816   6.488   7.561  0.1418 -0.3715  0.1910
    1AU     LIG   84   4.547   6.081   7.609 -0.3135 -0.0791  0.2370
    1AU       S   85   5.244   7.796   7.408 -0.5348 -0.3675 -0.4019
    1AU     LIG   86   4.831   7.515   7.589 -0.1676  0.0517  0.0235
    1AU     LIG   87   4.489   7.421   7.273 -0.2368 -0.0430  0.1917
    1AU     LIG   88   4.217   7.328   6.975  0.0636  0.4707 -0.0772
    1AU    AUSL   89   6.401   8.515   6.589 -0.0121 -0.0562 -0.0009
    1AU    AUSL   90   5.999   8.709   6.687  0.0279 -0.0157 -0.0983
    1AU     AUL   91   6.308   8.802   6.821  0.0270  0.0184  0.0174
    1AU       S   92   6.558   8.874   6.437  0.2577 -0.0153 -0.0824
    1AU     LIG   93   6.405   9.374   6.462  0.0609 -0.0737 -0.1806
    1AU     LIG   94   6.079   9.652   6.588  0.1438  0.0004  0.1631
    1AU     LIG   95   5.915   9.704   6.989 -0.0035  0.0179 -0.0849
    1AU       S   96   5.941   8.853   7.145 -0.0672 -0.1592 -0.1217
    1AU     LIG   97   5.966   9.255   7.233  0.4192  0.0422 -0.1852
    1AU     LIG   98   6.341   9.430   6.986 -0.3059  0.1042 -0.0731
    1AU     LIG   99   6.559   9.780   6.687  0.0060 -0.3777 -0.0911
    1AU    AUSL  100   6.335   8.291   6.203 -0.0089 -0.0094 -0.0612
    1AU    AUSL  101   6.578   8.111   6.574  0.1448 -0.0180  0.0200
    1AU     AUL  102   6.687   8.401   6.448  0.0305 -0.0273 -0.0629
    1AU       S  103   7.012   8.002   6.536  0.0582  0.0749 -0.0504
    1AU     LIG  104   7.329   8.416   6.362 -0.2133 -0.1269  0.0727
    1AU     LIG  105   7.685   8.601   6.203  0.2779 -0.0896  0.3229
    1AU     LIG  106   7.878   8.977   6.296 -0.2379  0.3162 -0.0623
    1AU       S  107   6.495   8.878   6.324  0.1936  0.3620  0.3257
    1AU     LIG  108   6.922   9.097   6.206 -0.2553 -0.2163 -0.2483
    1AU     LIG  109   7.199   9.346   5.839 -0.0982  0.1254  0.3427
    1AU     LIG  110   7.354   9.414   5.403 -0.2285  0.2089  0.0652
    1AU    AUSL  111   6.113   8.676   6.277 -0.0833  0.0653 -0.0532
    1AU    AUSL  112   6.390   8.316   5.780 -0.0009  0.0690 -0.1521
    1AU     AUL  113   6.489   8.529   6.016 -0.0542  0.0521 -0.1280
    1AU       S  114   6.569   8.610   5.561  0.1632  0.2087 -0.2071
    1AU     LIG  115   6.964   8.909   5.707 -0.4861  0.1305 -0.0985
    1AU     LIG  116   7.351   8.888   5.933 -0.2752  0.1278  0.1754
    1AU     LIG  117   7.391   8.974   6.388  0.1082  0.2431 -0.0464
    1AU       S  118   6.236   8.874   6.289  0.0532 -0.1854  0.0835
    1AU     LIG  119   6.502   9.245   5.975 -0.0186 -0.0333  0.3265
    1AU     LIG  120   6.864   9.590   6.063  0.2142  0.2383  0.0046
    1AU     LIG  121   7.275   9.808   6.193 -0.0230  0.0456 -0.3627
    1AU    AUSL  122   5.088   7.570   6.168  0.1393 -0.0171 -0.0103
    1AU    AUSL  123   4.815   7.836   6.438 -0.0200 -0.0415 -0.0471
    1AU     AUL  124   4.756   7.537   6.433 -0.0652 -0.0040 -0.0168
    1AU       S  125   4.577   7.173   6.193  0.0969 -0.0215 -0.1172
    1AU     LIG  126   4.328   6.900   6.060  0.1144  0.1719 -0.1749
    1AU     LIG  127   4.200   6.576   6.253  0.1005 -0.1039 -0.4150
    1AU     LIG  128   4.027   6.191   6.571  0.0310 -0.0526  0.1672
    1AU       S  129   4.365   7.810   6.361 -0.2564  0.0801 -0.0075
    1AU     LIG  130   3.923   7.700   6.432  0.0452 -0.2445 -0.2299
    1AU     LIG  131   3.518   7.760   6.502  0.0916 -0.0947  0.0200
    1AU     LIG  132   3.108   7.690   6.297 -0.2291 -0.0419 -0.0269
    1AU    AUSL  133   5.047   7.173   6.339  0.0176  0.1050  0.0015
    1AU    AUSL  134   5.155   7.257   5.877 -0.0306 -0.1150  0.0844
    1AU     AUL  135   4.880   7.371   5.958  0.1188 -0.1005 -0.0802
    1AU       S  136   5.131   6.962   5.885 -0.0566 -0.4231 -0.1484
    1AU     LIG  137   4.744   6.674   5.967  0.1759 -0.1047  0.2113
    1AU     LIG  138   4.757   6.214   5.803 -0.0358 -0.2298 -0.2663
    1AU     LIG  139   4.920   5.822   5.938 -0.1722 -0.3100  0.1475
    1AU       S  140   4.827   6.996   6.326 -0.0493  0.3954 -0.3316
    1AU     LIG  141   4.636   6.624   6.546  0.3077  0.0511  0.0493
    1AU     LIG  142   4.225   6.566   6.848  0.0227 -0.0622  0.2203
    1AU     LIG  143   3.994   6.332   7.143 -0.1296 -0.0091  0.1838
    1AU    AUSL  144   5.954   8.274   5.707 -0.0444  0.0276  0.1049
    1AU    AUSL  145   6.261   7.954   5.598  0.1188 -0.0413 -0.0435
    1AU     AUL  146   6.301   8.237   5.464  0.0655 -0.0243  0.1339
    1AU       S  147   6.382   8.687   5.441  0.0994  0.2264  0.3496
    1AU     LIG  148   6.584   9.105   5.438 -0.1318  0.0898  0.1211
    1AU     LIG  149   6.833   9.496   5.583  0.2976 -0.2556  0.2379
    1AU     LIG  150   7.211   9.833   5.655  0.0934 -0.0809  0.0669
    1AU       S  151   6.286   7.806   5.194 -0.1374 -0.1540  0.3159
    1AU     LIG  152   6.524   7.683   4.674  0.1142  0.5666  0.0179
    1AU     LIG  153   6.349   7.427   4.312 -0.1577  0.1410  0.2087
    1AU     LIG  154   6.003   7.484   4.054  0.0336  0.0030  0.2205
    1AU    AUSL  155   6.099   8.641   5.850 -0.0461 -0.0842 -0.0268
    1AU    AUSL  156   5.655   8.583   5.646  0.0588  0.0691  0.0296
    1AU     AUL  157   5.921   8.545   5.483 -0.0812 -0.1384 -0.0125
    1AU       S  158   5.773   8.958   5.688 -0.0848  0.0694 -0.0724
    1AU     LIG  159   5.708   9.076   5.196  0.0377  0.2579 -0.0100
    1AU     LIG  160   5.981   9.338   4.946 -0.2436  0.0834 -0.0371
    1AU     LIG  161   6.383   9.356   4.636 -0.0055  0.0932 -0.0402
    1AU       S  162   6.277   8.858   5.682 -0.2209 -0.2270 -0.2896
    1AU     LIG  163   6.101   9.233   5.469  0.2123  0.0272  0.1300
    1AU     LIG  164   6.168   9.701   5.646 -0.3353 -0.0160  0.1475
    1AU     LIG  165   6.491   9.944   5.669 -0.0261 -0.0817 -0.1367
    1AU    AUSL  166   5.878   8.164   7.180  0.0252  0.0489  0.1164
    1AU    AUSL  167   6.114   8.278   6.812  0.0070  0.0106  0.0136
    1AU     AUL  168   6.173   8.459   7.103  0.0340  0.0293 -0.0428
    1AU       S  169   5.816   8.608   7.320  0.0249  0.1172 -0.1968
    1AU     LIG  170   5.514   8.468   7.668 -0.2262 -0.1102 -0.1735
    1AU     LIG  171   5.635   8.074   7.970 -0.1488  0.0534 -0.3679
    1AU     LIG  172   5.766   7.741   8.148 -0.0720  0.0411 -0.1296
    1AU       S  173   6.115   8.171   7.493  0.1860 -0.1200 -0.3473
    1AU     LIG  174   6.068   8.356   7.805 -0.0076 -0.6355 -0.0403
    1AU     LIG  175   6.362   8.560   8.069 -0.1536 -0.1777 -0.1865
    1AU     LIG  176   6.346   9.099   8.126 -0.0675  0.0166  0.1658
    1AU    AUSL  177   6.329   8.030   7.086  0.0736 -0.0612 -0.1371
    1AU    AUSL  178   6.284   7.485   7.026 -0.0328 -0.0846  0.0035
    1AU     AUL  179   6.427   7.678   7.190 -0.0271 -0.0631 -0.0768
    1AU       S  180   6.398   8.142   7.418  0.2676 -0.0699 -0.0744
    1AU     LIG  181   6.565   8.591   7.571  0.0455 -0.0652 -0.1772
    1AU     LIG  182   6.935   8.534   7.813  0.0658  0.1121  0.1632
    1AU     LIG  183   7.208   8.727   7.841 -0.1044  0.4755 -0.1184
    1AU       S  184   6.706   7.275   6.988  0.7168  0.1319 -0.2799
    1AU     LIG  185   6.688   6.881   7.238 -0.1719  0.3257  0.0797
    1AU     LIG  186   6.668   6.493   7.375 -0.0780 -0.4252 -0.0472
    1AU     LIG  187   6.722   6.083   7.539 -0.3547 -0.6523 -0.2029
    1AU    AUSL  188   5.966   7.767   7.037 -0.0868  0.0244 -0.0712
    1AU    AUSL  189   5.460   8.131   7.131  0.0472 -0.0275 -0.1138
    1AU     AUL  190   5.762   7.878   7.321  0.0640 -0.1001 -0.1214
    1AU       S  191   5.287   8.019   7.427  0.0310  0.1500 -0.3091
    1AU     LIG  192   5.022   8.237   7.673  0.0148 -0.0543  0.1091
    1AU     LIG  193   4.968   8.685   7.881 -0.0966  0.2738  0.4564
    1AU     LIG  194   4.702   8.861   8.076 -0.0972 -0.0134  0.1642
    1AU       S  195   6.169   7.950   7.490 -0.0753  0.5893 -0.0989
    1AU     LIG  196   5.951   7.518   7.773  0.1795  0.0572  0.0322
    1AU     LIG  197   5.855   7.206   7.849  0.0008  0.2427  0.0148
    1AU     LIG  198   5.824   6.824   7.694  0.0116 -0.0243 -0.1571
    1AU    AUSL  199   5.005   8.371   5.865 -0.0754  0.0312 -0.0521
    1AU    AUSL  200   4.863   7.887   5.994  0.0019 -0.0001 -0.0416
    1AU     AUL  201   4.666   8.206   5.936 -0.0750  0.0191  0.0928
    1AU       S  202   4.567   7.735   6.034  0.0595  0.0736  0.1703
    1AU     LIG  203   4.216   7.476   5.997 -0.0395  0.2441 -0.1148
    1AU     LIG  204   3.895   7.270   6.047 -0.0394  0.2152  0.2207
    1AU     LIG  205   3.476   7.261   6.249 -0.1181 -0.0984 -0.1773
    1AU       S  206   4.841   8.495   5.641  0.6015 -0.1015  0.3360
    1AU     LIG  207   4.347   8.410   5.474  0.1978  0.1196  0.2966
    1AU     LIG  208   3.832   8.538   5.780 -0.0148 -0.2338 -0.3496
    1AU     LIG  209   3.746   8.877   6.064 -0.1890 -0.4821  0.1425
    1AU    AUSL  210   5.406   8.234   5.721  0.0105 -0.0690  0.0454
    1AU    AUSL  211   5.306   8.668   5.940 -0.1014 -0.1035  0.0031
    1AU     AUL  212   5.300   8.584   5.624  0.0401  0.0130 -0.0136
    1AU       S  213   4.950   8.436   5.389 -0.0628  0.4427 -0.0615
    1AU     LIG  214   4.913   8.808   5.190  0.1458  0.1324 -0.1749
    1AU     LIG  215   5.201   9.253   5.230  0.3086 -0.2184 -0.1247
    1AU     LIG  216   5.507   9.521   5.362  0.1616 -0.1165 -0.0061
    1AU       S  217   5.488   9.023   5.736  0.1347 -0.3060 -0.4531
    1AU     LIG  218   5.603   9.445   5.832 -0.2879  0.1486  0.1060
    1AU     LIG  219   5.740   9.756   6.200  0.1165  0.0437  0.0785
    1AU     LIG  220   5.849  10.089   6.394 -0.0158  0.2978 -0.3182
    1AU    AUSL  221   5.052   7.992   5.616 -0.0513  0.0049  0.0404
    1AU    AUSL  222   5.470   7.912   5.459  0.0251  0.0351 -0.0575
    1AU     AUL  223   5.304   8.153   5.384  0.0339 -0.0017  0.0027
    1AU       S  224   5.201   7.707   5.244  0.3062  0.0257  0.0735
    1AU     LIG  225   4.913   7.909   4.956  0.2268 -0.3044  0.2354
    1AU     LIG  226   4.751   8.105   4.765 -0.0621  0.2256 -0.4801
    1AU     LIG  227   4.628   8.021   4.446  0.1685 -0.3509 -0.1527
    1AU       S  228   4.825   8.065   5.494 -0.2516 -0.0869 -0.1849
    1AU     LIG  229   4.459   8.029   5.195 -0.0901 -0.0140 -0.0488
    1AU     LIG  230   3.997   8.099   5.138 -0.3059 -0.0400 -0.1470
    1AU     LIG  231   3.851   8.272   4.835 -0.1194  0.1933 -0.0001
    1AU    AUSL  232   6.397   7.411   6.597  0.0219 -0.0886 -0.0281
    1AU    AUSL  233   5.978   7.369   6.746  0.1036  0.0365  0.1104
    1AU     AUL  234   6.240   7.214   6.937 -0.1043 -0.1244 -0.0063
    1AU       S  235   6.633   7.273   6.604  0.5570 -0.4260 -0.4036
    1AU     LIG  236   6.850   6.828   6.707 -0.0784  0.0182 -0.0160
    1AU     LIG  237   6.877   6.383   6.574 -0.2175 -0.0379 -0.0692
    1AU     LIG  238   7.065   6.084   6.627 -0.3834 -0.1226  0.3244
    1AU       S  239   6.239   6.773   6.864  0.5001  0.0514  0.3174
    1AU     LIG  240   6.506   6.486   6.900  0.1394 -0.3743 -0.2220
    1AU     LIG  241   6.502   6.084   6.665  0.1870 -0.0633 -0.1114
    1AU     LIG  242   6.103   5.690   6.639  0.1761  0.0374  0.3186
    1AU    AUSL  243   6.306   7.823   6.713 -0.0530  0.0333 -0.0529
    1AU    AUSL  244   6.632   7.713   6.387  0.0400  0.0033 -0.1055
    1AU     AUL  245   6.638   7.770   6.758 -0.0435 -0.0066 -0.0095
    1AU       S  246   6.806   7.362   6.817  0.1360  0.2529  0.0113
    1AU     LIG  247   7.243   7.472   6.779 -0.3294  0.0291  0.1040
    1AU     LIG  248   7.500   7.501   7.129 -0.0936  0.0576  0.0499
    1AU     LIG  249   7.807   7.503   7.321 -0.2043 -0.1940  0.0637
    1AU       S  250   6.952   7.750   6.424  0.1233 -0.2406 -0.3746
    1AU     LIG  251   7.412   7.851   6.276  0.2436 -0.2162 -0.0093
    1AU     LIG  252   7.673   8.158   6.066 -0.3555  0.1733 -0.0056
    1AU     LIG  253   8.092   8.157   5.907  0.1642 -0.1151  0.4068
    1AU    AUSL  254   5.590   7.504   5.473 -0.0025 -0.0035  0.0233
    1AU    AUSL  255   5.880   8.012   5.380  0.0309 -0.0907  0.0522
    1AU     AUL  256   5.649   7.789   5.191 -0.0271 -0.0057  0.0562
    1AU       S  257   6.100   7.890   5.170 -0.0698  0.0794  0.2602
    1AU     LIG  258   6.076   7.977   4.767  0.3547 -0.4466  0.2195
    1AU     LIG  259   6.105   7.892   4.345  0.1961  0.1449 -0.0245
    1AU     LIG  260   5.952   8.171   4.018 -0.0611  0.1515 -0.3082
    1AU       S  261   5.246   7.535   5.217 -0.0483 -0.0998 -0.4957
    1AU     LIG  262   4.935   7.332   4.920 -0.3118  0.0380 -0.0204
    1AU     LIG  263   4.761   7.177   4.660 -0.0008  0.0716 -0.2922
    1AU     LIG  264   4.775   7.194   4.216 -0.3200 -0.0090  0.1330
    1AU    AUSL  265   5.259   7.644   5.725  0.0053 -0.0685 -0.0057
    1AU    AUSL  266   5.605   7.360   5.861 -0.0178  0.0551 -0.0995
    1AU     AUL  267   5.369   7.265   5.604  0.0199 -0.0033 -0.0719
    1AU       S  268   5.299   6.815   5.832  0.0582  0.1266 -0.0726
    1AU     LIG  269   5.204   6.319   5.952 -0.2518  0.0695 -0.0581
    1AU     LIG  270   5.408   5.946   5.960  0.1785  0.0061  0.4442
    1AU     LIG  271   5.376   5.542   5.666 -0.0336 -0.0307  0.0516
    1AU       S  272   5.044   7.570   5.472  0.1492  0.3196 -0.1393
    1AU     LIG  273   4.725   7.521   5.293  0.3936  0.4120 -0.3335
    1AU     LIG  274   4.436   7.158   5.125 -0.0297 -0.0128 -0.2153
    1AU     LIG  275   4.180   6.786   5.169 -0.5666  0.2984 -0.0476
    1AU    AUSL  276   4.935   8.109   6.750  0.1102 -0.0459  0.0194
    1AU    AUSL  277   5.007   8.207   6.270 -0.0778  0.0074  0.0725
    1AU     AUL  278   4.690   8.204   6.411 -0.0173  0.0652  0.1574
    1AU       S  279   4.425   7.895   6.167 -0.2829  0.1260  0.2385
    1AU     LIG  280   4.022   8.022   5.974 -0.3460  0.0316  0.4810
    1AU     LIG  281   3.783   8.019   5.574  0.0536  0.1124  0.2119
    1AU     LIG  282   3.415   7.930   5.408  0.1230  0.3369  0.3441
    1AU       S  283   4.710   8.218   6.872 -0.1699  0.1518  0.1651
    1AU     LIG  284   4.291   8.363   6.924 -0.0934  0.0738 -0.2647
    1AU     LIG  285   4.075   8.137   6.724 -0.3059 -0.0588  0.4345
    1AU     LIG  286   3.915   8.414   6.337 -0.0023 -0.3347  0.0558
    1AU    AUSL  287   5.017   8.515   6.575 -0.0357  0.0107 -0.0306
    1AU    AUSL  288   5.421   8.711   6.729  0.0444 -0.0345 -0.0531
    1AU     AUL  289   5.157   8.728   6.885 -0.0005  0.0328  0.0674
    1AU       S  290   4.717   8.606   6.733  0.0934  0.0336 -0.0045
    1AU     LIG  291   4.282   8.659   6.518  0.1632  0.0722 -0.3638
    1AU     LIG  292   4.272   8.629   6.135 -0.2860  0.5285  0.1299
    1AU     LIG  293   4.448   8.863   5.755 -0.0707  0.2374 -0.2358
    1AU       S  294   5.314   9.066   6.619 -0.4907 -0.1356 -0.3674
    1AU     LIG  295   5.068   9.412   6.837 -0.3439  0.1781  0.4141
    1AU     LIG  296   4.887   9.823   6.555 -0.0361  0.3040  0.1509
    1AU     LIG  297   4.908   9.989   6.145 -0.1443 -0.2224 -0.1774
    1AU    AUSL  298   5.325   8.293   6.770  0.0478 -0.0435  0.0736
    1AU    AUSL  299   5.245   7.854   6.864  0.0390  0.0615 -0.0196
    1AU     AUL  300   5.140   8.242   7.052 -0.0993 -0.0319 -0.0088
    1AU       S  301   5.043   7.817   7.234 -0.3770 -0.2518  0.3301
    1AU     LIG  302   4.672   7.889   7.366  0.2320 -0.1094 -0.3665
    1AU     LIG  303   4.295   7.836   7.189  0.0723  0.1191  0.1030
    1AU     LIG  304   3.910   7.780   7.019  0.2172  0.3119  0.2127
    1AU       S  305   4.753   8.502   7.017  0.5278 -0.1061 -0.2217
    1AU     LIG  306   4.550   8.387   7.360 -0.0191  0.2540 -0.2572
    1AU     LIG  307   4.212   8.195   7.467 -0.0539  0.2896  0.2506
    1AU     LIG  308   3.758   8.042   7.500  0.0892  0.3028  0.0645
    1AU    AUSL  309   5.841   7.012   6.144 -0.0338 -0.0413 -0.0613
    1AU    AUSL  310   6.168   7.077   6.449  0.0466 -0.0797 -0.0174
    1AU     AUL  311   5.867   6.811   6.375 -0.1278  0.0282  0.0564
    1AU       S  312   6.191   6.800   6.022 -0.0340  0.2732  0.0203
    1AU     LIG  313   6.240   6.347   5.943 -0.2830 -0.2252 -0.2251
    1AU     LIG  314   6.061   6.009   5.782 -0.2352 -0.0637 -0.2241
    1AU     LIG  315   5.814   5.793   5.637  0.2725  0.2346 -0.0816
    1AU       S  316   6.297   6.890   6.553  0.1371 -0.0128 -0.1490
    1AU     LIG  317   6.401   6.476   6.403  0.2429  0.2799 -0.1697
    1AU     LIG  318   5.999   6.143   6.367  0.2361 -0.2700 -0.4150
    1AU     LIG  319   5.506   6.187   6.401 -0.0606 -0.0391 -0.0533
    1AU    AUSL  320   5.943   7.164   5.742 -0.0437 -0.0110 -0.0007
    1AU    AUSL  321   5.442   7.125   6.186 -0.1036  0.0508 -0.0846
    1AU     AUL  322   5.696   6.975   5.876  0.0107 -0.0234  0.0760
    1AU       S  323   6.137   6.807   5.804 -0.2109  0.2893  0.1073
    1AU     LIG  324   6.049   6.567   5.487  0.2150  0.2807  0.0109
    1AU     LIG  325   6.024   6.171   5.255  0.5906  0.3759 -0.2710
    1AU     LIG  326   5.820   5.860   5.137 -0.1639 -0.0962 -0.2196
    1AU       S  327   5.309   6.831   6.150  0.2173 -0.3352  0.4344
    1AU     LIG  328   5.129   6.569   6.394  0.3404  0.1783  0.0093
    1AU     LIG  329   4.897   6.175   6.283  0.0387  0.5327  0.0936
    1AU     LIG  330   5.079   5.877   6.431  0.4577 -0.0261 -0.1004
    1AU    AUSL  331   6.134   7.335   6.119  0.0264 -0.0030 -0.0343
    1AU    AUSL  332   6.306   7.449   5.743  0.0092 -0.1068  0.0369
    1AU     AUL  333   6.202   7.226   5.622 -0.0310 -0.0105 -0.0759
    1AU       S  334   6.650   7.269   5.676  0.1726 -0.1512 -0.3306
    1AU     LIG  335   6.624   6.738   5.649  0.2873 -0.2252 -0.0423
    1AU     LIG  336   6.762   6.316   5.868 -0.0439 -0.6366  0.1961
    1AU     LIG  337   6.750   6.103   6.209  0.0405 -0.1118  0.1444
    1AU       S  338   6.345   6.978   6.018 -0.0316 -0.0070  0.2350
    1AU     LIG  339   6.700   6.751   6.221  0.3983  0.0554  0.3394
    1AU     LIG  340   7.164   6.597   6.178  0.3045  0.4965 -0.0905
    1AU     LIG  341   7.367   6.527   6.512  0.4059 -0.0956  0.3885
    1AU    AUSL  342   5.682   8.843   6.410 -0.0469 -0.0468  0.0516
    1AU    AUSL  343   5.721   8.454   6.902  0.0689 -0.0651  0.0504
    1AU     AUL  344   5.696   8.850   6.785  0.0081 -0.0676 -0.0036
    1AU       S  345   5.531   9.205   6.465  0.0383 -0.0292  0.0191
    1AU     LIG  346   5.061   9.389   6.306  0.2973  0.2815  0.0910
    1AU     LIG  347   4.681   9.482   6.035  0.1717  0.1524 -0.0719
    1AU     LIG  348   4.435   9.722   5.658 -0.1075 -0.4356  0.1007
    1AU       S  349   5.660   8.603   7.166 -0.1943 -0.2825 -0.0069
    1AU     LIG  350   5.623   9.007   7.553 -0.7493 -0.2145 -0.1439
    1AU     LIG  351   5.447   9.411   7.718 -0.0910 -0.0846 -0.4513
    1AU     LIG  352   5.157   9.807   7.798  0.2016  0.0235 -0.2036
    1AU    AUSL  353   5.361   8.549   6.332 -0.0050 -0.0496  0.0344
    1AU    AUSL  354   5.723   8.597   6.074  0.1263  0.0022 -0.0165
    1AU     AUL  355   5.420   8.866   6.163  0.0816  0.0254 -0.0494
    1AU       S  356   5.103   8.984   6.471 -0.1167  0.1987 -0.2982
    1AU     LIG  357   4.714   9.102   6.519  0.0701  0.3632  0.0102
    1AU     LIG  358   4.244   9.260   6.791 -0.2932  0.0088 -0.1878
    1AU     LIG  359   3.894   9.553   6.669 -0.2786 -0.2011  0.3461
    1AU       S  360   5.835   9.003   5.942 -0.3521  0.0053  0.0415
    1AU     LIG  361   5.993   9.299   6.166 -0.2322 -0.2639  0.2559
    1AU     LIG  362   6.354   9.726   6.102  0.0228  0.2440 -0.3406
    1AU     LIG  363   6.453  10.170   6.227  0.2317  0.2495 -0.1962
    1AU    AUSL  364   6.394   7.788   5.975 -0.0091  0.0304  0.0151
    1AU    AUSL  365   5.965   7.652   5.616  0.0130 -0.0201  0.1467
    1AU     AUL  366   6.435   7.705   5.601 -0.0458 -0.0951 -0.0864
    1AU       S  367   6.078   7.557   5.321  0.0757 -0.3993 -0.1226
    1AU     LIG  368   6.064   7.460   4.885  0.3254 -0.2592  0.0277
    1AU     LIG  369   6.009   7.118   4.427 -0.0564  0.1677 -0.1413
    1AU     LIG  370   6.016   7.020   4.035 -0.2886 -0.0232  0.3272
    1AU       S  371   6.785   7.419   5.696 -0.0642 -0.0992 -0.2301
    1AU     LIG  372   7.237   7.320   5.902 -0.0080  0.1939  0.4050
    1AU     LIG  373   7.359   7.040   5.991 -0.2495  0.0696 -0.0188
    1AU     LIG  374   7.670   6.821   6.177  0.4908 -0.2263  0.0040
    1AU    AUSL  375   6.557   7.377   6.125 -0.0556  0.0518 -0.0128
    1AU    AUSL  376   6.675   8.060   6.137 -0.0027 -0.0574 -0.0124
    1AU     AUL  377   6.762   7.745   6.015  0.0602  0.0643 -0.1051
    1AU       S  378   6.779   7.251   6.040  0.2386 -0.4408  0.2277
    1AU     LIG  379   7.079   7.144   6.378  0.0443  0.0800  0.0971
    1AU     LIG  380   7.389   7.015   6.709 -0.0664 -0.0555 -0.1225
    1AU     LIG  381   7.580   6.871   7.153  0.4159  0.0881  0.0039
    1AU       S  382   6.982   8.111   6.216 -0.1828  0.2540  0.3386
    1AU     LIG  383   7.177   8.285   5.870 -0.0480 -0.1387 -0.1110
    1AU     LIG  384   7.529   8.437   5.687 -0.0619 -0.1433  0.0899
    1AU     LIG  385   7.878   8.656   5.756  0.0783  0.1306  0.0861
    2POPC   NC3  386   9.376   5.150   8.388 -0.4408 -0.0803 -0.1488
    2POPC   PO4  387   9.527   5.020   7.886  0.3456  0.1602 -0.1329
    2POPC   GL1  388   9.567   5.268   7.574 -0.4822 -0.5332  0.0171
    2POPC   GL2  389   9.942   5.403   7.620  0.1885 -0.1417  0.1058
    2POPC   C1A  390   9.334   5.405   7.149 -0.0060  0.2491 -0.0821
    2POPC   D2A  391   9.349   5.622   6.724 -0.2461  0.0796  0.0716
    2POPC   C3A  392   9.062   5.339   6.586  0.4770 -0.0768  0.1356
    2POPC   C4A  393   8.944   4.908   6.483 -0.0875 -0.2235  0.1961
    2POPC   C1B  394   9.931   5.365   7.124 -0.1255 -0.3274  0.2202
    2POPC   C2B  395   9.780   5.299   6.699  0.1271  0.0745 -0.1142
    2POPC   C3B  396   9.928   4.998   6.381 -0.1763 -0.1574  0.1504
    2POPC   C4B  397  10.406   4.988   6.263 -0.0322 -0.0165  0.3545
    3POPC   NC3  398   5.681   3.913   8.286  0.0863 -0.2106  0.1421
    3POPC   PO4  399   5.377   4.119   8.335  0.0067 -0.1151 -0.4006
    3POPC   GL1  400   5.359   4.110   7.938  0.3604 -0.2609  0.1786
    3POPC   GL2  401   5.397   3.828   7.920  0.1488  0.0266  0.0735
    3POPC   C1A  402   5.426   4.212   7.472  0.2378 -0.0977  0.1056
    3POPC   D2A  403   5.476   4.188   7.034  0.3315 -0.0489 -0.1346
    3POPC   C3A  404   5.158   3.962   6.656 -0.2272 -0.1084  0.3001
    3POPC   C4A  405   4.833   4.113   6.285  0.0599 -0.0305 -0.3455
    3POPC   C1B  406   5.553   3.695   7.537  0.0785  0.0423  0.0130
    3POPC   C2B  407   5.456   3.669   7.113  0.1211 -0.2145 -0.2341
    3POPC   C3B  408   5.687   3.842   6.788 -0.2024  0.1085  0.0015
    3POPC   C4B  409   6.100   3.916   6.626 -0.1206  0.1344 -0.0705
    4POPC   NC3  410   7.093   4.332   8.399  0.0627  0.0190  0.0745
    4POPC   PO4  411   6.692   4.488   8.537  0.0883  0.0489 -0.4740
    4POPC   GL1  412   6.650   4.493   8.078  0.0112  0.0459 -0.1322
    4POPC   GL2  413   6.590   4.389   7.776  0.0950  0.1986 -0.2608
    4POPC   C1A  414   6.530   4.852   7.852  0.4125 -0.1433 -0.2931
    4POPC   D2A  415   6.245   5.126   7.634 -0.2025 -0.2069 -0.1862
    4POPC   C3A  416   5.792   4.988   7.425 -0.3939 -0.1740  0.2642
    4POPC   C4A  417   5.477   4.755   7.635  0.3429  0.0808  0.0345
    4POPC   C1B  418   6.868   4.678   7.498  0.1099  0.2540 -0.0979
    4POPC   C2B  419   6.866   4.673   7.059  0.0041  0.1653 -0.0858
    4POPC   C3B  420   6.800   4.421   6.685  0.4446  0.1072  0.0770
    4POPC   C4B  421   7.088   4.086   6.424 -0.1224  0.1775 -0.2054
    5POPC   NC3  422   8.031   2.951   7.975 -0.0209  0.0728  0.0927
    5POPC   PO4  423   8.412   2.646   8.134  0.2436 -0.3473 -0.4546
    5POPC   GL1  424   8.253   2.480   7.723 -0.2113  0.2559  0.2549
    5POPC   GL2  425   8.023   2.706   7.515  0.0270  0.0199 -0.1017
    5POPC   C1A  426   8.093   2.198   7.512 -0.0530  0.3518  0.0732
    5POPC   D2A  427   7.839   1.798   7.390  0.0630 -0.2100 -0.0437
    5POPC   C3A  428   7.815   1.477   7.043  0.1580 -0.3007  0.0760
    5POPC   C4A  429   7.758   1.308   6.541  0.1527  0.0097 -0.1605
    5POPC   C1B  430   8.235   2.504   7.091  0.0641  0.3224 -0.1930
    5POPC   C2B  431   8.389   2.431   6.618 -0.0828  0.2690 -0.0971
    5POPC   C3B  432   8.805   2.638   6.524 -0.0582  0.3503 -0.0239
    5POPC   C4B  433   9.073   2.911   6.317  0.3629 -0.3783 -0.0433
    6POPC   NC3  434   6.050   1.381   8.388  0.2498  0.1416  0.3768
    6POPC   PO4  435   5.678   1.380   8.390 -0.2008  0.0321 -0.1509
    6POPC   GL1  436   5.753   1.204   7.917 -0.0988  0.0457 -0.0432
    6POPC   GL2  437   5.649   1.450   7.680  0.1143 -0.5939 -0.0718
    6POPC   C1A  438   5.566   0.967   7.530  0.1392  0.3536  0.2063
    6POPC   D2A  439   5.292   0.862   7.089 -0.0030 -0.0067 -0.1399
    6POPC   C3A  440   5.377   1.003   6.680 -0.0028 -0.0660 -0.0268
    6POPC   C4A  441   5.615   1.322   6.562 -0.0273 -0.2151  0.1350
    6POPC   C1B  442   5.939   1.295   7.389  0.4026 -0.0181 -0.0300
    6POPC   C2B  443   6.314   1.162   7.143 -0.1002 -0.0955  0.1003
    6POPC   C3B  444   6.600   1.127   6.733 -0.0039 -0.2061 -0.4035
    6POPC   C4B  445   6.630   0.890   6.362 -0.0938  0.1712 -0.0330
    7POPC   NC3  446   7.681   6.877   8.726 -0.0236  0.1002 -0.1730
    7POPC   PO4  447   7.273   6.689   8.727  0.1147 -0.3571  0.1710
    7POPC   GL1  448   7.432   6.841   8.297 -0.1132  0.1420 -0.0276
    7POPC   GL2  449   7.206   7.059   8.075 -0.0501  0.0793 -0.0121
    7POPC   C1A  450   7.687   6.925   7.959 -0.4525  0.2113  0.1579
    7POPC   D2A  451   7.729   6.717   7.625  0.1774 -0.0276  0.0316
    7POPC   C3A  452   7.982   6.508   7.381  0.0857  0.0333 -0.0453
    7POPC   C4A  453   8.377   6.721   7.511  0.0308 -0.0592  0.0268
    7POPC   C1B  454   7.188   6.622   7.912  0.1687  0.0963  0.3123
    7POPC   C2B  455   7.117   6.174   7.924 -0.1058  0.1488 -0.2444
    7POPC   C3B  456   6.648   5.976   8.064 -0.0676 -0.2079 -0.0065
    7POPC   C4B  457   6.245   5.786   7.821 -0.1029  0.0005  0.2204
    8POPC   NC3  458   9.580   0.810   8.375 -0.0049  0.1437  0.2795
    8POPC   PO4  459   9.309   1.002   8.052 -0.0512  0.2093  0.1838
    8POPC   GL1  460   9.369   1.360   7.729 -0.0322  0.1367  0.2716
    8POPC   GL2  461   9.157   1.629   7.621 -0.2005 -0.3718  0.1041
    8POPC   C1A  462   9.571   1.631   7.399 -0.0049 -0.1257 -0.1703
    8POPC   D2A  463   9.521   1.715   6.951  0.0508  0.1539  0.1300
    8POPC   C3A  464   9.640   1.447   6.628 -0.3134  0.0467  0.2654
    8POPC   C4A  465   9.720   1.509   6.207  0.0253  0.1289  0.0991
    8POPC   C1B  466   9.209   1.324   7.194  0.0495 -0.0868  0.0114
    8POPC   C2B  467   9.205   1.215   6.714 -0.1597  0.1991 -0.1145
    8POPC   C3B  468   9.249   0.875   6.569 -0.0176 -0.2683 -0.2815
    8POPC   C4B  469   9.181   0.617   6.154  0.0460 -0.0331 -0.0010
    9POPC   NC3  470   6.611   2.381   7.871  0.1592 -0.4004  0.1342
    9POPC   PO4  471   6.630   2.738   8.081  0.0810  0.0437  0.1051
    9POPC   GL1  472   6.439   2.976   7.833  0.1965  0.5297  0.3646
    9POPC   GL2  473   6.590   3.324   7.801 -0.2662 -0.0409 -0.0788
    9POPC   C1A  474   6.225   3.007   7.403 -0.0066  0.1167  0.2088
    9POPC   D2A  475   6.394   3.092   7.044 -0.3309  0.2365  0.2651
    9POPC   C3A  476   6.572   2.922   6.688 -0.2732  0.3803 -0.0325
    9POPC   C4A  477   6.393   2.840   6.143 -0.2847 -0.0669  0.2163
    9POPC   C1B  478   6.536   3.444   7.376 -0.0140 -0.1202 -0.1071
    9POPC   C2B  479   6.473   3.630   6.957  0.0412  0.2089  0.2243
    9POPC   C3B  480   6.275   3.435   6.584 -0.0232  0.1839  0.0125
    9POPC   C4B  481   6.086   3.207   6.241 -0.1333 -0.0019  0.0590
   10POPC   NC3  482   8.449   0.633   8.154  0.4472  0.1495 -0.1719
   10POPC   PO4  483   8.307   0.226   8.164  0.0086  0.0591 -0.0166
   10POPC   GL1  484   8.418   0.173   7.694  0.1055 -0.6016 -0.0664
   10POPC   GL2  485   8.421  -0.211   7.697  0.2803  0.0207  0.3529
   10POPC   C1A  486   8.357   0.310   7.254 -0.4984  0.3475 -0.1478
   10POPC   D2A  487   8.488   0.153   6.814  0.0239 -0.0615 -0.2036
   10POPC   C3A  488   8.196   0.174   6.332  0.1010  0.2771  0.0044
   10POPC   C4A  489   8.157   0.452   5.955 -0.1382  0.1391 -0.0211
   10POPC   C1B  490   8.923  -0.261   7.532 -0.0661  0.2303 -0.0910
   10POPC   C2B  491   9.379  -0.322   7.326 -0.0607  0.1325 -0.0637
   10POPC   C3B  492   9.582  -0.150   7.037 -0.1440 -0.3743  0.3797
   10POPC   C4B  493   9.576   0.032   6.563 -0.2421  0.2377  0.2011
   11POPC   NC3  494   7.961   1.416   7.829  0.1729 -0.2335  0.0858
   11POPC   PO4  495   8.305   1.730   7.972  0.0317 -0.0487 -0.1626
   11POPC   GL1  496   8.297   1.640   7.563  0.0919  0.0872  0.0433
   11POPC   GL2  497   8.617   1.650   7.559  0.0847 -0.3083  0.0632
   11POPC   C1A  498   8.277   1.631   7.081  0.0285 -0.0159 -0.1843
   11POPC   D2A  499   8.147   1.633   6.675 -0.1354 -0.3600  0.1088
   11POPC   C3A  500   8.461   1.653   6.441  0.1336  0.0703  0.1173
   11POPC   C4A  501   8.740   1.579   6.056  0.5241 -0.2784  0.0253
   11POPC   C1B  502   8.855   1.731   7.195  0.0320 -0.2078 -0.0337
   11POPC   C2B  503   8.875   1.597   6.786  0.0179  0.3582 -0.0766
   11POPC   C3B  504   9.216   1.695   6.515 -0.0179 -0.2193  0.1203
   11POPC   C4B  505   9.638   1.903   6.439  0.0880 -0.1562  0.0003
   12POPC   NC3  506   9.038   5.730   8.371  0.3555 -0.3234  0.2048
   12POPC   PO4  507   8.699   5.395   8.316 -0.1755  0.1160  0.2746
   12POPC   GL1  508   8.751   5.522   7.911  0.2064 -0.5586  0.2135
   12POPC   GL2  509   8.965   5.787   7.826 -0.0546  0.0108  0.0184
   12POPC   C1A  510   8.866   5.503   7.435  0.0076  0.1455  0.0793
   12POPC   D2A  511   8.806   5.266   7.055 -0.0216 -0.1149  0.0467
   12POPC   C3A  512   9.088   4.943   6.952  0.0154  0.1164  0.0293
   12POPC   C4A  513   9.169   4.524   6.781 -0.0132  0.1600  0.3699
   12POPC   C1B  514   9.335   5.738   7.570  0.2505 -0.3004 -0.0933
   12POPC   C2B  515   9.615   5.763   7.333 -0.0639  0.0190  0.1596
   12POPC   C3B  516   9.760   5.886   6.958 -0.4550  0.0457  0.2917
   12POPC   C4B  517   9.491   6.175   6.709  0.2256  0.1014  0.1190
   13POPC   NC3  518   0.268   3.688   8.181  0.2411  0.1735 -0.5521
   13POPC   PO4  519   0.091   3.317   8.208 -0.1598 -0.2310 -0.4660
   13POPC   GL1  520   0.042   3.419   7.706  0.1325  0.0584  0.2512
   13POPC   GL2  521  -0.232   3.647   7.770 -0.1530 -0.0154  0.4079
   13POPC   C1A  522  -0.040   3.833   7.433 -0.2244  0.0122  0.1055
   13POPC   D2A  523  -0.163   3.850   7.036  0.0904  0.0508 -0.3381
   13POPC   C3A  524  -0.021   3.629   6.683 -0.2227 -0.2320 -0.1066
   13POPC   C4A  525   0.457   3.738   6.577  0.2510  0.0569  0.1356
   13POPC   C1B  526  -0.409   3.478   7.384  0.1178 -0.3910 -0.0238
   13POPC   C2B  527  -0.293   3.282   6.958  0.2575 -0.0781  0.2072
   13POPC   C3B  528  -0.267   3.162   6.547  0.0566  0.1339  0.0448
   13POPC   C4B  529  -0.104   3.138   6.110  0.5246 -0.1100  0.0133
   14POPC   NC3  530   2.952   7.075   9.076 -0.0070  0.1778 -0.0201
   14POPC   PO4  531   2.814   6.866   8.733  0.3495  0.1322 -0.1542
   14POPC   GL1  532   2.843   6.729   8.272 -0.2733  0.1106 -0.2160
   14POPC   GL2  533   3.182   6.789   8.162  0.0358  0.2866 -0.0238
   14POPC   C1A  534   2.625   6.715   7.820  0.1326  0.0680  0.2539
   14POPC   D2A  535   2.797   6.449   7.481 -0.0684 -0.2034 -0.0205
   14POPC   C3A  536   2.937   6.423   6.955 -0.1423  0.0001  0.0224
   14POPC   C4A  537   2.779   6.669   6.488 -0.1077  0.4966  0.3138
   14POPC   C1B  538   3.204   6.577   7.833  0.0211 -0.0034  0.2222
   14POPC   C2B  539   3.315   6.684   7.377 -0.3591 -0.0387 -0.0567
   14POPC   C3B  540   3.357   6.686   6.980  0.0679  0.2972  0.0391
   14POPC   C4B  541   3.649   6.525   6.721  0.3156 -0.1705  0.2492
   15POPC   NC3  542   1.240   3.054   8.844  0.2346  0.0194 -0.1694
   15POPC   PO4  543   1.526   2.934   8.536  0.0475  0.0021 -0.1668
   15POPC   GL1  544   1.619   2.791   8.058  0.2161 -0.1511 -0.0568
   15POPC   GL2  545   1.444   3.170   7.924  0.0295  0.0650 -0.4386
   15POPC   C1A  546   1.905   2.778   7.679  0.0474  0.2308 -0.1922
   15POPC   D2A  547   2.003   2.826   7.245  0.2588 -0.2341 -0.1362
   15POPC   C3A  548   1.750   2.674   6.894  0.2253 -0.0470 -0.1446
   15POPC   C4A  549   1.633   2.460   6.540  0.1943  0.0513 -0.1797
   15POPC   C1B  550   1.558   3.186   7.504 -0.0240 -0.0006  0.5770
   15POPC   C2B  551   1.583   3.179   6.986  0.1849  0.1042 -0.2517
   15POPC   C3B  552   1.732   3.443   6.678 -0.0863 -0.3666  0.1961
   15POPC   C4B  553   1.671   3.666   6.320 -0.3286 -0.4060  0.0613
   16POPC   NC3  554   2.078   5.403   8.168  0.1757  0.0710 -0.0713
   16POPC   PO4  555   1.739   5.441   7.945  0.0112 -0.0895  0.1059
   16POPC   GL1  556   1.819   5.865   7.668  0.0491 -0.0384 -0.0967
   16POPC   GL2  557   2.027   6.140   7.720  0.0174 -0.0340  0.0775
   16POPC   C1A  558   2.025   5.892   7.119 -0.0065 -0.3551 -0.0268
   16POPC   D2A  559   2.245   5.598   6.924 -0.0640  0.0324  0.1705
   16POPC   C3A  560   2.238   5.234   6.638  0.1166  0.0912 -0.2917
   16POPC   C4A  561   2.009   4.950   6.574 -0.2848 -0.0823  0.1491
   16POPC   C1B  562   2.325   6.441   7.467 -0.1239  0.0750 -0.0692
   16POPC   C2B  563   2.567   6.799   7.282 -0.1677 -0.2477  0.0252
   16POPC   C3B  564   2.516   6.902   6.844 -0.0606 -0.3083  0.0637
   16POPC   C4B  565   2.336   7.278   6.598 -0.0214  0.1329  0.1867
   17POPC   NC3  566   3.249   2.429   8.090  0.3237 -0.0292 -0.0983
   17POPC   PO4  567   3.775   2.603   8.150  0.3328 -0.0179  0.1122
   17POPC   GL1  568   3.631   2.584   7.771  0.0546  0.0970  0.0877
   17POPC   GL2  569   3.658   2.969   7.648  0.0133  0.0333 -0.0287
   17POPC   C1A  570   3.669   2.494   7.319 -0.2036 -0.0343 -0.0454
   17POPC   D2A  571   3.702   2.621   6.806 -0.0212 -0.1125 -0.4376
   17POPC   C3A  572   3.706   2.990   6.691  0.1979  0.1186  0.0068
   17POPC   C4A  573   3.608   3.224   6.392  0.0102  0.0312 -0.0426
   17POPC   C1B  574   4.030   2.810   7.477 -0.1809 -0.2466  0.3717
   17POPC   C2B  575   4.159   2.802   7.160  0.1698 -0.0960 -0.0152
   17POPC   C3B  576   4.149   2.748   6.681  0.1765  0.2422 -0.2228
   17POPC   C4B  577   3.869   2.614   6.335  0.1837  0.0458  0.2095
   18POPC   NC3  578   6.861   1.957   8.273 -0.2358 -0.2614  0.0067
   18POPC   PO4  579   6.934   1.455   8.070  0.1402  0.1688 -0.2388
   18POPC   GL1  580   7.016   1.324   7.684 -0.0969  0.0890 -0.2173
   18POPC   GL2  581   6.736   1.394   7.451 -0.2237 -0.0231  0.1362
   18POPC   C1A  582   7.126   1.032   7.363 -0.0591  0.2057  0.2865
   18POPC   D2A  583   6.901   0.921   7.049 -0.1845 -0.1786  0.1943
   18POPC   C3A  584   6.866   0.647   6.754 -0.1457 -0.1802 -0.1161
   18POPC   C4A  585   6.914   0.341   6.373  0.3818  0.0002  0.1927
   18POPC   C1B  586   6.735   1.455   7.076  0.2005  0.1993 -0.4081
   18POPC   C2B  587   6.749   1.520   6.582  0.0196  0.1109  0.1399
   18POPC   C3B  588   6.504   1.398   6.169 -0.3450  0.0752  0.0150
   18POPC   C4B  589   6.556   1.361   5.714  0.0213  0.0976 -0.1126
   19POPC   NC3  590   3.154   7.821   8.926  0.0562 -0.1853 -0.0427
   19POPC   PO4  591   3.255   7.427   9.013 -0.0868 -0.1439 -0.0292
   19POPC   GL1  592   3.082   7.534   8.506  0.4077  0.4324 -0.0727
   19POPC   GL2  593   3.099   7.248   8.395  0.0530 -0.1480  0.0812
   19POPC   C1A  594   3.161   7.627   8.017  0.2020 -0.1556 -0.2914
   19POPC   D2A  595   3.216   7.444   7.627 -0.0604 -0.3423 -0.2298
   19POPC   C3A  596   3.336   7.760   7.339 -0.3084  0.1471 -0.0627
   19POPC   C4A  597   3.400   7.974   7.013  0.2926  0.1220 -0.0198
   19POPC   C1B  598   3.466   7.199   8.068 -0.1835  0.0635 -0.3173
   19POPC   C2B  599   3.557   7.107   7.576  0.0780 -0.1525 -0.0146
   19POPC   C3B  600   3.492   7.211   7.143  0.4532  0.0842 -0.3353
   19POPC   C4B  601   3.743   7.336   6.885  0.0232 -0.4243 -0.1463
   20POPC   NC3  602   4.118   2.297   8.487 -0.0314 -0.3136  0.3377
   20POPC   PO4  603   4.134   2.331   7.933  0.1962 -0.2202  0.0384
   20POPC   GL1  604   4.049   2.231   7.532  0.4027  0.0357  0.0767
   20POPC   GL2  605   3.739   1.998   7.455  0.1295  0.2293 -0.0265
   20POPC   C1A  606   4.023   2.264   7.143  0.2609 -0.3545  0.2561
   20POPC   D2A  607   4.100   2.243   6.750  0.0237 -0.3688 -0.0219
   20POPC   C3A  608   3.695   2.157   6.446  0.1772 -0.0283 -0.2185
   20POPC   C4A  609   3.399   1.839   6.198 -0.3423 -0.1282  0.2921
   20POPC   C1B  610   3.559   1.650   7.198  0.0427  0.2060  0.1339
   20POPC   C2B  611   3.470   1.535   6.782 -0.2155 -0.2613 -0.0253
   20POPC   C3B  612   3.731   1.624   6.453  0.0788 -0.1696  0.1510
   20POPC   C4B  613   3.953   1.671   6.112 -0.2939 -0.3871 -0.0129
   21POPC   NC3  614   1.345   6.889   8.248  0.0109 -0.2995 -0.1698
   21POPC   PO4  615   0.890   6.775   8.290  0.1719  0.2328 -0.2571
   21POPC   GL1  616   0.758   6.661   7.925 -0.1535  0.1879  0.0262
   21POPC   GL2  617   0.801   6.366   7.824  0.1814  0.1217 -0.4876
   21POPC   C1A  618   0.622   6.706   7.502 -0.0330 -0.0673  0.1279
   21POPC   D2A  619   0.734   6.757   7.017  0.0999  0.1437  0.1127
   21POPC   C3A  620   0.445   6.878   6.678  0.1183 -0.2210  0.2185
   21POPC   C4A  621   0.332   7.106   6.339 -0.0170 -0.1659  0.2670
   21POPC   C1B  622   0.701   6.281   7.335 -0.2055  0.0582 -0.0017
   21POPC   C2B  623   0.361   6.423   7.027  0.1207  0.0700  0.1513
   21POPC   C3B  624   0.303   6.416   6.611  0.0482  0.2608  0.0351
   21POPC   C4B  625   0.158   6.119   6.298 -0.0502  0.1917 -0.0201
   22POPC   NC3  626   4.108   9.427   8.464  0.1420 -0.1800 -0.1238
   22POPC   PO4  627   3.802   9.169   8.685 -0.1505 -0.1395 -0.0756
   22POPC   GL1  628   4.024   8.919   8.562 -0.0484  0.5497  0.0274
   22POPC   GL2  629   3.955   8.628   8.349 -0.1578 -0.1212 -0.1393
   22POPC   C1A  630   4.430   8.794   8.421  0.1759  0.0077 -0.2547
   22POPC   D2A  631   4.873   8.856   8.541 -0.1176 -0.1014 -0.5217
   22POPC   C3A  632   5.175   9.235   8.374  0.3279  0.1250 -0.3410
   22POPC   C4A  633   5.569   9.362   8.248 -0.0459  0.0328 -0.2857
   22POPC   C1B  634   4.178   8.648   7.957  0.0357 -0.1152  0.0668
   22POPC   C2B  635   4.454   8.861   7.662  0.1098 -0.0911 -0.1182
   22POPC   C3B  636   4.751   8.841   7.419 -0.3695  0.1025 -0.0549
   22POPC   C4B  637   5.174   9.022   7.539  0.3073  0.2301 -0.0798
   23POPC   NC3  638   7.108   2.228   7.865 -0.0569  0.2102 -0.0748
   23POPC   PO4  639   7.097   2.589   7.941 -0.1043  0.0928  0.0588
   23POPC   GL1  640   6.806   2.735   7.622  0.4290 -0.0227  0.4304
   23POPC   GL2  641   6.886   3.065   7.406  0.2763  0.0321  0.0878
   23POPC   C1A  642   6.659   2.655   7.202 -0.1095 -0.2363 -0.1780
   23POPC   D2A  643   6.739   2.385   6.816  0.2665 -0.2784  0.1057
   23POPC   C3A  644   6.462   2.482   6.551  0.0959  0.3555  0.0525
   23POPC   C4A  645   6.077   2.293   6.454 -0.1841 -0.1660  0.1447
   23POPC   C1B  646   6.886   3.309   7.021  0.0643  0.0896 -0.2621
   23POPC   C2B  647   6.782   3.350   6.659 -0.0977  0.0786  0.1793
   23POPC   C3B  648   6.662   3.250   6.269 -0.2973 -0.3189  0.0740
   23POPC   C4B  649   6.683   3.347   5.839 -0.1765  0.3314 -0.0534
   24POPC   NC3  650   1.287   7.418   8.821 -0.3782 -0.0470 -0.0218
   24POPC   PO4  651   1.168   7.334   8.331 -0.0352  0.1457 -0.4011
   24POPC   GL1  652   1.050   7.129   7.875  0.0803  0.0937  0.0900
   24POPC   GL2  653   0.694   7.108   7.892  0.2694 -0.4000  0.0243
   24POPC   C1A  654   0.957   7.094   7.335 -0.0489 -0.0899  0.0520
   24POPC   D2A  655   1.213   7.045   7.003  0.0980  0.0987 -0.0129
   24POPC   C3A  656   1.486   6.761   6.819 -0.2431 -0.0994 -0.2002
   24POPC   C4A  657   1.838   6.581   6.651  0.0134 -0.0602 -0.1979
   24POPC   C1B  658   0.752   7.574   7.666 -0.1916  0.0031  0.3597
   24POPC   C2B  659   1.161   7.895   7.590 -0.0662 -0.0832 -0.1168
   24POPC   C3B  660   1.133   8.188   7.199  0.2438 -0.0851 -0.2883
   24POPC   C4B  661   1.449   8.327   6.945 -0.1555 -0.0298 -0.0452
   25POPC   NC3  662   1.767   1.578   8.204  0.1026 -0.0415 -0.0116
   25POPC   PO4  663   2.222   1.628   8.258 -0.1973 -0.0387 -0.0112
   25POPC   GL1  664   2.402   1.758   7.903  0.1737 -0.1778  0.2127
   25POPC   GL2  665   2.630   1.968   7.858 -0.0285  0.1053 -0.3170
   25POPC   C1A  666   2.444   1.655   7.478 -0.2374  0.4358  0.1431
   25POPC   D2A  667   2.634   1.818   7.031 -0.1108 -0.0166 -0.5213
   25POPC   C3A  668   2.718   2.161   6.904  0.2042 -0.1799  0.0212
   25POPC   C4A  669   2.702   2.585   6.722 -0.0052  0.0592 -0.1358
   25POPC   C1B  670   2.500   2.131   7.547  0.3636 -0.0755  0.3939
   25POPC   C2B  671   2.176   1.983   7.203  0.2430  0.2968  0.0067
   25POPC   C3B  672   2.170   1.845   6.846  0.3847  0.1713  0.2440
   25POPC   C4B  673   2.192   1.426   6.650  0.0322 -0.1832 -0.1144
   26POPC   NC3  674   4.576   7.392   9.697 -0.0209  0.1007 -0.0682
   26POPC   PO4  675   4.815   7.664   9.948 -0.0759 -0.0391  0.4121
   26POPC   GL1  676   4.842   7.773   9.421  0.5391 -0.3546 -0.0927
   26POPC   GL2  677   4.607   7.648   9.243  0.0317 -0.2130 -0.3346
   26POPC   C1A  678   5.121   7.975   9.106 -0.1438 -0.0878 -0.2272
   26POPC   D2A  679   5.417   8.189   9.118 -0.1326 -0.0012  0.0432
   26POPC   C3A  680   5.419   8.529   8.877 -0.1625 -0.2642 -0.1544
   26POPC   C4A  681   5.511   9.059   8.770  0.4063 -0.3086 -0.2425
   26POPC   C1B  682   4.742   7.641   8.865  0.0100  0.1448 -0.1113
   26POPC   C2B  683   4.690   7.349   8.472 -0.0788  0.1287  0.0667
   26POPC   C3B  684   4.979   7.387   8.167 -0.1901 -0.1481  0.1779
   26POPC   C4B  685   5.114   7.166   7.774  0.4725 -0.0886  0.2420
   27POPC   NC3  686   7.479   4.151   8.078 -0.0242  0.4671 -0.0579
   27POPC   PO4  687   7.352   3.780   8.014  0.1324  0.1901  0.3358
   27POPC   GL1  688   7.285   3.639   7.631  0.1525  0.0964  0.0949
   27POPC   GL2  689   7.000   3.575   7.627  0.0426 -0.0818 -0.2070
   27POPC   C1A  690   7.334   3.360   7.325  0.4758  0.3146  0.1316
   27POPC   D2A  691   7.375   3.216   6.951 -0.0637 -0.1846 -0.1011
   27POPC   C3A  692   7.393   3.604   6.678  0.1951 -0.1413  0.4196
   27POPC   C4A  693   7.098   3.577   6.321 -0.1327  0.0325 -0.0171
   27POPC   C1B  694   6.873   3.792   7.228 -0.0595 -0.1404 -0.1418
   27POPC   C2B  695   6.957   3.859   6.848  0.2330 -0.1830 -0.3976
   27POPC   C3B  696   6.663   3.835   6.544 -0.4169 -0.1862  0.0428
   27POPC   C4B  697   6.464   4.200   6.391 -0.0732  0.2127 -0.0008
   28POPC   NC3  698   3.846   5.977   8.988  0.1096 -0.1409  0.1157
   28POPC   PO4  699   3.999   5.678   8.800 -0.1258  0.1483  0.0706
   28POPC   GL1  700   3.927   5.815   8.386  0.4557  0.0176 -0.3181
   28POPC   GL2  701   3.764   6.060   8.423  0.2295  0.1750  0.0142
   28POPC   C1A  702   3.972   5.761   7.882  0.2370 -0.0082 -0.0156
   28POPC   D2A  703   4.072   5.957   7.481  0.0917 -0.1634  0.0715
   28POPC   C3A  704   3.936   5.799   7.036  0.1252  0.2255 -0.1904
   28POPC   C4A  705   3.879   5.259   6.942  0.1167 -0.1856  0.0796
   28POPC   C1B  706   4.128   6.210   8.117 -0.3146 -0.0207  0.0166
   28POPC   C2B  707   4.174   6.596   7.830  0.1808 -0.0843 -0.0266
   28POPC   C3B  708   4.353   6.670   7.422  0.4434  0.0998  0.0062
   28POPC   C4B  709   4.618   6.451   7.126 -0.1570  0.3829 -0.1304
   29POPC   NC3  710   3.484   8.430   9.626 -0.1543  0.1531  0.2022
   29POPC   PO4  711   3.584   8.209   9.207  0.4351  0.0304  0.0032
   29POPC   GL1  712   3.693   8.152   8.797 -0.4237  0.0735  0.3386
   29POPC   GL2  713   3.462   7.957   8.610  0.0194 -0.0986  0.1145
   29POPC   C1A  714   3.957   8.073   8.501  0.1892 -0.0245  0.1782
   29POPC   D2A  715   4.298   8.279   8.373 -0.0411  0.2403 -0.4621
   29POPC   C3A  716   4.529   8.237   7.983  0.0885  0.3183  0.1274
   29POPC   C4A  717   4.711   7.928   7.849  0.0618  0.2482 -0.1421
   29POPC   C1B  718   3.559   7.883   8.132 -0.0734  0.0446 -0.1895
   29POPC   C2B  719   3.685   7.619   7.769  0.3488  0.1498  0.1907
   29POPC   C3B  720   3.899   7.452   7.415  0.1151  0.2132 -0.0389
   29POPC   C4B  721   4.110   7.160   7.465  0.0012  0.1062 -0.0193
   30POPC   NC3  722   2.963   0.487   8.535 -0.0631 -0.1412  0.0653
   30POPC   PO4  723   3.053   0.945   8.578 -0.1523  0.1021 -0.2174
   30POPC   GL1  724   3.087   0.905   8.150  0.1212 -0.0048 -0.1837
   30POPC   GL2  725   3.283   0.771   7.934  0.2262  0.1134 -0.0841
   30POPC   C1A  726   2.929   1.047   7.701  0.0742  0.4158  0.0287
   30POPC   D2A  727   2.867   1.359   7.568  0.2024 -0.0389  0.1286
   30POPC   C3A  728   2.744   1.349   7.132  0.0876  0.0159 -0.2184
   30POPC   C4A  729   2.820   1.157   6.866  0.0081 -0.0357  0.1923
   30POPC   C1B  730   3.079   0.706   7.442  0.1193  0.1101 -0.3024
   30POPC   C2B  731   2.913   0.724   7.035 -0.1914 -0.2074  0.1048
   30POPC   C3B  732   2.994   0.712   6.575  0.0270  0.1289  0.2600
   30POPC   C4B  733   3.212   0.606   6.123  0.1158 -0.1882  0.0663
   31POPC   NC3  734   2.570   5.870   8.912  0.0522  0.1574  0.0158
   31POPC   PO4  735   2.635   6.345   8.745 -0.2003  0.1272 -0.2180
   31POPC   GL1  736   2.651   6.132   8.399  0.0420  0.0562 -0.0626
   31POPC   GL2  737   2.974   6.176   8.223  0.1835  0.5449 -0.2643
   31POPC   C1A  738   2.569   6.205   7.950 -0.0728 -0.2117  0.1932
   31POPC   D2A  739   2.479   5.983   7.447 -0.1121 -0.0658  0.1359
   31POPC   C3A  740   2.491   6.055   7.077 -0.2463  0.1704 -0.0797
   31POPC   C4A  741   2.720   6.074   6.615 -0.1873  0.0573 -0.1971
   31POPC   C1B  742   3.059   6.113   7.770 -0.2845  0.0730  0.2629
   31POPC   C2B  743   3.039   6.049   7.312  0.1080  0.0382 -0.1071
   31POPC   C3B  744   3.082   5.870   6.917 -0.1802 -0.2899 -0.1295
   31POPC   C4B  745   2.858   5.600   6.599 -0.2128 -0.0395 -0.0179
   32POPC   NC3  746   6.358   7.092   8.945  0.0830  0.1052 -0.0885
   32POPC   PO4  747   6.777   6.765   8.998 -0.2042  0.1932 -0.1806
   32POPC   GL1  748   6.789   6.951   8.586 -0.0712  0.0101  0.0022
   32POPC   GL2  749   6.527   7.216   8.503  0.1027 -0.1997  0.2154
   32POPC   C1A  750   6.706   6.757   8.150 -0.2849 -0.0755 -0.0062
   32POPC   D2A  751   6.730   6.884   7.696 -0.0358 -0.0315  0.0295
   32POPC   C3A  752   6.923   7.330   7.505  0.1165 -0.1834 -0.1918
   32POPC   C4A  753   7.066   7.600   7.225  0.0726  0.3556 -0.1976
   32POPC   C1B  754   6.657   7.276   8.070 -0.0661  0.3848 -0.2118
   32POPC   C2B  755   6.378   7.241   7.736 -0.0433 -0.0594  0.2373
   32POPC   C3B  756   6.228   6.852   7.449  0.0247 -0.0167 -0.0404
   32POPC   C4B  757   6.086   6.472   7.297 -0.2043 -0.0829 -0.0102
   33POPC   NC3  758   9.092   8.044   8.490 -0.0120 -0.0571  0.4000
   33POPC   PO4  759   9.200   7.710   8.434  0.0150  0.0000 -0.1833
   33POPC   GL1  760   9.054   7.807   8.006  0.0535 -0.1963  0.2474
   33POPC   GL2  761   9.132   7.596   7.712  0.1028 -0.1507 -0.4048
   33POPC   C1A  762   9.050   8.256   7.827  0.0814 -0.4023 -0.2034
   33POPC   D2A  763   9.322   8.491   7.498 -0.1006 -0.0757 -0.1148
   33POPC   C3A  764   9.211   8.458   7.157 -0.0700 -0.0360  0.2233
   33POPC   C4A  765   8.966   8.306   6.814  0.2320  0.3354 -0.2002
   33POPC   C1B  766   8.999   7.234   7.540 -0.0795 -0.0339  0.0106
   33POPC   C2B  767   9.086   7.063   7.360  0.1343  0.4522 -0.3534
   33POPC   C3B  768   9.165   6.967   6.901  0.1878 -0.0130  0.1020
   33POPC   C4B  769   9.251   7.118   6.469  0.0712 -0.1989 -0.1144
   34POPC   NC3  770   3.615   8.730   8.791  0.0622 -0.0908 -0.1962
   34POPC   PO4  771   3.423   8.528   8.351 -0.0619  0.3225  0.0538
   34POPC   GL1  772   3.593   8.419   8.022 -0.1874  0.3175  0.1221
   34POPC   GL2  773   3.444   8.596   7.812  0.1973  0.0458 -0.0835
   34POPC   C1A  774   4.018   8.128   7.905 -0.1239  0.2227 -0.1626
   34POPC   D2A  775   4.253   7.765   7.677  0.1937 -0.1196  0.0499
   34POPC   C3A  776   4.327   7.451   7.822 -0.1007 -0.1048  0.2097
   34POPC   C4A  777   3.950   7.148   7.939 -0.2911  0.2531 -0.1177
   34POPC   C1B  778   3.850   8.544   7.592  0.1422  0.1016  0.2307
   34POPC   C2B  779   4.192   8.695   7.276  0.0687  0.0302 -0.0331
   34POPC   C3B  780   4.489   8.893   7.035  0.1353  0.1818 -0.2550
   34POPC   C4B  781   4.656   9.260   7.058  0.0137 -0.4089 -0.2350
   35POPC   NC3  782   2.174   9.170   8.508  0.1258 -0.0342  0.1524
   35POPC   PO4  783   2.314   9.161   8.047 -0.2836 -0.0319  0.1393
   35POPC   GL1  784   2.441   9.336   7.594  0.0117  0.1498  0.0729
   35POPC   GL2  785   2.603   9.106   7.580 -0.2220  0.1841  0.1989
   35POPC   C1A  786   2.673   9.577   7.337  0.5203 -0.2550  0.3081
   35POPC   D2A  787   2.524   9.623   6.949  0.0541 -0.2484 -0.0716
   35POPC   C3A  788   2.158   9.574   6.969  0.2260  0.0607 -0.1007
   35POPC   C4A  789   1.930   9.212   7.168  0.3728  0.3026 -0.1562
   35POPC   C1B  790   2.516   9.071   7.179  0.1896 -0.1986  0.0761
   35POPC   C2B  791   2.590   8.790   6.833 -0.1516  0.3319 -0.2207
   35POPC   C3B  792   2.638   8.358   6.553 -0.0015  0.0744 -0.1195
   35POPC   C4B  793   2.996   8.254   6.299 -0.2955  0.2487 -0.0350
   36POPC   NC3  794   7.214   1.100   8.290 -0.1979  0.4838 -0.0475
   36POPC   PO4  795   7.583   0.835   8.504 -0.2433  0.0331 -0.4360
   36POPC   GL1  796   7.459   0.582   8.228  0.1642  0.1035 -0.0031
   36POPC   GL2  797   7.114   0.599   8.132 -0.0261  0.2367  0.4075
   36POPC   C1A  798   7.503   0.819   7.761  0.5296 -0.2235  0.2581
   36POPC   D2A  799   7.685   1.158   7.393 -0.1921 -0.2044 -0.0540
   36POPC   C3A  800   7.584   1.046   7.056  0.0152 -0.2354  0.2006
   36POPC   C4A  801   7.566   0.818   6.687 -0.0188 -0.0128 -0.1147
   36POPC   C1B  802   7.166   0.277   7.829  0.0598  0.1642  0.1478
   36POPC   C2B  803   7.150   0.000   7.423  0.0613  0.1462  0.2300
   36POPC   C3B  804   7.495   0.072   7.082 -0.0448  0.1603  0.0283
   36POPC   C4B  805   7.891   0.193   7.350 -0.1952 -0.4715 -0.2302
   37POPC   NC3  806   3.249   4.077   8.325  0.0726 -0.0005 -0.1315
   37POPC   PO4  807   3.473   4.494   8.315 -0.1317  0.0097 -0.0655
   37POPC   GL1  808   3.568   4.767   7.878  0.2165  0.1779  0.1554
   37POPC   GL2  809   3.584   5.067   7.834 -0.0310  0.1415  0.0708
   37POPC   C1A  810   3.392   4.653   7.440  0.2232 -0.3642  0.0592
   37POPC   D2A  811   3.562   4.559   7.095  0.1601 -0.2618  0.1081
   37POPC   C3A  812   3.555   4.783   6.874 -0.2028  0.1327 -0.0163
   37POPC   C4A  813   3.375   5.150   6.755  0.0202 -0.0108  0.2688
   37POPC   C1B  814   3.827   4.912   7.433 -0.0861 -0.1591 -0.1041
   37POPC   C2B  815   4.066   4.767   7.104 -0.1841 -0.1661 -0.1752
   37POPC   C3B  816   4.020   4.859   6.641  0.0139 -0.2614  0.0838
   37POPC   C4B  817   4.109   5.100   6.330  0.2011  0.0553  0.2803
   38POPC   NC3  818   1.351   4.054   8.302  0.2301  0.0017 -0.0121
   38POPC   PO4  819   1.010   3.769   8.266  0.1807 -0.0089 -0.0559
   38POPC   GL1  820   0.894   3.518   7.846 -0.2091  0.0271  0.1763
   38POPC   GL2  821   0.526   3.372   7.857  0.0643  0.2341  0.1973
   38POPC   C1A  822   0.927   3.418   7.517 -0.0519 -0.0666  0.1469
   38POPC   D2A  823   1.186   3.487   7.254 -0.1696 -0.1484  0.1135
   38POPC   C3A  824   1.074   3.293   6.814  0.2472  0.0950  0.0974
   38POPC   C4A  825   0.795   3.131   6.517 -0.0147  0.0265 -0.2767
   38POPC   C1B  826   0.396   3.131   7.473 -0.3951 -0.1428  0.0853
   38POPC   C2B  827   0.256   2.906   7.157 -0.1861  0.2232  0.0241
   38POPC   C3B  828   0.013   2.908   6.867  0.0143  0.2964 -0.1179
   38POPC   C4B  829  -0.021   2.730   6.553  0.0755 -0.2500 -0.0329
   39POPC   NC3  830   4.052   1.778   7.859  0.1737 -0.0797 -0.1307
   39POPC   PO4  831   4.509   1.896   7.942 -0.3135  0.3116 -0.2401
   39POPC   GL1  832   4.535   1.689   7.556 -0.0295  0.0646  0.0424
   39POPC   GL2  833   4.193   1.658   7.394 -0.0038  0.0900 -0.1471
   39POPC   C1A  834   4.711   1.556   7.172  0.1480 -0.0370 -0.2196
   39POPC   D2A  835   4.807   1.968   6.911  0.0549  0.2494 -0.2351
   39POPC   C3A  836   4.957   1.936   6.413 -0.2356  0.6376 -0.2260
   39POPC   C4A  837   5.442   2.107   6.237  0.0171 -0.1140  0.2063
   39POPC   C1B  838   4.367   1.955   7.145 -0.0713 -0.2449  0.0914
   39POPC   C2B  839   4.510   2.440   7.121 -0.1025 -0.0266  0.3475
   39POPC   C3B  840   4.684   2.817   7.165  0.0300 -0.0262  0.0654
   39POPC   C4B  841   4.874   3.060   6.943 -0.1059 -0.1178 -0.0439
   40POPC   NC3  842   2.603   4.767   8.490  0.1432  0.3111  0.3862
   40POPC   PO4  843   2.146   4.751   8.223  0.1131 -0.0201  0.2745
   40POPC   GL1  844   2.308   4.860   7.786  0.2012 -0.0512 -0.3911
   40POPC   GL2  845   2.166   5.101   7.765  0.0388 -0.4917  0.0764
   40POPC   C1A  846   2.252   4.742   7.350  0.0418  0.1027  0.3461
   40POPC   D2A  847   2.309   4.678   6.870  0.1435 -0.0948  0.2619
   40POPC   C3A  848   2.303   4.422   6.498 -0.1310  0.0128 -0.1528
   40POPC   C4A  849   2.609   4.158   6.434  0.1983  0.0593 -0.0092
   40POPC   C1B  850   2.642   5.197   7.597 -0.0361  0.0428 -0.0529
   40POPC   C2B  851   3.047   5.232   7.498  0.2304  0.1975  0.0713
   40POPC   C3B  852   3.458   5.220   7.351 -0.0463 -0.0704  0.1475
   40POPC   C4B  853   3.863   5.459   7.405  0.1867 -0.1626 -0.0286
   41POPC   NC3  854   6.464   1.322   7.998 -0.0937 -0.2073  0.2509
   41POPC   PO4  855   6.610   1.864   7.900  0.0652 -0.0652 -0.3428
   41POPC   GL1  856   6.819   1.912   7.536 -0.0069  0.1099  0.0769
   41POPC   GL2  857   6.783   2.223   7.467 -0.2918 -0.0706 -0.0420
   41POPC   C1A  858   6.977   1.866   7.192 -0.0625  0.2105  0.0938
   41POPC   D2A  859   6.915   1.953   6.852 -0.1666  0.0287 -0.0862
   41POPC   C3A  860   7.039   1.930   6.491  0.0452  0.0681 -0.0580
   41POPC   C4A  861   7.236   1.603   6.235 -0.0351 -0.6907  0.0804
   41POPC   C1B  862   7.116   2.391   7.183 -0.1692 -0.0842 -0.0738
   41POPC   C2B  863   7.329   2.341   6.752 -0.2423  0.3753 -0.2319
   41POPC   C3B  864   7.483   2.140   6.332 -0.0017  0.1411  0.0827
   41POPC   C4B  865   7.629   2.251   5.978  0.0491  0.1272  0.0487
   42POPC   NC3  866   9.494   6.526   8.575  0.1609 -0.1728 -0.1050
   42POPC   PO4  867   9.737   6.348   8.359 -0.1313  0.4288 -0.1759
   42POPC   GL1  868   9.697   6.544   8.064 -0.1458  0.0642 -0.3466
   42POPC   GL2  869   9.934   6.459   7.864 -0.0754  0.1055 -0.0025
   42POPC   C1A  870   9.502   6.656   7.645  0.3527  0.0174 -0.0184
   42POPC   D2A  871   9.568   6.757   7.276  0.1923  0.0577  0.1848
   42POPC   C3A  872   9.665   6.720   6.889  0.0968  0.0758  0.3899
   42POPC   C4A  873   9.512   6.712   6.560  0.1409  0.0648  0.0913
   42POPC   C1B  874   9.890   6.406   7.463 -0.1897  0.3578 -0.0130
   42POPC   C2B  875   9.430   6.237   7.171  0.2780  0.2700 -0.0768
   42POPC   C3B  876   9.118   6.375   7.010 -0.0597  0.0016 -0.0450
   42POPC   C4B  877   8.943   6.621   6.605 -0.0384 -0.0257  0.0578
   43POPC   NC3  878   8.556   7.292   9.035  0.0578  0.4190  0.3313
   43POPC   PO4  879   8.094   7.176   8.831  0.1486  0.2931 -0.2993
   43POPC   GL1  880   7.881   7.136   8.378 -0.4943  0.3051  0.0802
   43POPC   GL2  881   8.013   7.333   8.194  0.0738 -0.0458  0.1164
   43POPC   C1A  882   7.555   7.378   8.179 -0.3886 -0.0501 -0.0580
   43POPC   D2A  883   7.069   7.500   8.297  0.2053 -0.2434  0.0771
   43POPC   C3A  884   6.934   7.721   8.003  0.0632  0.0017 -0.1046
   43POPC   C4A  885   6.829   7.922   7.609 -0.2934 -0.1011  0.4657
   43POPC   C1B  886   7.891   7.557   7.837  0.2533  0.1865  0.0640
   43POPC   C2B  887   7.691   7.922   7.518  0.0003 -0.1123 -0.0486
   43POPC   C3B  888   7.399   8.025   7.134 -0.2395  0.1445 -0.0520
   43POPC   C4B  889   7.264   8.373   6.839 -0.1157 -0.0868 -0.0203
   44POPC   NC3  890   9.177   6.600   9.044 -0.1565 -0.0455 -0.4938
   44POPC   PO4  891   8.933   6.777   8.729  0.1039 -0.0659  0.1037
   44POPC   GL1  892   8.927   6.789   8.223  0.3565  0.1187  0.1544
   44POPC   GL2  893   9.168   6.627   8.135  0.0067  0.1220 -0.3811
   44POPC   C1A  894   8.892   6.754   7.708  0.0723  0.3134  0.0487
   44POPC   D2A  895   8.865   6.618   7.316  0.0371 -0.0872 -0.5245
   44POPC   C3A  896   8.687   6.599   6.990  0.1018  0.1284  0.2847
   44POPC   C4A  897   8.307   6.872   6.742  0.1940  0.0088 -0.0587
   44POPC   C1B  898   9.376   7.010   7.976  0.0535  0.0888  0.0452
   44POPC   C2B  899   9.486   7.251   7.569 -0.3673  0.0023 -0.1984
   44POPC   C3B  900   9.706   7.352   7.113  0.3715  0.2348  0.2260
   44POPC   C4B  901   9.699   7.195   6.727 -0.2900  0.2717  0.1700
   45POPC   NC3  902   2.891   5.731   8.537 -0.2425  0.2748  0.3698
   45POPC   PO4  903   2.456   5.638   8.412  0.0863 -0.0382  0.1654
   45POPC   GL1  904   2.508   5.681   7.968  0.3120  0.0964 -0.4259
   45POPC   GL2  905   2.824   5.699   7.998 -0.3808 -0.1499  0.2248
   45POPC   C1A  906   2.269   5.540   7.523 -0.2325 -0.0060  0.0792
   45POPC   D2A  907   2.250   5.200   7.236  0.0018  0.2282 -0.0751
   45POPC   C3A  908   2.577   5.115   7.105  0.0797 -0.0012 -0.3944
   45POPC   C4A  909   2.829   5.156   6.709  0.1734  0.0867 -0.1093
   45POPC   C1B  910   2.853   5.695   7.607  0.0447  0.2401 -0.1923
   45POPC   C2B  911   2.704   5.610   7.193 -0.1297 -0.2113 -0.2990
   45POPC   C3B  912   3.072   5.405   7.033  0.0059 -0.1147 -0.1845
   45POPC   C4B  913   3.077   4.906   7.112  0.0969  0.0301  0.1342
   46POPC   NC3  914   8.757   7.244   8.524  0.0529  0.0838 -0.0310
   46POPC   PO4  915   8.396   6.940   8.492 -0.0841 -0.0334 -0.1126
   46POPC   GL1  916   8.504   6.965   8.024 -0.3482  0.1309  0.0795
   46POPC   GL2  917   8.229   6.887   7.990  0.0367 -0.2585  0.0097
   46POPC   C1A  918   8.498   7.198   7.668 -0.0723 -0.2116 -0.1249
   46POPC   D2A  919   8.625   7.060   7.242  0.0978 -0.1979  0.2529
   46POPC   C3A  920   8.736   7.545   7.014 -0.0615  0.1041  0.1146
   46POPC   C4A  921   8.834   7.790   6.672  0.0749 -0.1130 -0.2059
   46POPC   C1B  922   8.008   7.067   7.555 -0.1963 -0.1408 -0.0536
   46POPC   C2B  923   8.117   7.074   7.206 -0.3029  0.1819  0.0087
   46POPC   C3B  924   7.901   7.185   6.948  0.2077 -0.1580 -0.3315
   46POPC   C4B  925   7.841   7.602   6.713  0.0921 -0.0854 -0.3570
   47POPC   NC3  926   6.543   0.685   8.810  0.0867 -0.0949  0.2101
   47POPC   PO4  927   6.293   1.005   8.789 -0.1877  0.1746  0.0443
   47POPC   GL1  928   6.420   0.843   8.358  0.4034 -0.0401  0.1260
   47POPC   GL2  929   6.618   0.889   8.123  0.2602  0.3117 -0.1604
   47POPC   C1A  930   6.202   0.670   7.992 -0.2049  0.0453 -0.1734
   47POPC   D2A  931   6.230   0.849   7.570 -0.2402  0.3708  0.0369
   47POPC   C3A  932   5.962   0.803   7.249 -0.0164 -0.1748 -0.1291
   47POPC   C4A  933   5.849   0.927   6.905 -0.2892  0.1205 -0.1482
   47POPC   C1B  934   6.892   0.795   7.692 -0.0477  0.2131 -0.0340
   47POPC   C2B  935   6.958   0.469   7.309 -0.1589 -0.1283  0.0506
   47POPC   C3B  936   7.031   0.129   6.906 -0.1535 -0.1614  0.0141
   47POPC   C4B  937   6.837  -0.321   6.986 -0.1734 -0.0781  0.1274
   48POPC   NC3  938   2.391   6.845   8.448 -0.0747 -0.0272  0.2679
   48POPC   PO4  939   2.076   7.012   8.191  0.0664 -0.0547  0.1624
   48POPC   GL1  940   1.896   7.209   7.867  0.2460 -0.2912 -0.0573
   48POPC   GL2  941   1.595   7.326   7.936  0.0769  0.0513  0.1910
   48POPC   C1A  942   1.975   7.468   7.563  0.2920  0.3245 -0.0214
   48POPC   D2A  943   2.089   7.748   7.222  0.0308 -0.0333  0.1961
   48POPC   C3A  944   2.305   8.086   7.395 -0.3945 -0.1110  0.0090
   48POPC   C4A  945   2.656   8.430   7.371 -0.2497  0.1171 -0.2289
   48POPC   C1B  946   1.376   7.459   7.552 -0.3404 -0.0744 -0.1213
   48POPC   C2B  947   1.330   7.588   7.112  0.1100 -0.0401  0.0900
   48POPC   C3B  948   1.115   7.977   6.743 -0.2766 -0.0824 -0.0938
   48POPC   C4B  949   0.950   8.068   6.386 -0.1764  0.2123 -0.1971
   49POPC   NC3  950   7.607   1.946   8.313 -0.1201  0.2572  0.0662
   49POPC   PO4  951   7.345   1.826   8.091  0.0814 -0.0295 -0.0086
   49POPC   GL1  952   7.318   1.760   7.712  0.0395  0.3392  0.2242
   49POPC   GL2  953   7.366   2.030   7.495 -0.0034  0.2298 -0.1194
   49POPC   C1A  954   7.344   1.496   7.389 -0.0777 -0.1772  0.4932
   49POPC   D2A  955   7.216   1.496   6.969  0.2650  0.0432  0.0973
   49POPC   C3A  956   7.105   1.193   6.572 -0.1478  0.1506 -0.1763
   49POPC   C4A  957   7.202   0.841   6.362  0.0720  0.0206  0.4782
   49POPC   C1B  958   7.488   1.904   7.057  0.0262 -0.2938  0.0760
   49POPC   C2B  959   7.541   1.763   6.648  0.3882 -0.1260 -0.3707
   49POPC   C3B  960   7.745   1.669   6.206  0.2393 -0.2738  0.0421
   49POPC   C4B  961   8.200   1.537   6.069  0.1041 -0.0067 -0.0455
   50POPC   NC3  962   0.615   3.974   8.438 -0.0163 -0.2046 -0.1217
   50POPC   PO4  963   0.290   4.190   8.308  0.0350 -0.1811  0.5405
   50POPC   GL1  964   0.563   4.013   7.962  0.0613 -0.1711 -0.0274
   50POPC   GL2  965   0.339   3.830   7.701 -0.1345 -0.2860 -0.1493
   50POPC   C1A  966   0.848   4.004   7.560 -0.4116 -0.4056  0.0902
   50POPC   D2A  967   0.868   4.093   7.204  0.2233 -0.1947 -0.0756
   50POPC   C3A  968   0.854   4.581   7.119  0.1240 -0.0699  0.0912
   50POPC   C4A  969   1.014   4.993   6.786 -0.1993 -0.4117 -0.1611
   50POPC   C1B  970   0.503   3.672   7.392 -0.0433  0.1079  0.0050
   50POPC   C2B  971   0.382   3.887   7.063  0.1951  0.1581  0.1310
   50POPC   C3B  972   0.464   4.278   6.898  0.0115  0.0845  0.2532
   50POPC   C4B  973   0.543   4.533   6.533  0.0744 -0.1243 -0.0483
   51POPC   NC3  974   4.751   5.678   9.339 -0.1685  0.0879 -0.0419
   51POPC   PO4  975   5.084   5.942   9.051  0.0306  0.0555 -0.0638
   51POPC   GL1  976   5.047   5.992   8.562  0.0644 -0.0706 -0.0420
   51POPC   GL2  977   4.814   6.190   8.352 -0.1785  0.2229 -0.0921
   51POPC   C1A  978   5.091   5.868   8.109  0.0488  0.0463 -0.2016
   51POPC   D2A  979   5.132   6.085   7.795  0.0961  0.1908 -0.4072
   51POPC   C3A  980   5.247   5.946   7.449 -0.1029 -0.2378 -0.2836
   51POPC   C4A  981   5.632   5.793   7.403 -0.2156  0.0193  0.0381
   51POPC   C1B  982   4.624   5.985   8.098  0.2595  0.0490 -0.0834
   51POPC   C2B  983   4.772   5.612   7.757 -0.2040  0.0324 -0.2161
   51POPC   C3B  984   4.844   5.606   7.359  0.1912 -0.1011 -0.0218
   51POPC   C4B  985   4.736   5.463   6.960  0.0778 -0.1043 -0.2524
   52POPC   NC3  986   1.357   5.635   8.135 -0.1429 -0.0761  0.1994
   52POPC   PO4  987   1.153   5.400   7.911 -0.1992 -0.2085  0.1751
   52POPC   GL1  988   1.443   5.205   7.636  0.0029  0.1133 -0.3959
   52POPC   GL2  989   1.783   5.408   7.457 -0.1027 -0.0019 -0.1786
   52POPC   C1A  990   1.747   4.936   7.407 -0.0351  0.2606 -0.0241
   52POPC   D2A  991   1.830   4.821   6.982 -0.1067  0.1708  0.2021
   52POPC   C3A  992   1.900   4.440   6.777 -0.0389 -0.0422  0.1881
   52POPC   C4A  993   1.679   4.068   6.683 -0.3079 -0.0757 -0.1053
   52POPC   C1B  994   1.636   5.314   7.119  0.1534 -0.2276 -0.1330
   52POPC   C2B  995   1.754   5.545   6.710 -0.0497 -0.1029 -0.1588
   52POPC   C3B  996   1.592   5.618   6.355 -0.0513 -0.3303  0.1221
   52POPC   C4B  997   1.390   5.376   6.027  0.0974 -0.1148  0.1140
   53POPC   NC3  998   7.580   4.141   8.618  0.0643 -0.0589  0.0612
   53POPC   PO4  999   7.875   4.279   8.406  0.3756 -0.1720  0.0862
   53POPC   GL1 1000   7.961   4.154   7.977 -0.0387  0.2790  0.5093
   53POPC   GL2 1001   8.006   3.846   7.862  0.1144 -0.0853 -0.2986
   53POPC   C1A 1002   7.887   4.155   7.446  0.0601 -0.0194 -0.0012
   53POPC   D2A 1003   7.885   3.890   7.016  0.2551 -0.1013 -0.2162
   53POPC   C3A 1004   7.923   3.541   6.971 -0.0589 -0.1554  0.0711
   53POPC   C4A 1005   7.760   3.289   6.630 -0.1572  0.1009 -0.0926
   53POPC   C1B 1006   8.190   3.753   7.406 -0.1190 -0.0819  0.1511
   53POPC   C2B 1007   8.359   3.919   6.932  0.2232  0.1569 -0.1100
   53POPC   C3B 1008   8.468   4.157   6.622  0.0276 -0.1004  0.2805
   53POPC   C4B 1009   8.619   4.560   6.385 -0.1689  0.0131 -0.1824
   54POPC   NC3 1010   4.967   4.345   8.358  0.4699  0.2021 -0.1611
   54POPC   PO4 1011   4.485   4.130   8.377  0.0680  0.2361  0.0440
   54POPC   GL1 1012   4.599   4.139   7.990  0.3865  0.2461 -0.2993
   54POPC   GL2 1013   4.357   4.290   7.852  0.1191  0.2149  0.0243
   54POPC   C1A 1014   4.764   4.310   7.561 -0.0272 -0.0368  0.2305
   54POPC   D2A 1015   4.948   4.561   7.280 -0.2513 -0.2499  0.1450
   54POPC   C3A 1016   5.062   4.445   6.870 -0.2116 -0.0512  0.0377
   54POPC   C4A 1017   5.021   4.496   6.472 -0.1552 -0.2617 -0.2282
   54POPC   C1B 1018   4.443   4.684   7.531  0.0483 -0.2062 -0.1410
   54POPC   C2B 1019   4.512   5.020   7.251  0.1383 -0.1148 -0.1111
   54POPC   C3B 1020   4.363   5.157   6.851 -0.1406 -0.0084  0.1297
   54POPC   C4B 1021   4.578   5.009   6.458  0.1053  0.1270 -0.1718
   55POPC   NC3 1022   5.542   5.802   8.704 -0.0405 -0.1833  0.0534
   55POPC   PO4 1023   5.834   6.150   8.906 -0.0477  0.0447 -0.2763
   55POPC   GL1 1024   5.744   6.255   8.529 -0.4183  0.2104 -0.1065
   55POPC   GL2 1025   5.592   6.026   8.276 -0.0610  0.0303  0.2439
   55POPC   C1A 1026   5.293   6.398   8.265  0.4368 -0.2105 -0.1480
   55POPC   D2A 1027   4.944   6.595   8.042  0.1362  0.0941  0.1885
   55POPC   C3A 1028   4.767   6.974   8.127 -0.1323 -0.0658 -0.2468
   55POPC   C4A 1029   4.485   6.990   7.836  0.1269  0.1136 -0.1909
   55POPC   C1B 1030   5.664   6.079   7.849 -0.0081 -0.1930 -0.1268
   55POPC   C2B 1031   5.598   6.382   7.474  0.0304 -0.1865  0.0951
   55POPC   C3B 1032   5.604   6.214   7.112 -0.2250 -0.1125  0.2274
   55POPC   C4B 1033   5.595   5.904   6.870 -0.0018  0.0142 -0.0099
   56POPC   NC3 1034   9.625   9.623   8.778  0.0640  0.1892  0.0895
   56POPC   PO4 1035   9.340   9.709   8.368 -0.0504  0.2398 -0.2378
   56POPC   GL1 1036   9.348   9.525   8.031 -0.0911  0.0952  0.3234
   56POPC   GL2 1037   9.325   9.788   7.778 -0.3086  0.3015  0.2471
   56POPC   C1A 1038   9.209   9.097   7.857  0.0960  0.0083 -0.2193
   56POPC   D2A 1039   9.079   8.928   7.531 -0.0734  0.2915 -0.0804
   56POPC   C3A 1040   9.034   9.117   7.085 -0.2312 -0.0279  0.0560
   56POPC   C4A 1041   8.705   9.272   6.736  0.5009 -0.1088 -0.5072
   56POPC   C1B 1042   9.471   9.912   7.324 -0.0154 -0.1512 -0.4121
   56POPC   C2B 1043   9.374  10.094   6.885 -0.4943 -0.0185 -0.0195
   56POPC   C3B 1044   9.617  10.246   6.447 -0.0951 -0.3432 -0.0572
   56POPC   C4B 1045   9.577  10.617   6.231 -0.2261 -0.0876  0.0409
   57POPC   NC3 1046   1.946   0.760   8.947 -0.3110 -0.0975  0.2437
   57POPC   PO4 1047   1.692   0.677   8.544 -0.0003  0.2348 -0.0924
   57POPC   GL1 1048   1.828   0.712   8.194  0.2712 -0.0784 -0.1959
   57POPC   GL2 1049   1.844   0.385   8.140  0.0528  0.0809  0.0605
   57POPC   C1A 1050   2.021   0.766   7.823 -0.0367  0.0663  0.0841
   57POPC   D2A 1051   1.974   0.784   7.405 -0.0649  0.1597  0.3123
   57POPC   C3A 1052   2.175   0.712   7.105 -0.0796  0.1346  0.0043
   57POPC   C4A 1053   2.328   1.036   6.922  0.0480 -0.0269  0.1702
   57POPC   C1B 1054   1.879   0.316   7.719  0.0498 -0.0679 -0.2710
   57POPC   C2B 1055   1.869   0.243   7.251 -0.0180  0.1750  0.2214
   57POPC   C3B 1056   1.849   0.381   6.888  0.0285  0.3728  0.1366
   57POPC   C4B 1057   1.820   0.374   6.394 -0.2472 -0.0724  0.0868
   58POPC   NC3 1058   1.473   8.849   7.945  0.0818  0.2088 -0.2138
   58POPC   PO4 1059   1.349   9.213   7.862  0.0823 -0.2231  0.1332
   58POPC   GL1 1060   1.663   9.087   7.576  0.0673 -0.0418 -0.0700
   58POPC   GL2 1061   2.014   9.002   7.697  0.1236  0.0628 -0.0670
   58POPC   C1A 1062   1.660   8.784   7.278  0.2383 -0.2287  0.0439
   58POPC   D2A 1063   1.889   8.371   7.196 -0.2650 -0.0602  0.1920
   58POPC   C3A 1064   2.312   8.280   6.950  0.0173 -0.1649 -0.2366
   58POPC   C4A 1065   2.378   7.783   6.838  0.2922  0.0312 -0.1887
   58POPC   C1B 1066   2.130   8.778   7.414  0.1857  0.3470 -0.2758
   58POPC   C2B 1067   2.060   8.791   6.923  0.3339 -0.0871 -0.1135
   58POPC   C3B 1068   1.977   8.585   6.482 -0.0268 -0.4472 -0.0073
   58POPC   C4B 1069   2.016   8.374   6.025  0.1498  0.1287  0.2513
   59POPC   NC3 1070   4.915   3.381   8.514  0.1837 -0.0217  0.2412
   59POPC   PO4 1071   5.310   3.470   8.371  0.1006  0.3141 -0.0981
   59POPC   GL1 1072   5.184   3.393   7.979  0.2238 -0.2051  0.1932
   59POPC   GL2 1073   4.974   3.557   7.842 -0.0002  0.2380  0.1948
   59POPC   C1A 1074   5.266   3.267   7.546  0.1988  0.0512  0.0412
   59POPC   D2A 1075   5.161   2.875   7.292  0.3103  0.1382 -0.1929
   59POPC   C3A 1076   5.509   2.697   7.083  0.0734 -0.0478 -0.1485
   59POPC   C4A 1077   6.019   2.722   7.036 -0.2593  0.2685 -0.2779
   59POPC   C1B 1078   4.968   3.790   7.531 -0.1702 -0.0398 -0.1381
   59POPC   C2B 1079   4.988   4.039   7.236 -0.2963  0.1326 -0.2793
   59POPC   C3B 1080   4.684   4.125   6.973  0.1710 -0.2946 -0.1240
   59POPC   C4B 1081   4.483   4.604   6.934  0.0153  0.1055 -0.0638
   60POPC   NC3 1082   8.648   4.595   8.874 -0.0653 -0.2176  0.0416
   60POPC   PO4 1083   8.299   4.523   8.600  0.0697 -0.0228  0.1192
   60POPC   GL1 1084   8.224   4.584   8.191 -0.1716  0.0081  0.2213
   60POPC   GL2 1085   8.399   4.336   8.117 -0.1273 -0.0575 -0.1807
   60POPC   C1A 1086   8.083   4.602   7.738  0.1856 -0.0136  0.3989
   60POPC   D2A 1087   8.186   4.695   7.396 -0.0861 -0.2126  0.0768
   60POPC   C3A 1088   8.558   4.769   7.427  0.0116  0.0325  0.1657
   60POPC   C4A 1089   8.964   5.032   7.471 -0.2260  0.2242 -0.2404
   60POPC   C1B 1090   8.473   4.171   7.718  0.4089 -0.0653  0.2259
   60POPC   C2B 1091   8.627   4.181   7.336 -0.1307 -0.0528  0.1541
   60POPC   C3B 1092   8.751   4.485   7.078  0.1451  0.0758  0.3139
   60POPC   C4B 1093   8.515   4.898   6.829 -0.0812 -0.0963 -0.1891
   61POPC   NC3 1094   7.634   3.203   8.505  0.2047  0.1316 -0.0524
   61POPC   PO4 1095   7.501   3.355   8.145  0.2436 -0.2092 -0.0230
   61POPC   GL1 1096   7.742   3.402   7.770  0.0392 -0.1781 -0.0897
   61POPC   GL2 1097   7.977   3.330   7.685  0.1539 -0.2896  0.0435
   61POPC   C1A 1098   7.700   3.649   7.438 -0.4109  0.2757  0.2269
   61POPC   D2A 1099   7.405   3.953   7.145 -0.0366  0.3567  0.0924
   61POPC   C3A 1100   7.500   4.075   6.707 -0.1366 -0.0036 -0.2664
   61POPC   C4A 1101   7.500   3.864   6.298  0.4682  0.1417 -0.0027
   61POPC   C1B 1102   7.870   3.112   7.268 -0.1901  0.0738  0.1028
   61POPC   C2B 1103   7.742   2.806   7.016 -0.0855 -0.1174  0.0335
   61POPC   C3B 1104   7.489   2.832   6.666 -0.1263  0.0518 -0.1705
   61POPC   C4B 1105   7.247   3.076   6.397  0.1026  0.3165 -0.2347
   62POPC   NC3 1106   8.363   1.102   8.463  0.0748 -0.4455  0.0741
   62POPC   PO4 1107   7.952   0.981   8.205  0.4108  0.6825 -0.0861
   62POPC   GL1 1108   8.048   0.811   7.795  0.1622  0.0930 -0.3166
   62POPC   GL2 1109   8.296   0.816   7.621  0.1155  0.0471  0.2448
   62POPC   C1A 1110   7.887   0.704   7.386 -0.0759  0.1607  0.0438
   62POPC   D2A 1111   7.860   0.598   6.999 -0.0530 -0.0392 -0.1498
   62POPC   C3A 1112   8.009   0.175   6.897  0.0717 -0.1117  0.2899
   62POPC   C4A 1113   7.726  -0.085   6.613  0.0356 -0.0124 -0.3195
   62POPC   C1B 1114   8.135   1.147   7.271  0.0553  0.0140 -0.0780
   62POPC   C2B 1115   8.039   1.025   6.873 -0.0019 -0.0929 -0.2799
   62POPC   C3B 1116   8.234   1.060   6.502 -0.1657  0.0613  0.2442
   62POPC   C4B 1117   8.208   1.053   6.034 -0.2005  0.1260  0.1935
   63POPC   NC3 1118   8.800   1.787   8.128  0.0450  0.0564 -0.1568
   63POPC   PO4 1119   9.086   2.017   7.913 -0.2061 -0.1018 -0.0044
   63POPC   GL1 1120   9.039   2.328   7.650 -0.3650  0.1854 -0.2413
   63POPC   GL2 1121   8.877   2.590   7.750 -0.1482  0.4609  0.1046
   63POPC   C1A 1122   8.735   2.296   7.327 -0.0755 -0.1730 -0.0901
   63POPC   D2A 1123   8.500   2.084   7.235  0.0814  0.0885  0.0081
   63POPC   C3A 1124   8.552   2.004   6.857  0.0058  0.2263 -0.1433
   63POPC   C4A 1125   8.872   2.150   6.613  0.1171  0.1219  0.0314
   63POPC   C1B 1126   9.074   2.717   7.435  0.1111  0.0580  0.0939
   63POPC   C2B 1127   9.171   2.903   7.074  0.1001 -0.2746 -0.1476
   63POPC   C3B 1128   9.019   3.158   6.764 -0.0871  0.0051  0.2176
   63POPC   C4B 1129   9.119   3.633   6.690  0.0438 -0.2065  0.4290
   64POPC   NC3 1130   8.287   5.609   8.545 -0.1475 -0.2047 -0.2399
   64POPC   PO4 1131   8.599   5.948   8.425  0.4944  0.1073  0.2350
   64POPC   GL1 1132   8.737   6.234   8.069 -0.0051 -0.0510 -0.1216
   64POPC   GL2 1133   8.336   6.435   8.119 -0.1698  0.3972 -0.4236
   64POPC   C1A 1134   8.603   6.310   7.723 -0.3161  0.0168 -0.0568
   64POPC   D2A 1135   8.455   6.226   7.276 -0.3046 -0.1731 -0.0876
   64POPC   C3A 1136   8.195   6.396   6.855 -0.0388  0.1790 -0.0861
   64POPC   C4A 1137   8.052   6.325   6.454  0.2205  0.2540  0.1756
   64POPC   C1B 1138   8.144   6.421   7.865 -0.1622 -0.2683  0.0278
   64POPC   C2B 1139   8.017   6.060   7.590 -0.0821 -0.0059 -0.1503
   64POPC   C3B 1140   7.916   6.021   7.150  0.1796  0.1168 -0.1024
   64POPC   C4B 1141   7.946   5.864   6.802  0.1928  0.1398  0.5316
   65POPC   NC3 1142   0.490   6.051   8.129  0.0416 -0.0465 -0.0412
   65POPC   PO4 1143   0.901   5.885   8.237 -0.1843 -0.0043  0.1066
   65POPC   GL1 1144   1.054   5.972   7.812 -0.1621  0.2362 -0.0977
   65POPC   GL2 1145   1.309   5.755   7.608 -0.0246  0.1434  0.1812
   65POPC   C1A 1146   1.357   6.250   7.579  0.0779 -0.1277  0.0341
   65POPC   D2A 1147   1.657   6.438   7.525 -0.1073  0.0647 -0.0138
   65POPC   C3A 1148   1.834   6.325   7.172 -0.2545 -0.0351  0.4614
   65POPC   C4A 1149   2.197   6.336   6.858 -0.0292 -0.0627 -0.2616
   65POPC   C1B 1150   1.475   5.798   7.257  0.0392 -0.0865 -0.0166
   65POPC   C2B 1151   1.577   5.982   6.813  0.1246 -0.0366 -0.0889
   65POPC   C3B 1152   1.850   6.117   6.611 -0.2888  0.1205  0.0957
   65POPC   C4B 1153   2.285   6.197   6.363  0.1884  0.2798  0.0906
   66POPC   NC3 1154   2.406   2.092   8.301 -0.2058  0.2797 -0.0890
   66POPC   PO4 1155   2.776   2.373   8.254  0.1957 -0.0669 -0.2866
   66POPC   GL1 1156   2.571   2.753   8.048  0.1965 -0.1610 -0.1655
   66POPC   GL2 1157   2.226   2.859   8.150 -0.3762 -0.0268 -0.3358
   66POPC   C1A 1158   2.504   3.127   7.758  0.0284 -0.1096 -0.2142
   66POPC   D2A 1159   2.791   3.462   7.676 -0.1677  0.2392 -0.2659
   66POPC   C3A 1160   3.171   3.574   7.492  0.1795  0.2257 -0.0036
   66POPC   C4A 1161   3.578   3.633   7.368  0.1253 -0.3344  0.0154
   66POPC   C1B 1162   1.967   3.107   8.040 -0.0286  0.0940  0.0944
   66POPC   C2B 1163   1.946   3.399   7.799 -0.0170 -0.0009 -0.0219
   66POPC   C3B 1164   1.949   3.437   7.346 -0.0388 -0.0727  0.0669
   66POPC   C4B 1165   2.199   3.557   6.941 -0.2424 -0.1354  0.3264
   67POPC   NC3 1166   5.265   5.091   8.481 -0.1593 -0.1026 -0.0731
   67POPC   PO4 1167   5.061   5.114   8.125 -0.0260  0.0611 -0.0593
   67POPC   GL1 1168   5.073   5.233   7.706  0.0098 -0.1467  0.0974
   67POPC   GL2 1169   5.351   5.517   7.764  0.1474 -0.1376  0.3341
   67POPC   C1A 1170   5.024   5.042   7.260 -0.0006 -0.0738 -0.3025
   67POPC   D2A 1171   4.925   4.949   6.828  0.1076  0.0768 -0.1825
   67POPC   C3A 1172   5.220   5.058   6.508 -0.2544  0.0178  0.1008
   67POPC   C4A 1173   5.513   5.097   6.165  0.2171  0.0008 -0.1216
   67POPC   C1B 1174   5.350   5.417   7.281  0.1204 -0.1453 -0.1829
   67POPC   C2B 1175   5.238   5.592   6.907 -0.2923 -0.2470  0.0946
   67POPC   C3B 1176   5.483   5.540   6.450 -0.1361 -0.1047 -0.1188
   67POPC   C4B 1177   5.172   5.424   6.096 -0.2087 -0.0627 -0.1539
   68POPC   NC3 1178   1.245   0.529   8.650 -0.3053  0.0733 -0.5675
   68POPC   PO4 1179   0.923   0.282   8.424 -0.2866  0.2208  0.0428
   68POPC   GL1 1180   0.835   0.234   7.914  0.0344  0.1841 -0.1297
   68POPC   GL2 1181   1.126   0.125   7.724  0.2803  0.2579  0.2781
   68POPC   C1A 1182   0.631   0.186   7.656 -0.1489 -0.3207 -0.3079
   68POPC   D2A 1183   0.286   0.414   7.670 -0.3526  0.3940  0.1349
   68POPC   C3A 1184   0.295   0.772   7.444  0.1199  0.1753 -0.0229
   68POPC   C4A 1185   0.101   1.151   7.588  0.0194  0.1688 -0.0249
   68POPC   C1B 1186   1.399  -0.079   7.359  0.0652 -0.0190 -0.1614
   68POPC   C2B 1187   1.542  -0.130   6.895  0.1414 -0.3247 -0.0507
   68POPC   C3B 1188   1.768  -0.525   6.692  0.1613  0.0055 -0.0818
   68POPC   C4B 1189   1.958  -0.653   6.305 -0.0803  0.2841 -0.3553
   69POPC   NC3 1190   1.092   9.556   8.135 -0.1780 -0.2520 -0.0564
   69POPC   PO4 1191   0.602   9.556   8.142 -0.2114  0.2403 -0.1828
   69POPC   GL1 1192   0.378   9.537   7.782  0.0477  0.1855  0.1473
   69POPC   GL2 1193   0.078   9.653   7.649 -0.0158 -0.1115  0.1853
   69POPC   C1A 1194   0.458   9.350   7.400 -0.1473  0.0627 -0.2244
   69POPC   D2A 1195   0.219   9.136   7.048  0.4049  0.1085 -0.3726
   69POPC   C3A 1196   0.563   9.154   6.678 -0.2892  0.0033  0.0196
   69POPC   C4A 1197   0.736   9.353   6.318  0.1622 -0.4901  0.1434
   69POPC   C1B 1198   0.273   9.788   7.323 -0.0321 -0.1417  0.0091
   69POPC   C2B 1199   0.173   9.979   6.961 -0.0665 -0.0126 -0.0644
   69POPC   C3B 1200   0.380  10.046   6.680 -0.3582 -0.2840  0.0873
   69POPC   C4B 1201   0.722   9.860   6.496 -0.1060  0.0821  0.5408
   70POPC   NC3 1202   0.753   8.156   8.339  0.2199 -0.0078  0.1870
   70POPC   PO4 1203   1.017   8.524   8.363  0.0758 -0.0078  0.1490
   70POPC   GL1 1204   0.950   8.875   7.941  0.0016  0.0591  0.1467
   70POPC   GL2 1205   0.753   9.139   7.935 -0.1671  0.0301 -0.2437
   70POPC   C1A 1206   0.844   9.029   7.500  0.0309  0.0647 -0.0420
   70POPC   D2A 1207   0.854   9.221   7.081  0.1326  0.1740  0.1249
   70POPC   C3A 1208   1.098   8.967   6.709 -0.0999 -0.3239 -0.1239
   70POPC   C4A 1209   0.885   8.817   6.333  0.1004  0.3491  0.1913
   70POPC   C1B 1210   0.906   9.477   7.509 -0.3489 -0.1792  0.0816
   70POPC   C2B 1211   0.870   9.708   7.209  0.2920 -0.1589 -0.1343
   70POPC   C3B 1212   0.511   9.595   6.918  0.0038  0.1910 -0.1624
   70POPC   C4B 1213   0.338   9.543   6.568 -0.1174  0.1051 -0.0466
   71POPC   NC3 1214   5.815   4.348   8.062 -0.0410  0.2021  0.1751
   71POPC   PO4 1215   5.985   3.977   7.909 -0.2661  0.3278 -0.1466
   71POPC   GL1 1216   5.886   4.142   7.596  0.3090 -0.3122  0.1489
   71POPC   GL2 1217   6.148   4.306   7.593 -0.0816 -0.0057  0.0403
   71POPC   C1A 1218   5.790   4.459   7.290  0.0074 -0.1177 -0.0951
   71POPC   D2A 1219   5.483   4.697   7.028 -0.0889  0.1733 -0.1546
   71POPC   C3A 1220   5.527   4.661   6.673  0.1608 -0.2709  0.1659
   71POPC   C4A 1221   5.793   4.799   6.451 -0.0248 -0.0934 -0.1533
   71POPC   C1B 1222   6.299   4.620   7.345  0.1378 -0.2098  0.2604
   71POPC   C2B 1223   6.463   4.983   7.197  0.3697 -0.2412  0.0555
   71POPC   C3B 1224   6.379   5.131   6.790 -0.2887  0.1992  0.1160
   71POPC   C4B 1225   6.123   5.169   6.532 -0.0076 -0.0768  0.0044
   72POPC   NC3 1226   3.999   0.621   8.405  0.1330  0.0503  0.0779
   72POPC   PO4 1227   3.865   0.218   8.273  0.1999  0.0675  0.1754
   72POPC   GL1 1228   3.924   0.301   7.839  0.0443  0.3824  0.1079
   72POPC   GL2 1229   3.685   0.403   7.551  0.0861  0.0768  0.1236
   72POPC   C1A 1230   4.177   0.116   7.525 -0.2605  0.4571  0.3153
   72POPC   D2A 1231   4.106  -0.004   7.197  0.2765 -0.1341  0.1037
   72POPC   C3A 1232   4.076   0.420   6.928  0.0236 -0.0577  0.0969
   72POPC   C4A 1233   3.820   0.421   6.736 -0.0166 -0.0847  0.0601
   72POPC   C1B 1234   3.639   0.201   7.123  0.1074  0.1063  0.3024
   72POPC   C2B 1235   3.415  -0.089   6.892 -0.1377  0.1341  0.1594
   72POPC   C3B 1236   3.456  -0.478   6.755 -0.3063  0.0191  0.0822
   72POPC   C4B 1237   3.604  -0.410   6.332 -0.1268 -0.1297  0.0615
   73POPC   NC3 1238   9.203   0.478   8.339  0.1660  0.1072 -0.5239
   73POPC   PO4 1239   8.878   0.752   8.285  0.2068 -0.3466 -0.2261
   73POPC   GL1 1240   8.806   0.892   7.862  0.2627  0.0748 -0.2726
   73POPC   GL2 1241   8.923   1.219   7.752 -0.1450  0.4252  0.1132
   73POPC   C1A 1242   8.718   0.686   7.457  0.0635  0.1793  0.2475
   73POPC   D2A 1243   8.398   0.776   7.090  0.2266 -0.0057  0.0227
   73POPC   C3A 1244   8.273   0.555   6.687  0.1711 -0.0766 -0.0837
   73POPC   C4A 1245   7.942   0.621   6.422 -0.0583  0.0665 -0.1101
   73POPC   C1B 1246   8.640   1.185   7.341  0.0930 -0.0641 -0.1729
   73POPC   C2B 1247   8.615   1.165   6.858 -0.1724  0.1840  0.0646
   73POPC   C3B 1248   8.802   1.180   6.412 -0.1440 -0.0686  0.1991
   73POPC   C4B 1249   9.205   1.279   6.196 -0.1429  0.2044 -0.0948
   74POPC   NC3 1250   5.765   4.815   8.851  0.0364 -0.2105 -0.1167
   74POPC   PO4 1251   6.065   5.113   8.588  0.1743  0.2180  0.2525
   74POPC   GL1 1252   6.112   5.206   8.091 -0.1131  0.1615 -0.0168
   74POPC   GL2 1253   6.462   5.354   8.013 -0.1572 -0.5645 -0.0410
   74POPC   C1A 1254   5.835   5.351   7.735 -0.2352 -0.0726  0.1361
   74POPC   D2A 1255   6.032   5.538   7.418 -0.2097 -0.0309  0.1798
   74POPC   C3A 1256   5.914   5.435   7.057 -0.0057 -0.0154 -0.1504
   74POPC   C4A 1257   5.674   5.191   6.763 -0.0986  0.1185  0.2879
   74POPC   C1B 1258   6.504   5.536   7.559 -0.1812  0.0679  0.0019
   74POPC   C2B 1259   6.502   5.592   7.164  0.2619 -0.0436  0.0450
   74POPC   C3B 1260   6.691   5.660   6.800 -0.0988  0.0354  0.2376
   74POPC   C4B 1261   6.974   5.684   6.370 -0.1144  0.0863  0.0065
   75POPC   NC3 1262   7.030   4.784   8.280 -0.0205 -0.0874 -0.0097
   75POPC   PO4 1263   7.451   4.664   8.485  0.1718 -0.0531 -0.3158
   75POPC   GL1 1264   7.509   4.731   8.014  0.2946 -0.0575 -0.1196
   75POPC   GL2 1265   7.132   4.541   7.868 -0.2374 -0.3304  0.1148
   75POPC   C1A 1266   7.599   4.524   7.579  0.2645  0.0664 -0.0285
   75POPC   D2A 1267   7.691   4.476   7.120 -0.0197  0.0315  0.0660
   75POPC   C3A 1268   7.809   4.475   6.645 -0.1234 -0.0842  0.3957
   75POPC   C4A 1269   8.009   4.601   6.478 -0.3296 -0.2419 -0.1787
   75POPC   C1B 1270   7.266   4.892   7.578 -0.5802 -0.3242  0.2019
   75POPC   C2B 1271   7.283   4.909   7.164  0.3539  0.1016 -0.0488
   75POPC   C3B 1272   7.475   4.981   6.846  0.3047  0.0292 -0.1097
   75POPC   C4B 1273   7.586   4.928   6.481  0.1202  0.0668 -0.0637
   76POPC   NC3 1274   5.656   2.492   8.265  0.0953  0.1702  0.2493
   76POPC   PO4 1275   5.601   2.994   8.107 -0.0320 -0.0960  0.1479
   76POPC   GL1 1276   5.765   3.015   7.738  0.0573  0.0364  0.4082
   76POPC   GL2 1277   5.744   2.603   7.599  0.1712 -0.1771  0.2290
   76POPC   C1A 1278   5.741   3.048   7.304 -0.0518 -0.1561 -0.3082
   76POPC   D2A 1279   5.458   3.205   6.950 -0.0039 -0.5968  0.1895
   76POPC   C3A 1280   5.519   3.376   6.519  0.1519 -0.0620  0.2390
   76POPC   C4A 1281   5.597   3.197   6.085 -0.4773 -0.0737  0.0788
   76POPC   C1B 1282   5.924   2.237   7.314 -0.1087  0.1320 -0.2234
   76POPC   C2B 1283   6.239   2.290   6.968 -0.0743 -0.1390 -0.0282
   76POPC   C3B 1284   6.394   2.028   6.744  0.0412 -0.2127  0.1091
   76POPC   C4B 1285   6.565   2.038   6.353  0.1442  0.0379 -0.0858
   77POPC   NC3 1286   1.813   7.786   8.757 -0.2393 -0.0048  0.0478
   77POPC   PO4 1287   1.967   8.149   8.437  0.1836  0.3644 -0.0232
   77POPC   GL1 1288   2.127   7.986   8.051  0.2677 -0.2633 -0.0119
   77POPC   GL2 1289   1.840   7.864   7.949  0.2572 -0.0679 -0.1653
   77POPC   C1A 1290   2.347   7.708   7.710  0.2721 -0.1551  0.2318
   77POPC   D2A 1291   2.740   7.567   7.660 -0.2551 -0.4860  0.0941
   77POPC   C3A 1292   2.549   7.484   7.228 -0.3573 -0.2483  0.3101
   77POPC   C4A 1293   2.281   7.275   7.152 -0.1427  0.2416  0.1520
   77POPC   C1B 1294   1.760   7.962   7.591 -0.0184 -0.2617 -0.2110
   77POPC   C2B 1295   1.651   7.924   7.188 -0.1327  0.1876  0.3218
   77POPC   C3B 1296   1.869   8.094   6.814  0.3292 -0.1066 -0.0669
   77POPC   C4B 1297   2.162   8.096   6.447  0.1337  0.1997 -0.2900
   78POPC   NC3 1298   8.612   4.859   8.380  0.1291  0.3296 -0.0535
   78POPC   PO4 1299   8.340   5.096   8.670 -0.0556  0.3986 -0.0703
   78POPC   GL1 1300   8.187   5.160   8.216  0.2719  0.0905 -0.2136
   78POPC   GL2 1301   8.280   5.394   8.017  0.0235  0.3163  0.0790
   78POPC   C1A 1302   7.945   5.067   7.803 -0.2071  0.1013 -0.0181
   78POPC   D2A 1303   7.756   5.022   7.355 -0.0266  0.0724 -0.0406
   78POPC   C3A 1304   7.987   4.845   6.975  0.0958  0.0992 -0.1292
   78POPC   C4A 1305   8.247   4.468   6.904  0.0525  0.2912 -0.0231
   78POPC   C1B 1306   8.042   5.558   7.645  0.3569  0.1179  0.0360
   78POPC   C2B 1307   7.771   5.520   7.229  0.0301 -0.1287 -0.1724
   78POPC   C3B 1308   7.700   5.411   6.754 -0.1208 -0.0124  0.1396
   78POPC   C4B 1309   7.267   5.313   6.539  0.1178  0.1906  0.2727
   79POPC   NC3 1310   0.878   0.775   8.414  0.0333 -0.2533  0.1506
   79POPC   PO4 1311   0.564   1.137   8.391 -0.1557 -0.3243  0.0018
   79POPC   GL1 1312   0.858   1.134   8.021  0.0615 -0.1784  0.2893
   79POPC   GL2 1313   0.985   0.772   7.911 -0.1293  0.0898  0.0492
   79POPC   C1A 1314   0.719   1.067   7.607 -0.5154 -0.2420  0.1006
   79POPC   D2A 1315   0.824   1.031   7.156  0.1094 -0.0228 -0.0053
   79POPC   C3A 1316   1.114   0.754   6.837  0.2243  0.3370  0.2279
   79POPC   C4A 1317   0.914   0.568   6.374 -0.0854  0.0443  0.0500
   79POPC   C1B 1318   0.925   0.642   7.419  0.0423 -0.0826 -0.1805
   79POPC   C2B 1319   0.607   0.498   7.152 -0.1679 -0.0672 -0.0985
   79POPC   C3B 1320   0.361   0.791   6.962  0.2482  0.2240  0.1745
   79POPC   C4B 1321   0.221   0.979   6.624  0.1911 -0.3774 -0.4101
   80POPC   NC3 1322   8.266   8.369   8.839 -0.2440  0.0238 -0.1428
   80POPC   PO4 1323   8.709   8.132   8.764 -0.2965  0.3498  0.0958
   80POPC   GL1 1324   8.589   8.277   8.416 -0.0005 -0.0884  0.2111
   80POPC   GL2 1325   8.729   8.182   8.129 -0.2870  0.1355 -0.2267
   80POPC   C1A 1326   8.281   8.371   8.109 -0.1392 -0.1826 -0.0637
   80POPC   D2A 1327   8.116   8.685   7.945 -0.3374  0.2267  0.0062
   80POPC   C3A 1328   8.140   8.722   7.445  0.2104  0.3137 -0.0228
   80POPC   C4A 1329   8.287   8.508   7.046  0.0480 -0.2247 -0.0399
   80POPC   C1B 1330   8.738   7.946   7.696  0.2714 -0.1740  0.0434
   80POPC   C2B 1331   8.774   8.065   7.246  0.0873  0.1588 -0.2494
   80POPC   C3B 1332   8.504   8.144   6.830  0.1324 -0.1392  0.2162
   80POPC   C4B 1333   8.276   7.917   6.610 -0.1140 -0.0881 -0.4641
   81POPC   NC3 1334   7.174   8.066   9.087 -0.0844  0.0378  0.0905
   81POPC   PO4 1335   6.906   7.824   9.236 -0.3346  0.1259  0.0253
   81POPC   GL1 1336   6.769   7.892   8.800 -0.0772 -0.2525  0.2449
   81POPC   GL2 1337   6.546   8.050   8.772  0.0204  0.1971  0.1256
   81POPC   C1A 1338   7.014   7.986   8.492 -0.1604  0.1418 -0.0170
   81POPC   D2A 1339   7.433   7.853   8.163  0.1618  0.0337 -0.1375
   81POPC   C3A 1340   7.380   7.616   7.679  0.2819 -0.1668 -0.2337
   81POPC   C4A 1341   7.510   7.165   7.539  0.0919  0.0890 -0.3207
   81POPC   C1B 1342   6.394   8.410   8.625  0.1661  0.1250 -0.1789
   81POPC   C2B 1343   5.922   8.464   8.410 -0.1541  0.1156  0.0390
   81POPC   C3B 1344   5.477   8.557   8.198 -0.1518  0.0997  0.0841
   81POPC   C4B 1345   5.402   8.928   7.973 -0.0978 -0.1131 -0.2752
   82POPC   NC3 1346   4.381   1.351   7.922 -0.2364  0.0479 -0.3472
   82POPC   PO4 1347   4.243   0.947   8.120 -0.0896  0.2780 -0.1716
   82POPC   GL1 1348   4.426   0.878   7.658  0.0246  0.0381 -0.1741
   82POPC   GL2 1349   4.390   1.212   7.411 -0.2234  0.0477 -0.1357
   82POPC   C1A 1350   4.374   0.524   7.342 -0.0873  0.1266 -0.2055
   82POPC   D2A 1351   4.554   0.186   7.136  0.1782  0.1068 -0.0398
   82POPC   C3A 1352   4.438   0.142   6.806  0.1665 -0.0854 -0.3383
   82POPC   C4A 1353   4.434  -0.119   6.513 -0.0814  0.4142  0.0957
   82POPC   C1B 1354   4.760   1.022   7.170 -0.0479 -0.1685 -0.1919
   82POPC   C2B 1355   4.716   0.630   6.974 -0.0950  0.1438 -0.1259
   82POPC   C3B 1356   4.532   0.539   6.543 -0.0494 -0.0477  0.0242
   82POPC   C4B 1357   4.161   0.722   6.422  0.1511  0.0560 -0.2358
   83POPC   NC3 1358   0.903   5.411   8.407 -0.2634 -0.0831  0.0464
   83POPC   PO4 1359   0.621   5.112   8.263  0.3147  0.2953  0.0037
   83POPC   GL1 1360   0.435   4.933   7.846  0.0578 -0.0367  0.1216
   83POPC   GL2 1361   0.409   4.603   7.851  0.0347  0.0362 -0.0025
   83POPC   C1A 1362   0.300   4.840   7.400 -0.0464  0.0934  0.0051
   83POPC   D2A 1363   0.427   4.936   6.986  0.0038  0.2582 -0.0977
   83POPC   C3A 1364   0.568   5.171   6.759  0.0392 -0.0481  0.0358
   83POPC   C4A 1365   0.584   5.573   6.699 -0.0127  0.0014  0.1472
   83POPC   C1B 1366   0.699   4.648   7.573 -0.2218 -0.0086  0.0001
   83POPC   C2B 1367   0.776   5.046   7.488  0.2288 -0.4627  0.0496
   83POPC   C3B 1368   0.721   5.424   7.259  0.0281 -0.1797  0.1704
   83POPC   C4B 1369   0.882   5.782   7.315  0.0703  0.4037 -0.1256
   84POPC   NC3 1370   6.494   7.981   9.697  0.1608  0.3095  0.0801
   84POPC   PO4 1371   6.141   8.028   9.823 -0.0814 -0.0061 -0.1048
   84POPC   GL1 1372   6.096   7.962   9.455 -0.0040  0.1522 -0.2244
   84POPC   GL2 1373   5.801   8.073   9.433  0.0916 -0.1205 -0.1122
   84POPC   C1A 1374   6.213   7.814   9.038 -0.0334  0.1619 -0.1262
   84POPC   D2A 1375   6.347   7.565   8.715  0.0221 -0.0229 -0.1496
   84POPC   C3A 1376   6.550   7.742   8.367 -0.0287  0.2568  0.0158
   84POPC   C4A 1377   6.728   8.199   8.150  0.1216 -0.1133 -0.1592
   84POPC   C1B 1378   5.859   8.190   8.967 -0.2410  0.0479  0.1058
   84POPC   C2B 1379   6.049   8.009   8.588  0.2681  0.0889 -0.0185
   84POPC   C3B 1380   6.176   8.018   8.117 -0.0809 -0.0567 -0.0083
   84POPC   C4B 1381   6.422   7.671   7.898  0.0180  0.0134  0.3288
   85POPC   NC3 1382   6.403   5.499   8.444 -0.0617  0.0701 -0.2736
   85POPC   PO4 1383   6.828   5.690   8.670  0.2340  0.0319 -0.0880
   85POPC   GL1 1384   6.874   5.548   8.240 -0.0961 -0.1541  0.1884
   85POPC   GL2 1385   6.951   5.264   8.144 -0.0458 -0.0309  0.0272
   85POPC   C1A 1386   6.988   5.674   7.816  0.0289 -0.1201  0.1669
   85POPC   D2A 1387   6.968   5.719   7.307 -0.1739  0.1165 -0.0721
   85POPC   C3A 1388   6.919   6.116   7.088  0.1762  0.0552  0.2712
   85POPC   C4A 1389   7.115   6.551   7.001 -0.0992  0.3441  0.2588
   85POPC   C1B 1390   6.885   5.165   7.738  0.1118  0.0162 -0.0244
   85POPC   C2B 1391   6.860   5.207   7.337  0.1264 -0.1135  0.2887
   85POPC   C3B 1392   6.858   5.186   6.866 -0.0443  0.2452  0.0690
   85POPC   C4B 1393   6.982   4.832   6.482 -0.1814  0.0412  0.1314
   86POPC   NC3 1394   3.053   6.549   9.063  0.1434  0.1033 -0.1276
   86POPC   PO4 1395   3.479   6.329   9.083  0.0725  0.0022 -0.0221
   86POPC   GL1 1396   3.724   6.598   8.854 -0.2650  0.1453 -0.0921
   86POPC   GL2 1397   4.043   6.491   8.652 -0.1686  0.1180 -0.0836
   86POPC   C1A 1398   3.748   6.989   8.498  0.3077  0.0255 -0.0519
   86POPC   D2A 1399   3.774   7.459   8.456  0.1474 -0.3321  0.1351
   86POPC   C3A 1400   4.017   7.726   8.196 -0.3672  0.0452 -0.1047
   86POPC   C4A 1401   4.441   7.760   8.231 -0.3713 -0.1395  0.0866
   86POPC   C1B 1402   3.761   6.547   8.282 -0.5910  0.0315 -0.1176
   86POPC   C2B 1403   3.670   6.707   7.917  0.0437 -0.1705  0.2398
   86POPC   C3B 1404   3.772   6.638   7.427  0.1513  0.1206 -0.1867
   86POPC   C4B 1405   3.846   6.816   7.083  0.3412 -0.3565 -0.0911
   87POPC   NC3 1406   0.578   8.825   8.316  0.2292 -0.4062 -0.2164
   87POPC   PO4 1407   0.282   9.235   8.451 -0.2160  0.1262  0.1212
   87POPC   GL1 1408   0.267   9.115   8.049 -0.1918  0.0589  0.1717
   87POPC   GL2 1409  -0.019   9.118   7.916  0.1033  0.1922 -0.1090
   87POPC   C1A 1410   0.363   8.938   7.666  0.0614  0.1461  0.0791
   87POPC   D2A 1411   0.507   8.684   7.290  0.2341 -0.0139 -0.0736
   87POPC   C3A 1412   0.711   8.722   6.945 -0.2351  0.2621 -0.3678
   87POPC   C4A 1413   0.907   8.432   6.748 -0.1296  0.2092 -0.0599
   87POPC   C1B 1414  -0.171   8.898   7.430 -0.2905 -0.1614  0.0735
   87POPC   C2B 1415  -0.234   8.872   7.060 -0.0045 -0.0108 -0.0194
   87POPC   C3B 1416  -0.096   9.022   6.668  0.1617 -0.1073  0.0299
   87POPC   C4B 1417   0.218   9.082   6.335 -0.0409 -0.1850  0.1342
   88POPC   NC3 1418   1.705   3.280   8.873  0.5085 -0.0122  0.0126
   88POPC   PO4 1419   1.464   3.511   8.550  0.0493 -0.1324  0.0346
   88POPC   GL1 1420   1.518   3.599   8.121  0.0129  0.2885 -0.0609
   88POPC   GL2 1421   1.792   3.812   8.006 -0.0160 -0.0531  0.3249
   88POPC   C1A 1422   1.574   3.656   7.581  0.0599 -0.0940 -0.2083
   88POPC   D2A 1423   1.637   3.775   7.062  0.0019  0.3114 -0.1269
   88POPC   C3A 1424   1.304   3.752   6.736  0.2282  0.2230  0.3851
   88POPC   C4A 1425   1.008   3.638   6.401  0.0297 -0.1459 -0.0809
   88POPC   C1B 1426   2.029   3.886   7.538  0.1352  0.1437  0.3366
   88POPC   C2B 1427   2.400   3.965   7.361  0.0412  0.2772 -0.0743
   88POPC   C3B 1428   2.751   3.846   7.145 -0.1772  0.2610 -0.0362
   88POPC   C4B 1429   2.933   4.098   6.795  0.1209 -0.1105 -0.1000
   89POPC   NC3 1430   4.296   5.581   8.429 -0.3507  0.1244  0.1943
   89POPC   PO4 1431   4.512   5.171   8.525 -0.0770 -0.0026 -0.1840
   89POPC   GL1 1432   4.186   5.061   8.236 -0.1854 -0.1524 -0.1118
   89POPC   GL2 1433   3.978   5.273   8.086  0.0041  0.1657  0.2844
   89POPC   C1A 1434   4.018   4.798   7.856 -0.2196  0.4613  0.1071
   89POPC   D2A 1435   3.934   4.435   7.552 -0.0026 -0.2423 -0.3002
   89POPC   C3A 1436   4.312   4.145   7.292  0.1492 -0.3231  0.0734
   89POPC   C4A 1437   4.550   3.741   7.254  0.2865 -0.4414  0.2390
   89POPC   C1B 1438   4.216   5.244   7.693 -0.2869  0.3947  0.0162
   89POPC   C2B 1439   4.360   5.545   7.299  0.2591 -0.2970 -0.0660
   89POPC   C3B 1440   4.366   5.994   7.027 -0.0634  0.0280 -0.0415
   89POPC   C4B 1441   4.571   6.123   6.650  0.2925 -0.1458 -0.0659
   90POPC   NC3 1442   9.350   8.759   8.607  0.4141 -0.0879 -0.0639
   90POPC   PO4 1443   9.029   8.511   8.434 -0.0784 -0.0595  0.1361
   90POPC   GL1 1444   8.857   8.654   8.110  0.0495 -0.2000  0.1477
   90POPC   GL2 1445   8.762   8.963   7.998 -0.0704 -0.3098 -0.0543
   90POPC   C1A 1446   8.678   8.545   7.746  0.1321  0.0475 -0.1804
   90POPC   D2A 1447   8.769   8.554   7.298 -0.2097  0.0952 -0.1066
   90POPC   C3A 1448   8.742   8.740   6.937  0.1129  0.2214 -0.2403
   90POPC   C4A 1449   9.161   8.837   6.680  0.1082  0.0342 -0.0389
   90POPC   C1B 1450   8.530   8.992   7.751  0.2537  0.0058  0.0825
   90POPC   C2B 1451   8.518   9.046   7.291 -0.1305 -0.0658  0.4212
   90POPC   C3B 1452   8.139   8.954   7.029  0.3134 -0.1741 -0.1799
   90POPC   C4B 1453   8.313   8.809   6.629  0.0082 -0.0309  0.1628
   91POPC   NC3 1454   4.933   1.321   8.376  0.0677 -0.0857 -0.2578
   91POPC   PO4 1455   4.840   1.531   7.964  0.2553 -0.2414 -0.1988
   91POPC   GL1 1456   5.056   1.190   7.745  0.3109  0.2070 -0.0923
   91POPC   GL2 1457   5.093   1.427   7.513  0.3016  0.1364  0.2277
   91POPC   C1A 1458   4.938   0.797   7.576 -0.2078 -0.0336  0.1569
   91POPC   D2A 1459   4.937   0.421   7.386 -0.1828  0.1012 -0.0275
   91POPC   C3A 1460   5.137   0.374   6.935  0.1075  0.0789 -0.0293
   91POPC   C4A 1461   5.394   0.052   6.647  0.0341  0.0976  0.2003
   91POPC   C1B 1462   5.155   1.733   7.178 -0.0481  0.1769 -0.2655
   91POPC   C2B 1463   5.302   1.766   6.756  0.0725  0.1653  0.0635
   91POPC   C3B 1464   5.760   1.766   6.508  0.2593 -0.0457 -0.2022
   91POPC   C4B 1465   6.086   1.781   6.388  0.0534  0.0318  0.0284
   92POPC   NC3 1466   0.427   6.628   8.363  0.0328  0.1043  0.2164
   92POPC   PO4 1467   0.058   6.883   8.398 -0.2009  0.0441  0.1788
   92POPC   GL1 1468   0.216   7.032   8.113 -0.0794 -0.2103 -0.3976
   92POPC   GL2 1469   0.376   7.400   8.068  0.1357  0.0072 -0.2088
   92POPC   C1A 1470   0.167   6.966   7.714 -0.0542  0.0443 -0.2472
   92POPC   D2A 1471   0.312   6.953   7.196 -0.0812  0.0844  0.0880
   92POPC   C3A 1472   0.593   7.278   7.092  0.0361 -0.4373 -0.3372
   92POPC   C4A 1473   0.918   7.754   7.180  0.2440 -0.4390 -0.0271
   92POPC   C1B 1474   0.310   7.444   7.555 -0.1108 -0.1092 -0.0305
   92POPC   C2B 1475   0.373   7.713   7.273  0.1980 -0.0003 -0.1717
   92POPC   C3B 1476   0.149   7.858   6.889  0.1080 -0.4521 -0.1522
   92POPC   C4B 1477   0.206   8.114   6.498 -0.2158  0.0545  0.2331
   93POPC   NC3 1478   3.538   1.160   8.319  0.0963 -0.0842  0.0963
   93POPC   PO4 1479   3.900   1.396   8.106 -0.4557  0.2244  0.1453
   93POPC   GL1 1480   3.993   1.266   7.698  0.4590 -0.4982  0.0278
   93POPC   GL2 1481   3.814   1.342   7.484  0.2344 -0.0672 -0.0809
   93POPC   C1A 1482   3.999   0.902   7.431  0.1148 -0.2888  0.1885
   93POPC   D2A 1483   4.175   0.890   7.033  0.0180 -0.0827  0.2149
   93POPC   C3A 1484   4.448   1.027   6.696  0.1369 -0.0756 -0.5200
   93POPC   C4A 1485   4.882   0.844   6.501 -0.4635 -0.1999  0.0058
   93POPC   C1B 1486   3.751   1.160   7.041  0.0409  0.1430  0.1156
   93POPC   C2B 1487   3.692   0.851   6.586  0.2783 -0.2561 -0.3158
   93POPC   C3B 1488   3.485   0.995   6.141  0.0613  0.2223 -0.2497
   93POPC   C4B 1489   3.755   1.205   5.806 -0.1223 -0.1651 -0.2191
   94POPC   NC3 1490   7.656   0.389   8.677 -0.4883 -0.2239 -0.0263
   94POPC   PO4 1491   7.258   0.286   8.679  0.0257  0.2623 -0.1074
   94POPC   GL1 1492   7.181   0.074   8.319  0.0663 -0.0872 -0.0069
   94POPC   GL2 1493   7.511   0.091   8.254  0.3582 -0.1486 -0.1915
   94POPC   C1A 1494   6.880  -0.094   7.985  0.2196 -0.1634  0.1093
   94POPC   D2A 1495   6.477  -0.161   7.929  0.0835 -0.0737 -0.0039
   94POPC   C3A 1496   6.297   0.146   7.931  0.4151  0.2659 -0.2976
   94POPC   C4A 1497   6.288   0.362   8.341 -0.0447 -0.0140 -0.2665
   94POPC   C1B 1498   7.509  -0.136   7.823  0.0453  0.0327 -0.3913
   94POPC   C2B 1499   7.679  -0.178   7.519  0.1241  0.1549 -0.0056
   94POPC   C3B 1500   7.734  -0.379   7.193  0.0838 -0.1845 -0.1417
   94POPC   C4B 1501   7.712  -0.621   6.780 -0.1124 -0.0402 -0.1090
   95POPC   NC3 1502   5.967   1.870   8.440 -0.2500  0.0301 -0.1054
   95POPC   PO4 1503   6.008   1.716   8.012  0.3984 -0.3148  0.5616
   95POPC   GL1 1504   6.147   1.752   7.651  0.0274  0.1423  0.3717
   95POPC   GL2 1505   5.994   1.754   7.448  0.0119 -0.0924  0.0529
   95POPC   C1A 1506   6.336   1.699   7.187  0.2489  0.0063  0.0122
   95POPC   D2A 1507   6.150   1.528   6.790 -0.2068 -0.0046 -0.0663
   95POPC   C3A 1508   6.129   1.250   6.520  0.1999  0.1899  0.3667
   95POPC   C4A 1509   6.110   0.837   6.476 -0.2489 -0.0772 -0.0571
   95POPC   C1B 1510   5.711   1.690   7.120  0.1234  0.2381 -0.0655
   95POPC   C2B 1511   5.460   1.388   7.136 -0.2567  0.2791  0.1978
   95POPC   C3B 1512   5.006   1.337   6.836  0.2814 -0.0134 -0.0513
   95POPC   C4B 1513   4.609   1.528   6.729 -0.1705  0.1903  0.0274
   96POPC   NC3 1514   9.683   7.824   8.465  0.1500  0.0914 -0.1288
   96POPC   PO4 1515  10.023   7.920   8.366  0.0488 -0.0547  0.1648
   96POPC   GL1 1516  10.005   8.004   8.071  0.1610 -0.0948 -0.1588
   96POPC   GL2 1517  10.290   7.931   7.937  0.1459  0.3741 -0.1376
   96POPC   C1A 1518   9.762   7.876   7.688 -0.0006  0.1705  0.2527
   96POPC   D2A 1519   9.431   7.957   7.463 -0.3561  0.0849 -0.4398
   96POPC   C3A 1520   9.292   7.736   7.135  0.1109 -0.3072 -0.0421
   96POPC   C4A 1521   9.241   7.496   6.800 -0.0376  0.1522 -0.0653
   96POPC   C1B 1522  10.383   8.088   7.519 -0.0142 -0.0975 -0.1293
   96POPC   C2B 1523  10.330   8.210   7.168  0.0447 -0.3272 -0.3441
   96POPC   C3B 1524  10.330   7.989   6.816 -0.0631 -0.1126 -0.3724
   96POPC   C4B 1525  10.145   7.480   6.704  0.4099  0.2752  0.0434
   97POPC   NC3 1526   0.172   2.504   8.162  0.1053  0.0423 -0.1053
   97POPC   PO4 1527   0.059   2.087   8.127  0.0202 -0.0720 -0.4607
   97POPC   GL1 1528   0.282   2.225   7.696  0.0364 -0.5270  0.3283
   97POPC   GL2 1529   0.223   2.587   7.537 -0.1456 -0.0302 -0.2808
   97POPC   C1A 1530   0.634   2.148   7.368 -0.0406 -0.3047 -0.0917
   97POPC   D2A 1531   0.806   1.720   7.184 -0.1089 -0.0452  0.1860
   97POPC   C3A 1532   0.918   1.426   6.835  0.2355 -0.0403 -0.0277
   97POPC   C4A 1533   0.765   1.062   6.630  0.3194 -0.2080  0.1725
   97POPC   C1B 1534   0.312   2.427   7.144  0.3299  0.1341 -0.2467
   97POPC   C2B 1535   0.322   2.233   6.798 -0.0509  0.0938 -0.0348
   97POPC   C3B 1536   0.181   2.320   6.308  0.3677  0.0296  0.0153
   97POPC   C4B 1537   0.095   2.044   6.028  0.0305  0.2927  0.1090
   98POPC   NC3 1538   6.132   0.139   9.111  0.0991  0.1387 -0.1785
   98POPC   PO4 1539   5.701   0.193   8.978 -0.1701 -0.3035 -0.3570
   98POPC   GL1 1540   5.725   0.194   8.422 -0.2132  0.2453  0.0377
   98POPC   GL2 1541   5.429   0.403   8.161 -0.0905  0.0446 -0.3051
   98POPC   C1A 1542   5.718   0.042   7.919 -0.1205 -0.0205 -0.0007
   98POPC   D2A 1543   5.592   0.149   7.542  0.1655  0.1439 -0.0496
   98POPC   C3A 1544   5.651   0.413   7.244 -0.3900 -0.2281  0.0182
   98POPC   C4A 1545   5.618   0.415   6.833  0.1941  0.0585  0.1978
   98POPC   C1B 1546   5.723   0.529   8.009 -0.2550 -0.0862 -0.1317
   98POPC   C2B 1547   5.977   0.423   7.652 -0.1363  0.0333 -0.0443
   98POPC   C3B 1548   6.242   0.163   7.328 -0.2799 -0.0475 -0.1521
   98POPC   C4B 1549   6.633   0.100   7.223  0.2722  0.0167  0.1171
   99POPC   NC3 1550   4.830   8.249   9.629 -0.0801  0.1216  0.0389
   99POPC   PO4 1551   4.822   8.640   9.521  0.0061  0.2879  0.2443
   99POPC   GL1 1552   4.921   8.421   9.184 -0.0968 -0.3753  0.0424
   99POPC   GL2 1553   4.687   8.139   9.144  0.1385  0.1276  0.2259
   99POPC   C1A 1554   5.023   8.287   8.709 -0.1720 -0.1619 -0.0378
   99POPC   D2A 1555   4.831   8.053   8.345 -0.0128  0.0785 -0.1893
   99POPC   C3A 1556   5.171   7.894   8.005 -0.0232 -0.1823  0.2261
   99POPC   C4A 1557   5.332   7.614   7.838 -0.1362 -0.0311 -0.0610
   99POPC   C1B 1558   4.316   7.972   8.942 -0.0682  0.0718  0.1165
   99POPC   C2B 1559   4.176   7.594   8.753  0.0126 -0.2467 -0.0248
   99POPC   C3B 1560   4.259   7.153   8.499 -0.0184  0.0273  0.1733
   99POPC   C4B 1561   4.240   6.817   8.289 -0.0549  0.2232  0.0246
  100POPC   NC3 1562   0.537   2.071   8.077 -0.0286 -0.1696  0.0396
  100POPC   PO4 1563   0.611   2.446   8.009  0.1842 -0.2568  0.0111
  100POPC   GL1 1564   0.651   2.733   7.723 -0.0018 -0.1420 -0.0193
  100POPC   GL2 1565   0.769   2.995   7.745  0.1769 -0.0386  0.1389
  100POPC   C1A 1566   0.701   2.686   7.278 -0.0632  0.1445 -0.0754
  100POPC   D2A 1567   0.723   2.873   6.921 -0.3310 -0.0415  0.1026
  100POPC   C3A 1568   0.593   2.645   6.491  0.0259  0.0914  0.2564
  100POPC   C4A 1569   0.657   2.254   6.365 -0.0881  0.1966  0.0951
  100POPC   C1B 1570   1.128   2.912   7.451  0.3256  0.0058  0.1469
  100POPC   C2B 1571   1.212   2.910   7.103  0.0377 -0.2499 -0.0385
  100POPC   C3B 1572   1.211   2.837   6.663  0.1241 -0.0057 -0.1114
  100POPC   C4B 1573   1.370   2.762   6.207 -0.1724  0.3080  0.0414
  101POPC   NC3 1574   3.567   9.577   8.401 -0.1464  0.3877  0.0076
  101POPC   PO4 1575   3.402   9.439   8.047  0.1274  0.0733 -0.1696
  101POPC   GL1 1576   3.468   9.607   7.683 -0.0492  0.0815  0.1312
  101POPC   GL2 1577   3.617   9.506   7.414 -0.3382  0.3563  0.0406
  101POPC   C1A 1578   3.249   9.895   7.481  0.1463  0.2956 -0.0509
  101POPC   D2A 1579   2.995   9.935   7.149 -0.1069 -0.0233  0.2240
  101POPC   C3A 1580   2.919   9.939   6.713 -0.0171  0.0779 -0.1595
  101POPC   C4A 1581   2.793  10.110   6.277  0.0158  0.3673 -0.1808
  101POPC   C1B 1582   3.767   9.221   7.108 -0.0816  0.0372 -0.1587
  101POPC   C2B 1583   3.879   8.852   6.929 -0.3525  0.1508 -0.0578
  101POPC   C3B 1584   3.745   8.817   6.570  0.1198  0.0329  0.0848
  101POPC   C4B 1585   3.431   8.541   6.364  0.2539  0.3716  0.2232
  102POPC   NC3 1586   3.608   4.941   8.436  0.0873 -0.3035 -0.0775
  102POPC   PO4 1587   3.671   5.403   8.452 -0.0211 -0.1400  0.0493
  102POPC   GL1 1588   3.539   5.621   8.122 -0.2006 -0.1005  0.0032
  102POPC   GL2 1589   3.360   5.803   8.214 -0.1556  0.0819 -0.0186
  102POPC   C1A 1590   3.497   5.656   7.690  0.0709  0.1450  0.0000
  102POPC   D2A 1591   3.312   5.680   7.396  0.1406  0.0936  0.1382
  102POPC   C3A 1592   3.501   5.608   7.020  0.0233  0.2436  0.0168
  102POPC   C4A 1593   3.388   5.714   6.540  0.4009  0.0786  0.1771
  102POPC   C1B 1594   3.448   6.181   8.041 -0.1994  0.1646  0.0705
  102POPC   C2B 1595   3.587   6.172   7.666  0.0932 -0.0337  0.0489
  102POPC   C3B 1596   3.558   6.108   7.253 -0.1184  0.1061 -0.1046
  102POPC   C4B 1597   3.585   6.060   6.885 -0.1553  0.3660  0.1962
  103POPC   NC3 1598   5.278   0.352   8.622  0.3566  0.3457 -0.1489
  103POPC   PO4 1599   4.966   0.081   8.424  0.3299  0.0097 -0.0819
  103POPC   GL1 1600   4.580  -0.195   8.186  0.1047  0.0447  0.2041
  103POPC   GL2 1601   4.632  -0.403   8.410 -0.1452 -0.0699 -0.1548
  103POPC   C1A 1602   4.383  -0.221   7.815 -0.2363  0.1671  0.3266
  103POPC   D2A 1603   4.233  -0.465   7.411  0.0663 -0.1118  0.0385
  103POPC   C3A 1604   3.971  -0.692   7.592  0.1223 -0.0790  0.1566
  103POPC   C4A 1605   3.587  -0.697   7.554 -0.3263  0.1085 -0.0814
  103POPC   C1B 1606   4.916  -0.417   7.936  0.1827  0.2255  0.1672
  103POPC   C2B 1607   4.820  -0.368   7.553 -0.1325 -0.3681  0.1036
  103POPC   C3B 1608   5.084  -0.094   7.353 -0.0197 -0.1376  0.1187
  103POPC   C4B 1609   5.352  -0.039   7.097  0.1535  0.3222 -0.2179
  104POPC   NC3 1610   8.293   7.524   8.583  0.1914  0.4391  0.1062
  104POPC   PO4 1611   8.148   7.944   8.572  0.1943  0.1264 -0.0490
  104POPC   GL1 1612   8.204   7.882   8.116 -0.0165 -0.0692 -0.0304
  104POPC   GL2 1613   8.391   7.631   7.984 -0.2334 -0.0852  0.1166
  104POPC   C1A 1614   8.143   8.139   7.732 -0.0217  0.3013 -0.0599
  104POPC   D2A 1615   8.262   8.101   7.319  0.2175 -0.1274  0.0154
  104POPC   C3A 1616   7.933   8.037   6.954 -0.1319  0.1439 -0.0814
  104POPC   C4A 1617   7.669   8.124   6.616 -0.2484  0.2459  0.0278
  104POPC   C1B 1618   8.424   7.628   7.469  0.2821 -0.3597 -0.1860
  104POPC   C2B 1619   8.253   7.626   7.141 -0.1659  0.1625  0.3029
  104POPC   C3B 1620   8.316   7.354   6.798 -0.2127 -0.0106  0.2066
  104POPC   C4B 1621   8.436   7.472   6.472 -0.5617  0.3056 -0.0774
  105POPC   NC3 1622   7.565   8.881   8.573 -0.2090 -0.0440 -0.2202
  105POPC   PO4 1623   7.449   8.523   8.921  0.0467 -0.1626  0.0282
  105POPC   GL1 1624   7.349   8.315   8.562  0.0967  0.0543 -0.4561
  105POPC   GL2 1625   7.653   8.165   8.444 -0.1832  0.1134  0.1814
  105POPC   C1A 1626   7.259   8.295   8.079 -0.0210  0.1554 -0.3612
  105POPC   D2A 1627   7.252   8.136   7.664 -0.1785  0.1287 -0.1045
  105POPC   C3A 1628   7.216   8.491   7.334  0.2243 -0.0728 -0.3540
  105POPC   C4A 1629   6.897   8.846   7.289 -0.4732 -0.2336  0.3943
  105POPC   C1B 1630   7.743   8.203   8.022 -0.1469  0.2700 -0.0172
  105POPC   C2B 1631   7.732   8.408   7.666 -0.0215 -0.3623 -0.1906
  105POPC   C3B 1632   7.788   8.415   7.260  0.0427  0.3431  0.0815
  105POPC   C4B 1633   7.831   8.570   6.779  0.0047 -0.0591 -0.1793
  106POPC   NC3 1634   4.231   6.883   9.963  0.0861  0.1522 -0.0177
  106POPC   PO4 1635   4.312   6.977   9.544 -0.1645 -0.0270 -0.3364
  106POPC   GL1 1636   4.394   7.079   9.025  0.0307 -0.0657  0.0930
  106POPC   GL2 1637   4.278   6.884   8.880 -0.0884  0.3312 -0.2375
  106POPC   C1A 1638   4.859   7.131   8.873 -0.4269 -0.0193  0.0600
  106POPC   D2A 1639   5.161   7.408   8.720 -0.1355  0.1923 -0.0307
  106POPC   C3A 1640   5.166   7.814   8.600  0.1472 -0.3621 -0.3751
  106POPC   C4A 1641   5.492   8.099   8.436  0.1418  0.3280  0.0877
  106POPC   C1B 1642   4.607   6.715   8.640  0.2157  0.3228  0.1623
  106POPC   C2B 1643   4.953   6.758   8.501 -0.0521  0.2855 -0.1197
  106POPC   C3B 1644   5.242   6.992   8.435  0.0694 -0.2678 -0.0835
  106POPC   C4B 1645   5.448   7.321   8.250 -0.2766  0.0638  0.0639
  107POPC   NC3 1646   8.910   2.867   8.155  0.1396 -0.3281 -0.1517
  107POPC   PO4 1647   8.514   3.140   8.304 -0.0802  0.2140  0.2324
  107POPC   GL1 1648   8.549   3.065   7.878 -0.2217 -0.3298  0.1120
  107POPC   GL2 1649   8.522   3.304   7.676  0.1280  0.4208  0.1498
  107POPC   C1A 1650   8.521   2.867   7.438  0.0150 -0.0302  0.1381
  107POPC   D2A 1651   8.727   2.663   7.001  0.0985  0.0669 -0.0394
  107POPC   C3A 1652   9.096   2.416   6.999 -0.1183 -0.1644 -0.3134
  107POPC   C4A 1653   9.196   2.047   6.929  0.1908 -0.0166 -0.0466
  107POPC   C1B 1654   8.288   3.316   7.270 -0.2774 -0.0647  0.3416
  107POPC   C2B 1655   8.306   2.991   6.928  0.2184  0.0726 -0.2747
  107POPC   C3B 1656   8.216   3.165   6.504  0.0473  0.2881 -0.0950
  107POPC   C4B 1657   8.335   3.354   6.066 -0.2782  0.3799 -0.1676
  108POPC   NC3 1658   2.815   1.841   8.323 -0.3979  0.0071  0.3366
  108POPC   PO4 1659   3.205   2.040   8.334 -0.0347 -0.1630  0.0347
  108POPC   GL1 1660   3.121   1.961   7.909 -0.2678 -0.0700 -0.2224
  108POPC   GL2 1661   3.309   2.121   7.648  0.0340 -0.3753  0.0210
  108POPC   C1A 1662   2.945   1.868   7.487  0.0704  0.1585 -0.0620
  108POPC   D2A 1663   3.111   1.825   7.005 -0.1820  0.1817 -0.1493
  108POPC   C3A 1664   3.102   1.909   6.640 -0.2038  0.3549  0.1864
  108POPC   C4A 1665   2.912   2.001   6.202 -0.1944 -0.3958  0.6315
  108POPC   C1B 1666   3.211   2.297   7.185 -0.1390  0.0759 -0.1600
  108POPC   C2B 1667   3.545   2.136   7.004  0.2857  0.0860  0.2601
  108POPC   C3B 1668   3.859   1.839   6.873 -0.0324 -0.0241  0.1530
  108POPC   C4B 1669   4.083   1.440   6.725 -0.1318 -0.2071  0.0652
  109POPC   NC3 1670   5.618   1.935   7.762  0.1510 -0.4450 -0.3541
  109POPC   PO4 1671   5.437   2.275   7.818  0.1032 -0.2042 -0.1182
  109POPC   GL1 1672   5.334   2.220   7.457 -0.0992  0.1012  0.0295
  109POPC   GL2 1673   5.017   2.407   7.376  0.0339  0.4005  0.2650
  109POPC   C1A 1674   5.414   2.133   7.033  0.0207  0.0131  0.3159
  109POPC   D2A 1675   5.730   2.291   6.792  0.2812  0.2780  0.1020
  109POPC   C3A 1676   5.568   2.751   6.636  0.0997  0.2017  0.0340
  109POPC   C4A 1677   5.240   2.952   6.560 -0.1930 -0.3998 -0.1347
  109POPC   C1B 1678   4.989   2.497   6.948  0.2382  0.2186 -0.0126
  109POPC   C2B 1679   5.206   2.444   6.575 -0.4476 -0.1895 -0.1429
  109POPC   C3B 1680   5.289   2.634   6.105  0.1304  0.0080 -0.2589
  109POPC   C4B 1681   5.258   2.774   5.737 -0.4035  0.3893  0.0483
  110POPC   NC3 1682   9.196   4.352   8.205 -0.0084 -0.3699 -0.0961
  110POPC   PO4 1683   9.079   4.700   8.296  0.1338  0.1505  0.1830
  110POPC   GL1 1684   8.775   4.637   7.936 -0.0377 -0.1749 -0.0865
  110POPC   GL2 1685   8.550   4.905   7.850 -0.1089 -0.0846 -0.0635
  110POPC   C1A 1686   8.983   4.453   7.580  0.0146 -0.1730 -0.0591
  110POPC   D2A 1687   9.234   4.369   7.252  0.1581 -0.1768 -0.2120
  110POPC   C3A 1688   9.746   4.316   7.168 -0.0519 -0.1641  0.3434
  110POPC   C4A 1689  10.045   4.300   7.420 -0.1170 -0.1484 -0.0858
  110POPC   C1B 1690   8.434   5.215   7.543 -0.2032 -0.2078 -0.0442
  110POPC   C2B 1691   8.199   5.292   7.176 -0.4094 -0.2171  0.1095
  110POPC   C3B 1692   8.146   5.437   6.823  0.0608  0.3577 -0.0559
  110POPC   C4B 1693   8.074   5.095   6.549 -0.2143 -0.3563  0.0034
  111POPC   NC3 1694   7.090   0.196   9.395 -0.4140 -0.0755 -0.0167
  111POPC   PO4 1695   6.581   0.266   9.310 -0.1919  0.0117  0.0249
  111POPC   GL1 1696   6.593   0.137   8.770  0.6026  0.2339  0.4052
  111POPC   GL2 1697   6.754   0.326   8.510 -0.0792 -0.0231 -0.5129
  111POPC   C1A 1698   6.406  -0.143   8.416 -0.0271 -0.0718 -0.1964
  111POPC   D2A 1699   6.020  -0.228   8.165  0.3185 -0.0078  0.0758
  111POPC   C3A 1700   5.997  -0.336   7.751  0.1458  0.0407  0.1859
  111POPC   C4A 1701   6.338  -0.260   7.489  0.4105 -0.0119 -0.1573
  111POPC   C1B 1702   6.714   0.408   8.023  0.2835 -0.1283 -0.0502
  111POPC   C2B 1703   6.548   0.430   7.586 -0.3649  0.0887 -0.1391
  111POPC   C3B 1704   6.489   0.652   7.102 -0.2780 -0.1059 -0.5027
  111POPC   C4B 1705   6.139   0.428   6.849  0.3326 -0.1948  0.0693
  112POPC   NC3 1706   1.851   4.052   8.515  0.4143 -0.1303 -0.2361
  112POPC   PO4 1707   1.986   3.597   8.594 -0.1743  0.4220 -0.1819
  112POPC   GL1 1708   2.262   3.775   8.245 -0.0746 -0.2504 -0.0098
  112POPC   GL2 1709   2.242   4.084   7.986  0.0484 -0.0990  0.1960
  112POPC   C1A 1710   2.371   3.655   7.786  0.0854 -0.0481 -0.3015
  112POPC   D2A 1711   2.441   3.463   7.325 -0.0851 -0.2286  0.0952
  112POPC   C3A 1712   2.813   3.308   7.110 -0.2732 -0.2665 -0.1760
  112POPC   C4A 1713   3.325   3.154   7.195 -0.0039 -0.0485 -0.3943
  112POPC   C1B 1714   2.504   4.291   7.687  0.2605 -0.2629 -0.0060
  112POPC   C2B 1715   2.578   4.395   7.184 -0.0609 -0.3386  0.0443
  112POPC   C3B 1716   2.814   4.528   6.856 -0.1639 -0.1308  0.2259
  112POPC   C4B 1717   3.072   4.777   6.665  0.0915  0.1090 -0.3008
  113POPC   NC3 1718   3.524   3.298   8.054 -0.1335  0.6123  0.0004
  113POPC   PO4 1719   3.140   3.311   8.249 -0.0349 -0.4494 -0.0535
  113POPC   GL1 1720   2.953   3.109   7.959  0.0216  0.2596 -0.1586
  113POPC   GL2 1721   3.215   2.895   7.915 -0.1611 -0.0005  0.0674
  113POPC   C1A 1722   2.837   2.959   7.486 -0.0547  0.1743 -0.0375
  113POPC   D2A 1723   2.797   2.590   7.208 -0.1726  0.2112 -0.1207
  113POPC   C3A 1724   2.331   2.427   7.158 -0.0619 -0.1887  0.1884
  113POPC   C4A 1725   2.070   2.394   7.448  0.3058  0.2434  0.1537
  113POPC   C1B 1726   3.247   2.737   7.503 -0.0896  0.3852 -0.2695
  113POPC   C2B 1727   3.277   2.713   7.086 -0.1864 -0.3246  0.1213
  113POPC   C3B 1728   3.185   2.959   6.679  0.0321 -0.3525  0.0230
  113POPC   C4B 1729   3.116   3.350   6.415  0.0510  0.1946 -0.3799
  114POPC   NC3 1730   1.747   6.232   8.603  0.2457  0.0346  0.0127
  114POPC   PO4 1731   1.708   6.529   8.211 -0.0571  0.0301  0.1391
  114POPC   GL1 1732   1.634   6.765   7.851  0.3187  0.2802  0.1632
  114POPC   GL2 1733   1.232   6.647   7.756 -0.1390 -0.0554 -0.0034
  114POPC   C1A 1734   1.572   7.024   7.412 -0.0575 -0.0031 -0.1339
  114POPC   D2A 1735   1.767   7.276   7.119 -0.3484  0.0684 -0.0830
  114POPC   C3A 1736   1.910   7.545   6.808  0.1864 -0.0286  0.2290
  114POPC   C4A 1737   2.007   7.615   6.393  0.1310  0.0360  0.0695
  114POPC   C1B 1738   1.108   6.593   7.328 -0.3020 -0.3028  0.0854
  114POPC   C2B 1739   1.132   6.387   7.011  0.0123  0.1529 -0.2254
  114POPC   C3B 1740   1.350   6.357   6.634 -0.0624  0.1396 -0.3474
  114POPC   C4B 1741   1.131   6.443   6.220 -0.1076 -0.3019 -0.0629
  115POPC   NC3 1742   7.505   9.100   9.085 -0.3091  0.2719 -0.0969
  115POPC   PO4 1743   7.352   9.322   8.758  0.3523  0.1840 -0.2094
  115POPC   GL1 1744   7.500   9.212   8.262  0.0462 -0.2028 -0.2417
  115POPC   GL2 1745   7.267   9.074   8.239  0.2489  0.1342 -0.1137
  115POPC   C1A 1746   7.613   8.977   7.782 -0.2771 -0.0511 -0.2373
  115POPC   D2A 1747   7.638   8.852   7.382  0.0018 -0.1628  0.1976
  115POPC   C3A 1748   7.357   8.822   6.959  0.1688 -0.2885  0.0648
  115POPC   C4A 1749   6.971   8.932   6.733 -0.0395 -0.1995  0.0128
  115POPC   C1B 1750   7.164   9.201   7.790 -0.2302 -0.3144  0.1702
  115POPC   C2B 1751   7.286   9.201   7.385 -0.3009 -0.0731  0.1143
  115POPC   C3B 1752   7.329   9.341   6.844  0.1577 -0.3490 -0.1675
  115POPC   C4B 1753   7.074   9.520   6.522  0.0637 -0.0359 -0.0224
  116POPC   NC3 1754   1.922   2.603   8.509 -0.1390 -0.0680 -0.1397
  116POPC   PO4 1755   1.922   2.183   8.462  0.0220 -0.2677 -0.3039
  116POPC   GL1 1756   1.891   2.295   8.076 -0.0553  0.2065 -0.2196
  116POPC   GL2 1757   2.241   2.380   7.972  0.2685  0.0340  0.1752
  116POPC   C1A 1758   1.887   1.979   7.697 -0.0072 -0.0268 -0.0640
  116POPC   D2A 1759   1.744   1.479   7.653 -0.2016 -0.1012 -0.0725
  116POPC   C3A 1760   1.584   1.146   7.532  0.3884 -0.2826 -0.1027
  116POPC   C4A 1761   1.471   0.811   7.254  0.1369  0.3398  0.3055
  116POPC   C1B 1762   2.429   2.666   7.605 -0.0975  0.0373 -0.2202
  116POPC   C2B 1763   2.438   2.979   7.095 -0.2252  0.1853 -0.2238
  116POPC   C3B 1764   2.622   3.145   6.656 -0.0319 -0.0440 -0.0247
  116POPC   C4B 1765   2.782   2.871   6.317 -0.0357  0.0134 -0.1115
  117POPC   NC3 1766   2.532   3.776   8.757  0.0793  0.0103 -0.2544
  117POPC   PO4 1767   2.684   4.152   8.387  0.0154 -0.2007 -0.0498
  117POPC   GL1 1768   2.930   4.154   7.938  0.2084  0.1101  0.1515
  117POPC   GL2 1769   3.231   4.356   7.911 -0.1066  0.0742  0.0494
  117POPC   C1A 1770   2.957   4.016   7.596  0.2805 -0.0053  0.1563
  117POPC   D2A 1771   3.077   4.336   7.275  0.1840  0.1165  0.0874
  117POPC   C3A 1772   2.806   4.742   7.468  0.0965 -0.1369  0.4190
  117POPC   C4A 1773   2.827   4.692   7.826  0.2387 -0.0340 -0.2211
  117POPC   C1B 1774   3.428   4.154   7.633  0.3170  0.2160  0.1111
  117POPC   C2B 1775   3.702   4.105   7.307 -0.1120  0.0651  0.2885
  117POPC   C3B 1776   3.941   4.191   6.913  0.0913 -0.1360 -0.0884
  117POPC   C4B 1777   4.154   4.258   6.658  0.2609 -0.2796  0.1785
  118POPC   NC3 1778   6.358   8.955   9.734  0.1609 -0.0143  0.0787
  118POPC   PO4 1779   6.136   8.937   9.374  0.1663  0.0413 -0.0208
  118POPC   GL1 1780   6.180   8.888   8.944  0.1431 -0.0610  0.1344
  118POPC   GL2 1781   6.505   8.824   8.922  0.2243 -0.0796 -0.2027
  118POPC   C1A 1782   6.121   9.152   8.578  0.0474 -0.1269 -0.3977
  118POPC   D2A 1783   5.889   8.979   8.426  0.5736  0.2431  0.1873
  118POPC   C3A 1784   5.900   8.958   7.972  0.0762  0.1692 -0.1189
  118POPC   C4A 1785   6.136   8.874   7.629 -0.0713 -0.2005 -0.0637
  118POPC   C1B 1786   6.651   8.840   8.523 -0.0049  0.2632 -0.1119
  118POPC   C2B 1787   6.814   9.008   8.099  0.2614  0.1621 -0.3366
  118POPC   C3B 1788   6.634   9.084   7.754 -0.1104 -0.0498 -0.0350
  118POPC   C4B 1789   6.813   9.348   7.506  0.0238 -0.0088 -0.0087
  119POPC   NC3 1790   7.201   6.006   8.744  0.1448  0.1518 -0.1778
  119POPC   PO4 1791   7.585   5.801   8.590  0.1770  0.0497 -0.1141
  119POPC   GL1 1792   7.749   6.049   8.158 -0.0382  0.2513 -0.0470
  119POPC   GL2 1793   8.066   5.962   8.064 -0.1553 -0.1230  0.0747
  119POPC   C1A 1794   7.558   6.304   7.823 -0.0701  0.1237  0.2135
  119POPC   D2A 1795   7.189   6.448   7.463  0.0970  0.2399  0.2291
  119POPC   C3A 1796   7.183   6.830   7.449  0.0202  0.1697 -0.1690
  119POPC   C4A 1797   7.138   7.085   7.103 -0.0248 -0.1896 -0.0423
  119POPC   C1B 1798   8.452   5.885   7.802  0.0622 -0.0112  0.0457
  119POPC   C2B 1799   8.492   5.782   7.498  0.0548 -0.0784  0.0172
  119POPC   C3B 1800   8.435   5.754   7.092  0.2853 -0.1200 -0.2184
  119POPC   C4B 1801   8.598   5.641   6.826  0.2473  0.0713  0.0341
  120POPC   NC3 1802   1.267   2.028   8.638 -0.0304 -0.0878 -0.0495
  120POPC   PO4 1803   1.414   2.404   8.349  0.0861 -0.1314 -0.1577
  120POPC   GL1 1804   1.325   2.373   7.919 -0.0198  0.3207 -0.2486
  120POPC   GL2 1805   1.023   2.372   7.738  0.1044 -0.2703 -0.3276
  120POPC   C1A 1806   1.572   2.310   7.566 -0.0348  0.2878 -0.0047
  120POPC   D2A 1807   1.539   2.620   7.339  0.1044  0.2585 -0.2824
  120POPC   C3A 1808   1.232   2.428   6.977 -0.0207 -0.3144 -0.0094
  120POPC   C4A 1809   0.834   2.294   6.922  0.2763  0.1822  0.0814
  120POPC   C1B 1810   1.149   2.132   7.349  0.1281 -0.1919  0.2774
  120POPC   C2B 1811   1.227   1.916   6.994  0.1514 -0.2331  0.1659
  120POPC   C3B 1812   1.589   1.736   6.778 -0.0428  0.3534  0.0129
  120POPC   C4B 1813   1.901   1.885   6.426  0.1423  0.1077 -0.1413
  121POPC   NC3 1814   0.121   9.687   8.199  0.1243  0.0495 -0.1334
  121POPC   PO4 1815  -0.040  10.043   8.061 -0.0469  0.0312 -0.0531
  121POPC   GL1 1816  -0.209  10.293   7.700  0.2834  0.4866 -0.2148
  121POPC   GL2 1817  -0.513  10.240   7.804  0.1893 -0.3088  0.0090
  121POPC   C1A 1818  -0.487  10.430   7.331 -0.2899  0.2623 -0.0863
  121POPC   D2A 1819  -0.729  10.537   7.039 -0.3216 -0.1411 -0.1255
  121POPC   C3A 1820  -0.910  10.214   6.744  0.0601 -0.1759 -0.1295
  121POPC   C4A 1821  -0.782   9.894   6.529 -0.2232 -0.1289  0.0157
  121POPC   C1B 1822  -0.744   9.938   7.543  0.0049 -0.1200 -0.0515
  121POPC   C2B 1823  -0.823   9.988   7.191 -0.1179 -0.2126  0.1324
  121POPC   C3B 1824  -0.670   9.662   6.957 -0.0889  0.3476 -0.0045
  121POPC   C4B 1825  -0.525   9.347   6.685  0.0578 -0.0706 -0.2041
  122POPC   NC3 1826   2.440   8.339   8.242 -0.4627 -0.5470 -0.0711
  122POPC   PO4 1827   2.662   8.026   8.121  0.3553 -0.1309 -0.0376
  122POPC   GL1 1828   2.797   8.128   7.725  0.0616 -0.1067  0.0446
  122POPC   GL2 1829   3.168   8.089   7.827  0.0565 -0.0382 -0.1340
  122POPC   C1A 1830   2.811   7.993   7.297  0.1393  0.0406 -0.0508
  122POPC   D2A 1831   2.916   7.834   6.813 -0.1752 -0.0449 -0.0648
  122POPC   C3A 1832   2.776   7.407   6.717  0.0487 -0.2385 -0.0615
  122POPC   C4A 1833   3.013   6.993   6.845 -0.0281  0.2044 -0.1545
  122POPC   C1B 1834   3.232   8.242   7.386  0.1020  0.2933 -0.0813
  122POPC   C2B 1835   3.025   8.334   7.004 -0.0550 -0.0184  0.0088
  122POPC   C3B 1836   3.092   8.563   6.760 -0.1657 -0.1231  0.2233
  122POPC   C4B 1837   3.068   8.978   6.831 -0.3627  0.1289 -0.0966
  123POPC   NC3 1838   1.729   4.793   7.999 -0.1539  0.6755 -0.0130
  123POPC   PO4 1839   1.740   4.283   8.098 -0.1472 -0.2425 -0.0207
  123POPC   GL1 1840   1.717   4.284   7.723  0.2485  0.0239 -0.2233
  123POPC   GL2 1841   2.033   4.419   7.661  0.0444  0.1689  0.2457
  123POPC   C1A 1842   1.618   4.454   7.285  0.1155 -0.0792 -0.2775
  123POPC   D2A 1843   1.417   4.547   6.840  0.2275 -0.0811  0.0648
  123POPC   C3A 1844   1.565   4.640   6.422  0.2117  0.1163 -0.1718
  123POPC   C4A 1845   1.776   4.966   6.117 -0.0218  0.0081 -0.1261
  123POPC   C1B 1846   2.090   4.268   7.172 -0.1313  0.1371  0.0797
  123POPC   C2B 1847   2.367   4.066   6.832 -0.2672 -0.0897  0.0548
  123POPC   C3B 1848   2.581   3.746   6.660  0.0993  0.1350 -0.0831
  123POPC   C4B 1849   2.685   3.467   6.221 -0.1787  0.3022  0.0158
  124POPC   NC3 1850   1.578   1.433   9.023 -0.0604  0.0545  0.0682
  124POPC   PO4 1851   1.612   1.121   8.732 -0.0076  0.1131 -0.1637
  124POPC   GL1 1852   1.589   1.129   8.307  0.0184  0.1503  0.0824
  124POPC   GL2 1853   1.328   0.862   8.228 -0.2780  0.0138 -0.2793
  124POPC   C1A 1854   1.234   1.321   7.854  0.2910  0.3862 -0.0596
  124POPC   D2A 1855   1.014   1.461   7.518 -0.0433  0.2502 -0.0979
  124POPC   C3A 1856   1.358   1.405   7.083 -0.1053 -0.3373 -0.0700
  124POPC   C4A 1857   1.553   1.196   6.778 -0.1438 -0.0319  0.0021
  124POPC   C1B 1858   1.448   0.759   7.787 -0.0954  0.0669  0.1489
  124POPC   C2B 1859   1.427   0.385   7.500  0.1537 -0.1227  0.3529
  124POPC   C3B 1860   1.295   0.291   7.040 -0.1574  0.2749  0.0015
  124POPC   C4B 1861   1.364   0.218   6.585 -0.1178 -0.3102  0.1424
  125POPC   NC3 1862   8.459   9.349   8.310 -0.0306 -0.0632 -0.2586
  125POPC   PO4 1863   8.001   9.118   8.419  0.0853  0.0163 -0.0271
  125POPC   GL1 1864   8.041   9.293   7.984  0.2527  0.1146 -0.0110
  125POPC   GL2 1865   7.991   9.702   7.875  0.0279  0.0451 -0.1196
  125POPC   C1A 1866   8.060   9.190   7.543  0.2704  0.2313 -0.1189
  125POPC   D2A 1867   8.192   9.451   7.150 -0.2564  0.2046 -0.2328
  125POPC   C3A 1868   8.108   9.335   6.653  0.1261  0.1376  0.0496
  125POPC   C4A 1869   8.043   9.455   6.205 -0.1691 -0.1516  0.0435
  125POPC   C1B 1870   7.676  10.071   7.770 -0.1661 -0.1258 -0.0626
  125POPC   C2B 1871   7.446  10.167   7.431  0.1907  0.2335 -0.0643
  125POPC   C3B 1872   7.335  10.316   7.060 -0.2391  0.0016  0.1359
  125POPC   C4B 1873   7.368   9.992   6.655  0.1526 -0.1439  0.1690
  126POPC   NC3 1874   4.085   3.993   8.138 -0.3009  0.0898  0.2365
  126POPC   PO4 1875   3.682   3.829   8.226 -0.1767 -0.1059 -0.0789
  126POPC   GL1 1876   3.750   3.714   7.755 -0.0910  0.1373 -0.2803
  126POPC   GL2 1877   4.047   3.919   7.635  0.1317 -0.4689  0.3358
  126POPC   C1A 1878   3.957   3.392   7.545  0.0162 -0.2501 -0.0679
  126POPC   D2A 1879   3.885   3.233   7.160 -0.3041 -0.4309  0.1569
  126POPC   C3A 1880   3.695   3.519   6.819  0.1621 -0.3564 -0.2423
  126POPC   C4A 1881   3.465   3.932   6.929 -0.3538 -0.0550 -0.2912
  126POPC   C1B 1882   4.057   3.748   7.183 -0.1490  0.1437  0.2496
  126POPC   C2B 1883   4.150   3.700   6.912 -0.0989  0.3283 -0.3960
  126POPC   C3B 1884   4.488   3.862   6.596  0.0764  0.1934  0.0781
  126POPC   C4B 1885   4.643   3.703   6.306  0.0070 -0.0945  0.0360
  127POPC   NC3 1886   7.951   2.478   8.126 -0.0641  0.2021 -0.3051
  127POPC   PO4 1887   7.608   2.386   8.066  0.2272  0.2073  0.0764
  127POPC   GL1 1888   7.528   2.457   7.623  0.0449 -0.0582  0.1202
  127POPC   GL2 1889   7.529   2.787   7.716 -0.2435 -0.1523  0.0788
  127POPC   C1A 1890   7.696   2.336   7.244  0.0316 -0.4243 -0.0843
  127POPC   D2A 1891   7.989   2.109   6.986  0.2669  0.0996  0.3298
  127POPC   C3A 1892   7.964   2.072   6.484  0.1511  0.1675  0.3505
  127POPC   C4A 1893   8.081   2.097   6.055 -0.0667 -0.1023  0.0853
  127POPC   C1B 1894   7.346   2.874   7.342  0.0636  0.2752 -0.1566
  127POPC   C2B 1895   7.056   2.808   6.861  0.2129  0.2033 -0.0157
  127POPC   C3B 1896   6.948   2.654   6.479 -0.0647  0.0461 -0.1233
  127POPC   C4B 1897   7.001   2.383   6.101  0.1897 -0.0293 -0.1371
  128POPC   NC3 1898   2.362   7.784   8.452 -0.0355  0.2792  0.2373
  128POPC   PO4 1899   2.754   7.861   8.601 -0.0705  0.0039 -0.2350
  128POPC   GL1 1900   2.719   7.509   8.224  0.0046 -0.0858 -0.0646
  128POPC   GL2 1901   2.415   7.405   8.086 -0.1306  0.3639  0.1782
  128POPC   C1A 1902   2.893   7.164   7.973 -0.1071 -0.2349 -0.0953
  128POPC   D2A 1903   2.967   7.030   7.502 -0.5168  0.4170 -0.3718
  128POPC   C3A 1904   3.032   7.340   7.181  0.1756 -0.0659  0.2590
  128POPC   C4A 1905   3.250   7.454   6.734 -0.2739 -0.1087 -0.0649
  128POPC   C1B 1906   2.479   7.184   7.623  0.0509  0.2222  0.1858
  128POPC   C2B 1907   2.134   6.929   7.502  0.1184 -0.0875 -0.1673
  128POPC   C3B 1908   2.059   6.814   7.062 -0.3451 -0.2205 -0.0975
  128POPC   C4B 1909   1.922   7.071   6.688  0.0631  0.0158 -0.0519
  129POPC   NC3 1910   6.168   3.186   8.184 -0.1377  0.1591 -0.1560
  129POPC   PO4 1911   6.312   3.599   8.342  0.0496  0.0128 -0.3149
  129POPC   GL1 1912   6.147   3.533   7.810 -0.1219  0.1768 -0.0215
  129POPC   GL2 1913   6.348   3.877   7.568  0.0506  0.0750  0.4013
  129POPC   C1A 1914   6.023   3.476   7.442  0.1806 -0.1721 -0.4573
  129POPC   D2A 1915   5.968   3.456   7.097  0.1466  0.0964  0.0608
  129POPC   C3A 1916   5.904   3.121   6.790  0.0566  0.3878 -0.2931
  129POPC   C4A 1917   6.111   2.816   6.549 -0.1391 -0.0619 -0.1244
  129POPC   C1B 1918   6.096   3.939   7.118  0.1259  0.0845  0.0614
  129POPC   C2B 1919   5.913   4.288   6.834 -0.1767  0.0519  0.0114
  129POPC   C3B 1920   5.989   4.374   6.427 -0.1434  0.1447 -0.1320
  129POPC   C4B 1921   5.841   4.423   6.040  0.0530 -0.3597 -0.3032
  130POPC   NC3 1922   4.368   3.129   8.467  0.0330 -0.1198  0.1988
  130POPC   PO4 1923   4.576   3.130   8.065 -0.1162 -0.3896 -0.1298
  130POPC   GL1 1924   4.717   3.107   7.602  0.1782  0.1055  0.1005
  130POPC   GL2 1925   4.435   3.111   7.527  0.2134  0.2038  0.0432
  130POPC   C1A 1926   4.858   3.363   7.343  0.1812  0.0413  0.1077
  130POPC   D2A 1927   4.970   3.590   7.015  0.4663  0.0050 -0.2113
  130POPC   C3A 1928   5.093   3.470   6.672  0.1498  0.2827  0.0760
  130POPC   C4A 1929   5.248   3.666   6.260 -0.0533  0.1757 -0.0556
  130POPC   C1B 1930   4.375   3.296   7.078  0.4492 -0.2694 -0.1205
  130POPC   C2B 1931   4.350   3.309   6.649 -0.0965 -0.3812  0.2201
  130POPC   C3B 1932   4.772   3.213   6.330  0.5409  0.1405 -0.0466
  130POPC   C4B 1933   5.135   3.161   6.035  0.2240 -0.2683  0.2007
  131POPC   NC3 1934   0.468   5.638   8.459 -0.0063 -0.1001  0.1661
  131POPC   PO4 1935   0.069   5.812   8.334 -0.2218  0.2274 -0.0076
  131POPC   GL1 1936   0.028   5.844   7.962 -0.0301  0.0426  0.2825
  131POPC   GL2 1937   0.340   5.950   7.665  0.1073  0.0864  0.0661
  131POPC   C1A 1938  -0.181   6.130   7.681 -0.1353 -0.1501 -0.1227
  131POPC   D2A 1939  -0.587   6.286   7.730 -0.0087 -0.0752  0.1075
  131POPC   C3A 1940  -0.782   6.080   7.401 -0.0689  0.3866  0.1134
  131POPC   C4A 1941  -0.630   5.890   7.106  0.0829  0.3556 -0.1710
  131POPC   C1B 1942   0.385   5.872   7.292 -0.2454  0.0924 -0.0536
  131POPC   C2B 1943   0.686   6.032   6.932  0.3024  0.0369 -0.0168
  131POPC   C3B 1944   0.827   6.305   6.611  0.3390  0.2425  0.0493
  131POPC   C4B 1945   0.618   6.507   6.232 -0.1551 -0.0620 -0.1255
  132POPC   NC3 1946   6.824   3.593   8.132  0.0233 -0.0578  0.1955
  132POPC   PO4 1947   6.963   4.086   7.996  0.4438  0.0232  0.0016
  132POPC   GL1 1948   6.965   4.124   7.582  0.3582  0.3924  0.2082
  132POPC   GL2 1949   7.309   4.105   7.592  0.1272 -0.4119  0.1142
  132POPC   C1A 1950   6.711   4.232   7.295 -0.0760 -0.1978  0.0499
  132POPC   D2A 1951   6.457   4.199   6.940  0.3847  0.2317  0.2095
  132POPC   C3A 1952   6.358   4.571   6.897  0.0155  0.0437  0.3222
  132POPC   C4A 1953   5.979   4.816   6.955 -0.0380 -0.1031  0.0214
  132POPC   C1B 1954   7.175   4.354   7.201 -0.0661  0.1962  0.0960
  132POPC   C2B 1955   7.287   4.540   6.794 -0.2197  0.1210  0.3872
  132POPC   C3B 1956   7.350   4.495   6.391  0.2669  0.1395  0.3738
  132POPC   C4B 1957   6.995   4.472   6.128 -0.2887  0.1679 -0.0134
  133POPC   NC3 1958   5.681   7.234   9.772  0.0973 -0.3365 -0.0720
  133POPC   PO4 1959   5.614   7.559   9.524 -0.2270 -0.2665  0.1067
  133POPC   GL1 1960   5.802   7.508   9.131 -0.1389 -0.0326  0.0875
  133POPC   GL2 1961   5.532   7.731   8.927  0.0305 -0.2974 -0.3866
  133POPC   C1A 1962   5.651   7.145   8.813 -0.0208 -0.0036  0.0479
  133POPC   D2A 1963   5.747   6.841   8.410  0.0455 -0.3078 -0.0448
  133POPC   C3A 1964   5.789   6.501   8.092  0.0351 -0.0190 -0.0801
  133POPC   C4A 1965   6.078   6.227   8.121 -0.5685 -0.1171  0.0426
  133POPC   C1B 1966   5.811   7.587   8.591  0.1957 -0.2172 -0.0780
  133POPC   C2B 1967   6.031   7.278   8.329  0.2803 -0.2889  0.1721
  133POPC   C3B 1968   6.223   6.874   8.078 -0.5068  0.2260 -0.3221
  133POPC   C4B 1969   6.380   6.504   7.849 -0.1290  0.0102 -0.2466
  134POPC   NC3 1970   0.542   4.634   8.379 -0.5079 -0.2324  0.1222
  134POPC   PO4 1971   0.841   4.420   8.312 -0.0222  0.1186  0.2721
  134POPC   GL1 1972   1.024   4.319   7.916  0.1090 -0.1228  0.0576
  134POPC   GL2 1973   1.320   3.979   7.846  0.2292  0.2088  0.1631
  134POPC   C1A 1974   1.216   4.534   7.539  0.0286 -0.2304 -0.0630
  134POPC   D2A 1975   1.250   4.890   7.206 -0.0210  0.0409 -0.2475
  134POPC   C3A 1976   1.165   5.250   7.202  0.0075 -0.0826  0.0035
  134POPC   C4A 1977   1.135   5.551   6.929  0.0513 -0.0064 -0.3734
  134POPC   C1B 1978   1.308   4.001   7.389  0.2729  0.1695 -0.2863
  134POPC   C2B 1979   1.315   4.122   7.033 -0.2029 -0.1538  0.0645
  134POPC   C3B 1980   0.964   4.246   6.742  0.1421 -0.1189 -0.2203
  134POPC   C4B 1981   0.792   4.105   6.405  0.1668  0.0588  0.3363
  135POPC   NC3 1982   3.641   2.120   7.998  0.2430 -0.2300 -0.2059
  135POPC   PO4 1983   3.577   1.686   7.876  0.3559 -0.3001  0.2986
  135POPC   GL1 1984   3.345   1.448   7.651  0.0024 -0.0477  0.0131
  135POPC   GL2 1985   3.470   1.204   7.859 -0.0511  0.0128  0.1507
  135POPC   C1A 1986   3.247   1.250   7.289  0.1586 -0.0430 -0.0482
  135POPC   D2A 1987   3.315   1.003   6.875 -0.1830 -0.3197 -0.3586
  135POPC   C3A 1988   3.190   1.162   6.476  0.0479 -0.2886  0.0580
  135POPC   C4A 1989   3.133   1.400   6.065 -0.3232  0.0418 -0.3146
  135POPC   C1B 1990   3.538   0.907   7.524 -0.1366  0.0760 -0.0463
  135POPC   C2B 1991   3.512   0.674   7.126  0.3260  0.1329  0.0596
  135POPC   C3B 1992   3.369   0.481   6.827 -0.4567 -0.3249  0.3381
  135POPC   C4B 1993   3.418   0.283   6.484  0.3495 -0.0564  0.1046
  136POPC   NC3 1994   2.102   0.373   8.525 -0.0451  0.1350 -0.0816
  136POPC   PO4 1995   2.539   0.250   8.528 -0.0427 -0.3700  0.0388
  136POPC   GL1 1996   2.332   0.400   8.054  0.2695  0.0149 -0.1464
  136POPC   GL2 1997   2.441   0.238   7.664  0.0724 -0.4412 -0.4989
  136POPC   C1A 1998   2.524   0.739   7.749 -0.0186  0.2268  0.0696
  136POPC   D2A 1999   2.585   0.936   7.378  0.3257  0.0097  0.1713
  136POPC   C3A 2000   2.201   1.215   7.361 -0.3512 -0.6775  0.0436
  136POPC   C4A 2001   1.877   1.391   7.130 -0.0187  0.0217  0.0399
  136POPC   C1B 2002   2.525   0.432   7.234 -0.1460  0.2703 -0.1489
  136POPC   C2B 2003   2.376   0.384   6.808  0.0709 -0.0262 -0.0366
  136POPC   C3B 2004   2.173   0.092   6.533 -0.1231  0.3757  0.3149
  136POPC   C4B 2005   2.109   0.094   6.109 -0.1837 -0.1798  0.0155
  137POPC   NC3 2006   2.600   9.651   8.041 -0.1929 -0.2261  0.1185
  137POPC   PO4 2007   2.843   9.317   7.972 -0.0346  0.1800 -0.0155
  137POPC   GL1 2008   3.117   9.182   7.647 -0.0763 -0.1240  0.2543
  137POPC   GL2 2009   3.033   8.888   7.696  0.2136  0.0182 -0.0580
  137POPC   C1A 2010   3.240   9.252   7.275  0.0615 -0.1958 -0.0429
  137POPC   D2A 2011   2.969   9.403   6.952 -0.1313  0.1610  0.0901
  137POPC   C3A 2012   2.651   9.231   6.684 -0.2352 -0.2014  0.1992
  137POPC   C4A 2013   2.292   9.127   6.655  0.0052  0.1454  0.1453
  137POPC   C1B 2014   3.004   8.781   7.276 -0.0906  0.1924  0.2209
  137POPC   C2B 2015   3.445   8.643   7.123 -0.1296 -0.0783 -0.1074
  137POPC   C3B 2016   3.767   8.397   7.098 -0.1564 -0.0671  0.2029
  137POPC   C4B 2017   3.599   8.283   6.717  0.1320 -0.1182 -0.1069
  138POPC   NC3 2018   0.773   1.444   8.691  0.1153  0.1523  0.0551
  138POPC   PO4 2019   0.795   1.783   8.380  0.1822 -0.0957 -0.1065
  138POPC   GL1 2020   0.780   1.717   7.880  0.0959  0.0512 -0.1146
  138POPC   GL2 2021   0.988   1.884   7.746 -0.1924  0.2001 -0.0699
  138POPC   C1A 2022   0.525   1.547   7.676  0.1299 -0.0005  0.1552
  138POPC   D2A 2023   0.431   1.315   7.258  0.0712  0.2495  0.1672
  138POPC   C3A 2024   0.101   1.232   7.047 -0.4162 -0.0282 -0.2371
  138POPC   C4A 2025  -0.137   0.854   7.010  0.0234 -0.1960  0.1649
  138POPC   C1B 2026   1.391   1.773   7.621  0.0853 -0.2483 -0.2480
  138POPC   C2B 2027   1.601   1.928   7.270 -0.0504  0.2932  0.1264
  138POPC   C3B 2028   1.788   2.219   7.012 -0.0560  0.0569  0.0407
  138POPC   C4B 2029   2.167   2.336   6.702 -0.1900  0.2429 -0.3275
  139POPC   NC3 2030   9.054   3.543   8.161 -0.2552  0.0605  0.0184
  139POPC   PO4 2031   8.995   3.909   8.311  0.0395  0.0966  0.2259
  139POPC   GL1 2032   8.988   3.951   7.799 -0.1183  0.1277 -0.0539
  139POPC   GL2 2033   8.927   3.646   7.667  0.1042 -0.0624 -0.1838
  139POPC   C1A 2034   9.445   4.212   7.711 -0.4327  0.0437  0.1260
  139POPC   D2A 2035   9.494   4.689   7.548 -0.1315  0.3651  0.1387
  139POPC   C3A 2036   9.632   4.940   7.179  0.0507 -0.0975 -0.0128
  139POPC   C4A 2037   9.706   4.748   6.815 -0.1463  0.0459 -0.1013
  139POPC   C1B 2038   8.992   3.906   7.260 -0.0245 -0.3369 -0.1344
  139POPC   C2B 2039   8.988   4.080   6.841 -0.1006  0.0995  0.0968
  139POPC   C3B 2040   9.410   4.085   6.637 -0.1488 -0.1510  0.3664
  139POPC   C4B 2041   9.864   4.096   6.473 -0.2567  0.1302  0.4084
  140POPC   NC3 2042   9.527   2.915   8.285 -0.0429 -0.3098 -0.3680
  140POPC   PO4 2043   9.317   3.110   8.221  0.0343  0.2201 -0.1065
  140POPC   GL1 2044   9.355   3.010   7.797  0.0102  0.1983  0.0094
  140POPC   GL2 2045   9.025   3.122   7.640  0.0992 -0.0137 -0.0315
  140POPC   C1A 2046   9.542   3.046   7.416 -0.1891  0.0871 -0.2259
  140POPC   D2A 2047   9.827   3.427   7.195  0.2032  0.0342  0.1299
  140POPC   C3A 2048  10.326   3.372   6.942  0.1555  0.2449  0.2329
  140POPC   C4A 2049  10.551   3.705   6.909 -0.2857  0.3444  0.1421
  140POPC   C1B 2050   8.824   3.175   7.238 -0.0703  0.0827  0.1416
  140POPC   C2B 2051   8.615   3.444   6.946 -0.1618 -0.1524 -0.1010
  140POPC   C3B 2052   8.311   3.622   6.552  0.2446  0.0024  0.0554
  140POPC   C4B 2053   7.934   3.567   6.278 -0.1400 -0.1354  0.1331
  141POPC   NC3 2054   8.853   2.403   8.180  0.1608 -0.0047  0.1618
  141POPC   PO4 2055   9.296   2.485   8.099  0.1236 -0.1905 -0.1011
  141POPC   GL1 2056   9.525   2.509   7.753 -0.0962  0.2391 -0.1604
  141POPC   GL2 2057   9.539   2.073   7.657  0.0973  0.3172  0.2541
  141POPC   C1A 2058   9.517   2.561   7.250 -0.4762  0.0446 -0.0043
  141POPC   D2A 2059   9.557   2.326   6.801  0.2875 -0.2058  0.0775
  141POPC   C3A 2060   9.366   2.352   6.399  0.3512 -0.1846  0.0040
  141POPC   C4A 2061   9.006   2.501   6.105 -0.1322  0.0829  0.0301
  141POPC   C1B 2062   9.705   2.057   7.191 -0.0000 -0.1661 -0.1526
  141POPC   C2B 2063  10.014   1.784   7.131  0.1570 -0.3549  0.0160
  141POPC   C3B 2064  10.096   1.572   6.784 -0.2748  0.0432 -0.0396
  141POPC   C4B 2065  10.097   1.803   6.362  0.2301 -0.0419 -0.2030
  142POPC   NC3 2066   0.576   8.416   8.974 -0.1079  0.1454  0.2358
  142POPC   PO4 2067   0.395   8.422   8.493 -0.2512  0.0773  0.0196
  142POPC   GL1 2068   0.327   8.531   8.014 -0.1577  0.2544 -0.0436
  142POPC   GL2 2069   0.608   8.490   7.916 -0.0322 -0.0057 -0.0720
  142POPC   C1A 2070   0.251   8.343   7.563  0.2891  0.0051 -0.2390
  142POPC   D2A 2071  -0.003   8.456   7.219  0.0457 -0.0604  0.2579
  142POPC   C3A 2072   0.256   8.541   6.899 -0.0422  0.0197 -0.0890
  142POPC   C4A 2073   0.379   8.569   6.520 -0.2552 -0.1411 -0.2723
  142POPC   C1B 2074   0.878   8.549   7.593  0.0555 -0.0327  0.2037
  142POPC   C2B 2075   1.128   8.767   7.204  0.3543  0.0207 -0.0121
  142POPC   C3B 2076   1.335   9.164   7.148  0.2787 -0.3816 -0.1654
  142POPC   C4B 2077   1.104   9.494   6.775  0.0120  0.2313 -0.4064
  143POPC   NC3 2078   7.222   5.412   8.594 -0.0719 -0.0393  0.3222
  143POPC   PO4 2079   7.482   5.234   8.334 -0.1857  0.1828 -0.1585
  143POPC   GL1 2080   7.511   5.329   7.837  0.0546 -0.1906 -0.1748
  143POPC   GL2 2081   7.594   5.747   7.769  0.4214 -0.5125  0.0814
  143POPC   C1A 2082   7.314   5.427   7.510 -0.0100 -0.0307 -0.0010
  143POPC   D2A 2083   7.295   5.412   7.155 -0.0711  0.1232 -0.1116
  143POPC   C3A 2084   7.302   5.715   6.948  0.2223 -0.1342  0.2706
  143POPC   C4A 2085   7.462   5.871   6.462  0.1321  0.1204  0.0377
  143POPC   C1B 2086   7.340   5.952   7.501 -0.2726  0.1659  0.1844
  143POPC   C2B 2087   7.400   6.182   7.098 -0.0183  0.0091  0.0882
  143POPC   C3B 2088   7.602   6.387   6.922  0.3222  0.0341 -0.2452
  143POPC   C4B 2089   7.822   6.685   6.638  0.1550 -0.1082  0.0500
  144POPC   NC3 2090   2.554   0.494   3.756 -0.3504 -0.0568 -0.2066
  144POPC   PO4 2091   2.532   0.577   4.229  0.2655 -0.1231  0.1407
  144POPC   GL1 2092   2.515   0.747   4.685 -0.0088  0.0346 -0.0281
  144POPC   GL2 2093   2.842   0.841   4.806 -0.1098  0.1229  0.0041
  144POPC   C1A 2094   2.438   0.512   5.065  0.3470  0.1925 -0.0238
  144POPC   D2A 2095   2.591   0.291   5.437 -0.0681 -0.0845  0.0841
  144POPC   C3A 2096   3.081   0.293   5.715  0.0122 -0.0939  0.0615
  144POPC   C4A 2097   3.151   0.041   6.079 -0.0712  0.2082  0.0386
  144POPC   C1B 2098   2.792   0.836   5.197  0.0676 -0.0068 -0.1220
  144POPC   C2B 2099   2.639   0.787   5.577  0.1249 -0.2762  0.3172
  144POPC   C3B 2100   2.611   0.584   5.868  0.0804  0.1942 -0.1202
  144POPC   C4B 2101   2.198   0.603   6.162  0.0039 -0.0408 -0.0189
  145POPC   NC3 2102   2.592   8.268   4.506  0.1189  0.2080 -0.2207
  145POPC   PO4 2103   3.013   8.426   4.533  0.2305  0.1364  0.2233
  145POPC   GL1 2104   3.308   8.440   4.825  0.1027 -0.3514 -0.0634
  145POPC   GL2 2105   3.161   8.259   5.004  0.1195  0.0920  0.0470
  145POPC   C1A 2106   3.529   8.417   5.276 -0.2639 -0.0873 -0.1532
  145POPC   D2A 2107   3.242   8.372   5.610 -0.1445  0.0195 -0.0721
  145POPC   C3A 2108   3.229   8.574   5.920 -0.0895 -0.0565 -0.1356
  145POPC   C4A 2109   3.245   9.021   5.956 -0.1142 -0.0765  0.0749
  145POPC   C1B 2110   2.768   8.099   5.097  0.0107 -0.1027 -0.0027
  145POPC   C2B 2111   2.680   8.047   5.546  0.3149 -0.0502  0.0627
  145POPC   C3B 2112   2.977   8.008   5.891  0.0786  0.0284  0.4585
  145POPC   C4B 2113   3.457   8.145   6.044  0.1186  0.2877 -0.1978
  146POPC   NC3 2114   5.720   2.375   4.212  0.1988 -0.1447  0.1596
  146POPC   PO4 2115   5.403   2.050   4.262 -0.0753  0.0633  0.0978
  146POPC   GL1 2116   5.578   2.173   4.634 -0.1065  0.1633 -0.2318
  146POPC   GL2 2117   5.656   2.499   4.712 -0.1835  0.4429 -0.0110
  146POPC   C1A 2118   5.467   2.170   5.035 -0.0170  0.0958 -0.1177
  146POPC   D2A 2119   5.500   2.022   5.378 -0.1989 -0.0851 -0.0452
  146POPC   C3A 2120   5.546   2.366   5.665  0.1359 -0.0220  0.0878
  146POPC   C4A 2121   5.712   2.740   5.950 -0.0524 -0.1098  0.2257
  146POPC   C1B 2122   5.984   2.224   4.925  0.2147 -0.0275 -0.1893
  146POPC   C2B 2123   6.157   2.106   5.362  0.1380  0.0604  0.1253
  146POPC   C3B 2124   6.507   1.797   5.463 -0.1317  0.0525 -0.1653
  146POPC   C4B 2125   6.864   1.592   5.341  0.0923  0.3970 -0.2370
  147POPC   NC3 2126   2.210   2.144   4.326  0.1682  0.0945  0.1450
  147POPC   PO4 2127   2.638   2.169   4.499  0.0220  0.1934  0.1189
  147POPC   GL1 2128   2.761   2.319   4.980  0.1494  0.0900  0.0362
  147POPC   GL2 2129   2.642   2.738   5.038 -0.1589  0.1423  0.2119
  147POPC   C1A 2130   2.841   2.320   5.423 -0.1847 -0.0545 -0.2520
  147POPC   D2A 2131   3.147   2.095   5.693 -0.2945 -0.1208 -0.2598
  147POPC   C3A 2132   3.512   2.356   5.488  0.1056  0.0167 -0.1123
  147POPC   C4A 2133   3.754   2.567   5.291  0.2782  0.0644 -0.0020
  147POPC   C1B 2134   2.614   2.771   5.545 -0.0140 -0.2234  0.0220
  147POPC   C2B 2135   2.687   2.527   5.881 -0.0478  0.1137 -0.3760
  147POPC   C3B 2136   2.476   2.404   6.351 -0.0860  0.1258 -0.3797
  147POPC   C4B 2137   2.515   1.946   6.474 -0.1158 -0.3065 -0.2607
  148POPC   NC3 2138   4.674   1.762   4.626  0.2621 -0.0808  0.0697
  148POPC   PO4 2139   4.330   1.693   4.585  0.2099  0.2630 -0.1675
  148POPC   GL1 2140   4.357   1.408   4.986  0.2152 -0.3379 -0.1167
  148POPC   GL2 2141   4.585   1.546   5.132 -0.0659 -0.2181 -0.1794
  148POPC   C1A 2142   4.189   1.166   5.302 -0.2371  0.2357 -0.0435
  148POPC   D2A 2143   4.351   0.994   5.630  0.1937 -0.1749  0.2638
  148POPC   C3A 2144   4.094   0.812   5.702  0.0442  0.0804 -0.1252
  148POPC   C4A 2145   3.725   0.695   5.644 -0.0651 -0.1079  0.2822
  148POPC   C1B 2146   4.602   1.501   5.448 -0.2229 -0.0471  0.0370
  148POPC   C2B 2147   4.705   1.363   5.871  0.2345  0.4466  0.0889
  148POPC   C3B 2148   4.368   1.297   6.205  0.0094  0.4873  0.0447
  148POPC   C4B 2149   3.933   1.166   6.282  0.0868  0.0704  0.3252
  149POPC   NC3 2150   3.341   8.242   4.187 -0.1037  0.2957 -0.1481
  149POPC   PO4 2151   3.366   8.628   4.229  0.0109  0.0376 -0.2228
  149POPC   GL1 2152   3.606   8.730   4.595 -0.1021 -0.0823 -0.0559
  149POPC   GL2 2153   3.681   8.930   4.444  0.0706 -0.1938 -0.1567
  149POPC   C1A 2154   4.070   8.684   4.666  0.0927 -0.1466 -0.1325
  149POPC   D2A 2155   4.426   8.562   4.419  0.0044 -0.1327 -0.0271
  149POPC   C3A 2156   4.797   8.500   4.507 -0.0498 -0.3727  0.5746
  149POPC   C4A 2157   5.030   8.488   4.852 -0.1358 -0.1182  0.0887
  149POPC   C1B 2158   4.198   9.133   4.387  0.1469  0.1090  0.2236
  149POPC   C2B 2159   4.478   8.978   4.738 -0.0930 -0.0237  0.0257
  149POPC   C3B 2160   4.916   8.954   4.668  0.0453 -0.1221  0.1594
  149POPC   C4B 2161   5.339   8.910   4.885  0.2466 -0.1315 -0.0916
  150POPC   NC3 2162   2.118   6.544   4.518 -0.1593 -0.1179 -0.1550
  150POPC   PO4 2163   2.430   6.230   4.700  0.1501 -0.0579 -0.1095
  150POPC   GL1 2164   2.485   6.121   5.067 -0.2298  0.1498  0.1234
  150POPC   GL2 2165   2.246   5.876   5.109  0.1186  0.3574 -0.3238
  150POPC   C1A 2166   2.583   5.992   5.510  0.2685 -0.2429 -0.3173
  150POPC   D2A 2167   2.257   6.066   5.857 -0.2630  0.0420  0.2395
  150POPC   C3A 2168   1.934   5.889   6.167 -0.4808  0.3730 -0.0700
  150POPC   C4A 2169   1.555   6.145   6.201 -0.2386 -0.1819  0.1539
  150POPC   C1B 2170   1.977   5.764   5.520 -0.1041  0.3599 -0.1249
  150POPC   C2B 2171   1.880   5.442   5.823  0.3941 -0.2690  0.1401
  150POPC   C3B 2172   2.103   5.379   6.205 -0.1038  0.1590 -0.2307
  150POPC   C4B 2173   2.385   5.656   6.382 -0.0930  0.1379 -0.1062
  151POPC   NC3 2174   6.702   7.688   3.362 -0.0043 -0.1194  0.0399
  151POPC   PO4 2175   6.242   7.529   3.269 -0.0506  0.1357  0.0780
  151POPC   GL1 2176   6.336   7.439   3.689  0.1813 -0.0987  0.0230
  151POPC   GL2 2177   6.402   7.191   3.697  0.0302 -0.2250 -0.2085
  151POPC   C1A 2178   6.765   7.496   3.995 -0.0191 -0.1830 -0.0126
  151POPC   D2A 2179   6.909   7.420   4.437 -0.0441 -0.0469 -0.0294
  151POPC   C3A 2180   6.681   7.198   4.745  0.0905  0.2085 -0.2322
  151POPC   C4A 2181   6.675   7.155   5.218  0.0525 -0.2218  0.3522
  151POPC   C1B 2182   6.504   6.875   3.974 -0.2424 -0.1840  0.1320
  151POPC   C2B 2183   6.483   6.900   4.339  0.0036  0.1801 -0.0168
  151POPC   C3B 2184   6.489   6.730   4.702 -0.1829 -0.1733 -0.1213
  151POPC   C4B 2185   6.319   6.662   5.075  0.0657  0.1531 -0.3754
  152POPC   NC3 2186   2.209   4.326   4.144  0.0657 -0.2342  0.0364
  152POPC   PO4 2187   2.115   4.343   4.583 -0.1553 -0.0747  0.2372
  152POPC   GL1 2188   2.109   4.362   5.012 -0.5191  0.0507 -0.1809
  152POPC   GL2 2189   2.440   4.244   5.160 -0.0150 -0.0001  0.0227
  152POPC   C1A 2190   2.078   4.131   5.408  0.2139 -0.2970  0.0360
  152POPC   D2A 2191   2.296   3.779   5.642 -0.0231  0.0001  0.0026
  152POPC   C3A 2192   2.397   3.831   6.048  0.1242 -0.1973  0.2019
  152POPC   C4A 2193   2.130   3.831   6.419 -0.3560  0.1122 -0.1712
  152POPC   C1B 2194   2.510   4.613   5.439  0.1334 -0.0226 -0.1485
  152POPC   C2B 2195   2.722   4.933   5.667 -0.0879  0.2063  0.1051
  152POPC   C3B 2196   2.596   5.094   5.952  0.0757 -0.1105 -0.3213
  152POPC   C4B 2197   2.632   5.277   6.259  0.0152  0.2170 -0.3304
  153POPC   NC3 2198   9.367   6.715   4.863 -0.3176 -0.1735 -0.0940
  153POPC   PO4 2199   9.725   6.965   4.632 -0.0071  0.0959 -0.1611
  153POPC   GL1 2200   9.899   6.756   4.974 -0.0027  0.0127  0.0237
  153POPC   GL2 2201  10.163   6.679   4.797 -0.3017  0.0027 -0.4543
  153POPC   C1A 2202  10.016   6.440   5.297 -0.1666  0.0031  0.0854
  153POPC   D2A 2203  10.169   5.999   5.306 -0.1372 -0.0753 -0.1664
  153POPC   C3A 2204  10.296   5.802   5.738  0.3602 -0.1195  0.0448
  153POPC   C4A 2205  10.508   6.078   5.964  0.1282 -0.1815 -0.2394
  153POPC   C1B 2206  10.398   6.899   5.185  0.2775 -0.1973 -0.1411
  153POPC   C2B 2207  10.559   7.116   5.568  0.0110 -0.0630  0.3322
  153POPC   C3B 2208  10.355   7.361   5.843 -0.0975  0.0590 -0.2063
  153POPC   C4B 2209  10.251   7.541   6.248 -0.2188 -0.3428  0.2670
  154POPC   NC3 2210   6.814   4.163   4.192 -0.3656  0.0182  0.0320
  154POPC   PO4 2211   6.571   4.534   4.258  0.0820  0.0389  0.0921
  154POPC   GL1 2212   6.451   4.583   4.687 -0.2345 -0.0760 -0.1438
  154POPC   GL2 2213   6.565   4.862   4.793  0.3184  0.3708  0.2727
  154POPC   C1A 2214   6.217   4.543   5.034 -0.0154  0.0790 -0.1366
  154POPC   D2A 2215   6.109   4.557   5.471  0.1390  0.0807 -0.0446
  154POPC   C3A 2216   6.106   4.904   5.665 -0.0357  0.2838  0.1991
  154POPC   C4A 2217   6.024   4.921   6.001  0.0525 -0.0660 -0.3698
  154POPC   C1B 2218   6.512   4.874   5.285 -0.0823  0.0301  0.3852
  154POPC   C2B 2219   6.610   4.614   5.636  0.1126  0.2441  0.0295
  154POPC   C3B 2220   6.453   4.602   6.071  0.1627 -0.0798 -0.1907
  154POPC   C4B 2221   6.458   4.775   6.435 -0.0639 -0.0033 -0.0622
  155POPC   NC3 2222   5.741   3.889   4.220  0.2291  0.0144 -0.1023
  155POPC   PO4 2223   5.313   3.877   4.347 -0.2412  0.1294 -0.0743
  155POPC   GL1 2224   5.507   3.657   4.565  0.1128  0.1902  0.0077
  155POPC   GL2 2225   5.243   3.439   4.675  0.1317 -0.0878  0.0735
  155POPC   C1A 2226   5.322   3.758   5.046 -0.0484  0.0493  0.0962
  155POPC   D2A 2227   5.040   3.727   5.467  0.0160 -0.1122  0.0884
  155POPC   C3A 2228   4.635   3.612   5.410 -0.1862  0.0360  0.0469
  155POPC   C4A 2229   4.418   3.404   5.105 -0.0415  0.2241 -0.2532
  155POPC   C1B 2230   4.970   3.347   5.082  0.2161 -0.1608  0.3671
  155POPC   C2B 2231   4.652   2.952   5.151  0.1693 -0.2680 -0.1051
  155POPC   C3B 2232   4.628   2.734   5.517 -0.0217 -0.1225 -0.0331
  155POPC   C4B 2233   4.761   2.810   5.939  0.0003 -0.1797 -0.0204
  156POPC   NC3 2234   2.508   3.029   4.609 -0.0467 -0.1239  0.0748
  156POPC   PO4 2235   2.190   3.373   4.608  0.0224  0.3109  0.1160
  156POPC   GL1 2236   2.293   3.262   5.009 -0.0237 -0.1057  0.1221
  156POPC   GL2 2237   2.280   3.511   5.157  0.2602  0.3219  0.0145
  156POPC   C1A 2238   2.257   2.927   5.269  0.3103 -0.1785 -0.0018
  156POPC   D2A 2239   2.285   2.490   5.273  0.1785  0.0453  0.2444
  156POPC   C3A 2240   2.236   2.394   5.666  0.1572 -0.0271  0.1384
  156POPC   C4A 2241   1.875   2.491   6.028  0.0522 -0.0440 -0.1051
  156POPC   C1B 2242   2.511   3.288   5.447  0.2793 -0.1195 -0.0583
  156POPC   C2B 2243   2.752   3.179   5.812  0.0899 -0.0731  0.0904
  156POPC   C3B 2244   3.196   3.060   6.006 -0.2708  0.0095  0.1595
  156POPC   C4B 2245   3.434   2.799   6.220  0.0449 -0.0314  0.1550
  157POPC   NC3 2246   3.956   4.931   4.406  0.3450 -0.0272  0.0198
  157POPC   PO4 2247   3.601   4.600   4.455  0.3686 -0.0943  0.1373
  157POPC   GL1 2248   3.668   4.586   4.850 -0.1580  0.0151 -0.0505
  157POPC   GL2 2249   3.468   4.763   5.071  0.0122 -0.0384  0.0232
  157POPC   C1A 2250   4.007   4.423   5.015 -0.0330 -0.0359  0.0140
  157POPC   D2A 2251   4.089   4.199   5.456 -0.0341  0.2364  0.3250
  157POPC   C3A 2252   4.089   4.405   5.863 -0.2182 -0.2859 -0.2283
  157POPC   C4A 2253   3.901   4.428   6.266 -0.0423  0.1549 -0.1246
  157POPC   C1B 2254   3.232   4.961   5.452  0.0783 -0.0245 -0.0773
  157POPC   C2B 2255   3.428   5.044   5.846 -0.1318 -0.1599  0.0115
  157POPC   C3B 2256   3.484   5.273   6.161 -0.0868  0.2757  0.1424
  157POPC   C4B 2257   3.709   5.395   6.347 -0.1322  0.2410 -0.3046
  158POPC   NC3 2258   2.052   7.486   4.502  0.0106 -0.0496  0.2179
  158POPC   PO4 2259   2.178   7.942   4.425  0.0069 -0.0228  0.1455
  158POPC   GL1 2260   2.339   7.968   4.786 -0.1846  0.2230 -0.2487
  158POPC   GL2 2261   2.246   8.238   4.888 -0.0768 -0.2365  0.0437
  158POPC   C1A 2262   2.350   7.829   5.263 -0.2527 -0.0828  0.0355
  158POPC   D2A 2263   2.420   7.489   5.608  0.2100 -0.1314 -0.2484
  158POPC   C3A 2264   2.665   7.585   5.906  0.2891  0.1695 -0.3056
  158POPC   C4A 2265   2.564   7.754   6.386  0.1966  0.0123 -0.0487
  158POPC   C1B 2266   2.215   8.324   5.333  0.0261  0.0035  0.1692
  158POPC   C2B 2267   2.257   8.662   5.605 -0.1026 -0.0297 -0.3722
  158POPC   C3B 2268   2.348   8.783   6.095  0.3425 -0.0379 -0.0891
  158POPC   C4B 2269   2.753   8.774   6.355 -0.3803 -0.0347  0.1168
  159POPC   NC3 2270   8.689   1.016   4.000  0.1160  0.2679 -0.0421
  159POPC   PO4 2271   8.646   0.644   4.077  0.0697 -0.0144 -0.1747
  159POPC   GL1 2272   8.273   0.511   4.362 -0.2023 -0.0512  0.0296
  159POPC   GL2 2273   7.984   0.363   4.284  0.0670 -0.1048 -0.4022
  159POPC   C1A 2274   8.133   0.538   4.776 -0.1223  0.3034 -0.1351
  159POPC   D2A 2275   8.216   0.530   5.214 -0.0574 -0.1075  0.1167
  159POPC   C3A 2276   8.166   0.063   5.520  0.1661 -0.4669  0.1763
  159POPC   C4A 2277   8.234  -0.043   5.818  0.1270  0.2543 -0.1644
  159POPC   C1B 2278   7.692   0.581   4.583  0.1605 -0.1751  0.0737
  159POPC   C2B 2279   7.721   0.576   5.091  0.2716 -0.0377  0.0427
  159POPC   C3B 2280   7.571   0.514   5.540 -0.0626  0.0973 -0.2304
  159POPC   C4B 2281   7.380   0.550   5.909 -0.2248  0.0674 -0.3837
  160POPC   NC3 2282   6.614   5.019   4.168  0.1428 -0.2960 -0.1137
  160POPC   PO4 2283   6.243   4.984   4.426 -0.0780 -0.2020 -0.1174
  160POPC   GL1 2284   6.017   4.913   4.834  0.0595 -0.0827 -0.2075
  160POPC   GL2 2285   6.082   5.243   4.926  0.0482 -0.1191 -0.1386
  160POPC   C1A 2286   5.860   4.877   5.214 -0.2181 -0.1050 -0.0373
  160POPC   D2A 2287   5.620   4.565   5.584  0.0559  0.0961 -0.0369
  160POPC   C3A 2288   5.312   4.434   6.021  0.0041 -0.0108  0.1809
  160POPC   C4A 2289   5.493   4.201   6.427 -0.1113 -0.0822  0.2961
  160POPC   C1B 2290   6.083   5.369   5.344 -0.0277  0.1177 -0.1289
  160POPC   C2B 2291   6.315   5.465   5.704  0.1747  0.1259  0.0311
  160POPC   C3B 2292   6.376   5.257   6.044  0.1473  0.3373  0.0253
  160POPC   C4B 2293   6.712   5.230   6.360 -0.1378  0.1986 -0.0927
  161POPC   NC3 2294   3.316   6.291   3.636 -0.1372 -0.0669 -0.1447
  161POPC   PO4 2295   3.750   6.145   3.827  0.0656  0.0795 -0.3843
  161POPC   GL1 2296   3.840   6.204   4.294 -0.0186 -0.2220  0.0325
  161POPC   GL2 2297   3.761   6.472   4.352 -0.2872  0.0405  0.0965
  161POPC   C1A 2298   3.995   6.083   4.736 -0.0767 -0.1946 -0.0177
  161POPC   D2A 2299   3.953   6.340   5.205 -0.4364 -0.0402 -0.1039
  161POPC   C3A 2300   4.051   6.188   5.549  0.0505 -0.2380  0.4407
  161POPC   C4A 2301   4.245   6.317   5.854 -0.1793 -0.2895 -0.3125
  161POPC   C1B 2302   4.156   6.578   4.505  0.0844 -0.0636  0.3205
  161POPC   C2B 2303   4.578   6.730   4.740 -0.1153 -0.0903  0.0266
  161POPC   C3B 2304   4.816   6.745   5.052 -0.2891  0.0664  0.1360
  161POPC   C4B 2305   5.242   6.837   5.111 -0.1091 -0.1717  0.2484
  162POPC   NC3 2306   8.832   7.245   4.723  0.1847  0.1192 -0.1661
  162POPC   PO4 2307   8.861   6.798   4.929 -0.0364  0.1461  0.0892
  162POPC   GL1 2308   8.752   6.979   5.236  0.1834 -0.0039  0.3586
  162POPC   GL2 2309   8.523   7.120   5.168  0.2004  0.0551  0.0591
  162POPC   C1A 2310   8.923   6.953   5.614 -0.0970  0.1922  0.1394
  162POPC   D2A 2311   9.299   7.149   5.814 -0.1180 -0.1178  0.0220
  162POPC   C3A 2312   9.444   6.875   6.016 -0.1865 -0.0112 -0.0628
  162POPC   C4A 2313   9.842   6.612   6.101 -0.1878 -0.0318 -0.0393
  162POPC   C1B 2314   8.356   7.081   5.544 -0.0549  0.3565  0.0132
  162POPC   C2B 2315   8.382   7.266   5.948  0.2106 -0.0301  0.0373
  162POPC   C3B 2316   8.060   7.240   6.344 -0.1586 -0.0736 -0.3241
  162POPC   C4B 2317   7.608   7.312   6.349  0.1004  0.2889 -0.3457
  163POPC   NC3 2318   7.541   0.339   4.006 -0.1675 -0.2398  0.1020
  163POPC   PO4 2319   7.210   0.213   3.857  0.2407 -0.2052  0.4596
  163POPC   GL1 2320   7.052   0.265   4.258 -0.1369 -0.4846 -0.1172
  163POPC   GL2 2321   7.144   0.598   4.386  0.0551  0.1861 -0.3298
  163POPC   C1A 2322   7.196   0.065   4.563  0.0175  0.1858 -0.0738
  163POPC   D2A 2323   7.313  -0.102   4.965  0.2967  0.3052  0.2760
  163POPC   C3A 2324   6.846  -0.386   5.002 -0.0169 -0.1869 -0.2228
  163POPC   C4A 2325   6.452  -0.234   5.143  0.0371  0.2020 -0.1739
  163POPC   C1B 2326   7.180   0.550   4.754 -0.1075 -0.0973 -0.0495
  163POPC   C2B 2327   7.175   0.504   5.214 -0.3454  0.1950 -0.0096
  163POPC   C3B 2328   6.898   0.533   5.571  0.0143  0.0073 -0.0761
  163POPC   C4B 2329   6.839   0.670   5.984 -0.1264  0.0313  0.2739
  164POPC   NC3 2330   2.422   7.306   4.198 -0.1803 -0.2711 -0.0748
  164POPC   PO4 2331   2.230   7.067   4.419 -0.0764  0.4194  0.0920
  164POPC   GL1 2332   2.578   7.069   4.700  0.1753  0.1391 -0.1729
  164POPC   GL2 2333   2.604   6.781   4.837  0.2206  0.3397 -0.2012
  164POPC   C1A 2334   2.479   7.157   5.135  0.1997  0.2152 -0.3159
  164POPC   D2A 2335   2.203   6.913   5.376 -0.2304 -0.0532  0.4605
  164POPC   C3A 2336   2.177   6.314   5.425  0.3925 -0.2650 -0.1430
  164POPC   C4A 2337   1.819   6.220   5.753 -0.0201  0.1958 -0.0084
  164POPC   C1B 2338   2.710   6.588   5.230  0.1112 -0.2060  0.1609
  164POPC   C2B 2339   2.869   6.424   5.721  0.0987 -0.0263  0.0321
  164POPC   C3B 2340   3.171   6.548   6.121 -0.1245  0.0568  0.2608
  164POPC   C4B 2341   3.269   6.800   6.433  0.2506 -0.1008  0.0891
  165POPC   NC3 2342   9.191   4.882   4.319 -0.0347  0.1958 -0.1739
  165POPC   PO4 2343   9.138   5.230   4.267 -0.0613  0.0325  0.1090
  165POPC   GL1 2344   9.085   5.149   4.729  0.1093  0.0067  0.0724
  165POPC   GL2 2345   8.737   5.266   4.949 -0.1423 -0.1657  0.1045
  165POPC   C1A 2346   9.073   4.984   5.182  0.0246  0.0040 -0.0612
  165POPC   D2A 2347   9.019   5.060   5.615 -0.0969 -0.0576  0.2146
  165POPC   C3A 2348   9.159   4.732   5.911 -0.1714  0.2295 -0.2225
  165POPC   C4A 2349   9.161   4.494   6.267  0.2307  0.1005 -0.1070
  165POPC   C1B 2350   8.586   5.131   5.347 -0.1925  0.0799 -0.1624
  165POPC   C2B 2351   8.269   5.121   5.721  0.0022  0.0394 -0.0434
  165POPC   C3B 2352   8.129   5.329   6.122 -0.1679 -0.0918  0.1703
  165POPC   C4B 2353   8.281   5.750   6.403 -0.1952  0.2355 -0.2074
  166POPC   NC3 2354   2.968   0.481   4.484 -0.0683  0.1436 -0.4458
  166POPC   PO4 2355   2.978   0.020   4.646  0.2408  0.0263  0.2688
  166POPC   GL1 2356   3.383  -0.081   4.871 -0.0833  0.0510 -0.1425
  166POPC   GL2 2357   3.544   0.176   4.785 -0.1159  0.0589  0.1411
  166POPC   C1A 2358   3.665  -0.310   5.137 -0.2911  0.1553  0.1701
  166POPC   D2A 2359   3.566  -0.786   5.047 -0.0232  0.0501  0.0162
  166POPC   C3A 2360   3.934  -1.000   5.118 -0.0217 -0.1608  0.2285
  166POPC   C4A 2361   4.317  -0.851   5.247  0.0448 -0.0871  0.2299
  166POPC   C1B 2362   3.610   0.327   5.201 -0.2335 -0.1776  0.2821
  166POPC   C2B 2363   3.607   0.195   5.512 -0.1074  0.2891 -0.0668
  166POPC   C3B 2364   3.527   0.315   5.855  0.2136  0.1424 -0.0244
  166POPC   C4B 2365   3.726   0.515   6.108 -0.1156  0.1065  0.1337
  167POPC   NC3 2366   9.456   2.121   4.207  0.1115  0.0007  0.1048
  167POPC   PO4 2367   9.855   1.773   4.440 -0.0585  0.2842  0.0781
  167POPC   GL1 2368   9.769   2.013   4.756  0.3636 -0.0459  0.0606
  167POPC   GL2 2369   9.569   1.911   4.899  0.1463  0.0124  0.0484
  167POPC   C1A 2370   9.698   2.407   5.016  0.0004 -0.1186 -0.1095
  167POPC   D2A 2371   9.572   2.664   5.309 -0.0549 -0.0594  0.0153
  167POPC   C3A 2372   9.764   2.932   5.689 -0.2918 -0.1312  0.1856
  167POPC   C4A 2373   9.711   3.309   5.652 -0.0285 -0.4675 -0.2411
  167POPC   C1B 2374   9.244   1.626   5.042  0.0963  0.2713  0.1548
  167POPC   C2B 2375   9.410   1.461   5.381  0.3246 -0.0085  0.0241
  167POPC   C3B 2376   9.467   1.751   5.765 -0.0383  0.0399 -0.1401
  167POPC   C4B 2377   9.214   1.941   6.064 -0.0146 -0.3628  0.2206
  168POPC   NC3 2378   9.407   3.442   3.651  0.0339  0.1894 -0.1609
  168POPC   PO4 2379   9.236   3.514   4.107  0.1010  0.0404  0.2037
  168POPC   GL1 2380   9.268   3.401   4.575  0.0106  0.1570  0.1959
  168POPC   GL2 2381   9.241   3.533   4.873  0.0544 -0.4162 -0.1356
  168POPC   C1A 2382   9.055   3.078   4.784  0.2046  0.1587  0.0666
  168POPC   D2A 2383   9.119   2.725   5.066  0.2278  0.0946  0.0705
  168POPC   C3A 2384   8.871   2.582   5.466 -0.3407 -0.0895  0.2478
  168POPC   C4A 2385   8.514   2.404   5.796 -0.3040  0.1726  0.1763
  168POPC   C1B 2386   8.888   3.416   5.222 -0.1574 -0.1162 -0.1242
  168POPC   C2B 2387   8.781   3.557   5.664  0.0321  0.1432 -0.3056
  168POPC   C3B 2388   8.818   3.739   6.000 -0.0548  0.0774 -0.1774
  168POPC   C4B 2389   8.919   4.004   6.384 -0.0044 -0.0459  0.1549
  169POPC   NC3 2390   2.501   1.599   4.312  0.0418  0.1698 -0.4081
  169POPC   PO4 2391   2.534   1.208   4.564  0.1351  0.2549 -0.0542
  169POPC   GL1 2392   2.541   1.255   4.958  0.0267 -0.0572  0.0207
  169POPC   GL2 2393   2.251   1.091   4.958  0.0052 -0.0762 -0.4327
  169POPC   C1A 2394   2.490   1.558   5.204 -0.1014 -0.0164  0.1303
  169POPC   D2A 2395   2.307   1.946   5.431 -0.0737 -0.1091 -0.2645
  169POPC   C3A 2396   1.869   1.917   5.471 -0.1046 -0.0777 -0.1442
  169POPC   C4A 2397   1.563   2.231   5.636  0.1024 -0.3660  0.0485
  169POPC   C1B 2398   2.314   1.128   5.425  0.0773 -0.2345  0.3027
  169POPC   C2B 2399   2.288   1.560   5.717 -0.3224 -0.0666  0.0415
  169POPC   C3B 2400   2.138   1.537   6.132  0.4138  0.4023  0.2520
  169POPC   C4B 2401   1.727   1.383   6.332 -0.2283  0.0932  0.0711
  170POPC   NC3 2402   8.537   2.356   4.041 -0.0656 -0.1770  0.2217
  170POPC   PO4 2403   8.099   2.711   4.167 -0.1097 -0.1087 -0.0199
  170POPC   GL1 2404   8.136   2.767   4.594 -0.0889 -0.2221 -0.0428
  170POPC   GL2 2405   8.074   3.063   4.667 -0.2477  0.0162 -0.0125
  170POPC   C1A 2406   8.200   2.739   5.005 -0.1197 -0.3185  0.4286
  170POPC   D2A 2407   8.297   2.610   5.441 -0.0352 -0.0559  0.3284
  170POPC   C3A 2408   8.387   2.913   5.751  0.3549 -0.2012 -0.0254
  170POPC   C4A 2409   8.400   2.794   6.228 -0.1373 -0.2695 -0.0792
  170POPC   C1B 2410   7.830   3.179   4.980  0.2202  0.3198 -0.1539
  170POPC   C2B 2411   7.504   3.164   5.335  0.2514 -0.1413 -0.5274
  170POPC   C3B 2412   7.499   2.896   5.775  0.1476  0.0078 -0.0108
  170POPC   C4B 2413   7.440   2.704   6.185 -0.1266  0.1414 -0.0765
  171POPC   NC3 2414   7.455   6.158   3.827  0.3232  0.0274 -0.1255
  171POPC   PO4 2415   7.628   5.785   3.977 -0.2822  0.0246 -0.2052
  171POPC   GL1 2416   7.407   5.822   4.348 -0.0092 -0.2089  0.5548
  171POPC   GL2 2417   7.205   5.599   4.340  0.3009 -0.3315 -0.3688
  171POPC   C1A 2418   7.499   5.870   4.826  0.1671  0.1913  0.3997
  171POPC   D2A 2419   7.308   5.794   5.141 -0.3530 -0.2008  0.1612
  171POPC   C3A 2420   7.449   5.787   5.610  0.0589 -0.3827  0.1253
  171POPC   C4A 2421   7.377   5.593   6.103 -0.2662  0.1853  0.0643
  171POPC   C1B 2422   6.986   5.846   4.697 -0.0232 -0.3513 -0.1144
  171POPC   C2B 2423   6.828   5.852   5.133 -0.3180 -0.2001 -0.1775
  171POPC   C3B 2424   6.942   5.632   5.506  0.2962 -0.1189 -0.2784
  171POPC   C4B 2425   6.893   5.495   5.930 -0.1802  0.0429 -0.0281
  172POPC   NC3 2426   4.764   3.290   4.323  0.0315 -0.1165  0.0603
  172POPC   PO4 2427   4.848   2.991   4.583 -0.1909 -0.1514 -0.1037
  172POPC   GL1 2428   5.095   2.798   4.854  0.2879  0.0220 -0.1239
  172POPC   GL2 2429   4.923   2.556   4.972  0.2228 -0.1062  0.2522
  172POPC   C1A 2430   5.503   2.685   5.151  0.0189  0.0640 -0.0907
  172POPC   D2A 2431   5.875   2.484   5.295  0.1153 -0.1187 -0.2122
  172POPC   C3A 2432   6.103   2.721   5.625  0.0335  0.3077 -0.1249
  172POPC   C4A 2433   6.283   3.154   5.786  0.1007  0.1591  0.1599
  172POPC   C1B 2434   5.090   2.431   5.365  0.1514 -0.1459 -0.0866
  172POPC   C2B 2435   5.036   2.194   5.751  0.0116 -0.0301  0.0495
  172POPC   C3B 2436   4.901   2.301   6.196  0.1556 -0.1076 -0.1455
  172POPC   C4B 2437   4.565   2.227   6.565 -0.1809 -0.4395  0.0102
  173POPC   NC3 2438   0.380   7.906   4.205  0.1522  0.1209  0.0093
  173POPC   PO4 2439   0.015   8.059   4.382 -0.2275  0.1124  0.0060
  173POPC   GL1 2440  -0.186   7.854   4.720  0.0480 -0.1515 -0.0581
  173POPC   GL2 2441  -0.128   8.055   4.976 -0.0692 -0.0692  0.2167
  173POPC   C1A 2442  -0.417   7.656   5.071  0.0351 -0.0794 -0.2092
  173POPC   D2A 2443  -0.245   7.508   5.488 -0.0221  0.1244  0.0706
  173POPC   C3A 2444  -0.392   7.682   5.830  0.0831 -0.1104 -0.0307
  173POPC   C4A 2445  -0.513   7.581   6.263 -0.0028  0.0782 -0.0206
  173POPC   C1B 2446  -0.211   8.034   5.388  0.2094  0.2217  0.2059
  173POPC   C2B 2447  -0.270   8.205   5.786  0.0289 -0.0720 -0.1976
  173POPC   C3B 2448  -0.277   8.020   6.198  0.1439 -0.2525 -0.2030
  173POPC   C4B 2449  -0.349   7.936   6.598  0.0282  0.1046  0.0385
  174POPC   NC3 2450   8.127   8.643   4.045  0.1910  0.1961 -0.0934
  174POPC   PO4 2451   8.354   8.133   4.058 -0.2508  0.1369  0.0865
  174POPC   GL1 2452   8.103   8.288   4.470 -0.0596 -0.2358  0.2867
  174POPC   GL2 2453   8.287   8.578   4.574  0.0683 -0.3149  0.1548
  174POPC   C1A 2454   7.787   8.364   4.807 -0.1004  0.4351 -0.1806
  174POPC   D2A 2455   7.610   8.022   5.113  0.1846 -0.0119  0.0128
  174POPC   C3A 2456   7.221   8.058   5.394 -0.1140 -0.4359  0.0486
  174POPC   C4A 2457   7.048   8.450   5.432  0.0201 -0.2675 -0.1039
  174POPC   C1B 2458   8.263   8.490   5.011 -0.0445  0.0298 -0.0891
  174POPC   C2B 2459   7.907   8.367   5.333  0.0058 -0.1895  0.0697
  174POPC   C3B 2460   7.739   7.979   5.580 -0.1852  0.0760 -0.0477
  174POPC   C4B 2461   7.419   7.782   5.745  0.3052 -0.0883 -0.0993
  175POPC   NC3 2462   4.783   2.499   4.471  0.0566  0.0165 -0.2697
  175POPC   PO4 2463   4.579   2.236   4.760 -0.2475 -0.0487  0.4567
  175POPC   GL1 2464   4.478   2.140   5.067 -0.1100  0.2008 -0.0581
  175POPC   GL2 2465   4.406   2.456   5.210  0.2134 -0.0998  0.0374
  175POPC   C1A 2466   4.642   2.097   5.492 -0.1098  0.2034 -0.1423
  175POPC   D2A 2467   4.547   2.373   5.888 -0.0136 -0.3035  0.0338
  175POPC   C3A 2468   4.415   2.623   6.260  0.0533 -0.3061  0.0769
  175POPC   C4A 2469   4.732   2.686   6.589  0.3975  0.2345  0.0845
  175POPC   C1B 2470   4.176   2.624   5.589 -0.0686  0.1375  0.2843
  175POPC   C2B 2471   4.120   2.851   5.919 -0.0953 -0.1551  0.0896
  175POPC   C3B 2472   4.076   3.129   6.285  0.2491 -0.3446  0.0129
  175POPC   C4B 2473   4.076   3.578   6.280  0.2972 -0.0250  0.1871
  176POPC   NC3 2474   9.493   9.504   3.776 -0.1949 -0.2103 -0.0220
  176POPC   PO4 2475   9.238   9.632   4.081 -0.4198 -0.0006 -0.1605
  176POPC   GL1 2476   8.925   9.722   4.446  0.2038 -0.2815 -0.4000
  176POPC   GL2 2477   8.821  10.032   4.516  0.1981  0.2332 -0.2311
  176POPC   C1A 2478   8.774   9.610   4.880  0.1753 -0.0267 -0.1024
  176POPC   D2A 2479   8.519   9.832   5.126  0.1340  0.2050  0.0229
  176POPC   C3A 2480   8.603   9.911   5.576  0.0464  0.1172  0.1742
  176POPC   C4A 2481   8.746   9.989   6.100  0.0358 -0.0675  0.0331
  176POPC   C1B 2482   9.084   9.965   5.001 -0.2422 -0.1056 -0.2593
  176POPC   C2B 2483   9.344  10.053   5.325 -0.4678  0.0427 -0.0248
  176POPC   C3B 2484   9.330   9.901   5.702  0.2487  0.3510  0.1140
  176POPC   C4B 2485   9.283   9.879   6.142 -0.0543 -0.1007  0.1571
  177POPC   NC3 2486   4.397   4.598   4.503  0.3480  0.2005  0.2349
  177POPC   PO4 2487   4.429   5.095   4.400  0.0422  0.2641 -0.3016
  177POPC   GL1 2488   4.429   5.261   4.719 -0.1507 -0.1025 -0.0847
  177POPC   GL2 2489   4.711   5.346   4.813 -0.1861 -0.0433  0.0920
  177POPC   C1A 2490   4.428   5.742   4.861 -0.0077 -0.0721  0.0104
  177POPC   D2A 2491   4.359   5.899   5.220  0.1765 -0.1106 -0.0371
  177POPC   C3A 2492   4.739   5.941   5.403 -0.0309  0.0266  0.0024
  177POPC   C4A 2493   5.168   5.996   5.533  0.3225 -0.1263 -0.0111
  177POPC   C1B 2494   4.690   5.516   5.158  0.1887  0.3677 -0.1787
  177POPC   C2B 2495   4.863   5.429   5.593 -0.0788  0.1628  0.2576
  177POPC   C3B 2496   4.627   5.389   6.011  0.0846 -0.2221 -0.2357
  177POPC   C4B 2497   4.670   5.634   6.486  0.1029  0.0791  0.1542
  178POPC   NC3 2498   2.859   6.147   4.369 -0.2046 -0.1309 -0.1758
  178POPC   PO4 2499   2.982   5.709   4.433 -0.2565 -0.1757  0.0472
  178POPC   GL1 2500   3.048   5.886   4.827 -0.3158  0.0010 -0.1121
  178POPC   GL2 2501   2.988   6.242   4.831 -0.0178  0.1315 -0.0285
  178POPC   C1A 2502   3.152   5.894   5.275  0.3736  0.3041  0.4011
  178POPC   D2A 2503   3.049   5.928   5.713 -0.1028  0.2678  0.1521
  178POPC   C3A 2504   3.190   6.007   6.168 -0.1348  0.0359  0.1517
  178POPC   C4A 2505   3.248   6.214   6.601 -0.0646  0.1104  0.0248
  178POPC   C1B 2506   3.196   6.447   5.224  0.2122  0.0675 -0.2338
  178POPC   C2B 2507   3.154   6.775   5.556 -0.1130  0.0945  0.0827
  178POPC   C3B 2508   2.996   7.006   5.997 -0.1999  0.0992  0.2492
  178POPC   C4B 2509   2.802   7.170   6.299 -0.1278 -0.0689 -0.0620
  179POPC   NC3 2510   7.866   5.376   4.194 -0.0852  0.2363  0.0074
  179POPC   PO4 2511   7.957   4.942   4.388 -0.0704  0.0772  0.2629
  179POPC   GL1 2512   7.884   5.013   4.880 -0.1242 -0.5209 -0.0763
  179POPC   GL2 2513   8.171   5.092   4.808 -0.2873 -0.1041  0.0605
  179POPC   C1A 2514   8.099   4.803   5.238 -0.0842 -0.0375  0.2883
  179POPC   D2A 2515   8.275   4.447   5.449 -0.3012 -0.0074 -0.0737
  179POPC   C3A 2516   8.214   4.403   5.862  0.0638  0.3766 -0.0296
  179POPC   C4A 2517   7.774   4.306   6.090 -0.0912 -0.1922  0.0123
  179POPC   C1B 2518   8.151   5.379   5.114  0.3772 -0.0505 -0.3018
  179POPC   C2B 2519   8.097   5.639   5.576  0.0230 -0.1449 -0.0110
  179POPC   C3B 2520   8.279   5.961   5.932  0.0478 -0.0588 -0.4240
  179POPC   C4B 2521   8.123   6.315   5.879  0.0693  0.1624 -0.0718
  180POPC   NC3 2522   5.030   0.482   2.953 -0.2131  0.0305  0.0452
  180POPC   PO4 2523   4.937   0.253   3.277  0.0726  0.1320 -0.2249
  180POPC   GL1 2524   5.127   0.144   3.693 -0.1279 -0.0808 -0.0187
  180POPC   GL2 2525   5.089  -0.144   3.910  0.0314  0.4130 -0.0096
  180POPC   C1A 2526   5.322   0.185   4.203 -0.2437 -0.0338  0.0940
  180POPC   D2A 2527   5.615   0.331   4.559 -0.1505  0.3487 -0.3157
  180POPC   C3A 2528   5.829   0.158   4.986  0.0272  0.3489 -0.0496
  180POPC   C4A 2529   6.122   0.345   5.281  0.1167 -0.2482 -0.1392
  180POPC   C1B 2530   5.479  -0.215   3.810 -0.3674  0.2701  0.2014
  180POPC   C2B 2531   5.813  -0.274   4.015 -0.4722 -0.1962  0.0250
  180POPC   C3B 2532   6.129   0.016   4.098  0.1548 -0.1287  0.1443
  180POPC   C4B 2533   6.544  -0.029   4.245  0.0370 -0.0911 -0.1405
  181POPC   NC3 2534   3.567   6.882   2.693 -0.0786 -0.0305 -0.0881
  181POPC   PO4 2535   3.878   6.979   3.094  0.2911 -0.2008 -0.2046
  181POPC   GL1 2536   4.115   7.039   3.498 -0.2327  0.1905 -0.1137
  181POPC   GL2 2537   4.094   7.326   3.721 -0.1581 -0.1215  0.0905
  181POPC   C1A 2538   4.400   6.914   3.837 -0.1599 -0.1523 -0.1643
  181POPC   D2A 2539   4.484   6.791   4.252 -0.0862 -0.0766 -0.1169
  181POPC   C3A 2540   4.274   7.102   4.618 -0.0438 -0.2951  0.0118
  181POPC   C4A 2541   3.964   7.321   4.557  0.1731 -0.2558  0.0266
  181POPC   C1B 2542   4.309   7.395   4.148 -0.1554 -0.0202 -0.0958
  181POPC   C2B 2543   4.537   7.561   4.351  0.1027  0.2723  0.0145
  181POPC   C3B 2544   4.524   7.658   4.786  0.2470 -0.1793 -0.0128
  181POPC   C4B 2545   4.115   7.607   5.016  0.1856  0.5051 -0.2176
  182POPC   NC3 2546   8.142   8.259   3.452 -0.2887  0.4481  0.1672
  182POPC   PO4 2547   7.906   8.528   3.630  0.0963 -0.0729  0.3912
  182POPC   GL1 2548   7.597   8.421   4.080  0.0080  0.1644 -0.2255
  182POPC   GL2 2549   7.265   8.305   3.942 -0.4675  0.0647 -0.0465
  182POPC   C1A 2550   7.630   8.008   4.316 -0.1220  0.0744  0.1827
  182POPC   D2A 2551   7.380   7.836   4.700  0.1121  0.1766  0.3224
  182POPC   C3A 2552   7.615   7.589   4.972 -0.3532  0.1366 -0.0066
  182POPC   C4A 2553   7.563   7.404   5.397 -0.1642 -0.0733 -0.0440
  182POPC   C1B 2554   7.152   8.221   4.464  0.2035 -0.1706 -0.1411
  182POPC   C2B 2555   7.268   8.273   4.927 -0.0406 -0.0043  0.0194
  182POPC   C3B 2556   7.473   8.502   5.202 -0.1947  0.0659  0.1730
  182POPC   C4B 2557   7.555   8.964   5.418  0.3381 -0.0628 -0.2350
  183POPC   NC3 2558   2.820   7.012   3.503 -0.1855  0.0340  0.0092
  183POPC   PO4 2559   3.011   6.720   3.748  0.0388  0.2113 -0.0502
  183POPC   GL1 2560   3.332   6.875   4.180  0.2904 -0.1522 -0.2678
  183POPC   GL2 2561   3.203   6.576   4.330 -0.1662 -0.0726  0.1497
  183POPC   C1A 2562   3.637   6.920   4.503  0.1271 -0.1345  0.0548
  183POPC   D2A 2563   3.825   6.720   4.816 -0.6337  0.0473 -0.4012
  183POPC   C3A 2564   3.557   6.415   4.874 -0.3435  0.3423  0.0155
  183POPC   C4A 2565   3.492   6.092   4.659  0.1898 -0.0090  0.2937
  183POPC   C1B 2566   3.144   6.808   4.676 -0.1077  0.3255  0.1496
  183POPC   C2B 2567   3.398   6.858   5.068  0.0984  0.0501  0.2078
  183POPC   C3B 2568   3.667   6.714   5.389 -0.1186 -0.2140  0.0057
  183POPC   C4B 2569   3.952   6.675   5.769  0.2008  0.0625 -0.2348
  184POPC   NC3 2570   3.121   3.619   4.797 -0.3281 -0.2084  0.0487
  184POPC   PO4 2571   3.431   4.015   4.919  0.0085  0.1771  0.1744
  184POPC   GL1 2572   3.338   3.894   5.248  0.2789 -0.0083  0.0062
  184POPC   GL2 2573   3.603   3.645   5.423  0.0286 -0.1474 -0.0917
  184POPC   C1A 2574   3.146   4.017   5.666 -0.0675 -0.0067  0.3661
  184POPC   D2A 2575   3.384   4.123   6.063 -0.2793 -0.2228 -0.0766
  184POPC   C3A 2576   3.610   4.511   5.910 -0.0264  0.1126 -0.2371
  184POPC   C4A 2577   3.843   4.848   5.904  0.1604 -0.0111 -0.0127
  184POPC   C1B 2578   3.706   3.977   5.697 -0.0760  0.0090 -0.4152
  184POPC   C2B 2579   3.976   3.959   5.947 -0.0179 -0.1003  0.0535
  184POPC   C3B 2580   4.305   4.102   6.221  0.4311 -0.1789 -0.0293
  184POPC   C4B 2581   4.524   4.523   6.466  0.0138  0.1009 -0.0011
  185POPC   NC3 2582   8.322   2.908   3.763 -0.0152 -0.2328 -0.3460
  185POPC   PO4 2583   8.657   2.770   4.146 -0.2006 -0.1598 -0.1796
  185POPC   GL1 2584   8.732   2.826   4.556  0.0177  0.2191 -0.0418
  185POPC   GL2 2585   8.602   2.986   4.744 -0.1807  0.1622  0.0669
  185POPC   C1A 2586   8.644   2.542   4.935 -0.1703  0.2100  0.1326
  185POPC   D2A 2587   8.591   2.226   5.317  0.0097  0.2281 -0.0243
  185POPC   C3A 2588   8.929   2.099   5.652 -0.3248  0.1184  0.0251
  185POPC   C4A 2589   8.996   1.752   5.636 -0.0460 -0.1189  0.0203
  185POPC   C1B 2590   8.682   2.942   5.196  0.2027  0.2937  0.3555
  185POPC   C2B 2591   8.794   3.088   5.550 -0.0957  0.0621 -0.0196
  185POPC   C3B 2592   8.779   3.168   6.005  0.1590 -0.0523 -0.1388
  185POPC   C4B 2593   8.690   3.353   6.405 -0.1504  0.3449  0.2552
  186POPC   NC3 2594   5.835   9.117   2.600 -0.2821 -0.0636 -0.0135
  186POPC   PO4 2595   5.725   9.365   2.995 -0.0969 -0.2581  0.0653
  186POPC   GL1 2596   5.634   9.171   3.430 -0.0055  0.2153 -0.0676
  186POPC   GL2 2597   5.896   9.230   3.565  0.1068 -0.0146  0.0237
  186POPC   C1A 2598   5.351   9.008   3.687 -0.0201  0.1832 -0.0851
  186POPC   D2A 2599   5.328   8.960   4.178 -0.2418  0.1610 -0.0644
  186POPC   C3A 2600   5.493   9.306   4.363  0.1735 -0.1978 -0.0485
  186POPC   C4A 2601   5.810   9.579   4.507 -0.1030  0.0022 -0.2917
  186POPC   C1B 2602   5.786   8.967   3.953 -0.0029 -0.0988 -0.2152
  186POPC   C2B 2603   5.787   8.585   4.171 -0.0072  0.0216 -0.2734
  186POPC   C3B 2604   5.855   8.341   4.567  0.3878 -0.5051  0.3564
  186POPC   C4B 2605   6.084   8.429   4.882  0.0060  0.2037  0.2375
  187POPC   NC3 2606   6.845   2.517   3.847 -0.0475 -0.3109 -0.0217
  187POPC   PO4 2607   6.604   2.310   4.081 -0.1545  0.0551  0.2136
  187POPC   GL1 2608   6.944   2.517   4.322  0.1068 -0.2417  0.0595
  187POPC   GL2 2609   7.240   2.588   4.181  0.3343  0.1973 -0.1668
  187POPC   C1A 2610   7.032   2.546   4.776  0.0079 -0.1356  0.0780
  187POPC   D2A 2611   7.057   2.462   5.235  0.1117  0.2133  0.0171
  187POPC   C3A 2612   7.457   2.322   5.145  0.0560  0.1159  0.0347
  187POPC   C4A 2613   7.875   2.313   5.353  0.0123  0.0947 -0.3254
  187POPC   C1B 2614   7.132   2.957   4.501 -0.2442  0.2098 -0.0044
  187POPC   C2B 2615   7.393   3.223   4.709  0.1115  0.0566 -0.0231
  187POPC   C3B 2616   7.543   3.531   5.023 -0.1841 -0.0161 -0.0645
  187POPC   C4B 2617   7.640   3.976   5.014  0.0060 -0.5037 -0.0699
  188POPC   NC3 2618   1.240   2.336   3.950 -0.1884 -0.2118 -0.0063
  188POPC   PO4 2619   1.178   2.489   4.429 -0.2842 -0.4089 -0.0069
  188POPC   GL1 2620   1.127   2.616   4.783  0.1346  0.0491 -0.2378
  188POPC   GL2 2621   0.942   2.778   5.010 -0.2050  0.0549  0.0431
  188POPC   C1A 2622   1.324   2.537   5.298 -0.3373 -0.0332 -0.1216
  188POPC   D2A 2623   1.268   2.586   5.767  0.0853  0.1115  0.3338
  188POPC   C3A 2624   1.062   2.310   6.094 -0.2270  0.1445  0.0909
  188POPC   C4A 2625   1.121   2.238   6.522  0.0820 -0.0629 -0.3594
  188POPC   C1B 2626   1.186   2.993   5.201  0.1326 -0.4357  0.0149
  188POPC   C2B 2627   1.530   3.106   5.486  0.0979  0.3320  0.1881
  188POPC   C3B 2628   1.655   3.211   5.936 -0.2502  0.0633  0.0088
  188POPC   C4B 2629   1.780   2.972   6.334 -0.1185 -0.0585  0.1802
  189POPC   NC3 2630   6.624   4.565   3.756  0.2707  0.1008 -0.0669
  189POPC   PO4 2631   6.999   4.677   4.121 -0.2572 -0.1800 -0.0344
  189POPC   GL1 2632   6.987   4.893   4.452 -0.2624 -0.0794  0.1409
  189POPC   GL2 2633   6.917   5.204   4.530  0.0197 -0.3448 -0.0605
  189POPC   C1A 2634   7.017   4.783   4.858  0.0389 -0.4454 -0.3743
  189POPC   D2A 2635   6.875   4.513   5.201  0.0248  0.3065  0.0540
  189POPC   C3A 2636   7.117   4.768   5.580  0.2976 -0.0741  0.1386
  189POPC   C4A 2637   7.413   4.658   5.876  0.0924  0.0008  0.5436
  189POPC   C1B 2638   6.983   5.306   4.883 -0.0584  0.3963  0.2351
  189POPC   C2B 2639   7.134   5.189   5.281 -0.1038 -0.0080  0.2987
  189POPC   C3B 2640   7.306   5.264   5.620  0.1784 -0.2041  0.3446
  189POPC   C4B 2641   7.328   5.095   6.053 -0.0685  0.3181 -0.0529
  190POPC   NC3 2642   7.119   9.114   3.570  0.0966 -0.0792  0.3335
  190POPC   PO4 2643   7.587   8.902   3.709  0.1535  0.0994 -0.1050
  190POPC   GL1 2644   7.319   8.988   4.003 -0.0547  0.0730 -0.2767
  190POPC   GL2 2645   7.183   8.799   4.174  0.0169  0.0294 -0.0942
  190POPC   C1A 2646   7.377   9.235   4.401  0.1957  0.1148 -0.0413
  190POPC   D2A 2647   7.203   9.091   4.807 -0.1159 -0.2433 -0.1588
  190POPC   C3A 2648   6.999   8.643   4.930  0.0701  0.0159  0.0109
  190POPC   C4A 2649   6.623   8.590   5.047  0.1497 -0.0495  0.0480
  190POPC   C1B 2650   7.367   8.656   4.528 -0.0355 -0.0494  0.0113
  190POPC   C2B 2651   7.691   8.859   4.837 -0.0119  0.1216 -0.2482
  190POPC   C3B 2652   7.973   8.918   5.171  0.1796  0.0301  0.0982
  190POPC   C4B 2653   8.208   8.853   5.376  0.0301 -0.2315 -0.2744
  191POPC   NC3 2654   9.117   4.324   4.371 -0.2082 -0.0580 -0.1527
  191POPC   PO4 2655   9.504   4.147   4.302 -0.0022 -0.4113  0.3769
  191POPC   GL1 2656   9.448   3.941   4.553  0.3517 -0.2300  0.0347
  191POPC   GL2 2657   9.726   3.934   4.776 -0.0089 -0.1023  0.0668
  191POPC   C1A 2658   9.076   4.013   4.920  0.1470  0.1985  0.2050
  191POPC   D2A 2659   8.898   3.902   5.351  0.2486  0.0873  0.1286
  191POPC   C3A 2660   8.654   4.163   5.613 -0.0658 -0.0545  0.0603
  191POPC   C4A 2661   8.699   4.250   5.970  0.0438  0.0399 -0.3358
  191POPC   C1B 2662   9.611   3.817   5.069  0.0628 -0.1291  0.0800
  191POPC   C2B 2663   9.306   3.614   5.409 -0.1259 -0.2656  0.0153
  191POPC   C3B 2664   9.286   3.514   5.770  0.0317  0.0359  0.0745
  191POPC   C4B 2665   9.187   3.399   6.188 -0.1636 -0.0733 -0.0046
  192POPC   NC3 2666   8.952   6.823   4.003 -0.2827 -0.2506  0.0621
  192POPC   PO4 2667   8.702   7.167   4.264 -0.1110  0.0409  0.0534
  192POPC   GL1 2668   8.344   7.094   4.532  0.0021 -0.0619  0.1310
  192POPC   GL2 2669   8.165   7.315   4.551  0.0261 -0.0215 -0.0042
  192POPC   C1A 2670   7.920   6.954   4.679 -0.2563 -0.0707  0.2028
  192POPC   D2A 2671   7.595   7.119   4.986 -0.3382 -0.2088  0.1887
  192POPC   C3A 2672   7.175   7.304   4.874  0.1818  0.0494 -0.2091
  192POPC   C4A 2673   6.870   7.624   5.000 -0.2362 -0.0204  0.0382
  192POPC   C1B 2674   8.130   7.365   4.983  0.1028  0.1791  0.2511
  192POPC   C2B 2675   8.092   7.399   5.325 -0.1251  0.1744 -0.0094
  192POPC   C3B 2676   7.961   7.466   5.712  0.0362  0.1003 -0.3512
  192POPC   C4B 2677   7.745   7.346   5.891 -0.0469  0.0155  0.1373
  193POPC   NC3 2678   0.721   2.911   4.568  0.3242 -0.2113  0.1300
  193POPC   PO4 2679   0.575   3.206   4.122  0.0388 -0.0498  0.1146
  193POPC   GL1 2680   0.357   3.233   4.427  0.1836 -0.1511 -0.0195
  193POPC   GL2 2681   0.497   3.459   4.596  0.0538 -0.1663 -0.0065
  193POPC   C1A 2682   0.025   3.406   4.796 -0.5205  0.0835  0.0159
  193POPC   D2A 2683  -0.016   3.304   5.212  0.0157  0.3579  0.3682
  193POPC   C3A 2684  -0.432   3.113   5.327  0.2906 -0.1597 -0.0817
  193POPC   C4A 2685  -0.516   3.017   5.791  0.2223  0.0250 -0.3666
  193POPC   C1B 2686   0.439   3.637   5.038 -0.2744 -0.1676 -0.1356
  193POPC   C2B 2687   0.285   3.832   5.436 -0.3412  0.2063  0.0251
  193POPC   C3B 2688  -0.016   3.791   5.792 -0.0389 -0.1036 -0.3847
  193POPC   C4B 2689  -0.347   3.884   6.196 -0.4098  0.0138 -0.2892
  194POPC   NC3 2690   2.209   5.315   4.229 -0.0662  0.2711 -0.0465
  194POPC   PO4 2691   2.450   5.272   4.585  0.0332 -0.2232  0.2715
  194POPC   GL1 2692   2.585   5.215   5.058 -0.1271 -0.0787  0.3466
  194POPC   GL2 2693   2.770   5.540   5.214 -0.1323  0.0025 -0.0916
  194POPC   C1A 2694   2.379   5.293   5.475  0.1244 -0.3132  0.0095
  194POPC   D2A 2695   2.374   5.548   5.879 -0.0207 -0.4177  0.3233
  194POPC   C3A 2696   2.670   5.690   5.974 -0.1183 -0.1625  0.0880
  194POPC   C4A 2697   2.667   6.102   6.118 -0.1767  0.1024 -0.1269
  194POPC   C1B 2698   2.942   5.379   5.559 -0.1592  0.1571 -0.1602
  194POPC   C2B 2699   3.060   5.420   5.973 -0.0501  0.2561 -0.0690
  194POPC   C3B 2700   3.092   4.984   6.262 -0.0564 -0.1431 -0.0643
  194POPC   C4B 2701   3.458   4.788   6.351 -0.1789  0.0805  0.1999
  195POPC   NC3 2702   6.446   8.086   3.107  0.0554 -0.0024 -0.2053
  195POPC   PO4 2703   6.426   8.456   2.925 -0.2504  0.3233  0.0044
  195POPC   GL1 2704   6.333   8.693   3.387  0.1712  0.5170 -0.1088
  195POPC   GL2 2705   6.483   8.435   3.503 -0.1339  0.0689  0.2922
  195POPC   C1A 2706   6.269   8.813   3.839  0.0086 -0.1412  0.0012
  195POPC   D2A 2707   6.210   8.780   4.238 -0.0708  0.4934  0.0072
  195POPC   C3A 2708   6.365   8.816   4.583  0.1461 -0.0918 -0.1491
  195POPC   C4A 2709   6.214   8.914   5.040  0.1227  0.2119  0.3996
  195POPC   C1B 2710   6.503   8.428   3.930  0.1077 -0.0146  0.0114
  195POPC   C2B 2711   6.776   8.509   4.241  0.2629  0.2703  0.3353
  195POPC   C3B 2712   6.855   8.888   4.514  0.1954 -0.1008  0.4050
  195POPC   C4B 2713   6.905   9.382   4.458 -0.1593 -0.1566  0.4544
  196POPC   NC3 2714   5.006   5.819   3.601  0.3056  0.0552 -0.4566
  196POPC   PO4 2715   5.031   6.127   3.409  0.3620  0.2496  0.2458
  196POPC   GL1 2716   4.942   6.540   3.588 -0.0302  0.0430 -0.0409
  196POPC   GL2 2717   5.291   6.646   3.776  0.2066  0.4673  0.1199
  196POPC   C1A 2718   4.865   6.652   4.002 -0.0267 -0.2378  0.1536
  196POPC   D2A 2719   5.046   6.722   4.451  0.0779 -0.3757 -0.2828
  196POPC   C3A 2720   5.253   7.127   4.546 -0.1324  0.0629  0.1053
  196POPC   C4A 2721   5.486   7.225   4.903 -0.1116  0.1550 -0.2906
  196POPC   C1B 2722   5.274   7.026   4.008 -0.0099 -0.0796  0.0328
  196POPC   C2B 2723   5.214   7.429   4.077 -0.1855  0.0106 -0.0780
  196POPC   C3B 2724   5.007   7.638   4.459  0.0424  0.0442 -0.2830
  196POPC   C4B 2725   5.267   7.641   4.709  0.5366 -0.3502  0.1448
  197POPC   NC3 2726   2.882   2.694   4.575 -0.1636  0.2517  0.3060
  197POPC   PO4 2727   3.020   2.984   4.715 -0.0309  0.1852 -0.1180
  197POPC   GL1 2728   3.397   3.059   5.046  0.1250 -0.0102  0.0200
  197POPC   GL2 2729   3.388   3.368   5.106 -0.0282  0.3492 -0.3393
  197POPC   C1A 2730   3.700   3.033   5.397  0.1911  0.2205 -0.2018
  197POPC   D2A 2731   3.657   2.761   5.742  0.0044 -0.0773  0.2698
  197POPC   C3A 2732   3.545   2.356   5.974  0.0654 -0.1631  0.0709
  197POPC   C4A 2733   3.601   1.860   5.750  0.0922 -0.1672  0.0535
  197POPC   C1B 2734   3.294   3.224   5.528  0.1436 -0.0975  0.1823
  197POPC   C2B 2735   3.199   3.556   5.911  0.0718 -0.0373 -0.0478
  197POPC   C3B 2736   3.539   3.655   6.107 -0.0145  0.1628 -0.0661
  197POPC   C4B 2737   3.719   3.886   6.451  0.0842 -0.0885 -0.1997
  198POPC   NC3 2738   1.633   6.707   4.792 -0.2250  0.0585 -0.1022
  198POPC   PO4 2739   1.752   7.037   4.533 -0.1664 -0.0713 -0.0607
  198POPC   GL1 2740   1.869   7.183   4.906 -0.1386 -0.0400 -0.2457
  198POPC   GL2 2741   1.658   7.065   5.241  0.4132 -0.0184  0.2522
  198POPC   C1A 2742   2.019   7.425   5.274  0.3167 -0.2361  0.3004
  198POPC   D2A 2743   1.981   7.244   5.710 -0.1269 -0.0581  0.1183
  198POPC   C3A 2744   2.233   7.308   6.050 -0.2095 -0.1060 -0.0515
  198POPC   C4A 2745   2.371   6.898   6.310  0.1426  0.4467  0.0770
  198POPC   C1B 2746   1.430   7.062   5.649 -0.0619 -0.0493 -0.2562
  198POPC   C2B 2747   1.248   7.118   5.973  0.3029 -0.0032 -0.3848
  198POPC   C3B 2748   1.283   6.941   6.357  0.6732  0.1452 -0.1398
  198POPC   C4B 2749   1.013   6.736   6.618 -0.5739 -0.1222  0.0062
  199POPC   NC3 2750   8.624   8.447   4.310  0.0651 -0.0179  0.1976
  199POPC   PO4 2751   9.010   8.313   4.544  0.1229  0.0488 -0.0701
  199POPC   GL1 2752   8.779   8.375   4.862 -0.0197 -0.1636 -0.2317
  199POPC   GL2 2753   9.027   8.281   5.058 -0.0836 -0.1608  0.0149
  199POPC   C1A 2754   8.672   8.673   5.293  0.4276  0.0761  0.1026
  199POPC   D2A 2755   8.598   8.793   5.693  0.0826  0.1680 -0.2517
  199POPC   C3A 2756   8.343   8.685   6.089  0.1766  0.2436 -0.1456
  199POPC   C4A 2757   8.070   8.348   6.395 -0.0216  0.0098  0.1239
  199POPC   C1B 2758   8.994   8.093   5.563 -0.3001 -0.0126 -0.1833
  199POPC   C2B 2759   8.924   7.971   6.063  0.2319 -0.2767 -0.1162
  199POPC   C3B 2760   8.474   7.786   6.050 -0.3295 -0.0551  0.1276
  199POPC   C4B 2761   8.059   7.742   6.232 -0.1585  0.0297 -0.1994
  200POPC   NC3 2762   6.678   1.167   4.000  0.2511  0.3893  0.2203
  200POPC   PO4 2763   6.760   1.606   4.123  0.0103  0.0550  0.0540
  200POPC   GL1 2764   6.719   1.528   4.586  0.0545  0.0139 -0.1838
  200POPC   GL2 2765   6.607   1.697   4.850  0.0093  0.0473 -0.1584
  200POPC   C1A 2766   6.950   1.263   4.952  0.1816 -0.1768  0.1367
  200POPC   D2A 2767   6.844   0.894   5.120  0.3372  0.2548  0.1999
  200POPC   C3A 2768   6.918   1.014   5.595 -0.0985  0.1961 -0.0046
  200POPC   C4A 2769   6.930   1.188   6.064  0.1698 -0.0450  0.0105
  200POPC   C1B 2770   6.454   1.343   5.232  0.4061 -0.1163 -0.1655
  200POPC   C2B 2771   6.092   1.208   5.509 -0.3305 -0.2304 -0.0121
  200POPC   C3B 2772   5.701   1.207   5.678 -0.0248 -0.0119 -0.1372
  200POPC   C4B 2773   5.457   1.094   6.170  0.3703 -0.2231  0.0356
  201POPC   NC3 2774   6.217   5.488   3.353 -0.0806 -0.1490 -0.2659
  201POPC   PO4 2775   5.927   5.598   3.772  0.2069 -0.0022 -0.1872
  201POPC   GL1 2776   6.000   5.781   4.209 -0.1478 -0.0572  0.0620
  201POPC   GL2 2777   6.310   5.569   4.315  0.1698 -0.0651  0.0813
  201POPC   C1A 2778   5.873   6.123   4.274  0.0645  0.1113 -0.0111
  201POPC   D2A 2779   5.491   6.378   4.340  0.1855  0.0633 -0.2113
  201POPC   C3A 2780   5.619   6.822   4.630 -0.2270  0.2633 -0.0519
  201POPC   C4A 2781   5.973   6.937   4.909  0.2898  0.0417  0.4042
  201POPC   C1B 2782   6.577   5.499   4.683 -0.0328 -0.0903  0.1930
  201POPC   C2B 2783   6.554   5.359   5.175 -0.0479 -0.0626 -0.1136
  201POPC   C3B 2784   6.769   5.111   5.577  0.0412  0.2241  0.0174
  201POPC   C4B 2785   6.856   4.956   5.982  0.2317  0.2026  0.1357
  202POPC   NC3 2786   5.136   0.844   3.952 -0.4034  0.1176 -0.2079
  202POPC   PO4 2787   4.952   1.263   4.093  0.2867  0.0676  0.0069
  202POPC   GL1 2788   5.016   1.137   4.573  0.2455  0.2855  0.0380
  202POPC   GL2 2789   4.951   1.326   4.872 -0.0963 -0.0898 -0.1377
  202POPC   C1A 2790   5.419   1.101   4.827  0.0237  0.0545 -0.0471
  202POPC   D2A 2791   5.526   0.613   4.925 -0.0284 -0.0321  0.0028
  202POPC   C3A 2792   5.595   0.404   5.328  0.1350  0.0861  0.0263
  202POPC   C4A 2793   5.725   0.156   5.630 -0.0690 -0.0773  0.1040
  202POPC   C1B 2794   5.030   1.325   5.358 -0.0058 -0.1845 -0.2287
  202POPC   C2B 2795   5.220   1.279   5.773 -0.1184 -0.2133 -0.0479
  202POPC   C3B 2796   5.171   1.526   6.169  0.0044  0.2771  0.0588
  202POPC   C4B 2797   4.896   1.321   6.368 -0.2730  0.2330 -0.2018
  203POPC   NC3 2798   7.974   7.480   3.104 -0.3826 -0.3005 -0.1987
  203POPC   PO4 2799   7.978   7.259   3.587  0.4600  0.3790 -0.2625
  203POPC   GL1 2800   7.784   7.502   4.019 -0.1580 -0.0166 -0.0803
  203POPC   GL2 2801   8.018   7.724   4.196 -0.6620 -0.1923  0.0130
  203POPC   C1A 2802   7.542   7.431   4.471 -0.0227 -0.1397 -0.0183
  203POPC   D2A 2803   7.444   7.000   4.523 -0.0733  0.0616  0.2051
  203POPC   C3A 2804   7.027   6.698   4.725 -0.1737 -0.1293  0.0982
  203POPC   C4A 2805   6.809   6.606   5.133 -0.2296 -0.1573  0.0613
  203POPC   C1B 2806   7.966   7.837   4.707 -0.0079  0.0158  0.0432
  203POPC   C2B 2807   8.071   7.915   5.135 -0.0779  0.1377 -0.1220
  203POPC   C3B 2808   8.195   7.838   5.508 -0.1312  0.0304 -0.2050
  203POPC   C4B 2809   8.484   7.650   5.504 -0.0281 -0.0991 -0.1991
  204POPC   NC3 2810   9.485   6.030   4.499  0.0707  0.0055 -0.1785
  204POPC   PO4 2811   9.251   6.261   4.805  0.0250  0.0247 -0.0296
  204POPC   GL1 2812   9.449   6.387   5.210 -0.1498  0.1880 -0.0815
  204POPC   GL2 2813   9.373   6.672   5.356 -0.1192  0.0779  0.2554
  204POPC   C1A 2814   9.572   6.388   5.723 -0.3680  0.0508  0.0835
  204POPC   D2A 2815   9.320   6.440   6.132  0.2123 -0.0420  0.0354
  204POPC   C3A 2816   9.135   6.211   6.355  0.1176  0.4161  0.0457
  204POPC   C4A 2817   8.852   5.791   6.442  0.0426 -0.2775  0.2426
  204POPC   C1B 2818   9.702   6.858   5.570  0.0056 -0.0782 -0.1111
  204POPC   C2B 2819   9.889   7.221   5.787 -0.0812  0.2793  0.1822
  204POPC   C3B 2820   9.653   7.337   6.055  0.2079 -0.1356  0.1651
  204POPC   C4B 2821   9.671   7.593   6.455 -0.0343  0.1690  0.2716
  205POPC   NC3 2822   1.387   7.383   4.771 -0.3001  0.0755 -0.0519
  205POPC   PO4 2823   1.712   7.703   4.805  0.0657 -0.1632  0.0374
  205POPC   GL1 2824   1.874   7.904   5.155  0.0027  0.0679 -0.2246
  205POPC   GL2 2825   1.750   8.221   5.353 -0.1106 -0.0102  0.1310
  205POPC   C1A 2826   2.023   7.854   5.633  0.0787 -0.0257 -0.2481
  205POPC   D2A 2827   2.232   7.814   5.994 -0.2167  0.1239 -0.1172
  205POPC   C3A 2828   2.548   8.203   5.991  0.2789 -0.1394 -0.1495
  205POPC   C4A 2829   2.724   8.505   5.849 -0.0907  0.0558  0.1570
  205POPC   C1B 2830   1.706   8.493   5.614  0.0898 -0.3811  0.0874
  205POPC   C2B 2831   1.799   8.804   5.901 -0.4595 -0.0357  0.1914
  205POPC   C3B 2832   1.506   8.938   6.208  0.0931 -0.1214 -0.1167
  205POPC   C4B 2833   1.362   9.219   6.436 -0.2393 -0.0954 -0.1081
  206POPC   NC3 2834   9.549   4.398   3.873  0.1428  0.0437  0.1155
  206POPC   PO4 2835   9.613   4.617   4.183  0.1371  0.1490 -0.0997
  206POPC   GL1 2836   9.636   4.821   4.566 -0.0087  0.3047  0.0767
  206POPC   GL2 2837   9.784   5.071   4.674 -0.0274 -0.0768  0.1994
  206POPC   C1A 2838   9.620   4.780   5.065  0.0356 -0.2258 -0.2093
  206POPC   D2A 2839   9.432   4.656   5.458  0.0244  0.0371  0.3800
  206POPC   C3A 2840   9.138   4.411   5.482 -0.0040 -0.1007 -0.0928
  206POPC   C4A 2841   9.156   4.029   5.761  0.0066 -0.3400  0.3861
  206POPC   C1B 2842   9.480   5.245   5.022  0.0666 -0.1816 -0.0874
  206POPC   C2B 2843   9.452   5.300   5.488  0.1308 -0.0992 -0.1479
  206POPC   C3B 2844   9.579   5.402   5.789 -0.2694  0.2548 -0.1057
  206POPC   C4B 2845   9.674   5.461   6.225 -0.1053 -0.0408  0.0516
  207POPC   NC3 2846   8.600   1.921   3.839 -0.1627  0.0496 -0.2357
  207POPC   PO4 2847   9.003   1.967   4.080  0.4064  0.0478  0.3413
  207POPC   GL1 2848   8.626   1.850   4.433  0.1208  0.0879  0.0483
  207POPC   GL2 2849   8.699   2.000   4.801 -0.0933  0.2343 -0.4290
  207POPC   C1A 2850   8.706   1.511   4.703  0.4970 -0.0282 -0.0660
  207POPC   D2A 2851   8.807   1.197   4.965  0.0552 -0.0902 -0.2155
  207POPC   C3A 2852   8.881   1.305   5.307 -0.1609 -0.1284 -0.1503
  207POPC   C4A 2853   9.160   1.153   5.655  0.1166  0.1844 -0.3196
  207POPC   C1B 2854   8.990   2.194   5.047 -0.0918  0.2692 -0.0152
  207POPC   C2B 2855   9.404   2.084   5.313 -0.0936  0.0662 -0.1923
  207POPC   C3B 2856   9.436   2.285   5.696  0.2361 -0.2281 -0.1728
  207POPC   C4B 2857   9.569   2.543   5.968 -0.1424 -0.4329 -0.0604
  208POPC   NC3 2858   0.405   4.820   4.374  0.2499 -0.0942 -0.1219
  208POPC   PO4 2859   0.622   4.441   4.432  0.0032 -0.1539  0.0432
  208POPC   GL1 2860   0.658   4.550   4.850  0.2252 -0.0329  0.0941
  208POPC   GL2 2861   0.409   4.685   4.848  0.0361  0.2706 -0.1260
  208POPC   C1A 2862   0.751   4.338   5.261  0.1534  0.1145  0.0587
  208POPC   D2A 2863   0.683   4.092   5.645  0.2546 -0.1573  0.3903
  208POPC   C3A 2864   0.955   4.125   5.975 -0.0866  0.1780 -0.2711
  208POPC   C4A 2865   1.331   4.234   6.329  0.3277  0.2623 -0.0626
  208POPC   C1B 2866   0.209   4.372   5.130  0.0261  0.0613 -0.0456
  208POPC   C2B 2867   0.261   4.325   5.608  0.0306  0.0448  0.2595
  208POPC   C3B 2868   0.509   4.412   5.988  0.1115 -0.0066 -0.1310
  208POPC   C4B 2869   0.987   4.552   6.228 -0.0462  0.1440 -0.2463
  209POPC   NC3 2870   9.455   8.437   4.667 -0.0907  0.3627  0.1228
  209POPC   PO4 2871   9.311   8.815   4.693 -0.0729  0.2663  0.2083
  209POPC   GL1 2872   9.228   8.970   5.069 -0.1523 -0.2901  0.0242
  209POPC   GL2 2873   9.181   8.746   5.170  0.0535 -0.0009 -0.2801
  209POPC   C1A 2874   9.494   9.179   5.382 -0.2280  0.2826  0.0572
  209POPC   D2A 2875   9.700   9.391   5.557  0.0695 -0.0289  0.0318
  209POPC   C3A 2876   9.409   9.437   5.882 -0.0273 -0.3294  0.2434
  209POPC   C4A 2877   9.536   9.419   6.217  0.4472  0.0500 -0.0016
  209POPC   C1B 2878   9.118   8.582   5.547  0.1572 -0.0586  0.0601
  209POPC   C2B 2879   9.049   8.552   6.002  0.2190 -0.3850  0.1067
  209POPC   C3B 2880   9.201   8.416   6.344  0.0093  0.0567  0.1387
  209POPC   C4B 2881   9.497   8.427   6.689 -0.0123  0.0610 -0.0652
  210POPC   NC3 2882   3.556   2.705   4.528  0.0205 -0.0158  0.0261
  210POPC   PO4 2883   4.014   2.843   4.437 -0.0733  0.1384 -0.1930
  210POPC   GL1 2884   3.952   2.924   4.792  0.0195 -0.0161 -0.1686
  210POPC   GL2 2885   3.771   3.137   4.767 -0.3466 -0.0863  0.2207
  210POPC   C1A 2886   4.167   2.918   5.140  0.0605  0.1359 -0.1887
  210POPC   D2A 2887   4.353   3.131   5.537 -0.0322  0.0212 -0.1370
  210POPC   C3A 2888   4.030   3.291   5.705 -0.1741 -0.0604 -0.0474
  210POPC   C4A 2889   3.650   3.203   5.861 -0.1584 -0.0155 -0.1107
  210POPC   C1B 2890   3.928   3.386   5.103  0.1720 -0.3187 -0.2024
  210POPC   C2B 2891   4.178   3.717   5.446 -0.0279 -0.1770 -0.0057
  210POPC   C3B 2892   4.346   3.671   5.830  0.1408  0.2222 -0.0080
  210POPC   C4B 2893   4.445   3.283   6.002 -0.1967 -0.3211 -0.0778
  211POPC   NC3 2894   0.490   7.732   4.622 -0.1661 -0.0158  0.1571
  211POPC   PO4 2895   0.896   7.501   4.682 -0.2136 -0.1626  0.2020
  211POPC   GL1 2896   0.990   7.454   5.148  0.0133  0.2000 -0.4158
  211POPC   GL2 2897   1.296   7.458   5.212  0.0220 -0.2117 -0.2098
  211POPC   C1A 2898   1.127   7.509   5.697  0.1429  0.0748  0.1085
  211POPC   D2A 2899   1.209   7.708   6.012 -0.0243 -0.1526 -0.0114
  211POPC   C3A 2900   1.059   7.567   6.417 -0.0767 -0.0273  0.3032
  211POPC   C4A 2901   0.953   7.407   6.795  0.1137  0.0264  0.2110
  211POPC   C1B 2902   1.600   7.554   5.503  0.1847  0.6147  0.3517
  211POPC   C2B 2903   1.659   7.598   5.940 -0.1518 -0.0478  0.1034
  211POPC   C3B 2904   1.725   7.270   6.163  0.0928 -0.0397 -0.2109
  211POPC   C4B 2905   1.737   6.904   6.302  0.1955 -0.0422 -0.4033
  212POPC   NC3 2906   1.470   1.601   4.257  0.0294  0.1893 -0.5060
  212POPC   PO4 2907   1.719   1.847   4.514  0.0427 -0.0830 -0.1291
  212POPC   GL1 2908   1.763   1.688   4.958  0.0155  0.1762 -0.3129
  212POPC   GL2 2909   1.486   1.878   5.092 -0.3086 -0.1750 -0.1758
  212POPC   C1A 2910   1.846   1.456   5.327  0.0851 -0.1241 -0.2936
  212POPC   D2A 2911   1.866   1.336   5.729 -0.2381  0.0843  0.0553
  212POPC   C3A 2912   1.803   1.725   5.895  0.0655  0.1899  0.0264
  212POPC   C4A 2913   1.504   2.035   6.142  0.1293 -0.1439  0.0154
  212POPC   C1B 2914   1.413   1.722   5.597  0.2067 -0.2430 -0.1212
  212POPC   C2B 2915   1.349   1.592   6.038  0.0899  0.2252 -0.0436
  212POPC   C3B 2916   1.204   1.735   6.441 -0.2054  0.4221  0.1247
  212POPC   C4B 2917   0.810   1.857   6.610 -0.1420  0.0776 -0.0616
  213POPC   NC3 2918   1.754   8.256   4.821  0.1050  0.0504 -0.2530
  213POPC   PO4 2919   1.891   8.725   4.782  0.0842 -0.0442  0.1099
  213POPC   GL1 2920   2.009   8.800   5.159 -0.0819  0.0030  0.3138
  213POPC   GL2 2921   2.340   8.854   5.199 -0.3828  0.0293  0.2402
  213POPC   C1A 2922   1.875   9.259   5.414 -0.1403  0.2425  0.1167
  213POPC   D2A 2923   1.568   9.316   5.895 -0.2917  0.0052 -0.0492
  213POPC   C3A 2924   1.124   9.177   5.943 -0.1939  0.1762 -0.1455
  213POPC   C4A 2925   0.807   8.904   5.821 -0.4362 -0.0954 -0.0638
  213POPC   C1B 2926   2.623   8.695   5.286  0.0724  0.0898  0.1775
  213POPC   C2B 2927   3.175   8.776   5.265 -0.0528  0.2826 -0.1475
  213POPC   C3B 2928   3.527   8.839   5.577  0.0254 -0.2717 -0.2834
  213POPC   C4B 2929   3.871   9.023   5.541 -0.0079 -0.1110  0.0552
  214POPC   NC3 2930   4.481   7.761   3.503  0.0624  0.2323  0.6145
  214POPC   PO4 2931   4.263   8.080   3.262  0.3326 -0.2033 -0.4605
  214POPC   GL1 2932   4.250   8.213   3.560  0.0110 -0.0208 -0.1931
  214POPC   GL2 2933   4.640   8.243   3.675 -0.0125  0.1039  0.1998
  214POPC   C1A 2934   4.268   7.925   4.074  0.1974 -0.1358 -0.0810
  214POPC   D2A 2935   4.110   7.775   4.367 -0.2938 -0.0303 -0.0818
  214POPC   C3A 2936   3.732   7.832   4.526 -0.2249 -0.0214  0.0023
  214POPC   C4A 2937   3.645   7.795   4.953  0.0763 -0.0696 -0.6352
  214POPC   C1B 2938   4.716   8.251   4.026  0.1995 -0.0194  0.0036
  214POPC   C2B 2939   5.070   8.100   4.277 -0.0129  0.1096 -0.0796
  214POPC   C3B 2940   5.579   7.918   4.287  0.1060  0.3615  0.1293
  214POPC   C4B 2941   5.757   7.535   4.459  0.2707 -0.0521  0.0517
  215POPC   NC3 2942   4.118   2.387   4.740  0.2364  0.1887  0.1545
  215POPC   PO4 2943   3.847   2.159   4.449  0.2225  0.0657 -0.0457
  215POPC   GL1 2944   3.732   2.128   4.992 -0.0572  0.0056 -0.0183
  215POPC   GL2 2945   3.976   1.956   5.161 -0.1198  0.0969 -0.0024
  215POPC   C1A 2946   3.457   1.905   5.261 -0.0657 -0.2011  0.0383
  215POPC   D2A 2947   3.238   1.662   5.493 -0.4183 -0.2629  0.3982
  215POPC   C3A 2948   3.352   1.366   5.569  0.0482  0.3877 -0.1983
  215POPC   C4A 2949   3.668   1.070   5.341 -0.3160 -0.0459  0.2010
  215POPC   C1B 2950   3.986   2.173   5.569 -0.1550  0.2274  0.2006
  215POPC   C2B 2951   4.062   2.321   5.920 -0.3270  0.1519  0.2982
  215POPC   C3B 2952   4.214   2.157   6.249 -0.2203 -0.0226  0.3172
  215POPC   C4B 2953   4.253   1.848   6.501  0.2100 -0.0120 -0.1255
  216POPC   NC3 2954   6.970   2.045   3.907 -0.1411 -0.2244  0.1798
  216POPC   PO4 2955   7.264   2.044   4.126 -0.0152  0.2514  0.1010
  216POPC   GL1 2956   7.386   1.941   4.434  0.0064 -0.0605  0.1401
  216POPC   GL2 2957   7.453   2.263   4.569 -0.3667 -0.1863  0.1880
  216POPC   C1A 2958   7.168   2.038   4.829  0.0338  0.1799 -0.0221
  216POPC   D2A 2959   6.853   2.089   5.058  0.3585  0.0815  0.1564
  216POPC   C3A 2960   6.882   2.126   5.485  0.0567  0.0648 -0.0727
  216POPC   C4A 2961   6.883   1.874   5.888 -0.2219  0.2352  0.0247
  216POPC   C1B 2962   7.560   2.687   4.674 -0.0653  0.1277  0.0027
  216POPC   C2B 2963   7.682   2.756   5.040 -0.3040  0.0226  0.1145
  216POPC   C3B 2964   7.897   2.845   5.363 -0.3601 -0.0038 -0.1171
  216POPC   C4B 2965   7.931   2.616   5.782  0.1465  0.2267  0.4946
  217POPC   NC3 2966   8.805   5.540   4.585 -0.0328 -0.2855  0.1115
  217POPC   PO4 2967   9.024   5.870   4.487  0.0050 -0.0263 -0.0105
  217POPC   GL1 2968   9.070   5.813   4.931 -0.0012 -0.0020 -0.1329
  217POPC   GL2 2969   8.845   5.958   5.084 -0.0165  0.0275  0.0330
  217POPC   C1A 2970   8.987   5.531   5.345  0.0548 -0.0278 -0.2127
  217POPC   D2A 2971   9.095   5.555   5.758  0.2065  0.0622  0.2344
  217POPC   C3A 2972   9.178   5.254   6.108  0.2796 -0.0076  0.1750
  217POPC   C4A 2973   9.416   4.983   6.422 -0.1232  0.2859 -0.2242
  217POPC   C1B 2974   8.546   5.659   5.243  0.3745  0.3519  0.2644
  217POPC   C2B 2975   8.535   5.596   5.717 -0.3798 -0.0343 -0.1053
  217POPC   C3B 2976   8.662   5.484   6.142  0.0560  0.0811 -0.1072
  217POPC   C4B 2977   8.558   5.298   6.477 -0.0069  0.3240  0.1306
  218POPC   NC3 2978   7.275   1.565   3.939  0.0168 -0.0170 -0.0546
  218POPC   PO4 2979   7.197   1.247   4.077 -0.0188 -0.1202 -0.1788
  218POPC   GL1 2980   7.347   1.019   4.289 -0.2178  0.0463  0.2226
  218POPC   GL2 2981   7.638   1.094   4.325 -0.3301 -0.2415  0.0474
  218POPC   C1A 2982   7.333   1.049   4.827 -0.0815  0.2560  0.3355
  218POPC   D2A 2983   7.363   0.927   5.271  0.1764  0.1462 -0.0118
  218POPC   C3A 2984   7.509   1.078   5.635 -0.2506 -0.1436  0.0774
  218POPC   C4A 2985   7.572   1.188   6.071 -0.2654 -0.2120  0.1349
  218POPC   C1B 2986   7.707   1.406   4.573 -0.0213  0.1830  0.2327
  218POPC   C2B 2987   7.426   1.566   4.957  0.1460 -0.0272  0.0446
  218POPC   C3B 2988   7.342   1.456   5.304  0.2236 -0.0218 -0.0776
  218POPC   C4B 2989   7.231   1.447   5.742  0.1006 -0.1250  0.0848
  219POPC   NC3 2990   7.025   3.338   3.470 -0.2367  0.1004 -0.1275
  219POPC   PO4 2991   6.933   3.425   3.909  0.2451 -0.0679  0.0491
  219POPC   GL1 2992   6.966   3.586   4.388  0.0099 -0.1307  0.0523
  219POPC   GL2 2993   7.101   3.841   4.539 -0.1267  0.0829 -0.1231
  219POPC   C1A 2994   6.928   3.379   4.777  0.3820  0.0297 -0.4157
  219POPC   D2A 2995   7.069   3.464   5.255  0.0076  0.0815 -0.2418
  219POPC   C3A 2996   7.097   3.220   5.659 -0.1588 -0.2482  0.0785
  219POPC   C4A 2997   6.956   2.895   5.939 -0.1410  0.2756 -0.1072
  219POPC   C1B 2998   7.071   3.832   4.971 -0.3556 -0.0468  0.3325
  219POPC   C2B 2999   6.919   3.951   5.433  0.0589  0.0202 -0.1315
  219POPC   C3B 3000   7.102   3.675   5.776 -0.0340  0.0883  0.0972
  219POPC   C4B 3001   7.485   3.414   6.001  0.3681 -0.1542 -0.0065
  220POPC   NC3 3002   1.339   0.394   4.434  0.0286  0.3004  0.3530
  220POPC   PO4 3003   1.470   0.815   4.563  0.1762  0.2122 -0.0033
  220POPC   GL1 3004   1.278   0.638   4.934 -0.1100 -0.2279 -0.4241
  220POPC   GL2 3005   1.012   0.372   5.013  0.1740  0.0988  0.2035
  220POPC   C1A 3006   1.307   0.456   5.405 -0.0940  0.1642  0.1626
  220POPC   D2A 3007   1.199   0.357   5.835 -0.0052 -0.0895 -0.3328
  220POPC   C3A 3008   1.401   0.458   6.102  0.0823  0.1156 -0.1293
  220POPC   C4A 3009   1.437   0.751   6.472 -0.2353  0.2831  0.0292
  220POPC   C1B 3010   0.589   0.391   5.165 -0.2406  0.1009  0.0600
  220POPC   C2B 3011   0.664   0.207   5.579 -0.3495 -0.3050 -0.1479
  220POPC   C3B 3012   0.602   0.313   6.006 -0.1278 -0.0726 -0.4683
  220POPC   C4B 3013   0.329   0.631   6.178 -0.1965  0.1694 -0.3614
  221POPC   NC3 3014   0.443   0.825   4.354 -0.1081  0.2022  0.1037
  221POPC   PO4 3015   0.074   0.669   4.252  0.1359  0.1635 -0.2487
  221POPC   GL1 3016  -0.294   0.777   4.542  0.2263  0.1300 -0.2440
  221POPC   GL2 3017  -0.553   0.701   4.803  0.1276 -0.4560 -0.1258
  221POPC   C1A 3018  -0.116   1.008   4.904  0.1793  0.0185 -0.1426
  221POPC   D2A 3019   0.008   1.061   5.324 -0.0717  0.1476  0.0682
  221POPC   C3A 3020   0.249   1.466   5.419 -0.0343  0.2786 -0.0999
  221POPC   C4A 3021   0.443   1.547   5.888  0.2332  0.2161 -0.0908
  221POPC   C1B 3022  -0.509   0.821   5.168 -0.1670  0.0576  0.2309
  221POPC   C2B 3023  -0.645   0.684   5.644 -0.3211 -0.3588 -0.1423
  221POPC   C3B 3024  -0.915   0.887   6.005  0.1803 -0.1026  0.4438
  221POPC   C4B 3025  -1.101   0.745   6.391 -0.1371 -0.1944  0.1856
  222POPC   NC3 3026   1.767   3.152   4.347 -0.0033 -0.2449 -0.0642
  222POPC   PO4 3027   1.693   3.563   4.512 -0.1869  0.2203  0.2145
  222POPC   GL1 3028   1.712   3.286   4.803 -0.1261 -0.5349 -0.0863
  222POPC   GL2 3029   1.749   3.405   5.170  0.2351  0.0517  0.0285
  222POPC   C1A 3030   1.650   2.916   4.983 -0.1035  0.0606  0.0493
  222POPC   D2A 3031   1.801   2.616   5.315 -0.0152  0.1612  0.1629
  222POPC   C3A 3032   1.964   2.818   5.651 -0.1102 -0.1757  0.4321
  222POPC   C4A 3033   2.302   2.856   6.050 -0.2428  0.1585  0.1281
  222POPC   C1B 3034   1.992   3.341   5.538 -0.1239 -0.1579  0.0289
  222POPC   C2B 3035   2.063   3.440   6.012  0.0228  0.2494 -0.2068
  222POPC   C3B 3036   2.131   3.310   6.424 -0.2698 -0.0725  0.0942
  222POPC   C4B 3037   2.077   2.983   6.774  0.1806 -0.0915  0.1268
  223POPC   NC3 3038   8.563   5.097   4.418  0.0485 -0.2412 -0.2509
  223POPC   PO4 3039   8.290   5.459   4.481 -0.0905 -0.1360 -0.1742
  223POPC   GL1 3040   8.264   5.835   4.829 -0.0807 -0.0608  0.0487
  223POPC   GL2 3041   8.350   6.039   5.069 -0.0843  0.0270 -0.0077
  223POPC   C1A 3042   7.875   5.818   5.132 -0.0986  0.1325 -0.1227
  223POPC   D2A 3043   7.634   6.143   5.338  0.2509  0.1458 -0.2846
  223POPC   C3A 3044   7.701   6.135   5.788  0.0567  0.1140  0.0047
  223POPC   C4A 3045   7.697   6.350   6.108  0.0309  0.2866  0.2419
  223POPC   C1B 3046   8.276   6.168   5.426 -0.2323  0.1782  0.3182
  223POPC   C2B 3047   8.735   6.035   5.655  0.0479  0.1048  0.1528
  223POPC   C3B 3048   8.973   6.008   5.952 -0.1995 -0.0866 -0.0647
  223POPC   C4B 3049   9.403   5.952   6.023  0.1449  0.2992  0.3348
  224POPC   NC3 3050   0.517   6.205   4.617  0.1876  0.1749  0.1711
  224POPC   PO4 3051   0.308   5.951   4.542 -0.3512 -0.0209  0.3549
  224POPC   GL1 3052   0.564   5.772   4.858  0.1923 -0.0654 -0.1162
  224POPC   GL2 3053   0.858   5.971   4.981  0.1533 -0.0715  0.0584
  224POPC   C1A 3054   0.697   5.574   5.243 -0.0321 -0.1417  0.1346
  224POPC   D2A 3055   0.635   5.272   5.561 -0.3530  0.1269 -0.3442
  224POPC   C3A 3056   0.878   5.443   5.905 -0.3605 -0.0181  0.0295
  224POPC   C4A 3057   0.989   5.399   6.403  0.0195  0.1141 -0.0909
  224POPC   C1B 3058   1.037   5.957   5.345 -0.3374 -0.1825  0.0382
  224POPC   C2B 3059   1.262   6.250   5.695  0.0966  0.1470 -0.1314
  224POPC   C3B 3060   1.535   6.588   5.950  0.0296  0.3080  0.2358
  224POPC   C4B 3061   1.920   6.469   6.178  0.0898  0.0318 -0.0730
  225POPC   NC3 3062   5.131   1.699   3.972 -0.0083 -0.0065 -0.2457
  225POPC   PO4 3063   5.094   1.607   4.467 -0.0402 -0.1073  0.0935
  225POPC   GL1 3064   5.311   1.698   4.909  0.0972 -0.4137 -0.1754
  225POPC   GL2 3065   5.012   1.876   5.141 -0.0350  0.0166  0.0576
  225POPC   C1A 3066   5.506   1.490   5.285 -0.0590 -0.2365 -0.0160
  225POPC   D2A 3067   5.377   1.043   5.354  0.2126 -0.1422  0.2165
  225POPC   C3A 3068   5.390   0.784   5.618  0.0738  0.1647  0.0730
  225POPC   C4A 3069   5.599   0.554   5.983 -0.1763  0.2974 -0.0021
  225POPC   C1B 3070   5.109   1.766   5.546  0.1614  0.3826  0.1739
  225POPC   C2B 3071   5.394   1.775   5.842  0.0939 -0.0354  0.1194
  225POPC   C3B 3072   5.697   1.512   6.069  0.0324  0.1442 -0.0387
  225POPC   C4B 3073   5.965   1.060   6.052 -0.1539 -0.0423 -0.3480
  226POPC   NC3 3074   3.417   2.049   4.570 -0.0114 -0.1068  0.0069
  226POPC   PO4 3075   3.247   2.290   4.608  0.3019  0.1527  0.0903
  226POPC   GL1 3076   3.250   2.322   5.049 -0.4264 -0.2098 -0.3065
  226POPC   GL2 3077   3.379   2.599   5.010 -0.5030 -0.2549  0.1529
  226POPC   C1A 3078   2.909   1.914   5.245  0.1129  0.3508  0.0355
  226POPC   D2A 3079   2.749   1.769   5.668 -0.0933  0.3621  0.1755
  226POPC   C3A 3080   2.552   2.025   5.879  0.2971  0.0640 -0.2000
  226POPC   C4A 3081   2.232   2.056   6.079  0.1811 -0.2885  0.0649
  226POPC   C1B 3082   3.119   2.748   5.426 -0.3089 -0.1946  0.2174
  226POPC   C2B 3083   3.153   2.567   5.780  0.1057 -0.1874 -0.4208
  226POPC   C3B 3084   3.016   2.473   6.212  0.1899  0.0391 -0.0038
  226POPC   C4B 3085   3.202   2.400   6.683  0.0353 -0.0248 -0.3099
  227POPC   NC3 3086   4.588   1.255   4.455 -0.2116  0.0616  0.0067
  227POPC   PO4 3087   4.672   0.854   4.131  0.0999  0.2475 -0.1601
  227POPC   GL1 3088   4.408   0.688   4.570 -0.1070 -0.2375 -0.1002
  227POPC   GL2 3089   4.453   0.936   4.875 -0.0715  0.3368  0.0050
  227POPC   C1A 3090   4.464   0.188   4.599  0.0385  0.0553 -0.1745
  227POPC   D2A 3091   4.514  -0.265   4.695 -0.0842 -0.2092  0.1214
  227POPC   C3A 3092   4.731  -0.441   5.027 -0.0843 -0.1021 -0.0400
  227POPC   C4A 3093   4.615  -0.521   5.436  0.3909  0.0799  0.1418
  227POPC   C1B 3094   4.682   0.979   5.224  0.1783 -0.0411 -0.0917
  227POPC   C2B 3095   4.852   0.885   5.668  0.3940 -0.0543  0.0795
  227POPC   C3B 3096   5.051   0.750   6.038 -0.2231  0.2320  0.2456
  227POPC   C4B 3097   5.284   0.522   6.406 -0.1335 -0.2314 -0.1793
  228POPC   NC3 3098   8.250   6.333   4.288  0.0718  0.0514 -0.1909
  228POPC   PO4 3099   7.807   6.407   4.091 -0.2983  0.1440  0.2573
  228POPC   GL1 3100   7.768   6.353   4.519  0.2562 -0.0963  0.1238
  228POPC   GL2 3101   7.862   6.213   4.772 -0.3350 -0.0134  0.0664
  228POPC   C1A 3102   7.497   6.597   4.826  0.1574  0.1727  0.2571
  228POPC   D2A 3103   7.344   6.635   5.250 -0.2150  0.0909  0.0361
  228POPC   C3A 3104   7.204   7.019   5.318  0.0102 -0.2107  0.2637
  228POPC   C4A 3105   7.121   7.491   5.358 -0.0115 -0.1258 -0.3052
  228POPC   C1B 3106   7.886   6.464   5.030 -0.1736 -0.2349 -0.0097
  228POPC   C2B 3107   7.785   6.560   5.471 -0.1809  0.4237 -0.0880
  228POPC   C3B 3108   7.544   6.672   5.733  0.1524 -0.1660  0.1711
  228POPC   C4B 3109   7.086   6.661   5.671  0.0029 -0.0801 -0.1141
  229POPC   NC3 3110   5.815   7.326   3.067  0.3378 -0.1809 -0.1411
  229POPC   PO4 3111   5.679   6.917   3.120  0.0157 -0.0241 -0.1314
  229POPC   GL1 3112   5.735   6.876   3.560 -0.1118  0.2385  0.1806
  229POPC   GL2 3113   5.918   7.147   3.538  0.1400  0.0647 -0.3117
  229POPC   C1A 3114   5.799   6.555   3.854 -0.0069  0.0985 -0.3050
  229POPC   D2A 3115   6.226   6.517   4.201  0.1675 -0.2202  0.0548
  229POPC   C3A 3116   6.060   6.536   4.524  0.0354  0.0165  0.1010
  229POPC   C4A 3117   5.772   6.246   4.779 -0.1798 -0.1068 -0.3127
  229POPC   C1B 3118   5.509   7.354   3.695 -0.1448  0.0993  0.1837
  229POPC   C2B 3119   5.435   7.865   3.759 -0.1625 -0.0645 -0.0428
  229POPC   C3B 3120   5.620   8.292   3.712  0.0009 -0.2219 -0.0637
  229POPC   C4B 3121   5.810   8.640   3.576  0.1378  0.2001  0.1942
  230POPC   NC3 3122   3.579   1.818   4.070  0.1628  0.0633 -0.1976
  230POPC   PO4 3123   3.369   1.556   4.359  0.0801  0.2001 -0.1916
  230POPC   GL1 3124   3.547   1.309   4.720  0.0796 -0.1435  0.1992
  230POPC   GL2 3125   3.249   1.153   5.035  0.1772  0.2703 -0.2176
  230POPC   C1A 3126   3.674   1.484   5.107 -0.1116 -0.3697  0.0393
  230POPC   D2A 3127   3.962   1.592   5.503  0.2460 -0.1826  0.0695
  230POPC   C3A 3128   4.250   1.756   5.663 -0.1123  0.0961 -0.2133
  230POPC   C4A 3129   4.662   1.825   6.038 -0.1969 -0.0991 -0.0592
  230POPC   C1B 3130   2.966   1.293   5.274  0.2345  0.0986  0.3489
  230POPC   C2B 3131   2.757   1.276   5.723 -0.0075  0.0453  0.3770
  230POPC   C3B 3132   2.616   1.473   6.097 -0.1190 -0.0504 -0.2317
  230POPC   C4B 3133   2.790   1.518   6.550 -0.1463 -0.2565 -0.2492
  231POPC   NC3 3134   6.797   6.237   3.344 -0.1714  0.1187 -0.0704
  231POPC   PO4 3135   6.853   5.985   3.621 -0.1742 -0.2006  0.0320
  231POPC   GL1 3136   6.851   5.950   4.061 -0.1246 -0.0125 -0.2633
  231POPC   GL2 3137   7.028   6.034   4.123  0.2674  0.0239 -0.0750
  231POPC   C1A 3138   6.454   6.040   4.288  0.4110  0.0299 -0.2516
  231POPC   D2A 3139   6.240   6.113   4.647 -0.0560 -0.0408 -0.1183
  231POPC   C3A 3140   6.446   6.194   5.025 -0.3078 -0.1179  0.1933
  231POPC   C4A 3141   6.493   6.299   5.435 -0.2252 -0.1558  0.0909
  231POPC   C1B 3142   7.188   6.231   4.525  0.0294 -0.2752  0.0501
  231POPC   C2B 3143   7.158   6.272   4.983 -0.1803  0.1222  0.0556
  231POPC   C3B 3144   7.118   6.183   5.476  0.0830  0.0048 -0.1636
  231POPC   C4B 3145   7.199   6.095   5.996 -0.1079  0.2605  0.2064
  232POPC   NC3 3146   1.211   9.536   4.323  0.2159 -0.0471 -0.1091
  232POPC   PO4 3147   1.295   9.769   4.739  0.1580  0.0235 -0.0002
  232POPC   GL1 3148   1.283   9.624   5.176 -0.1114 -0.0793 -0.1156
  232POPC   GL2 3149   1.502   9.506   5.262  0.2201 -0.0232  0.1609
  232POPC   C1A 3150   1.037   9.510   5.474 -0.2963 -0.0797 -0.5574
  232POPC   D2A 3151   0.866   9.640   5.955 -0.1641 -0.1706  0.3717
  232POPC   C3A 3152   1.270   9.596   6.196  0.0523 -0.1497  0.0265
  232POPC   C4A 3153   1.698   9.584   6.392 -0.0106  0.0883  0.3116
  232POPC   C1B 3154   1.587   9.771   5.640  0.0999  0.0999  0.0789
  232POPC   C2B 3155   1.772  10.226   5.805  0.2327  0.0991 -0.0395
  232POPC   C3B 3156   2.100  10.496   5.721 -0.2795 -0.0149 -0.2316
  232POPC   C4B 3157   2.301  10.769   5.942 -0.0033  0.2572  0.4059
  233POPC   NC3 3158   6.275   9.305   3.296  0.0461  0.0324  0.1401
  233POPC   PO4 3159   6.431   9.651   3.202  0.0116 -0.0622 -0.0474
  233POPC   GL1 3160   6.599   9.707   3.548  0.0052 -0.0636  0.0174
  233POPC   GL2 3161   6.836   9.483   3.878 -0.0309 -0.0575  0.1219
  233POPC   C1A 3162   6.554  10.019   3.852 -0.1556  0.2228  0.2261
  233POPC   D2A 3163   6.509  10.308   4.253 -0.1611 -0.1029 -0.0936
  233POPC   C3A 3164   6.676  10.355   4.703  0.1009  0.1135  0.2705
  233POPC   C4A 3165   6.573  10.198   5.120 -0.0014 -0.1317  0.0035
  233POPC   C1B 3166   6.378   9.387   3.901 -0.0719 -0.3102 -0.0678
  233POPC   C2B 3167   6.195   9.232   4.221 -0.0572 -0.1892  0.2424
  233POPC   C3B 3168   5.993   9.144   4.447  0.0613  0.0667  0.1544
  233POPC   C4B 3169   5.679   8.851   4.555 -0.1369  0.2012 -0.5435
  234POPC   NC3 3170   4.719   0.512   3.663 -0.4119 -0.0858 -0.1776
  234POPC   PO4 3171   4.643   0.061   3.769 -0.1021 -0.1644 -0.1850
  234POPC   GL1 3172   4.813   0.231   4.139  0.3679  0.0492 -0.0067
  234POPC   GL2 3173   4.957   0.489   4.249  0.1044 -0.2605 -0.1336
  234POPC   C1A 3174   4.948   0.093   4.502  0.3927 -0.2751  0.2251
  234POPC   D2A 3175   5.278   0.100   4.942  0.2615 -0.0810 -0.0942
  234POPC   C3A 3176   5.002  -0.047   5.319  0.1593  0.0067  0.1352
  234POPC   C4A 3177   5.110  -0.220   5.754  0.1018 -0.2190 -0.1243
  234POPC   C1B 3178   4.998   0.636   4.675  0.2311  0.2464 -0.0194
  234POPC   C2B 3179   5.118   0.553   5.189 -0.1325 -0.1867  0.3204
  234POPC   C3B 3180   5.069   0.405   5.645  0.1158 -0.3385 -0.0933
  234POPC   C4B 3181   5.306   0.208   5.928 -0.3790  0.1112  0.2513
  235POPC   NC3 3182   1.202   4.717   4.733 -0.2843 -0.0317  0.0451
  235POPC   PO4 3183   0.961   4.929   4.433 -0.0446 -0.0255 -0.1888
  235POPC   GL1 3184   0.818   5.046   4.849 -0.1431 -0.1634  0.0874
  235POPC   GL2 3185   0.580   5.221   4.879 -0.3030 -0.2207 -0.1055
  235POPC   C1A 3186   0.667   4.850   5.309  0.1420 -0.3010  0.1841
  235POPC   D2A 3187   0.512   4.908   5.822  0.1144  0.2751  0.0414
  235POPC   C3A 3188   0.384   5.327   6.017  0.1613  0.0203  0.1337
  235POPC   C4A 3189   0.443   5.747   6.198  0.0435 -0.0829 -0.1656
  235POPC   C1B 3190   0.251   5.131   5.222  0.0374  0.0775 -0.0495
  235POPC   C2B 3191   0.074   4.981   5.567  0.1397 -0.3839  0.2143
  235POPC   C3B 3192  -0.038   4.832   5.899 -0.1759 -0.2397 -0.0051
  235POPC   C4B 3193  -0.008   4.602   6.262  0.1508 -0.2854 -0.0484
  236POPC   NC3 3194   7.428   8.416   3.527 -0.1374  0.0945 -0.1474
  236POPC   PO4 3195   7.344   7.969   3.382 -0.0053 -0.0888  0.3573
  236POPC   GL1 3196   7.410   7.734   3.733 -0.0471 -0.2092 -0.2169
  236POPC   GL2 3197   7.143   7.558   3.701 -0.0056  0.1875  0.1587
  236POPC   C1A 3198   7.204   7.815   4.094  0.1143  0.2867  0.0921
  236POPC   D2A 3199   6.755   7.964   4.301 -0.1734  0.1124  0.2181
  236POPC   C3A 3200   6.763   8.141   4.736  0.0278 -0.2446 -0.4713
  236POPC   C4A 3201   6.764   8.079   5.111 -0.2999 -0.0971  0.2424
  236POPC   C1B 3202   7.277   7.330   3.961  0.0145  0.2363  0.3490
  236POPC   C2B 3203   6.986   6.955   4.227 -0.0529  0.2161  0.1069
  236POPC   C3B 3204   6.775   6.479   4.242  0.2829  0.4261  0.2310
  236POPC   C4B 3205   6.715   6.288   4.642  0.0174  0.1316 -0.0906
  237POPC   NC3 3206   0.568   5.461   4.424 -0.1814 -0.1851  0.0836
  237POPC   PO4 3207   0.987   5.497   4.598  0.2242 -0.2390  0.0300
  237POPC   GL1 3208   1.112   5.448   4.995 -0.3437  0.0911  0.2091
  237POPC   GL2 3209   1.396   5.444   4.913  0.5141  0.3615  0.0108
  237POPC   C1A 3210   1.106   5.166   5.373  0.4548  0.1538  0.0583
  237POPC   D2A 3211   1.022   5.005   5.835  0.0531 -0.1813  0.0944
  237POPC   C3A 3212   1.254   4.943   6.229 -0.2555  0.1171 -0.1073
  237POPC   C4A 3213   1.515   5.134   6.660  0.4249  0.1565  0.1700
  237POPC   C1B 3214   1.502   5.540   5.374 -0.0794  0.0935  0.0669
  237POPC   C2B 3215   1.534   5.799   5.754 -0.0867 -0.0418  0.0047
  237POPC   C3B 3216   1.160   5.820   6.121 -0.1654 -0.0538  0.0349
  237POPC   C4B 3217   1.111   5.929   6.547  0.0960 -0.0816 -0.3107
  238POPC   NC3 3218   5.250   7.274   3.012  0.0527  0.0836 -0.1422
  238POPC   PO4 3219   5.474   7.589   2.763 -0.0982  0.0158  0.4251
  238POPC   GL1 3220   5.400   7.766   3.219 -0.4480 -0.3351 -0.1200
  238POPC   GL2 3221   5.312   8.119   3.351  0.1805 -0.0129  0.2766
  238POPC   C1A 3222   5.804   7.937   3.431 -0.2474  0.1684 -0.1668
  238POPC   D2A 3223   6.269   7.990   3.536 -0.0728 -0.0982 -0.0724
  238POPC   C3A 3224   6.383   7.914   3.969  0.0640  0.2508  0.0490
  238POPC   C4A 3225   6.371   8.272   4.394  0.1848 -0.0916 -0.1669
  238POPC   C1B 3226   5.090   8.425   3.585  0.2386  0.2291  0.1897
  238POPC   C2B 3227   5.267   8.530   3.955  0.1072 -0.0577  0.1266
  238POPC   C3B 3228   5.315   8.525   4.472  0.0691 -0.2023 -0.1405
  238POPC   C4B 3229   5.396   8.154   4.721  0.0968 -0.1955 -0.0423
  239POPC   NC3 3230   3.279   9.136   4.085  0.0959 -0.0327  0.2505
  239POPC   PO4 3231   3.639   9.344   4.034 -0.1241  0.0956  0.1016
  239POPC   GL1 3232   3.745   9.404   4.533  0.1576  0.3507  0.0648
  239POPC   GL2 3233   3.990   9.673   4.713  0.2642  0.1262  0.1772
  239POPC   C1A 3234   3.994   9.178   4.841 -0.0390  0.3078 -0.2325
  239POPC   D2A 3235   4.238   9.333   5.133  0.1733 -0.3607  0.0405
  239POPC   C3A 3236   4.497   9.666   5.163  0.0658 -0.1836  0.4282
  239POPC   C4A 3237   4.798   9.980   4.952 -0.2115  0.4684  0.2412
  239POPC   C1B 3238   3.999   9.783   5.162 -0.0671  0.2636  0.0788
  239POPC   C2B 3239   4.016   9.547   5.544 -0.0257 -0.2366  0.0747
  239POPC   C3B 3240   4.143   9.411   5.943  0.2505 -0.0440 -0.1194
  239POPC   C4B 3241   4.255   9.090   6.266 -0.0862 -0.3279 -0.0216
  240POPC   NC3 3242   9.126   9.164   4.405 -0.1019  0.3506 -0.1670
  240POPC   PO4 3243   9.531   9.300   4.351  0.1000  0.0434 -0.1334
  240POPC   GL1 3244   9.462   9.434   4.683  0.2051 -0.1737 -0.0421
  240POPC   GL2 3245   9.469   9.745   4.606 -0.3495 -0.0687 -0.1275
  240POPC   C1A 3246   9.203   9.465   5.047  0.1038  0.0337 -0.1533
  240POPC   D2A 3247   8.887   9.587   5.329 -0.2061 -0.0434 -0.0307
  240POPC   C3A 3248   8.929   9.577   5.822 -0.1147  0.1686 -0.1392
  240POPC   C4A 3249   9.033   9.447   6.247 -0.3188 -0.4106  0.2503
  240POPC   C1B 3250   9.636  10.146   4.857  0.2813 -0.0079 -0.1573
  240POPC   C2B 3251   9.792  10.309   5.211  0.0158  0.0131 -0.0458
  240POPC   C3B 3252   9.569  10.435   5.657  0.0228 -0.1022 -0.3163
  240POPC   C4B 3253   9.623  10.196   5.897  0.0845  0.1927 -0.0930
  241POPC   NC3 3254   4.114   5.871   4.040 -0.1448  0.2114 -0.1404
  241POPC   PO4 3255   4.544   5.771   3.859 -0.0867 -0.1110 -0.0526
  241POPC   GL1 3256   4.655   6.115   4.222  0.1539 -0.2699  0.1504
  241POPC   GL2 3257   4.373   6.107   4.438  0.1636  0.0165 -0.2882
  241POPC   C1A 3258   4.858   6.213   4.683 -0.3640  0.2750 -0.0247
  241POPC   D2A 3259   5.272   6.438   4.784  0.0702  0.0455  0.2287
  241POPC   C3A 3260   5.457   6.437   5.236 -0.4720  0.0899 -0.2564
  241POPC   C4A 3261   5.608   6.247   5.560 -0.2076 -0.0673  0.1770
  241POPC   C1B 3262   4.430   6.297   4.921 -0.0031  0.1352 -0.0233
  241POPC   C2B 3263   4.545   6.415   5.350  0.1088  0.0979 -0.0395
  241POPC   C3B 3264   4.487   6.765   5.564 -0.2009 -0.0552  0.0922
  241POPC   C4B 3265   4.240   7.114   5.611 -0.0313  0.0821 -0.0955
  242POPC   NC3 3266   8.397   4.630   3.955  0.2216  0.3207  0.1724
  242POPC   PO4 3267   8.711   4.647   4.334  0.0597 -0.0857  0.3498
  242POPC   GL1 3268   8.833   4.676   4.757 -0.1718  0.3508  0.1204
  242POPC   GL2 3269   8.507   4.738   4.842  0.1170  0.2052 -0.0609
  242POPC   C1A 3270   9.111   4.521   4.988 -0.0051  0.1066  0.2440
  242POPC   D2A 3271   9.445   4.312   4.996 -0.0316  0.0798  0.1165
  242POPC   C3A 3272   9.563   4.119   5.436 -0.0524  0.0492  0.1157
  242POPC   C4A 3273   9.588   4.287   5.874  0.2247 -0.1160 -0.0684
  242POPC   C1B 3274   8.225   4.430   4.864  0.0806  0.0489  0.2861
  242POPC   C2B 3275   8.118   4.097   5.016  0.1223  0.4205  0.0402
  242POPC   C3B 3276   8.023   3.983   5.448 -0.4387 -0.2305  0.0928
  242POPC   C4B 3277   7.816   3.899   5.847  0.1134  0.1012  0.2742
  243POPC   NC3 3278   0.399   3.926   4.327  0.5355  0.3229 -0.1213
  243POPC   PO4 3279   0.806   3.837   4.459 -0.1440  0.0825 -0.1568
  243POPC   GL1 3280   0.961   4.031   4.818 -0.0800  0.0399  0.2206
  243POPC   GL2 3281   1.238   4.218   4.852  0.0128 -0.0387 -0.3039
  243POPC   C1A 3282   0.885   3.890   5.195  0.0104  0.1157  0.0409
  243POPC   D2A 3283   0.925   3.696   5.679  0.0700 -0.2427 -0.0766
  243POPC   C3A 3284   0.621   3.760   6.006 -0.1427 -0.0549  0.3288
  243POPC   C4A 3285   0.190   3.562   6.191  0.0468  0.0063  0.3044
  243POPC   C1B 3286   1.203   4.215   5.351  0.0262 -0.0089  0.3202
  243POPC   C2B 3287   1.357   4.069   5.752 -0.3983 -0.3513  0.2561
  243POPC   C3B 3288   1.340   3.671   5.942  0.2138  0.1637 -0.0683
  243POPC   C4B 3289   1.316   3.273   6.264  0.1483 -0.2563  0.2202
  244POPC   NC3 3290   8.758   6.277   4.725 -0.0656  0.0880  0.1723
  244POPC   PO4 3291   8.650   6.650   4.474 -0.1396  0.0678  0.0948
  244POPC   GL1 3292   8.379   6.698   4.880 -0.0569  0.2824 -0.0648
  244POPC   GL2 3293   8.428   6.574   5.236 -0.0850  0.2662  0.0332
  244POPC   C1A 3294   8.091   6.915   5.143 -0.0251 -0.3339 -0.0623
  244POPC   D2A 3295   7.834   7.014   5.504 -0.1226  0.1204 -0.1015
  244POPC   C3A 3296   8.113   6.872   5.966 -0.1053  0.0220 -0.0605
  244POPC   C4A 3297   8.429   6.867   6.257  0.2333  0.0415 -0.0423
  244POPC   C1B 3298   8.533   6.636   5.650  0.2101  0.1291 -0.0260
  244POPC   C2B 3299   8.638   6.430   5.998 -0.0371  0.0966  0.1392
  244POPC   C3B 3300   8.594   6.361   6.470  0.1795  0.1260 -0.4385
  244POPC   C4B 3301   8.654   6.137   6.824  0.0017  0.2492  0.2420
  245POPC   NC3 3302   2.203   9.532   4.449 -0.2779 -0.1520  0.2554
  245POPC   PO4 3303   2.533   9.277   4.503  0.1487  0.0570  0.2145
  245POPC   GL1 3304   2.696   9.269   4.839 -0.0523  0.1963 -0.1288
  245POPC   GL2 3305   2.868   8.955   4.915  0.2627 -0.0874 -0.2304
  245POPC   C1A 3306   2.598   9.231   5.305  0.1489 -0.0104 -0.1298
  245POPC   D2A 3307   2.852   8.984   5.619  0.1174 -0.0770 -0.1164
  245POPC   C3A 3308   2.742   9.106   5.924  0.1084 -0.1797 -0.2579
  245POPC   C4A 3309   2.970   9.427   6.361 -0.0829  0.0784  0.0806
  245POPC   C1B 3310   3.072   9.263   5.213 -0.1433  0.1379  0.0494
  245POPC   C2B 3311   3.358   9.270   5.531  0.2331  0.1559  0.1567
  245POPC   C3B 3312   3.609   9.425   5.826 -0.2279  0.2102  0.2067
  245POPC   C4B 3313   3.751   9.722   6.204 -0.0396  0.0387  0.1342
  246POPC   NC3 3314   8.262   0.248   3.850 -0.0439 -0.0571 -0.0257
  246POPC   PO4 3315   7.872   0.002   3.898 -0.2610  0.3154 -0.2363
  246POPC   GL1 3316   7.889  -0.093   4.310 -0.0007  0.1480  0.0182
  246POPC   GL2 3317   7.758  -0.295   4.565 -0.2709  0.0333 -0.2604
  246POPC   C1A 3318   7.851   0.121   4.784 -0.2376 -0.1573  0.3011
  246POPC   D2A 3319   7.657   0.101   5.253  0.2801 -0.1785 -0.1212
  246POPC   C3A 3320   7.696   0.026   5.726  0.0016  0.4490  0.1836
  246POPC   C4A 3321   7.744   0.170   6.057 -0.2110  0.0156 -0.2405
  246POPC   C1B 3322   7.834  -0.358   5.029 -0.0805 -0.2433  0.0354
  246POPC   C2B 3323   7.911  -0.387   5.467  0.3254 -0.1978 -0.0889
  246POPC   C3B 3324   7.786  -0.501   5.858  0.1774 -0.1155  0.0078
  246POPC   C4B 3325   7.565  -0.296   6.183 -0.0874 -0.0921  0.1873
  247POPC   NC3 3326   0.546   1.979   4.239 -0.2190 -0.1977 -0.1296
  247POPC   PO4 3327   0.729   2.301   4.264  0.0163 -0.2499 -0.0956
  247POPC   GL1 3328   0.608   2.393   4.607 -0.0654 -0.1835 -0.0173
  247POPC   GL2 3329   0.472   2.197   4.732  0.0135  0.2342  0.3480
  247POPC   C1A 3330   0.464   2.568   5.114 -0.1422  0.2373  0.1754
  247POPC   D2A 3331   0.563   2.819   5.394  0.3657 -0.3456 -0.0378
  247POPC   C3A 3332   0.917   2.897   5.594  0.5147  0.4395  0.0617
  247POPC   C4A 3333   1.136   3.220   5.794 -0.2245  0.1286 -0.0098
  247POPC   C1B 3334   0.433   1.994   5.112  0.1315  0.0695  0.1179
  247POPC   C2B 3335   0.362   2.054   5.486 -0.1874  0.0809  0.1495
  247POPC   C3B 3336   0.608   2.043   5.863  0.2488  0.2032 -0.2179
  247POPC   C4B 3337   0.877   1.781   6.068 -0.0716  0.1890  0.3284
  248POPC   NC3 3338   8.572   1.245   3.326 -0.1607 -0.1010  0.0737
  248POPC   PO4 3339   8.655   1.409   3.696 -0.4118 -0.0310 -0.0470
  248POPC   GL1 3340   8.383   1.419   4.052 -0.0574  0.1915  0.2029
  248POPC   GL2 3341   8.129   1.217   4.093 -0.0201  0.1807 -0.2053
  248POPC   C1A 3342   8.232   1.534   4.570  0.2800 -0.1690 -0.2018
  248POPC   D2A 3343   8.109   1.672   4.951 -0.1453  0.1120 -0.0980
  248POPC   C3A 3344   8.381   1.470   5.135  0.2002 -0.1127  0.0047
  248POPC   C4A 3345   8.633   1.708   5.279  0.0456  0.4235  0.0269
  248POPC   C1B 3346   8.121   0.969   4.467  0.2176  0.3622  0.1720
  248POPC   C2B 3347   7.829   0.994   4.795  0.1569 -0.1112  0.0236
  248POPC   C3B 3348   7.765   1.241   5.090 -0.1179  0.0099  0.1250
  248POPC   C4B 3349   7.862   1.384   5.449 -0.0937  0.1115  0.4041
  249POPC   NC3 3350   7.704   2.286   4.135  0.1120 -0.4321  0.0128
  249POPC   PO4 3351   8.141   2.065   4.142 -0.0810 -0.0868 -0.1291
  249POPC   GL1 3352   8.024   1.982   4.551  0.0898  0.1613  0.0085
  249POPC   GL2 3353   7.924   2.385   4.740 -0.2332  0.1113  0.1510
  249POPC   C1A 3354   7.686   1.963   4.891  0.2327 -0.1459  0.0385
  249POPC   D2A 3355   7.658   1.866   5.363  0.2140  0.0468 -0.0348
  249POPC   C3A 3356   7.311   2.028   5.649  0.1471 -0.1572  0.0262
  249POPC   C4A 3357   7.358   2.409   5.601  0.3859  0.3417 -0.2170
  249POPC   C1B 3358   8.209   2.130   5.001  0.1134  0.0138 -0.3208
  249POPC   C2B 3359   8.214   1.944   5.414  0.3189 -0.0493  0.0579
  249POPC   C3B 3360   8.457   1.947   5.806  0.0043  0.2705 -0.0854
  249POPC   C4B 3361   8.577   2.110   6.233  0.3013 -0.2975  0.3223
  250POPC   NC3 3362   4.908   5.201   4.377  0.1018  0.2026  0.1566
  250POPC   PO4 3363   5.356   5.329   4.328  0.3801 -0.0183 -0.0188
  250POPC   GL1 3364   5.571   5.660   4.486  0.0092  0.2010  0.1297
  250POPC   GL2 3365   5.895   5.614   4.630  0.0095  0.0345 -0.0890
  250POPC   C1A 3366   5.394   5.918   4.769 -0.0040  0.0311 -0.0309
  250POPC   D2A 3367   5.103   5.881   5.009  0.2390 -0.4006 -0.0852
  250POPC   C3A 3368   5.008   6.324   5.147  0.1952  0.0723 -0.1730
  250POPC   C4A 3369   5.033   6.528   5.539  0.0448  0.2151  0.2977
  250POPC   C1B 3370   6.247   5.736   4.953  0.0490  0.3868 -0.0986
  250POPC   C2B 3371   6.348   5.847   5.369  0.0206 -0.2262  0.4607
  250POPC   C3B 3372   6.567   5.862   5.787 -0.3574 -0.2222  0.1473
  250POPC   C4B 3373   6.396   5.793   6.204  0.3253  0.0417 -0.0127
  251POPC   NC3 3374   5.400   2.863   3.747 -0.3994  0.0071 -0.1286
  251POPC   PO4 3375   5.461   2.924   4.119  0.1840  0.1228 -0.3272
  251POPC   GL1 3376   5.692   2.931   4.434  0.1396 -0.0063 -0.0723
  251POPC   GL2 3377   5.524   3.071   4.619  0.5491  0.3007  0.1617
  251POPC   C1A 3378   5.988   3.103   4.637 -0.1050  0.2140 -0.2872
  251POPC   D2A 3379   6.333   3.220   4.937 -0.0586 -0.1523 -0.3206
  251POPC   C3A 3380   6.632   2.955   4.990 -0.3824 -0.2229 -0.0035
  251POPC   C4A 3381   7.027   3.010   5.080 -0.5433 -0.2288 -0.1691
  251POPC   C1B 3382   5.498   3.210   5.064 -0.0136  0.0058  0.1758
  251POPC   C2B 3383   5.080   2.932   5.315  0.1114  0.1813  0.0580
  251POPC   C3B 3384   4.839   3.151   5.656 -0.3068 -0.1173  0.3462
  251POPC   C4B 3385   4.851   3.537   5.886  0.2967  0.0314  0.0778
  252POPC   NC3 3386   7.541   4.675   4.207 -0.0069 -0.1819 -0.1758
  252POPC   PO4 3387   7.404   4.270   4.128 -0.1769 -0.1613  0.2747
  252POPC   GL1 3388   7.249   4.404   4.535  0.1638 -0.2569  0.2167
  252POPC   GL2 3389   6.926   4.380   4.634  0.5342  0.0143  0.0160
  252POPC   C1A 3390   7.433   4.382   4.898 -0.1254  0.0429 -0.1796
  252POPC   D2A 3391   7.787   4.402   5.214  0.1223  0.2704  0.1170
  252POPC   C3A 3392   7.685   4.338   5.632  0.1644 -0.0348  0.3874
  252POPC   C4A 3393   7.332   4.124   5.932  0.1597 -0.2012  0.1347
  252POPC   C1B 3394   6.669   4.151   4.950  0.2303 -0.0654  0.5061
  252POPC   C2B 3395   6.420   4.162   5.307  0.0325 -0.0616 -0.3476
  252POPC   C3B 3396   6.468   4.021   5.724  0.0631 -0.3048  0.0591
  252POPC   C4B 3397   6.817   4.042   5.998  0.1817 -0.0085 -0.1019
  253POPC   NC3 3398   0.943   7.956   4.943  0.0377 -0.0716  0.0095
  253POPC   PO4 3399   1.345   7.984   5.031  0.3197  0.1089 -0.0782
  253POPC   GL1 3400   1.292   8.003   5.335  0.6581 -0.0701 -0.1928
  253POPC   GL2 3401   1.037   7.863   5.429  0.1274 -0.2148 -0.1903
  253POPC   C1A 3402   1.524   8.029   5.737 -0.0163 -0.0089 -0.2086
  253POPC   D2A 3403   1.635   8.028   6.125  0.4572  0.2247  0.0168
  253POPC   C3A 3404   1.553   7.764   6.524  0.2594 -0.1425  0.1800
  253POPC   C4A 3405   1.458   7.332   6.678 -0.1670  0.0446  0.0819
  253POPC   C1B 3406   0.638   8.155   5.520  0.0906  0.1222  0.2821
  253POPC   C2B 3407   0.528   8.503   5.649  0.0134 -0.0923  0.2509
  253POPC   C3B 3408   0.247   8.612   5.965  0.1321 -0.0156 -0.1470
  253POPC   C4B 3409  -0.067   8.500   6.166 -0.0067 -0.0577  0.2078
  254POPC   NC3 3410   6.341   2.699   3.866 -0.0289  0.4889  0.2463
  254POPC   PO4 3411   6.592   2.794   4.136  0.2496  0.0549  0.2089
  254POPC   GL1 3412   6.541   2.620   4.666 -0.1104 -0.2430 -0.0494
  254POPC   GL2 3413   6.549   2.384   4.769  0.1604 -0.0690  0.0462
  254POPC   C1A 3414   6.185   2.686   4.976 -0.1614 -0.0466  0.3529
  254POPC   D2A 3415   5.978   3.068   5.233 -0.2317  0.0268 -0.3282
  254POPC   C3A 3416   5.640   3.096   5.561  0.0184 -0.3111 -0.1064
  254POPC   C4A 3417   5.399   3.426   5.661 -0.0079 -0.2811  0.0179
  254POPC   C1B 3418   6.569   2.453   5.301  0.0878 -0.2674  0.1217
  254POPC   C2B 3419   6.547   2.493   5.671  0.3068 -0.3417 -0.1239
  254POPC   C3B 3420   6.506   2.174   5.850 -0.0818  0.0654 -0.1196
  254POPC   C4B 3421   6.275   1.703   5.889 -0.1155 -0.2010  0.0498
  255POPC   NC3 3422   8.838   7.943   4.273 -0.3147 -0.1088  0.2725
  255POPC   PO4 3423   8.573   7.633   4.522 -0.0979 -0.0950 -0.0479
  255POPC   GL1 3424   8.594   7.709   5.040  0.1895 -0.3358  0.1328
  255POPC   GL2 3425   8.769   7.516   5.105  0.0403 -0.1355  0.0334
  255POPC   C1A 3426   8.547   8.120   5.258  0.1442  0.2537 -0.0663
  255POPC   D2A 3427   8.400   8.371   5.529 -0.2166  0.3670 -0.1426
  255POPC   C3A 3428   8.593   8.257   5.857  0.1141  0.4163 -0.0188
  255POPC   C4A 3429   8.690   8.304   6.360  0.0618  0.1710 -0.2147
  255POPC   C1B 3430   8.942   7.575   5.447 -0.1173  0.0312 -0.2280
  255POPC   C2B 3431   8.865   7.518   5.859 -0.4893  0.0187 -0.1416
  255POPC   C3B 3432   8.778   7.265   6.219 -0.0381  0.2667 -0.1140
  255POPC   C4B 3433   8.805   7.202   6.641  0.2753  0.1621 -0.0682
  256POPC   NC3 3434   5.570   1.603   4.508  0.0306  0.0671 -0.0702
  256POPC   PO4 3435   5.893   1.906   4.359 -0.0976 -0.1147 -0.0490
  256POPC   GL1 3436   5.985   1.714   4.764  0.6281  0.0500 -0.1424
  256POPC   GL2 3437   6.184   1.478   4.759 -0.3443 -0.0998  0.2352
  256POPC   C1A 3438   6.005   1.688   5.221  0.0427  0.1211  0.2029
  256POPC   D2A 3439   5.854   1.695   5.621 -0.0618  0.1047 -0.1746
  256POPC   C3A 3440   5.944   2.083   5.944  0.3336  0.0143 -0.0183
  256POPC   C4A 3441   6.153   2.447   6.011  0.3079 -0.0535 -0.3935
  256POPC   C1B 3442   5.929   1.190   4.924 -0.0895  0.0538  0.0620
  256POPC   C2B 3443   5.814   0.845   5.230  0.2451 -0.1745  0.0106
  256POPC   C3B 3444   5.905   0.675   5.569 -0.2012  0.0905  0.0699
  256POPC   C4B 3445   6.089   0.465   5.914  0.0665 -0.2457  0.0735
  257POPC   NC3 3446   8.648   4.205   3.777 -0.0134 -0.3111 -0.2120
  257POPC   PO4 3447   8.650   4.162   4.250 -0.1160 -0.2211  0.2440
  257POPC   GL1 3448   8.618   4.060   4.742  0.0831 -0.0500  0.4258
  257POPC   GL2 3449   8.660   3.663   4.851 -0.0566 -0.0031  0.0261
  257POPC   C1A 3450   8.672   4.293   5.097  0.2009 -0.0291 -0.2832
  257POPC   D2A 3451   8.728   4.651   5.253 -0.0565 -0.1595  0.0763
  257POPC   C3A 3452   8.660   4.667   5.733  0.0733  0.0335 -0.3961
  257POPC   C4A 3453   8.738   4.964   5.996  0.1626 -0.0310 -0.0248
  257POPC   C1B 3454   8.419   3.744   5.220  0.0948  0.1106 -0.0958
  257POPC   C2B 3455   8.332   3.706   5.684 -0.1561  0.2375 -0.4136
  257POPC   C3B 3456   8.399   3.870   6.126  0.0315 -0.2855 -0.0538
  257POPC   C4B 3457   7.999   4.026   6.441 -0.0980  0.0178 -0.0735
  258POPC   NC3 3458   8.312   3.162   4.242  0.0639 -0.1516  0.0986
  258POPC   PO4 3459   7.932   3.435   4.401 -0.0160 -0.2124  0.1376
  258POPC   GL1 3460   8.158   3.532   4.831 -0.0825 -0.3429 -0.3116
  258POPC   GL2 3461   8.337   3.262   5.035 -0.0257  0.0129 -0.3267
  258POPC   C1A 3462   7.947   3.545   5.276 -0.2833 -0.1034 -0.1358
  258POPC   D2A 3463   7.626   3.576   5.531 -0.1004 -0.0779 -0.1909
  258POPC   C3A 3464   7.413   3.870   5.447 -0.1819  0.1237  0.0661
  258POPC   C4A 3465   7.283   4.279   5.349  0.1436 -0.1818  0.1525
  258POPC   C1B 3466   8.317   3.269   5.456  0.0349 -0.1475 -0.0489
  258POPC   C2B 3467   7.975   3.244   5.727 -0.0260 -0.1291 -0.3886
  258POPC   C3B 3468   7.790   3.058   6.183 -0.0993  0.2324  0.1843
  258POPC   C4B 3469   7.974   2.721   6.473 -0.2757 -0.1494  0.3113
  259POPC   NC3 3470   3.031   1.309   4.614 -0.1221 -0.1643  0.2848
  259POPC   PO4 3471   3.308   0.960   4.548 -0.1947  0.0306  0.0743
  259POPC   GL1 3472   3.361   0.675   4.912  0.1143  0.2667 -0.1182
  259POPC   GL2 3473   3.153   0.472   4.956  0.1153  0.0586 -0.1387
  259POPC   C1A 3474   3.228   0.676   5.390  0.1711  0.0949 -0.2093
  259POPC   D2A 3475   3.184   0.910   5.739  0.2806 -0.1545  0.0222
  259POPC   C3A 3476   2.829   0.926   6.132 -0.1319 -0.3362 -0.1049
  259POPC   C4A 3477   2.514   0.934   6.494 -0.2279  0.1015  0.0306
  259POPC   C1B 3478   3.129   0.031   5.311 -0.0602  0.0990 -0.1845
  259POPC   C2B 3479   2.950  -0.192   5.647 -0.3205 -0.4698  0.0984
  259POPC   C3B 3480   2.654  -0.056   5.956 -0.0495  0.1976 -0.1775
  259POPC   C4B 3481   2.364  -0.312   6.231 -0.0622  0.2907 -0.1143
  260POPC   NC3 3482   3.425   5.467   4.540  0.3052 -0.2649  0.0043
  260POPC   PO4 3483   3.547   5.072   4.675 -0.2235  0.1795 -0.2943
  260POPC   GL1 3484   3.952   5.185   4.872  0.1187 -0.1757 -0.2199
  260POPC   GL2 3485   4.066   4.935   4.913 -0.2030 -0.0251  0.1809
  260POPC   C1A 3486   4.002   5.634   5.058 -0.0831 -0.0030 -0.0521
  260POPC   D2A 3487   3.880   5.712   5.439  0.1831 -0.0505  0.3559
  260POPC   C3A 3488   3.584   6.068   5.409  0.2619 -0.0110 -0.0558
  260POPC   C4A 3489   3.499   6.303   5.666  0.0429 -0.1452  0.0431
  260POPC   C1B 3490   4.433   5.090   5.130  0.3324 -0.1191  0.0774
  260POPC   C2B 3491   4.341   5.348   5.490  0.0156 -0.3677 -0.1482
  260POPC   C3B 3492   4.431   5.790   5.757 -0.1646  0.0719 -0.3231
  260POPC   C4B 3493   4.467   5.975   6.146  0.0229  0.1481  0.1937
  261POPC   NC3 3494   5.882   5.275   4.248  0.3608 -0.0352 -0.0647
  261POPC   PO4 3495   5.648   4.849   4.201  0.2422  0.1423 -0.1519
  261POPC   GL1 3496   5.616   5.123   4.687 -0.1910 -0.0125 -0.0448
  261POPC   GL2 3497   5.363   5.123   4.758 -0.2293 -0.1655 -0.2098
  261POPC   C1A 3498   5.598   5.402   5.140 -0.1557  0.0268  0.3193
  261POPC   D2A 3499   5.193   5.492   5.232  0.4375 -0.1273 -0.0702
  261POPC   C3A 3500   4.892   5.046   5.194 -0.0791  0.1915 -0.0537
  261POPC   C4A 3501   5.026   4.640   5.039  0.0393  0.2192 -0.1409
  261POPC   C1B 3502   5.362   4.959   5.256 -0.3382  0.1927  0.1295
  261POPC   C2B 3503   5.659   5.106   5.629  0.1800  0.0114 -0.0907
  261POPC   C3B 3504   5.878   5.388   5.976 -0.2728  0.0460 -0.0813
  261POPC   C4B 3505   5.912   5.710   6.141 -0.0830  0.1956  0.1304
  262POPC   NC3 3506   0.858   7.055   4.361  0.0916 -0.0281 -0.0694
  262POPC   PO4 3507   1.250   6.977   4.461 -0.1692 -0.1540  0.3929
  262POPC   GL1 3508   1.019   6.798   4.779 -0.2266 -0.2304 -0.0723
  262POPC   GL2 3509   1.217   6.919   4.995  0.3173  0.0877 -0.1785
  262POPC   C1A 3510   0.923   6.509   5.016 -0.1122  0.0518  0.1388
  262POPC   D2A 3511   0.789   6.356   5.418  0.0560  0.0955 -0.2140
  262POPC   C3A 3512   1.030   6.710   5.744 -0.0649  0.3226  0.1953
  262POPC   C4A 3513   0.830   6.996   6.188 -0.1817  0.2175 -0.0203
  262POPC   C1B 3514   1.278   6.708   5.334 -0.1049 -0.2472 -0.0257
  262POPC   C2B 3515   1.746   6.667   5.539  0.0800 -0.2588  0.1790
  262POPC   C3B 3516   1.986   6.773   5.795 -0.0145  0.1011 -0.0075
  262POPC   C4B 3517   2.353   6.536   5.887 -0.0077 -0.1736  0.1109
  263POPC   NC3 3518   3.538   7.049   3.468 -0.2063  0.2222 -0.1408
  263POPC   PO4 3519   3.618   7.271   3.977 -0.0049  0.0328  0.6022
  263POPC   GL1 3520   3.384   7.376   4.331  0.0987  0.2760 -0.0977
  263POPC   GL2 3521   3.086   7.562   4.256  0.0859 -0.0073  0.2642
  263POPC   C1A 3522   3.482   7.307   4.761 -0.1571  0.2182 -0.0418
  263POPC   D2A 3523   3.820   7.175   5.050  0.0494 -0.1311  0.3335
  263POPC   C3A 3524   3.865   7.466   5.463  0.2337  0.1538  0.1512
  263POPC   C4A 3525   4.292   7.719   5.570 -0.0581  0.3379  0.2206
  263POPC   C1B 3526   2.982   7.300   4.622  0.1284 -0.2186  0.1061
  263POPC   C2B 3527   2.978   7.148   4.973 -0.0671  0.1755  0.1939
  263POPC   C3B 3528   2.835   7.187   5.489  0.1187 -0.2980  0.0856
  263POPC   C4B 3529   2.539   7.000   5.761 -0.1708 -0.3115 -0.0832
  264POPC   NC3 3530   7.846   9.214   4.025 -0.1150 -0.0425  0.0647
  264POPC   PO4 3531   8.206   9.087   4.251 -0.0838  0.0563  0.1142
  264POPC   GL1 3532   8.407   9.356   4.678 -0.4323 -0.3280  0.1608
  264POPC   GL2 3533   8.309   9.071   4.792 -0.0633  0.0830 -0.2150
  264POPC   C1A 3534   8.325   9.387   5.218 -0.0115  0.0957 -0.2124
  264POPC   D2A 3535   8.493   9.259   5.498  0.3032 -0.4507  0.0435
  264POPC   C3A 3536   8.442   9.249   5.913 -0.2683 -0.0011  0.1702
  264POPC   C4A 3537   8.554   9.465   6.289 -0.0004  0.0164 -0.2409
  264POPC   C1B 3538   8.764   9.101   5.049  0.2307 -0.1304  0.2961
  264POPC   C2B 3539   8.979   9.152   5.493 -0.3278  0.1888  0.1636
  264POPC   C3B 3540   8.897   9.032   5.991 -0.0180 -0.1060 -0.2678
  264POPC   C4B 3541   8.757   8.893   6.383 -0.2207 -0.4657  0.2643
  265POPC   NC3 3542   0.019   8.714   4.309 -0.0863  0.1602 -0.1503
  265POPC   PO4 3543   0.364   8.414   4.352  0.0946  0.0443  0.2025
  265POPC   GL1 3544   0.291   8.263   4.776  0.2062  0.0413 -0.1329
  265POPC   GL2 3545   0.438   8.101   5.075 -0.0258  0.0182 -0.1840
  265POPC   C1A 3546   0.523   8.603   5.063  0.1504 -0.1569 -0.2510
  265POPC   D2A 3547   0.740   8.833   5.353 -0.2271 -0.0716  0.2896
  265POPC   C3A 3548   1.089   9.004   5.301 -0.1503 -0.1367  0.1096
  265POPC   C4A 3549   1.468   9.002   5.539 -0.1054  0.3360 -0.1380
  265POPC   C1B 3550   0.159   8.328   5.295 -0.1530  0.1812 -0.2744
  265POPC   C2B 3551  -0.016   8.576   5.432  0.0475 -0.0400  0.0849
  265POPC   C3B 3552  -0.192   8.823   5.781 -0.0436  0.0872 -0.2612
  265POPC   C4B 3553  -0.367   8.913   6.221  0.0594  0.0944  0.3152
  266POPC   NC3 3554   4.386   9.520   3.481  0.0086 -0.1728 -0.3769
  266POPC   PO4 3555   4.404   9.036   3.410 -0.0448 -0.0872 -0.1730
  266POPC   GL1 3556   4.287   8.733   3.667 -0.0158  0.0198  0.3716
  266POPC   GL2 3557   4.583   8.717   3.728 -0.0870 -0.1865 -0.1743
  266POPC   C1A 3558   4.199   8.435   3.981 -0.0756  0.1262 -0.1505
  266POPC   D2A 3559   4.038   8.278   4.354  0.0682  0.5887 -0.1890
  266POPC   C3A 3560   4.305   8.251   4.756 -0.0352  0.1055 -0.0459
  266POPC   C4A 3561   4.536   8.528   5.011  0.1243 -0.1786  0.0216
  266POPC   C1B 3562   4.842   8.793   4.025 -0.0426  0.4444 -0.1014
  266POPC   C2B 3563   4.877   9.179   4.240 -0.0187  0.1247 -0.0118
  266POPC   C3B 3564   5.140   9.368   4.690  0.4537 -0.0867 -0.1937
  266POPC   C4B 3565   5.521   9.419   4.881 -0.0335  0.1609  0.2239
  267POPC   NC3 3566   4.588   4.140   3.936 -0.3174 -0.1704 -0.0580
  267POPC   PO4 3567   4.436   4.129   4.346  0.3016  0.2604  0.3154
  267POPC   GL1 3568   4.459   4.157   4.779  0.2214  0.1993  0.1104
  267POPC   GL2 3569   4.738   3.962   4.938  0.2520 -0.2019  0.0149
  267POPC   C1A 3570   4.436   4.472   5.174  0.0773 -0.0080  0.0591
  267POPC   D2A 3571   4.732   4.604   5.520 -0.0402  0.3867  0.3692
  267POPC   C3A 3572   5.079   4.467   5.561 -0.4546  0.1094 -0.2166
  267POPC   C4A 3573   5.325   4.172   5.349  0.2907  0.4113  0.1837
  267POPC   C1B 3574   4.730   4.133   5.346  0.0910 -0.1863 -0.0190
  267POPC   C2B 3575   4.701   4.153   5.791  0.0880  0.0598  0.3750
  267POPC   C3B 3576   4.817   4.534   6.008  0.1900 -0.2030  0.3309
  267POPC   C4B 3577   4.943   4.944   6.101 -0.0713  0.0038  0.2284
  268POPC   NC3 3578   6.132   3.449   3.801  0.1013 -0.0380  0.0652
  268POPC   PO4 3579   6.070   3.768   3.915 -0.1639 -0.0961 -0.1134
  268POPC   GL1 3580   6.141   3.603   4.345  0.1530  0.0982  0.0616
  268POPC   GL2 3581   5.998   3.618   4.585 -0.3733 -0.2090 -0.0131
  268POPC   C1A 3582   6.530   3.661   4.647  0.1183 -0.1001 -0.1909
  268POPC   D2A 3583   6.606   3.689   5.072  0.0206 -0.0114  0.0800
  268POPC   C3A 3584   6.599   3.265   5.334 -0.5119  0.2686  0.0501
  268POPC   C4A 3585   6.792   2.890   5.513 -0.0544 -0.0520  0.0163
  268POPC   C1B 3586   5.791   3.555   4.964  0.1673  0.0099 -0.2404
  268POPC   C2B 3587   5.670   3.785   5.402 -0.3121  0.2817 -0.1144
  268POPC   C3B 3588   5.519   3.910   5.773  0.1087 -0.1971  0.3133
  268POPC   C4B 3589   5.124   3.936   5.901 -0.0095  0.2374 -0.1002
  269POPC   NC3 3590   9.384   5.632   4.136 -0.1177 -0.1087  0.0351
  269POPC   PO4 3591   9.803   5.479   4.395  0.1542 -0.2667  0.0762
  269POPC   GL1 3592   9.854   5.507   4.878  0.0225  0.0929  0.0724
  269POPC   GL2 3593   9.694   5.758   4.910  0.0412  0.0384 -0.1007
  269POPC   C1A 3594   9.888   5.597   5.368  0.1059 -0.1498 -0.0059
  269POPC   D2A 3595   9.803   5.907   5.753 -0.2233 -0.0260  0.0521
  269POPC   C3A 3596  10.079   6.302   5.780  0.0469  0.1457  0.1272
  269POPC   C4A 3597  10.197   6.801   5.774  0.2013  0.3466  0.0807
  269POPC   C1B 3598   9.426   5.797   5.271  0.0009  0.2323 -0.1649
  269POPC   C2B 3599   9.238   6.060   5.539 -0.5289 -0.1110  0.2042
  269POPC   C3B 3600   9.054   6.466   5.665  0.0341 -0.1024 -0.1609
  269POPC   C4B 3601   8.927   6.821   6.082 -0.2314  0.1135 -0.1078
  270POPC   NC3 3602   6.009   4.547   4.469  0.0769  0.2155  0.1714
  270POPC   PO4 3603   6.204   4.138   4.390  0.0983 -0.0341  0.1527
  270POPC   GL1 3604   6.104   4.151   4.767 -0.1092 -0.1913  0.1524
  270POPC   GL2 3605   5.748   4.129   4.763 -0.0512  0.1181  0.2367
  270POPC   C1A 3606   6.147   3.869   4.995  0.1087  0.0803  0.2238
  270POPC   D2A 3607   6.142   3.537   5.349 -0.0791 -0.0539 -0.0930
  270POPC   C3A 3608   5.937   3.587   5.810  0.0335  0.0568  0.2434
  270POPC   C4A 3609   5.761   3.763   6.212 -0.1970  0.2311  0.1623
  270POPC   C1B 3610   5.782   4.243   5.188 -0.2951 -0.0172  0.0353
  270POPC   C2B 3611   5.896   4.133   5.655  0.0080 -0.1119  0.0742
  270POPC   C3B 3612   6.158   4.061   6.060  0.1825 -0.0913  0.0841
  270POPC   C4B 3613   6.381   3.722   6.187  0.0546  0.0047 -0.0575
  271POPC   NC3 3614   3.110   4.461   4.732 -0.3338  0.1890 -0.1057
  271POPC   PO4 3615   2.866   4.178   4.899 -0.1057  0.3194 -0.0065
  271POPC   GL1 3616   3.166   4.361   5.313 -0.2535 -0.1136 -0.1665
  271POPC   GL2 3617   3.601   4.389   5.382  0.4286 -0.0718 -0.1384
  271POPC   C1A 3618   3.054   4.572   5.725  0.0198  0.0206  0.1261
  271POPC   D2A 3619   2.740   4.562   6.105 -0.0243 -0.0782 -0.0348
  271POPC   C3A 3620   3.093   4.440   6.329  0.0260  0.1321  0.0356
  271POPC   C4A 3621   3.472   4.343   6.575 -0.0836  0.0063 -0.2372
  271POPC   C1B 3622   3.844   4.703   5.434  0.3216 -0.0490 -0.1108
  271POPC   C2B 3623   4.213   4.827   5.518  0.1282  0.1817 -0.3347
  271POPC   C3B 3624   4.649   5.039   5.660 -0.1052  0.1695  0.0430
  271POPC   C4B 3625   5.153   5.003   5.679  0.2860 -0.0537 -0.3002
  272POPC   NC3 3626   6.027   0.763   3.122 -0.0965  0.1004 -0.0779
  272POPC   PO4 3627   5.930   0.541   3.418  0.1222  0.0554 -0.0428
  272POPC   GL1 3628   6.152   0.595   3.875  0.3894 -0.1857  0.0275
  272POPC   GL2 3629   6.232   0.901   3.985  0.2348  0.2407 -0.3577
  272POPC   C1A 3630   6.001   0.591   4.324  0.1103  0.1797 -0.0626
  272POPC   D2A 3631   6.060   0.452   4.678  0.0124 -0.0309 -0.0469
  272POPC   C3A 3632   6.377   0.114   4.841 -0.1096  0.1206 -0.1176
  272POPC   C4A 3633   6.796   0.115   4.920 -0.1058 -0.0563  0.1774
  272POPC   C1B 3634   6.360   0.979   4.505 -0.1046 -0.0961 -0.1155
  272POPC   C2B 3635   6.322   0.914   4.935 -0.0214 -0.0764 -0.0267
  272POPC   C3B 3636   6.399   0.883   5.312  0.1205  0.1649  0.1311
  272POPC   C4B 3637   6.411   0.809   5.768  0.0382  0.0900  0.3723
  273POPC   NC3 3638   1.449   5.179   4.456 -0.0141 -0.2665  0.0937
  273POPC   PO4 3639   1.856   5.183   4.542 -0.2419  0.1947 -0.1027
  273POPC   GL1 3640   2.027   5.261   4.889  0.1928 -0.0814 -0.0486
  273POPC   GL2 3641   2.073   4.910   4.910 -0.1005 -0.2012  0.1936
  273POPC   C1A 3642   1.898   5.233   5.313 -0.0247 -0.0568 -0.1458
  273POPC   D2A 3643   1.547   4.997   5.510 -0.0952  0.0694  0.1155
  273POPC   C3A 3644   1.283   4.713   5.363  0.0606  0.2279  0.1381
  273POPC   C4A 3645   0.860   4.596   5.651 -0.0068  0.5520 -0.1427
  273POPC   C1B 3646   1.972   4.745   5.313  0.0958  0.0111  0.2990
  273POPC   C2B 3647   2.073   4.867   5.705 -0.0658  0.2106  0.4183
  273POPC   C3B 3648   2.271   4.804   6.149 -0.0608  0.1872 -0.0735
  273POPC   C4B 3649   2.547   4.826   6.452 -0.0393  0.0152  0.1933
  274POPC   NC3 3650   4.020   9.630   4.092 -0.2263 -0.1481 -0.1036
  274POPC   PO4 3651   3.801   9.987   4.345 -0.3072 -0.1254  0.0333
  274POPC   GL1 3652   3.940  10.242   4.736 -0.1822 -0.0597  0.2986
  274POPC   GL2 3653   3.803  10.566   4.885  0.0179  0.1239 -0.0561
  274POPC   C1A 3654   4.355  10.123   4.991 -0.0395 -0.3202  0.0879
  274POPC   D2A 3655   4.601  10.168   5.335  0.0027 -0.0808 -0.2160
  274POPC   C3A 3656   4.516  10.212   5.751  0.1325 -0.1049 -0.3044
  274POPC   C4A 3657   4.557  10.517   6.118  0.0256  0.1070 -0.1638
  274POPC   C1B 3658   3.976  10.398   5.247 -0.2062 -0.0600 -0.1945
  274POPC   C2B 3659   4.104  10.129   5.450  0.2178  0.2020 -0.3363
  274POPC   C3B 3660   4.029   9.983   5.839  0.1748  0.2556  0.1534
  274POPC   C4B 3661   4.247   9.899   6.186  0.1571  0.0835  0.1420
  275POPC   NC3 3662   9.444   1.139   4.111 -0.0132  0.2090  0.0543
  275POPC   PO4 3663   9.125   0.892   4.093 -0.1240  0.0179  0.1435
  275POPC   GL1 3664   8.868   0.914   4.469 -0.2316  0.3485  0.0054
  275POPC   GL2 3665   8.588   1.073   4.472  0.2737 -0.0246 -0.1655
  275POPC   C1A 3666   8.629   0.660   4.821  0.2547 -0.1497 -0.0746
  275POPC   D2A 3667   8.721   0.586   5.246  0.2980 -0.0499  0.1468
  275POPC   C3A 3668   8.530   0.837   5.535 -0.1726  0.1362  0.1834
  275POPC   C4A 3669   8.444   1.305   5.608  0.3043 -0.3190 -0.0608
  275POPC   C1B 3670   8.329   1.028   4.888  0.2640  0.2123  0.0485
  275POPC   C2B 3671   8.131   0.994   5.313  0.1123  0.1060 -0.0860
  275POPC   C3B 3672   7.963   0.795   5.658 -0.2309 -0.0560  0.2997
  275POPC   C4B 3673   7.803   0.779   5.971  0.1243  0.2359 -0.0365
  276POPC   NC3 3674   1.285   8.379   4.194  0.0804  0.0180  0.1091
  276POPC   PO4 3675   1.253   8.314   4.630  0.2012  0.6218  0.0026
  276POPC   GL1 3676   1.243   8.612   4.826 -0.0665 -0.1704 -0.0099
  276POPC   GL2 3677   1.452   8.614   5.159 -0.0027 -0.2556 -0.2256
  276POPC   C1A 3678   0.839   8.940   4.816 -0.0225 -0.1188 -0.1777
  276POPC   D2A 3679   0.402   9.125   5.038 -0.0059  0.1603 -0.0760
  276POPC   C3A 3680   0.288   8.956   5.409  0.1090 -0.1573  0.2551
  276POPC   C4A 3681   0.304   9.057   5.748 -0.1337 -0.1682 -0.2670
  276POPC   C1B 3682   1.130   8.580   5.573  0.2981 -0.0547 -0.0689
  276POPC   C2B 3683   1.356   8.520   5.981 -0.2370  0.1539  0.0075
  276POPC   C3B 3684   1.350   8.481   6.363 -0.2658  0.1019  0.1719
  276POPC   C4B 3685   1.567   8.739   6.753 -0.0659  0.2613 -0.3258
  277POPC   NC3 3686   2.002   0.971   4.513  0.3855 -0.1541  0.0758
  277POPC   PO4 3687   1.724   1.356   4.544 -0.3236  0.3419 -0.3144
  277POPC   GL1 3688   1.463   1.200   4.904  0.0134  0.3062 -0.0565
  277POPC   GL2 3689   1.748   1.090   5.075 -0.3518  0.3064 -0.0765
  277POPC   C1A 3690   1.424   1.175   5.423 -0.2349  0.1947 -0.1709
  277POPC   D2A 3691   1.458   0.973   5.848  0.3860 -0.0186 -0.1872
  277POPC   C3A 3692   1.821   0.978   6.161 -0.2032  0.1305  0.1082
  277POPC   C4A 3693   1.918   0.825   6.610  0.1013  0.1068  0.0361
  277POPC   C1B 3694   1.939   0.794   5.270  0.1734  0.0974  0.4538
  277POPC   C2B 3695   1.995   0.335   5.377 -0.0502  0.0642  0.1802
  277POPC   C3B 3696   2.161   0.017   5.630  0.0913 -0.1377 -0.3457
  277POPC   C4B 3697   2.266  -0.457   5.766 -0.1630  0.1715 -0.1362
  278POPC   NC3 3698   2.366   8.066   3.876  0.0700  0.1799 -0.1512
  278POPC   PO4 3699   2.508   7.780   4.063  0.2457 -0.0373 -0.0579
  278POPC   GL1 3700   2.660   7.720   4.503  0.1163  0.0810 -0.0625
  278POPC   GL2 3701   2.885   7.901   4.644  0.2292 -0.3765 -0.2473
  278POPC   C1A 3702   2.581   7.584   4.937  0.0103 -0.0472 -0.0213
  278POPC   D2A 3703   2.829   7.665   5.361 -0.1714  0.1986  0.0808
  278POPC   C3A 3704   3.142   7.577   5.707  0.1178  0.2443  0.0953
  278POPC   C4A 3705   3.564   7.657   5.851  0.0304  0.1361 -0.1819
  278POPC   C1B 3706   3.231   7.713   4.715 -0.1222 -0.0822  0.1667
  278POPC   C2B 3707   3.302   7.472   5.203 -0.2008 -0.3645  0.2094
  278POPC   C3B 3708   3.321   7.211   5.419  0.0901 -0.2786 -0.1493
  278POPC   C4B 3709   3.487   7.091   5.736  0.2244  0.0857 -0.1895
  279POPC   NC3 3710   7.074   5.127   3.940 -0.1239 -0.3758 -0.1028
  279POPC   PO4 3711   7.369   5.170   4.143  0.5239 -0.0794  0.1110
  279POPC   GL1 3712   7.420   5.193   4.597  0.0969  0.1822  0.3572
  279POPC   GL2 3713   7.450   4.950   4.634 -0.1510  0.2166 -0.2979
  279POPC   C1A 3714   7.477   5.354   4.933 -0.2784 -0.1683 -0.1098
  279POPC   D2A 3715   7.713   5.314   5.340 -0.3721  0.1709  0.2001
  279POPC   C3A 3716   7.759   5.420   5.818  0.0143  0.0794  0.0400
  279POPC   C4A 3717   7.879   5.773   6.134 -0.0584  0.1213 -0.1290
  279POPC   C1B 3718   7.540   4.872   5.150 -0.0650  0.0143  0.0561
  279POPC   C2B 3719   7.766   4.898   5.621 -0.0657 -0.3806  0.2425
  279POPC   C3B 3720   7.845   4.854   6.049 -0.2253  0.1083 -0.0915
  279POPC   C4B 3721   8.275   4.839   6.113 -0.1963 -0.2444 -0.1346
  280POPC   NC3 3722   2.928   4.900   4.552 -0.2620  0.0644 -0.2089
  280POPC   PO4 3723   2.941   5.309   4.700 -0.2770 -0.4727 -0.1370
  280POPC   GL1 3724   3.240   5.258   5.043  0.0002  0.1204 -0.4844
  280POPC   GL2 3725   3.481   5.510   5.011 -0.2132 -0.0288  0.1214
  280POPC   C1A 3726   3.441   5.495   5.472 -0.1756 -0.3498  0.1634
  280POPC   D2A 3727   3.488   5.694   5.873 -0.0414  0.1585 -0.0287
  280POPC   C3A 3728   3.686   5.897   6.166 -0.1430 -0.0017  0.1902
  280POPC   C4A 3729   3.814   6.311   6.068  0.1269 -0.1294  0.2867
  280POPC   C1B 3730   3.856   5.222   5.320  0.0985  0.0350 -0.0010
  280POPC   C2B 3731   3.895   5.382   5.790 -0.2363 -0.0307 -0.0245
  280POPC   C3B 3732   4.120   5.605   6.191  0.1017 -0.0767  0.1204
  280POPC   C4B 3733   4.082   5.639   6.600 -0.0886 -0.1199  0.3188
  281POPC   NC3 3734   1.217   1.221   4.366 -0.1673  0.3072  0.0136
  281POPC   PO4 3735   0.812   1.085   4.181  0.1959 -0.1436 -0.5385
  281POPC   GL1 3736   0.675   1.155   4.597 -0.2841 -0.1805  0.0945
  281POPC   GL2 3737   0.935   1.275   4.856  0.0825  0.1686  0.4408
  281POPC   C1A 3738   0.469   1.029   4.983  0.3559 -0.0705  0.1683
  281POPC   D2A 3739   0.531   1.025   5.423  0.0845  0.0256  0.4482
  281POPC   C3A 3740   0.333   1.038   5.742  0.3314  0.0975 -0.2032
  281POPC   C4A 3741  -0.049   1.219   5.820 -0.1059  0.3189 -0.1963
  281POPC   C1B 3742   0.987   0.958   5.131  0.1411  0.0603 -0.0774
  281POPC   C2B 3743   0.997   0.858   5.628  0.0373 -0.0965  0.0568
  281POPC   C3B 3744   0.775   0.859   5.979  0.1602 -0.0579 -0.0400
  281POPC   C4B 3745   0.376   1.206   6.228 -0.1120 -0.0774 -0.1475
  282POPC   NC3 3746   0.537   9.565   3.811 -0.1911 -0.1900 -0.4931
  282POPC   PO4 3747   0.772   9.700   4.122 -0.0726  0.2204 -0.1082
  282POPC   GL1 3748   0.536   9.493   4.525  0.2069  0.0562 -0.3199
  282POPC   GL2 3749   0.710   9.389   4.734 -0.2680 -0.1944  0.0033
  282POPC   C1A 3750   0.312   9.629   4.842  0.3963  0.1594  0.1883
  282POPC   D2A 3751  -0.096   9.647   5.128  0.0508  0.2195 -0.0194
  282POPC   C3A 3752   0.133   9.911   5.532  0.2830 -0.0045 -0.1580
  282POPC   C4A 3753   0.373  10.263   5.631 -0.2332  0.0513 -0.2714
  282POPC   C1B 3754   0.739   9.539   5.093  0.0748 -0.1583 -0.1393
  282POPC   C2B 3755   0.445   9.457   5.401 -0.1670 -0.1266 -0.1702
  282POPC   C3B 3756   0.262   9.511   5.943  0.0405  0.1789  0.0467
  282POPC   C4B 3757   0.160   9.885   6.221  0.1936 -0.5397 -0.1526
  283POPC   NC3 3758   2.451   3.952   4.772 -0.0723 -0.1548  0.4991
  283POPC   PO4 3759   2.626   3.516   4.735  0.1670 -0.3237 -0.1285
  283POPC   GL1 3760   2.753   3.692   5.174  0.0691  0.0597  0.1264
  283POPC   GL2 3761   2.812   3.980   5.363 -0.0412  0.1516  0.1003
  283POPC   C1A 3762   2.772   3.708   5.725 -0.0457  0.2017 -0.0901
  283POPC   D2A 3763   2.845   3.946   6.070 -0.2446  0.1790 -0.0756
  283POPC   C3A 3764   3.111   3.867   6.407 -0.0837 -0.1769  0.1761
  283POPC   C4A 3765   3.088   3.630   6.794 -0.2053  0.0258  0.2095
  283POPC   C1B 3766   2.553   4.219   5.698 -0.2553 -0.0073 -0.1665
  283POPC   C2B 3767   2.231   4.434   5.798 -0.0361  0.1785  0.0476
  283POPC   C3B 3768   1.804   4.450   5.677  0.2102 -0.2013  0.3091
  283POPC   C4B 3769   1.418   4.584   5.865  0.0016 -0.0232  0.1388
  284POPC   NC3 3770   0.067   7.433   4.033  0.0708  0.2956  0.0007
  284POPC   PO4 3771   0.112   7.511   4.449 -0.1270 -0.0718  0.1456
  284POPC   GL1 3772   0.110   7.487   4.904  0.1628 -0.2924  0.3441
  284POPC   GL2 3773   0.034   7.190   5.174  0.0767 -0.0598 -0.0715
  284POPC   C1A 3774   0.135   7.699   5.203 -0.0895  0.0848  0.1801
  284POPC   D2A 3775   0.161   7.728   5.745  0.2889  0.1822 -0.1013
  284POPC   C3A 3776   0.160   8.001   5.941  0.1008  0.3205  0.1167
  284POPC   C4A 3777   0.492   8.229   6.094 -0.1886  0.0116  0.0880
  284POPC   C1B 3778   0.403   7.328   5.247 -0.0337  0.0092  0.1265
  284POPC   C2B 3779   0.610   7.614   5.418  0.1936  0.3410  0.0169
  284POPC   C3B 3780   0.701   7.830   5.910 -0.1882 -0.1175 -0.0847
  284POPC   C4B 3781   1.016   8.242   5.902  0.1274  0.0371  0.2788
  285POPC   NC3 3782   1.351   2.164   4.724  0.0301 -0.1966  0.0806
  285POPC   PO4 3783   0.933   2.023   4.706 -0.0147  0.1888 -0.0008
  285POPC   GL1 3784   0.896   2.218   5.075  0.1191  0.1056 -0.1128
  285POPC   GL2 3785   1.039   2.076   5.329  0.2733  0.0037  0.3685
  285POPC   C1A 3786   0.735   2.383   5.519 -0.4121 -0.2112 -0.3076
  285POPC   D2A 3787   0.328   2.539   5.734  0.3090 -0.2183  0.0891
  285POPC   C3A 3788   0.348   2.782   6.094 -0.0590 -0.0447 -0.1222
  285POPC   C4A 3789   0.232   3.103   6.470 -0.0563  0.3530 -0.1525
  285POPC   C1B 3790   0.849   1.761   5.560  0.0001 -0.2324 -0.0911
  285POPC   C2B 3791   0.928   1.356   5.735 -0.0502 -0.3054  0.1471
  285POPC   C3B 3792   0.950   1.312   6.185  0.1799  0.0029  0.1242
  285POPC   C4B 3793   1.239   1.153   6.393  0.0206 -0.1147  0.0949
  286POPC   NC3 3794   1.298   3.883   4.447  0.0610  0.0643 -0.1906
  286POPC   PO4 3795   1.089   3.417   4.265  0.0706  0.1109  0.2695
  286POPC   GL1 3796   0.919   3.494   4.805 -0.1714 -0.0236  0.0131
  286POPC   GL2 3797   1.217   3.592   4.937  0.3397 -0.2190 -0.1793
  286POPC   C1A 3798   0.822   3.363   5.222 -0.2499  0.1579 -0.2577
  286POPC   D2A 3799   0.550   3.392   5.624 -0.2391 -0.0010 -0.0255
  286POPC   C3A 3800   0.605   3.165   5.971  0.0999 -0.0042 -0.0225
  286POPC   C4A 3801   0.901   2.822   6.066 -0.1983  0.2868  0.2690
  286POPC   C1B 3802   1.361   3.628   5.407 -0.1940  0.2745 -0.1761
  286POPC   C2B 3803   1.744   3.744   5.631 -0.3121  0.0334  0.0596
  286POPC   C3B 3804   1.856   4.016   5.960  0.0199  0.0477 -0.0974
  286POPC   C4B 3805   1.917   4.358   6.203 -0.0189  0.1847  0.0817
  287W        W 3806   9.450   7.033  11.392 -0.0355  0.1965 -0.2246
  288W        W 3807   5.709   4.411  10.124 -0.2372  0.1248  0.3094
  289W        W 3808   5.174   6.027   0.595 -0.0867 -0.1573  0.0766
  290W        W 3809   6.634   2.435   1.858 -0.3381 -0.1506 -0.2036
  291W        W 3810   7.944   8.080   0.023  0.1883 -0.1860 -0.0962
  292W        W 3811   7.981   0.442  12.205  0.0609 -0.1112 -0.0233
  293W        W 3812   0.807   6.552  10.319 -0.0235 -0.1304 -0.0660
  294W        W 3813   4.000   0.141   9.564  0.0447  0.0528  0.1618
  295W        W 3814   9.038   8.284   9.993 -0.0289 -0.0484  0.4730
  296W        W 3815   7.520   7.352   3.439 -0.0616  0.2580  0.0965
  297W        W 3816   3.403   6.254  11.929  0.0132 -0.0602  0.4336
  298W        W 3817   3.942   5.047   1.755  0.0393 -0.0948 -0.0195
  299W        W 3818   0.264   2.803  10.514 -0.3324  0.2029  0.3035
  300W        W 3819   9.593   5.645   2.504  0.1829 -0.5538 -0.0549
  301W        W 3820   1.928   3.136   1.989  0.3631  0.0074 -0.2382
  302W        W 3821   8.720   5.584   1.011 -0.1293 -0.1956 -0.1620
  303W        W 3822   5.169   1.348   3.278 -0.0697  0.3280  0.1662
  304W        W 3823   6.216   4.748  10.493 -0.0431  0.0859 -0.1546
  305W        W 3824   2.042   1.209   9.821  0.0209  0.2282 -0.1475
  306W        W 3825   7.080   5.736   1.829  0.1770  0.1451  0.0095
  307W        W 3826   8.115   6.187   8.538  0.0841 -0.0621  0.1802
  308W        W 3827   6.622   4.751  12.458 -0.1486  0.1676 -0.1670
  309W        W 3828   3.149   8.249   0.996 -0.1529  0.0755  0.1526
  310W        W 3829   5.060   5.702   4.547 -0.0884 -0.0167 -0.1335
  311W        W 3830   5.876   5.923  10.486 -0.0162  0.3695  0.2385
  312W        W 3831   4.492   8.669  11.806  0.2099  0.0872  0.1434
  313W        W 3832   3.357   9.183  11.860 -0.3187  0.0232  0.0785
  314W        W 3833   6.969   5.246   1.636  0.2698  0.0005 -0.2598
  315W        W 3834   8.859   1.469   2.533 -0.2105 -0.1639  0.0394
  316W        W 3835   4.440   4.856   8.975  0.0417  0.1783  0.0663
  317W        W 3836   4.613   8.850   0.045  0.3906 -0.0153 -0.0129
  318W        W 3837   1.534   5.499  12.115 -0.1684  0.0951 -0.0931
  319W        W 3838   6.407   2.736   9.923 -0.1179  0.0281  0.1385
  320W        W 3839   8.370   7.930   9.066  0.2783 -0.2732  0.2759
  321W        W 3840   6.660   1.161  12.197 -0.3267 -0.1525  0.1664
  322W        W 3841   2.569   2.683   2.287  0.3369 -0.0478 -0.0948
  323W        W 3842   0.526   4.423   0.394 -0.0768  0.1174  0.1983
  324W        W 3843   8.540   1.065  12.165  0.1180 -0.0067  0.2200
  325W        W 3844   2.491   3.044  12.194 -0.1483  0.0485 -0.2854
  326W        W 3845   7.600   8.807  12.081 -0.0221 -0.0512 -0.3195
  327W        W 3846   3.220   8.740   0.889  0.1052  0.2172  0.2658
  328W        W 3847   0.856   8.811   1.089 -0.1376 -0.2593  0.1948
  329W        W 3848   1.476   1.515   9.560 -0.0355 -0.4392  0.0035
  330W        W 3849   6.174   4.457  11.448  0.0935  0.0398  0.0134
  331W        W 3850   7.918   0.109   9.550  0.1273  0.1241 -0.3015
  332W        W 3851   8.547   1.573  11.990  0.2878  0.1400  0.2360
  333W        W 3852   5.112   5.375  10.740 -0.3648 -0.1879 -0.2532
  334W        W 3853   3.074   6.652   0.996 -0.2519 -0.1468  0.3230
  335W        W 3854   9.074   1.689   9.154 -0.3424 -0.0668 -0.0716
  336W        W 3855   4.314   5.396   3.600  0.2705 -0.2190 -0.3043
  337W        W 3856   4.667   4.646   8.100 -0.0883  0.0485 -0.1265
  338W        W 3857   8.374   9.446   3.893 -0.1426  0.0093  0.1056
  339W        W 3858   8.826   0.720   3.173 -0.1146 -0.0979 -0.0192
  340W        W 3859   7.939   1.016   1.013  0.0246 -0.2462  0.0825
  341W        W 3860   7.040   8.063   9.720  0.2959  0.0515  0.2222
  342W        W 3861   7.082   6.325   9.912  0.0474  0.0628  0.1149
  343W        W 3862   5.352   6.333   8.795 -0.3533 -0.1172  0.4517
  344W        W 3863   5.727   2.796   9.346  0.0077 -0.0432  0.2299
  345W        W 3864   3.446   2.806   3.360 -0.1112 -0.1622  0.1925
  346W        W 3865   9.540   1.119   9.972 -0.0833 -0.0814 -0.0507
  347W        W 3866   4.649   4.671   9.714 -0.1701 -0.0835 -0.0556
  348W        W 3867   7.398   3.646   9.293 -0.1948 -0.3201  0.2307
  349W        W 3868   4.516   0.071   0.882 -0.1696  0.0403 -0.1438
  350W        W 3869   3.992   9.613   1.528  0.0852  0.0718  0.1994
  351W        W 3870   2.827   1.117   9.008  0.1426  0.1851  0.0418
  352W        W 3871   3.159   1.455   8.187  0.5877 -0.0503  0.2699
  353W        W 3872   6.438   2.217   3.079  0.0038 -0.1285 -0.0359
  354W        W 3873   6.380   3.713   1.020 -0.0051  0.3529  0.1114
  355W        W 3874   9.502   0.115   3.040 -0.0743  0.1017 -0.0709
  356W        W 3875   4.441   0.477  12.252 -0.0825  0.1000  0.0968
  357W        W 3876   5.631   2.143   2.199 -0.0900  0.0227 -0.4068
  358W        W 3877   0.573   3.604   1.688  0.0198  0.2206 -0.3724
  359W        W 3878   8.238   5.692   2.483 -0.0357 -0.1639  0.0649
  360W        W 3879   5.264   9.115   0.628  0.5393  0.1984 -0.0266
  361W        W 3880   0.814   2.135  10.055 -0.0952  0.1533 -0.0362
  362W        W 3881   2.839   9.251   9.733 -0.1561 -0.2003 -0.0865
  363W        W 3882   8.303   8.733   3.267 -0.0677  0.2886 -0.0081
  364W        W 3883   6.220   2.921   2.490  0.0389 -0.3573  0.0606
  365W        W 3884   9.290   3.101   1.704 -0.1328  0.0917 -0.1567
  366W        W 3885   2.603   8.956   9.327 -0.0739  0.2979  0.3101
  367W        W 3886   1.502   7.322  12.119 -0.1763 -0.1813  0.0342
  368W        W 3887   4.743   5.098  10.001 -0.0030 -0.0123  0.1031
  369W        W 3888   4.819   9.273   9.263 -0.2660  0.1565 -0.0640
  370W        W 3889   1.858   5.281   9.654 -0.3679  0.2690  0.0363
  371W        W 3890   8.114   9.103   9.935 -0.0411 -0.0749  0.1766
  372W        W 3891   2.616   5.281   2.222 -0.0557 -0.0761 -0.0467
  373W        W 3892   3.013   0.289   0.627  0.2011  0.2385  0.0270
  374W        W 3893   5.597   8.173  12.182  0.1808 -0.1160 -0.0386
  375W        W 3894   9.008   9.223  10.562 -0.2197  0.3499  0.1136
  376W        W 3895   5.053   9.283  11.113  0.1861 -0.1539 -0.0047
  377W        W 3896   2.318   3.070   4.147  0.0659 -0.0009  0.1333
  378W        W 3897   5.679   3.252  11.994  0.0064  0.2028 -0.0142
  379W        W 3898   8.258   6.566   1.591 -0.1284 -0.2816 -0.0184
  380W        W 3899   8.157   6.184   3.196 -0.0471 -0.0110 -0.2084
  381W        W 3900   0.977   2.225   8.244  0.0484  0.0841  0.2194
  382W        W 3901   4.014   1.112  11.133  0.0283 -0.0285 -0.0746
  383W        W 3902   5.842   6.492  10.498  0.3531 -0.0956 -0.1354
  384W        W 3903   8.546   3.602   8.082 -0.1638  0.2707  0.0440
  385W        W 3904   2.204   4.517  12.550  0.2675  0.3029 -0.0992
  386W        W 3905   9.549   8.467   2.583 -0.1336  0.1951  0.1671
  387W        W 3906   1.813   7.248   1.259  0.5296 -0.0530  0.1523
  388W        W 3907   6.986   2.077   8.752  0.0351  0.2602  0.0566
  389W        W 3908   4.900   4.496   0.144  0.3521 -0.4724  0.3367
  390W        W 3909   8.163   6.514  10.512 -0.0331  0.0854 -0.1306
  391W        W 3910   3.634   2.977  12.214  0.2261  0.1835 -0.1249
  392W        W 3911   0.104   8.052   1.444  0.0377  0.1046  0.1653
  393W        W 3912   6.688   2.654  11.917 -0.0711 -0.0652 -0.1169
  394W        W 3913   8.580   5.067   9.202  0.1163 -0.0800 -0.0496
  395W        W 3914   1.830   8.018  12.500  0.0708 -0.0656  0.4938
  396W        W 3915   8.672   1.947   1.495 -0.3265  0.1604 -0.0526
  397W        W 3916   7.578   9.307   1.209 -0.1047 -0.0162  0.0549
  398W        W 3917   7.834   2.512  11.788 -0.2294  0.0327  0.0996
  399W        W 3918   3.378   1.720  10.840  0.2913 -0.0427  0.0976
  400W        W 3919   4.991   2.851   4.145  0.0610 -0.3044 -0.0471
  401W        W 3920   4.827   7.837   0.976  0.0252 -0.2222 -0.1071
  402W        W 3921   1.243   3.951  10.042 -0.0325 -0.4720  0.0037
  403W        W 3922   5.013   0.177   0.917  0.0273  0.2434 -0.1588
  404W        W 3923   6.475   1.681   9.281  0.2499  0.3358 -0.1105
  405W        W 3924   1.661   7.256   8.538 -0.2716 -0.1795 -0.0475
  406W        W 3925   3.088   5.715   1.515 -0.0214  0.1453 -0.0078
  407W        W 3926   9.174   0.402  12.009  0.0814 -0.1008  0.0689
  408W        W 3927   8.332   6.550   2.259 -0.2444 -0.0591 -0.0904
  409W        W 3928   2.858   4.428   9.631 -0.1453 -0.2121 -0.0801
  410W        W 3929   3.506   4.527  11.305 -0.1190 -0.0233  0.2314
  411W        W 3930   7.206   9.173  10.288  0.3565 -0.1184 -0.0110
  412W        W 3931   9.625   8.637   9.385  0.0141 -0.2494 -0.0057
  413W        W 3932   7.155   4.535  10.873  0.3542  0.1296 -0.0543
  414W        W 3933   3.203   9.008  11.408  0.0214 -0.4140  0.0895
  415W        W 3934   4.168   8.146   2.437 -0.1678 -0.1683  0.1006
  416W        W 3935   7.137   0.605   2.634  0.0747  0.1571  0.0575
  417W        W 3936   5.836   2.531   1.284  0.0701  0.1756  0.1144
  418W        W 3937   4.469   0.582   2.822 -0.0521  0.0207  0.0866
  419W        W 3938   2.593   9.257   1.010  0.1253  0.0494 -0.2561
  420W        W 3939   6.146   3.518   3.224 -0.0541 -0.2646 -0.1145
  421W        W 3940   6.687   3.913  10.364 -0.2982  0.0233  0.2020
  422W        W 3941   3.754   0.220  11.036 -0.3317 -0.3152 -0.1393
  423W        W 3942   4.788   8.918  10.942  0.0303  0.2573  0.2424
  424W        W 3943   1.992   7.183  11.800  0.1793 -0.1081 -0.3101
  425W        W 3944   2.819   4.789   0.738  0.1323 -0.0460  0.2246
  426W        W 3945   7.690   8.969   0.295  0.2605 -0.2546  0.0931
  427W        W 3946   8.244   1.353  10.590  0.1807 -0.0703 -0.1265
  428W        W 3947   5.163   2.465   8.336  0.1074 -0.1701  0.0749
  429W        W 3948   4.318   8.816   0.434  0.0228  0.1806  0.0062
  430W        W 3949   8.777   2.119   8.734  0.0153 -0.0819 -0.0367
  431W        W 3950   3.189   2.011   9.904 -0.2881  0.1047  0.1177
  432W        W 3951   3.677   1.072   0.057 -0.0849  0.1263 -0.1312
  433W        W 3952   7.292   8.683   3.172  0.2301 -0.0386 -0.1374
  434W        W 3953   1.653   5.360   9.018 -0.2083 -0.0524  0.0532
  435W        W 3954   8.341   1.774  10.036 -0.0940  0.0222 -0.0779
  436W        W 3955   7.064   8.937   8.852 -0.1678 -0.3284  0.2187
  437W        W 3956   0.007   7.046   0.631  0.1462 -0.2051  0.3692
  438W        W 3957   7.312   8.320   1.470 -0.1058  0.2805  0.0891
  439W        W 3958   5.476   1.690   2.432 -0.2563  0.5536  0.0633
  440W        W 3959   4.150   3.855   3.660 -0.1328  0.0846 -0.0065
  441W        W 3960   2.323   0.785   9.913 -0.0900  0.3889  0.0058
  442W        W 3961   6.279   0.990  11.825  0.2186  0.0021  0.1313
  443W        W 3962   5.969   6.274  10.082  0.0676 -0.0759 -0.1691
  444W        W 3963   3.611   9.499  12.225 -0.0681  0.1251 -0.0528
  445W        W 3964   6.874   8.176  10.593 -0.0974  0.0195  0.1795
  446W        W 3965   7.143   3.325   8.480  0.2037 -0.1809 -0.0513
  447W        W 3966   0.251   1.699  11.257 -0.0657 -0.0999 -0.0634
  448W        W 3967   7.175   8.316  12.043  0.1004  0.2153 -0.0879
  449W        W 3968   9.299   9.573  10.876  0.1314 -0.1468 -0.0245
  450W        W 3969   9.342   7.854   0.186 -0.1472  0.3673 -0.1616
  451W        W 3970   4.236   3.312   3.420 -0.1031  0.0870 -0.0195
  452W        W 3971   7.895   3.622   9.235 -0.0319 -0.0323  0.2494
  453W        W 3972   7.591   0.146  12.013 -0.0412 -0.2125 -0.2866
  454W        W 3973   4.493   7.813   0.547 -0.0140 -0.0292 -0.2971
  455W        W 3974   6.408   6.459   2.633  0.1439 -0.0404 -0.1582
  456W        W 3975   8.633   4.148   0.926  0.0654  0.1232 -0.1132
  457W        W 3976   7.990   9.487   0.230 -0.1448  0.0219  0.2293
  458W        W 3977   8.085   3.420   8.156 -0.1973  0.0655 -0.2478
  459W        W 3978   1.634   0.118   9.662  0.0857 -0.0474 -0.1343
  460W        W 3979   5.250   3.512   1.707 -0.0801  0.1969 -0.2580
  461W        W 3980   1.094   1.119   9.754 -0.0345 -0.0818 -0.1257
  462W        W 3981   4.961   2.469   7.875  0.0878  0.0915  0.2373
  463W        W 3982   3.895   3.935   5.094 -0.1543 -0.1998 -0.0659
  464W        W 3983   3.285   8.478   2.468 -0.0175  0.0391  0.0062
  465W        W 3984   1.632   1.060  11.442 -0.0626  0.5198  0.0980
  466W        W 3985   5.847   9.397   9.140 -0.1614  0.0113 -0.2239
  467W        W 3986   3.884   3.100   8.386  0.1299 -0.0717 -0.0322
  468W        W 3987   4.471   6.308   2.720 -0.1143  0.2625  0.2148
  469W        W 3988   5.135   5.612  12.192 -0.2121 -0.5732  0.0013
  470W        W 3989   9.252   6.542   4.289 -0.0040  0.2803 -0.1568
  471W        W 3990   6.443   8.616   2.463  0.0358  0.2387  0.1937
  472W        W 3991   5.358   4.603   8.633 -0.1669 -0.1290 -0.0359
  473W        W 3992   7.161   7.827   1.640  0.4045 -0.4413  0.0079
  474W        W 3993   0.869   0.812   9.380 -0.0547 -0.1396  0.0185
  475W        W 3994   7.355   8.803  11.689 -0.0274 -0.1155 -0.0134
  476W        W 3995   0.364   5.023  12.141  0.0361 -0.0512  0.1668
  477W        W 3996   6.779   7.275  11.154 -0.0646  0.1142  0.2512
  478W        W 3997   1.447   6.342   3.744  0.0390  0.1164 -0.4871
  479W        W 3998   8.277   3.495   3.787  0.1434  0.1293 -0.2192
  480W        W 3999   0.925   5.685   1.755 -0.4012  0.5031 -0.1015
  481W        W 4000   3.384   3.249   4.523  0.2834 -0.2058 -0.0420
  482W        W 4001   1.716   2.155   2.956  0.0683  0.0494 -0.0210
  483W        W 4002   8.744   5.505   4.087  0.1715 -0.1734  0.0661
  484W        W 4003   7.932   2.172  12.502  0.0661  0.2723  0.2405
  485W        W 4004   3.697   5.349   8.983  0.0747  0.0423  0.4439
  486W        W 4005   2.619   5.255   0.727  0.0785 -0.1200  0.2765
  487W        W 4006   9.294   5.507   0.249  0.3145 -0.0525  0.3456
  488W        W 4007   5.407   3.727   2.512  0.1862  0.3398  0.2994
  489W        W 4008   4.577   3.592   2.213 -0.2198  0.0353  0.2749
  490W        W 4009   3.090   8.123   8.347 -0.4228  0.1929  0.0209
  491W        W 4010   6.467   1.255   0.057  0.0965  0.0477  0.1125
  492W        W 4011   6.374   7.633  10.046 -0.3348  0.2744 -0.1450
  493W        W 4012   5.047   0.768  11.065 -0.3268  0.0207 -0.1002
  494W        W 4013   2.899   5.708   1.979  0.0965 -0.1971  0.3009
  495W        W 4014   5.396   1.419  10.568 -0.0991 -0.2840 -0.2023
  496W        W 4015   8.731   2.011   2.588 -0.2089 -0.3417  0.2093
  497W        W 4016   5.879   0.893   8.365 -0.0735 -0.1155 -0.0435
  498W        W 4017   9.014   3.797   8.809 -0.0677 -0.0630  0.3436
  499W        W 4018   1.898   1.346   0.987  0.1237  0.1335 -0.1110
  500W        W 4019   7.096   7.537   2.549 -0.3594 -0.1828  0.0039
  501W        W 4020   8.573   8.531   1.927  0.1618 -0.0807  0.2768
  502W        W 4021   1.130   9.141  10.304 -0.1712 -0.4509  0.0919
  503W        W 4022   8.508   5.600   2.010  0.1491  0.0071  0.1778
  504W        W 4023   9.257   2.650   3.633 -0.2798 -0.0174 -0.1684
  505W        W 4024   7.713   7.638   8.560 -0.1952  0.2185 -0.0151
  506W        W 4025   0.785   9.103   9.384  0.0271 -0.1763  0.1153
  507W        W 4026   8.992   8.461   1.488 -0.1095  0.1363 -0.2177
  508W        W 4027   7.919   4.999   2.271  0.2545  0.3318 -0.0185
  509W        W 4028   5.126   8.029  12.252 -0.0286  0.0169 -0.1328
  510W        W 4029   4.458   7.453   0.209  0.1187 -0.0619  0.1449
  511W        W 4030   0.498   4.087   4.819 -0.0767  0.0907  0.1279
  512W        W 4031   9.471   8.553   2.087 -0.0270 -0.0811  0.2336
  513W        W 4032   8.375   1.983  10.515  0.0989 -0.1893  0.0602
  514W        W 4033   0.880   7.933   4.385 -0.0022 -0.1182 -0.0113
  515W        W 4034   8.933   4.659   2.968 -0.0622  0.2564  0.0932
  516W        W 4035   3.046   3.449  10.918 -0.0555 -0.1766  0.0929
  517W        W 4036   5.033   5.554   9.932  0.3202 -0.0671  0.1335
  518W        W 4037   5.483   2.812   0.311 -0.1181 -0.0162  0.0179
  519W        W 4038   9.393   3.568   8.547  0.2861 -0.1671 -0.2032
  520W        W 4039   8.800   1.298   8.330 -0.0232 -0.1219  0.0174
  521W        W 4040   3.066   6.039   2.297  0.0932  0.0831  0.1834
  522W        W 4041   8.412   5.661   1.480 -0.0906 -0.0189 -0.0568
  523W        W 4042   8.363   0.602  11.174  0.1085  0.1291  0.3097
  524W        W 4043   2.662   1.680   2.050  0.0892  0.2426 -0.3676
  525W        W 4044   9.037   0.258   2.416  0.0965 -0.0942 -0.0345
  526W        W 4045   0.300   3.598   0.898 -0.0002 -0.1597  0.1175
  527W        W 4046   5.374   6.725  10.594  0.1105 -0.0407 -0.2220
  528W        W 4047   7.502   8.925  10.695 -0.1574  0.1626 -0.2153
  529W        W 4048   2.423   2.477  10.993 -0.3277  0.1301  0.1500
  530W        W 4049   6.726   6.745   9.861 -0.1096  0.4765 -0.2803
  531W        W 4050   2.040   7.449  10.044 -0.0436  0.1741  0.1139
  532W        W 4051   2.146   9.469   0.199 -0.2408  0.0534  0.0729
  533W        W 4052   7.514   0.063   1.018  0.0348  0.0790  0.4073
  534W        W 4053   3.103   8.713   9.626 -0.0130 -0.1281  0.2445
  535W        W 4054   3.155   4.935   9.529  0.2684  0.1247  0.1985
  536W        W 4055   2.523   4.239  11.478  0.2065 -0.0391  0.1850
  537W        W 4056   5.270   0.330   9.698  0.1287 -0.1330 -0.1562
  538W        W 4057   4.252   8.572   8.829  0.0782  0.4330  0.0708
  539W        W 4058   4.110   8.109  10.052 -0.0004  0.1116 -0.3403
  540W        W 4059   3.375   8.591  11.648  0.2335 -0.2596  0.1518
  541W        W 4060   7.177   1.443   3.193  0.0809  0.0641  0.3799
  542W        W 4061   9.383   1.562  11.369 -0.0374  0.1736 -0.1556
  543W        W 4062   9.374   9.540   2.520 -0.0627 -0.0164 -0.0700
  544W        W 4063   8.245   3.983   3.985 -0.0524 -0.0350  0.0653
  545W        W 4064   2.193   6.123   1.308 -0.4354 -0.0544 -0.2101
  546W        W 4065   0.172   1.152   0.302  0.0981  0.0867  0.5760
  547W        W 4066   1.293   0.591   2.225  0.0139  0.1856 -0.1459
  548W        W 4067   4.989   7.177   2.449  0.0305 -0.0259  0.0344
  549W        W 4068   4.948   7.977  11.392 -0.2153 -0.2105 -0.1296
  550W        W 4069   8.690   9.293   4.235 -0.0355  0.0853  0.1041
  551W        W 4070   5.870   2.791   3.854  0.2353 -0.2357  0.0360
  552W        W 4071   1.736   8.138   4.310  0.3213  0.1184 -0.1265
  553W        W 4072   6.437   9.063  10.993  0.3967  0.4512 -0.2350
  554W        W 4073   0.176   3.348   3.883  0.3910 -0.1389 -0.1376
  555W        W 4074   5.682   8.080   1.166  0.1399  0.3476  0.0506
  556W        W 4075   9.300   4.945  10.292  0.0052 -0.1919  0.0684
  557W        W 4076   4.898   2.085   4.247 -0.2201 -0.0547 -0.0185
  558W        W 4077   5.243   4.869  10.733 -0.2434 -0.1133 -0.1264
  559W        W 4078   4.796   3.288  10.825  0.0107 -0.1078 -0.0374
  560W        W 4079   0.938   5.172   1.032  0.1366  0.0621  0.1124
  561W        W 4080   1.399   7.817  12.325 -0.0519  0.0896 -0.0481
  562W        W 4081   9.680   2.094   9.815 -0.0343  0.1007 -0.0415
  563W        W 4082   0.579   2.942   8.252  0.1589 -0.1169 -0.0438
  564W        W 4083   2.337   7.177  10.364  0.0508 -0.1592  0.0612
  565W        W 4084   5.530   8.602   1.187  0.1442  0.3046 -0.0551
  566W        W 4085   7.634   2.369   2.693  0.1768 -0.0513  0.2462
  567W        W 4086   3.351   4.079   3.397  0.1995 -0.0259  0.2343
  568W        W 4087   6.124   3.952   0.577 -0.1261 -0.0386 -0.4978
  569W        W 4088   1.751   2.506  11.574 -0.1587 -0.2004 -0.0093
  570W        W 4089   4.191   5.858   3.009  0.1567 -0.1745 -0.0763
  571W        W 4090   9.522   5.343   1.895 -0.1842  0.0980 -0.0864
  572W        W 4091   8.901   1.961   2.084 -0.0942 -0.1341 -0.2682
  573W        W 4092   4.961   3.589   9.512  0.0310 -0.1362  0.1217
  574W        W 4093   8.973   9.120   2.687  0.1373  0.0944 -0.1940
  575W        W 4094   8.619   8.468   1.061  0.2919  0.1851  0.0989
  576W        W 4095   7.597   6.731  11.105 -0.2153 -0.1143  0.1276
  577W        W 4096   7.617   2.925  11.941  0.0816  0.1917  0.2034
  578W        W 4097   7.834   5.477   0.853 -0.1525 -0.0662 -0.2018
  579W        W 4098   0.125   3.693  12.359  0.1606 -0.1520 -0.0143
  580W        W 4099   3.406   0.798  10.022 -0.1090 -0.3128  0.4154
  581W        W 4100   9.285   9.110  10.120 -0.2526 -0.1170  0.0680
  582W        W 4101   1.897   8.016   2.521 -0.3355  0.1520 -0.0708
  583W        W 4102   0.148   4.383   4.579 -0.3008 -0.0561 -0.1427
  584W        W 4103   1.509   8.179   8.616 -0.1246  0.1253  0.1529
  585W        W 4104   3.351   1.686   2.810  0.3942 -0.0504 -0.2209
  586W        W 4105   0.935   8.436   1.852 -0.0052  0.1813 -0.0589
  587W        W 4106   3.507   5.317   9.435 -0.0813 -0.0388 -0.0357
  588W        W 4107   6.755   6.321  11.412  0.0723  0.0589  0.1328
  589W        W 4108   4.290   1.019   2.899 -0.2390  0.1950  0.0441
  590W        W 4109   4.328   9.269  12.262 -0.1044  0.0779 -0.1026
  591W        W 4110   6.215   2.111   9.293  0.1547 -0.2337 -0.1068
  592W        W 4111   2.358   4.611   2.082  0.5897  0.3858  0.0265
  593W        W 4112   5.346   1.749   9.519  0.1362 -0.2516  0.0830
  594W        W 4113   7.959   7.347   2.019  0.4278 -0.0338 -0.0798
  595W        W 4114   4.382   4.148   0.945  0.1490 -0.3718 -0.0752
  596W        W 4115   0.163   9.648   2.521 -0.1411 -0.0977  0.1201
  597W        W 4116   0.392   9.518   0.436  0.1302 -0.3137  0.0858
  598W        W 4117   4.839   6.253  10.469 -0.0352  0.3195  0.0583
  599W        W 4118   1.894   0.321  11.624 -0.2260  0.2860 -0.3935
  600W        W 4119   4.199   6.379   4.018  0.0771  0.0466 -0.1122
  601W        W 4120   5.054   1.985   3.195  0.1492  0.1766  0.2259
  602W        W 4121   5.286   2.507  12.364 -0.0615 -0.0501 -0.1523
  603W        W 4122   2.473   7.154   9.121 -0.0772  0.1563  0.0745
  604W        W 4123   9.344   5.629  10.785 -0.0153  0.5097  0.1252
  605W        W 4124   6.068   2.696   8.135 -0.0543  0.1301 -0.1413
  606W        W 4125   8.125   7.026  11.854 -0.1072 -0.1817  0.2209
  607W        W 4126   5.522   1.056   9.253  0.0459  0.3452  0.0128
  608W        W 4127   4.786   0.739  10.365  0.1538 -0.1359  0.1127
  609W        W 4128   4.957   0.752   0.926  0.0625 -0.2184  0.0576
  610W        W 4129   3.688   0.395  10.466  0.2625  0.0058  0.0421
  611W        W 4130   3.923   2.018   3.364  0.1094  0.1433  0.1966
  612W        W 4131   5.661   5.533  10.786  0.1929  0.1030  0.0964
  613W        W 4132   7.216   1.960   1.494  0.1123  0.1349  0.3215
  614W        W 4133   2.820   5.295   4.146 -0.1622  0.2896  0.0838
  615W        W 4134   2.274   3.506   1.871 -0.3856  0.0504 -0.4710
  616W        W 4135   2.870   3.534  12.324 -0.2239 -0.0464  0.1977
  617W        W 4136   0.076   5.238   1.478 -0.0336  0.3608 -0.2466
  618W        W 4137   2.963   4.473  11.359 -0.0482  0.1585  0.0066
  619W        W 4138   4.592   4.385   9.182  0.0966 -0.0172 -0.4409
  620W        W 4139   5.213   8.300   0.140 -0.1464  0.1395  0.0164
  621W        W 4140   6.238   5.638  12.102 -0.1559 -0.0865  0.3441
  622W        W 4141   0.606   1.062   8.942 -0.1328  0.0740 -0.2305
  623W        W 4142   0.831   5.107   1.796  0.2254 -0.2217  0.0670
  624W        W 4143   8.504   4.313   3.059  0.0915  0.0154 -0.3563
  625W        W 4144   3.374   3.643   0.039  0.3128  0.1237 -0.1531
  626W        W 4145   2.437   3.568  11.555 -0.0526 -0.4316  0.1009
  627W        W 4146   5.670   0.145   9.482 -0.0186 -0.0533  0.1702
  628W        W 4147   7.490   7.360  11.717 -0.1448  0.2471 -0.6368
  629W        W 4148   8.352   5.156   2.669 -0.2936 -0.2921  0.0660
  630W        W 4149   9.116   4.734  12.273 -0.0957 -0.0363 -0.0135
  631W        W 4150   3.055   5.544  11.540  0.1411  0.0586 -0.1288
  632W        W 4151   4.165   8.570  11.443 -0.0555 -0.1528  0.0817
  633W        W 4152   3.553   4.361   3.953 -0.2916 -0.0004 -0.1544
  634W        W 4153   4.602   6.433  10.065  0.0264  0.1496  0.2724
  635W        W 4154   4.149   5.818   9.964  0.0397 -0.1457 -0.2801
  636W        W 4155   6.796   8.621   0.467 -0.3802  0.1651 -0.2275
  637W        W 4156   4.030   8.690   0.965  0.2826 -0.0296 -0.0785
  638W        W 4157   9.337   2.282   2.699 -0.0855  0.1889  0.2867
  639W        W 4158   2.912   3.905   4.423 -0.4000 -0.0732  0.1580
  640W        W 4159   4.911   1.309   9.334 -0.0335  0.0009  0.0154
  641W        W 4160   9.028   3.779   0.066  0.0251  0.0361  0.2167
  642W        W 4161   3.492   6.556  12.280 -0.0101  0.1437  0.0429
  643W        W 4162   6.405   2.143   2.570  0.1345  0.1993  0.2070
  644W        W 4163   0.266   5.950  12.130 -0.0238 -0.0699  0.0690
  645W        W 4164   8.441   1.161  11.060  0.3223 -0.1368  0.4888
  646W        W 4165   2.685   7.341   0.920 -0.1316  0.1538 -0.3971
  647W        W 4166   0.957   8.529  11.178 -0.0495 -0.0992 -0.2057
  648W        W 4167   2.073   5.701  10.571  0.2550  0.6858  0.1707
  649W        W 4168   1.362   0.146   1.794 -0.0464  0.0626 -0.2012
  650W        W 4169   2.636   2.892  11.190 -0.0368 -0.1087  0.0344
  651W        W 4170   6.939   2.314   3.332  0.0020  0.0088 -0.4366
  652W        W 4171   6.576   2.995   1.688 -0.1366 -0.0506  0.0830
  653W        W 4172   1.233   6.209   9.017  0.0138 -0.0828 -0.0316
  654W        W 4173   2.076   5.762   4.024  0.2597 -0.1025 -0.0190
  655W        W 4174   2.491   5.315   9.069  0.3245 -0.1071  0.2425
  656W        W 4175   1.676   0.200  11.032  0.2712  0.2238 -0.0337
  657W        W 4176   1.702   3.835   4.115  0.3854 -0.1239 -0.0671
  658W        W 4177   8.619   7.215   0.527  0.0669 -0.0492 -0.2798
  659W        W 4178   0.773   8.334   4.127 -0.1738 -0.3798  0.1809
  660W        W 4179   0.241   1.549   9.543  0.1170  0.1490 -0.2206
  661W        W 4180   6.212   3.915   3.467  0.1624 -0.1153 -0.1740
  662W        W 4181   2.335   3.561  12.277  0.0648 -0.1169 -0.1015
  663W        W 4182   1.177   9.479   1.526  0.0552  0.1364 -0.0670
  664W        W 4183   2.221   6.720  10.502  0.2899  0.2532  0.2802
  665W        W 4184   1.629   9.173   4.422 -0.1740  0.2740 -0.1131
  666W        W 4185   0.415   8.203   1.922  0.1461 -0.0056  0.1176
  667W        W 4186   1.123   5.970  11.340 -0.3394  0.1511  0.1009
  668W        W 4187   2.562   3.174   3.712  0.0155 -0.1171 -0.0711
  669W        W 4188   6.415   8.608   1.955  0.2100  0.0600  0.4368
  670W        W 4189   6.359   4.310  10.661  0.4837  0.1112 -0.2667
  671W        W 4190   6.742   5.854  11.585  0.0028 -0.2076 -0.0119
  672W        W 4191   7.199   6.243   1.048  0.0657 -0.0386 -0.1957
  673W        W 4192   0.250   3.888   1.307 -0.1142 -0.0725 -0.1801
  674W        W 4193   0.728   4.124   0.057  0.2744 -0.1115 -0.5378
  675W        W 4194   3.922   4.149   2.078 -0.2627 -0.4948 -0.2675
  676W        W 4195   7.886   4.953  10.861 -0.1324  0.2220 -0.2231
  677W        W 4196   4.308   3.262   4.566 -0.2047  0.4861 -0.0171
  678W        W 4197   0.423   6.288   0.262  0.3442 -0.1255  0.1846
  679W        W 4198   1.117   7.417   4.173 -0.3013 -0.3468 -0.0875
  680W        W 4199   5.936   4.816   3.095 -0.1813  0.0722  0.0045
  681W        W 4200   2.399   3.203   2.471  0.0818  0.0578 -0.1800
  682W        W 4201   3.340   8.777  12.154 -0.2763 -0.1457 -0.1665
  683W        W 4202   6.102   2.068  10.687  0.2787 -0.2114 -0.2585
  684W        W 4203   6.806   0.387  10.411 -0.0661  0.2195 -0.1809
  685W        W 4204   8.130   7.234   0.503 -0.0666 -0.1071 -0.0556
  686W        W 4205   1.416   2.416  12.528 -0.3201  0.1159 -0.4279
  687W        W 4206   9.043   0.265   3.400 -0.1719  0.0135  0.1105
  688W        W 4207   5.009   5.567   4.062  0.1567  0.1369 -0.3534
  689W        W 4208   3.269   1.139   2.132 -0.2248 -0.0700 -0.0679
  690W        W 4209   9.617   2.735   0.624 -0.2154 -0.3960 -0.3224
  691W        W 4210   4.700   1.586   8.848 -0.2479  0.0924  0.2095
  692W        W 4211   6.043   3.388   0.722 -0.0377 -0.0582 -0.2889
  693W        W 4212   2.825   9.223   0.477  0.2025 -0.1922  0.3786
  694W        W 4213   5.334   2.361  11.046 -0.2373 -0.3078  0.1161
  695W        W 4214   2.280   3.936  11.926  0.1641 -0.0183 -0.0235
  696W        W 4215   9.570   4.667   9.956  0.0119 -0.1304 -0.3934
  697W        W 4216   8.382   8.182   0.268  0.2612  0.0554 -0.2425
  698W        W 4217   7.593   3.186   2.037  0.0124 -0.1956 -0.0113
  699W        W 4218   8.202   1.535   8.868  0.2710  0.5035  0.0515
  700W        W 4219   0.451   6.992   1.907  0.1163  0.2104 -0.2035
  701W        W 4220   5.159   0.955   0.486  0.0411 -0.0837 -0.0219
  702W        W 4221   2.398   5.314   2.757 -0.1322  0.0548 -0.1032
  703W        W 4222   5.069   8.343   2.406  0.0800  0.0397  0.2154
  704W        W 4223   9.535   5.713  11.896  0.0341  0.2403  0.4124
  705W        W 4224   4.030   4.861  10.697  0.1251  0.3360  0.1705
  706W        W 4225   7.070   1.207   1.180  0.1618  0.0823  0.1606
  707W        W 4226   9.455   8.965   2.757  0.2799  0.1107 -0.2306
  708W        W 4227   2.548   7.322   2.226 -0.1884  0.1879  0.2743
  709W        W 4228   3.285   7.563  12.542  0.3993  0.0278  0.0648
  710W        W 4229   5.848   6.757  12.375 -0.2947  0.1126 -0.1936
  711W        W 4230   7.850   5.803  10.929  0.0319  0.1551  0.2703
  712W        W 4231   6.370   7.132   1.191 -0.1808 -0.4478  0.1002
  713W        W 4232   7.422   6.649   1.347  0.1246 -0.0391  0.2983
  714W        W 4233   5.257   8.764  11.092  0.0326  0.1332  0.1901
  715W        W 4234   3.181   0.439   3.661 -0.0151  0.2095 -0.0376
  716W        W 4235   3.965   0.656  11.435  0.1350  0.2253  0.1114
  717W        W 4236   8.981   8.317  12.531 -0.1233  0.0994  0.1634
  718W        W 4237   4.301   0.651   0.625  0.0494 -0.1536  0.3668
  719W        W 4238   1.330   2.859   4.163 -0.4436 -0.2336  0.1169
  720W        W 4239   2.921   6.475   2.086  0.0394  0.0471 -0.0315
  721W        W 4240   4.853   7.121   9.389 -0.0150  0.0087  0.0715
  722W        W 4241   6.664   4.305  12.264  0.3021 -0.1464  0.0144
  723W        W 4242   4.437   2.560   8.796 -0.2425  0.1684 -0.1811
  724W        W 4243   6.084   5.735   1.646  0.3551 -0.2357 -0.0788
  725W        W 4244   3.730   2.540   3.064  0.1760 -0.1748 -0.1472
  726W        W 4245   6.378   1.710   0.814 -0.0956  0.1844  0.0770
  727W        W 4246   6.200   3.770   2.069 -0.2464 -0.2678  0.0305
  728W        W 4247   7.238   6.114   2.111 -0.0637  0.0726 -0.1325
  729W        W 4248   4.978   7.594   2.748 -0.6035  0.0091  0.0713
  730W        W 4249   6.696   6.375  10.859 -0.0118 -0.0655  0.0592
  731W        W 4250   2.294   5.131   1.849 -0.1033 -0.0984 -0.1780
  732W        W 4251   4.132   9.213   3.806  0.3189 -0.0695  0.1308
  733W        W 4252   2.262   1.892   8.755  0.2988  0.0035  0.1464
  734W        W 4253   8.529   1.845   9.101 -0.0198 -0.1398  0.1291
  735W        W 4254   8.743   5.522   2.502 -0.1366  0.0228 -0.0677
  736W        W 4255   3.220   1.674   4.936  0.0716  0.0726  0.0778
  737W        W 4256   7.262   8.480  11.256 -0.2193 -0.6268  0.0974
  738W        W 4257   0.614   0.726  12.109  0.2227  0.0199  0.2429
  739W        W 4258   0.971   7.417   1.283  0.1617  0.2249 -0.1725
  740W        W 4259   7.548   0.286   1.645 -0.0428  0.2304 -0.2718
  741W        W 4260   4.828   2.527  12.035  0.1334 -0.2352 -0.1186
  742W        W 4261   3.643   2.648   1.640  0.1373  0.0124 -0.0816
  743W        W 4262   6.219   2.470   1.607 -0.0673 -0.0768 -0.4095
  744W        W 4263   0.180   4.601  10.836  0.0008 -0.2470 -0.0963
  745W        W 4264   4.835   3.811   4.494  0.0709 -0.0300  0.1587
  746W        W 4265   0.995   5.155   2.616  0.0889 -0.0845  0.0834
  747W        W 4266   3.755   8.476  12.352 -0.0760  0.1070  0.1829
  748W        W 4267   1.239   4.932   2.195 -0.1602  0.1693 -0.2696
  749W        W 4268   5.229   9.087   3.047 -0.0623  0.1793  0.3487
  750W        W 4269   9.258   2.729  11.868  0.1101 -0.0650  0.0221
  751W        W 4270   2.168   5.933  11.484 -0.1369 -0.1072 -0.4504
  752W        W 4271   8.921   7.035   1.631 -0.0209  0.1194 -0.1710
  753W        W 4272   6.718   1.003   3.526  0.2296 -0.2214 -0.0185
  754W        W 4273   3.261   4.602   3.104 -0.0647 -0.0622  0.0532
  755W        W 4274   5.134   6.883   1.610  0.1712 -0.1924  0.1683
  756W        W 4275   4.991   2.069   8.814 -0.1511  0.1275  0.0574
  757W        W 4276   0.382   3.944   3.759  0.1757  0.0081  0.2902
  758W        W 4277   3.681   2.844   3.950 -0.2718  0.0249  0.0965
  759W        W 4278   8.613   6.310  11.974  0.2416  0.0364  0.2054
  760W        W 4279   0.976   4.712   9.442 -0.1586 -0.3680  0.1444
  761W        W 4280   2.363   6.319   1.929  0.0070 -0.0525 -0.2023
  762W        W 4281   1.708   4.640   2.266  0.0417  0.2893  0.2006
  763W        W 4282   3.451   5.756   9.257  0.1232  0.1385  0.3060
  764W        W 4283   4.228   8.942   9.363  0.0957 -0.1404 -0.2679
  765W        W 4284   3.958   1.704   1.896 -0.1017 -0.1895  0.0040
  766W        W 4285   7.655   3.262   9.484  0.0343  0.3645 -0.3366
  767W        W 4286   5.967   8.634   0.963 -0.2475 -0.0113  0.2785
  768W        W 4287   2.111   3.998  12.393  0.1862 -0.0821  0.0994
  769W        W 4288   6.749   6.269   8.842  0.0299 -0.0880 -0.3481
  770W        W 4289   5.953   1.780   2.121 -0.0564  0.1512 -0.6786
  771W        W 4290   3.074   1.637   2.345  0.1082  0.0221 -0.0048
  772W        W 4291   1.731   2.957   3.890  0.1395  0.0362  0.1929
  773W        W 4292   6.966   5.336   0.221 -0.0852 -0.0201 -0.1738
  774W        W 4293   4.375   6.727   2.991  0.0980 -0.0009  0.1206
  775W        W 4294   9.239   0.760   9.521  0.1697 -0.0505  0.0426
  776W        W 4295   0.330   3.308   1.366  0.0853  0.2302 -0.1406
  777W        W 4296   2.776   7.893  11.157 -0.0824  0.1170  0.0615
  778W        W 4297   6.124   0.395   0.790  0.2464  0.3209  0.0436
  779W        W 4298   7.923   0.479   3.589  0.0384  0.0040 -0.2049
  780W        W 4299   1.675   3.718   2.689 -0.0141  0.0203  0.0239
  781W        W 4300   6.699   3.953   8.435  0.2435  0.1154 -0.0331
  782W        W 4301   7.760   1.669   4.200  0.0447 -0.3630 -0.0393
  783W        W 4302   1.881   5.241  11.092  0.0989 -0.1782 -0.0164
  784W        W 4303   6.771   6.501  10.338  0.2107  0.0110 -0.1495
  785W        W 4304   3.689   3.675   4.658  0.0058  0.2214  0.0042
  786W        W 4305   4.000   2.869  11.918  0.0650  0.1375 -0.2418
  787W        W 4306   5.410   3.077  12.413  0.0210 -0.2089  0.0177
  788W        W 4307   8.369   5.454   9.599 -0.1152 -0.2295 -0.2361
  789W        W 4308   8.521   7.788   1.268  0.0121  0.2239  0.0773
  790W        W 4309   2.953   8.524   8.084 -0.2138 -0.5701  0.2096
  791W        W 4310   3.777   5.261   0.237 -0.1973 -0.3829 -0.2020
  792W        W 4311   1.668   9.074  11.469 -0.1408 -0.4392  0.0662
  793W        W 4312   1.688   2.892   3.270 -0.3716  0.3476  0.1243
  794W        W 4313   6.715   4.758  10.631  0.2383  0.4291  0.0957
  795W        W 4314   2.635   5.941   1.605  0.0402 -0.4188  0.2062
  796W        W 4315   2.857   6.491   3.292  0.0035 -0.4147  0.0739
  797W        W 4316   0.527   1.674   3.102  0.2122 -0.0267 -0.1955
  798W        W 4317   4.690   7.461  10.966  0.1167  0.3164 -0.2880
  799W        W 4318   3.104   4.019   9.342 -0.1758 -0.0071  0.1077
  800W        W 4319   2.735   5.944  11.418  0.0160 -0.0106 -0.4363
  801W        W 4320   8.034   6.256   9.092  0.3873 -0.3392 -0.1294
  802W        W 4321   0.190   1.071   3.865 -0.0054  0.0153 -0.0522
  803W        W 4322   7.450   4.795  10.580 -0.4592  0.0777  0.1114
  804W        W 4323   0.561   7.457   9.212 -0.1359 -0.0501  0.0122
  805W        W 4324   8.703   2.789  12.381  0.1473 -0.1761 -0.0023
  806W        W 4325   1.462   4.768   2.705  0.1668  0.0671  0.0034
  807W        W 4326   9.646   4.559   8.637 -0.2092  0.1510 -0.1772
  808W        W 4327   8.967   6.312  10.124  0.1920  0.1334  0.0971
  809W        W 4328   5.423   4.526   3.839  0.0220  0.0374 -0.0786
  810W        W 4329   2.205   5.129   8.580 -0.0433 -0.0978 -0.0633
  811W        W 4330   9.248   5.513   9.238  0.1340 -0.3072 -0.0966
  812W        W 4331   5.069   6.073  10.053 -0.0589 -0.0690  0.5240
  813W        W 4332   5.124   1.025  12.537 -0.3120 -0.0979 -0.2920
  814W        W 4333   1.265   2.793   3.677 -0.0738  0.0781 -0.0246
  815W        W 4334   3.258   7.944   2.008  0.3267  0.3169 -0.4032
  816W        W 4335   2.971   0.021   8.770 -0.1680 -0.0147  0.0929
  817W        W 4336   5.438   6.335   2.310 -0.0553  0.0161  0.2420
  818W        W 4337   1.490   8.228   8.117 -0.0221  0.1793 -0.2869
  819W        W 4338   4.410   1.557   2.875 -0.1421  0.0501 -0.1875
  820W        W 4339   2.539   1.553   3.268  0.3298 -0.1521 -0.0674
  821W        W 4340   6.930   3.839   9.514 -0.1990 -0.0391 -0.1102
  822W        W 4341   2.676   3.974  12.224 -0.1184  0.0605  0.1735
  823W        W 4342   6.946   1.383  11.276  0.0364  0.2861 -0.0676
  824W        W 4343   6.560   5.869   9.541 -0.2044 -0.1389 -0.3279
  825W        W 4344   5.263   4.241   3.394 -0.2237 -0.2785  0.1329
  826W        W 4345   2.387   5.734   9.339 -0.0009 -0.0538  0.2782
  827W        W 4346   8.579   2.051  11.841 -0.1004 -0.3096 -0.0282
  828W        W 4347   2.296   2.504   4.746  0.1475 -0.0220  0.1231
  829W        W 4348   8.969   5.922   0.195 -0.0534 -0.0738 -0.2127
  830W        W 4349   6.353   0.465  11.354 -0.1654 -0.2151 -0.2264
  831W        W 4350   4.049   7.747   2.829  0.1955 -0.1637 -0.0496
  832W        W 4351   7.703   2.801   0.757 -0.0305 -0.0497  0.1130
  833W        W 4352   0.344   7.053   4.215  0.0842 -0.3701 -0.2833
  834W        W 4353   2.110   2.754   0.624 -0.2063 -0.1090 -0.1236
  835W        W 4354   3.317   5.490   4.027 -0.0579 -0.0011 -0.3824
  836W        W 4355   3.697   2.138  10.750 -0.1107 -0.0768 -0.1888
  837W        W 4356   2.663   1.303   8.535 -0.3867 -0.2260  0.0723
  838W        W 4357   2.337   8.895  12.254 -0.2208  0.0522  0.0489
  839W        W 4358   8.704   6.350  10.974  0.0022  0.1330  0.4040
  840W        W 4359   7.981   0.354   1.453  0.1870  0.0724  0.1348
  841W        W 4360   3.431   1.786   0.465  0.0468  0.0213 -0.0109
  842W        W 4361   0.093   6.392   2.406 -0.2670 -0.2116  0.1514
  843W        W 4362   8.224   3.147   9.270 -0.1761  0.5166  0.0216
  844W        W 4363   4.408   0.360  10.477 -0.0419  0.2813 -0.1422
  845W        W 4364   6.307   3.675  10.198  0.3027  0.1471 -0.0224
  846W        W 4365   1.480   6.950   0.288  0.2031  0.4755  0.1129
  847W        W 4366   6.149   5.078  11.631 -0.1159  0.4344  0.4968
  848W        W 4367   7.167   0.426  12.369  0.1024 -0.3683 -0.1822
  849W        W 4368   7.166   3.842   3.993 -0.1492 -0.1684 -0.2150
  850W        W 4369   0.701   0.306  11.346 -0.1064  0.1124  0.1318
  851W        W 4370   8.958   3.404   1.510 -0.4635  0.4591  0.2418
  852W        W 4371   0.613   5.274   8.793 -0.1250 -0.2137  0.0706
  853W        W 4372   0.167   6.736   3.421 -0.2998 -0.0743  0.1365
  854W        W 4373   9.588   6.300   2.839  0.2966 -0.1536 -0.4229
  855W        W 4374   4.911   7.500   0.590 -0.1630 -0.0379  0.3052
  856W        W 4375   4.172   2.426   0.842 -0.3570 -0.0188  0.1600
  857W        W 4376   7.386   3.259   2.632 -0.0686 -0.2042  0.3619
  858W        W 4377   7.070   3.934  10.029 -0.1160  0.1035  0.2338
  859W        W 4378   7.845   6.613   8.328 -0.1787  0.0278 -0.0780
  860W        W 4379   0.596   8.343   9.906 -0.0323  0.0279 -0.0552
  861W        W 4380   5.285   7.350   1.732  0.1294 -0.1658 -0.0125
  862W        W 4381   7.208   5.172   3.439  0.0105  0.4004 -0.1212
  863W        W 4382   8.119   0.386   9.985  0.1692  0.2318 -0.0833
  864W        W 4383   8.047   1.858   2.854 -0.1495 -0.0527  0.2484
  865W        W 4384   4.612   1.058  11.252 -0.0396 -0.0175  0.0422
  866W        W 4385   7.121   4.142   1.658 -0.2594 -0.0442  0.2296
  867W        W 4386   9.300   1.993   3.689  0.0953 -0.0159  0.0554
  868W        W 4387   7.675   2.043   1.925 -0.0292  0.1517 -0.1143
  869W        W 4388   7.348   6.923  12.109  0.1995 -0.0062  0.2553
  870W        W 4389   6.645   4.294   0.489  0.2034  0.2502  0.0263
  871W        W 4390   5.963   7.742   0.969  0.0554  0.1361  0.1755
  872W        W 4391   5.506   8.523   2.949  0.1684  0.1133 -0.0890
  873W        W 4392   9.183   1.249   4.606 -0.0381  0.1500  0.2833
  874W        W 4393   3.738   1.673   1.448 -0.2873 -0.0075 -0.0378
  875W        W 4394   6.980   1.494   9.200  0.2215  0.0188  0.0794
  876W        W 4395   0.768   0.562   8.834 -0.0113  0.2405 -0.0744
  877W        W 4396   8.251   2.025   9.494  0.3235 -0.1723 -0.3106
  878W        W 4397   1.689   0.672  10.773  0.2264  0.0775 -0.1836
  879W        W 4398   1.689   4.115   4.642  0.0637  0.1236  0.3705
  880W        W 4399   7.244   4.431   1.099 -0.0780  0.0226 -0.0573
  881W        W 4400   3.653   2.570   9.839 -0.4495 -0.2189  0.1527
  882W        W 4401   4.283   5.486  12.488 -0.0905  0.0529 -0.0884
  883W        W 4402   0.015   9.380  11.568  0.0731  0.1056  0.0358
  884W        W 4403   7.581   6.113   0.223  0.1099  0.2120  0.2742
  885W        W 4404   2.994   7.585  10.797 -0.0819  0.0091  0.3212
  886W        W 4405   3.977   6.053   9.503  0.1637  0.1001 -0.4588
  887W        W 4406   1.079   1.781  12.109  0.1063 -0.0974 -0.0787
  888W        W 4407   4.929   4.390   1.682 -0.1226  0.1487  0.2038
  889W        W 4408   6.985   1.924  10.312 -0.0847 -0.0480  0.0612
  890W        W 4409   9.389   1.544   1.239 -0.0930  0.1034  0.0277
  891W        W 4410   9.004   4.351   2.446  0.1357  0.0945  0.1066
  892W        W 4411   8.831   4.237   1.397  0.0259 -0.2835  0.0310
  893W        W 4412   4.156   0.912   9.630  0.1473  0.1295  0.1506
  894W        W 4413   1.370   9.162   9.532 -0.0024 -0.2232 -0.2328
  895W        W 4414   7.988   3.977   2.178 -0.2947 -0.3122  0.3901
  896W        W 4415   7.062   4.281   2.935 -0.0182 -0.0071 -0.0315
  897W        W 4416   7.374   4.809   3.738  0.0009  0.3063 -0.1076
  898W        W 4417   2.504   2.454   3.296  0.0953  0.0219  0.2354
  899W        W 4418   3.213   9.058   8.979  0.1346  0.1573  0.2336
  900W        W 4419   6.980   2.262  11.594  0.5392  0.3859 -0.0110
  901W        W 4420   1.737   9.551   4.718 -0.1176  0.1531 -0.0836
  902W        W 4421   4.366   5.468   2.751  0.2712  0.1383 -0.2903
  903W        W 4422   8.700   4.652   9.499 -0.0473  0.2539  0.1406
  904W        W 4423   4.311   6.455   9.672  0.2329 -0.0863 -0.3931
  905W        W 4424   2.170   8.174  10.622 -0.0098 -0.1214  0.1500
  906W        W 4425   4.357   0.189   8.519  0.4001  0.2177  0.2615
  907W        W 4426   4.993   8.892   2.671  0.1384  0.0545  0.0536
  908W        W 4427   1.043   7.565  12.033  0.3100  0.2979 -0.0513
  909W        W 4428   8.170   2.300  12.067  0.2403  0.2603  0.1494
  910W        W 4429   8.914   3.469   3.383  0.0481 -0.0517 -0.0528
  911W        W 4430   8.114   1.312  12.277 -0.0073 -0.0728 -0.0684
  912W        W 4431   4.233   3.954   9.920  0.3722 -0.0742 -0.1340
  913W        W 4432   6.748   5.487   4.111  0.0608 -0.1755 -0.1430
  914W        W 4433   1.979   9.470   4.020  0.0563 -0.0985 -0.2283
  915W        W 4434   1.673   1.930  10.206  0.0108  0.0898 -0.1027
  916W        W 4435   8.638   8.607  11.277  0.4644 -0.2705  0.0236
  917W        W 4436   4.920   0.779   2.337 -0.0451  0.0179  0.0938
  918W        W 4437   1.235   7.411   0.809  0.0490  0.1155  0.4911
  919W        W 4438   2.013   2.185  11.225 -0.1296 -0.0398  0.0317
  920W        W 4439   8.241   2.614   0.852 -0.0046 -0.1029  0.0065
  921W        W 4440   8.162   5.842   1.006 -0.0826 -0.0166 -0.1740
  922W        W 4441   2.136   8.830   9.513  0.1969 -0.1898  0.0943
  923W        W 4442   6.809   7.518  10.656  0.0165 -0.2648  0.2513
  924W        W 4443   1.700   5.305   0.958 -0.0698  0.2984  0.0443
  925W        W 4444   3.715   9.411  10.074 -0.1171  0.1350  0.1372
  926W        W 4445   6.769   3.538  10.021 -0.0906 -0.3977 -0.4414
  927W        W 4446   6.602   7.826   1.591 -0.0982  0.0263  0.0020
  928W        W 4447   6.657   1.328   9.580  0.0941  0.1220 -0.0553
  929W        W 4448   0.426   0.876   2.859 -0.1615 -0.2511 -0.0757
  930W        W 4449   5.341   0.883   2.790 -0.0033  0.0385 -0.1686
  931W        W 4450   0.395   0.013   8.628 -0.0786  0.1074 -0.0377
  932W        W 4451   4.395   2.040   0.574 -0.1160 -0.1412 -0.2126
  933W        W 4452   3.926   8.162  11.610 -0.2394 -0.1464  0.0074
  934W        W 4453   8.605   8.981   9.830  0.0097  0.1608  0.2247
  935W        W 4454   1.808   6.780   3.571 -0.1847 -0.1087  0.2351
  936W        W 4455   4.141   1.971  12.108 -0.0559  0.3535 -0.1265
  937W        W 4456   5.696   4.001   2.823  0.2944  0.0891 -0.1106
  938W        W 4457   6.199   9.362   1.480  0.0812 -0.2414  0.2452
  939W        W 4458   0.576   8.304   1.444  0.2307 -0.1689 -0.2973
  940W        W 4459   2.573   6.560   2.668 -0.1196  0.2612  0.1065
  941W        W 4460   2.739   3.046  10.671  0.0551 -0.0977 -0.0650
  942W        W 4461   4.418   4.580   2.481  0.0266  0.3803  0.0956
  943W        W 4462   2.913   6.053  10.051 -0.1406  0.1061 -0.1730
  944W        W 4463   3.319   3.509   3.435 -0.0938 -0.2348 -0.3856
  945W        W 4464   6.081   0.541  10.537  0.1188 -0.1717 -0.0350
  946W        W 4465   2.696   2.495   3.756  0.3184  0.2373  0.1086
  947W        W 4466   1.524   2.389  10.779 -0.2086 -0.0591  0.1250
  948W        W 4467   2.667   0.337  12.003  0.2407 -0.0417  0.2908
  949W        W 4468   2.490   3.941   0.620  0.2581 -0.1777 -0.0419
  950W        W 4469   0.990   6.036  12.181 -0.3830 -0.3430  0.2005
  951W        W 4470   9.080   5.774  11.160 -0.2092 -0.0258 -0.1216
  952W        W 4471   2.153   1.332   2.345 -0.1567 -0.2656  0.0872
  953W        W 4472   0.266   2.319  12.225  0.4323 -0.1102  0.1040
  954W        W 4473   1.180   0.604  10.597 -0.1737  0.0497  0.0207
  955W        W 4474   4.204   3.133   9.602 -0.0019 -0.0282 -0.0196
  956W        W 4475   3.966   6.434   2.889  0.0735 -0.0327  0.2050
  957W        W 4476   0.698   9.114   0.721  0.2304 -0.1539  0.2361
  958W        W 4477   9.218   7.121   5.110 -0.2825 -0.3767 -0.0084
  959W        W 4478   5.138   4.859   9.769  0.3341  0.2928 -0.2239
  960W        W 4479   5.499   1.208   1.634 -0.0307 -0.1125 -0.1310
  961W        W 4480   2.805   3.701   8.269  0.0634  0.1315  0.0232
  962W        W 4481   1.329   4.548   8.193 -0.0492 -0.0137  0.0766
  963W        W 4482   1.765   5.044  12.375  0.0951 -0.1958 -0.0016
  964W        W 4483   4.794   9.217   3.684  0.0034 -0.0878 -0.4514
  965W        W 4484   7.987   2.835   2.113 -0.4478  0.0806 -0.0839
  966W        W 4485   1.652   2.574   4.595  0.3636  0.1225 -0.3637
  967W        W 4486   8.028   7.876   9.471 -0.2178 -0.0053  0.3427
  968W        W 4487   1.243   5.220   0.641 -0.2649 -0.1347  0.0936
  969W        W 4488   3.916   1.998   0.461 -0.0387  0.0860 -0.1915
  970W        W 4489   7.823   4.128  12.212 -0.0440 -0.0197 -0.0989
  971W        W 4490   8.623   1.550   2.982  0.0319 -0.3883  0.2652
  972W        W 4491   5.965   3.322   2.461  0.0229 -0.0742  0.1355
  973W        W 4492   0.291   2.645   1.014  0.2539  0.1588  0.3705
  974W        W 4493   4.763   4.870   4.721 -0.0070  0.1774 -0.0667
  975W        W 4494   6.239   0.497  11.958  0.3844 -0.2039  0.0624
  976W        W 4495   7.663   2.718   3.908  0.3287  0.3218  0.0641
  977W        W 4496   9.606   0.227   3.531  0.0622 -0.0167  0.3133
  978W        W 4497   2.812   9.559   2.913 -0.6492 -0.0955 -0.1411
  979W        W 4498   4.762   6.882   9.896 -0.0687 -0.0839  0.0161
  980W        W 4499   3.553   2.253   9.150  0.1805 -0.1784 -0.1681
  981W        W 4500   3.504   9.482   8.988  0.2991 -0.1075  0.1347
  982W        W 4501   8.134   8.333  10.363  0.1802  0.1529  0.1235
  983W        W 4502   7.210   0.037   1.406  0.1735  0.0329 -0.2778
  984W        W 4503   4.879   7.077  11.721  0.0843  0.0597  0.0639
  985W        W 4504   1.828   2.895   1.156 -0.0618 -0.2853 -0.0521
  986W        W 4505   2.788   7.494  10.345  0.0277  0.0999  0.2068
  987W        W 4506   9.532   4.244   2.567  0.1978 -0.1508 -0.2965
  988W        W 4507   8.149   6.143   2.700  0.2945  0.4886 -0.1074
  989W        W 4508   3.795   8.652   1.486  0.2069 -0.2179 -0.0353
  990W        W 4509   0.270   4.218  10.572 -0.0470  0.0596  0.1974
  991W        W 4510   7.871   5.961  10.455  0.2461 -0.0164  0.0924
  992W        W 4511   8.093   3.547   8.613  0.2814 -0.1312 -0.2267
  993W        W 4512   6.093   7.773   2.832 -0.3513  0.2122  0.1635
  994W        W 4513   8.875   2.783  10.485 -0.1038  0.4612 -0.3246
  995W        W 4514   4.911   6.284  11.439  0.0383 -0.1743 -0.0949
  996W        W 4515   8.686   0.738  10.798  0.0264  0.1647 -0.0926
  997W        W 4516   6.305   5.318   1.782  0.1099  0.1151 -0.3503
  998W        W 4517   8.298   2.459   8.613  0.1529 -0.0210 -0.0828
  999W        W 4518   5.267   5.842  10.745  0.2497  0.0350  0.1189
 1000W        W 4519   0.152   4.833  11.716  0.2146  0.2773  0.1181
 1001W        W 4520   3.717   4.030  10.739  0.1190  0.2159 -0.1673
 1002W        W 4521   4.578   3.239   3.853  0.0379  0.1849  0.1599
 1003W        W 4522   0.459   4.376  10.120 -0.3181 -0.2197  0.1650
 1004W        W 4523   2.016   6.943   0.773  0.0600 -0.0556  0.1186
 1005W        W 4524   7.431   4.969   8.895  0.5218 -0.0965 -0.1018
 1006W        W 4525   8.171   8.959  11.146  0.4075  0.3341  0.2045
 1007W        W 4526   2.606   0.131   0.803  0.2903 -0.0186  0.3617
 1008W        W 4527   9.652   4.407   3.059 -0.1366 -0.0270  0.1578
 1009W        W 4528   1.825   7.011  10.419 -0.1587  0.2292  0.1187
 1010W        W 4529   2.787   5.485  11.087 -0.0106  0.2883  0.1654
 1011W        W 4530   1.544   0.668   0.508  0.3323 -0.2063  0.1410
 1012W        W 4531   2.413   1.411  12.232 -0.0649 -0.2260 -0.2263
 1013W        W 4532   8.598   0.124  11.349  0.4190 -0.0601 -0.2060
 1014W        W 4533   4.495   4.799  12.354 -0.2143  0.2529 -0.1846
 1015W        W 4534   8.223   8.522   2.415 -0.1450  0.0541  0.3742
 1016W        W 4535   9.246   1.536   8.174 -0.2289 -0.1782  0.1440
 1017W        W 4536   9.039   6.007   8.952  0.0129  0.0738 -0.0306
 1018W        W 4537   0.254   0.131   2.961  0.0603  0.0015 -0.1260
 1019W        W 4538   1.612   4.286   4.140  0.1079  0.1369  0.0646
 1020W        W 4539   5.950   8.304  10.695 -0.1586 -0.1720  0.0986
 1021W        W 4540   5.168   7.739  11.050 -0.0035  0.3019  0.3219
 1022W        W 4541   5.942   5.075   0.815 -0.1045  0.0406  0.3106
 1023W        W 4542   9.614   3.211   2.696  0.0900  0.0283 -0.0430
 1024W        W 4543   7.365   8.135   1.947  0.0927 -0.2429  0.0317
 1025W        W 4544   5.658   8.654  12.324 -0.0277 -0.1078  0.3855
 1026W        W 4545   4.926   6.944  12.190 -0.2182  0.0003  0.0497
 1027W        W 4546   2.834   5.134  10.675 -0.3323  0.1589  0.0378
 1028W        W 4547   5.801   6.446   3.345 -0.2495 -0.1177  0.1949
 1029W        W 4548   6.988   5.973  11.070  0.1232 -0.2694  0.3614
 1030W        W 4549   2.102   2.611  12.316  0.0395  0.0699  0.0899
 1031W        W 4550   6.058   2.087  12.303 -0.2773  0.5340 -0.1202
 1032W        W 4551   9.252   2.511   0.168 -0.1931  0.1267  0.2283
 1033W        W 4552   0.126   7.418   1.229 -0.1591 -0.3431  0.4451
 1034W        W 4553   7.748   5.550  10.203 -0.2789  0.1066 -0.4386
 1035W        W 4554   4.785   3.214   3.337 -0.0948 -0.2824 -0.6132
 1036W        W 4555   5.941   7.287   2.074  0.0104 -0.0223  0.0356
 1037W        W 4556   0.373   8.246   3.812  0.0028 -0.2212  0.3359
 1038W        W 4557   7.711   6.357   0.957  0.0304 -0.1989  0.2446
 1039W        W 4558   8.454   0.764  10.006 -0.0689 -0.0792 -0.1377
 1040W        W 4559   8.108   0.777   3.212 -0.1856 -0.0364  0.1493
 1041W        W 4560   7.783   4.528   1.199 -0.0811  0.0755 -0.0714
 1042W        W 4561   1.811   6.067  10.304  0.0277  0.1041  0.0909
 1043W        W 4562   0.021   7.214   1.673 -0.1795 -0.0652  0.0242
 1044W        W 4563   7.744   8.064   3.747 -0.0737 -0.1571  0.2441
 1045W        W 4564   4.504   2.725   2.467 -0.1087 -0.0785 -0.1169
 1046W        W 4565   5.156   5.556  11.262  0.2482  0.0735  0.2334
 1047W        W 4566   2.442   0.637   2.333 -0.1723  0.1955 -0.0296
 1048W        W 4567   3.739   2.756   9.387 -0.0214  0.2784 -0.0462
 1049W        W 4568   9.077   2.988  11.363 -0.2776 -0.0315  0.0689
 1050W        W 4569   8.942   8.718   0.786 -0.1041  0.0914 -0.0363
 1051W        W 4570   1.087   8.383   1.332 -0.0316  0.0796 -0.1551
 1052W        W 4571   0.369   8.908   0.324 -0.0319  0.1900 -0.0786
 1053W        W 4572   0.872   5.657  10.927  0.2070 -0.3460  0.1159
 1054W        W 4573   8.720   7.309   2.217 -0.1503 -0.1732  0.1408
 1055W        W 4574   1.311   6.988  11.217  0.0078 -0.2792 -0.1163
 1056W        W 4575   3.997   9.509   0.045  0.2770  0.3459 -0.4593
 1057W        W 4576   3.217   8.351   8.787  0.0274 -0.4861  0.3787
 1058W        W 4577   1.883   7.760   0.499 -0.0223 -0.2001 -0.0326
 1059W        W 4578   6.718   1.703   8.820  0.1171 -0.0082 -0.2155
 1060W        W 4579   7.184   9.563   2.878  0.0506  0.0513 -0.2569
 1061W        W 4580   4.300   0.647   8.814 -0.2339 -0.0897 -0.2937
 1062W        W 4581   6.877   2.036   4.422  0.1034 -0.0355 -0.0419
 1063W        W 4582   4.379   1.433   1.046  0.1369 -0.0331 -0.2358
 1064W        W 4583   8.944   6.783  11.252  0.1331 -0.3398 -0.0929
 1065W        W 4584   2.707   1.973   3.558  0.2308  0.0660 -0.1448
 1066W        W 4585   6.703   3.470   1.902  0.1246  0.1104 -0.2626
 1067W        W 4586   9.570   7.567   8.071  0.4225 -0.1448  0.1857
 1068W        W 4587   7.769   8.844   3.281 -0.1880  0.0178  0.1154
 1069W        W 4588   9.380   9.214   8.376 -0.0039  0.1786  0.0098
 1070W        W 4589   0.654   8.245  12.205  0.2426 -0.1864  0.0646
 1071W        W 4590   0.376   4.739   3.145 -0.3809 -0.1535  0.1178
 1072W        W 4591   1.193   3.919   3.968  0.4387  0.3211 -0.1814
 1073W        W 4592   6.178   0.765   2.360  0.0751  0.1519  0.1748
 1074W        W 4593   7.246   9.128  12.498 -0.1719  0.0752 -0.1021
 1075W        W 4594   4.802   3.766   3.095  0.0868  0.0822 -0.1315
 1076W        W 4595   2.181   2.780   3.763 -0.0315  0.1365 -0.0604
 1077W        W 4596   0.139   2.194   9.331 -0.1607 -0.0522 -0.0591
 1078W        W 4597   4.775   6.688   1.943  0.3016  0.0886  0.1830
 1079W        W 4598   9.482   0.822   0.294  0.3984  0.0592 -0.2057
 1080W        W 4599   2.016   5.131  10.525 -0.2783  0.4845  0.1459
 1081W        W 4600   0.266   5.478  11.908  0.0277 -0.1257  0.3228
 1082W        W 4601   1.436   5.242   1.741 -0.0309 -0.2255 -0.1482
 1083W        W 4602   6.602   3.180  11.828 -0.0533  0.1894 -0.0199
 1084W        W 4603   1.715   4.474  12.448 -0.1609 -0.3118 -0.1743
 1085W        W 4604   4.290   9.317   0.802 -0.0832  0.2588 -0.0682
 1086W        W 4605   8.045   4.180   2.598  0.2117 -0.0016 -0.0970
 1087W        W 4606   7.792   8.758   2.314  0.0732 -0.4550 -0.2172
 1088W        W 4607   7.875   1.604   9.754 -0.0247  0.0302 -0.1074
 1089W        W 4608   8.858   8.996   8.463  0.2121 -0.1213 -0.1934
 1090W        W 4609   0.113   0.275   0.405  0.0063  0.0439  0.2260
 1091W        W 4610   3.020   4.525   9.083 -0.1471  0.1556  0.4000
 1092W        W 4611   4.955   4.500   3.682  0.3327 -0.1103 -0.0560
 1093W        W 4612   0.322   5.120  10.589 -0.0199 -0.0166 -0.1810
 1094W        W 4613   9.460   5.584   9.704 -0.1826  0.2344  0.0100
 1095W        W 4614   6.632   0.158   0.623 -0.0274  0.0178 -0.0799
 1096W        W 4615   4.134   8.268   1.891 -0.1562  0.2496 -0.1885
 1097W        W 4616   4.823   5.635  11.685 -0.2011 -0.2152  0.0126
 1098W        W 4617   2.227   7.869   9.764 -0.3812 -0.0089 -0.3065
 1099W        W 4618   2.045   2.299   8.925 -0.1604  0.0334 -0.2125
 1100W        W 4619   3.703   5.293  10.418 -0.2967  0.1066  0.1327
 1101W        W 4620   4.210   6.541   3.541 -0.2067  0.0314 -0.0183
 1102W        W 4621   6.246   2.590   7.572  0.2772  0.2590 -0.1244
 1103W        W 4622   7.044   0.335   0.917  0.0465  0.0140 -0.1827
 1104W        W 4623   9.018   1.221   2.989 -0.1243  0.1985  0.1036
 1105W        W 4624   8.529   6.318   0.157 -0.0908 -0.0526  0.2962
 1106W        W 4625   7.038   6.943   0.533 -0.2008  0.0085  0.0180
 1107W        W 4626   1.569   1.018   9.923  0.0746 -0.2446 -0.1149
 1108W        W 4627   9.675   2.946   3.622 -0.2483  0.2075  0.1866
 1109W        W 4628   2.261   0.963  12.313  0.0173  0.1339  0.0933
 1110W        W 4629   8.369   3.627  10.850 -0.0477 -0.0900 -0.0506
 1111W        W 4630   1.999   4.370   3.331 -0.3834 -0.0188  0.2452
 1112W        W 4631   2.797   1.480  11.792 -0.1085 -0.3429 -0.0189
 1113W        W 4632   4.067   6.727  10.524 -0.2794  0.1936  0.0446
 1114W        W 4633   3.612   8.979   1.108 -0.1933  0.0552 -0.1518
 1115W        W 4634   0.466   6.498   2.880 -0.3152 -0.3019 -0.3474
 1116W        W 4635   8.573   5.089   0.285 -0.0424  0.1796  0.1130
 1117W        W 4636   7.614   2.046  10.945 -0.0983  0.0816  0.0199
 1118W        W 4637   3.397   5.667  10.220  0.1194 -0.0780  0.0398
 1119W        W 4638   6.615   0.443   9.744 -0.0491 -0.0488  0.1569
 1120W        W 4639   3.780   5.559   3.325  0.3552 -0.0878 -0.0877
 1121W        W 4640   1.300   0.118  10.687 -0.1589  0.1230 -0.4132
 1122W        W 4641   3.429   4.178  12.390 -0.4242 -0.2467 -0.4051
 1123W        W 4642   5.233   3.348   4.241  0.1505  0.0658  0.2702
 1124W        W 4643   0.183   1.448   3.418 -0.1518 -0.4020  0.2486
 1125W        W 4644   6.454   0.583   3.518 -0.2925  0.1742 -0.0120
 1126W        W 4645   9.497   2.586   1.846 -0.2463 -0.0466 -0.1614
 1127W        W 4646   7.929   7.492   1.425  0.1732  0.1504  0.3614
 1128W        W 4647   3.869   1.915   2.814 -0.1093 -0.2363  0.0271
 1129W        W 4648   9.438   9.661   1.593  0.4445  0.1081  0.0810
 1130W        W 4649   6.652   4.468   1.990 -0.1905  0.0017  0.3200
 1131W        W 4650   2.300   7.720  11.713  0.2249 -0.0698 -0.6066
 1132W        W 4651   0.720   7.638   8.361 -0.0774 -0.0009  0.3539
 1133W        W 4652   2.942   1.282   1.779 -0.0232 -0.2030  0.0370
 1134W        W 4653   0.151   8.902  11.663 -0.0557 -0.2565 -0.2673
 1135W        W 4654   2.195   8.513   0.506 -0.2105 -0.2266 -0.0946
 1136W        W 4655   0.074   1.993   2.507 -0.3078  0.0302 -0.0160
 1137W        W 4656   1.070   7.490   2.299 -0.2904 -0.3044  0.1888
 1138W        W 4657   1.008   4.511  12.216 -0.0605  0.1991  0.0470
 1139W        W 4658   7.807   2.595   0.309 -0.1205 -0.2120  0.0339
 1140W        W 4659   8.306   3.478   0.425 -0.3572 -0.2369 -0.1962
 1141W        W 4660   8.620   9.642   3.448 -0.0409  0.0964  0.0768
 1142W        W 4661   1.268   3.125   4.632  0.3205  0.1455 -0.0179
 1143W        W 4662   0.837   2.601  10.017  0.0128 -0.1004  0.2561
 1144W        W 4663   4.639   1.020  11.806  0.1084  0.1697  0.0458
 1145W        W 4664   2.088   9.514   1.491 -0.1465  0.0468  0.0838
 1146W        W 4665   1.894   6.537   0.083 -0.0836 -0.0145 -0.0719
 1147W        W 4666   5.547   9.359   1.613 -0.0452  0.1245  0.2875
 1148W        W 4667   4.245   3.874   0.248 -0.1852 -0.1625 -0.2391
 1149W        W 4668   9.650   0.946   0.720  0.3236 -0.0479  0.2428
 1150W        W 4669   5.730   4.692  10.631 -0.1496  0.1230  0.2806
 1151W        W 4670   7.595   8.402   0.934  0.0056 -0.0807  0.1153
 1152W        W 4671   8.307   4.074   0.485  0.1883  0.3357  0.2228
 1153W        W 4672   4.554   1.355   3.288  0.1450 -0.1710  0.1660
 1154W        W 4673   3.796   5.941  11.805 -0.0398  0.2171  0.0146
 1155W        W 4674   6.780   8.069   5.604 -0.0450 -0.2198 -0.1662
 1156W        W 4675   8.107   0.241  11.375 -0.2709 -0.0206 -0.1612
 1157W        W 4676   8.214   7.237  12.412  0.1588 -0.0261 -0.2204
 1158W        W 4677   6.374   3.039   1.050  0.0433 -0.0865  0.3346
 1159W        W 4678   9.005   2.225  11.812 -0.1798 -0.2469 -0.0412
 1160W        W 4679   4.142   2.445   0.358  0.1245  0.1149 -0.0179
 1161W        W 4680   2.853   3.055   2.235  0.1421  0.1994 -0.0075
 1162W        W 4681   9.181   2.718   8.542 -0.0768  0.0902  0.0514
 1163W        W 4682   8.738   7.970   1.675 -0.0642 -0.0703 -0.5016
 1164W        W 4683   7.341   5.286   0.982  0.1545  0.3874  0.2446
 1165W        W 4684   1.969   8.538  12.195 -0.2503 -0.1486  0.2913
 1166W        W 4685   8.074   8.835   1.327 -0.1248  0.2090 -0.0432
 1167W        W 4686   6.937   2.488  12.398 -0.0271  0.1977  0.1271
 1168W        W 4687   6.902   1.455   2.200 -0.1162 -0.0729  0.2911
 1169W        W 4688   2.490   9.654   8.905  0.1898  0.1722 -0.1183
 1170W        W 4689   5.268   1.536  11.718  0.1581 -0.0045  0.1592
 1171W        W 4690   6.089   2.939   1.615  0.1701 -0.1680  0.4088
 1172W        W 4691   5.374   2.661   8.984  0.1978 -0.0071  0.2744
 1173W        W 4692   5.283   2.253   9.240 -0.0046  0.5053 -0.0688
 1174W        W 4693   0.254   2.278   2.963  0.0082  0.1137 -0.2960
 1175W        W 4694   4.801   8.040   3.225 -0.0801 -0.0102 -0.1701
 1176W        W 4695   0.729   4.865   2.218 -0.2478 -0.0077 -0.0578
 1177W        W 4696   4.183   9.139   8.069  0.1874 -0.2034 -0.0417
 1178W        W 4697   4.088   2.381   9.538  0.1345 -0.1695 -0.0868
 1179W        W 4698   1.121   1.664   8.969 -0.2024  0.1616 -0.1300
 1180W        W 4699   6.975   5.382  10.102  0.1420  0.3138 -0.1362
 1181W        W 4700   8.132   8.020   9.974  0.2468  0.1329  0.0768
 1182W        W 4701   4.215   2.151   2.612  0.0785  0.1214 -0.4075
 1183W        W 4702   2.660   4.524   3.914 -0.2226  0.3729  0.0294
 1184W        W 4703   2.859   5.780  12.138 -0.0636 -0.1172  0.4342
 1185W        W 4704   5.393   5.673  10.279  0.0122 -0.1110  0.0268
 1186W        W 4705   6.432   4.699   9.958  0.1961  0.0892  0.2263
 1187W        W 4706   6.611   5.081  10.257  0.2876  0.0780 -0.2642
 1188W        W 4707   4.851   4.827   8.626  0.0541 -0.0013 -0.1540
 1189W        W 4708   7.906   0.471   8.183 -0.0592  0.1070  0.0761
 1190W        W 4709   3.709   1.538   2.382 -0.0297  0.1806 -0.1159
 1191W        W 4710   2.991   5.421   3.628  0.1711 -0.3053 -0.1623
 1192W        W 4711   5.999   2.476   2.996  0.0495  0.1489  0.0676
 1193W        W 4712   4.682   0.293  10.935  0.0283 -0.2060  0.2861
 1194W        W 4713   1.687   9.387   9.109 -0.2663  0.1142 -0.1554
 1195W        W 4714   8.802   1.094   0.065  0.2588 -0.0969  0.1834
 1196W        W 4715   7.288   9.450  10.796  0.1659 -0.1817 -0.0475
 1197W        W 4716   3.575   0.465   3.292 -0.1197  0.1758 -0.2660
 1198W        W 4717   8.497   1.155   2.754 -0.0519  0.2513  0.1542
 1199W        W 4718   5.112   4.290   2.894 -0.1075 -0.4628  0.1747
 1200W        W 4719   4.286   8.541   1.450 -0.3587  0.1012 -0.2292
 1201W        W 4720   7.155   1.507  12.262 -0.0473 -0.0591  0.0505
 1202W        W 4721   2.074   7.141  10.803 -0.1902 -0.0694 -0.1348
 1203W        W 4722   9.614   7.447   9.967  0.0236  0.1093  0.0919
 1204W        W 4723   3.188   6.519  10.144 -0.1760 -0.2429 -0.0789
 1205W        W 4724   7.117   3.874   3.224  0.0192  0.2513 -0.2402
 1206W        W 4725   0.697   5.267   3.015 -0.5061  0.1190 -0.1028
 1207W        W 4726   6.451   1.654   8.403 -0.2055 -0.3237 -0.1526
 1208W        W 4727   8.603   9.158   2.030 -0.1159  0.0952 -0.1146
 1209W        W 4728   4.694   1.777   8.407  0.2514 -0.1771  0.0719
 1210W        W 4729   0.442   5.727   3.990  0.0947  0.1572 -0.2904
 1211W        W 4730   0.739   3.893   2.769  0.0932 -0.0637 -0.0752
 1212W        W 4731   2.028   3.558   0.108  0.1180  0.0094  0.3922
 1213W        W 4732   5.458   5.123   0.491  0.1156 -0.0797  0.0457
 1214W        W 4733   0.286   6.560   1.954 -0.0232  0.0052  0.3278
 1215W        W 4734   0.530   3.449   9.622  0.0902  0.2657  0.1798
 1216W        W 4735   2.745   2.866  11.760 -0.0707 -0.4383 -0.1860
 1217W        W 4736   0.688   8.603   0.024 -0.0419 -0.2618 -0.4035
 1218W        W 4737   0.062   0.661  10.727  0.0910 -0.1363  0.0523
 1219W        W 4738   3.220   7.011  11.539  0.0615 -0.1914 -0.3906
 1220W        W 4739   5.293   5.708   1.051 -0.0455 -0.0014 -0.1493
 1221W        W 4740   3.223   8.455  12.523  0.0085 -0.1953  0.0386
 1222W        W 4741   4.707   2.073   0.981  0.2947  0.2958 -0.1904
 1223W        W 4742   3.649   8.095   0.160  0.0592 -0.2904 -0.2101
 1224W        W 4743   3.336   0.022  10.330 -0.1738  0.0283  0.3201
 1225W        W 4744   4.330   3.282  10.575  0.1000 -0.1540  0.1576
 1226W        W 4745   3.207   4.943   1.103 -0.0634  0.1415 -0.2378
 1227W        W 4746   1.740   6.582   0.544  0.0516  0.0334 -0.2223
 1228W        W 4747   6.840   9.284  11.099 -0.1046 -0.3475  0.2745
 1229W        W 4748   4.978   2.164   1.502  0.2042 -0.0631 -0.0896
 1230W        W 4749   3.418   5.282   1.975 -0.1385 -0.0884 -0.0303
 1231W        W 4750   3.675   1.783   9.261 -0.0476 -0.1394  0.2372
 1232W        W 4751   7.923   2.577   9.105 -0.2011 -0.1616  0.0804
 1233W        W 4752   0.530   7.061   8.543  0.2715  0.0285 -0.0638
 1234W        W 4753   7.344   2.336   3.707  0.1437  0.0628 -0.0359
 1235W        W 4754   9.130   6.562   1.302  0.0244  0.0856  0.1519
 1236W        W 4755   2.806   7.311   2.860  0.0177 -0.1065 -0.0857
 1237W        W 4756   0.441   5.898  10.637  0.2330 -0.0367  0.5791
 1238W        W 4757   3.563   7.531   0.390  0.0953 -0.1420 -0.0568
 1239W        W 4758   7.300   7.361   9.477 -0.0139 -0.1647 -0.0199
 1240W        W 4759   2.763   3.641   9.180  0.0406 -0.0142  0.1820
 1241W        W 4760   7.872   5.362   8.714  0.0085 -0.0853 -0.3543
 1242W        W 4761   9.342   0.115   0.313  0.0919 -0.1515 -0.0432
 1243W        W 4762   4.242   2.505   3.003 -0.1424 -0.0192  0.3613
 1244W        W 4763   6.490   2.224   3.582  0.1682  0.0143 -0.3642
 1245W        W 4764   4.425   8.097   0.158  0.2759 -0.0589 -0.1353
 1246W        W 4765   0.933   2.660  11.260 -0.0201  0.1923 -0.2340
 1247W        W 4766   3.693   1.858  11.175 -0.0234  0.1078  0.1426
 1248W        W 4767   4.650   0.796  10.819  0.3921  0.1213 -0.2246
 1249W        W 4768   0.704   7.523   2.612  0.0226 -0.1408 -0.0803
 1250W        W 4769   2.670   4.362   4.413 -0.1680 -0.0074  0.0544
 1251W        W 4770   7.941   8.095   0.604  0.1526 -0.0298 -0.2014
 1252W        W 4771   5.458   2.191  10.467  0.1170 -0.1029  0.2308
 1253W        W 4772   2.012   1.902   2.640  0.1878 -0.2356 -0.0832
 1254W        W 4773   9.566   5.078  12.072  0.5582  0.0849  0.0101
 1255W        W 4774   6.633   3.131   3.698  0.3590  0.0603 -0.0857
 1256W        W 4775   5.652   6.526   5.994 -0.2217  0.1463  0.0298
 1257W        W 4776   5.661   0.236   0.963  0.1011 -0.2934 -0.1892
 1258W        W 4777   1.672   0.052   4.283 -0.1723 -0.6212 -0.0405
 1259W        W 4778   9.583   1.702   8.529 -0.2803 -0.1551  0.2143
 1260W        W 4779   2.472   9.108  10.863 -0.0304 -0.2070  0.0656
 1261W        W 4780   8.729   5.552   8.799  0.2596  0.0125 -0.0537
 1262W        W 4781   5.597   3.048   1.667 -0.1872  0.0524 -0.1578
 1263W        W 4782   3.747   9.710   0.923  0.2386 -0.1223 -0.0147
 1264W        W 4783   3.549   5.193   2.563  0.0263 -0.2971  0.0597
 1265W        W 4784   3.082   6.684  10.681  0.1793  0.0504 -0.1515
 1266W        W 4785   0.695   1.354   9.362  0.0314 -0.1524 -0.2410
 1267W        W 4786   5.746   8.696  10.508 -0.0432  0.1637  0.0455
 1268W        W 4787   7.486   1.698   8.872  0.1933 -0.1793  0.0121
 1269W        W 4788   0.757   2.202   9.270 -0.0567 -0.2626 -0.1452
 1270W        W 4789   0.093   8.602  12.147 -0.0780 -0.4529  0.0954
 1271W        W 4790   1.373   7.129   1.495 -0.1516  0.1847 -0.1498
 1272W        W 4791   0.795   3.149   9.919 -0.1641 -0.1395 -0.2256
 1273W        W 4792   8.959   6.400   5.191  0.0515 -0.0002  0.1026
 1274W        W 4793   5.126   6.805   2.787  0.1674 -0.2856 -0.1422
 1275W        W 4794   4.600   3.054   9.988 -0.2277  0.1143  0.1446
 1276W        W 4795   6.039   9.398  10.919 -0.0930  0.1355  0.2878
 1277W        W 4796   3.037   4.128   1.448  0.0770 -0.1749 -0.1685
 1278W        W 4797   6.391   8.489   9.739  0.1202 -0.3366 -0.1122
 1279W        W 4798   6.876   2.195   2.801 -0.0024 -0.0716  0.0456
 1280W        W 4799   5.025   1.219  11.438  0.2718  0.0455  0.0768
 1281W        W 4800   2.224   4.874   3.172 -0.0275 -0.2477  0.0109
 1282W        W 4801   1.104   0.095   2.346 -0.1225 -0.2542  0.0903
 1283W        W 4802   9.405   4.057  12.182  0.5901 -0.3767 -0.2803
 1284W        W 4803   9.120   6.991   2.637 -0.2877 -0.0030 -0.0434
 1285W        W 4804   3.057   4.034   8.864  0.0960 -0.3153 -0.1660
 1286W        W 4805   7.211   7.028   9.103  0.2148  0.2481  0.0814
 1287W        W 4806   6.858   4.765   2.346  0.0616  0.1798  0.0440
 1288W        W 4807   8.310   8.886   8.812  0.3722 -0.0129  0.1401
 1289W        W 4808   9.337   2.807  10.226  0.1296 -0.2267 -0.1600
 1290W        W 4809   8.491   3.928   3.401 -0.3251  0.3048 -0.0874
 1291W        W 4810   9.642   7.330  10.891  0.3164  0.0673 -0.3172
 1292W        W 4811   9.576   0.180   2.105  0.1186 -0.0048 -0.1060
 1293W        W 4812   2.073   3.221   9.932  0.0159  0.2228 -0.3105
 1294W        W 4813   2.292   6.859  12.530  0.0368  0.1751  0.1003
 1295W        W 4814   0.163   0.835  10.243  0.4037 -0.0768 -0.1814
 1296W        W 4815   3.109   5.830  11.090 -0.0586  0.0833  0.2405
 1297W        W 4816   5.505   5.406   0.039  0.3146  0.2055  0.1872
 1298W        W 4817   2.953   6.135   1.193  0.2023 -0.3975  0.0635
 1299W        W 4818   7.412   1.572   0.319 -0.2556  0.0814 -0.1224
 1300W        W 4819   4.852   9.005  11.452 -0.0983 -0.0101 -0.0772
 1301W        W 4820   1.207   0.808   4.078 -0.0515  0.1904  0.1464
 1302W        W 4821   5.809   1.635  12.438  0.0254  0.2928  0.0841
 1303W        W 4822   2.105   5.240   0.620  0.1900 -0.0299 -0.2898
 1304W        W 4823   5.169   1.253   2.470  0.0586 -0.4327 -0.1261
 1305W        W 4824   8.995   7.878  11.024 -0.0224  0.1173  0.1470
 1306W        W 4825   9.563   5.561  11.220 -0.1528 -0.3518 -0.2227
 1307W        W 4826   0.167   2.915   2.232  0.0544 -0.1684 -0.0068
 1308W        W 4827   5.445   6.169   3.599  0.0739 -0.1168  0.1981
 1309W        W 4828   3.819   5.609   3.808 -0.1023 -0.0302  0.2283
 1310W        W 4829   8.688   2.400  10.293  0.0498  0.1569  0.1259
 1311W        W 4830   1.021   4.271   9.191  0.0449  0.3916 -0.1716
 1312W        W 4831   7.872   0.809   9.867 -0.2831 -0.0524 -0.2426
 1313W        W 4832   5.655   5.419   8.357 -0.1907  0.3294 -0.1406
 1314W        W 4833   0.394   3.279  11.684  0.0323  0.4103  0.1092
 1315W        W 4834   4.586   2.454   1.351  0.1388 -0.0473  0.4532
 1316W        W 4835   4.059   4.615  12.222 -0.0831 -0.0697  0.1478
 1317W        W 4836   0.354   0.309   3.876 -0.2944 -0.0494  0.2056
 1318W        W 4837   8.139   8.403   2.876 -0.0032 -0.0516  0.1208
 1319W        W 4838   8.732   4.721  10.747 -0.0734  0.2971 -0.1830
 1320W        W 4839   5.486   6.127   3.070 -0.0221 -0.0962 -0.0374
 1321W        W 4840   3.465   4.098   1.252 -0.0318 -0.0834 -0.1877
 1322W        W 4841   4.752   3.476   1.754  0.0286  0.1148 -0.1345
 1323W        W 4842   3.444   0.322   2.163 -0.1009  0.0613  0.2685
 1324W        W 4843   5.655   6.021   0.730 -0.0415 -0.0672 -0.0841
 1325W        W 4844   2.165   0.983  11.762 -0.1473 -0.0306 -0.4161
 1326W        W 4845   5.658   1.674   1.580 -0.0829 -0.0710  0.0277
 1327W        W 4846   2.671   9.469  12.151 -0.2345  0.0999  0.3989
 1328W        W 4847   4.802   6.520   3.074 -0.1653  0.1620  0.0429
 1329W        W 4848   7.702   9.109   2.720 -0.0859 -0.2424 -0.1295
 1330W        W 4849   4.398   8.997  10.594  0.1053 -0.1721  0.1227
 1331W        W 4850   5.715   4.177  11.364 -0.1912  0.3858 -0.0746
 1332W        W 4851   4.189   9.255  10.143 -0.1912 -0.0144 -0.0220
 1333W        W 4852   6.347   0.120   1.654 -0.0917 -0.1920  0.1470
 1334W        W 4853   5.092   5.679   3.141 -0.1110  0.2836 -0.2600
 1335W        W 4854   3.359   6.010  11.482 -0.2289  0.2242  0.0584
 1336W        W 4855   7.112   1.721   2.577  0.0415  0.0199 -0.2543
 1337W        W 4856   0.104   5.305   8.562  0.2686  0.2980 -0.0606
 1338W        W 4857   6.115   1.252   2.254 -0.1047 -0.1890  0.2075
 1339W        W 4858   5.918   6.182   9.450 -0.2885 -0.2445  0.0065
 1340W        W 4859   8.591   7.641   9.374 -0.1066  0.1484  0.0737
 1341W        W 4860   2.906   0.916   4.247  0.0789  0.1847 -0.1660
 1342W        W 4861   6.802   0.159   2.893  0.0203 -0.0146 -0.0372
 1343W        W 4862   7.634   5.487  11.637  0.3454  0.1585 -0.1605
 1344W        W 4863   9.288   7.340   4.057 -0.0326  0.1239 -0.0654
 1345W        W 4864   7.877   9.261   2.097  0.3045 -0.0375 -0.1519
 1346W        W 4865   9.054   1.525   0.212 -0.0701  0.2371 -0.0216
 1347W        W 4866   8.682   1.262   9.430  0.0829 -0.1012 -0.1476
 1348W        W 4867   8.963   4.989   3.394  0.2009 -0.1226 -0.3792
 1349W        W 4868   7.280   5.620  10.427  0.0353  0.1776 -0.1181
 1350W        W 4869   7.495   7.324   2.907  0.0067 -0.1566  0.1457
 1351W        W 4870   1.164   2.676   1.480 -0.1300 -0.0597 -0.1354
 1352W        W 4871   9.023   4.496   3.923  0.0477 -0.0647 -0.1053
 1353W        W 4872   9.394   2.558  11.321  0.1931  0.2781 -0.0753
 1354W        W 4873   9.002   5.769   9.636  0.2590  0.1223 -0.2069
 1355W        W 4874   8.139   8.480   0.905  0.1076 -0.0041  0.2380
 1356W        W 4875   9.001   3.120   9.529 -0.2633 -0.0075 -0.2176
 1357W        W 4876   2.545   5.531  10.608  0.2217  0.0985  0.1516
 1358W        W 4877   7.669   8.344   9.370 -0.1962  0.0785 -0.1930
 1359W        W 4878   6.886   9.297  12.170 -0.0255  0.1979 -0.4701
 1360W        W 4879   9.063   1.628   8.679  0.1167 -0.1134 -0.0008
 1361W        W 4880   3.211   2.313   1.575  0.2074 -0.2433 -0.0679
 1362W        W 4881   6.152   7.219  11.516  0.2405  0.0087  0.2891
 1363W        W 4882   4.834   8.856  12.129  0.0201  0.1549 -0.0539
 1364W        W 4883   4.108   0.029   0.554  0.0021 -0.1280 -0.1025
 1365W        W 4884   5.520   2.210   1.556 -0.0455 -0.1453  0.0220
 1366W        W 4885   5.538   7.197  10.825 -0.4809 -0.0563 -0.1830
 1367W        W 4886   7.873   3.278   2.957  0.0823 -0.4207  0.0633
 1368W        W 4887   7.735   4.489   3.560 -0.0136 -0.2832  0.3014
 1369W        W 4888   9.547   8.138   9.219  0.0600  0.4959  0.0417
 1370W        W 4889   2.559   3.258   8.976 -0.0358  0.2869  0.1727
 1371W        W 4890   8.564   6.416   8.644 -0.0936  0.2946 -0.1325
 1372W        W 4891   5.123   6.279   2.746 -0.1064  0.1087  0.0419
 1373W        W 4892   4.163   4.696   2.053 -0.2397  0.2714  0.3343
 1374W        W 4893   8.812   2.864   1.451 -0.0787 -0.4021 -0.3917
 1375W        W 4894   6.299   6.601  12.134 -0.0249 -0.0026 -0.3868
 1376W        W 4895   3.762   4.106  12.022 -0.1637  0.0949  0.0937
 1377W        W 4896   6.191   4.148   3.074  0.0175 -0.1241  0.1958
 1378W        W 4897   4.574   0.789   3.259  0.0242 -0.0028  0.1501
 1379W        W 4898   6.253   2.724  10.597  0.2776 -0.0062  0.1595
 1380W        W 4899   2.557   7.733   0.601  0.2123 -0.0704 -0.0041
 1381W        W 4900   8.358   1.096   9.011  0.2208  0.2404  0.1941
 1382W        W 4901   7.556   5.302  10.689  0.3349  0.3106 -0.1087
 1383W        W 4902   9.297   0.678  10.064  0.0500  0.1043  0.0136
 1384W        W 4903   2.846   9.370  11.650 -0.0974 -0.1280 -0.3314
 1385W        W 4904   8.114   0.864  10.851  0.2028  0.0763 -0.1802
 1386W        W 4905   4.758   9.045   0.512  0.2085  0.0979  0.0945
 1387W        W 4906   0.120   8.576   9.937  0.4777  0.1721 -0.1095
 1388W        W 4907   7.511   5.789   1.242 -0.2032 -0.2981  0.0895
 1389W        W 4908   8.907   5.010   8.798 -0.1115  0.2442 -0.0124
 1390W        W 4909   7.270   0.307   2.996 -0.0902 -0.0359 -0.2865
 1391W        W 4910   0.592   3.439   8.381  0.2467  0.0834  0.0857
 1392W        W 4911   4.689   1.590   0.704 -0.2785  0.0915 -0.0933
 1393W        W 4912   6.682   6.843  11.504 -0.0605  0.2834  0.1462
 1394W        W 4913   2.716   8.858  11.311  0.0127  0.0906  0.1070
 1395W        W 4914   2.090   2.330  11.853 -0.1454 -0.1173  0.1203
 1396W        W 4915   8.759   3.862   3.011  0.0752  0.0640 -0.1864
 1397W        W 4916   2.398   1.175   1.872  0.1724 -0.2561  0.1007
 1398W        W 4917   3.851   7.301   1.136  0.1456  0.0618  0.2498
 1399W        W 4918   1.667   2.714  12.183  0.0850 -0.2357  0.0697
 1400W        W 4919   0.000   0.343   8.593 -0.3008  0.1270  0.2200
 1401W        W 4920   5.325   6.592   3.261  0.0330  0.3328 -0.1370
 1402W        W 4921   9.339   2.836   2.273  0.1801  0.1732 -0.0260
 1403W        W 4922   2.057   6.159   0.608  0.2325  0.0262  0.0952
 1404W        W 4923   9.309   8.835   9.715  0.0273  0.0959 -0.1935
 1405W        W 4924   7.438   9.414   2.497  0.0675 -0.2239  0.5799
 1406W        W 4925   7.969   1.293   1.519  0.2457  0.2368 -0.0657
 1407W        W 4926   7.769   9.504   3.026 -0.0124  0.3563  0.1087
 1408W        W 4927   8.515   8.129   2.206  0.2933  0.0681 -0.4067
 1409W        W 4928   1.762   7.493   0.009  0.1095 -0.1021  0.0029
 1410W        W 4929   8.408   3.397  11.822 -0.0905  0.3623 -0.3095
 1411W        W 4930   2.291   0.398   9.038 -0.2760 -0.3080 -0.1316
 1412W        W 4931   8.236   4.860   3.505 -0.1407 -0.1849 -0.0422
 1413W        W 4932   1.249   7.583   1.770  0.0566  0.2188 -0.0611
 1414W        W 4933   9.472   4.449  10.413 -0.3501  0.0346  0.0314
 1415W        W 4934   7.814   0.528   0.948 -0.1171  0.1611  0.0911
 1416W        W 4935   8.395   4.693  11.543  0.0849 -0.1152 -0.3121
 1417W        W 4936   8.412   8.358  11.670 -0.0276  0.4605 -0.1230
 1418W        W 4937   4.162   5.934   3.555 -0.3040 -0.5371  0.0105
 1419W        W 4938   6.551   4.098   9.864 -0.1580 -0.2225  0.1456
 1420W        W 4939   0.428   0.769   1.910 -0.1280  0.2291  0.3050
 1421W        W 4940   1.745   6.292   2.632 -0.0906  0.2888  0.0176
 1422W        W 4941   4.705   5.661   1.000  0.2372  0.0117 -0.0688
 1423W        W 4942   2.787   2.165   8.692 -0.2962 -0.0121  0.0345
 1424W        W 4943   8.568   0.204   2.441 -0.0372  0.1815 -0.0022
 1425W        W 4944   9.575   2.407   8.564 -0.0863 -0.3306  0.1057
 1426W        W 4945   3.047   7.426   2.030  0.4176 -0.4047  0.0267
 1427W        W 4946   2.514   2.542  12.020  0.3417 -0.0983 -0.1482
 1428W        W 4947   2.246   5.653   1.461 -0.0117 -0.2050 -0.1021
 1429W        W 4948   6.529   6.543   1.984  0.0689 -0.0652 -0.3349
 1430W        W 4949   7.443   0.861   0.979 -0.0168 -0.1004  0.1166
 1431W        W 4950   7.526   4.636  11.834 -0.1251  0.0972 -0.1441
 1432W        W 4951   1.714   1.848   9.240  0.0625 -0.3836 -0.3856
 1433W        W 4952   0.075   6.263  11.782  0.3140  0.0092 -0.1679
 1434W        W 4953   7.302   7.809  11.912 -0.0303  0.0795 -0.0610
 1435W        W 4954   8.291   4.670   0.097  0.2397 -0.0939  0.1239
 1436W        W 4955   3.892   3.827   4.191  0.1827 -0.3286 -0.2101
 1437W        W 4956   1.535   3.057   2.817 -0.1647 -0.2729  0.0112
 1438W        W 4957   4.826   1.054   3.634  0.0617  0.0168  0.1130
 1439W        W 4958   2.724   0.775   1.794  0.3995 -0.0114  0.3853
 1440W        W 4959   0.884   6.103   2.764  0.1182  0.0715  0.3152
 1441W        W 4960   9.032   6.878   2.142 -0.4185  0.1712  0.0511
 1442W        W 4961   5.943   8.340   3.152  0.1218 -0.1378 -0.2006
 1443W        W 4962   1.253   9.012   3.547 -0.4090 -0.1428  0.1133
 1444W        W 4963   8.849   7.722  11.457 -0.3602  0.3615 -0.1454
 1445W        W 4964   1.823   5.020   1.955  0.2002  0.4359  0.0693
 1446W        W 4965   3.497   7.529   0.874 -0.0083 -0.1383 -0.1062
 1447W        W 4966   1.577   9.506  12.237  0.0325 -0.0339  0.1297
 1448W        W 4967   5.549   8.489  11.805 -0.1539 -0.1531 -0.0652
 1449W        W 4968   0.400   2.397   9.832  0.1776 -0.5293  0.1237
 1450W        W 4969   7.902   3.770  10.878  0.2133 -0.1326  0.2478
 1451W        W 4970   1.119   6.654   9.917  0.0553 -0.1552 -0.0007
 1452W        W 4971   0.386   9.543  10.753 -0.1196 -0.2304 -0.0591
 1453W        W 4972   4.432   1.949   3.830 -0.0718  0.1294  0.1075
 1454W        W 4973   5.370   6.298   0.191 -0.2172  0.0766  0.0778
 1455W        W 4974   3.348   6.623   9.673 -0.1164  0.1375  0.1608
 1456W        W 4975   7.467   9.435   0.271 -0.1368 -0.0572  0.0131
 1457W        W 4976   9.332   4.461   9.458  0.0227  0.0674 -0.1913
 1458W        W 4977   6.491   8.098  11.464  0.0560 -0.3705  0.0520
 1459W        W 4978   1.874   7.677  12.133 -0.0499 -0.3532 -0.0995
 1460W        W 4979   9.668   1.620  10.356 -0.1305 -0.0123  0.0367
 1461W        W 4980   5.851   4.967  12.032  0.0589  0.2474 -0.0523
 1462W        W 4981   7.504   2.750   8.790  0.3046 -0.0680  0.0139
 1463W        W 4982   3.412   7.258  12.024 -0.2462  0.1650  0.0222
 1464W        W 4983   4.793   2.630   1.846  0.2039 -0.4168  0.0032
 1465W        W 4984   9.107   1.735   1.603 -0.0603 -0.0005  0.2843
 1466W        W 4985   5.741   6.735  10.084 -0.0358  0.0500  0.2859
 1467W        W 4986   1.067   1.495   3.928  0.3700  0.0298  0.1450
 1468W        W 4987   9.314   7.483  11.661  0.1143 -0.1403  0.0729
 1469W        W 4988   1.276   3.348   3.113  0.0026  0.3270 -0.0350
 1470W        W 4989   3.270   6.861   0.488 -0.0801 -0.0192 -0.2264
 1471W        W 4990   9.135   6.222  11.930  0.0347  0.2520  0.0159
 1472W        W 4991   1.992   0.925   0.704  0.2736 -0.0442 -0.1939
 1473W        W 4992   2.305   1.412  10.735  0.1751 -0.1175 -0.2170
 1474W        W 4993   2.326   5.042  12.451 -0.2195 -0.1553  0.1037
 1475W        W 4994   7.698   6.418  10.697 -0.0280 -0.0477 -0.0811
 1476W        W 4995   8.236   4.524   4.387 -0.1148 -0.0244 -0.3039
 1477W        W 4996   1.312   5.255  12.558 -0.0985 -0.0075 -0.3279
 1478W        W 4997   0.609   0.087  12.184  0.0015 -0.2450 -0.0205
 1479W        W 4998   0.174   9.447   9.175 -0.0914  0.1142 -0.0610
 1480W        W 4999   7.431   3.971   0.429  0.0795  0.0607  0.0632
 1481W        W 5000   1.532   4.224   2.055 -0.4161 -0.2108  0.0356
 1482W        W 5001   5.657   5.528   0.780 -0.0743  0.5060 -0.2270
 1483W        W 5002   6.619   9.674  10.122 -0.0631  0.0556 -0.0541
 1484W        W 5003   0.766   6.961   2.750  0.2779 -0.0331  0.3781
 1485W        W 5004   5.093   0.205  12.222 -0.1066 -0.0248  0.1257
 1486W        W 5005   9.266   5.150   1.324  0.0396 -0.2243  0.7124
 1487W        W 5006   1.229   7.483  11.361 -0.0326 -0.3626  0.1265
 1488W        W 5007   4.102   4.334   0.476 -0.0488 -0.0070  0.1074
 1489W        W 5008   5.711   7.605  11.159 -0.2100 -0.0601  0.6058
 1490W        W 5009   3.531   1.305  10.527 -0.1525  0.2603  0.1229
 1491W        W 5010   7.909   1.431   0.563  0.3649  0.1229 -0.3637
 1492W        W 5011   8.838   3.474   2.035 -0.0521 -0.0090 -0.1281
 1493W        W 5012   2.738   3.840  11.217 -0.0233  0.1102 -0.1702
 1494W        W 5013   1.875   1.315   1.898 -0.2944  0.0754  0.0862
 1495W        W 5014   0.580   6.398   2.390 -0.1377  0.1587 -0.4638
 1496W        W 5015   2.911   8.429   9.961  0.0394  0.1229  0.1828
 1497W        W 5016   7.446   6.705   3.703 -0.1978  0.1226  0.1698
 1498W        W 5017   4.021   0.731   3.300 -0.1297  0.1582  0.2549
 1499W        W 5018   2.972   1.816   4.438  0.1047 -0.1514 -0.0673
 1500W        W 5019   6.269   9.613   0.943 -0.1156  0.0493  0.0694
 1501W        W 5020   7.981   7.998   1.184  0.1607  0.0648 -0.1289
 1502W        W 5021   8.495   5.938  11.121  0.0115 -0.0603 -0.0248
 1503W        W 5022   3.729   8.289   2.252  0.1679  0.2002 -0.0525
 1504W        W 5023   6.132   0.043  11.573 -0.1457  0.0561 -0.0319
 1505W        W 5024   9.698   3.699   0.476  0.2509  0.1303  0.1713
 1506W        W 5025   5.310   3.332  10.910 -0.1492  0.1829  0.1498
 1507W        W 5026   9.168   2.045   8.436 -0.2488 -0.1263 -0.1473
 1508W        W 5027   2.229   0.246  11.262 -0.0136  0.0568 -0.0077
 1509W        W 5028   2.314   0.994   2.703 -0.0846  0.0401 -0.1364
 1510W        W 5029   2.638   7.618  12.083  0.1274  0.0503  0.1358
 1511W        W 5030   6.943   2.775  11.399  0.1088 -0.1547 -0.0797
 1512W        W 5031   7.979   9.625   8.468  0.1084 -0.1790 -0.0009
 1513W        W 5032   7.546   2.208  11.501 -0.1055 -0.1285 -0.1792
 1514W        W 5033   6.504   3.675  11.584  0.0259  0.0261 -0.0362
 1515W        W 5034   1.903   8.250  11.066 -0.1463 -0.1303  0.1927
 1516W        W 5035   7.222   1.998   0.476  0.0060  0.0365  0.3508
 1517W        W 5036   6.330   4.834   2.754 -0.0352 -0.0785 -0.0282
 1518W        W 5037   1.267   1.727  11.058 -0.2204 -0.2032  0.1465
 1519W        W 5038   2.780   3.547   0.649 -0.2541 -0.0189  0.0210
 1520W        W 5039   6.119   1.010   3.506 -0.3626 -0.0129  0.0909
 1521W        W 5040   1.219   4.485   2.375 -0.0762 -0.0399 -0.0286
 1522W        W 5041   6.139   9.617  12.193  0.1910  0.1465 -0.0331
 1523W        W 5042   5.724   2.665   2.614 -0.0052 -0.1938 -0.1745
 1524W        W 5043   6.105   3.363  10.566 -0.0142  0.2204 -0.2904
 1525W        W 5044   1.159   8.234   3.707 -0.1093 -0.5133 -0.0802
 1526W        W 5045   4.151   3.670  11.819 -0.1130 -0.1454  0.0779
 1527W        W 5046   6.656   9.234   2.537 -0.1233  0.1875 -0.3367
 1528W        W 5047   4.952   4.337   4.258 -0.2257  0.1967 -0.3991
 1529W        W 5048   2.686   3.193   8.481 -0.1885 -0.1386 -0.0052
 1530W        W 5049   6.787   7.809  11.103  0.0634  0.1229  0.0990
 1531W        W 5050   0.925   6.878   1.639  0.0558 -0.1480 -0.4375
 1532W        W 5051   1.823   8.532   2.534 -0.2242 -0.0812 -0.1090
 1533W        W 5052   1.022   9.482   3.662 -0.2158 -0.0983  0.1025
 1534W        W 5053   4.749   7.074   2.938  0.2229 -0.3576 -0.1705
 1535W        W 5054   9.110   8.480  11.112 -0.2228  0.0469  0.0194
 1536W        W 5055   9.485   1.120   3.621 -0.4768 -0.0711 -0.1109
 1537W        W 5056   7.620   0.735   0.010  0.2647 -0.2020  0.0445
 1538W        W 5057   7.564   4.045  10.662  0.0346  0.1323  0.1436
 1539W        W 5058   0.069   7.440  10.446 -0.1584 -0.0917 -0.1266
 1540W        W 5059   4.036   0.231  12.351  0.1221  0.2690  0.0203
 1541W        W 5060   7.989   4.569   3.097  0.2196 -0.4465 -0.0509
 1542W        W 5061   8.696   6.696  12.358  0.2059 -0.1114  0.0089
 1543W        W 5062   8.500   1.275   9.912  0.0911  0.1017 -0.3227
 1544W        W 5063   5.913   9.167   0.324  0.1677 -0.1556  0.0107
 1545W        W 5064   2.721   1.090   3.041 -0.3309 -0.0939 -0.3551
 1546W        W 5065   7.574   0.355   9.997 -0.1816 -0.0190  0.2097
 1547W        W 5066   0.944   0.783   4.597 -0.0078 -0.2435  0.1482
 1548W        W 5067   9.306   6.761   0.698  0.0909 -0.1872 -0.1082
 1549W        W 5068   6.224   0.177   0.352 -0.2203  0.1291 -0.0814
 1550W        W 5069   6.025   6.153   0.388  0.0946  0.2566 -0.0163
 1551W        W 5070   1.728   8.154  12.021 -0.1267  0.2419 -0.0531
 1552W        W 5071   5.015   0.756   8.466 -0.1868 -0.2726  0.1450
 1553W        W 5072   0.319   1.650  10.761  0.1086 -0.1247 -0.0091
 1554W        W 5073   2.847   3.985   3.466 -0.3140  0.0725 -0.1999
 1555W        W 5074   1.471   1.437  10.684 -0.0012 -0.0136 -0.0440
 1556W        W 5075   6.736   3.937  11.971  0.3477  0.0272 -0.3823
 1557W        W 5076   8.711   2.221   9.323 -0.1888 -0.1029  0.0848
 1558W        W 5077   7.926   9.588   2.516 -0.1131  0.0538  0.2370
 1559W        W 5078   4.098   9.086   1.318 -0.2217  0.0073  0.0577
 1560W        W 5079   8.234   9.308   1.667  0.0021 -0.1085  0.0085
 1561W        W 5080   0.364   9.113   4.311  0.0082 -0.1267  0.2806
 1562W        W 5081   0.809   3.436   3.003  0.4495  0.1296 -0.0377
 1563W        W 5082   2.823   1.907   1.243 -0.2558 -0.2124 -0.0253
 1564W        W 5083   0.001   3.476  11.466  0.0158  0.1289  0.0516
 1565W        W 5084   4.458   5.408   2.055 -0.0886  0.3411 -0.3104
 1566W        W 5085   7.728   1.658   3.310 -0.2790 -0.2619  0.1595
 1567W        W 5086   7.994   3.082   0.323  0.0487 -0.0444  0.0361
 1568W        W 5087   9.366   6.760   3.137 -0.0694  0.0321  0.2077
 1569W        W 5088   6.773   0.329   2.065  0.3053 -0.0439  0.1150
 1570W        W 5089   7.830   5.416   2.037 -0.0857 -0.3293 -0.1385
 1571W        W 5090   4.844   6.833  11.254  0.1312  0.2761 -0.1526
 1572W        W 5091   8.261   6.787   4.149 -0.1657  0.0903 -0.1220
 1573W        W 5092   4.278   1.200   0.153  0.1630  0.0599  0.3099
 1574W        W 5093   1.259   9.026   0.781  0.1793  0.0531 -0.0830
 1575W        W 5094   1.942   3.262   2.624 -0.2308  0.1948 -0.0508
 1576W        W 5095   2.111   3.367  11.871  0.1106 -0.1974 -0.0235
 1577W        W 5096   0.906   4.972  12.308 -0.3069  0.3049 -0.2077
 1578W        W 5097   8.531   0.787   3.543  0.0202  0.4892 -0.0758
 1579W        W 5098   9.063   0.587   0.306 -0.3592  0.0832 -0.1370
 1580W        W 5099   6.306   7.020   2.293 -0.0924 -0.2877  0.4250
 1581W        W 5100   0.316   0.750   8.656 -0.0135 -0.1005  0.2324
 1582W        W 5101   6.452   4.644   3.184 -0.1082 -0.1887 -0.1013
 1583W        W 5102   8.482   6.694   9.509  0.1392  0.1465 -0.4164
 1584W        W 5103   7.681   6.292   8.760  0.2986  0.0676 -0.2393
 1585W        W 5104   6.391   7.585  11.132  0.2233 -0.1041 -0.0735
 1586W        W 5105   5.973   7.725  10.755  0.2564 -0.2237 -0.0651
 1587W        W 5106   8.468   8.057   4.706 -0.2488 -0.1553  0.2708
 1588W        W 5107   0.176   2.300   4.336 -0.1936  0.2022  0.1487
 1589W        W 5108   1.845   3.613   2.186  0.2409 -0.1146  0.1618
 1590W        W 5109   4.598   9.504   2.250 -0.0920  0.1631 -0.1072
 1591W        W 5110   7.363   6.516   4.195  0.3315 -0.1613  0.0102
 1592W        W 5111   8.942   8.284   3.820 -0.2223 -0.1480  0.2900
 1593W        W 5112   2.777   6.826  11.635 -0.3054 -0.0549  0.0350
 1594W        W 5113   1.998   5.247   3.716 -0.0276  0.0922 -0.1424
 1595W        W 5114   5.155   5.228  10.247  0.1764 -0.2464 -0.2002
 1596W        W 5115   5.132   3.724   0.263 -0.2531 -0.0299 -0.2899
 1597W        W 5116   2.562   0.734   8.721  0.1396  0.1145 -0.0236
 1598W        W 5117   3.138   8.044   0.155 -0.0084  0.0660 -0.5365
 1599W        W 5118   5.414   2.776   1.213 -0.0139  0.0996 -0.3767
 1600W        W 5119   8.212   9.033   2.376  0.0302  0.0201  0.1426
 1601W        W 5120   9.393   1.589   4.409 -0.1310  0.0515  0.0086
 1602W        W 5121   5.885   1.143   9.646 -0.1315 -0.0294 -0.1621
 1603W        W 5122   8.709   8.640   8.812 -0.4882  0.1832  0.3888
 1604W        W 5123   9.027   6.275   8.510  0.0484 -0.1079 -0.0192
 1605W        W 5124   5.444   0.595  12.320  0.1272  0.1915 -0.5210
 1606W        W 5125   9.099   4.699   1.577 -0.1530 -0.2003  0.0495
 1607W        W 5126   4.246   6.218  11.659  0.0002  0.1984 -0.1501
 1608W        W 5127   8.910   7.406   3.780 -0.0082 -0.2944  0.0048
 1609W        W 5128   0.609   0.066   9.899 -0.0056  0.0893  0.1111
 1610W        W 5129   2.157   8.274  10.097 -0.0403 -0.0288  0.0287
 1611W        W 5130   9.652   2.541  10.734  0.0412  0.0423 -0.3111
 1612W        W 5131   1.597   7.469   4.323 -0.1825 -0.3848  0.1864
 1613W        W 5132   4.549   5.629   4.315  0.0611  0.0037 -0.0676
 1614W        W 5133   1.767   5.663   8.454  0.2062  0.1370  0.1644
 1615W        W 5134   4.787   1.594   3.639 -0.1779 -0.1490 -0.0112
 1616W        W 5135   3.795   6.973  10.835  0.0609 -0.1277 -0.2943
 1617W        W 5136   1.059   4.354   2.803 -0.0976  0.0536  0.2459
 1618W        W 5137   5.130   3.653   3.470  0.1446 -0.2258 -0.0337
 1619W        W 5138   4.005   1.790   9.963  0.3341  0.3056 -0.1969
 1620W        W 5139   5.288   1.708   8.596  0.0329 -0.1444  0.2671
 1621W        W 5140   0.095   7.230   9.312  0.0355 -0.1103  0.1058
 1622W        W 5141   6.855   6.170   1.595 -0.1263 -0.1460  0.2169
 1623W        W 5142   9.060   4.725   1.101 -0.3658 -0.0815  0.1802
 1624W        W 5143   0.258   6.310   1.143 -0.0660 -0.1722  0.2467
 1625W        W 5144   3.914   3.586   9.775 -0.0397  0.0548  0.0964
 1626W        W 5145   8.364   3.543  10.089  0.1453  0.2529 -0.1768
 1627W        W 5146   3.487   2.648  10.653  0.1923  0.2784  0.1764
 1628W        W 5147   7.427   1.200   1.466  0.0508  0.0899 -0.0484
 1629W        W 5148   3.290   2.423   9.587  0.4759  0.4034  0.0752
 1630W        W 5149   5.303   4.764  11.515 -0.0223 -0.0328 -0.2654
 1631W        W 5150   4.008   5.060  12.385  0.1786 -0.1492  0.1055
 1632W        W 5151   8.037   8.728  10.739 -0.0860 -0.2545  0.0346
 1633W        W 5152   5.432   9.133   2.106 -0.1366  0.2562 -0.2610
 1634W        W 5153   5.639   1.500   1.119 -0.3439  0.1204  0.0452
 1635W        W 5154   1.296   4.863   9.815  0.0898 -0.0310  0.0798
 1636W        W 5155   8.532   3.483   9.567  0.0244 -0.2694  0.0288
 1637W        W 5156   2.792   0.389   9.038  0.1301 -0.2220 -0.1442
 1638W        W 5157   2.988   9.531   1.409 -0.0800  0.0168 -0.1432
 1639W        W 5158   5.281   7.155  12.436 -0.0579  0.0901  0.1990
 1640W        W 5159   3.330   5.739  11.980 -0.2249 -0.2433 -0.3950
 1641W        W 5160   1.035   0.189   9.726 -0.1959  0.2062 -0.2132
 1642W        W 5161   6.303   5.801  10.264  0.0584  0.1967  0.2153
 1643W        W 5162   5.633   2.197   3.200 -0.0519 -0.1559 -0.3016
 1644W        W 5163   2.596   1.765  10.307  0.2349  0.1718  0.0190
 1645W        W 5164   2.198   6.435  12.245 -0.3917  0.0888 -0.0564
 1646W        W 5165   5.292   0.682   1.910  0.1521 -0.0920  0.3053
 1647W        W 5166   8.790   8.836   4.602 -0.2720  0.2935 -0.1161
 1648W        W 5167   6.223   2.601   9.464  0.0072 -0.2625  0.1670
 1649W        W 5168   0.632   1.635  11.568  0.0608 -0.2957  0.2457
 1650W        W 5169   5.318   9.383   9.306  0.1186 -0.1970  0.0136
 1651W        W 5170   6.427   8.077   1.958 -0.0996  0.2445 -0.2024
 1652W        W 5171   6.080   8.397  11.571 -0.0022  0.1198  0.0008
 1653W        W 5172   5.066   2.893   8.680 -0.1991  0.2898  0.1506
 1654W        W 5173   0.730   0.609   9.827 -0.0375 -0.0375 -0.1167
 1655W        W 5174   7.590   4.806   0.847 -0.1922 -0.1378 -0.1648
 1656W        W 5175   7.333   7.200   8.632  0.1615  0.2964 -0.2458
 1657W        W 5176   3.963   1.032   0.468 -0.0055 -0.0806  0.1238
 1658W        W 5177   4.718   7.167   1.709  0.0657 -0.1039  0.4359
 1659W        W 5178   5.291   4.014   9.619 -0.1449  0.0690  0.0841
 1660W        W 5179   2.855   6.915   2.441  0.0338  0.2003  0.1217
 1661W        W 5180   2.018   6.706   4.028 -0.1980  0.0236  0.1290
 1662W        W 5181   4.167   5.177   3.123 -0.0019  0.1026 -0.0873
 1663W        W 5182   0.686   8.327   0.955 -0.2278  0.2911 -0.0755
 1664W        W 5183   6.189   5.972   1.005 -0.0048  0.3202  0.1940
 1665W        W 5184   3.257   2.660   9.111 -0.4570  0.1384  0.1167
 1666W        W 5185   3.249   1.334   9.184 -0.3871 -0.3249  0.0613
 1667W        W 5186   4.578   3.362   2.833 -0.2132 -0.1229  0.1138
 1668W        W 5187   1.224   5.123  11.910 -0.2272 -0.0634  0.2194
 1669W        W 5188   3.084   1.862   3.895 -0.0626  0.4564 -0.1245
 1670W        W 5189   0.518   1.118   2.317  0.2947  0.0767  0.0563
 1671W        W 5190   5.454   4.285   2.491  0.2256 -0.4106 -0.1058
 1672W        W 5191   5.051   3.587   8.956 -0.2087 -0.1382  0.1353
 1673W        W 5192   1.986   7.751   4.016 -0.0249  0.1890 -0.0309
 1674W        W 5193   4.579   2.039   3.117 -0.1612 -0.0702  0.1063
 1675W        W 5194   7.841   5.880   9.659 -0.1684 -0.0022 -0.3164
 1676W        W 5195   1.322   5.184   3.007 -0.1897  0.1020 -0.2729
 1677W        W 5196   2.865   1.186  10.452  0.4379 -0.0144 -0.1420
 1678W        W 5197   1.188   6.420   2.405  0.1088 -0.1357 -0.4343
 1679W        W 5198   2.191   0.205   2.222  0.0214  0.1751 -0.3181
 1680W        W 5199   8.074   6.722   3.623  0.0187 -0.2021 -0.1601
 1681W        W 5200   1.208   4.455  11.270  0.1475  0.2226  0.0315
 1682W        W 5201   6.848   8.181   1.196 -0.1768  0.2098 -0.0028
 1683W        W 5202   8.390   3.723   0.856  0.1828 -0.0318 -0.1772
 1684W        W 5203   7.410   5.182  10.188  0.2056 -0.1095  0.0678
 1685W        W 5204   7.685   9.100  11.469 -0.0944 -0.1676 -0.1394
 1686W        W 5205   6.894   0.437   8.991 -0.0771  0.3103 -0.1835
 1687W        W 5206   1.824   2.373   9.357  0.0102  0.0274  0.2440
 1688W        W 5207   2.107   4.075   2.873 -0.1263  0.1702  0.2954
 1689W        W 5208   1.852   8.260   3.029  0.2517 -0.2200  0.1429
 1690W        W 5209   2.300   8.093   9.259 -0.0814  0.0697 -0.0362
 1691W        W 5210   8.482   8.810   2.802  0.0750 -0.2907 -0.0674
 1692W        W 5211   3.578   5.868   2.405  0.0075  0.2717 -0.0809
 1693W        W 5212   3.819   3.829   1.679  0.3243 -0.1173 -0.1514
 1694W        W 5213   4.589   5.764   3.379  0.1711 -0.0502  0.0044
 1695W        W 5214   1.830   0.494   9.333 -0.0811  0.0697  0.1420
 1696W        W 5215   5.466   4.492   9.085  0.3324 -0.5259  0.1718
 1697W        W 5216   0.193   8.038  11.567  0.0374  0.0825 -0.2236
 1698W        W 5217   6.431   8.367  11.902  0.0032  0.0437  0.0899
 1699W        W 5218   5.709   3.468   2.897  0.1485 -0.1180 -0.0137
 1700W        W 5219   6.845   7.215   0.119  0.0888 -0.4802 -0.0937
 1701W        W 5220   0.331   1.854   2.010 -0.0444 -0.0042  0.0201
 1702W        W 5221   7.656   3.995  11.756 -0.2696  0.2003  0.0043
 1703W        W 5222   8.717   0.563   0.635  0.1175 -0.0073  0.0634
 1704W        W 5223   4.538   2.342  10.604 -0.3596  0.0096  0.2103
 1705W        W 5224   5.662   3.301   0.283  0.1273 -0.1537 -0.1337
 1706W        W 5225   9.504   9.028   3.342  0.1015 -0.2426  0.2066
 1707W        W 5226   2.286   4.015   1.567 -0.2834 -0.3491 -0.1354
 1708W        W 5227   6.312   3.023   0.093 -0.3283 -0.1568  0.0217
 1709W        W 5228   0.117   9.048   3.792 -0.1196  0.0924 -0.1964
 1710W        W 5229   3.688   7.701   9.019 -0.0865 -0.1506 -0.1004
 1711W        W 5230   1.838   8.193   1.840 -0.0991  0.2595 -0.0607
 1712W        W 5231   5.899   1.256   3.928 -0.1351  0.2061  0.3325
 1713W        W 5232   7.806   1.518   1.088 -0.0562  0.0015  0.3099
 1714W        W 5233   9.144   4.317  12.481 -0.0336 -0.1301 -0.1460
 1715W        W 5234   3.114   2.897  10.978  0.0882  0.1506  0.0460
 1716W        W 5235   1.192   1.061   0.557 -0.0979  0.1098 -0.1716
 1717W        W 5236   5.612   3.803   0.511  0.1215  0.3811  0.0177
 1718W        W 5237   2.924   4.228   3.052  0.0217  0.0216 -0.0776
 1719W        W 5238   4.779   2.327   2.247  0.0068  0.0082  0.0888
 1720W        W 5239   1.561   8.622  11.941  0.1434  0.5736  0.2262
 1721W        W 5240   8.820   3.348  10.115 -0.0378 -0.2307 -0.2006
 1722W        W 5241   8.063   7.432  10.792 -0.0505 -0.0122 -0.1227
 1723W        W 5242   2.927   4.649  10.489 -0.3912  0.1938  0.2799
 1724W        W 5243   4.333   9.186   8.846  0.5621 -0.0616 -0.2329
 1725W        W 5244   7.646   8.593   1.860 -0.2533  0.0632  0.2569
 1726W        W 5245   8.459   5.029   9.803 -0.1919  0.1361 -0.2247
 1727W        W 5246   4.153   7.343  11.026 -0.1750 -0.1535 -0.0449
 1728W        W 5247   1.059   6.142   1.682  0.0856 -0.0571 -0.2839
 1729W        W 5248   2.236   4.337   8.471  0.1915  0.0321 -0.1469
 1730W        W 5249   1.615   4.540  10.988 -0.1822 -0.3566 -0.1695
 1731W        W 5250   6.028   2.401   2.308  0.0741  0.0286 -0.4044
 1732W        W 5251   9.077   6.435  10.635  0.0255 -0.2670 -0.3636
 1733W        W 5252   9.707   9.096   9.907  0.1343 -0.0491  0.0384
 1734W        W 5253   7.577   5.334   3.731  0.2540  0.2275  0.1071
 1735W        W 5254   7.387   0.270   2.138  0.2314 -0.1469 -0.1625
 1736W        W 5255   0.927   1.511  10.811 -0.3015  0.0658 -0.0972
 1737W        W 5256   3.335   8.876   1.565 -0.1072  0.0623 -0.2440
 1738W        W 5257   5.531   1.379   2.927 -0.0100  0.2160 -0.0317
 1739W        W 5258   5.304   2.250   1.086  0.1393 -0.0260 -0.3787
 1740W        W 5259   4.848   7.668   1.861 -0.0904  0.0127 -0.1014
 1741W        W 5260   9.140   5.903   0.752  0.0614  0.0224 -0.1301
 1742W        W 5261   6.271   6.107  11.884 -0.2391  0.2753  0.0031
 1743W        W 5262   4.133   0.670   1.393 -0.1529 -0.0607 -0.0809
 1744W        W 5263   0.837   7.867   1.574  0.1186 -0.0849 -0.0205
 1745W        W 5264   9.282   4.407   3.462  0.1099 -0.2059  0.0031
 1746W        W 5265   9.099   0.290  10.628 -0.3452  0.2023  0.0720
 1747W        W 5266   6.576   2.930  10.895 -0.1505 -0.2630  0.0221
 1748W        W 5267   1.162   0.347   2.762  0.2414  0.3110 -0.0091
 1749W        W 5268   2.555   4.977   1.164  0.0012 -0.1316 -0.2989
 1750W        W 5269   5.166   2.417   3.929 -0.0182  0.0787 -0.0569
 1751W        W 5270   8.665   8.441  10.273  0.0272 -0.1675 -0.0990
 1752W        W 5271   4.707   6.622   0.741  0.0506 -0.1888 -0.1183
 1753W        W 5272   1.694   2.213   4.172  0.3443 -0.3275  0.1051
 1754W        W 5273   6.688   3.788   3.675 -0.0122 -0.0661  0.0003
 1755W        W 5274   1.606   6.981   3.070  0.2401 -0.1853 -0.1871
 1756W        W 5275   4.794   5.791   0.479  0.2315  0.0537  0.0639
 1757W        W 5276   1.851   2.241   4.895  0.0764  0.3000  0.2486
 1758W        W 5277   3.914   6.224   1.208 -0.0920 -0.2169  0.0416
 1759W        W 5278   5.546   5.110   8.009  0.1941 -0.0603 -0.2484
 1760W        W 5279   0.235   3.298   8.658 -0.0858 -0.0263 -0.1645
 1761W        W 5280   9.608   7.351   8.620  0.0304  0.0388 -0.1554
 1762W        W 5281   0.844   2.789   4.090 -0.1153 -0.1960  0.1585
 1763W        W 5282   7.247   7.573   9.009 -0.2108  0.0602  0.0783
 1764W        W 5283   5.557   0.922  11.510  0.1448 -0.2794  0.2544
 1765W        W 5284   7.941   5.616   1.456 -0.1476  0.0848  0.2338
 1766W        W 5285   2.898   9.259   3.707 -0.0024 -0.3397 -0.0537
 1767W        W 5286   2.240   0.387  10.259  0.2065  0.0120  0.0809
 1768W        W 5287   3.527   8.004   0.631 -0.2784  0.0223 -0.1376
 1769W        W 5288   6.967   8.661   3.661 -0.0414  0.1289  0.1361
 1770W        W 5289   6.234   1.551   8.823  0.0487  0.2258  0.1959
 1771W        W 5290   6.778   4.429   0.942  0.1180 -0.2681 -0.2342
 1772W        W 5291   0.731   3.657   3.909  0.0043  0.1003 -0.1198
 1773W        W 5292   7.032   7.365   1.913  0.0996 -0.2633 -0.1282
 1774W        W 5293   1.166   6.678   4.069  0.3233  0.1132 -0.0252
 1775W        W 5294   8.119   4.530  10.999 -0.0426  0.0843 -0.1747
 1776W        W 5295   0.851   2.684   9.197 -0.0500  0.0816 -0.0561
 1777W        W 5296   2.769   6.115   2.901  0.0016 -0.1920  0.3404
 1778W        W 5297   6.886   8.180   0.190 -0.0127  0.2914  0.2400
 1779W        W 5298   7.067   5.249   9.128 -0.3420 -0.1418  0.0963
 1780W        W 5299   5.815   1.278   8.860  0.1375  0.2063  0.1375
 1781W        W 5300   3.212   1.013   0.049  0.1327 -0.1567  0.1101
 1782W        W 5301   3.716   3.887  10.164 -0.0253  0.1788 -0.3071
 1783W        W 5302   8.459   3.739   2.188  0.0905  0.0216 -0.1776
 1784W        W 5303   8.621   2.101   7.781  0.0945  0.1994 -0.1139
 1785W        W 5304   1.773   5.776   4.982  0.0526 -0.0345  0.0956
 1786W        W 5305   3.357   8.680  10.079 -0.1298  0.0891 -0.2816
 1787W        W 5306   1.662   1.887   1.961  0.1740  0.5163 -0.0654
 1788W        W 5307   5.545   0.471   3.055 -0.2090 -0.1009  0.2041
 1789W        W 5308   9.343   3.896   1.410  0.0995 -0.1190  0.0759
 1790W        W 5309   9.391   6.021   8.633 -0.0370  0.0941 -0.1633
 1791W        W 5310   6.412   8.520  10.701  0.1996 -0.4628  0.3194
 1792W        W 5311   0.560   8.295   2.637  0.1894 -0.3053 -0.3663
 1793W        W 5312   1.004   6.549   3.001  0.1288 -0.1472 -0.0704
 1794W        W 5313   1.128   6.085   1.068  0.0471 -0.0916 -0.0250
 1795W        W 5314   0.192   8.988   1.996  0.0271  0.2204 -0.0753
 1796W        W 5315   1.188   1.833  10.457  0.0112 -0.2152  0.0586
 1797W        W 5316   3.408   4.883   1.573 -0.0809 -0.0462  0.0763
 1798W        W 5317   8.003   6.511   9.640 -0.0595 -0.1966  0.1484
 1799W        W 5318   0.038   2.097  10.467 -0.0890 -0.1032  0.0073
 1800W        W 5319   5.510   6.370   9.839  0.0362  0.4394  0.0201
 1801W        W 5320   6.608   3.092   3.148  0.2919 -0.0324 -0.1163
 1802W        W 5321   8.365   3.140   2.818 -0.1382 -0.1669  0.2140
 1803W        W 5322   6.431   9.436   0.520  0.1949  0.0804 -0.0579
 1804W        W 5323   3.032   0.310   3.001  0.1120 -0.2808  0.2761
 1805W        W 5324   6.582   6.886   0.740 -0.0365 -0.0909 -0.1270
 1806W        W 5325   8.188   5.675  10.002 -0.0902  0.0077 -0.2216
 1807W        W 5326   5.661   3.473   8.043 -0.1173  0.1704 -0.1299
 1808W        W 5327   2.388   6.058   3.661 -0.2588 -0.1038 -0.0032
 1809W        W 5328   2.197   5.346   1.110 -0.0107  0.1497 -0.0501
 1810W        W 5329   0.604   4.600  11.916 -0.0147 -0.0066  0.0844
 1811W        W 5330   1.282   1.496   8.490  0.1188  0.0305 -0.1832
 1812W        W 5331   9.115   6.424   0.267  0.0848 -0.1117  0.2620
 1813W        W 5332   1.693   8.164   3.806  0.2424  0.2120  0.2211
 1814W        W 5333   0.245   8.083   8.855  0.3770 -0.0726  0.4204
 1815W        W 5334   8.985   2.577   3.181 -0.0165  0.3694  0.0388
 1816W        W 5335   4.840   6.317   1.479 -0.0095  0.0478  0.2967
 1817W        W 5336   1.875   7.693   1.059 -0.1062 -0.0194  0.1574
 1818W        W 5337   6.577   5.636   0.928  0.2540 -0.4450 -0.0451
 1819W        W 5338   2.737   5.543  10.056 -0.1296  0.2604 -0.0091
 1820W        W 5339   8.572   8.773   1.497  0.1040  0.0453 -0.0271
 1821W        W 5340   6.716   6.940  10.717  0.1848  0.2288  0.2756
 1822W        W 5341   7.482   5.958   9.987  0.3296  0.1084 -0.2650
 1823W        W 5342   7.621   5.871   1.836  0.0422  0.0714  0.0932
 1824W        W 5343   2.433   7.012   9.591  0.2846  0.2959 -0.2395
 1825W        W 5344   4.570   8.909   1.901 -0.0976  0.0147 -0.1215
 1826W        W 5345   0.867   6.514  12.277  0.4828  0.0022 -0.2485
 1827W        W 5346   2.921   3.971  10.687  0.1214 -0.0722  0.3099
 1828W        W 5347   2.895   5.248  12.034  0.0450  0.1152 -0.0517
 1829W        W 5348   8.940   7.270   8.020  0.1145 -0.1424  0.1789
 1830W        W 5349   2.110   1.168   8.056 -0.1384  0.0617 -0.2113
 1831W        W 5350   9.666   5.783   1.606  0.0911  0.3368 -0.0178
 1832W        W 5351   0.682   2.044   2.775  0.0751 -0.4379  0.0460
 1833W        W 5352   7.901   6.121   1.354  0.1258 -0.0591  0.3209
 1834W        W 5353   9.399   1.431   2.748 -0.0562 -0.1826  0.0558
 1835W        W 5354   4.675   0.515   1.242 -0.1098  0.4207 -0.2928
 1836W        W 5355   4.442   8.655   9.877 -0.4034 -0.1164 -0.1596
 1837W        W 5356   8.733   6.751   0.760  0.1642  0.1510 -0.4905
 1838W        W 5357   2.238   6.514   8.842 -0.2289  0.0045 -0.4300
 1839W        W 5358   3.879   9.450  11.097  0.1372  0.0416 -0.3057
 1840W        W 5359   8.780   0.101   4.009 -0.1969 -0.2633  0.0664
 1841W        W 5360   3.750   2.442   3.541  0.2640  0.0874  0.2011
 1842W        W 5361   3.356   7.002  10.418  0.0142  0.0268  0.0656
 1843W        W 5362   4.682   1.902   2.655  0.0695  0.1670 -0.1054
 1844W        W 5363   0.922   7.556  10.971  0.0360  0.1800  0.2009
 1845W        W 5364   9.536   4.162  10.893 -0.1810  0.0651  0.5418
 1846W        W 5365   6.312   9.309  11.405  0.2087 -0.0006 -0.0005
 1847W        W 5366   2.162   7.816   3.052  0.2253  0.0662 -0.1009
 1848W        W 5367   8.775   0.168   0.374  0.0333  0.0243  0.0508
 1849W        W 5368   6.628   3.630   3.204  0.2145 -0.1569  0.1125
 1850W        W 5369   8.215   4.810   1.089  0.0463  0.1705 -0.1092
 1851W        W 5370   1.014   5.910   2.285  0.2747  0.0540  0.0441
 1852W        W 5371   6.861   6.078  12.064  0.4153  0.0238  0.1075
 1853W        W 5372   7.642   6.856   9.557  0.1919  0.2097  0.2156
 1854W        W 5373   7.511   4.438   1.643  0.2340 -0.0453  0.1651
 1855W        W 5374   0.758   5.723   0.387 -0.2895  0.0278  0.1675
 1856W        W 5375   9.609   1.149   9.488  0.2944  0.0987 -0.1583
 1857W        W 5376   1.431   7.937   9.055 -0.0951 -0.1936 -0.1193
 1858W        W 5377   2.803   6.917   0.750  0.1199  0.2342 -0.0786
 1859W        W 5378   0.606   3.335   0.437 -0.1069 -0.2169 -0.0920
 1860W        W 5379   0.674   5.582  11.356 -0.2595 -0.4441  0.0734
 1861W        W 5380   5.841   3.762  10.899 -0.2393 -0.0326 -0.2388
 1862W        W 5381   0.973   5.696  10.385  0.0189 -0.0332 -0.3834
 1863W        W 5382   1.504   6.977   8.975 -0.0316  0.3648  0.2351
 1864W        W 5383   0.212   5.518   2.850  0.1199 -0.2552  0.0815
 1865W        W 5384   4.927   5.237   9.505  0.0882 -0.1665 -0.1247
 1866W        W 5385   9.201   6.627  12.361  0.3046  0.1745 -0.0397
 1867W        W 5386   8.087   0.764   1.737 -0.2478 -0.0015  0.3179
 1868W        W 5387   6.667   9.099   1.235  0.0696 -0.0920  0.0500
 1869W        W 5388   8.797   4.015  10.154 -0.1789  0.1045 -0.2235
 1870W        W 5389   7.111   3.015   2.061  0.0036  0.2383  0.0055
 1871W        W 5390   9.517   8.852   0.888 -0.1260  0.2090  0.0562
 1872W        W 5391   4.053   8.246  10.861 -0.1427  0.1554  0.3247
 1873W        W 5392   3.931   7.306  12.134 -0.2320  0.0687 -0.1536
 1874W        W 5393   5.412   4.421   1.562  0.1724 -0.0270  0.2309
 1875W        W 5394   4.347   7.145  10.626 -0.0386  0.1590  0.0726
 1876W        W 5395   2.226   6.212  10.531 -0.0080  0.0869 -0.6015
 1877W        W 5396   3.187   3.176   3.120  0.0113 -0.2281  0.2755
 1878W        W 5397   7.008   3.688  11.602 -0.0271 -0.0520 -0.2517
 1879W        W 5398   7.604   4.761   9.914 -0.1981 -0.2248  0.2489
 1880W        W 5399   7.487   4.044   3.674  0.3168 -0.1000  0.0776
 1881W        W 5400   6.702   9.450   1.590 -0.0719  0.3983  0.1959
 1882W        W 5401   7.733   3.640   9.844  0.2291 -0.1999  0.2431
 1883W        W 5402   4.230   5.420   1.546 -0.1437  0.0144 -0.0233
 1884W        W 5403   9.397   0.625   2.323 -0.2219 -0.1165 -0.2123
 1885W        W 5404   4.885   4.800   9.227  0.0720 -0.0048 -0.0935
 1886W        W 5405   6.717   7.497   9.692 -0.0089  0.2481  0.3037
 1887W        W 5406   0.434   9.397   2.223  0.1970  0.0968  0.0732
 1888W        W 5407   5.878   9.623   0.089 -0.0604  0.0024 -0.1624
 1889W        W 5408   3.368   3.682  10.474  0.3716  0.0475  0.2053
 1890W        W 5409   6.952   1.861   0.035 -0.0110  0.0989 -0.2508
 1891W        W 5410   0.299   8.724   1.270 -0.0775  0.2868 -0.2323
 1892W        W 5411   9.008   7.975   9.163  0.3312 -0.0683 -0.0697
 1893W        W 5412   2.086   9.570  10.891  0.0654 -0.0666 -0.0776
 1894W        W 5413   1.454   7.158  11.683 -0.0623  0.2724 -0.1110
 1895W        W 5414   3.900   5.800   0.095  0.0493 -0.1838 -0.1498
 1896W        W 5415   3.907   2.141   3.895 -0.0558  0.0411 -0.1320
 1897W        W 5416   1.535   8.649   3.800  0.0265 -0.2637 -0.2104
 1898W        W 5417   8.696   6.134   3.234 -0.1233 -0.0386  0.0539
 1899W        W 5418   2.272   7.402  11.303 -0.1464 -0.0606  0.0164
 1900W        W 5419   2.137   7.397   0.757 -0.0922 -0.3015  0.0188
 1901W        W 5420   6.192   2.556   4.352  0.0641  0.1754 -0.2512
 1902W        W 5421   1.526   6.498  11.099  0.0722  0.0851  0.1536
 1903W        W 5422   2.691   1.691   4.814  0.3755  0.0343 -0.1618
 1904W        W 5423   4.335   1.437   3.786  0.0899  0.0100  0.2192
 1905W        W 5424   3.870   5.436   2.845  0.0082  0.2753  0.3530
 1906W        W 5425   2.834   3.399   1.765  0.2708  0.0485  0.0065
 1907W        W 5426   3.054   9.140  12.398 -0.0012 -0.0361  0.2341
 1908W        W 5427   5.769   2.115   2.648 -0.0826  0.1188 -0.4284
 1909W        W 5428   8.886   9.452   8.014  0.0167 -0.2203  0.2267
 1910W        W 5429   3.306   4.911   0.532 -0.1428  0.0768  0.1376
 1911W        W 5430   9.106   7.273   0.523  0.2514  0.2713 -0.0238
 1912W        W 5431   4.358   5.383   8.998  0.1003  0.3784 -0.0166
 1913W        W 5432   0.896   9.612   0.593  0.3783  0.1633  0.0183
 1914W        W 5433   0.696   2.072   2.181 -0.5285  0.1352 -0.2238
 1915W        W 5434   0.612   0.130   1.395 -0.1672  0.0723  0.3184
 1916W        W 5435   5.890   3.672   1.105 -0.0495  0.2574 -0.5740
 1917W        W 5436   3.354   2.755   0.675  0.2163  0.0489 -0.0972
 1918W        W 5437   8.064   6.727   0.671 -0.1695  0.0012 -0.0809
 1919W        W 5438   8.408   2.818  10.109 -0.2679  0.2239  0.1343
 1920W        W 5439   7.409   1.513  11.823 -0.2475 -0.0377 -0.1519
 1921W        W 5440   6.173   6.041   2.472  0.0524 -0.1078 -0.0247
 1922W        W 5441   2.672   4.783   2.421  0.0076 -0.1833  0.1324
 1923W        W 5442   2.563   3.653   1.322  0.1457 -0.0194 -0.0468
 1924W        W 5443   3.221   7.779   9.441  0.1722 -0.0990  0.1323
 1925W        W 5444   4.908   6.345   2.307  0.1322  0.0068 -0.1073
 1926W        W 5445   9.201   1.742   0.752  0.0716 -0.2796 -0.3158
 1927W        W 5446   1.674   7.952   9.759 -0.1592  0.1394  0.0282
 1928W        W 5447   4.101   8.589  10.436  0.3424  0.1773 -0.0854
 1929W        W 5448   6.030   0.482   8.737  0.3018  0.0750  0.0016
 1930W        W 5449   8.489   6.799   8.985 -0.2532 -0.1016  0.0132
 1931W        W 5450   7.173   6.552   1.803  0.1504  0.0838  0.2500
 1932W        W 5451   6.146   3.923   9.551  0.1183 -0.2685 -0.0320
 1933W        W 5452   4.846   9.356   2.693  0.1455 -0.0754  0.1490
 1934W        W 5453   8.258   2.358   2.592 -0.2440 -0.1296 -0.2799
 1935W        W 5454   5.848   8.524   9.693 -0.2225  0.1357  0.3094
 1936W        W 5455   6.853   4.252   2.463  0.0198  0.2868 -0.0097
 1937W        W 5456   8.833   3.075   2.946  0.0589  0.3566  0.1168
 1938W        W 5457   6.185   4.102   8.444  0.1095 -0.2145 -0.0593
 1939W        W 5458   5.131   9.594   1.364  0.0517  0.1833 -0.0920
 1940W        W 5459   2.086   8.163   3.464  0.2209 -0.0868  0.0614
 1941W        W 5460   2.199   5.985   8.619  0.0246 -0.0834 -0.0389
 1942W        W 5461   2.032   0.369   2.834 -0.1053 -0.0987  0.0586
 1943W        W 5462   6.766   8.334  11.069  0.0180  0.2653  0.0689
 1944W        W 5463   4.159   0.724   1.944 -0.0172 -0.3586  0.0638
 1945W        W 5464   5.440   3.436   9.868  0.1347 -0.1324 -0.0533
 1946W        W 5465   6.414   8.353   0.581  0.2666  0.3797 -0.2431
 1947W        W 5466   4.805   4.411   0.736  0.0632 -0.2127 -0.0258
 1948W        W 5467   5.041   7.430  11.428  0.1670 -0.3132 -0.1682
 1949W        W 5468   2.860   3.076   9.807 -0.1259  0.0106 -0.1141
 1950W        W 5469   1.629   4.483   5.061 -0.0750  0.0144  0.0138
 1951W        W 5470   5.327   7.192   1.226 -0.0113 -0.0747  0.1184
 1952W        W 5471   1.597   0.368  12.150 -0.1634 -0.0809 -0.1186
 1953W        W 5472   5.429   3.673   3.883 -0.1443  0.1461  0.0015
 1954W        W 5473   3.950   6.812  12.328 -0.0732  0.4336 -0.0590
 1955W        W 5474   0.141   1.230  11.001 -0.3227  0.1298 -0.3260
 1956W        W 5475   6.231   7.492   1.529  0.0758  0.1343  0.1418
 1957W        W 5476   3.101   4.527   4.220 -0.2538 -0.0643 -0.0004
 1958W        W 5477   8.910   0.994   9.840 -0.1771  0.1064  0.3464
 1959W        W 5478   8.506   2.693   2.957 -0.0533  0.0434 -0.1262
 1960W        W 5479   4.657   8.132  10.081 -0.4323  0.0852 -0.0084
 1961W        W 5480   5.152   8.584   7.388  0.0818 -0.0227 -0.0680
 1962W        W 5481   2.647   5.924  10.870 -0.2927 -0.1572  0.1192
 1963W        W 5482   1.457   0.905   1.004  0.0165 -0.1186  0.1469
 1964W        W 5483   3.015   4.503   2.617 -0.3529  0.1102  0.1133
 1965W        W 5484   2.915   4.301  12.433  0.1056  0.4257 -0.1781
 1966W        W 5485   6.016   3.743  11.470 -0.0493 -0.0855  0.1695
 1967W        W 5486   6.789   2.103   2.298 -0.0308  0.1987  0.1001
 1968W        W 5487   7.452   1.586  11.023  0.5844  0.0724 -0.1486
 1969W        W 5488   8.865   1.472   4.240  0.1161  0.2401  0.0603
 1970W        W 5489   5.163   3.467  11.913  0.1694  0.1425  0.0447
 1971W        W 5490   2.216   2.267   3.774 -0.0629  0.1199  0.0839
 1972W        W 5491   0.947   8.500   2.347  0.1954 -0.0724 -0.1261
 1973W        W 5492   4.808   5.226   9.008 -0.1632 -0.1732 -0.1667
 1974W        W 5493   0.342   6.310  10.917 -0.0701 -0.0875 -0.0906
 1975W        W 5494   2.401   1.984  11.468 -0.0105 -0.0979  0.1073
 1976W        W 5495   2.136   6.930   9.997  0.2639  0.0591 -0.0408
 1977W        W 5496   1.105   4.164   1.969  0.1465 -0.0258 -0.1291
 1978W        W 5497   3.320   0.581   0.886 -0.3200  0.1654 -0.1732
 1979W        W 5498   8.152   6.216   3.721  0.0545 -0.2192 -0.2312
 1980W        W 5499   3.730   1.598  12.055 -0.1382  0.0114  0.0461
 1981W        W 5500   4.550   7.059   0.455 -0.1018 -0.2750 -0.1351
 1982W        W 5501   0.578   3.383   3.494 -0.0750  0.1151  0.1315
 1983W        W 5502   2.522   3.888   3.050  0.2719 -0.0975 -0.2340
 1984W        W 5503   7.518   0.794   2.952 -0.0683  0.2232 -0.0837
 1985W        W 5504   2.598   9.342   1.664  0.0549  0.2931 -0.0603
 1986W        W 5505   2.646   4.321   1.723 -0.0142 -0.1358 -0.0659
 1987W        W 5506   3.153   4.032   2.290  0.2439 -0.2404 -0.1591
 1988W        W 5507   2.834   0.563   1.087  0.2677 -0.1520 -0.1632
 1989W        W 5508   3.493   4.727   2.667 -0.0098  0.0508  0.0091
 1990W        W 5509   3.570   0.165   9.925 -0.3683  0.0838 -0.0802
 1991W        W 5510   0.827   2.278   1.299 -0.1675  0.2307 -0.2701
 1992W        W 5511   8.297   2.220   1.140  0.2588 -0.1667 -0.3317
 1993W        W 5512   2.593   1.589  11.254 -0.2822 -0.0366 -0.2385
 1994W        W 5513   1.238   9.305   0.341 -0.2963 -0.1596  0.0300
 1995W        W 5514   1.201   3.106  11.196  0.0599 -0.1851 -0.0382
 1996W        W 5515   4.098   0.975   0.999 -0.4278  0.0576  0.0433
 1997W        W 5516   1.216   9.284  11.441  0.2539 -0.0369  0.3066
 1998W        W 5517   0.598   7.935   9.354  0.4938  0.1471  0.1381
 1999W        W 5518   1.737   6.718   1.333 -0.0513  0.0934 -0.1524
 2000W        W 5519   6.391   4.139   3.878 -0.0901 -0.2186  0.1893
 2001W        W 5520   0.397   0.172  10.448 -0.0051 -0.2356  0.4870
 2002W        W 5521   5.411   1.686   3.517 -0.0017  0.0213  0.1642
 2003W        W 5522   1.315   2.291  11.564 -0.1086 -0.0097 -0.0354
 2004W        W 5523   5.142   2.780   2.586 -0.3687 -0.0550 -0.0497
 2005W        W 5524   0.019   9.339  10.515 -0.1647  0.1183 -0.1379
 2006W        W 5525   0.421   1.091  10.592 -0.0550 -0.0149 -0.1823
 2007W        W 5526   0.982   4.236   0.538 -0.0802 -0.0042 -0.1900
 2008W        W 5527   3.057   0.667  11.115  0.1831  0.3060 -0.1554
 2009W        W 5528   3.388   9.506   2.321 -0.0260 -0.0533  0.0912
 2010W        W 5529   4.187   1.611   2.440  0.0417  0.2323  0.1765
 2011W        W 5530   2.579   6.476  11.273 -0.0506  0.0984 -0.0545
 2012W        W 5531   1.908   2.805   9.580 -0.0752  0.2050 -0.1791
 2013W        W 5532   9.618   2.619   4.061  0.0206  0.0279 -0.2450
 2014W        W 5533   2.487   6.081   0.883 -0.3457  0.4419  0.0488
 2015W        W 5534   8.942   3.703   9.787  0.0376  0.0790 -0.1313
 2016W        W 5535   7.816   9.581  11.573  0.0427 -0.2337  0.1304
 2017W        W 5536   1.564   2.044  11.238  0.1788 -0.0110 -0.0920
 2018W        W 5537   7.583   1.811   0.732 -0.0045  0.1100 -0.0827
 2019W        W 5538   1.760   9.139   2.720 -0.1381 -0.1998 -0.2591
 2020W        W 5539   4.056   7.437   0.565  0.1438 -0.0400  0.0297
 2021W        W 5540   4.845   1.780   1.771 -0.1454  0.0183 -0.1563
 2022W        W 5541   4.432   6.208   0.693 -0.1050  0.0420 -0.2916
 2023W        W 5542   3.586   5.951   1.521  0.1094  0.1421 -0.3949
 2024W        W 5543   4.871   5.718  10.449  0.2489 -0.5412  0.2515
 2025W        W 5544   5.586   0.710   1.545  0.2414 -0.1411  0.0099
 2026W        W 5545   5.498   0.536  11.857  0.1756 -0.1329  0.2441
 2027W        W 5546   9.416   0.194  11.332 -0.0437  0.0014  0.1146
 2028W        W 5547   7.693   6.697  10.056 -0.3163  0.3364  0.2251
 2029W        W 5548   2.339   0.424   9.524 -0.2227 -0.1353  0.2758
 2030W        W 5549   9.652   1.538   1.756  0.0203 -0.0160  0.1691
 2031W        W 5550   8.945   2.747   1.923 -0.3801 -0.1994  0.0551
 2032W        W 5551   2.321   2.362   9.471 -0.0844  0.1387  0.0447
 2033W        W 5552   6.293   0.306  12.427 -0.0027 -0.0839  0.0743
 2034W        W 5553   9.392   4.685   2.709 -0.2207  0.0835 -0.0202
 2035W        W 5554   4.320   0.644  10.034  0.0829 -0.1126 -0.1168
 2036W        W 5555   5.535   7.548  12.129 -0.2440  0.0509 -0.1840
 2037W        W 5556   0.494   5.691   9.040 -0.2855 -0.2756  0.0521
 2038W        W 5557   1.704   7.822   3.424 -0.1349  0.1818  0.5493
 2039W        W 5558   8.242   6.290  11.360 -0.1702 -0.2061 -0.2449
 2040W        W 5559   3.568   8.869   3.137  0.3393 -0.4168 -0.0463
 2041W        W 5560   4.965   7.868   0.332  0.2031 -0.0318 -0.1520
 2042W        W 5561   7.982   1.895   8.685 -0.1984  0.0349 -0.3072
 2043W        W 5562   8.325   5.469   0.644 -0.0338 -0.3535 -0.1859
 2044W        W 5563   2.523   4.659   4.809  0.2570 -0.3695  0.0126
 2045W        W 5564   7.902   5.204  12.440 -0.1412 -0.0272  0.1333
 2046W        W 5565   1.588   7.450  10.453 -0.0179  0.1032  0.0937
 2047W        W 5566   1.200   6.378   4.609  0.0265 -0.1771 -0.2852
 2048W        W 5567   2.447   2.551   4.193 -0.0451  0.2797  0.1032
 2049W        W 5568   2.027   3.188   0.490  0.2870  0.1081  0.0204
 2050W        W 5569   6.028   4.383   9.703  0.0981  0.2154  0.0593
 2051W        W 5570   6.184   9.062  10.537 -0.1344  0.0354  0.0193
 2052W        W 5571   5.323   7.869  11.816 -0.0606 -0.1849  0.2599
 2053W        W 5572   9.460   7.777  10.774 -0.3069  0.1216 -0.0610
 2054W        W 5573   8.800   4.853   2.498 -0.1481 -0.0878 -0.0292
 2055W        W 5574   3.466   4.392   9.301 -0.1085 -0.1750  0.0139
 2056W        W 5575   6.273   6.140   1.967  0.0209  0.0775 -0.2085
 2057W        W 5576   7.938   6.663   2.531  0.5330  0.3098  0.2560
 2058W        W 5577   8.536   2.428  10.902  0.0239 -0.2310 -0.1961
 2059W        W 5578   9.543   2.930   4.828  0.0214 -0.0875 -0.2379
 2060W        W 5579   3.126   8.846   0.221 -0.0788  0.0225  0.0661
 2061W        W 5580   4.861   7.335  12.529 -0.0825  0.1541  0.3036
 2062W        W 5581   6.058   9.187  11.894 -0.1065 -0.2583 -0.2598
 2063W        W 5582   0.411   4.980   0.108  0.2464  0.0953  0.1605
 2064W        W 5583   0.306   5.301  11.435  0.0105 -0.1393 -0.4979
 2065W        W 5584   0.188   5.876  11.486  0.2582  0.1262  0.0023
 2066W        W 5585   0.676   5.954   1.135  0.1645  0.1444 -0.0526
 2067W        W 5586   8.403   7.884  11.672  0.1343  0.1795  0.1020
 2068W        W 5587   4.415   6.254   3.228 -0.1919 -0.0691 -0.2395
 2069W        W 5588   4.263   8.309   0.731  0.0040  0.3653  0.0972
 2070W        W 5589   1.396   6.736   2.736  0.1361 -0.0053 -0.0416
 2071W        W 5590   2.259   3.766   2.452  0.0344 -0.0640 -0.0976
 2072W        W 5591   9.472   6.176   1.112  0.0229 -0.2670 -0.0176
 2073W        W 5592   5.580   8.769   0.231  0.0263  0.2194  0.1026
 2074W        W 5593   5.610   3.460   2.079 -0.0639  0.1610 -0.0398
 2075W        W 5594   4.345   0.256  11.715  0.2443 -0.0837 -0.2895
 2076W        W 5595   1.673   4.654   3.754  0.0708 -0.4363  0.0131
 2077W        W 5596   1.812   6.087  10.803 -0.1104  0.3742 -0.0592
 2078W        W 5597   6.414   9.199  12.300 -0.1079  0.0912  0.3923
 2079W        W 5598   8.732   5.270   1.393  0.2883  0.1125 -0.3125
 2080W        W 5599   0.855   0.199   1.887  0.0667 -0.2997  0.1831
 2081W        W 5600   9.103   1.896   9.670 -0.2732  0.1810 -0.1383
 2082W        W 5601   6.397   9.562   0.037  0.3389 -0.2560 -0.1596
 2083W        W 5602   7.407   5.540   0.483  0.2170 -0.3361 -0.0925
 2084W        W 5603   3.067   2.242   9.102  0.0314 -0.1001 -0.1886
 2085W        W 5604   2.402   6.848  12.007  0.1735  0.0075 -0.2290
 2086W        W 5605   7.340   0.688   8.997  0.2074 -0.0314  0.5447
 2087W        W 5606   0.278   0.498   2.551  0.1747  0.1417  0.0357
 2088W        W 5607   0.087   2.657   9.539 -0.1610 -0.3106 -0.4089
 2089W        W 5608   5.250   9.010  12.381  0.1395  0.3413 -0.2356
 2090W        W 5609   8.354   3.612   9.039  0.0694  0.1686  0.0985
 2091W        W 5610   6.380   1.700   2.798 -0.2312  0.2523  0.2987
 2092W        W 5611   3.125   7.981   2.710  0.1275 -0.1653  0.2242
 2093W        W 5612   9.344   1.943  10.164  0.2420  0.5367 -0.0029
 2094W        W 5613   0.785   0.296   3.626 -0.0315 -0.2669 -0.0935
 2095W        W 5614   9.614   9.467  12.032 -0.1249  0.1375  0.1661
 2096W        W 5615   5.846   5.429  11.892  0.1913 -0.1916  0.0193
 2097W        W 5616   1.705   4.987  10.071  0.0352  0.1603  0.2196
 2098W        W 5617   4.826   6.555  11.893  0.0513 -0.1672 -0.1309
 2099W        W 5618   2.247   3.054   1.523 -0.1230  0.0273  0.0449
 2100W        W 5619   1.812   2.787   8.993 -0.3121  0.1665  0.2887
 2101W        W 5620   0.255   1.349   2.767  0.6681 -0.0327 -0.0069
 2102W        W 5621   6.615   1.587  10.055  0.0688  0.4199 -0.1325
 2103W        W 5622   6.557   5.879  10.810  0.0893 -0.2411 -0.0584
 2104W        W 5623   3.193   5.338   8.426  0.2998  0.1069 -0.0557
 2105W        W 5624   9.167   2.007   4.631 -0.0072  0.1327  0.1589
 2106W        W 5625   1.390   6.066   4.189  0.1914 -0.0971  0.1402
 2107W        W 5626   2.612   8.208   1.366 -0.0904  0.0429  0.0929
 2108W        W 5627   0.406   0.389  10.938 -0.0081 -0.0329 -0.0935
 2109W        W 5628   9.506   4.269  11.776 -0.0677 -0.1559 -0.1332
 2110W        W 5629   8.282   5.130   3.965 -0.2872 -0.0861 -0.0920
 2111W        W 5630   2.342   2.056   4.977  0.2686 -0.0972 -0.0187
 2112W        W 5631   2.624   7.361   8.652  0.3517  0.3183 -0.1301
 2113W        W 5632   6.516   7.499   9.272 -0.0533  0.1010  0.0973
 2114W        W 5633   8.631   0.765   8.713  0.1366 -0.0337 -0.2673
 2115W        W 5634   4.728   5.036   2.284 -0.1301 -0.1998 -0.2228
 2116W        W 5635   8.068   1.508  11.130 -0.1589 -0.1602  0.0526
 2117W        W 5636   7.995   2.775   2.692  0.2904 -0.2138 -0.0076
 2118W        W 5637   7.444   2.408   1.515  0.0872  0.3971  0.3286
 2119W        W 5638   6.113   5.480   1.043  0.0817 -0.0762  0.0894
 2120W        W 5639   5.646   3.560  10.393  0.0143 -0.0885  0.1007
 2121W        W 5640   1.258   3.513   9.166 -0.1771 -0.1827  0.3429
 2122W        W 5641   1.951   8.394   7.826 -0.4014  0.0308  0.1497
 2123W        W 5642   2.844   5.999   3.419 -0.2063 -0.0677 -0.1177
 2124W        W 5643   3.788   0.567   0.708  0.0643  0.0736  0.0405
 2125W        W 5644   1.250   1.125   3.619 -0.0954 -0.0238 -0.2322
 2126W        W 5645   4.062   1.092   2.432  0.1664 -0.1166 -0.0027
 2127W        W 5646   9.436   7.727   8.890  0.1111  0.0346  0.1104
 2128W        W 5647   6.368   6.999  11.125 -0.0209 -0.2353 -0.0857
 2129W        W 5648   5.115   8.703  11.772  0.2086 -0.3045  0.2349
 2130W        W 5649   0.046   7.177  12.484  0.0216 -0.1588  0.2296
 2131W        W 5650   3.468   0.994   8.859  0.0499  0.1308 -0.1126
 2132W        W 5651   2.966   5.794   0.188 -0.0795  0.0178  0.0815
 2133W        W 5652   0.077   7.735   0.036  0.0192  0.2365  0.2599
 2134W        W 5653   4.056   7.658  10.228 -0.1916 -0.0146  0.0977
 2135W        W 5654   5.292   9.556  10.648  0.2201  0.2873 -0.1459
 2136W        W 5655   1.657   3.983   5.188  0.0820  0.0200 -0.1712
 2137W        W 5656   1.608   5.667   4.401 -0.1142 -0.1460  0.2765
 2138W        W 5657   5.441   3.950  10.130  0.1609  0.2144 -0.1463
 2139W        W 5658   9.167   4.196   2.931  0.0410  0.0125 -0.4711
 2140W        W 5659   1.638   3.984   3.169 -0.2391  0.4187  0.2695
 2141W        W 5660   5.930   3.262   9.120 -0.0395  0.3026  0.1633
 2142W        W 5661   6.375   1.233   1.470 -0.0522 -0.1102 -0.0820
 2143W        W 5662   2.572   4.303  10.935  0.0430  0.1504 -0.0484
 2144W        W 5663   8.053   0.737   9.008 -0.0479  0.0391  0.2076
 2145W        W 5664   4.661   5.950   9.820  0.0215 -0.0492  0.0211
 2146W        W 5665   9.523   2.653   3.152  0.1929  0.0509  0.1378
 2147W        W 5666   0.095   3.804   1.799  0.1596  0.1766 -0.1971
 2148W        W 5667   6.679   3.910   2.825  0.1518  0.0253 -0.1550
 2149W        W 5668   3.633   8.718   0.222  0.0386 -0.0567  0.0119
 2150W        W 5669   6.159   1.923  11.218 -0.0771  0.0030  0.2053
 2151W        W 5670   4.947   3.704   1.336  0.1749 -0.2402  0.0309
 2152W        W 5671   7.566   3.183  11.478  0.0523 -0.0752 -0.2256
 2153W        W 5672   7.659   7.193   9.137  0.2454 -0.0390  0.0664
 2154W        W 5673   2.982   3.792  10.176  0.0423  0.0635  0.0557
 2155W        W 5674   1.835   8.242   9.029 -0.1235  0.0312 -0.1638
 2156W        W 5675   5.130   4.965   3.988 -0.1199 -0.1514  0.0945
 2157W        W 5676   2.924   5.785   9.235  0.1959  0.1555  0.1071
 2158W        W 5677   0.779   1.862  11.137  0.3970  0.1818 -0.1607
 2159W        W 5678   0.581   1.621  12.072  0.0594 -0.1198  0.1093
 2160W        W 5679   9.512   9.183   9.425 -0.0228 -0.0931  0.0063
 2161W        W 5680   7.919   2.844   9.556  0.0932  0.1485 -0.3540
 2162W        W 5681   9.641   4.617  12.295 -0.2820  0.4564 -0.2075
 2163W        W 5682   0.674   2.497   0.700  0.0951 -0.0285  0.3866
 2164W        W 5683   3.169   6.179   0.710  0.2172 -0.0085 -0.0087
 2165W        W 5684   7.436   2.723  11.450 -0.1798  0.1696 -0.1921
 2166W        W 5685   6.459   6.947   2.740 -0.3843 -0.0171 -0.0203
 2167W        W 5686   4.159   5.900  12.216 -0.1900 -0.1417  0.0759
 2168W        W 5687   2.321   1.516   0.117  0.2624 -0.0134 -0.2503
 2169W        W 5688   7.448   0.621   3.432 -0.0569  0.2258 -0.0768
 2170W        W 5689   0.669   7.294  11.865  0.1105  0.0724  0.1083
 2171W        W 5690   0.482   2.474   3.830  0.0593  0.0477 -0.4634
 2172W        W 5691   9.280   1.554   3.300  0.0592  0.3235  0.0073
 2173W        W 5692   6.218   7.326   0.736 -0.0769  0.0708  0.0218
 2174W        W 5693   4.643   5.033   1.342  0.0841 -0.1316 -0.2549
 2175W        W 5694   1.831   3.390   3.105  0.0360  0.0499  0.0943
 2176W        W 5695   0.522   7.294  10.949  0.1438  0.1256  0.2406
 2177W        W 5696   1.273   4.264   0.055 -0.1096 -0.2230 -0.3624
 2178W        W 5697   8.450   7.062  10.118 -0.1537  0.3526  0.2219
 2179W        W 5698   7.614   6.576   0.459  0.0511  0.4463  0.2260
 2180W        W 5699   1.725   5.829   1.377  0.2437  0.2133  0.1824
 2181W        W 5700   7.707   3.396   1.549  0.0698 -0.0648  0.1158
 2182W        W 5701   1.232   3.485   9.709 -0.3303 -0.3212  0.0800
 2183W        W 5702   7.339   2.831  10.352 -0.1445  0.4305 -0.5772
 2184W        W 5703   3.781   3.312   4.232  0.0926 -0.1700 -0.1608
 2185W        W 5704   1.076   7.535  10.021 -0.0108  0.0511 -0.0101
 2186W        W 5705   1.647   8.621   8.359  0.0724  0.1075 -0.2981
 2187W        W 5706   5.601   8.440   5.124 -0.1182  0.0669 -0.0095
 2188W        W 5707   5.222   1.612  10.098 -0.0197 -0.2056 -0.1294
 2189W        W 5708   1.918   2.672   4.217 -0.1113 -0.0666 -0.1155
 2190W        W 5709   0.528   7.205   4.698 -0.0383  0.0929 -0.1302
 2191W        W 5710   9.646   6.712  12.165  0.0329 -0.1649 -0.0539
 2192W        W 5711   2.827   2.161   9.565  0.1210  0.0274  0.2406
 2193W        W 5712   4.985   8.757   3.256  0.1470  0.0322 -0.3079
 2194W        W 5713   1.890   8.854   8.823 -0.0460  0.1552  0.2021
 2195W        W 5714   0.466   2.104   1.611  0.0848 -0.1856  0.0219
 2196W        W 5715   5.203   3.065   2.002  0.1156 -0.0438 -0.0653
 2197W        W 5716   2.489   8.592  11.790  0.0801 -0.1322 -0.2278
 2198W        W 5717   0.435   5.525   9.704 -0.0752  0.0277 -0.2702
 2199W        W 5718   1.274   1.296   1.858 -0.4648 -0.1421  0.3605
 2200W        W 5719   0.505   3.187  12.182  0.1522 -0.0725 -0.0179
 2201W        W 5720   9.402   7.453   0.931  0.2649  0.2453  0.1964
 2202W        W 5721   2.420   1.982  12.493 -0.0236 -0.1041  0.4073
 2203W        W 5722   0.785   9.519   0.118 -0.2378 -0.0123  0.1019
 2204W        W 5723   7.309   9.479  11.343  0.2719  0.1115  0.1980
 2205W        W 5724   4.117   0.205  10.086  0.2454 -0.0084  0.0669
 2206W        W 5725   9.664   8.429   3.951  0.0390 -0.0925  0.1126
 2207W        W 5726   3.125   1.253   0.443 -0.1588 -0.1783 -0.1214
 2208W        W 5727   1.085   5.260  10.090 -0.1049 -0.2038  0.0286
 2209W        W 5728   8.662   2.105  11.314  0.0088  0.1560 -0.0493
 2210W        W 5729   7.185   8.562  10.621 -0.0859 -0.4203 -0.2417
 2211W        W 5730   0.347   4.863   1.842  0.2428 -0.1525  0.2987
 2212W        W 5731   8.801   4.811  11.833  0.2220 -0.1071  0.1184
 2213W        W 5732   4.400   6.004  10.353  0.2898  0.2530 -0.0197
 2214W        W 5733   4.529   7.247  11.400 -0.1577  0.0046 -0.0560
 2215W        W 5734   8.944   1.200  10.790 -0.0007 -0.0020  0.0506
 2216W        W 5735   5.913   8.900   3.113  0.1194 -0.2553  0.1980
 2217W        W 5736   3.264   4.420   0.794  0.0001  0.2019  0.3054
 2218W        W 5737   2.115   5.782   4.496 -0.0263  0.0644 -0.0055
 2219W        W 5738   6.699   2.896  10.359 -0.0874  0.0182 -0.2017
 2220W        W 5739   3.008   5.155   1.565  0.0212  0.1048 -0.3941
 2221W        W 5740   4.306   3.522  12.485  0.1836 -0.1076 -0.1601
 2222W        W 5741   6.625   9.674  11.287  0.1898 -0.1142 -0.2705
 2223W        W 5742   0.093   1.682   7.840  0.3536 -0.0716 -0.3447
 2224W        W 5743   3.368   6.002  10.664  0.0181 -0.2541  0.2712
 2225W        W 5744   9.324   6.064   2.459  0.1352 -0.3991  0.1119
 2226W        W 5745   6.464   9.021   7.265 -0.0085 -0.1302  0.0771
 2227W        W 5746   5.066   0.366   1.536  0.0494  0.2822  0.0616
 2228W        W 5747   8.076   3.057   1.654  0.0504  0.4068  0.2217
 2229W        W 5748   1.996   9.133  10.480 -0.1775 -0.1460 -0.3291
 2230W        W 5749   0.659   7.440   0.926 -0.4721  0.0793 -0.0256
 2231W        W 5750   4.323   5.870   9.161 -0.1087  0.0473  0.2620
 2232W        W 5751   8.895   6.241  12.365 -0.4225  0.0162 -0.2510
 2233W        W 5752   0.405   5.131   2.632 -0.0980 -0.1534  0.1290
 2234W        W 5753   3.945   0.323   1.760 -0.2882 -0.1706 -0.0934
 2235W        W 5754   5.176   8.280  10.004  0.4173 -0.3496  0.0872
 2236W        W 5755   9.143   0.144   1.926  0.0424  0.0659 -0.0399
 2237W        W 5756   5.865   1.764   3.082 -0.3581  0.1285  0.0570
 2238W        W 5757   2.253   2.496   1.360 -0.0948 -0.1295  0.0162
 2239W        W 5758   2.907   8.917   4.458 -0.1297 -0.1469  0.0060
 2240W        W 5759   2.493   9.156  10.356  0.0715  0.0318 -0.1642
 2241W        W 5760   7.882   4.539  11.460 -0.0103  0.1529 -0.1180
 2242W        W 5761   6.006   2.745   0.381  0.0648  0.0567  0.0719
 2243W        W 5762   3.271   2.897   1.955 -0.0989  0.1395  0.5790
 2244W        W 5763   0.344   2.933   9.090  0.3949  0.0097  0.1102
 2245W        W 5764   2.629   8.365  10.938 -0.0350 -0.1855  0.0131
 2246W        W 5765   6.461   9.357   8.917 -0.1486 -0.4064  0.0435
 2247W        W 5766   5.133   0.705  11.553 -0.1556  0.0036 -0.2284
 2248W        W 5767   0.240   4.284  12.066 -0.2100  0.0013 -0.0306
 2249W        W 5768   6.684   9.030   0.086 -0.0463 -0.2671 -0.0569
 2250W        W 5769   5.174   9.638   2.370  0.1152  0.1288 -0.1591
 2251W        W 5770   1.636   0.248   5.070  0.0270 -0.0617  0.0213
 2252W        W 5771   6.616   3.159   8.358 -0.0355  0.2009 -0.2639
 2253W        W 5772   2.719   2.055  10.950 -0.2674  0.1217  0.0510
 2254W        W 5773   8.677   9.665   1.846  0.2566 -0.0645  0.0183
 2255W        W 5774   1.945   1.671   9.719  0.2024 -0.0858 -0.0321
 2256W        W 5775   3.543   5.126   9.912  0.1166  0.0724 -0.1229
 2257W        W 5776   2.134   1.720  11.142 -0.0959  0.0236  0.3719
 2258W        W 5777   0.740   4.405   3.557 -0.1684  0.0553  0.1309
 2259W        W 5778   9.054   9.659   1.242 -0.1269 -0.0954  0.2707
 2260W        W 5779   8.539   9.451   0.236 -0.0009 -0.0030  0.1671
 2261W        W 5780   8.750   3.700   3.890 -0.2558  0.3862  0.1149
 2262W        W 5781   4.055   6.802   2.538 -0.0544 -0.0581  0.1186
 2263W        W 5782   9.050   7.417   9.427  0.1120 -0.0857 -0.1992
 2264W        W 5783   9.356   7.005   0.207 -0.1296  0.0407  0.1349
 2265W        W 5784   3.841   1.697   4.599  0.0339  0.1503 -0.1936
 2266W        W 5785   1.192   6.257   9.599 -0.2869  0.1067 -0.1931
 2267W        W 5786   6.785   6.382   9.507  0.2445 -0.0233  0.1953
 2268W        W 5787   1.344   6.216  10.312  0.1007 -0.0824  0.2886
 2269W        W 5788   7.612   7.199  10.963 -0.1916  0.2335  0.0488
 2270W        W 5789   0.779   3.407  10.518 -0.2626 -0.0801 -0.0757
 2271W        W 5790   7.113   5.608   3.786  0.1147  0.3630  0.1520
 2272W        W 5791   5.809   0.470   2.640 -0.0295 -0.2716  0.0778
 2273W        W 5792   0.838   7.858   3.879 -0.1831 -0.0064 -0.5969
 2274W        W 5793   7.705   9.391   9.486 -0.0786  0.2026  0.0397
 2275W        W 5794   1.617   4.068  11.431 -0.0983 -0.0613  0.0385
 2276W        W 5795   9.135   5.804  12.300  0.2773 -0.3276  0.2098
 2277W        W 5796   9.036   4.725   2.105  0.0312  0.0190  0.0031
 2278W        W 5797   2.053   6.590  10.946  0.2993 -0.0154 -0.2317
 2279W        W 5798   0.549   7.034   0.589  0.1760 -0.3561  0.0414
 2280W        W 5799   8.106   0.334   2.539  0.1606  0.2658 -0.1780
 2281W        W 5800   9.607   2.011   1.433  0.2623 -0.3051 -0.2301
 2282W        W 5801   6.305   8.155   1.035  0.1250  0.2738  0.0104
 2283W        W 5802   3.354   5.417   2.976 -0.2371 -0.0630  0.0185
 2284W        W 5803   2.593   7.408   3.753  0.0806 -0.1738  0.1164
 2285W        W 5804   5.740   1.503   9.973 -0.1905 -0.2751  0.2610
 2286W        W 5805   5.868   3.987  10.461 -0.1232  0.0600 -0.1014
 2287W        W 5806   2.057   8.182   1.236 -0.0924  0.1471  0.1992
 2288W        W 5807   4.632   4.552   1.287 -0.2300  0.1386 -0.1312
 2289W        W 5808   9.623   6.640   1.054  0.0717 -0.1509 -0.1342
 2290W        W 5809   9.108   1.793   2.894 -0.0698  0.0021  0.3096
 2291W        W 5810   7.190   3.221  10.652  0.4534  0.0006 -0.0015
 2292W        W 5811   2.957   0.806   0.511  0.0962  0.0492 -0.2810
 2293W        W 5812   0.378   3.723  11.902 -0.3764 -0.1500  0.0547
 2294W        W 5813   3.081   4.854   2.197 -0.2211 -0.0617  0.2239
 2295W        W 5814   5.288   2.226  11.927 -0.0144  0.1175  0.0380
 2296W        W 5815   7.067   5.151  10.584  0.1505  0.2298 -0.2623
 2297W        W 5816   7.022   2.582   8.891 -0.2517 -0.0677 -0.1624
 2298W        W 5817   7.694   1.318   3.817 -0.0089 -0.0586 -0.0645
 2299W        W 5818   6.350   1.693   1.773  0.3935  0.0449 -0.0526
 2300W        W 5819   3.712   6.453   1.634 -0.0232 -0.0946 -0.1803
 2301W        W 5820   8.117   9.000   3.664 -0.2489  0.3945  0.0156
 2302W        W 5821   0.247   0.283   9.030  0.1896 -0.0133  0.0801
 2303W        W 5822   5.125   9.493   3.406  0.1084  0.0813 -0.1983
 2304W        W 5823   9.404   8.584   8.080  0.2251  0.1667  0.2390
 2305W        W 5824   5.653   1.663   4.018  0.2729 -0.0209  0.2065
 2306W        W 5825   0.347   7.554   8.758  0.1843 -0.0330  0.3470
 2307W        W 5826   4.184   4.712   1.473  0.1537  0.0230 -0.1971
 2308W        W 5827   0.371   6.897   2.403 -0.1772 -0.1974 -0.0474
 2309W        W 5828   9.315   6.078   9.359 -0.3521 -0.0658 -0.0998
 2310W        W 5829   8.252   3.331  12.496  0.5903  0.1020 -0.0292
 2311W        W 5830   3.448   2.853   8.464 -0.0101  0.3725 -0.2818
 2312W        W 5831   2.370   0.527  11.637 -0.1937  0.2810 -0.2500
 2313W        W 5832   7.914   2.511   1.696 -0.0651 -0.2340  0.1635
 2314W        W 5833   1.919   4.284   1.409  0.0920 -0.0916  0.0397
 2315W        W 5834   8.307   1.359   0.825 -0.0394  0.1612  0.1012
 2316W        W 5835   5.220   0.680  10.103  0.1831 -0.0429  0.0983
 2317W        W 5836   1.262   3.392  11.606  0.3435 -0.0728  0.1006
 2318W        W 5837   1.731   9.629   2.076  0.0922  0.1441  0.0726
 2319W        W 5838   0.269   0.775   9.228 -0.3236  0.0267 -0.0051
 2320W        W 5839   3.097   7.266   3.852  0.0939 -0.2152 -0.0883
 2321W        W 5840   2.074   4.412  10.693  0.0273  0.1829  0.3685
 2322W        W 5841   5.103   3.935  12.175 -0.0563  0.2380  0.2243
 2323W        W 5842   6.741   9.207   9.966 -0.3837  0.0688 -0.2241
 2324W        W 5843   4.718   0.305   9.983 -0.0504  0.0449  0.0533
 2325W        W 5844   8.111   8.826   1.867  0.2745  0.0529 -0.0596
 2326W        W 5845   6.038   3.706   8.917  0.1097  0.0326 -0.2313
 2327W        W 5846   1.148   3.569   1.613 -0.0172 -0.1146 -0.0463
 2328W        W 5847   4.021   6.358  12.538 -0.1480  0.0807 -0.0743
 2329W        W 5848   5.480   2.109   3.772 -0.0046 -0.0351  0.1943
 2330W        W 5849   4.469   7.657  10.523  0.4032  0.0889 -0.3392
 2331W        W 5850   8.533   1.112  11.628 -0.0437  0.0749  0.1913
 2332W        W 5851   1.035   6.936   8.802  0.0971 -0.4076  0.2219
 2333W        W 5852   0.851   6.019   9.295  0.0089 -0.0143  0.0894
 2334W        W 5853   7.140   1.988  12.066  0.0292 -0.0998  0.1644
 2335W        W 5854   1.676   8.637   4.333 -0.0694  0.1643  0.1532
 2336W        W 5855   0.527   6.700  11.369 -0.3262 -0.2857 -0.2513
 2337W        W 5856   4.166   4.945  11.489 -0.1968 -0.0121  0.1163
 2338W        W 5857   1.346   3.452  12.321 -0.0220 -0.1260 -0.1627
 2339W        W 5858   1.586   5.393   3.388  0.3482 -0.1941 -0.1626
 2340W        W 5859   0.425   3.656   2.153 -0.0865 -0.2033 -0.3504
 2341W        W 5860   7.538   7.912   0.345 -0.1834 -0.3521  0.1366
 2342W        W 5861   9.490   9.312   1.237  0.2039  0.0792  0.2766
 2343W        W 5862   1.512   4.225  10.463  0.5069 -0.3290 -0.3315
 2344W        W 5863   9.431   0.292   9.753 -0.0905 -0.1931  0.1596
 2345W        W 5864   4.025   4.560  11.163  0.0713  0.0318 -0.0293
 2346W        W 5865   9.002   1.037   0.510  0.0367  0.3585 -0.1216
 2347W        W 5866   5.777   2.534   1.847  0.0303 -0.0024  0.1288
 2348W        W 5867   7.602   6.991  10.490  0.0256 -0.1732 -0.3183
 2349W        W 5868   9.183   1.207   0.929 -0.1862  0.0132 -0.3756
 2350W        W 5869   1.669   4.734  10.509 -0.2293  0.2823  0.2425
 2351W        W 5870   0.032   6.435  11.274 -0.0540  0.0734  0.1836
 2352W        W 5871   0.979   3.497   8.754  0.1434  0.2329 -0.1479
 2353W        W 5872   6.934   9.365   8.449 -0.0771 -0.0515  0.0234
 2354W        W 5873   5.303   2.187   0.258  0.4394 -0.0672  0.0862
 2355W        W 5874   6.070   5.613   2.147 -0.5115 -0.3532  0.0871
 2356W        W 5875   7.863   0.714   2.643 -0.3018  0.0410  0.0797
 2357W        W 5876   6.766   1.196   8.461 -0.1094  0.2972  0.0780
 2358W        W 5877   5.857   5.962   3.313  0.0459  0.2743 -0.3615
 2359W        W 5878   0.426   1.039   9.696 -0.2191  0.1491 -0.0666
 2360W        W 5879   2.346   2.576   1.855 -0.0333 -0.2843 -0.0729
 2361W        W 5880   9.062   0.380   9.305 -0.0249  0.0558  0.1460
 2362W        W 5881   8.085   4.748   9.994 -0.1761 -0.1184  0.1026
 2363W        W 5882   5.373   5.720  11.700  0.0996 -0.1959  0.3068
 2364W        W 5883   6.488   3.888   0.111  0.2702 -0.3396 -0.0856
 2365W        W 5884   0.491   7.829   2.989 -0.1098  0.0835 -0.0991
 2366W        W 5885   7.066   4.284   9.343  0.1756  0.1199 -0.2216
 2367W        W 5886   1.461   5.918   3.419  0.1566 -0.3493 -0.0822
 2368W        W 5887   9.218   7.124   9.768  0.1011  0.0018 -0.3579
 2369W        W 5888   1.677   8.581  11.370 -0.0062 -0.0940 -0.4459
 2370W        W 5889   8.286   9.521   2.184  0.3430 -0.0954  0.1704
 2371W        W 5890   4.127   3.326   0.413 -0.4980  0.0847 -0.0388
 2372W        W 5891   8.368   0.771   9.543  0.1039 -0.2350  0.1470
 2373W        W 5892   7.048   4.318   3.730 -0.0848  0.1455 -0.1683
 2374W        W 5893   1.055   6.496  11.222 -0.0606  0.1963 -0.0526
 2375W        W 5894   3.187   3.578   2.530  0.2189 -0.1335  0.1158
 2376W        W 5895   3.168   7.871  12.201 -0.1569 -0.0492 -0.2970
 2377W        W 5896   4.446   2.762   4.757  0.1307  0.0804 -0.3644
 2378W        W 5897   7.992   6.744   1.194 -0.1172 -0.0773  0.0130
 2379W        W 5898   5.647   7.609   1.465 -0.2651 -0.1296  0.0879
 2380W        W 5899   4.349   2.464  12.195 -0.0000  0.0381  0.2707
 2381W        W 5900   6.145   4.458   3.511  0.1324  0.0382  0.3593
 2382W        W 5901   7.305   5.743   8.197 -0.0321  0.0820 -0.2419
 2383W        W 5902   8.092   0.122   1.006 -0.0286  0.3128 -0.1922
 2384W        W 5903   0.261   3.466   2.883 -0.0612  0.0577  0.0291
 2385W        W 5904   0.872   5.925   4.359 -0.2496 -0.1898 -0.1778
 2386W        W 5905   8.884   8.286   0.461  0.0102  0.1383 -0.4511
 2387W        W 5906   6.670   7.189  10.266 -0.1483 -0.2265  0.0002
 2388W        W 5907   4.763   5.268   3.069 -0.0328 -0.3484 -0.0349
 2389W        W 5908   8.489   7.490   3.461  0.0736  0.1393 -0.1808
 2390W        W 5909   7.212   6.228   0.514  0.2143 -0.0417 -0.0169
 2391W        W 5910   5.298   2.600   1.731 -0.0276 -0.0379 -0.0684
 2392W        W 5911   1.998   4.041  10.256  0.0587 -0.3846 -0.2179
 2393W        W 5912   7.794   1.229   8.775  0.2226  0.1972 -0.4405
 2394W        W 5913   7.224   3.053   9.658  0.0281  0.0843 -0.0781
 2395W        W 5914   2.669   6.212  12.361 -0.1476  0.0646  0.1222
 2396W        W 5915   3.494   3.669  11.013  0.2408 -0.1709 -0.0673
 2397W        W 5916   4.816   6.335   8.889 -0.1150  0.3458 -0.0292
 2398W        W 5917   9.378   5.347   3.294 -0.0043 -0.1715  0.0178
 2399W        W 5918   3.224   7.768  10.367  0.0160 -0.0939  0.0049
 2400W        W 5919   3.713   4.733   9.676  0.3043 -0.0298 -0.2433
 2401W        W 5920   5.048   8.660   2.057  0.1491  0.0271 -0.0407
 2402W        W 5921   0.778   3.058   8.743  0.3096 -0.1896  0.2024
 2403W        W 5922   4.251   3.229   2.425 -0.2064  0.1195 -0.1524
 2404W        W 5923   8.533   4.576  12.189 -0.1505 -0.1933  0.0008
 2405W        W 5924   7.022   2.688  10.765  0.4202  0.1532  0.2099
 2406W        W 5925   1.808   6.732   8.633  0.0629 -0.0280 -0.0053
 2407W        W 5926   6.888   5.054  11.056  0.1052  0.1337 -0.1003
 2408W        W 5927   1.419   0.421  10.074  0.1292  0.0619  0.2992
 2409W        W 5928   1.660   1.461  10.128 -0.1074  0.1402 -0.2970
 2410W        W 5929   3.254   1.558  11.924 -0.1270  0.1670  0.2936
 2411W        W 5930   2.914   7.418   9.532 -0.0456 -0.1096 -0.3020
 2412W        W 5931   5.485   4.880   1.843 -0.2970  0.1056 -0.1198
 2413W        W 5932   3.014   4.457   3.519  0.2075  0.1742  0.1919
 2414W        W 5933   5.751   4.277   3.270 -0.2575  0.1147 -0.2009
 2415W        W 5934   8.889   8.899  10.238 -0.0296 -0.1759 -0.0691
 2416W        W 5935   9.380   5.686   1.170 -0.5034  0.0085 -0.1960
 2417W        W 5936   9.018   8.257   3.297  0.1138  0.1924 -0.0080
 2418W        W 5937   7.943   7.562   2.519  0.0938  0.0846 -0.2248
 2419W        W 5938   0.962   7.959   0.557  0.0738  0.0710  0.0527
 2420W        W 5939   3.175   5.332   7.949  0.0093 -0.2762 -0.0777
 2421W        W 5940   0.641   0.275   0.512  0.0673  0.4970 -0.3010
 2422W        W 5941   5.826   4.760   0.463  0.3546  0.0835 -0.2554
 2423W        W 5942   2.127   1.789   2.098 -0.1043 -0.1405 -0.1186
 2424W        W 5943   8.046   8.999  12.423  0.2825  0.5364  0.0065
 2425W        W 5944   6.162   1.273   3.063  0.0936  0.0192  0.1227
 2426W        W 5945   3.935   4.279   3.540  0.2314 -0.2329 -0.5104
 2427W        W 5946   8.543   0.587   0.148  0.0786 -0.0757  0.0665
 2428W        W 5947   4.142   3.310   1.794  0.2148  0.0024  0.2888
 2429W        W 5948   3.400   4.152   1.829 -0.0774  0.0499  0.0359
 2430W        W 5949   4.068   1.462   3.240  0.1743  0.1115 -0.1279
 2431W        W 5950   3.530   7.382   2.035 -0.2012 -0.1220 -0.2334
 2432W        W 5951   8.206   5.234   3.162 -0.1620  0.0263 -0.1678
 2433W        W 5952   0.037   8.574   0.533 -0.2055 -0.0577  0.1519
 2434W        W 5953   9.466   2.968   9.277  0.0900 -0.0294  0.0554
 2435W        W 5954   1.445   5.964  12.518  0.1108  0.1882  0.1006
 2436W        W 5955   9.018   7.521  10.685 -0.3793 -0.0783  0.0303
 2437W        W 5956   6.019   8.484   0.323  0.1276  0.0858  0.0192
 2438W        W 5957   0.882   4.212   9.701  0.0880 -0.1496  0.2678
 2439W        W 5958   0.397   6.196   9.151 -0.0866 -0.3382 -0.0314
 2440W        W 5959   9.238   3.017   3.315  0.0966  0.0618  0.2232
 2441W        W 5960   3.139   2.666   0.145 -0.0847  0.0488 -0.1058
 2442W        W 5961   0.343   7.440   2.282  0.2482  0.3351  0.0424
 2443W        W 5962   1.224   6.613  10.691 -0.2086  0.0648  0.0184
 2444W        W 5963   3.386   4.947  10.607 -0.0935 -0.3122  0.3117
 2445W        W 5964   3.998   7.943   0.464  0.0740 -0.3347  0.0211
 2446W        W 5965   4.064   8.811   1.879  0.1120 -0.1543 -0.0990
 2447W        W 5966   4.646   3.757   3.594  0.0514 -0.1216 -0.1389
 2448W        W 5967   8.856   4.184   9.668  0.0079  0.1213  0.2804
 2449W        W 5968   5.024   1.986   0.644 -0.1113  0.1204 -0.0641
 2450W        W 5969   0.346   6.448  12.208  0.0079 -0.2338  0.0122
 2451W        W 5970   9.684   5.973  10.941 -0.1744  0.2741  0.0079
 2452W        W 5971   1.488   1.029  12.525 -0.0720  0.2995  0.1298
 2453W        W 5972   1.058   2.348   9.650  0.1956 -0.2166 -0.0583
 2454W        W 5973   2.278   2.314   2.846  0.0092 -0.3585  0.0253
 2455W        W 5974   7.672   3.061  12.428  0.2260 -0.0250  0.0310
 2456W        W 5975   1.537   9.701   2.889 -0.0150 -0.2227 -0.0528
 2457W        W 5976   1.516   8.321   2.195  0.0574 -0.0204  0.1629
 2458W        W 5977   9.459   1.996   1.898  0.0274  0.0337  0.0616
 2459W        W 5978   0.242   4.319   3.464  0.0250 -0.0784  0.0104
 2460W        W 5979   1.832   5.626   0.509 -0.1126  0.1786 -0.1009
 2461W        W 5980   2.161   2.239   0.862 -0.2766 -0.1372 -0.1850
 2462W        W 5981   7.902   8.706   9.121  0.0111  0.1702  0.3546
 2463W        W 5982   9.372   2.012   8.867  0.0768 -0.2863  0.1698
 2464W        W 5983   3.173   1.243   3.165 -0.1225 -0.3840 -0.2586
 2465W        W 5984   5.844   8.177   0.653 -0.0715  0.2495 -0.0223
 2466W        W 5985   9.643   3.244  10.234 -0.3314 -0.1527 -0.3835
 2467W        W 5986   3.727   4.400   3.099  0.2484 -0.1909  0.1579
 2468W        W 5987   2.420   2.639  10.481  0.1674 -0.1063 -0.3170
 2469W        W 5988   5.606   2.851  11.110  0.0304  0.0256 -0.2697
 2470W        W 5989   5.197   6.755   2.314 -0.0560 -0.2187 -0.0999
 2471W        W 5990   9.538   1.107   1.981 -0.1314 -0.0749  0.0454
 2472W        W 5991   0.016   3.568   4.306 -0.1541 -0.1759 -0.1201
 2473W        W 5992   4.262   5.076   2.356 -0.1084 -0.1408 -0.2293
 2474W        W 5993   3.175   5.554   2.408 -0.4034  0.0743  0.1193
 2475W        W 5994   1.579   7.725   8.341 -0.0708 -0.1174 -0.2574
 2476W        W 5995   1.308   9.434   3.241  0.0677 -0.0698 -0.2982
 2477W        W 5996   0.853   0.180   4.564 -0.1473  0.0355  0.0139
 2478W        W 5997   6.403   5.832   3.857  0.1064 -0.0677 -0.2078
 2479W        W 5998   3.809   9.032  12.156 -0.1561 -0.0418  0.2914
 2480W        W 5999   2.307   0.458   0.064  0.0559 -0.2300 -0.0238
 2481W        W 6000   0.242   4.833   0.547  0.1037  0.1608 -0.2151
 2482W        W 6001   6.248   2.746   2.016  0.0035  0.3318 -0.1157
 2483W        W 6002   5.155   6.752   8.932 -0.1275  0.1998  0.0012
 2484W        W 6003   6.423   1.541  11.098  0.0046  0.1088 -0.0475
 2485W        W 6004   9.663   1.552   3.880  0.0246 -0.3922 -0.2680
 2486W        W 6005   3.640   2.259   8.513  0.3789  0.2334 -0.1270
 2487W        W 6006   3.577   6.526   0.685  0.1678 -0.0298 -0.0332
 2488W        W 6007   0.773   8.155  10.803 -0.1722 -0.3167  0.2694
 2489W        W 6008   7.740   5.071  12.002 -0.0128  0.1448  0.1611
 2490W        W 6009   5.826   0.789  12.076  0.1219  0.5895 -0.3400
 2491W        W 6010   5.387   3.219   2.477 -0.0669  0.0388 -0.3256
 2492W        W 6011   6.209   1.603   9.786 -0.0279  0.2703 -0.1524
 2493W        W 6012   4.157   2.743   9.893  0.1650  0.0699 -0.1524
 2494W        W 6013   1.597   6.789   2.229  0.0533 -0.3484 -0.0374
 2495W        W 6014   2.749   7.053  10.601 -0.0566  0.0597  0.1165
 2496W        W 6015   5.224   7.827   1.521 -0.0784  0.0513  0.1782
 2497W        W 6016   4.274   1.412  11.852  0.2945 -0.0612  0.2945
 2498W        W 6017   4.866   2.543   9.089 -0.1436  0.0694  0.1619
 2499W        W 6018   3.260   3.543   9.119 -0.1314  0.2962  0.2943
 2500W        W 6019   5.339   0.150   1.979 -0.1546 -0.1976  0.1217
 2501W        W 6020   6.843   1.076   4.461 -0.0797  0.1315  0.1100
 2502W        W 6021   7.803   6.403   1.800 -0.1119 -0.1760  0.1489
 2503W        W 6022   3.618   5.014   3.107 -0.0922 -0.1033 -0.2740
 2504W        W 6023   0.195   8.289   0.935  0.3028 -0.1653 -0.0182
 2505W        W 6024   1.984   9.675   8.861 -0.0176  0.0277 -0.0474
 2506W        W 6025   3.937   6.683   2.093 -0.0599  0.1055  0.1425
 2507W        W 6026   3.319   2.221  11.405  0.0601 -0.0117 -0.1462
 2508W        W 6027   8.396   8.901  11.680 -0.1618 -0.0741  0.3019
 2509W        W 6028   6.722   6.064   1.122 -0.1082 -0.0880  0.2851
 2510W        W 6029   2.892   1.698   8.960 -0.1226  0.3260  0.1391
 2511W        W 6030   2.132   0.224   4.123 -0.5080 -0.3553  0.3927
 2512W        W 6031   3.412   1.493   3.698  0.0496  0.1907 -0.1066
 2513W        W 6032   3.849   8.975   3.490 -0.2328 -0.1867 -0.3219
 2514W        W 6033   5.766   5.238   3.404 -0.3516 -0.0370  0.5267
 2515W        W 6034   2.527   0.210   4.585 -0.0857  0.0799  0.0631
 2516W        W 6035   5.500   2.646  10.221 -0.3137 -0.2436  0.0725
 2517W        W 6036   0.409   8.611  11.364  0.0405  0.0558  0.2980
 2518W        W 6037   3.966   3.277   0.876  0.0558 -0.1329 -0.0707
 2519W        W 6038   3.527   5.529  11.281 -0.0362  0.1097 -0.2769
 2520W        W 6039   3.581   3.393   1.228  0.1885  0.1946 -0.1803
 2521W        W 6040   0.852   7.252   3.727  0.1091  0.4251 -0.0642
 2522W        W 6041   5.882   2.530   9.815  0.1906 -0.1129 -0.3736
 2523W        W 6042   3.935   7.573   3.270 -0.0958  0.0464  0.1750
 2524W        W 6043   5.173   2.244   2.483 -0.3673 -0.0245  0.2052
 2525W        W 6044   5.131   4.830   1.376  0.1185 -0.0603 -0.2287
 2526W        W 6045   5.323   4.750  10.229  0.2402 -0.0575  0.0091
 2527W        W 6046   1.255   7.389   0.023  0.2365  0.3490 -0.2358
 2528W        W 6047   5.047   5.326   1.213  0.2552 -0.0352  0.3187
 2529W        W 6048   6.848   4.808   0.576  0.2371  0.3171 -0.1331
 2530W        W 6049   8.726   0.348   8.565 -0.0055  0.3379 -0.2899
 2531W        W 6050   2.191   9.400   2.094  0.0719 -0.1930  0.2086
 2532W        W 6051   4.161   2.073  10.991  0.0196 -0.0636  0.0269
 2533W        W 6052   3.523   2.321   0.222 -0.1490 -0.1081  0.1975
 2534W        W 6053   3.126   5.507   8.924 -0.2846  0.3526 -0.1225
 2535W        W 6054   7.103   3.909   2.151 -0.1885  0.0249  0.2173
 2536W        W 6055   0.761   8.609   9.473  0.1226  0.1839 -0.1198
 2537W        W 6056   1.490   9.207   1.233  0.1185 -0.1626 -0.0356
 2538W        W 6057   4.515   6.524  12.435  0.2822 -0.1929  0.2218
 2539W        W 6058   5.004   3.334  11.342 -0.1153  0.0840  0.2831
 2540W        W 6059   3.949   1.456   9.558 -0.0065  0.5084 -0.2596
 2541W        W 6060   6.143   6.588   8.891 -0.0450 -0.0204  0.0049
 2542W        W 6061   7.399   7.453   0.241  0.2100  0.1431 -0.2369
 2543W        W 6062   8.332   4.611   2.721 -0.3999 -0.1927 -0.0606
 2544W        W 6063   4.150   4.039   9.387 -0.0339  0.3098  0.0264
 2545W        W 6064   7.275   5.047   0.525  0.0820  0.0532  0.0061
 2546W        W 6065   5.284   0.022  11.754  0.1803 -0.0453  0.2067
 2547W        W 6066   6.954   9.594  10.479  0.2377 -0.0041  0.0131
 2548W        W 6067   1.981   8.210  11.597 -0.2179  0.1885 -0.0338
 2549W        W 6068   8.435   3.797   0.049 -0.0232 -0.3602 -0.0019
 2550W        W 6069   2.949   1.338   3.583  0.1294  0.0600 -0.1592
 2551W        W 6070   4.564   1.655  12.215 -0.0015  0.2760  0.0407
 2552W        W 6071   4.003   5.031   9.217 -0.0942 -0.0337  0.0447
 2553W        W 6072   6.858   8.890   2.231  0.2267 -0.0714 -0.1983
 2554W        W 6073   4.077   8.063   9.311  0.1025 -0.4363 -0.0926
 2555W        W 6074   3.944   3.555  10.853 -0.0588  0.1145 -0.0635
 2556W        W 6075   4.765   4.218   3.276 -0.3451 -0.3582 -0.1202
 2557W        W 6076   7.761   1.121   2.038 -0.0070  0.1211 -0.0724
 2558W        W 6077   0.501   7.938   0.724 -0.0262  0.3781  0.0400
 2559W        W 6078   7.695   3.017   4.357 -0.0120 -0.1246  0.1975
 2560W        W 6079   7.258   1.259  10.691 -0.2576 -0.3838 -0.0226
 2561W        W 6080   4.458   2.888  10.894 -0.1884 -0.0321  0.0373
 2562W        W 6081   3.998   8.734   2.383 -0.2217 -0.1457 -0.1540
 2563W        W 6082   0.727   1.958  10.644 -0.0475  0.2468  0.2093
 2564W        W 6083   1.192   8.120  11.999 -0.0054 -0.1496 -0.0842
 2565W        W 6084   3.466   5.770   8.740  0.1140  0.3371  0.0068
 2566W        W 6085   7.312   8.068  12.529 -0.1364 -0.0768 -0.0737
 2567W        W 6086   5.192   8.508  12.226 -0.0466 -0.0831  0.2067
 2568W        W 6087   2.898   3.588   3.928 -0.0745  0.2062  0.0814
 2569W        W 6088   3.974   7.807   3.704 -0.1169  0.3171 -0.2375
 2570W        W 6089   9.568   0.672   3.818  0.1148  0.0711  0.5258
 2571W        W 6090   7.282   8.097  10.956 -0.2063 -0.0862  0.0385
 2572W        W 6091   6.240   9.348  10.045  0.0873  0.1198  0.2272
 2573W        W 6092   2.869   2.552   1.911  0.1782 -0.0799 -0.0355
 2574W        W 6093   6.625   3.958   1.820  0.2200  0.3355  0.0582
 2575W        W 6094   0.207   7.566   0.747  0.1336 -0.1460 -0.1691
 2576W        W 6095   4.407   4.451   3.615  0.1405 -0.1178 -0.2284
 2577W        W 6096   4.408   7.344   3.204  0.0471  0.0251 -0.0555
 2578W        W 6097   0.282   2.900  10.025  0.1979  0.1311 -0.0935
 2579W        W 6098   3.600   4.560   1.171 -0.1773  0.1615  0.0762
 2580W        W 6099   9.399   7.036   1.238  0.0459 -0.3085  0.1953
 2581W        W 6100   2.688   4.665  11.710 -0.0978 -0.0794  0.0211
 2582W        W 6101   0.924   2.337   1.743  0.1215 -0.0138 -0.0059
 2583W        W 6102   2.669   2.148   0.303  0.1056  0.1675 -0.1614
 2584W        W 6103   9.277   3.298   9.920  0.1727  0.2068  0.1845
 2585W        W 6104   7.087   6.412   2.562  0.3635  0.1124  0.2459
 2586W        W 6105   5.333   4.599   8.139  0.1005  0.0586 -0.0125
 2587W        W 6106   8.968   3.237   8.558 -0.2120  0.0895 -0.0429
 2588W        W 6107   3.390   4.111   0.450 -0.1487 -0.1375  0.2004
 2589W        W 6108   0.538   3.156   1.931  0.2761 -0.0667 -0.0410
 2590W        W 6109   8.473   8.126  12.259  0.1817  0.0851  0.1340
 2591W        W 6110   6.357   0.891   9.727  0.0163  0.4579  0.2545
 2592W        W 6111   2.199   1.681   4.693  0.0546 -0.0631 -0.2334
 2593W        W 6112   2.996   0.873   3.781 -0.1715 -0.1351  0.4597
 2594W        W 6113   6.774   4.591   9.600 -0.2808 -0.1060  0.3150
 2595W        W 6114   5.586   1.152   0.650 -0.0765 -0.0875 -0.0818
 2596W        W 6115   6.764   7.049   9.385 -0.2026 -0.0286  0.0414
 2597W        W 6116   8.939   6.648  11.891  0.4384  0.1002 -0.4031
 2598W        W 6117   4.245   6.340   1.674  0.0080  0.0889  0.1975
 2599W        W 6118   5.421   4.549   0.924  0.1569 -0.1937 -0.2950
 2600W        W 6119   8.550   4.040   8.811  0.3891  0.0642 -0.0138
 2601W        W 6120   1.162   6.334  11.786  0.0696 -0.2136  0.0351
 2602W        W 6121   8.912   9.308   3.736 -0.0968 -0.2520 -0.0358
 2603W        W 6122   7.646   0.251   0.022  0.3060 -0.2843  0.0564
 2604W        W 6123   3.960   6.751   9.287  0.0949  0.0400 -0.1958
 2605W        W 6124   8.544   9.085  12.372 -0.2697  0.2399  0.0495
 2606W        W 6125   7.937   6.237   2.257  0.0196 -0.1581  0.2942
 2607W        W 6126   2.348   5.454   9.719 -0.1438  0.3718 -0.1263
 2608W        W 6127   2.631   0.359   9.973  0.2286  0.0939 -0.0142
 2609W        W 6128   1.866   5.462   2.040 -0.1413 -0.1505  0.5026
 2610W        W 6129   0.574   5.578  10.151  0.3302 -0.0160  0.1097
 2611W        W 6130   1.730   0.305   3.690  0.0801 -0.1932  0.0941
 2612W        W 6131   2.546   0.521   0.479  0.1727  0.1952 -0.4750
 2613W        W 6132   3.391   5.766   1.965 -0.3687 -0.2535 -0.1509
 2614W        W 6133   6.834   9.536   1.039 -0.1004  0.1214 -0.4922
 2615W        W 6134   0.278   6.608   0.716  0.0456 -0.4123 -0.0855
 2616W        W 6135   7.047   2.106  10.783  0.2574 -0.0520 -0.0977
 2617W        W 6136   8.236   5.267   1.702 -0.0776 -0.1785  0.1364
 2618W        W 6137   4.152   4.411  10.475 -0.4024  0.2574  0.1454
 2619W        W 6138   4.270   5.766  11.487 -0.0032  0.1703 -0.1479
 2620W        W 6139   9.551   2.360   0.974 -0.3108 -0.1393 -0.1667
 2621W        W 6140   1.763   9.165   3.233  0.2865 -0.1353 -0.1538
 2622W        W 6141   8.567   4.492   0.515  0.0143  0.1044  0.1076
 2623W        W 6142   5.502   0.164   1.531  0.0319  0.0861  0.2674
 2624W        W 6143   7.559   2.909   1.563  0.1906 -0.2040  0.1978
 2625W        W 6144   6.924   8.574   2.629  0.1488 -0.1899 -0.2092
 2626W        W 6145   9.683   3.817  10.514  0.0467  0.1367  0.2587
 2627W        W 6146   2.898   4.824   5.099  0.0755 -0.2519 -0.1777
 2628W        W 6147   8.138   2.228  10.126 -0.2388 -0.0935  0.2921
 2629W        W 6148   6.575   4.976   8.325 -0.3054 -0.1429  0.2326
 2630W        W 6149   6.893   8.851  10.866 -0.1379  0.2189  0.0694
 2631W        W 6150   8.836   9.430  11.616 -0.1360 -0.2105  0.0900
 2632W        W 6151   0.651   7.794   2.134 -0.0333  0.0066 -0.1665
 2633W        W 6152   4.451   5.345  11.412 -0.0597 -0.0886 -0.1408
 2634W        W 6153   3.691   2.503   2.158 -0.0162  0.1803 -0.1450
 2635W        W 6154   2.988   7.930   1.531  0.3670 -0.0940  0.0065
 2636W        W 6155   1.539   3.249   2.310  0.0870 -0.2792 -0.1099
 2637W        W 6156   2.777   2.640   9.354  0.0918  0.0110 -0.0474
 2638W        W 6157   3.429   5.275   3.541 -0.1250  0.1435 -0.0701
 2639W        W 6158   1.906   1.673   3.125 -0.1527 -0.2825 -0.0741
 2640W        W 6159   1.181   1.288  10.217 -0.1480  0.3303 -0.0077
 2641W        W 6160   8.913   2.855   0.300  0.2733 -0.0382  0.2065
 2642W        W 6161   3.209   6.449  11.466 -0.0632 -0.1353 -0.3216
 2643W        W 6162   3.107   4.543   1.746  0.0587  0.1172 -0.0490
 2644W        W 6163   0.722   6.452   0.942 -0.3420  0.0867  0.1094
 2645W        W 6164   2.173   9.061   1.780  0.1858  0.2194  0.0046
 2646W        W 6165   3.127   0.691  10.520 -0.1710  0.2910 -0.0045
 2647W        W 6166   2.720   0.771  10.164 -0.2175 -0.0262  0.0800
 2648W        W 6167   5.514   0.831   0.225 -0.3066  0.3283  0.0259
 2649W        W 6168   2.507   4.108   0.131  0.0461  0.1006  0.1278
 2650W        W 6169   5.292   6.615  12.388  0.1345  0.2575  0.0581
 2651W        W 6170   7.299   3.812  12.009  0.0063 -0.0153 -0.0832
 2652W        W 6171   8.088   1.791   0.232 -0.0808 -0.1363  0.1590
 2653W        W 6172   8.195   4.235  10.124 -0.0365  0.0322 -0.0760
 2654W        W 6173   7.607   1.123  12.134 -0.1786 -0.2395 -0.0793
 2655W        W 6174   1.073   3.296   8.289  0.2067  0.0648 -0.1709
 2656W        W 6175   8.803   6.261  11.492 -0.1780 -0.0929  0.0943
 2657W        W 6176   8.332   8.320   1.545  0.1429  0.1631  0.2338
 2658W        W 6177   6.565   5.689   1.997  0.5400  0.2467 -0.0953
 2659W        W 6178   6.119   5.241   2.936 -0.0183  0.1609  0.1391
 2660W        W 6179   8.170   4.516   9.199  0.2303 -0.0720  0.1012
 2661W        W 6180   6.208   7.436  10.507  0.0180  0.0209  0.1923
 2662W        W 6181   1.547   7.006   4.029 -0.0099  0.0373 -0.2066
 2663W        W 6182   9.323   8.243   4.191  0.0083  0.0653  0.3948
 2664W        W 6183   5.781   1.291  11.831  0.3872  0.0854  0.3315
 2665W        W 6184   8.391   3.878  10.405  0.1342 -0.0213  0.3082
 2666W        W 6185   0.144   6.203   3.269 -0.0883 -0.0143  0.0900
 2667W        W 6186   0.818   9.549  11.641 -0.1310 -0.1534 -0.0714
 2668W        W 6187   9.362   3.420   0.176  0.0064 -0.1741 -0.3621
 2669W        W 6188   3.257   3.732   7.977  0.0941  0.2441 -0.1646
 2670W        W 6189   8.162   1.272   3.607  0.4529 -0.1029  0.1345
 2671W        W 6190   0.667   4.807   1.368 -0.1358  0.0651 -0.2140
 2672W        W 6191   1.230   7.124   9.698  0.3840 -0.2902 -0.2026
 2673W        W 6192   4.838   2.398   2.806  0.3489  0.1234 -0.1554
 2674W        W 6193   5.428   1.569   9.071  0.2312 -0.1016  0.1379
 2675W        W 6194   2.492   4.348  10.477  0.1053  0.1855  0.3212
 2676W        W 6195   0.741   7.580  10.441 -0.1767  0.0366 -0.3494
 2677W        W 6196   4.838   9.546   0.590  0.0802 -0.1569  0.0792
 2678W        W 6197   0.009   9.583   0.752 -0.0999  0.0404 -0.0568
 2679W        W 6198   0.318   4.361   4.018 -0.0520  0.0183  0.1285
 2680W        W 6199   5.297   3.757   3.029 -0.2560  0.0180  0.3789
 2681W        W 6200   6.205   6.713   3.639  0.0445  0.1754  0.0381
 2682W        W 6201   1.655   1.021   9.392 -0.0892  0.0583  0.1770
 2683W        W 6202   4.652   2.457  10.057  0.3034 -0.0657  0.2965
 2684W        W 6203   6.658   8.463   6.994  0.0690 -0.2730  0.3979
 2685W        W 6204   0.255   8.759   2.704 -0.1024 -0.2799  0.1620
 2686W        W 6205   5.708   3.109  10.712  0.1690 -0.3169  0.2951
 2687W        W 6206   8.886   5.317   9.534 -0.0777 -0.3005  0.0779
 2688W        W 6207   2.599   9.424   8.485 -0.5269  0.1787 -0.0371
 2689W        W 6208   0.665   1.131   1.679 -0.1611  0.2180 -0.3597
 2690W        W 6209   0.711   8.591   3.494  0.0012  0.2326 -0.1111
 2691W        W 6210   0.088   0.683   9.672  0.2517 -0.1650 -0.0563
 2692W        W 6211   3.680   6.687   0.207  0.2010 -0.1831  0.0058
 2693W        W 6212   8.099   8.306   1.978  0.1627 -0.0742  0.3697
 2694W        W 6213   7.433   9.295  11.926 -0.1271  0.1054 -0.1003
 2695W        W 6214   5.346   0.485   9.247  0.1254 -0.0065 -0.2102
 2696W        W 6215   6.208   4.284  10.159  0.2679  0.2041 -0.0248
 2697W        W 6216   1.386   1.935   8.142  0.1968 -0.0620  0.0645
 2698W        W 6217   1.921   8.637   3.413  0.2160 -0.3030 -0.0319
 2699W        W 6218   2.903   4.279  10.117  0.2134  0.0891  0.1901
 2700W        W 6219   4.004   7.169  10.315  0.0318  0.1573  0.1892
 2701W        W 6220   2.056   1.824  12.114 -0.0919  0.0439 -0.0898
 2702W        W 6221   7.186   4.385   2.052  0.0095  0.1198 -0.0564
 2703W        W 6222   9.570   0.874   8.917  0.1782  0.2735 -0.0803
 2704W        W 6223   5.876   1.043  10.559  0.0054 -0.2534  0.1543
 2705W        W 6224   8.876   5.460   0.495  0.0298  0.0291 -0.1129
 2706W        W 6225   3.223   7.642  11.242 -0.0688 -0.3835 -0.4484
 2707W        W 6226   2.476   4.429  12.171 -0.2926 -0.2823  0.1706
 2708W        W 6227   4.281   0.408   4.132  0.3278 -0.0426 -0.0371
 2709W        W 6228   4.216   2.329   3.533  0.1009  0.1329 -0.3884
 2710W        W 6229   6.713   7.251   1.510 -0.3043  0.0536 -0.2393
 2711W        W 6230   6.655   4.471  11.051 -0.0225  0.0571 -0.1296
 2712W        W 6231   7.703   2.212   3.370 -0.0393 -0.1999  0.0938
 2713W        W 6232   2.008   5.413  10.145  0.2766 -0.1089 -0.1490
 2714W        W 6233   6.101   6.118  10.887 -0.1898  0.2592  0.0122
 2715W        W 6234   5.553   0.089   3.404 -0.0230  0.1359  0.2525
 2716W        W 6235   6.940   2.585   2.258  0.0883 -0.0618 -0.0596
 2717W        W 6236   8.535   0.978  10.406 -0.1668 -0.0182  0.1407
 2718W        W 6237   4.015   5.147   8.672  0.0256  0.0946 -0.1917
 2719W        W 6238   0.614   1.740   9.092 -0.2071  0.1935 -0.1350
 2720W        W 6239   2.190   1.877   9.283 -0.1892  0.2490 -0.0573
 2721W        W 6240   6.964   0.811   3.112  0.2586 -0.1744 -0.0849
 2722W        W 6241   3.831   5.491   0.726 -0.0663 -0.0207 -0.1090
 2723W        W 6242   4.416   4.105   2.181 -0.2648 -0.1148 -0.0903
 2724W        W 6243   7.683   9.408  12.385  0.1138  0.2173  0.2137
 2725W        W 6244   5.370   3.964   1.432 -0.1145 -0.0693  0.2305
 2726W        W 6245   1.807   7.022  11.281 -0.1814  0.3203 -0.0223
 2727W        W 6246   6.005   2.395   8.601  0.0032  0.1249  0.1877
 2728W        W 6247   0.613   8.758  12.141 -0.0469  0.1334 -0.1548
 2729W        W 6248   7.186   1.915  11.226  0.3687 -0.0753 -0.0006
 2730W        W 6249   5.136   8.670   1.523  0.0738 -0.2973  0.3832
 2731W        W 6250   8.317   7.840   3.184 -0.3467 -0.2190 -0.0816
 2732W        W 6251   0.077   8.585   3.484 -0.1941 -0.1294  0.1796
 2733W        W 6252   2.507   1.929  11.980 -0.1025  0.0915 -0.0182
 2734W        W 6253   4.228   5.841   0.997 -0.0387 -0.0915  0.0738
 2735W        W 6254   0.704   9.238   8.965 -0.1557  0.2012 -0.3372
 2736W        W 6255   6.397   7.782   0.638  0.3326 -0.0411 -0.0547
 2737W        W 6256   2.883   8.391   2.958 -0.1087  0.0934 -0.1116
 2738W        W 6257   4.491   7.079   2.136 -0.2092 -0.0594 -0.0287
 2739W        W 6258   3.406   9.241   3.577 -0.0960 -0.3072  0.1681
 2740W        W 6259   7.122   9.054   1.007  0.0745  0.2174 -0.0080
 2741W        W 6260   4.015   1.153  10.639  0.1335  0.0666  0.0451
 2742W        W 6261   0.058   2.845  11.920  0.0834  0.2257  0.0073
 2743W        W 6262   7.746   9.628  10.625 -0.2066  0.0718  0.3370
 2744W        W 6263   0.163   4.813   3.726  0.0399 -0.0400 -0.0036
 2745W        W 6264   2.356   1.036  10.370 -0.0987  0.0051  0.3049
 2746W        W 6265   2.595   9.032   8.828  0.2350  0.2770 -0.2550
 2747W        W 6266   6.633   1.640   1.333 -0.3343 -0.1578  0.0380
 2748W        W 6267   5.017   2.417  10.439  0.0337 -0.1072  0.0663
 2749W        W 6268   7.410   5.848  11.999  0.2962 -0.1374  0.0174
 2750W        W 6269   3.724   8.373  10.131  0.0885  0.1122 -0.0510
 2751W        W 6270   0.968   9.142   2.484  0.1894 -0.1675  0.0253
 2752W        W 6271   2.889   7.137  12.060 -0.2165 -0.0855  0.0912
 2753W        W 6272   6.857   9.300   3.067  0.1636  0.0489  0.1326
 2754W        W 6273   7.362   1.283   0.763  0.1911  0.1154 -0.2880
 2755W        W 6274   6.550   2.097  12.544  0.3543 -0.0802  0.3299
 2756W        W 6275   5.682   3.697   3.383 -0.0691 -0.1752  0.1286
 2757W        W 6276   1.972   7.490   8.230 -0.2590  0.0279  0.0152
 2758W        W 6277   8.673   1.017   0.972 -0.1313 -0.1616  0.2643
 2759W        W 6278   5.960   3.720  12.119  0.0940 -0.0459  0.1882
 2760W        W 6279   8.143   6.206  10.879 -0.0374 -0.1480  0.0148
 2761W        W 6280   5.370   9.290   2.647  0.2028  0.0671 -0.1752
 2762W        W 6281   1.064   7.074  12.220 -0.2708  0.0860 -0.1845
 2763W        W 6282   7.419   1.607  10.100 -0.1990  0.1747  0.2227
 2764W        W 6283   4.006   6.815   1.280 -0.2221 -0.0331 -0.1890
 2765W        W 6284   2.772   8.834   1.696  0.1796 -0.0761  0.1057
 2766W        W 6285   7.899   5.214   9.849 -0.0492  0.1447 -0.0895
 2767W        W 6286   0.105   5.532  10.495 -0.1040 -0.1297 -0.0144
 2768W        W 6287   7.985   2.226  10.630  0.2221  0.3695  0.0205
 2769W        W 6288   3.502   2.301   4.125 -0.5153 -0.1064  0.0797
 2770W        W 6289   1.665   6.419  12.204 -0.4082  0.4808  0.1319
 2771W        W 6290   3.385   4.140   4.429  0.0489  0.3376 -0.0254
 2772W        W 6291   5.539   6.597   6.753  0.0714  0.0132  0.3964
 2773W        W 6292   1.163   2.913   9.664 -0.0141  0.1478  0.2324
 2774W        W 6293   1.663   1.284   3.287  0.0175 -0.4408  0.2272
 2775W        W 6294   5.886   2.935   8.549  0.2118 -0.1340  0.1416
 2776W        W 6295   1.809   7.773   1.561  0.0891  0.2231  0.2936
 2777W        W 6296   8.278   4.053  11.079  0.0327 -0.0118  0.4073
 2778W        W 6297   7.585   9.207   9.992 -0.0216 -0.0388  0.0480
 2779W        W 6298   2.785   0.761   2.682 -0.0084 -0.1805  0.0399
 2780W        W 6299   3.957   2.888   3.346 -0.0033 -0.0157  0.1967
 2781W        W 6300   6.497   2.565   1.187  0.0028  0.1822  0.1210
 2782W        W 6301   1.626   2.773   2.247  0.4964  0.2490  0.0828
 2783W        W 6302   9.266   7.214  10.289 -0.3318  0.0949  0.3917
 2784W        W 6303   7.443   3.874  12.504  0.1488  0.1172  0.0735
 2785W        W 6304   1.052   8.887   9.869  0.0601 -0.1376 -0.4923
 2786W        W 6305   3.846   0.150  11.585 -0.1266  0.1319  0.2487
 2787W        W 6306   6.728   4.509   9.071 -0.1202 -0.2742  0.1708
 2788W        W 6307   2.058   3.402  11.282  0.2906 -0.0178  0.0731
 2789W        W 6308   1.471   5.933   9.872 -0.1240 -0.0836  0.2682
 2790W        W 6309   5.368   9.479  12.258  0.4798  0.0693  0.1600
 2791W        W 6310   4.352   2.774  10.348  0.3396 -0.0951  0.0829
 2792W        W 6311   4.089   7.816  11.914 -0.0877 -0.1618  0.2282
 2793W        W 6312   1.633   4.143   3.606 -0.0520 -0.1544 -0.0193
 2794W        W 6313   2.432   8.964   1.365  0.1889 -0.1675 -0.0586
 2795W        W 6314   0.296   1.176  12.019  0.0144  0.0916  0.0745
 2796W        W 6315   5.070   1.762   0.183  0.0316  0.3412 -0.0948
 2797W        W 6316   1.562   0.697  11.824  0.0033  0.0506 -0.0863
 2798W        W 6317   4.011   2.271  10.032 -0.0077 -0.2638 -0.0958
 2799W        W 6318   1.289   8.918  11.123 -0.0284 -0.2135  0.1905
 2800W        W 6319   0.295   2.086  10.955  0.0344  0.0677 -0.1422
 2801W        W 6320   5.886   7.251   1.236 -0.0519 -0.1622  0.0396
 2802W        W 6321   3.058   6.093   8.914  0.4048  0.5624  0.1799
 2803W        W 6322   8.690   1.906   0.981  0.0187  0.2600  0.1183
 2804W        W 6323   0.768   1.195  11.879  0.4000 -0.1699  0.3134
 2805W        W 6324   6.132   7.467   9.610  0.2486 -0.1146  0.1624
 2806W        W 6325   6.363   3.203  10.142 -0.0433  0.1713  0.0802
 2807W        W 6326   2.080   6.673   2.367 -0.0242  0.0655 -0.2036
 2808W        W 6327   6.618   1.218   1.044 -0.0897  0.0920 -0.0651
 2809W        W 6328   3.010   2.312   3.327  0.1934  0.2037 -0.0036
 2810W        W 6329   6.364   2.602  12.421  0.1434  0.4773 -0.4114
 2811W        W 6330   4.373   2.634  11.725  0.2543 -0.0128 -0.2078
 2812W        W 6331   0.868   8.377  11.692 -0.0008  0.0550  0.1692
 2813W        W 6332   6.572   2.732   2.822  0.3724 -0.0713  0.0750
 2814W        W 6333   8.838   6.274   4.219 -0.3324 -0.0451 -0.1173
 2815W        W 6334   8.115   7.728   3.705 -0.1720 -0.1164  0.1873
 2816W        W 6335   3.350   8.675   9.226  0.0041  0.2955  0.1880
 2817W        W 6336   8.826   0.757   2.547  0.0303 -0.0722  0.0047
 2818W        W 6337   2.562   4.741  11.171  0.2689  0.0058 -0.0484
 2819W        W 6338   1.743   7.587   2.812  0.1444 -0.0521 -0.3393
 2820W        W 6339   2.627   4.869   9.511 -0.0048 -0.0619  0.0452
 2821W        W 6340   8.627   1.714   9.588 -0.2272  0.1973 -0.1929
 2822W        W 6341   1.070   0.413   1.465  0.0485  0.1727 -0.0343
 2823W        W 6342   4.183   5.703   0.521 -0.1015 -0.1796  0.0541
 2824W        W 6343   2.653   8.940   8.283  0.0173  0.0747  0.0265
 2825W        W 6344   5.251   5.022   8.964  0.2654  0.0752 -0.0090
 2826W        W 6345   5.028   0.855   1.435  0.1949  0.0313  0.0006
 2827W        W 6346   7.029   7.151   9.879  0.0065  0.1193  0.1881
 2828W        W 6347   3.812   9.213   2.187 -0.0872 -0.1895  0.0940
 2829W        W 6348   9.107   0.692   8.837 -0.1852 -0.2003  0.1182
 2830W        W 6349   4.151   4.958   9.791  0.2585 -0.1461 -0.1169
 2831W        W 6350   8.563   6.556   3.842  0.1601 -0.0679  0.0186
 2832W        W 6351   0.614   1.505   5.167 -0.1158  0.1679 -0.0597
 2833W        W 6352   5.936   5.311  12.390 -0.1251  0.0760  0.1848
 2834W        W 6353   1.686   3.050  11.414  0.2074  0.1684 -0.3997
 2835W        W 6354   9.701   1.881   3.435 -0.0329 -0.0275 -0.2697
 2836W        W 6355   5.602   4.108  12.202  0.0939 -0.2774  0.0843
 2837W        W 6356   3.712   4.394  10.172 -0.0481  0.1839  0.1197
 2838W        W 6357   3.517   7.325   9.488 -0.1694  0.0507  0.0832
 2839W        W 6358   6.690   5.601   2.984  0.2014  0.1721  0.0834
 2840W        W 6359   1.283   0.007  12.567 -0.1107 -0.2819 -0.4118
 2841W        W 6360   8.772   2.755   3.598  0.2128  0.0051 -0.0421
 2842W        W 6361   8.760   0.007  10.518 -0.0148 -0.0505 -0.2543
 2843W        W 6362   9.468   8.234   9.743 -0.1779  0.0093  0.1869
 2844W        W 6363   5.058   3.292   2.849 -0.0994 -0.0885 -0.0353
 2845W        W 6364   2.199   0.114   3.625  0.1233  0.0876 -0.0362
 2846W        W 6365   6.993   5.879  10.103  0.0089 -0.1021  0.0018
 2847W        W 6366   0.319   7.561  12.207  0.0609 -0.1097  0.0868
 2848W        W 6367   8.615   5.089   0.880 -0.1578 -0.0529  0.0610
 2849W        W 6368   5.370   3.759  11.294 -0.1011  0.0117  0.0313
 2850W        W 6369   5.850   6.613   0.527 -0.4545  0.0489 -0.0527
 2851W        W 6370   4.510   3.459   1.297 -0.0272 -0.0018  0.0069
 2852W        W 6371   6.914   0.779   9.468  0.2809  0.3334 -0.0259
 2853W        W 6372   7.130   3.708  10.661 -0.0397  0.0799 -0.2047
 2854W        W 6373   7.519   2.595   1.960  0.0709  0.0749 -0.1830
 2855W        W 6374   4.379   1.246   9.322  0.0862 -0.2180 -0.0504
 2856W        W 6375   7.856   3.010   1.177  0.2126  0.0182  0.1211
 2857W        W 6376   4.995   1.532   2.823 -0.1152 -0.2335 -0.0458
 2858W        W 6377   4.722   9.312   3.206  0.1851 -0.0254  0.1591
 2859W        W 6378   2.651   2.221  10.458 -0.1717 -0.0552  0.0700
 2860W        W 6379   8.208   2.936  11.969  0.2458  0.0964  0.1306
 2861W        W 6380   4.786   6.293   0.382  0.0263 -0.1452 -0.0850
 2862W        W 6381   0.487   2.834  11.362  0.0804  0.0349 -0.0870
 2863W        W 6382   7.827   7.007   1.556  0.2063  0.1581  0.3730
 2864W        W 6383   6.580   5.757   1.513 -0.0741 -0.0457 -0.1370
 2865W        W 6384   1.541   5.468  10.014 -0.3763  0.2503 -0.0654
 2866W        W 6385   4.265   8.750  12.235 -0.0162 -0.2936  0.1652
 2867W        W 6386   5.475   3.228   9.415  0.1294  0.1569  0.3165
 2868W        W 6387   5.829   2.822  12.487 -0.0058  0.0682 -0.0008
 2869W        W 6388   8.700   3.477   2.612  0.0861  0.0622 -0.0822
 2870W        W 6389   5.873   1.928   8.959 -0.1920 -0.0994  0.2361
 2871W        W 6390   3.807   0.618   8.860 -0.1007 -0.4035  0.0773
 2872W        W 6391   8.506   5.932  11.665 -0.0530 -0.1830  0.1746
 2873W        W 6392   7.995   9.273   8.950 -0.1006 -0.4881  0.1133
 2874W        W 6393   2.083   9.620   8.308 -0.1362 -0.0734  0.0719
 2875W        W 6394   2.219   9.312   2.972 -0.0998  0.0939 -0.0468
 2876W        W 6395   6.768   1.046   9.050 -0.1460 -0.2346 -0.2621
 2877W        W 6396   1.271   6.726   9.331  0.1682 -0.0783  0.2538
 2878W        W 6397   2.136   1.565  10.243  0.2158 -0.4457 -0.1266
 2879W        W 6398   4.208   5.827   1.945  0.1029 -0.0200 -0.0560
 2880W        W 6399   3.113   9.308   1.878 -0.0010 -0.2330  0.0858
 2881W        W 6400   4.331   7.211   2.655  0.1348  0.2409 -0.3725
 2882W        W 6401   2.091   2.096   1.690 -0.1266  0.1405  0.4098
 2883W        W 6402   3.355   9.238  10.437  0.3382  0.0106  0.0388
 2884W        W 6403   7.476   1.572   9.383 -0.2851 -0.0803  0.0193
 2885W        W 6404   7.836   0.129   0.566 -0.2516  0.1000 -0.1637
 2886W        W 6405   4.959   7.058  10.392  0.2198  0.2360 -0.1043
 2887W        W 6406   4.667   7.692   6.914 -0.3981 -0.2711 -0.3545
 2888W        W 6407   3.711   2.091   9.680  0.2364  0.1234 -0.3089
 2889W        W 6408   5.363   1.077  11.966 -0.2368 -0.0655  0.0342
 2890W        W 6409   7.776   5.078   1.233  0.1005 -0.0424  0.0821
 2891W        W 6410   1.468   1.851   3.859 -0.3495  0.0311  0.2268
 2892W        W 6411   2.653   0.010   1.981  0.1735 -0.1746 -0.0363
 2893W        W 6412   2.576   1.481   9.326 -0.1237 -0.2114  0.2628
 2894W        W 6413   4.920   2.084   3.711 -0.3087 -0.0781  0.0414
 2895W        W 6414   9.458   6.005   0.221 -0.0182 -0.0100 -0.0278
 2896W        W 6415   6.828   4.031   1.236  0.0873  0.1092  0.1649
 2897W        W 6416   0.166   7.559   3.255 -0.1408 -0.0175 -0.0225
 2898W        W 6417   8.490   3.617   4.291  0.2425 -0.1510  0.0830
 2899W        W 6418   5.764   4.298   8.654  0.1844 -0.3579 -0.0533
 2900W        W 6419   7.664   8.861   9.552 -0.0041 -0.2110  0.0598
 2901W        W 6420   3.453   8.697   3.598 -0.0322  0.0204 -0.0094
 2902W        W 6421   7.683   7.952   1.588  0.1375 -0.1419 -0.1533
 2903W        W 6422   1.726   9.135   2.178  0.4939 -0.2961 -0.0965
 2904W        W 6423   2.943   5.561   3.127  0.3105  0.0584  0.1896
 2905W        W 6424   4.479   8.854   0.898  0.0132  0.3627 -0.0988
 2906W        W 6425   8.857   0.043   9.691  0.1440  0.1206  0.3548
 2907W        W 6426   6.322   4.229   0.948 -0.3110 -0.2891 -0.0824
 2908W        W 6427   6.642   5.542   3.558  0.2033  0.1496 -0.2680
 2909W        W 6428   5.944   2.381  10.286  0.1048  0.4229 -0.0507
 2910W        W 6429   2.378   6.751   0.492  0.2061  0.0118  0.3227
 2911W        W 6430   0.126   5.334   8.056  0.0132 -0.3032 -0.1247
 2912W        W 6431   2.619   0.279   2.694 -0.2480  0.2904 -0.0073
 2913W        W 6432   6.529   5.774   9.062  0.0797  0.0953 -0.0861
 2914W        W 6433   1.253   5.572   1.384  0.0062  0.1942  0.0615
 2915W        W 6434   9.628   3.789  11.878 -0.3692  0.3358 -0.1503
 2916W        W 6435   0.206   3.350   0.142  0.1257 -0.0912 -0.1656
 2917W        W 6436   6.363   2.075   8.778 -0.1272 -0.0230 -0.3184
 2918W        W 6437   9.221   2.980  10.790  0.0351 -0.1166 -0.2806
 2919W        W 6438   4.298   7.310   1.372 -0.2076 -0.0271 -0.3087
 2920W        W 6439   4.743   2.140  12.303 -0.3446 -0.1212  0.2123
 2921W        W 6440   9.308   3.395  10.530  0.2662  0.0658 -0.0174
 2922W        W 6441   8.326   7.643  10.374  0.0170 -0.0675 -0.1084
 2923W        W 6442   6.730   1.376   2.956  0.2071  0.2029 -0.0446
 2924W        W 6443   7.562   1.974   9.720 -0.0808 -0.1549  0.1384
 2925W        W 6444   0.746   0.563   2.416 -0.2209 -0.1464  0.2338
 2926W        W 6445   7.189   0.124   0.285 -0.1195  0.0336 -0.0278
 2927W        W 6446   0.224   5.873   0.196 -0.1860 -0.1142 -0.3119
 2928W        W 6447   0.152   0.431   1.358  0.1494 -0.0184  0.0722
 2929W        W 6448   9.184   3.013  12.436 -0.3181 -0.0911 -0.1013
 2930W        W 6449   9.269   0.762  10.583 -0.2468  0.1345  0.3594
 2931W        W 6450   3.212   2.411   8.683 -0.0399 -0.0498 -0.1159
 2932W        W 6451   2.761   6.295   3.863 -0.0165 -0.0595 -0.1660
 2933W        W 6452   4.815   9.248   0.972  0.0878 -0.1710  0.1591
 2934W        W 6453   2.568   0.566  10.634  0.0641 -0.1811  0.0250
 2935W        W 6454   8.202   0.394   8.635 -0.1938  0.2034  0.1005
 2936W        W 6455   7.561   3.614   2.284 -0.0026  0.0481 -0.2807
 2937W        W 6456   2.093   0.563  12.077  0.0495 -0.1958  0.1203
 2938W        W 6457   8.623   4.230  10.729 -0.0089  0.1329 -0.0993
 2939W        W 6458   8.697   4.651   3.572 -0.1051  0.0152  0.1858
 2940W        W 6459   7.153   1.143   2.673  0.0259  0.2808  0.0299
 2941W        W 6460   5.910   6.299   1.575 -0.0805  0.0661  0.2998
 2942W        W 6461   7.750   7.081   0.065 -0.0727 -0.0134 -0.2692
 2943W        W 6462   0.065   6.380   9.685 -0.2553 -0.1006  0.0147
 2944W        W 6463   4.359   9.365   1.741 -0.0264  0.1249  0.2105
 2945W        W 6464   6.100   5.590  10.969  0.0652  0.0593 -0.0035
 2946W        W 6465   4.592   9.568   8.883 -0.1973  0.0006  0.3521
 2947W        W 6466   8.943   6.950  10.703 -0.2839 -0.1005 -0.2402
 2948W        W 6467   7.201   2.540   2.705  0.3590 -0.0657 -0.0478
 2949W        W 6468   9.006   5.724   3.309 -0.2091  0.2379  0.0725
 2950W        W 6469   8.919   3.375  10.907 -0.2485  0.2117 -0.0136
 2951W        W 6470   4.631   3.628  10.282  0.1550 -0.2052 -0.1289
 2952W        W 6471   4.635   1.076  12.389 -0.0378  0.0787  0.4142
 2953W        W 6472   1.644   6.940  10.001  0.0740  0.0681  0.1481
 2954W        W 6473   6.959   8.486  11.670 -0.1323 -0.1192 -0.0881
 2955W        W 6474   3.667   3.370   3.158 -0.0806 -0.0385  0.1019
 2956W        W 6475   9.633   5.122   4.135 -0.3642  0.0862 -0.3566
 2957W        W 6476   1.945   9.587   2.589 -0.1313  0.3452 -0.1950
 2958W        W 6477   9.584   1.159  10.576  0.3968  0.1311  0.0576
 2959W        W 6478   7.493   0.907   2.365 -0.2913  0.0890  0.0468
 2960W        W 6479   1.346   0.385   8.066 -0.1033  0.1720 -0.0514
 2961W        W 6480   6.115   8.856  12.518  0.1299 -0.1339  0.0076
 2962W        W 6481   7.893   3.248   2.450 -0.0282  0.2190  0.0305
 2963W        W 6482   4.499   7.315  10.190  0.4066  0.1178  0.3507
 2964W        W 6483   1.579   8.747   3.012 -0.2315 -0.1773  0.1268
 2965W        W 6484   0.851   2.524   3.537 -0.1201  0.1252 -0.2872
 2966W        W 6485   0.375   6.653   9.974  0.3919  0.0129 -0.0579
 2967W        W 6486   7.165   8.980   0.388  0.0808 -0.0237 -0.0818
 2968W        W 6487   5.443   4.502   9.669 -0.0662 -0.0417 -0.0753
 2969W        W 6488   1.036   2.460   2.231 -0.3616  0.3871  0.2722
 2970W        W 6489   2.653   8.004  10.035 -0.3106 -0.2707 -0.1055
 2971W        W 6490   0.435   3.387  10.133  0.0671 -0.2556 -0.0032
 2972W        W 6491   0.836   3.721   0.705 -0.0989 -0.0076 -0.0870
 2973W        W 6492   5.873   7.046  11.970 -0.1722 -0.3418 -0.2368
 2974W        W 6493   3.347   5.350   0.778  0.1225  0.0037 -0.0970
 2975W        W 6494   0.409   0.283   4.376 -0.1709  0.4196  0.0567
 2976W        W 6495   5.526   0.020  11.019  0.0393  0.0774 -0.2100
 2977W        W 6496   2.319   2.722   9.051 -0.1634 -0.0039 -0.1474
 2978W        W 6497   2.414   8.904   3.261 -0.1671 -0.1489 -0.0130
 2979W        W 6498   8.014   5.370  10.663  0.0795 -0.0087 -0.2220
 2980W        W 6499   8.095   1.162   9.628 -0.2243 -0.1709 -0.1482
 2981W        W 6500   5.658   1.932  10.999 -0.1087 -0.1549 -0.1713
 2982W        W 6501   2.248   8.133  12.045 -0.2705  0.1900  0.0256
 2983W        W 6502   3.113   1.776   3.272  0.0834  0.1126  0.1735
 2984W        W 6503   7.351   2.516   0.557 -0.1281 -0.2234  0.2088
 2985W        W 6504   7.077   5.255   2.893  0.1826  0.1435  0.0908
 2986W        W 6505   8.701   5.715   9.250  0.2246 -0.0219  0.0831
 2987W        W 6506   3.234   4.889   8.747 -0.0412 -0.0834 -0.2830
 2988W        W 6507   9.558   4.792   1.707 -0.0056 -0.0484  0.3110
 2989W        W 6508   6.160   1.757   0.181 -0.0565  0.0688 -0.0646
 2990W        W 6509   8.508   5.922   4.377  0.2324 -0.0618 -0.2094
 2991W        W 6510   4.152   5.071   0.582 -0.2727 -0.2265  0.0046
 2992W        W 6511   6.698   7.507  12.073  0.0389  0.0698 -0.0247
 2993W        W 6512   7.331   0.676   9.722 -0.1802 -0.2612  0.1367
 2994W        W 6513   2.305   3.039  11.504 -0.0944 -0.0883  0.0821
 2995W        W 6514   7.536   3.727  11.369 -0.0882  0.0879  0.0006
 2996W        W 6515   2.786   0.175   4.078 -0.0068  0.1385 -0.2818
 2997W        W 6516   8.810   1.473   1.228  0.3580  0.1386  0.0177
 2998W        W 6517   5.502   8.189   1.715  0.0976  0.0787  0.0800
 2999W        W 6518   3.736   2.975   2.837  0.0545  0.1373 -0.1890
 3000W        W 6519   0.618   3.166   0.908  0.1739 -0.1095 -0.2978
 3001W        W 6520   3.255   7.359   2.586  0.0863  0.0182 -0.3018
 3002W        W 6521   1.947   2.173  12.465  0.0954 -0.2150  0.0236
 3003W        W 6522   5.479   5.041   9.422  0.0849  0.0788  0.0973
 3004W        W 6523   6.118   5.078  10.118 -0.0914 -0.2346  0.0640
 3005W        W 6524   6.234   0.091   9.690  0.1728  0.1332 -0.1085
 3006W        W 6525   7.607   4.183   0.857 -0.3742  0.0539 -0.2018
 3007W        W 6526   6.028   9.206   6.744  0.0428  0.2124  0.6606
 3008W        W 6527   3.071   1.802  11.226 -0.1049 -0.1783 -0.0304
 3009W        W 6528   8.588   7.171   9.615 -0.1224 -0.3279 -0.1865
 3010W        W 6529   5.240   8.028   2.728 -0.1891 -0.1593  0.0208
 3011W        W 6530   9.154   0.187   8.826 -0.0875 -0.2646 -0.1735
 3012W        W 6531   0.538   8.871   9.882 -0.0872  0.1103  0.1043
 3013W        W 6532   2.358   1.903  10.728 -0.0420  0.0234  0.0107
 3014W        W 6533   7.930   4.608  12.340 -0.1035 -0.2014  0.3865
 3015W        W 6534   7.708   3.300   0.746 -0.0644  0.1181  0.2297
 3016W        W 6535   7.444   5.808  11.264  0.0499 -0.1113  0.0371
 3017W        W 6536   6.439   9.391   9.399 -0.2666 -0.0966  0.2115
 3018W        W 6537   7.491   7.776  11.468 -0.2250  0.1469  0.2476
 3019W        W 6538   8.655   6.700   1.228  0.1971 -0.0758 -0.0953
 3020W        W 6539   0.286   6.773   0.214  0.1838  0.2447  0.2270
 3021W        W 6540   0.214   2.922   7.883  0.0796  0.0521 -0.2481
 3022W        W 6541   2.994   2.627  10.542  0.3128  0.1552  0.0549
 3023W        W 6542   0.225   7.164  11.326  0.0692  0.1215 -0.0258
 3024W        W 6543   6.009   8.924  11.450 -0.1214  0.1221  0.0756
 3025W        W 6544   0.712   1.441  10.302 -0.2131 -0.0626  0.2701
 3026W        W 6545   7.683   1.126  11.549  0.2015  0.3262  0.0107
 3027W        W 6546   6.503   2.665   0.346  0.0244  0.2458 -0.2762
 3028W        W 6547   2.775   0.772   0.027  0.0993  0.0267  0.0619
 3029W        W 6548   4.991   4.383   8.909 -0.1254 -0.0310 -0.0370
 3030W        W 6549   0.532   2.525  10.871 -0.0116  0.3795 -0.0154
 3031W        W 6550   1.360   9.623  11.747  0.0308 -0.3162 -0.0251
 3032W        W 6551   0.090   4.389   9.605 -0.3016 -0.0532 -0.2179
 3033W        W 6552   5.029   1.983   8.089 -0.3376  0.1505 -0.5007
 3034W        W 6553   7.218   1.466   4.526  0.0474 -0.2273  0.0190
 3035W        W 6554   8.090   3.084  11.540  0.2399  0.0902 -0.0955
 3036W        W 6555   6.936   8.762  10.220 -0.2841 -0.2464 -0.1600
 3037W        W 6556   6.138   2.261   3.976  0.0289 -0.5002 -0.0409
 3038W        W 6557   7.168   2.877  12.193  0.1373  0.0060  0.1719
 3039W        W 6558   7.886   8.544   0.441 -0.0207  0.1079 -0.0577
 3040W        W 6559   9.297   3.577  12.301  0.0962 -0.0764 -0.0073
 3041W        W 6560   2.637   6.501   9.720  0.1574  0.2632  0.0982
 3042W        W 6561   1.460   3.196   3.532  0.1743 -0.1724  0.3435
 3043W        W 6562   3.533   8.359  10.802 -0.0053  0.4340  0.0773
 3044W        W 6563   6.301   6.980   9.708 -0.1170  0.2263 -0.2182
 3045W        W 6564   9.025   8.154   2.024  0.0387 -0.1755 -0.0007
 3046W        W 6565   5.301   7.039   9.413  0.2158  0.2908  0.1142
 3047W        W 6566   7.568   3.138  10.002 -0.0809  0.1836  0.0559
 3048W        W 6567   0.333   6.090   1.575 -0.0929 -0.1167 -0.1552
 3049W        W 6568   7.829   1.924   7.898  0.1320  0.0724 -0.0508
 3050W        W 6569   3.331   6.366   8.544 -0.0796 -0.2221  0.0337
 3051W        W 6570   5.678   4.164   9.372 -0.3597 -0.1520 -0.2671
 3052W        W 6571   7.240   9.011  11.195 -0.1718  0.4403  0.0261
 3053W        W 6572   4.956   8.952   5.722  0.1190 -0.0338  0.1232
 3054W        W 6573   6.074   9.708   3.602 -0.1916  0.1012  0.0424
 3055W        W 6574   0.840   9.535  10.402 -0.0540 -0.0901  0.1990
 3056W        W 6575   0.481   7.776  10.827  0.2985 -0.0012  0.0165
 3057W        W 6576   0.035   0.865  12.375  0.4021 -0.0613  0.1464
 3058W        W 6577   1.951   8.736  10.154  0.0606 -0.3868 -0.0897
 3059W        W 6578   7.486   7.452   1.666 -0.1718  0.2935  0.2221
 3060W        W 6579   9.281   1.855   2.424  0.0937  0.0370 -0.0967
 3061W        W 6580   8.341   5.670   3.388 -0.2845 -0.0649  0.0850
 3062W        W 6581   0.995   8.374   5.162  0.2573  0.0121  0.2113
 3063W        W 6582   2.101   8.402   4.430  0.1615  0.0294  0.1608
 3064W        W 6583   1.414   4.341   0.928 -0.0220  0.1570  0.1434
 3065W        W 6584   0.634   2.257  11.357 -0.0113  0.0121 -0.1516
 3066W        W 6585   7.943   9.180  11.915  0.0724 -0.2726  0.1660
 3067W        W 6586   8.254   6.388  12.289  0.0405  0.1010  0.1152
 3068W        W 6587   5.430   9.351   0.188 -0.0631 -0.0815  0.0017
 3069W        W 6588   4.165   2.088  10.496  0.0065  0.1068 -0.1616
 3070W        W 6589   4.898   2.294   9.633  0.0035 -0.1947  0.0482
 3071W        W 6590   2.921   3.826   0.160 -0.2976  0.1477 -0.1058
 3072W        W 6591   7.077   4.056   0.737  0.2931 -0.2608  0.1232
 3073W        W 6592   0.823   2.075   3.801  0.3464  0.2892 -0.0514
 3074W        W 6593   4.970   4.986   0.406 -0.1168 -0.0248  0.1706
 3075W        W 6594   2.646   2.626   0.470  0.0586  0.2264 -0.2250
 3076W        W 6595   3.737   6.743  10.174  0.2469  0.2354 -0.2269
 3077W        W 6596   7.175   4.855   1.881  0.2364  0.2191 -0.0526
 3078W        W 6597   1.842   6.218   4.053 -0.1906 -0.0487 -0.0163
 3079W        W 6598   3.315   6.891   8.698  0.0551 -0.1496  0.0711
 3080W        W 6599   2.122   5.768   0.925  0.2157 -0.1637 -0.0926
 3081W        W 6600   2.153   7.661   3.560 -0.3934 -0.3519  0.2044
 3082W        W 6601   8.567   7.487   1.801  0.4667  0.0564 -0.3052
 3083W        W 6602   7.989   5.873  11.487 -0.0158 -0.2536 -0.2341
 3084W        W 6603   6.668   1.938   9.728  0.1548 -0.1947  0.3553
 3085W        W 6604   3.272   8.162  11.241  0.5182  0.1699 -0.0745
 3086W        W 6605   7.351   7.689   9.993 -0.2652  0.0153  0.0895
 3087W        W 6606   6.792   9.628   9.669 -0.0870 -0.0544 -0.1475
 3088W        W 6607   8.982   4.915   0.526  0.0011 -0.0615  0.5363
 3089W        W 6608   2.789   3.888   2.627  0.0455 -0.2189  0.2672
 3090W        W 6609   9.565   6.543   0.104 -0.1232 -0.0274 -0.0535
 3091W        W 6610   5.524   1.143  10.180  0.2771 -0.0458  0.0055
 3092W        W 6611   8.220   0.209   0.034  0.3619  0.2768  0.0252
 3093W        W 6612   5.040   1.370   1.553 -0.3137  0.1974  0.2883
 3094W        W 6613   2.837   7.733   2.362  0.0661  0.1341  0.6200
 3095W        W 6614   7.563   0.125   3.487  0.0397 -0.1428 -0.1105
 3096W        W 6615   1.062   2.745   8.221  0.1298  0.0430  0.0017
 3097W        W 6616   8.099   5.724   2.933 -0.2658 -0.1008 -0.1447
 3098W        W 6617   1.958   1.270  12.500 -0.0892 -0.0798  0.0475
 3099W        W 6618   2.693   5.116  11.513 -0.2994  0.1946 -0.1397
 3100W        W 6619   7.529   0.595  12.027  0.0282 -0.0607 -0.0316
 3101W        W 6620   3.054   4.127   3.914 -0.1034 -0.1042  0.0197
 3102W        W 6621   5.730   8.105   0.153 -0.0940 -0.0002 -0.0159
 3103W        W 6622   6.051   1.208   0.905  0.1110 -0.0241  0.2227
 3104W        W 6623   4.298   5.311   1.024 -0.0177  0.1034 -0.1323
 3105W        W 6624   5.864   5.416  11.396 -0.4764 -0.1011 -0.2359
 3106W        W 6625   4.629   2.149  11.819 -0.2162  0.0832  0.1472
 3107W        W 6626   6.718   8.268  12.306  0.1412 -0.4018  0.1764
 3108W        W 6627   6.553   4.730  11.544 -0.4372 -0.0929  0.1136
 3109W        W 6628   1.179   1.351  11.424  0.0098 -0.0959  0.1203
 3110W        W 6629   1.924   4.167   2.337 -0.2324  0.2907  0.0802
 3111W        W 6630   6.131   3.966   1.405 -0.3932  0.0961  0.0553
 3112W        W 6631   1.563   7.336   2.288 -0.0365 -0.0159 -0.1190
 3113W        W 6632   3.482   1.033   0.655  0.1171 -0.2754 -0.1711
 3114W        W 6633   4.930   9.256   0.146 -0.4770 -0.1301  0.1346
 3115W        W 6634   9.097   0.183  10.108 -0.1053  0.2302  0.5049
 3116W        W 6635   5.898   2.274  11.425  0.1701 -0.0114  0.0995
 3117W        W 6636   1.467   3.096   9.349 -0.1801 -0.0803  0.2679
 3118W        W 6637   5.688   1.907   0.257 -0.0644 -0.0236  0.0625
 3119W        W 6638   6.979   1.682  11.642  0.1998 -0.1181 -0.3275
 3120W        W 6639   0.959   2.776   1.020  0.2872  0.2248  0.1351
 3121W        W 6640   9.342   6.016   8.147  0.0888 -0.0819 -0.2551
 3122W        W 6641   4.130   1.724   8.429  0.2299  0.2729  0.0816
 3123W        W 6642   8.029   5.388   3.630 -0.1221 -0.0042  0.3440
 3124W        W 6643   3.142   7.037  12.484  0.2668 -0.0825  0.1936
 3125W        W 6644   7.377   6.310  10.309 -0.0919  0.2553 -0.0371
 3126W        W 6645   2.265   5.652  11.026  0.0446 -0.2112  0.1915
 3127W        W 6646   7.405   5.586   2.750 -0.0557 -0.1340 -0.2253
 3128W        W 6647   1.899   1.241  10.512  0.0084 -0.2175 -0.0517
 3129W        W 6648   9.260   9.257   0.740 -0.4737  0.2503  0.0013
 3130W        W 6649   8.870   6.437   2.297 -0.1909 -0.0633  0.1232
 3131W        W 6650   5.350   8.523   9.611 -0.0041 -0.2308 -0.0962
 3132W        W 6651   1.262   3.690   1.172 -0.0372 -0.1248  0.0182
 3133W        W 6652   7.078   3.620   8.957 -0.1946  0.3958  0.0486
 3134W        W 6653   2.184   3.600   9.109  0.2603 -0.2193 -0.0233
 3135W        W 6654   3.053   3.684   3.018  0.2547 -0.1545  0.3528
 3136W        W 6655   2.920   0.365   7.948  0.0153  0.3219  0.2922
 3137W        W 6656   3.455   7.540   3.583 -0.0622  0.0050 -0.1351
 3138W        W 6657   5.186   2.198   1.965 -0.2570  0.2661  0.1400
 3139W        W 6658   7.042   2.410  10.343  0.1223  0.2251  0.1590
 3140W        W 6659   8.115   6.219   0.505  0.0794 -0.0341 -0.1414
 3141W        W 6660   7.802   7.831   3.324  0.0493 -0.3668  0.0100
 3142W        W 6661   4.941   2.629   1.102 -0.0320 -0.2890 -0.1617
 3143W        W 6662   1.139   0.875  11.584  0.2823  0.0396  0.0425
 3144W        W 6663   3.302   8.761  10.673  0.3125 -0.2374 -0.3246
 3145W        W 6664   4.682   1.601  11.708 -0.0581  0.1498  0.1222
 3146W        W 6665   0.767   6.333   8.572 -0.3764  0.2256 -0.2586
 3147W        W 6666   6.438   4.749   1.137 -0.1896  0.3228 -0.2065
 3148W        W 6667   4.532   1.667   0.126  0.0947 -0.1518 -0.1838
 3149W        W 6668   5.506   5.668   2.167 -0.0795  0.1863 -0.1326
 3150W        W 6669   5.768   2.008   9.470  0.0199  0.0054  0.0183
 3151W        W 6670   3.679   4.586   0.400  0.1339 -0.1224  0.0634
 3152W        W 6671   3.331   2.910  10.141  0.0273 -0.0551 -0.2920
 3153W        W 6672   2.682   7.707   1.820  0.0769 -0.1901 -0.3174
 3154W        W 6673   1.637   3.312   0.937 -0.5028  0.1578  0.1737
 3155W        W 6674   2.605   1.860   0.803  0.0924 -0.3018  0.3859
 3156W        W 6675   4.551   0.657   8.410  0.2348  0.0551 -0.2075
 3157W        W 6676   9.594   1.554   0.090 -0.0543 -0.1015  0.0856
 3158W        W 6677   9.697   5.189  10.052 -0.3716 -0.1674  0.4776
 3159W        W 6678   4.038   7.979  12.465 -0.1008 -0.0544 -0.0196
 3160W        W 6679   5.772   0.774   1.024  0.4319  0.2363 -0.3001
 3161W        W 6680   8.603   0.828   1.810 -0.2316 -0.2668 -0.0881
 3162W        W 6681   6.147   1.246  10.153 -0.2546 -0.0611  0.0764
 3163W        W 6682   3.612   2.906   1.142 -0.3716 -0.1193  0.1275
 3164W        W 6683   1.908   4.313   0.888  0.0844 -0.0101  0.0665
 3165W        W 6684   9.324   0.872  12.074  0.1729 -0.1566  0.4051
 3166W        W 6685   6.205   4.551   8.296  0.4152 -0.3242  0.1296
 3167W        W 6686   6.911   0.961   0.743  0.1141  0.1694 -0.0279
 3168W        W 6687   7.652   2.207  10.234  0.2726 -0.0353  0.0136
 3169W        W 6688   7.727   1.627  12.250 -0.1211  0.4837  0.0002
 3170W        W 6689   7.319   1.741   1.971  0.1124 -0.0302  0.0554
 3171W        W 6690   9.685   2.959  11.440  0.0060  0.0557 -0.0119
 3172W        W 6691   0.979   7.601   2.988 -0.2276 -0.2238  0.0814
 3173W        W 6692   8.762   4.963  10.208 -0.0381 -0.0893  0.1936
 3174W        W 6693   7.863   3.779   0.619  0.2313 -0.0259 -0.3151
 3175W        W 6694   8.915   5.183   1.903  0.1955 -0.0329  0.1269
 3176W        W 6695   9.428   8.989  10.702  0.0132  0.1530  0.2796
 3177W        W 6696   5.343   1.459   8.033  0.1616  0.1464 -0.3208
 3178W        W 6697   5.095   2.760   9.999 -0.1843 -0.1455  0.0858
 3179W        W 6698   8.535   6.010   3.876 -0.1780 -0.0552  0.3416
 3180W        W 6699   2.356   6.307   3.214  0.1488 -0.0055 -0.1132
 3181W        W 6700   9.414   3.932   9.191  0.0486  0.0606 -0.3563
 3182W        W 6701   1.947   2.670  11.130 -0.6361  0.0255  0.0092
 3183W        W 6702   8.324   7.627   2.194 -0.2530 -0.4550 -0.2147
 3184W        W 6703   5.133   4.742   4.470  0.1966  0.0564  0.0888
 3185W        W 6704   3.199   2.338   0.997 -0.2404  0.0584 -0.2651
 3186W        W 6705   3.740   4.801   3.909  0.1714 -0.1612 -0.1422
 3187W        W 6706   8.382   4.949  11.026  0.3030  0.1972 -0.1375
 3188W        W 6707   5.331   1.225   9.661  0.0362  0.2910 -0.0071
 3189W        W 6708   0.029   8.534   8.885  0.0012 -0.1810  0.0415
 3190W        W 6709   8.941   2.621   9.519  0.1802  0.0397  0.0224
 3191W        W 6710   3.084   9.667  11.142  0.1436  0.1882 -0.1000
 3192W        W 6711   3.340   9.093   0.642  0.1116 -0.1912 -0.2760
 3193W        W 6712   7.392   9.604   9.733 -0.1097 -0.1307 -0.0149
 3194W        W 6713   8.943   6.229   3.674  0.0535  0.0989  0.0761
 3195W        W 6714   1.449   6.194   0.448  0.0845  0.1837 -0.0331
 3196W        W 6715   5.999   7.338   2.589 -0.3029 -0.1785  0.1850
 3197W        W 6716   6.764   7.033  12.259  0.0737 -0.0924  0.0047
 3198W        W 6717   8.007   4.750   1.601 -0.0204  0.0122 -0.0327
 3199W        W 6718   8.190   0.758   3.906 -0.2590 -0.2445 -0.0756
 3200W        W 6719   6.336   2.808  11.606  0.1907 -0.3309 -0.1380
 3201W        W 6720   0.021   4.809   9.334 -0.1387  0.0775  0.1929
 3202W        W 6721   9.302   5.132   2.384 -0.2351  0.4719 -0.1015
 3203W        W 6722   7.579   5.928   0.775 -0.0509  0.1847  0.0612
 3204W        W 6723   8.168   5.506  11.746 -0.1583  0.1787  0.0537
 3205W        W 6724   4.510   8.030   2.060 -0.0013  0.0512  0.1178
 3206W        W 6725   5.645   5.337   8.928  0.0368 -0.3552 -0.0094
 3207W        W 6726   0.454   8.702   0.807 -0.0314 -0.0402  0.3638
 3208W        W 6727   9.641   0.322  10.350  0.6217  0.2060 -0.1287
 3209W        W 6728   2.953   5.099   9.120  0.0345  0.2382  0.3526
 3210W        W 6729   9.621   2.043  11.309 -0.0889 -0.1860 -0.0513
 3211W        W 6730   7.402   6.802   2.742 -0.1207  0.3103 -0.1545
 3212W        W 6731   9.332   1.147  11.073  0.2431  0.2884 -0.0590
 3213W        W 6732   1.882   4.597   9.571 -0.1263  0.0317 -0.1042
 3214W        W 6733   5.557   5.859   9.800  0.1052  0.0025  0.4388
 3215W        W 6734   9.153   1.505   2.007  0.0685  0.0633 -0.0927
 3216W        W 6735   2.452   7.807   1.160  0.1924 -0.0528  0.3032
 3217W        W 6736   0.006   3.668   9.884  0.0064 -0.0944  0.0834
 3218W        W 6737   1.482   3.051  12.514  0.1390  0.3156 -0.1059
 3219W        W 6738   5.963   8.889  10.086 -0.1933 -0.1771 -0.0733
 3220W        W 6739   1.085   0.768   0.155  0.3365 -0.2489  0.1341
 3221W        W 6740   2.139   8.976   2.446  0.1683  0.1477  0.1819
 3222W        W 6741   1.792   1.229   2.788 -0.2698  0.2168  0.0838
 3223W        W 6742   3.142   9.186   3.191 -0.2117 -0.1804  0.3188
 3224W        W 6743   3.721   5.283   4.170  0.0427  0.1620 -0.0084
 3225W        W 6744   4.580   6.919   6.995 -0.0474  0.1671  0.0431
 3226W        W 6745   0.755   1.326   2.701 -0.4316 -0.0690 -0.2381
 3227W        W 6746   4.094   4.714   0.170  0.0520 -0.1130  0.0566
 3228W        W 6747   2.325   2.907   1.036  0.0602 -0.1394  0.0534
 3229W        W 6748   8.459   3.812   1.342  0.1976 -0.2999 -0.1961
 3230W        W 6749   5.362   1.428  12.301 -0.0766 -0.2831  0.0858
 3231W        W 6750   1.649   4.049   9.789  0.0867  0.0162  0.2683
 3232W        W 6751   3.327   0.463   9.591  0.1326 -0.0410 -0.1391
 3233W        W 6752   6.777   8.342   2.228  0.0956  0.0704  0.1635
 3234W        W 6753   3.809   3.411  10.400  0.0605  0.2746  0.0249
 3235W        W 6754   0.619   7.567  11.417  0.1469  0.1047  0.2734
 3236W        W 6755   1.244   1.565   2.316  0.0744  0.1126 -0.0371
 3237W        W 6756   5.382   9.129  10.101  0.0010 -0.0364  0.0858
 3238W        W 6757   0.006   0.968   2.600  0.3405 -0.0260 -0.0348
 3239W        W 6758   3.179   8.442   1.440  0.1066 -0.1105  0.2190
 3240W        W 6759   2.617   7.888   3.509 -0.2770  0.0263  0.0015
 3241W        W 6760   7.067   2.234   9.875 -0.0586  0.4204  0.0424
 3242W        W 6761   3.647   3.829   9.365 -0.0517 -0.2334  0.0475
 3243W        W 6762   2.537   2.414   9.947  0.1633  0.2108  0.2018
 3244W        W 6763   6.770   0.052  12.260  0.1292  0.2401  0.1638
 3245W        W 6764   0.718   3.973   8.918 -0.0816  0.0045 -0.2867
 3246W        W 6765   6.950   2.328   0.780 -0.2468 -0.1619 -0.4568
 3247W        W 6766   3.592   8.822   2.012  0.2949 -0.2288 -0.2248
 3248W        W 6767   8.538   1.907   0.450 -0.1298  0.0366 -0.0541
 3249W        W 6768   7.862   1.339   9.253 -0.1483  0.0256 -0.3849
 3250W        W 6769   3.664   0.283   9.231 -0.1569  0.2483  0.1632
 3251W        W 6770   0.815   3.247  11.400 -0.1411 -0.2411 -0.0419
 3252W        W 6771   6.517   5.186  10.742 -0.2516  0.0254 -0.3374
 3253W        W 6772   1.023   4.755  11.612 -0.1065 -0.0108  0.1321
 3254W        W 6773   9.040   8.153  10.546  0.0580 -0.2450 -0.0320
 3255W        W 6774   6.555   9.377  11.830  0.2816 -0.2605 -0.1262
 3256W        W 6775   4.047   3.115   8.891  0.0060 -0.0639 -0.1363
 3257W        W 6776   1.835   8.826  10.975 -0.1306  0.1982  0.1786
 3258W        W 6777   4.831   0.439   0.565  0.0646 -0.0630 -0.1487
 3259W        W 6778   5.261   0.411  10.787 -0.1623 -0.1796 -0.0332
 3260W        W 6779   6.821   0.792   1.206  0.1903 -0.1260  0.2924
 3261W        W 6780   4.996   2.706   0.209  0.1669  0.1049  0.3062
 3262W        W 6781   1.336   3.698   2.068 -0.1461 -0.1423 -0.3113
 3263W        W 6782   6.580   1.052   2.435  0.1948 -0.3479  0.1298
 3264W        W 6783   8.113   1.408   3.075 -0.0569  0.0520 -0.3987
 3265W        W 6784   8.911   3.056   2.344 -0.1107 -0.0691 -0.1547
 3266W        W 6785   3.974   6.942   4.071  0.0963  0.1725 -0.0422
 3267W        W 6786   5.812   9.369  11.431 -0.3330 -0.0037 -0.2848
 3268W        W 6787   4.679   8.403   1.759 -0.1972 -0.1487  0.3664
 3269W        W 6788   0.528   6.933   3.198  0.0065  0.1333  0.1477
 3270W        W 6789   2.522   8.505   2.656  0.2840 -0.0090 -0.0471
 3271W        W 6790   6.752   8.760  11.369  0.1990 -0.3287 -0.1406
 3272W        W 6791   3.736   1.247   1.942  0.2720  0.1872 -0.2231
 3273W        W 6792   7.139   5.992   2.882  0.0235  0.0646  0.3556
 3274W        W 6793   3.954   2.882  11.410  0.0949 -0.0194  0.0729
 3275W        W 6794   3.030   1.016   0.967  0.0536 -0.3758 -0.2819
 3276W        W 6795   1.373   6.544   0.027  0.2743 -0.3083 -0.0658
 3277W        W 6796   8.364   6.677  10.989  0.0319 -0.4567  0.1004
 3278W        W 6797   7.160   3.685   1.403  0.3254 -0.0998 -0.3644
 3279W        W 6798   9.000   4.501  10.390 -0.0075 -0.1832  0.1073
 3280W        W 6799   3.960   9.528   9.162 -0.1395 -0.1276 -0.0712
 3281W        W 6800   9.302   3.384   2.286 -0.0409  0.0638  0.1963
 3282W        W 6801   1.481   0.974  10.493 -0.0119 -0.2047 -0.3337
 3283W        W 6802   3.811   5.717   1.165 -0.0740 -0.3887  0.0805
 3284W        W 6803   1.032   3.490  10.969 -0.0060  0.0036 -0.3073
 3285W        W 6804   3.943   2.382  11.889 -0.1126 -0.2290 -0.0933
 3286W        W 6805   4.468   9.412   1.223 -0.1914 -0.2796 -0.2230
 3287W        W 6806   7.127   3.125  11.689 -0.0124 -0.3022  0.2401
 3288W        W 6807   0.603   1.226   1.192 -0.0583 -0.4745 -0.1692
 3289W        W 6808   7.372   9.490   3.935 -0.1894  0.0462 -0.1987
 3290W        W 6809   0.626   5.924  12.464 -0.1608 -0.3027 -0.1155
 3291W        W 6810   6.301   2.102   8.188  0.1693  0.3862 -0.3468
 3292W        W 6811   7.332   7.133  11.343 -0.0293  0.0231 -0.1223
 3293W        W 6812   3.622   3.888   2.333  0.1021 -0.0729  0.1600
 3294W        W 6813   2.828   9.401   9.154  0.1146 -0.2903 -0.1486
 3295W        W 6814   9.037   2.406  12.314  0.0401  0.0095 -0.0687
 3296W        W 6815   9.207   7.818   0.629 -0.0230 -0.1576 -0.1038
 3297W        W 6816   8.753   3.810   0.490 -0.3156 -0.0244 -0.2252
 3298W        W 6817   4.572   7.907  11.066  0.0389  0.0776 -0.2955
 3299W        W 6818   1.669   2.038   1.145  0.1194 -0.0517 -0.0474
 3300W        W 6819   3.966   3.038  10.865  0.1933  0.0270  0.0569
 3301W        W 6820   3.152   4.873   8.196 -0.0787  0.1011  0.1351
 3302W        W 6821   4.344   1.528   9.794 -0.4866  0.2290  0.1559
 3303W        W 6822   1.151   3.470   2.577 -0.2057 -0.0250  0.1701
 3304W        W 6823   2.518   9.489   2.530 -0.0934  0.1641  0.2620
 3305W        W 6824   8.197   8.325   9.378 -0.1930  0.2016  0.0176
 3306W        W 6825   3.488   9.494   1.406  0.1767  0.2976 -0.1757
 3307W        W 6826   4.921   6.279  12.366 -0.3299 -0.0569  0.0943
 3308W        W 6827   8.909   2.367   4.510  0.0372  0.6028  0.2894
 3309W        W 6828   5.923   8.427   1.417  0.3051  0.0255  0.0044
 3310W        W 6829   0.686   2.719  12.250 -0.3475 -0.0923  0.2140
 3311W        W 6830   9.547   2.557  12.280 -0.0432  0.0124  0.1533
 3312W        W 6831   4.833   6.641  10.783 -0.0850  0.2677  0.1030
 3313W        W 6832   1.117   0.202   3.267 -0.3250  0.0630 -0.0515
 3314W        W 6833   1.457   1.946  12.508  0.0520 -0.0190 -0.2071
 3315W        W 6834   9.215   9.644  11.774 -0.3831 -0.2857 -0.1217
 3316W        W 6835   7.977   0.373  10.860 -0.0701 -0.3621 -0.0026
 3317W        W 6836   1.610   3.379   1.675  0.1440  0.0711  0.1561
 3318W        W 6837   4.631   2.292   8.248  0.3397 -0.0635 -0.4837
 3319W        W 6838   1.385   3.089   1.359  0.2455  0.1711  0.2225
 3320W        W 6839   6.957   7.885   2.987  0.2351  0.4793  0.1965
 3321W        W 6840   3.821   4.852  10.167 -0.2827  0.0750 -0.1532
 3322W        W 6841   7.258   1.188   1.909  0.1399  0.2112 -0.0398
 3323W        W 6842   4.479   9.430   0.209  0.1094 -0.0518 -0.0543
 3324W        W 6843   2.746   8.073  12.380  0.0039  0.0319  0.4351
 3325W        W 6844   1.750   9.274   0.599  0.3086 -0.1896  0.1246
 3326W        W 6845   9.233   2.860   2.780  0.0904  0.0246 -0.0376
 3327W        W 6846   1.723   6.713   9.470  0.0013  0.1120  0.0244
 3328W        W 6847   3.481   0.770  11.874  0.1122  0.1156 -0.0284
 3329W        W 6848   2.613   4.702  10.073  0.0612  0.2082  0.1411
 3330W        W 6849   7.468   2.279   9.117  0.3020  0.0153 -0.3543
 3331W        W 6850   2.459   5.453   3.777 -0.0876 -0.1224 -0.3823
 3332W        W 6851   6.097   2.804   8.987 -0.3104 -0.2720 -0.4722
 3333W        W 6852   2.754   6.997  10.082  0.4634  0.0828  0.3473
 3334W        W 6853   4.287   6.271   2.272  0.0077  0.1005  0.1947
 3335W        W 6854   4.696   4.024  11.223 -0.0021  0.0304 -0.0988
 3336W        W 6855   6.937   8.080   3.692  0.0950  0.0799 -0.0997
 3337W        W 6856   0.664   6.800  10.804 -0.0551  0.1963  0.3274
 3338W        W 6857   3.820   7.225   9.014  0.3338  0.0720 -0.1112
 3339W        W 6858   7.289   6.365  12.029  0.2941  0.0558  0.0249
 3340W        W 6859   1.117   1.848   1.071  0.2868  0.2083  0.1464
 3341W        W 6860   1.360   2.570   9.290 -0.0462 -0.1757 -0.0008
 3342W        W 6861   0.205   2.275   0.596  0.2705  0.1215 -0.2155
 3343W        W 6862   3.418   7.405   1.403 -0.2165  0.1108  0.0398
 3344W        W 6863   3.474   6.848   9.242  0.3762 -0.1328  0.0278
 3345W        W 6864   8.409   7.707   0.018 -0.2018 -0.2543  0.0168
 3346W        W 6865   6.963   7.100   2.830  0.4109 -0.0241  0.2582
 3347W        W 6866   7.280   1.113   3.576  0.0911 -0.2834 -0.2970
 3348W        W 6867   1.627   4.112  12.123 -0.0617 -0.0060  0.1008
 3349W        W 6868   4.156   9.102  11.774  0.1686 -0.1351 -0.0897
 3350W        W 6869   7.415   4.623  12.292 -0.2450  0.1528  0.0331
 3351W        W 6870   7.681   2.990  10.997 -0.1760  0.0863  0.1199
 3352W        W 6871   3.077   1.203   2.568 -0.1014  0.2560  0.2228
 3353W        W 6872   1.052   8.781  10.711  0.2445 -0.1720  0.0437
 3354W        W 6873   5.367   1.216   3.727  0.0272 -0.4952 -0.0274
 3355W        W 6874   2.953   1.192  12.185 -0.2894 -0.1885 -0.2303
 3356W        W 6875   3.944   0.403   2.331 -0.2456  0.1525  0.0202
 3357W        W 6876   2.331   2.001   1.247 -0.0705  0.5310 -0.1966
 3358W        W 6877   4.019   4.277   1.309 -0.1148  0.0331  0.2127
 3359W        W 6878   5.013   0.852   9.026  0.1410 -0.0232 -0.1003
 3360W        W 6879   0.217   5.677   1.222  0.2932  0.1743  0.3958
 3361W        W 6880   8.129   1.981  11.670  0.1559 -0.0427  0.1249
 3362W        W 6881   1.661   7.353   1.805 -0.1042  0.3909 -0.0489
 3363W        W 6882   4.351   6.061   8.646 -0.0472  0.2694  0.1113
 3364W        W 6883   0.055   9.174   2.457 -0.0410  0.0316  0.0650
 3365W        W 6884   1.095   1.249   3.169 -0.0275 -0.2634 -0.0019
 3366W        W 6885   5.519   1.889   0.705 -0.0983  0.2312 -0.1513
 3367W        W 6886   2.496   8.731   2.156 -0.1352  0.2451  0.0315
 3368W        W 6887   5.936   5.067  10.887 -0.3078 -0.1669  0.1689
 3369W        W 6888   0.598   8.667  10.882  0.1351 -0.1515 -0.1030
 3370W        W 6889   3.607   1.581   3.220 -0.3596  0.0196  0.1501
 3371W        W 6890   6.002   0.507   9.674 -0.0651  0.0054  0.0984
 3372W        W 6891   4.484   3.069   2.050 -0.2674  0.1048 -0.0034
 3373W        W 6892   7.754   7.780  10.816 -0.1238 -0.0796 -0.1565
 3374W        W 6893   8.019   2.406   3.015  0.0377 -0.0843 -0.1338
 3375W        W 6894   5.236   4.150   0.557  0.0444 -0.0655  0.1120
 3376W        W 6895   6.495   3.713   9.176 -0.2972  0.1879 -0.3436
 3377W        W 6896   1.607   0.636   2.685  0.1985  0.2749 -0.2572
 3378W        W 6897   1.368   4.777   4.158 -0.0880 -0.0022 -0.1164
 3379W        W 6898   1.429   4.003  10.919  0.1378  0.0457 -0.0533
 3380W        W 6899   2.876   4.218   0.498 -0.1084 -0.0378 -0.0384
 3381W        W 6900   6.961   4.135   0.174 -0.0204 -0.1190  0.1170
 3382W        W 6901   8.221   8.023  10.826  0.0273  0.0539 -0.1677
 3383W        W 6902   8.865   2.499   2.643  0.0330  0.1140 -0.2018
 3384W        W 6903   2.128   0.395  10.799  0.0934 -0.1189 -0.0345
 3385W        W 6904   1.868   0.125  12.501 -0.1055 -0.0282  0.1218
 3386W        W 6905   7.148   2.034   9.391 -0.0683  0.3090  0.0926
 3387W        W 6906   0.380   2.770   4.217  0.5091  0.0545 -0.3457
 3388W        W 6907   8.763   0.836   9.211  0.0641  0.1089  0.2491
 3389W        W 6908   0.302   1.589   1.424  0.0874  0.4755  0.0897
 3390W        W 6909   8.602   0.262   1.021  0.0245 -0.3151  0.1489
 3391W        W 6910   2.039   8.979   0.175  0.2538  0.2444 -0.0402
 3392W        W 6911   4.589   6.746   1.503 -0.2597 -0.2390  0.1833
 3393W        W 6912   0.389   2.067  11.761  0.0881  0.2409 -0.2294
 3394W        W 6913   2.610   8.453   9.501  0.1519  0.3655  0.4060
 3395W        W 6914   7.742   3.769   8.334 -0.0092 -0.1926  0.4235
 3396W        W 6915   9.132   7.212   8.966 -0.0976 -0.0898 -0.0187
 3397W        W 6916   5.523   8.664  10.086  0.0010 -0.0614  0.3199
 3398W        W 6917   6.332   0.835   1.078  0.3161  0.1032  0.1772
 3399W        W 6918   9.627   1.097  11.489  0.0558 -0.0168  0.0105
 3400W        W 6919   3.863   8.836   3.990  0.1493  0.1287  0.1773
 3401W        W 6920   7.889   0.102   2.001 -0.0100  0.4572 -0.2387
 3402W        W 6921   5.608   8.260   2.206  0.0319  0.2923  0.0186
 3403W        W 6922   9.425   2.084  12.417  0.0868 -0.3215  0.3151
 3404W        W 6923   4.481   8.567   2.237  0.0431  0.1748  0.1640
 3405W        W 6924   0.135   3.604   3.424  0.2864 -0.0932 -0.0930
 3406W        W 6925   1.130   1.087   8.727  0.1596 -0.2747  0.4853
 3407W        W 6926   2.191   2.165  10.243  0.3121 -0.2946 -0.3046
 3408W        W 6927   7.164   4.429   9.889 -0.2865 -0.0194  0.2778
 3409W        W 6928   7.256   0.541   1.326 -0.2714 -0.2063 -0.0833
 3410W        W 6929   1.537   4.832  11.469 -0.0106 -0.0857  0.1716
 3411W        W 6930   7.054   4.785  10.213 -0.1177  0.1736 -0.0289
 3412W        W 6931   9.510   7.529  12.083 -0.1189 -0.4059  0.4332
 3413W        W 6932   1.700   7.314   0.589  0.2646 -0.0359 -0.1493
 3414W        W 6933   8.116   5.985   1.788 -0.1069  0.1638  0.2309
 3415W        W 6934   0.840   6.908   9.536 -0.3686  0.0845  0.0505
 3416W        W 6935   6.709   2.086   9.193  0.3380 -0.1133  0.2615
 3417W        W 6936   3.550   2.658  11.698 -0.1127  0.0000  0.0667
 3418W        W 6937   8.472   4.140   1.865 -0.0481  0.2066  0.0764
 3419W        W 6938   0.239   4.063   2.490  0.2380  0.0216 -0.1285
 3420W        W 6939   9.563   7.915   1.000 -0.1422 -0.0349 -0.1249
 3421W        W 6940   3.885   5.751  10.418  0.1039 -0.0747  0.3792
 3422W        W 6941   3.612   3.278   0.492 -0.2858 -0.2858 -0.1678
 3423W        W 6942   4.550   3.982   1.416  0.0365 -0.3066 -0.1434
 3424W        W 6943   6.811   3.023   8.835  0.3566 -0.0362 -0.3186
 3425W        W 6944   9.592   7.616   2.126  0.0471  0.3721  0.1509
 3426W        W 6945   1.011   7.210   9.202  0.0552  0.0533  0.2489
 3427W        W 6946   2.822   8.708   0.602  0.1057 -0.3462  0.0454
 3428W        W 6947   1.397   4.388   9.592  0.0807  0.1879 -0.1030
 3429W        W 6948   1.404   4.994  10.974  0.0109  0.1913 -0.0409
 3430W        W 6949   6.638   6.077   2.889 -0.0576 -0.1357  0.0975
 3431W        W 6950   4.880   8.130   1.393 -0.0889  0.0574 -0.0111
 3432W        W 6951   6.181   9.702  10.426 -0.3919  0.1271 -0.3402
 3433W        W 6952   4.518   3.333   0.784  0.0387 -0.0811  0.0012
 3434W        W 6953   7.438   3.336  12.047 -0.0098 -0.0127 -0.4079
 3435W        W 6954   9.554   6.767   2.145  0.0722 -0.1064 -0.2441
 3436W        W 6955   6.978   0.111  10.913 -0.0566  0.0683 -0.0235
 3437W        W 6956   8.353   7.208   1.492  0.1117  0.0390 -0.3341
 3438W        W 6957   0.985   0.275  10.255  0.2192  0.0568 -0.1930
 3439W        W 6958   2.395   1.529   1.073  0.0496  0.4741 -0.2310
 3440W        W 6959   7.717   8.356  10.761  0.1260  0.0396 -0.1309
 3441W        W 6960   0.695   6.569   3.459  0.0494  0.2981  0.1222
 3442W        W 6961   1.410   6.679   1.690 -0.3773 -0.1218  0.1836
 3443W        W 6962   3.067   8.229  10.784  0.0698 -0.1967  0.0550
 3444W        W 6963   5.128   5.959   9.588  0.0981  0.0210  0.2510
 3445W        W 6964   1.430   7.771   2.470  0.0343 -0.1075 -0.0138
 3446W        W 6965   9.206   9.371   8.901 -0.0531  0.0056 -0.1987
 3447W        W 6966   9.210   7.447   2.370 -0.1006  0.0972 -0.0219
 3448W        W 6967   8.492   9.364  11.970 -0.3029  0.2136 -0.0428
 3449W        W 6968   5.353   3.296   1.283 -0.2844  0.2139  0.0187
 3450W        W 6969   4.087   7.373   9.767  0.0272  0.0623  0.0356
 3451W        W 6970   6.759   6.279   0.165  0.0348 -0.3254  0.0440
 3452W        W 6971   4.324   3.749   1.816 -0.1492 -0.0702  0.1694
 3453W        W 6972   8.163   3.641   2.550 -0.2857 -0.2208 -0.2630
 3454W        W 6973   2.515   7.260  11.733 -0.5178 -0.0096 -0.2057
 3455W        W 6974   1.585   9.136  10.055 -0.0211 -0.1198  0.2055
 3456W        W 6975   1.186   2.963   2.410 -0.0308  0.1504 -0.0813
 3457W        W 6976   4.705   1.680   1.295 -0.2201  0.2093  0.2291
 3458W        W 6977   8.370   7.098   0.916  0.0933  0.1179 -0.4910
 3459W        W 6978   2.650   5.690   1.152  0.1160 -0.4603  0.0878
 3460W        W 6979   5.002   4.927   1.865 -0.1989  0.1868  0.0641
 3461W        W 6980   1.569   8.983  10.647 -0.1705  0.2142  0.1577
 3462W        W 6981   3.358   6.897   2.239 -0.3251 -0.0837  0.2197
 3463W        W 6982   8.127   3.146  10.913  0.3160  0.0275  0.1701
 3464W        W 6983   0.796   1.575   2.051 -0.2200 -0.2452 -0.1557
 3465W        W 6984   7.404   5.398  12.156 -0.3749 -0.1331  0.0327
 3466W        W 6985   6.643   4.204   3.369  0.0187 -0.2609  0.3386
 3467W        W 6986   5.317   7.116  11.921 -0.1231 -0.5244  0.1010
 3468W        W 6987   9.651   2.381  11.810 -0.1048 -0.2126  0.2090
 3469W        W 6988   9.085   2.521   4.073 -0.1934  0.0855  0.0812
 3470W        W 6989   6.787   1.144  10.816 -0.0539 -0.2219  0.0551
 3471W        W 6990   4.626   5.849   2.356 -0.0938  0.2683  0.3368
 3472W        W 6991   0.200   9.559   3.422 -0.0762  0.2248  0.0477
 3473W        W 6992   6.415   6.711   9.355  0.2594  0.0913 -0.0151
 3474W        W 6993   3.961   6.947  11.339  0.0308 -0.4800  0.1586
 3475W        W 6994   2.739   3.424   2.720  0.0144 -0.4889  0.1221
 3476W        W 6995   8.394   2.472   3.416 -0.1170  0.2120 -0.1457
 3477W        W 6996   1.229   9.102   2.911  0.2932 -0.0199 -0.0422
 3478W        W 6997   3.197   0.683   2.415 -0.1094 -0.1235  0.1286
 3479W        W 6998   1.879   9.575  11.379 -0.1207  0.0839  0.0782
 3480W        W 6999   1.569   4.984   9.385 -0.1593  0.2584  0.1244
 3481W        W 7000   9.585   6.444  10.176 -0.0810  0.1885 -0.1044
 3482W        W 7001   0.773   7.387   1.867 -0.3646 -0.1144  0.0763
 3483W        W 7002   0.808   7.135  11.293  0.0100 -0.5358 -0.2340
 3484W        W 7003   0.668   9.692   3.245  0.1435 -0.1648 -0.0135
 3485W        W 7004   1.965   0.250   1.310 -0.0642 -0.0187 -0.0147
 3486W        W 7005   7.950   4.101   9.420  0.1451  0.1596 -0.0578
 3487W        W 7006   6.372   5.490   9.907  0.1909 -0.1505  0.1333
 3488W        W 7007   0.317   6.607  10.509 -0.0603 -0.0668 -0.1347
 3489W        W 7008   8.869   9.541   8.574 -0.3277 -0.3250  0.1155
 3490W        W 7009   2.542   6.373  10.206  0.0626  0.0334  0.0645
 3491W        W 7010   5.944   3.343  12.449 -0.1500 -0.0280 -0.0672
 3492W        W 7011   0.434   2.987   2.860 -0.1023  0.0566 -0.1171
 3493W        W 7012   6.000   7.296   7.332 -0.0300  0.0528 -0.2301
 3494W        W 7013   5.084   5.002   2.693  0.3226 -0.4884  0.0309
 3495W        W 7014   5.642   5.452   1.338  0.1715  0.1023  0.1650
 3496W        W 7015   7.210   9.145   1.524  0.1395 -0.2530  0.0448
 3497W        W 7016   7.637   5.927   3.049  0.0678  0.0814  0.2660
 3498W        W 7017   6.426   8.870  11.737  0.0885 -0.2450 -0.1090
 3499W        W 7018   3.987   4.392  11.647 -0.0518  0.2423  0.2179
 3500W        W 7019   1.283   0.555   3.537 -0.0595  0.1724 -0.0376
 3501W        W 7020   3.371   7.227   3.066  0.1107  0.4184  0.3741
 3502W        W 7021   7.574   0.828  10.709 -0.1391  0.0308 -0.0180
 3503W        W 7022   4.274   4.141   8.843 -0.2034 -0.3734  0.1084
 3504W        W 7023   5.551   8.710   2.492 -0.2297 -0.0931 -0.0519
 3505W        W 7024   3.487   5.219  12.348  0.0316 -0.0630  0.1555
 3506W        W 7025   2.206   7.452   1.414  0.2850  0.0084 -0.0030
 3507W        W 7026   8.384   9.546   9.866  0.1935  0.1555 -0.1544
 3508W        W 7027   2.437   4.453   3.044  0.0978 -0.2841  0.1762
 3509W        W 7028   8.509   2.956   1.905 -0.1689 -0.2488  0.3859
 3510W        W 7029   6.854   8.254   1.710  0.0252  0.5248  0.0346
 3511W        W 7030   5.033   4.864   0.858  0.0596  0.1056 -0.2955
 3512W        W 7031   7.268   4.458   0.568 -0.2738 -0.1680 -0.0227
 3513W        W 7032   8.615   8.902  10.794 -0.0874 -0.0769 -0.2093
 3514W        W 7033   1.633   8.776   0.481 -0.1848  0.2941  0.0112
 3515W        W 7034   2.329   9.019   0.613  0.2329  0.2872  0.1726
 3516W        W 7035   0.714   6.452   9.565  0.0923 -0.1443 -0.2292
 3517W        W 7036   1.905   5.522  12.539 -0.3761 -0.0638 -0.2633
 3518W        W 7037   6.074   5.725   0.574  0.0785 -0.1463 -0.0298
 3519W        W 7038   0.037   5.947   4.105 -0.0742 -0.4931  0.1347
 3520W        W 7039   6.962   9.616   8.968  0.1353 -0.0509  0.2718
 3521W        W 7040   3.140   4.688  10.974 -0.1217 -0.2617 -0.0455
 3522W        W 7041   5.899   9.359   9.680 -0.0367 -0.1491 -0.2746
 3523W        W 7042   8.701   0.107  11.884  0.1775  0.0029 -0.3189
 3524W        W 7043   7.891   3.917   0.144 -0.0483  0.2085  0.3306
 3525W        W 7044   1.133   1.978   1.991  0.1649 -0.0028  0.0019
 3526W        W 7045   5.221   2.404   3.415 -0.2101 -0.1475  0.2580
 3527W        W 7046   6.685   3.022  12.322  0.4841  0.1065 -0.0280
 3528W        W 7047   9.140   2.112  11.285  0.1153  0.1262  0.2185
 3529W        W 7048   2.957   1.213   9.596  0.0670  0.3393  0.0366
 3530W        W 7049   1.176   7.822  10.606  0.0608  0.1602  0.1606
 3531W        W 7050   9.015   5.811  10.148  0.1167 -0.2195  0.0324
 3532W        W 7051   8.444   7.147  10.641 -0.3970  0.3311 -0.2042
 3533W        W 7052   3.262   9.202   9.433 -0.0783 -0.3029  0.2830
 3534W        W 7053   9.108   5.401   3.775 -0.2045  0.1002 -0.0786
 3535W        W 7054   8.370   9.702   4.323 -0.1630  0.0304  0.2943
 3536W        W 7055   6.611   2.410  10.633 -0.0449  0.0791  0.0182
 3537W        W 7056   4.375   0.284   2.177  0.0150 -0.0328  0.0646
 3538W        W 7057   1.574   5.750   3.864 -0.1560  0.0284  0.2398
 3539W        W 7058   1.325   9.646   9.331  0.0612  0.0227  0.1006
 3540W        W 7059   0.794   9.187   3.159 -0.0075  0.0594 -0.3913
 3541W        W 7060   2.926   2.764  12.210 -0.1556  0.1808  0.2880
 3542W        W 7061   5.439   0.768   4.399  0.3735  0.2036  0.0956
 3543W        W 7062   9.670   9.065   8.823  0.0012  0.0822 -0.2150
 3544W        W 7063   6.252   5.224   3.899 -0.1129 -0.0209  0.2177
 3545W        W 7064   4.410   6.380   1.167  0.1432 -0.2172  0.0119
 3546W        W 7065   2.266   6.891  11.543 -0.0754  0.0503  0.0376
 3547W        W 7066   6.194   1.414  12.142 -0.2455  0.1457 -0.0595
 3548W        W 7067   3.061   8.611  11.082 -0.1296 -0.0194  0.2307
 3549W        W 7068   9.037   2.539  10.959 -0.0078  0.1748  0.0363
 3550W        W 7069   6.152   3.016   3.498  0.1795 -0.2965  0.1215
 3551W        W 7070   1.309   2.153   1.509 -0.0886  0.0252  0.1744
 3552W        W 7071   2.854   9.382   4.196 -0.2308  0.1139  0.2402
 3553W        W 7072   5.592   9.052  11.977 -0.3328  0.0174 -0.1479
 3554W        W 7073   8.779   7.073   3.084 -0.0112  0.1168 -0.2557
 3555W        W 7074   0.670   7.494   3.312 -0.6050  0.0492  0.0916
 3556W        W 7075   2.267   1.511   2.780 -0.0425 -0.0287  0.0957
 3557W        W 7076   8.857   4.949   3.951 -0.2400 -0.0443  0.0042
 3558W        W 7077   1.115   3.902  12.320  0.1735 -0.4377 -0.2148
 3559W        W 7078   6.673   2.173  12.030  0.0187  0.0920  0.3312
 3560W        W 7079   2.122   6.801   4.949 -0.2080 -0.0295 -0.3675
 3561W        W 7080   7.209   3.209   0.743 -0.2159 -0.3376  0.1973
 3562W        W 7081   6.894   1.826   0.895  0.2882 -0.0367 -0.1664
 3563W        W 7082   6.794   1.832   1.876  0.1472  0.0003 -0.0023
 3564W        W 7083   7.907   4.968   9.043 -0.1050  0.2598 -0.0625
 3565W        W 7084   0.856   5.151   9.677  0.1105 -0.2077  0.3883
 3566W        W 7085   6.279   8.856   1.484 -0.0124 -0.0402 -0.1133
 3567W        W 7086   4.519   3.521   8.855  0.3160  0.1675 -0.1942
 3568W        W 7087   1.679   0.252   2.448  0.0899 -0.0274  0.0963
 3569W        W 7088   6.930   7.140   1.048  0.0112  0.4461  0.2435
 3570W        W 7089   3.339   4.280  10.452  0.1282 -0.3065  0.0469
 3571W        W 7090   7.570   4.060   9.078  0.1094  0.1197 -0.0821
 3572W        W 7091   1.302   5.989  10.865  0.2044  0.0617  0.2585
 3573W        W 7092   3.482   0.992   9.520  0.1177 -0.0221 -0.0819
 3574W        W 7093   0.396   7.695   3.736  0.0989 -0.3707 -0.0247
 3575W        W 7094   1.657   1.038   4.136 -0.1766 -0.0024  0.0479
 3576W        W 7095   4.905   2.997  12.291  0.0096 -0.1229 -0.2749
 3577W        W 7096   5.418   1.024   1.146  0.1274 -0.3395 -0.0382
 3578W        W 7097   0.259   0.920   3.371 -0.1680  0.2167 -0.3140
 3579W        W 7098   2.249   7.114   3.502 -0.0476  0.1912  0.1527
 3580W        W 7099   3.863   1.003   9.233  0.2730  0.1727 -0.1016
 3581W        W 7100   8.273   9.403   0.681 -0.1972  0.0052 -0.0679
 3582W        W 7101   8.210   2.320   0.449 -0.0905  0.0290  0.4560
 3583W        W 7102   9.404   1.920  11.782  0.1736  0.1329  0.1938
 3584W        W 7103   8.785   0.480   2.049  0.0971 -0.2280  0.1180
 3585W        W 7104   3.964   6.541  11.073 -0.1707 -0.1503  0.0203
 3586W        W 7105   0.761   9.611   9.386 -0.1313 -0.0475 -0.0002
 3587W        W 7106   2.799   5.343   9.474  0.4003 -0.0175 -0.0022
 3588W        W 7107   2.990   0.740   3.306  0.0446  0.0875 -0.3446
 3589W        W 7108   1.113   4.371   4.346  0.0768  0.4769 -0.1569
 3590W        W 7109   9.024   4.363  11.998  0.2420  0.0513 -0.0738
 3591W        W 7110   2.799   2.156   2.178 -0.4382 -0.0068  0.0154
 3592W        W 7111   6.353   2.775   8.580  0.0639 -0.0683  0.4057
 3593W        W 7112   5.021   3.369  10.053  0.0823 -0.2568 -0.1755
 3594W        W 7113   9.464   2.480   4.599 -0.1823 -0.0003  0.0377
 3595W        W 7114   7.175   5.068   9.776 -0.0896  0.2072  0.0058
 3596W        W 7115   1.562   7.461   9.929 -0.1795  0.0789  0.0818
 3597W        W 7116   3.771   4.076  11.252  0.0424  0.0776 -0.0864
 3598W        W 7117   7.770   0.669  11.185  0.2100  0.0609  0.4843
 3599W        W 7118   5.926   1.087   4.399 -0.0431  0.2434 -0.0851
 3600W        W 7119   3.701   8.966   8.054 -0.0398  0.1810  0.0099
 3601W        W 7120   1.936   6.047   1.768 -0.3407 -0.1855 -0.2598
 3602W        W 7121   0.176   9.643   1.219  0.4135 -0.0808 -0.0955
 3603W        W 7122   0.526   4.529  12.405 -0.2421 -0.3211 -0.1774
 3604W        W 7123   7.982   6.894  10.798  0.1350 -0.1569  0.0494
 3605W        W 7124   7.735   0.777   1.385  0.2949 -0.1254 -0.0406
 3606W        W 7125   1.974   6.197  11.823  0.4694 -0.1124 -0.1979
 3607W        W 7126   1.866   8.729   1.964  0.0891  0.0062 -0.0734
 3608W        W 7127   1.305   2.248  10.086 -0.3101 -0.1079 -0.1645
 3609W        W 7128   6.518   2.238   0.631 -0.1254 -0.1263 -0.1054
 3610W        W 7129   1.885   9.655   0.929  0.1565 -0.2866  0.2077
 3611W        W 7130   0.141   7.521  11.700  0.0241 -0.1660 -0.2416
 3612W        W 7131   0.424   0.353  11.771 -0.2136 -0.0331 -0.4230
 3613W        W 7132   5.740   1.145  12.368  0.0162 -0.1806  0.2974
 3614W        W 7133   5.778   4.259   0.525 -0.0211 -0.2596 -0.2313
 3615W        W 7134   7.193   5.600   3.243 -0.0085  0.1610 -0.2363
 3616W        W 7135   8.406   1.430   0.284  0.0735  0.2813 -0.1166
 3617W        W 7136   5.804   7.305  12.486  0.1366 -0.1432  0.1576
 3618W        W 7137   5.737   9.518  10.156 -0.3020 -0.2772 -0.1135
 3619W        W 7138   5.588   0.917   3.269 -0.0395 -0.0920  0.0569
 3620W        W 7139   4.975   8.243  11.813  0.0766 -0.0571 -0.0605
 3621W        W 7140   0.811   7.067  10.019 -0.1817 -0.0180 -0.0743
 3622W        W 7141   9.041   6.122   2.836 -0.0992 -0.2063  0.3733
 3623W        W 7142   0.204   0.068  11.363 -0.2762  0.0459 -0.1066
 3624W        W 7143   2.156   1.679   3.530  0.1728  0.0913 -0.0098
 3625W        W 7144   8.952   0.694  12.383  0.0418  0.0693  0.0408
 3626W        W 7145   5.077   9.135   1.755 -0.2777 -0.0127  0.1223
 3627W        W 7146   6.108   2.928  11.159 -0.0599 -0.0575  0.0031
 3628W        W 7147   7.345   0.457  11.014  0.0873 -0.1833  0.1138
 3629W        W 7148   3.622   8.939   9.625 -0.0750 -0.1501 -0.1328
 3630W        W 7149   8.967   3.583  11.874  0.2555 -0.2980 -0.0761
 3631W        W 7150   3.580   1.724   8.371 -0.3239  0.2006  0.0025
 3632W        W 7151   7.434   9.690   9.089 -0.1359  0.3330  0.1279
 3633W        W 7152   4.819   8.366  10.880 -0.0614  0.0128 -0.3859
 3634W        W 7153   0.281   8.238  10.894  0.0902 -0.0452 -0.0456
 3635W        W 7154   5.525   2.006   8.258  0.1893  0.1050  0.1933
 3636W        W 7155   0.988   1.806   9.495 -0.1870 -0.0622  0.1901
 3637W        W 7156   0.269   1.312  10.074  0.1494 -0.1454 -0.1555
 3638W        W 7157   1.452   7.474   9.382 -0.0098  0.2334 -0.0802
 3639W        W 7158   5.970   8.616   2.700  0.2286  0.1252 -0.0420
 3640W        W 7159   1.894   5.268   1.531 -0.0864 -0.1278  0.1113
 3641W        W 7160   3.013   4.467   8.504  0.1711  0.0195  0.0744
 3642W        W 7161   1.414   7.954   2.959  0.3268 -0.0034  0.1640
 3643W        W 7162   7.176   9.019   2.665 -0.2361  0.4414  0.0060
 3644W        W 7163   2.522   8.731   0.228 -0.2954 -0.2141  0.0042
 3645W        W 7164   3.917   9.525   7.920  0.4453 -0.3310  0.0653
 3646W        W 7165   5.440   3.109  10.295 -0.3525  0.0982  0.0384
 3647W        W 7166   9.305   7.416   4.667  0.0304 -0.2387  0.0330
 3648W        W 7167   6.581   2.301  10.122  0.1492  0.0825  0.1273
 3649W        W 7168   8.546   1.616   2.064  0.1094 -0.2020 -0.0960
 3650W        W 7169   4.365   6.401  10.690 -0.1684  0.0016  0.1162
 3651W        W 7170   2.489   8.979   3.743  0.1321 -0.0822  0.2612
 3652W        W 7171   1.147   3.659   3.524 -0.2286 -0.1852 -0.3273
 3653W        W 7172   5.643   4.923  12.510  0.0791  0.0603 -0.2270
 3654W        W 7173   8.726   3.372   0.763 -0.0922  0.0162 -0.0223
 3655W        W 7174   4.554   4.304  10.113 -0.0826 -0.0386  0.1272
 3656W        W 7175   3.967   7.501   0.050 -0.3546  0.0410  0.2603
 3657W        W 7176   6.577   3.128   2.224 -0.0501  0.1403  0.1084
 3658W        W 7177   1.991   1.638   1.404 -0.0152 -0.2608 -0.0251
 3659W        W 7178   2.421   8.312   3.124  0.3597 -0.0328 -0.0970
 3660W        W 7179   7.061   1.137   9.777 -0.0240  0.1986  0.1127
 3661W        W 7180   7.610   6.003   9.214  0.0321 -0.0546  0.1769
 3662W        W 7181   1.476   4.649  12.014  0.2548 -0.1665  0.0643
 3663W        W 7182   0.434   2.483   2.015  0.3975 -0.0782  0.0160
 3664W        W 7183   1.327   9.033   8.405  0.0719 -0.1764  0.2027
 3665W        W 7184   5.131   5.528   8.730 -0.4363  0.0307 -0.1728
 3666W        W 7185   4.930   4.576   2.516  0.0285 -0.0471  0.0932
 3667W        W 7186   3.646   3.752   0.917  0.1092 -0.0556  0.0907
 3668W        W 7187   2.906   1.559  10.833  0.0703  0.2531 -0.1812
 3669W        W 7188   1.262   7.042   1.979  0.4145 -0.0520  0.0741
 3670W        W 7189   6.378   6.264  10.417  0.2789  0.4724 -0.1891
 3671W        W 7190   2.958   5.802   3.932  0.1235 -0.4796 -0.2219
 3672W        W 7191   5.832   5.363   9.456 -0.0503  0.0751  0.1142
 3673W        W 7192   3.349   1.093   4.061 -0.5688  0.1603 -0.1355
 3674W        W 7193   2.235   4.713  11.571  0.0072  0.0660  0.2755
 3675W        W 7194   4.688   4.890  11.485  0.2604 -0.1978 -0.0575
 3676W        W 7195   8.641   4.475  11.168 -0.2125  0.0092  0.1365
 3677W        W 7196   1.916   5.757   3.502 -0.0496 -0.2363 -0.0511
 3678W        W 7197   0.040   3.382   2.065  0.1972 -0.0630  0.1260
 3679W        W 7198   9.656   5.281   0.982 -0.0279 -0.0756 -0.0901
 3680W        W 7199   5.014   4.685   3.152 -0.1718  0.2764  0.0142
 3681W        W 7200   4.605   0.615   1.716 -0.4903 -0.3917 -0.0326
 3682W        W 7201   7.382   6.320   8.314  0.1693  0.3123 -0.0855
 3683W        W 7202   3.811   3.839   3.261  0.0789  0.3434 -0.0104
 3684W        W 7203   4.727   8.513  11.361  0.0776 -0.1024  0.2463
 3685W        W 7204   8.820   1.914  10.198  0.2355 -0.0888 -0.0100
 3686W        W 7205   5.391   9.157   7.131 -0.0337 -0.1663 -0.0388
 3687W        W 7206   4.713   3.068  11.833 -0.0396  0.0096  0.0755
 3688W        W 7207   8.349   0.986   0.459  0.2367  0.3054  0.1162
 3689W        W 7208   4.737   7.799  12.479  0.0021  0.0143 -0.1863
 3690W        W 7209   7.405   9.607  10.251 -0.0907  0.1712  0.0848
 3691W        W 7210   4.960   6.994   5.438 -0.0918 -0.0040 -0.0407
 3692W        W 7211   7.654   3.555   8.856 -0.1538 -0.1102  0.4337
 3693W        W 7212   1.874   5.031   2.828  0.0381  0.0497 -0.2118
 3694W        W 7213   7.931   6.483   0.090  0.3092  0.1559  0.1077
 3695W        W 7214   4.682   6.682   9.269  0.0516 -0.1042  0.0827
 3696W        W 7215   8.011   5.935  12.550 -0.0859  0.0413 -0.1953
 3697W        W 7216   5.651   0.777   3.938 -0.1743  0.2134 -0.1831
 3698W        W 7217   8.780   9.533  10.958 -0.1758 -0.2671 -0.2280
 3699W        W 7218   1.189   6.381   8.171  0.1811  0.1031  0.0067
 3700W        W 7219   5.908   1.094   1.378 -0.0644 -0.0667 -0.1877
 3701W        W 7220   0.595   5.999   3.142  0.2159 -0.1935 -0.0874
 3702W        W 7221   3.580   9.102   2.670  0.3131 -0.1130 -0.3142
 3703W        W 7222   0.805   3.115   1.452 -0.0456  0.1464 -0.0526
 3704W        W 7223   3.659   6.098  12.317  0.0697 -0.1214  0.2629
 3705W        W 7224   1.474   3.004   0.582 -0.0621  0.0291  0.3101
 3706W        W 7225   2.427   4.975   3.951  0.1907  0.0554 -0.1095
 3707W        W 7226   7.417   1.906  12.506 -0.3638 -0.0825  0.1063
 3708W        W 7227   1.932   6.566   1.830  0.2776 -0.0974 -0.1190
 3709W        W 7228   9.007   1.716  11.043 -0.0641  0.1381  0.0661
 3710W        W 7229   6.668   3.537   8.736  0.1256 -0.0050  0.0662
 3711W        W 7230   4.066   4.525   9.377  0.0538 -0.0645  0.0972
 3712W        W 7231   2.759   8.684  12.292 -0.1972  0.1551  0.2603
 3713W        W 7232   8.954   0.371  11.575  0.1543  0.1469 -0.0122
 3714W        W 7233   2.589   1.307   9.971 -0.1519  0.1178  0.1186
 3715W        W 7234   8.509   8.517   3.690  0.1470  0.1458 -0.1443
 3716W        W 7235   9.436   4.831   3.186 -0.0547  0.1861 -0.2015
 3717W        W 7236   7.318   4.632   2.483  0.2474  0.1679 -0.1848
 3718W        W 7237   6.233   9.133   0.962  0.0792 -0.1322 -0.0770
 3719W        W 7238   1.971   7.677  10.720  0.2763 -0.0147  0.0712
 3720W        W 7239   6.274   7.974  10.367  0.0450 -0.0051  0.0208
 3721W        W 7240   4.756   0.976   8.048 -0.2220 -0.3324 -0.1250
 3722W        W 7241   4.713   5.255  12.158 -0.4034 -0.0358  0.1581
 3723W        W 7242   6.682   7.339   2.388 -0.3630  0.4483  0.1268
 3724W        W 7243   3.617   7.199  12.452 -0.0894 -0.2924  0.0828
 3725W        W 7244   7.234   2.368   8.424 -0.2095 -0.2463 -0.0381
 3726W        W 7245   7.050   0.057   2.484 -0.3497 -0.3735  0.0008
 3727W        W 7246   2.425   6.399  11.731 -0.2232  0.2215 -0.0621
 3728W        W 7247   0.523   3.801  10.769 -0.0056  0.0954  0.3587
 3729W        W 7248   8.959   5.095   8.022  0.0042 -0.0790 -0.1333
 3730W        W 7249   0.541   5.054  10.123 -0.0793 -0.2138  0.2487
 3731W        W 7250   0.228   9.186   0.948 -0.2691 -0.0035 -0.2471
 3732W        W 7251   1.088   6.239   3.375 -0.1914 -0.1034 -0.0143
 3733W        W 7252   1.324   8.347   2.645  0.0829 -0.2227  0.0660
 3734W        W 7253   4.458   6.353  11.167 -0.2170  0.1860 -0.3668
 3735W        W 7254   1.804   4.635   9.059  0.0712  0.1779 -0.1034
 3736W        W 7255   0.877   0.738   3.327  0.1028 -0.2142 -0.0861
 3737W        W 7256   5.667   0.267   3.855 -0.0228  0.1191  0.1615
 3738W        W 7257   1.381   8.446  10.989 -0.0186 -0.1770 -0.4551
 3739W        W 7258   3.447   4.216   2.673 -0.3341  0.3172  0.0630
 3740W        W 7259   0.127   4.194   0.535 -0.0697  0.2658 -0.0629
 3741W        W 7260   2.455   9.520   3.919  0.1473 -0.2998 -0.1479
 3742W        W 7261   5.498   7.774   1.968  0.1823 -0.3868  0.0133
 3743W        W 7262   6.439   8.366   1.465 -0.1073  0.1247  0.0872
 3744W        W 7263   2.056   6.072   2.277  0.4723  0.1248  0.2551
 3745W        W 7264   6.897   1.495   3.624  0.0986 -0.1478 -0.0020
 3746W        W 7265   7.878   5.008  10.337 -0.1579 -0.1230  0.1881
 3747W        W 7266   6.919   4.759   2.833  0.3972  0.1417 -0.0845
 3748W        W 7267   8.618   4.644   1.799  0.1361  0.1099  0.0072
 3749W        W 7268   8.429   6.167   1.353 -0.0353 -0.0543 -0.2020
 3750W        W 7269   9.676   7.926   3.887  0.3358  0.2470 -0.0200
 3751W        W 7270   6.038   3.038   9.663  0.2158 -0.5150 -0.0034
 3752W        W 7271   0.838   9.039   0.150  0.5197 -0.0555  0.3495
 3753W        W 7272   1.496   8.339   3.317  0.3451  0.0326 -0.0764
 3754W        W 7273   3.671   9.653   1.976 -0.2160 -0.1765  0.0540
 3755W        W 7274   0.339   9.353   9.669 -0.1451  0.0284  0.0960
 3756W        W 7275   1.697   2.497   0.767 -0.0597  0.1090  0.3335
 3757W        W 7276   1.631   9.600   7.983 -0.0125 -0.0263  0.1215
 3758W        W 7277   5.572   6.534   1.821  0.0538 -0.0405  0.3515
 3759W        W 7278   0.940   2.957   2.809 -0.1102 -0.1681 -0.0289
 3760W        W 7279   2.433   8.038   2.656  0.0885  0.1328 -0.3244
 3761W        W 7280   2.493   3.939  10.254  0.0238  0.0967 -0.2678
 3762W        W 7281   2.988   7.807   3.845  0.2024  0.2518 -0.0388
 3763W        W 7282   0.973   8.219   9.258  0.2164  0.0844  0.1211
 3764W        W 7283   1.320   5.076   8.222  0.0626  0.0101 -0.0615
 3765W        W 7284   8.623   4.796   1.331 -0.0178 -0.1778 -0.3135
 3766W        W 7285   1.144   3.802  10.572  0.1859  0.0486  0.2060
 3767W        W 7286   7.749   9.347   0.711  0.0851 -0.0994  0.0664
 3768W        W 7287   7.957   5.890   4.353 -0.2079 -0.0873 -0.1681
 3769W        W 7288   7.219   1.080   9.308  0.1695 -0.0551 -0.1993
 3770W        W 7289   0.728   2.133  12.344  0.1153 -0.0549 -0.2255
 3771W        W 7290   4.468   5.010   1.778  0.1766  0.0691  0.3133
 3772W        W 7291   1.054   5.286   3.509  0.0465  0.1555  0.1043
 3773W        W 7292   5.406   9.511   9.787 -0.0468  0.2736  0.3096
 3774W        W 7293   3.597   0.831  10.846  0.2211 -0.1637  0.2151
 3775W        W 7294   5.776   5.290   1.788 -0.2470 -0.0165 -0.0233
 3776W        W 7295   2.796   0.739   9.565 -0.1483  0.2321  0.2023
 3777W        W 7296   0.975   7.968  12.469  0.3261 -0.0534 -0.4283
 3778W        W 7297   2.894   6.864   9.533 -0.1109  0.1712 -0.0066
 3779W        W 7298   5.755   0.366   0.431  0.2587 -0.1227 -0.0760
 3780W        W 7299   8.310   7.682   0.488  0.3507 -0.0945 -0.0374
 3781W        W 7300   7.639   6.805  11.717  0.0766 -0.0387  0.3222
 3782W        W 7301   4.623   2.458   0.580  0.0137  0.0871  0.1589
 3783W        W 7302   2.702   7.276  12.484 -0.2987 -0.0003  0.0084
 3784W        W 7303   6.052   8.690  12.034  0.0228 -0.2422 -0.1058
 3785W        W 7304   1.758   6.137   4.561  0.0947  0.1456  0.1028
 3786W        W 7305   3.788   4.846  11.888 -0.1678  0.3066  0.1406
 3787W        W 7306   3.440   0.855  11.349 -0.2722  0.2821 -0.0265
 3788W        W 7307   5.861   3.129   1.227 -0.0684 -0.3735  0.3061
 3789W        W 7308   6.660   1.071  10.114  0.0739 -0.1746 -0.4267
 3790W        W 7309   3.869   4.263   9.020 -0.0419  0.0914  0.0754
 3791W        W 7310   9.466   9.690   9.265 -0.1621  0.4394 -0.1744
 3792W        W 7311   6.003   1.997   1.589  0.2010 -0.0689  0.0587
 3793W        W 7312   6.075   4.835   1.830  0.0732  0.1971  0.0469
 3794W        W 7313   1.048   6.956   0.636  0.2898 -0.1189 -0.3249
 3795W        W 7314   8.535   1.685   8.586 -0.1177  0.1707  0.1348
 3796W        W 7315   9.486   8.448   1.278 -0.1943 -0.1007  0.2843
 3797W        W 7316   9.221   8.041   1.499  0.1274 -0.1191  0.1221
 3798W        W 7317   0.109   4.898   8.292 -0.1549 -0.1427  0.1045
 3799W        W 7318   2.053   4.707  12.150 -0.0026 -0.0967  0.2269
 3800W        W 7319   5.974   1.591   9.305 -0.3462 -0.1673 -0.1224
 3801W        W 7320   6.305   8.015   0.203 -0.0775  0.1105  0.2251
 3802W        W 7321   6.058   7.687  11.557 -0.0077  0.0664  0.0076
 3803W        W 7322   4.080   3.035   7.928 -0.4545 -0.0722  0.0979
 3804W        W 7323   2.556   0.837   8.238 -0.3120 -0.0992  0.2983
 3805W        W 7324   7.149   7.146  10.759 -0.2378 -0.2182 -0.0962
 3806W        W 7325   4.140   2.587   4.003  0.2316 -0.1093 -0.5287
 3807W        W 7326   7.404   4.062   9.653 -0.0594  0.0765  0.0829
 3808W        W 7327   4.440   4.485  11.342 -0.2592 -0.4229  0.1654
 3809W        W 7328   4.118   3.099   3.990  0.0156 -0.1698  0.4371
 3810W        W 7329   2.140   6.607   7.915 -0.1275  0.0649 -0.0646
 3811W        W 7330   6.928   5.619   2.407 -0.0086 -0.0198 -0.0375
 3812W        W 7331   0.773   8.754   2.767 -0.0331  0.0160  0.0913
 3813W        W 7332   2.435   7.460  10.774  0.1419 -0.0510 -0.0847
 3814W        W 7333   7.604   4.484   9.367 -0.0168 -0.2413 -0.0342
 3815W        W 7334   7.280   7.579  11.036 -0.1251 -0.1205 -0.0028
 3816W        W 7335   3.009   2.993   3.563 -0.1625  0.0244  0.3004
 3817W        W 7336   8.650   2.603  11.918  0.3182  0.0244 -0.1169
 3818W        W 7337   0.796   4.142   4.058  0.0564  0.2376  0.0006
 3819W        W 7338   4.670   9.352  11.759  0.1525 -0.0472  0.0681
 3820W        W 7339   0.222   0.315   0.853 -0.0362 -0.2003  0.1992
 3821W        W 7340   6.659   8.255  10.100 -0.1774  0.0097 -0.0705
 3822W        W 7341   7.409   7.664   2.200 -0.3367  0.1423  0.1253
 3823W        W 7342   1.368   1.996   0.629  0.2700  0.3902 -0.0375
 3824W        W 7343   1.160   9.299  10.839 -0.0053  0.0284 -0.1894
 3825W        W 7344   8.380   1.228   7.931 -0.1634  0.0612 -0.4817
 3826W        W 7345   0.693   5.661   2.735  0.1513  0.0128 -0.0588
 3827W        W 7346   9.088   7.075  12.264 -0.1651  0.0638  0.1267
 3828W        W 7347   3.591   2.331   2.604  0.4020  0.0772 -0.0095
 3829W        W 7348   9.325   4.829  11.749  0.1093 -0.1334 -0.0917
 3830W        W 7349   1.224   2.723   3.113  0.4252 -0.1642 -0.3729
 3831W        W 7350   7.012   5.770   9.125  0.0216  0.1441  0.0371
 3832W        W 7351   7.541   4.125   2.385  0.1616 -0.1815  0.4402
 3833W        W 7352   6.689   5.140   2.079  0.1030 -0.1431 -0.0995
 3834W        W 7353   6.505   3.363   2.651 -0.0999  0.1870  0.0077
 3835W        W 7354   9.134   1.578  10.456 -0.5308 -0.1897  0.2140
 3836W        W 7355   5.755   5.074   2.228  0.1742  0.0503 -0.0821
 3837W        W 7356   1.136   2.532   8.801 -0.2100 -0.0619 -0.4171
 3838W        W 7357   2.570   0.602   3.100 -0.2823 -0.0747 -0.0564
 3839W        W 7358   5.835   6.037   2.076 -0.0097 -0.4117 -0.1332
 3840W        W 7359   2.490   0.663  11.125  0.0133  0.0622  0.0799
 3841W        W 7360   3.873   7.797   1.914  0.2401  0.0064  0.0905
 3842W        W 7361   2.572   9.244   0.038  0.2173 -0.1511  0.1176
 3843W        W 7362   3.685   8.640   2.716  0.0658  0.0032  0.0384
 3844W        W 7363   0.725   5.402   2.261 -0.1167 -0.2064  0.0752
 3845W        W 7364   0.309   5.579  10.960 -0.0693  0.4012  0.1352
 3846W        W 7365   4.257   2.562  11.198  0.0812 -0.0955  0.0627
 3847W        W 7366   3.775   2.225   1.220 -0.0617 -0.2887 -0.4140
 3848W        W 7367   1.412   9.426   2.474  0.2304 -0.2740  0.0842
 3849W        W 7368   6.102   5.413  10.521  0.3405  0.1661 -0.1694
 3850W        W 7369   0.982   2.509  10.547  0.2152  0.2305  0.2745
 3851W        W 7370   1.116   3.249   0.956 -0.0513  0.1192 -0.4583
 3852W        W 7371   9.527   6.175  12.312  0.0578  0.1131  0.3711
 3853W        W 7372   1.937   7.199   9.541 -0.0042  0.2109  0.2198
 3854W        W 7373   6.419   6.541   0.448 -0.1427  0.0778  0.0244
 3855W        W 7374   5.296   5.209   3.110 -0.0076 -0.4205  0.1456
 3856W        W 7375   8.030   2.324   3.740  0.2311  0.1915  0.2655
 3857W        W 7376   9.694   7.639   2.776  0.1019  0.0741  0.1632
 3858W        W 7377   8.642   6.020   1.795  0.1255 -0.0823  0.2100
 3859W        W 7378   5.479   8.612   0.710 -0.0922 -0.1193  0.0446
 3860W        W 7379   9.127   5.618   1.669 -0.0536  0.1126  0.1985
 3861W        W 7380   0.976   8.771   3.854 -0.1626  0.0428 -0.1224
 3862W        W 7381   0.744   5.228   0.534  0.2069  0.1472 -0.1242
 3863W        W 7382   3.578   3.805   3.758  0.3011 -0.1532  0.2354
 3864W        W 7383   5.227   4.258   4.814  0.0086  0.1906 -0.0317
 3865W        W 7384   7.460   3.490   3.191  0.1680 -0.2340 -0.3933
 3866W        W 7385   2.269   8.592   1.058  0.0275 -0.2172 -0.2469
 3867W        W 7386   2.389   5.393   0.180 -0.4921  0.2325 -0.2467
 3868W        W 7387   7.019   9.599  11.765 -0.1170 -0.0141 -0.1029
 3869W        W 7388   3.243   5.336   0.243 -0.1861  0.4398 -0.1949
 3870W        W 7389   6.113   5.774   9.309 -0.2512 -0.4788  0.1187
 3871W        W 7390   1.152   4.512  10.726  0.0469 -0.2200  0.2493
 3872W        W 7391   8.802   4.672   0.081 -0.1810  0.4844  0.3458
 3873W        W 7392   7.438   3.711   0.884 -0.2169 -0.1069  0.1815
 3874W        W 7393   7.715   4.516  10.332 -0.2225 -0.1036 -0.1556
 3875W        W 7394   0.137   8.767  10.868 -0.0157  0.1168  0.1013
 3876W        W 7395   7.671   7.060   0.525  0.0508 -0.0776 -0.1157
 3877W        W 7396   4.908   8.383   2.888 -0.0355 -0.0500 -0.1213
 3878W        W 7397   0.044   3.144   3.153 -0.1977  0.1067  0.0016
 3879W        W 7398   9.466   7.712   9.619  0.0851  0.0312  0.0829
 3880W        W 7399   4.974   1.329  10.904 -0.0753  0.0118 -0.3195
 3881W        W 7400   0.370   0.365   3.401 -0.0193 -0.1265  0.0650
 3882W        W 7401   1.181   0.303   0.395  0.0839 -0.1388 -0.3582
 3883W        W 7402   2.402   7.566   2.646 -0.0425 -0.0409  0.2754
 3884W        W 7403   4.518   3.587   8.328  0.2173  0.1796  0.2822
 3885W        W 7404   4.458   1.331  10.788 -0.1937 -0.2966  0.1337
 3886W        W 7405   5.735   4.551  11.723 -0.0455  0.1586 -0.0150
 3887W        W 7406   2.595   0.009   0.283  0.0711  0.2409 -0.0578
 3888W        W 7407   5.738   2.037   1.120 -0.2548  0.1406 -0.2307
 3889W        W 7408   2.022   5.084   9.203  0.0007  0.1296 -0.1066
 3890W        W 7409   7.562   6.594   9.153 -0.0317 -0.0050  0.0623
 3891W        W 7410   9.649   3.195  12.249  0.1218  0.2481  0.1947
 3892W        W 7411   8.264   4.417   9.634 -0.1481 -0.2792 -0.2319
 3893W        W 7412   7.835   2.323   9.516 -0.0812  0.0636 -0.2296
 3894W        W 7413   9.479   9.397   2.068 -0.3101 -0.0671  0.0249
 3895W        W 7414   5.951   3.837   0.109 -0.0670  0.1182 -0.1478
 3896W        W 7415   2.267   3.001  10.875  0.0803  0.0971 -0.2743
 3897W        W 7416   9.644   7.164   2.414  0.1771  0.1183 -0.0096
 3898W        W 7417   7.015   7.577   1.255  0.0995 -0.1858  0.1293
 3899W        W 7418   6.325   9.455   1.968 -0.3870 -0.0152  0.0582
 3900W        W 7419   3.158   7.166   1.019  0.1173  0.0555 -0.2562
 3901W        W 7420   4.252   1.451   8.872 -0.0050 -0.0833 -0.1337
 3902W        W 7421   1.573   7.948  11.396  0.0322  0.0919 -0.1213
 3903W        W 7422   6.179   2.132   9.811 -0.0097  0.2176 -0.1534
 3904W        W 7423   6.885   7.815  12.391 -0.0460  0.0438  0.0209
 3905W        W 7424   4.350   3.619   4.176 -0.0150  0.3136  0.1045
 3906W        W 7425   2.267   6.162  11.034  0.0915  0.1917 -0.2565
 3907W        W 7426   5.466   1.957  11.504 -0.1200 -0.2327 -0.0274
 3908W        W 7427   1.382   4.894   8.933  0.2871  0.3051  0.0360
 3909W        W 7428   0.779   5.310   0.078 -0.1726  0.1882  0.0084
 3910W        W 7429   7.973   0.564   0.360  0.0496 -0.1474 -0.0029
 3911W        W 7430   4.527   2.650   0.026  0.0447  0.0766  0.0381
 3912W        W 7431   0.586   7.082  12.322  0.0551  0.2961  0.1588
 3913W        W 7432   7.084   7.443   3.171 -0.0960 -0.1603  0.0398
 3914W        W 7433   2.538   1.575   1.540 -0.0733  0.3227  0.2100
 3915W        W 7434   0.518   7.809   0.244  0.2605 -0.1715 -0.1908
 3916W        W 7435   3.063   9.706   8.283  0.2194  0.2293  0.2989
 3917W        W 7436   2.482   5.142  10.229 -0.1380 -0.0008 -0.1207
 3918W        W 7437   6.888   8.666   1.406  0.1333  0.1346 -0.3691
 3919W        W 7438   6.823   7.799  10.141 -0.0304  0.0967 -0.1801
 3920W        W 7439   3.208   6.210   3.140 -0.0184  0.1304  0.1506
 3921W        W 7440   8.444   5.820   0.289 -0.1232 -0.2793 -0.2132
 3922W        W 7441   7.780   6.993   4.023  0.1586 -0.1525 -0.1140
 3923W        W 7442   8.135   2.024   1.778 -0.2231  0.2363  0.0839
 3924W        W 7443   0.417   8.839   8.804 -0.0867  0.1009 -0.0658
 3925W        W 7444   0.691   3.663  12.453  0.0115 -0.3013  0.0565
 3926W        W 7445   6.269   7.083   1.758  0.2284 -0.1971  0.2856
 3927W        W 7446   6.975   4.090   8.890  0.0259 -0.1689  0.0542
 3928W        W 7447   6.567   3.706   4.157  0.1240 -0.0367  0.2135
 3929W        W 7448   1.968   7.249   3.951 -0.0927  0.3767 -0.0887
 3930W        W 7449   7.607   5.045  11.501  0.1111 -0.0225 -0.0282
 3931W        W 7450   9.143   4.164   0.975 -0.3817 -0.1623 -0.0074
 3932W        W 7451   7.024   0.003   1.855  0.2983  0.1277 -0.4072
 3933W        W 7452   8.595   8.996   0.924  0.1978  0.2571  0.0610
 3934W        W 7453   9.664   0.190  11.764  0.2424  0.0061  0.0123
 3935W        W 7454   3.221   4.742  12.158 -0.0866 -0.0134  0.4158
 3936W        W 7455   7.108   1.634   8.495 -0.3091 -0.0815 -0.2111
 3937W        W 7456   7.670   2.017  11.991 -0.0763 -0.0651 -0.0079
 3938W        W 7457   8.997   8.653  10.654 -0.1685 -0.4942  0.3476
 3939W        W 7458   3.195   6.142  12.344  0.0855 -0.1986  0.2897
 3940W        W 7459   0.068   6.726   3.930  0.1610 -0.2263  0.0110
 3941W        W 7460   0.161   9.603  12.527  0.4502  0.4379  0.0053
 3942W        W 7461   0.660   6.058   1.994  0.2173  0.1405  0.2042
 3943W        W 7462   5.327   9.505   0.925  0.0628 -0.1705 -0.0134
 3944W        W 7463   2.767   9.468  10.659 -0.0438 -0.1393 -0.3034
 3945W        W 7464   8.508   8.033   9.657 -0.1779  0.1288  0.3732
 3946W        W 7465   4.888   3.781   2.559 -0.0874  0.3464 -0.0230
 3947W        W 7466   4.214   7.659   2.325 -0.0421 -0.0541  0.3994
 3948W        W 7467   3.234   0.185   1.165  0.2599  0.3601  0.0072
 3949W        W 7468   1.606   6.264   2.124 -0.2640 -0.1038  0.1458
 3950W        W 7469   3.434   7.818  10.852  0.0102 -0.2982  0.3528
 3951W        W 7470   6.447   2.668   3.350  0.0015  0.1221 -0.0542
 3952W        W 7471   8.701   5.490  11.008  0.1226 -0.0445  0.0496
 3953W        W 7472   4.853   6.168   0.971  0.2319 -0.0641 -0.1318
 3954W        W 7473   0.578   3.255   2.500  0.1167  0.0937  0.3189
 3955W        W 7474   3.899   1.608   3.680  0.2962 -0.1367  0.0055
 3956W        W 7475   7.190   3.795   8.465 -0.1824 -0.0364  0.1766
 3957W        W 7476   3.068   1.193  11.164  0.2437 -0.0278 -0.2978
 3958W        W 7477   7.520   5.498   9.006  0.0742  0.0107  0.0241
 3959W        W 7478   6.483   0.897   2.933 -0.4179 -0.0664 -0.1149
 3960W        W 7479   8.233   5.483  11.102 -0.1614 -0.1596 -0.0719
 3961W        W 7480   7.050   4.815  11.457 -0.1646  0.1349 -0.0680
 3962W        W 7481   3.143   1.089  11.676 -0.2646  0.1385  0.0265
 3963W        W 7482   8.590   5.812   2.852  0.1991  0.1197 -0.2347
 3964W        W 7483   9.056   1.096  10.296 -0.1459 -0.1660 -0.0488
 3965W        W 7484   8.450   0.546  12.192 -0.1235 -0.2274 -0.0263
 3966W        W 7485   6.618   8.760  12.222 -0.3283 -0.0770  0.2476
 3967W        W 7486   1.863   8.998   3.837  0.1036 -0.2647 -0.4594
 3968W        W 7487   2.018   6.660   2.933  0.1523  0.2218  0.4287
 3969W        W 7488   8.015   8.604   8.509  0.2812  0.0500  0.3482
 3970W        W 7489   4.176   8.312  12.093  0.2996 -0.1765 -0.0169
 3971W        W 7490   2.001   3.492   1.319 -0.0133  0.0116  0.2529
 3972W        W 7491   0.828   0.147  10.785  0.1380  0.0186  0.1599
 3973W        W 7492   6.924   2.366   1.320 -0.1261 -0.3357  0.1456
 3974W        W 7493   0.774   8.683  10.323  0.0033 -0.0604  0.2689
 3975W        W 7494   0.222   5.425   2.193 -0.0995  0.2040  0.0119
 3976W        W 7495   4.009   9.587  11.941 -0.2841 -0.1778  0.0782
 3977W        W 7496   5.111   2.493   0.645 -0.1099  0.1187 -0.1975
 3978W        W 7497   7.686   1.158   3.234  0.0409 -0.2223  0.0249
 3979W        W 7498   3.756   9.185   1.655  0.0547 -0.1213 -0.1212
 3980W        W 7499   0.170   7.125  12.025  0.0167  0.3060  0.2773
 3981W        W 7500   4.531   1.099   0.711  0.1989 -0.1131  0.2720
 3982W        W 7501   7.396   6.054  10.774 -0.1281 -0.0909  0.0226
 3983W        W 7502   5.037   4.367   9.952  0.0763 -0.1241 -0.1438
 3984W        W 7503   1.602   2.185   2.364  0.2453 -0.0033  0.1407
 3985W        W 7504   1.293   2.173   3.448 -0.2011 -0.2288  0.3468
 3986W        W 7505   0.390   7.944  10.307  0.2074  0.0481  0.2729
 3987W        W 7506   7.861   0.581   2.115 -0.0060 -0.0702 -0.2838
 3988W        W 7507   7.389   5.107   0.048  0.1024  0.1249 -0.0916
 3989W        W 7508   6.666   0.494   1.597 -0.0045 -0.1193 -0.1308
 3990W        W 7509   1.391   4.029   1.539 -0.1112 -0.0967 -0.0532
 3991W        W 7510   7.653   6.891   3.261 -0.0780 -0.0709  0.3979
 3992W        W 7511   0.765   4.732   0.741  0.1201 -0.4286 -0.2517
 3993W        W 7512   7.886   5.496   9.363  0.0477  0.1138  0.0582
 3994W        W 7513   1.524   6.505   3.186  0.1206 -0.1515 -0.1572
 3995W        W 7514   1.982   6.287   4.978 -0.3205  0.1524  0.2494
 3996W        W 7515   7.182   5.082  11.851 -0.0208 -0.1336  0.2608
 3997W        W 7516   4.076   3.481   8.075 -0.1769 -0.0665  0.0824
 3998W        W 7517   8.004   3.448   1.993  0.2827  0.1124 -0.0461
 3999W        W 7518   9.295   6.145   3.974  0.1335  0.2456  0.0823
 4000W        W 7519   8.197   0.142  11.852 -0.1469  0.0991 -0.0671
 4001W        W 7520   6.489   6.330   3.753  0.1445  0.2057  0.1788
 4002W        W 7521   2.740   2.929   1.602 -0.1166 -0.2651  0.0929
 4003W        W 7522   2.106   3.819   3.325  0.1169  0.0539 -0.0525
 4004W        W 7523   7.602   7.698  12.358 -0.1132  0.2665  0.0123
 4005W        W 7524   5.688   5.740  12.263  0.1942 -0.1659 -0.0738
 4006W        W 7525   6.673   5.107   9.748  0.1793 -0.1158  0.0724
 4007W        W 7526   7.808   4.518   8.863 -0.0346  0.1194  0.2911
 4008W        W 7527   9.668   2.597   9.035  0.0987  0.1479 -0.0278
 4009W        W 7528   7.772   8.771  10.203  0.0394 -0.3810  0.1080
 4010W        W 7529   5.977   7.057   9.312 -0.1682 -0.0629  0.1892
 4011W        W 7530   2.099   5.565   8.860  0.1143  0.0702  0.2730
 4012W        W 7531   9.224   9.416  11.323 -0.2554  0.2523  0.1194
 4013W        W 7532   9.073   4.828   9.283  0.0411 -0.0201 -0.2862
 4014W        W 7533   0.250   2.837  12.463  0.1036 -0.5135  0.0473
 4015W        W 7534   1.592   1.545  12.244 -0.4843  0.0221 -0.4279
 4016W        W 7535   6.969   4.733   3.377 -0.0798 -0.0731  0.0157
 4017W        W 7536   3.332   1.890   8.790  0.2620 -0.0629 -0.2232
 4018W        W 7537   1.071   8.401   9.874 -0.2690  0.1359 -0.1233
 4019W        W 7538   9.656   5.402   3.722  0.1609 -0.1227  0.0590
 4020W        W 7539   8.331   5.724  10.549  0.4307 -0.0808  0.0397
 4021W        W 7540   5.883   6.399   0.983  0.0006 -0.4237  0.1909
 4022W        W 7541   8.255   4.359   3.507  0.1632  0.0870  0.0041
 4023W        W 7542   7.437   2.749   9.338  0.0507 -0.3355  0.1541
 4024W        W 7543   9.060   7.641   1.900 -0.2588  0.1044 -0.1187
 4025W        W 7544   0.113   6.742  11.666  0.2554 -0.4302  0.0937
 4026W        W 7545   1.339   7.415   3.721  0.1682  0.1659 -0.0605
 4027W        W 7546   9.376   8.602  10.267 -0.1615 -0.0648  0.2807
 4028W        W 7547   0.862   7.067   0.160 -0.0346  0.0538 -0.1373
 4029W        W 7548   9.140   6.772  10.255 -0.1320 -0.1661  0.3121
 4030W        W 7549   5.071   7.550  10.387 -0.1250  0.0758  0.0116
 4031W        W 7550   6.040   6.666   1.899  0.0790  0.1504 -0.1639
 4032W        W 7551   2.197   2.899   3.266  0.2163 -0.1390  0.0243
 4033W        W 7552   6.909   7.146   3.692 -0.0279 -0.1037  0.1690
 4034W        W 7553   2.265   6.176   2.768 -0.2112 -0.1643 -0.3246
 4035W        W 7554   4.157   3.706   0.748 -0.2644 -0.1598  0.0182
 4036W        W 7555   6.399   1.236   0.541 -0.2072  0.0664  0.1513
 4037W        W 7556   0.366   3.312  11.176 -0.1200  0.1536  0.3269
 4038W        W 7557   4.200   2.096  11.597 -0.3038 -0.0638  0.1011
 4039W        W 7558   0.127   7.651  11.210 -0.0360  0.0478 -0.1314
 4040W        W 7559   7.044   6.486   3.787  0.4894 -0.2809 -0.2078
 4041W        W 7560   0.194   1.342   9.090 -0.1021 -0.4428 -0.0060
 4042W        W 7561   5.254   8.477  10.512 -0.0895  0.2677  0.3872
 4043W        W 7562   6.822   7.952  11.812 -0.0115 -0.0555 -0.1143
 4044W        W 7563   1.750   2.466   1.511  0.1128 -0.0778 -0.1826
 4045W        W 7564   5.733   2.345   0.085  0.1887 -0.1478  0.1286
 4046W        W 7565   7.176   6.011   9.505  0.0399 -0.1210  0.1725
 4047W        W 7566   7.924   9.614  10.035  0.2095  0.0232 -0.0330
 4048W        W 7567   2.000   1.839   3.999  0.0414  0.1735 -0.1573
 4049W        W 7568   6.693   6.742   3.530  0.0038  0.1866 -0.1773
 4050W        W 7569   9.539   4.482   2.160  0.0335 -0.1058  0.0736
 4051W        W 7570   0.866   2.990   3.363 -0.3450 -0.0397  0.1913
 4052W        W 7571   4.907   0.326   2.093 -0.3080  0.1864 -0.1328
 4053W        W 7572   9.411   6.582   3.625 -0.1793  0.0247  0.2881
 4054W        W 7573   8.035   6.753  11.405  0.0497  0.1272 -0.2152
 4055W        W 7574   8.978   0.569   3.758  0.1549  0.0524  0.2111
 4056W        W 7575   3.821   8.186   2.841 -0.0004 -0.3922  0.1013
 4057W        W 7576   7.710   7.990  10.357  0.1481 -0.2279  0.3649
 4058W        W 7577   3.095   0.084   1.952 -0.0079  0.2344  0.4745
 4059W        W 7578   2.720   7.895   3.018  0.0212 -0.0084  0.1912
 4060W        W 7579   3.641   0.783   2.193  0.0431  0.0588  0.0431
 4061W        W 7580   1.274   4.450  10.104  0.1417  0.0876  0.6041
 4062W        W 7581   3.506   0.455   2.763 -0.0754 -0.0640  0.3103
 4063W        W 7582   4.603   7.001   1.038 -0.0793  0.0411  0.3212
 4064W        W 7583   5.076   3.559  10.538 -0.4299  0.1189 -0.1915
 4065W        W 7584   5.667   2.655  12.034  0.0667 -0.0644  0.0134
 4066W        W 7585   6.124   8.364  12.385  0.1261  0.5010 -0.0851
 4067W        W 7586   9.634   8.453  11.268  0.0201  0.0278 -0.1229
 4068W        W 7587   6.958   2.701   9.931  0.2230  0.0002  0.2245
 4069W        W 7588   1.147   0.811  12.095 -0.0980 -0.0517  0.1051
 4070W        W 7589   0.504   0.468   8.224 -0.0940  0.1993  0.0347
 4071W        W 7590   0.663   5.756  11.844  0.1016  0.0370 -0.3505
 4072W        W 7591   0.427   9.364  10.154  0.0558 -0.4666 -0.3087
 4073W        W 7592   5.837   3.533   9.540  0.1160 -0.1167  0.0400
 4074W        W 7593   9.664   3.018   1.156  0.1904 -0.1494  0.3275
 4075W        W 7594   0.331   2.699   3.258 -0.0004 -0.0622  0.1336
 4076W        W 7595   4.292   8.469   2.787  0.0511 -0.2490  0.3967
 4077W        W 7596   6.437   6.534   8.477  0.3468 -0.1899  0.0278
 4078W        W 7597   4.635   3.579  11.519  0.0751 -0.0893  0.0667
 4079W        W 7598   5.827   5.928  11.686  0.0920  0.1760  0.3783
 4080W        W 7599   2.451   4.270   2.515 -0.2591  0.1075 -0.0400
 4081W        W 7600   4.712   5.186  10.529 -0.1758 -0.1213 -0.3917
 4082W        W 7601   1.422   1.659   1.497  0.0938  0.2816  0.0769
 4083W        W 7602   2.095   8.774   2.902  0.2649 -0.2601 -0.0554
 4084W        W 7603   0.881   3.748   2.230 -0.0169  0.0243  0.2905
 4085W        W 7604   1.273   9.537   8.754 -0.1141 -0.1164 -0.1435
 4086W        W 7605   7.506   8.775   1.332 -0.0121 -0.1035  0.1730
 4087W        W 7606   5.345   0.529   1.166  0.1222  0.0646 -0.0053
 4088W        W 7607   0.282   8.998   3.182 -0.0426 -0.0660 -0.2020
 4089W        W 7608   0.970   4.081   1.061  0.1453 -0.3286 -0.0902
 4090W        W 7609   6.916   6.490   0.761 -0.0890 -0.0388 -0.1835
 4091W        W 7610   9.364   0.004  12.377  0.3970 -0.0320  0.0637
 4092W        W 7611   1.064   0.354   9.188 -0.1523 -0.1718  0.0971
 4093W        W 7612   6.518   5.036   0.278  0.0154 -0.1714  0.0728
 4094W        W 7613   5.485   7.281   2.196  0.2626 -0.2455  0.0291
 4095W        W 7614   2.065   1.430   8.705  0.1120 -0.2477 -0.1506
 4096W        W 7615   1.520   5.153   3.839 -0.1440 -0.0355 -0.0036
 4097W        W 7616   2.673   0.948  11.527  0.0386  0.0042 -0.3425
 4098W        W 7617   8.295   9.465  11.556 -0.0767 -0.1819 -0.2149
 4099W        W 7618   4.450   2.829   3.529 -0.2289 -0.2602 -0.2311
 4100W        W 7619   4.617   1.686   4.155  0.0500  0.1202  0.0072
 4101W        W 7620   1.002   7.915   1.097 -0.0246  0.1226  0.2914
 4102W        W 7621   2.569   7.219   1.730 -0.1140  0.1277 -0.0327
 4103W        W 7622   5.933   8.652   2.135 -0.0928  0.0785 -0.1097
 4104W        W 7623   5.907   5.223   0.277  0.0923 -0.2896 -0.3760
 4105W        W 7624   6.454   4.339   1.419 -0.2236  0.0255  0.0187
 4106W        W 7625   2.004   8.862  11.799  0.0164 -0.0559 -0.1161
 4107W        W 7626   1.522   6.006  11.966  0.0468  0.0310  0.0339
 4108W        W 7627   6.094   0.203  10.999 -0.0690 -0.0329 -0.2679
 4109W        W 7628   8.487   0.596  11.668 -0.2584 -0.1284  0.2822
 4110W        W 7629   0.388   0.230   2.172  0.2077  0.0301 -0.1284
 4111W        W 7630   5.479   9.523   8.784 -0.0713 -0.1008  0.0716
 4112W        W 7631   6.747   0.830   0.096  0.1727 -0.0795 -0.0216
 4113W        W 7632   7.376   4.953  11.039 -0.1587 -0.3420 -0.0578
 4114W        W 7633   6.153   3.272   1.965  0.0371 -0.0364 -0.0544
 4115W        W 7634   3.974   8.854  10.937  0.2836 -0.0290  0.1296
 4116W        W 7635   3.611   4.832   2.063 -0.0867  0.1022 -0.1453
 4117W        W 7636   2.927   6.790  11.129 -0.3430 -0.2522  0.0096
 4118W        W 7637   0.253   2.837   8.595  0.0631  0.2283 -0.0821
 4119W        W 7638   4.249   3.842  11.357  0.3431 -0.3677 -0.0825
 4120W        W 7639   3.034   1.855   1.750  0.2251  0.0846 -0.1830
 4121W        W 7640   3.219   0.424   0.157  0.1282  0.2441 -0.0733
 4122W        W 7641   0.659   8.103  11.304 -0.0139  0.3398 -0.2049
 4123W        W 7642   6.546   7.597   1.069  0.1616 -0.1018 -0.2736
 4124W        W 7643   0.488   5.055  11.055 -0.0741  0.0512  0.0413
 4125W        W 7644   2.381   1.913   9.822 -0.3440  0.0331  0.0008
 4126W        W 7645   0.722   4.704   2.669 -0.0830  0.2581  0.1282
 4127W        W 7646   1.302   1.198   2.665  0.0793  0.0311 -0.1168
 4128W        W 7647   4.316   6.693  12.013 -0.0415 -0.1427 -0.0086
 4129W        W 7648   5.314   1.884   2.813 -0.2300 -0.1183  0.0299
 4130W        W 7649   5.452   5.183  11.089 -0.1039 -0.1815 -0.0797
 4131W        W 7650   6.971   4.953   8.758  0.0046  0.3947  0.0114
 4132W        W 7651   7.069   2.682   1.696  0.0399  0.0171 -0.0154
 4133W        W 7652   4.417   4.611  11.877  0.1947 -0.1193  0.1269
 4134W        W 7653   9.062   3.936   3.434  0.1341  0.0348 -0.2063
 4135W        W 7654   9.321   1.160   1.528  0.0724  0.3533  0.2438
 4136W        W 7655   5.170   1.888  11.047 -0.1563 -0.0846  0.3862
 4137W        W 7656   8.121   6.057  11.952  0.0455 -0.0294  0.1415
 4138W        W 7657   3.587   7.386  11.581 -0.2926  0.4258 -0.0700
 4139W        W 7658   4.813   9.379  10.691 -0.2831 -0.1556 -0.2250
 4140W        W 7659   9.301   4.241   1.806  0.0059 -0.0432  0.2184
 4141W        W 7660   2.747   8.427   8.609 -0.1780 -0.0286 -0.2395
 4142W        W 7661   0.061   3.927   2.948  0.4655  0.0020  0.0927
 4143W        W 7662   1.760   6.996  12.419  0.2823  0.0800  0.1798
 4144W        W 7663   0.828   6.923   1.146  0.0246 -0.3187 -0.2131
 4145W        W 7664   1.630   9.374  11.006 -0.0368  0.0943  0.3577
 4146W        W 7665   5.496   2.233   8.713 -0.0495  0.0055 -0.0147
 4147W        W 7666   0.168   1.862   8.957  0.2400 -0.1884  0.0033
 4148W        W 7667   0.134   1.049   1.502 -0.2755  0.3317  0.1217
 4149W        W 7668   1.030   9.566   2.885  0.1237  0.0407 -0.1097
 4150W        W 7669   4.086   1.218   4.550  0.1854 -0.0422 -0.0839
 4151W        W 7670   2.284   9.597  10.457  0.0975  0.0519 -0.4364
 4152W        W 7671   1.503   3.428   4.003  0.1164  0.0279  0.2506
 4153W        W 7672   3.220   0.875   2.883  0.1396 -0.1540 -0.2473
 4154W        W 7673   1.193   5.619   2.711 -0.0101 -0.0147  0.2290
 4155W        W 7674   4.613   5.345   0.574  0.0069  0.0081  0.0004
 4156W        W 7675   8.060   4.222  10.592 -0.2479  0.3059  0.1344
 4157W        W 7676   6.752   9.099   0.742  0.1529 -0.0049 -0.0633
 4158W        W 7677   1.010   7.880  11.551 -0.0493  0.0456  0.1087
 4159W        W 7678   9.572   0.472   9.269 -0.2043 -0.2976 -0.2501
 4160W        W 7679   9.354   6.828  10.889 -0.2337  0.0915  0.0699
 4161W        W 7680   3.115   6.560   0.081 -0.0354 -0.0397  0.1608
 4162W        W 7681   8.427   3.481   1.717 -0.2698  0.2225 -0.0282
 4163W        W 7682   6.308   6.552   3.132  0.2779 -0.1827  0.2699
 4164W        W 7683   1.918   0.782  10.300 -0.0606  0.1306  0.2663
 4165W        W 7684   9.055   8.987  11.020 -0.0084  0.1199 -0.1275
 4166W        W 7685   2.193   3.876  11.236 -0.4611  0.2693 -0.0989
 4167W        W 7686   9.307   9.557  10.376  0.0421 -0.0209  0.2914
 4168W        W 7687   2.606   8.389  10.438 -0.2219  0.3439  0.0900
 4169W        W 7688   6.504   5.297   1.325  0.3597  0.0442  0.1336
 4170W        W 7689   2.123   6.516   9.352 -0.3308 -0.1425  0.0874
 4171W        W 7690   3.092   2.086   2.709  0.0933 -0.3077 -0.2374
 4172W        W 7691   6.696   3.239  11.339  0.2949 -0.0943 -0.1934
 4173W        W 7692   3.606   6.899   1.781  0.1633 -0.3072 -0.3201
 4174W        W 7693   1.156   7.840   8.570 -0.1331 -0.1250  0.4775
 4175W        W 7694   4.752   0.266   2.553 -0.1417  0.3888  0.0290
 4176W        W 7695   8.586   6.053   0.720 -0.0267  0.1032  0.0133
 4177W        W 7696   8.941   3.786   4.443 -0.0794 -0.1984  0.0940
 4178W        W 7697   7.632   8.187  12.126  0.0089 -0.1399 -0.0439
 4179W        W 7698   3.588   9.445   0.425 -0.1552  0.0811 -0.1090
 4180W        W 7699   4.787   3.877   0.903  0.0387  0.1530  0.1766
 4181W        W 7700   7.918   2.726  10.144  0.0771 -0.0953  0.1974
 4182W        W 7701   8.856   0.592  10.355  0.0129  0.4882 -0.0031
 4183W        W 7702   1.744   3.612   9.468  0.3480  0.0348 -0.2099
 4184W        W 7703   0.425   1.863  10.164 -0.0455  0.4004  0.1463
 4185W        W 7704   0.563   5.995   3.626 -0.0832  0.0953 -0.2943
 4186W        W 7705   2.308   7.036   2.637 -0.1776  0.1364 -0.0511
 4187W        W 7706   3.337   0.028   3.417 -0.0646  0.0174 -0.1320
 4188W        W 7707   0.107   1.567  11.723  0.0722  0.3590 -0.3322
 4189W        W 7708   0.478   9.378   2.822 -0.2541  0.2379 -0.0308
 4190W        W 7709   0.818   0.500   4.168  0.1402 -0.0776  0.1105
 4191W        W 7710   6.443   1.410  11.639 -0.3846  0.0630  0.3324
 4192W        W 7711   8.905   6.525   1.745 -0.1680 -0.0388 -0.0586
 4193W        W 7712   3.525   3.885   8.821  0.1929 -0.0079  0.0101
 4194W        W 7713   7.372   0.724   1.795  0.1305  0.4851 -0.3988
 4195W        W 7714   4.287   2.100   0.083  0.0848  0.1050 -0.1948
 4196W        W 7715   3.259   7.070   9.859  0.0103 -0.0439 -0.2396
 4197W        W 7716   5.938   6.437   2.348 -0.2950 -0.5001 -0.0421
 4198W        W 7717   0.142   4.351   1.646 -0.1004 -0.0037  0.1202
 4199W        W 7718   3.535   6.297  11.057 -0.0217 -0.0366 -0.4407
 4200W        W 7719   5.756   2.871  11.623 -0.3483  0.0440 -0.0421
 4201W        W 7720   2.461   4.291   3.515 -0.1449 -0.1447  0.4068
 4202W        W 7721   4.922   1.313  12.096 -0.0719  0.2636  0.0564
 4203W        W 7722   1.641   6.215   0.921  0.0286 -0.0529  0.0173
 4204W        W 7723   9.555   1.780   9.321 -0.1994 -0.1097 -0.1863
 4205W        W 7724   1.528   7.041  10.787 -0.4732  0.1911 -0.1342
 4206W        W 7725   5.552   9.028   9.576  0.1780 -0.2433  0.1143
 4207W        W 7726   2.651   9.057   2.871 -0.0061  0.1204  0.0919
 4208W        W 7727   8.131   8.443  11.180 -0.1597 -0.2160 -0.2395
 4209W        W 7728   5.746   4.786   8.345  0.1824  0.1633 -0.0570
 4210W        W 7729   3.109   7.532   9.955  0.0067  0.1526  0.3866
 4211W        W 7730   2.539   8.647   7.856  0.1547  0.1648 -0.1652
 4212W        W 7731   5.311   0.955   8.064 -0.1987  0.0930  0.2614
 4213W        W 7732   7.314   4.381   3.327  0.2081  0.2005  0.0675
 4214W        W 7733   0.282   0.419   9.991 -0.0302  0.2386 -0.0377
 4215W        W 7734   0.252   0.101   9.537 -0.1720 -0.2002 -0.0217
 4216W        W 7735   7.382   3.365   4.209 -0.0553 -0.2437 -0.0173
 4217W        W 7736   5.251   7.922   9.638  0.1151  0.2372  0.2733
 4218W        W 7737   3.616   0.950   1.211 -0.4580  0.2667 -0.3061
 4219W        W 7738   0.303   8.937   9.307 -0.0762 -0.0688  0.2094
 4220W        W 7739   5.572   0.720   8.836 -0.2358 -0.0228 -0.0609
 4221W        W 7740   4.483   2.887   1.040  0.1063 -0.0079 -0.0081
 4222W        W 7741   8.907   2.037  10.670 -0.0328 -0.2296  0.0325
 4223W        W 7742   1.984   3.144  12.287 -0.0847 -0.2375  0.0732
 4224W        W 7743   4.188   1.495   0.579  0.2306  0.0062  0.1806
 4225W        W 7744   5.453   5.750   4.023  0.0184  0.2924 -0.2763
 4226W        W 7745   4.174   7.752  11.362 -0.2957  0.0156  0.1650
 4227W        W 7746   0.000   0.081   4.205  0.1147 -0.0249  0.0612
 4228W        W 7747   5.004   3.061   1.547 -0.2094  0.0566  0.1359
 4229W        W 7748   3.779   8.426   0.607 -0.1977  0.1030  0.0685
 4230W        W 7749   2.541   5.182   8.159 -0.3045  0.1542 -0.0788
 4231W        W 7750   4.436   0.758   2.354 -0.0798  0.0887 -0.0328
 4232W        W 7751   3.614   8.582  11.187  0.3693 -0.2298 -0.0873
 4233W        W 7752   1.031   7.118  10.797 -0.1806 -0.1709  0.0552
 4234W        W 7753   7.776   7.602   0.639 -0.0348 -0.1915 -0.1579
 4235W        W 7754   1.144   7.771   8.065 -0.1108 -0.0181 -0.1792
 4236W        W 7755   7.921   9.247  10.360 -0.2971 -0.1930 -0.0452
 4237W        W 7756   9.093   5.245  11.530 -0.4241 -0.0659  0.2968
 4238W        W 7757   4.948   3.881   8.226  0.3074  0.1275  0.1336
 4239W        W 7758   3.178   0.098   9.288 -0.0014  0.2063 -0.1266
 4240W        W 7759   9.522   0.791   1.208  0.0657 -0.0860  0.1339
 4241W        W 7760   6.214   4.994   3.475  0.0084 -0.2736  0.0736
 4242W        W 7761   9.248   8.894   9.138 -0.1678  0.0872  0.1935
 4243W        W 7762   1.307   6.028   8.509  0.3174 -0.2110 -0.1559
 4244W        W 7763   9.682   2.402   3.624  0.0277  0.1636 -0.1982
 4245W        W 7764   2.558   4.009   4.074 -0.1221  0.3657 -0.0577
 4246W        W 7765   7.311   1.694   1.126 -0.1607  0.6174 -0.0459
 4247W        W 7766   7.884   4.371   0.462  0.2128  0.1837 -0.0295
 4248W        W 7767   6.468   7.039  11.892 -0.3096  0.1717  0.2716
 4249W        W 7768   9.567   1.591   9.844  0.0770 -0.0275  0.0287
 4250W        W 7769   8.182   4.888   0.552  0.2652 -0.1385  0.0470
 4251W        W 7770   6.454   3.137   9.194 -0.1170  0.3635  0.0429
 4252W        W 7771   6.139   3.830   2.592  0.0836 -0.5270 -0.1241
 4253W        W 7772   4.704   8.361  12.403  0.3691 -0.1099  0.0274
 4254W        W 7773   4.773   0.388   8.808 -0.3468  0.0917 -0.0444
 4255W        W 7774   7.451   1.796  10.568  0.0839  0.0268 -0.1359
 4256W        W 7775   8.557   8.314   3.147  0.0378  0.2875  0.2220
 4257W        W 7776   1.054   5.138   3.993  0.3039 -0.0676  0.3098
 4258W        W 7777   4.711   0.835   0.252  0.2300  0.2758  0.1177
 4259W        W 7778   1.881   2.453   1.984 -0.3386  0.2245  0.0263
 4260W        W 7779   6.045   5.060   1.345 -0.3091  0.1448  0.0879
 4261W        W 7780   2.778   3.011   0.023 -0.2012  0.2411 -0.0456
 4262W        W 7781   4.349   5.573  11.927 -0.0044 -0.2106  0.1351
 4263W        W 7782   7.816   2.709  10.633 -0.3255  0.1664  0.3029
 4264W        W 7783   7.239   6.503   3.082 -0.0696  0.0229 -0.0377
 4265W        W 7784   8.490   5.957  12.365  0.2666 -0.2135  0.1549
 4266W        W 7785   8.415   9.702   1.385  0.0920  0.1732 -0.0189
 4267W        W 7786   5.721   4.069   3.709  0.2335  0.1216 -0.1779
 4268W        W 7787   5.694   2.735   3.319 -0.1597 -0.0128 -0.0051
 4269W        W 7788   0.630   6.511   1.495  0.1837  0.0683 -0.0259
 4270W        W 7789   2.009   7.084   2.135 -0.1141  0.0327  0.1908
 4271W        W 7790   2.095   6.485   0.974  0.2440  0.3139 -0.0689
 4272W        W 7791   2.633   0.026   9.481 -0.2646 -0.1157 -0.0970
 4273W        W 7792   5.864   6.319  11.358  0.2353 -0.0996  0.3780
 4274W        W 7793   5.439   1.431  11.129 -0.0657  0.0002 -0.0038
 4275W        W 7794   6.038   6.734   1.389  0.0535 -0.2302 -0.0169
 4276W        W 7795   5.197   9.688   2.958 -0.2217  0.0138  0.2831
 4277W        W 7796   8.717   9.300   1.312  0.0476  0.0447  0.0094
 4278W        W 7797   2.772   0.135  12.426 -0.2593  0.0080  0.1414
 4279W        W 7798   9.104   7.553   2.847  0.2377  0.0306 -0.3797
 4280W        W 7799   7.651   5.578   0.023  0.0345  0.0333  0.1380
 4281W        W 7800   5.651   8.065  11.490  0.4107  0.2038  0.1063
 4282W        W 7801   4.458   7.457   0.865  0.3518 -0.1784  0.2947
 4283W        W 7802   1.196   9.351   2.041  0.0296 -0.0648 -0.1947
 4284W        W 7803   0.377   1.175  11.502  0.0359  0.1829  0.1482
 4285W        W 7804   1.393   3.370  10.678  0.1006  0.1356  0.2623
 4286W        W 7805   4.579   3.858   9.219 -0.1755  0.1326 -0.1856
 4287W        W 7806   8.017   3.836   1.603  0.1895  0.2925  0.0890
 4288W        W 7807   7.150   5.512  10.895 -0.2307  0.0314 -0.0774
 4289W        W 7808   5.837   5.502   2.601 -0.4581  0.2231  0.1586
 4290W        W 7809   7.249   7.992   0.752  0.1538  0.1515 -0.1026
 4291W        W 7810   3.972   7.784   1.418 -0.3497 -0.1504 -0.2522
 4292W        W 7811   3.090   0.021   9.801 -0.1892  0.2375  0.2183
 4293W        W 7812   2.966   5.752  10.484  0.0533 -0.1600  0.0821
 4294W        W 7813   3.621   6.677   3.800  0.2474  0.0300  0.0699
 4295W        W 7814   6.260   6.706  10.706 -0.3547  0.0059  0.1274
 4296W        W 7815   5.567   9.189  10.999 -0.1070  0.0481 -0.0807
 4297W        W 7816   1.332   7.881   4.024  0.1339  0.1689 -0.3341
 4298W        W 7817   1.414   3.760  11.892  0.3477  0.0959  0.1684
 4299W        W 7818   1.579   6.589   4.295 -0.0264 -0.1695  0.0579
 4300W        W 7819   4.504   2.842   4.219  0.1264 -0.2310  0.0775
 4301W        W 7820   1.568   6.086   8.027 -0.0535 -0.1843 -0.3129
 4302W        W 7821   5.210   1.531   0.630 -0.1440  0.4210  0.1045
 4303W        W 7822   7.623   1.879   3.777  0.0341 -0.2156 -0.0278
 4304W        W 7823   7.264   1.818   3.451 -0.3056  0.2356  0.1390
 4305W        W 7824   5.949   2.909  10.153  0.1645  0.1033 -0.3067
 4306W        W 7825   8.756   5.505  12.534  0.1347 -0.1761  0.0484
 4307W        W 7826   3.845   1.397   1.016  0.3758 -0.0530  0.1261
 4308W        W 7827   4.027   8.451   9.678  0.2882 -0.0230 -0.2638
 4309W        W 7828   8.391   9.632   8.826  0.0525  0.1752 -0.2524
 4310W        W 7829   9.147   2.725   0.727 -0.1529  0.2558  0.3411
 4311W        W 7830   5.609   7.486  11.640  0.0074 -0.0245 -0.1996
 4312W        W 7831   5.338   6.644  11.129 -0.1413  0.0865  0.2092
 4313W        W 7832   7.179   6.740   9.497  0.0295  0.1845  0.0825
 4314W        W 7833   3.225   6.409   2.649 -0.0622 -0.0870 -0.1504
 4315W        W 7834   8.542   4.060   2.606 -0.1411  0.2384  0.0655
 4316W        W 7835   2.046   4.005   3.804  0.0998 -0.0909 -0.1779
 4317W        W 7836   1.605   6.142  11.486  0.0411 -0.6203  0.2108
 4318W        W 7837   9.163   8.441   9.423  0.3812  0.1188  0.0678
 4319W        W 7838   8.477   8.657  12.128 -0.2268  0.0684 -0.0080
 4320W        W 7839   8.306   3.869  12.055  0.2707  0.2149 -0.2376
 4321W        W 7840   8.457   2.799   2.450  0.2364 -0.0068 -0.0458
 4322W        W 7841   3.678   7.077   0.740 -0.1441  0.0482 -0.0307
 4323W        W 7842   4.100   4.467   9.904  0.1110 -0.1013 -0.2463
 4324W        W 7843   5.299   6.082  12.058  0.0651 -0.0784  0.1401
 4325W        W 7844   6.212   7.064   3.139 -0.3336 -0.2842  0.2117
 4326W        W 7845   3.945   5.372  11.550  0.1578  0.0200 -0.0415
 4327W        W 7846   5.044   3.234   3.785 -0.0815 -0.1765  0.0291
 4328W        W 7847   7.451   2.846   8.211 -0.0645 -0.2751 -0.1647
 4329W        W 7848   6.943   3.044   2.565  0.1003 -0.1322 -0.2824
 4330W        W 7849   7.712   1.324  10.548 -0.0587 -0.0113  0.3077
 4331W        W 7850   1.405   2.652  11.167  0.0360  0.0315  0.0344
 4332W        W 7851   4.060   1.052   8.621 -0.3444  0.1024 -0.2649
 4333W        W 7852   9.122   8.986  11.542 -0.1969  0.0418  0.1476
 4334W        W 7853   5.240   9.061   1.196  0.1937  0.1749 -0.0869
 4335W        W 7854   7.502   4.355   0.114 -0.2418  0.1581  0.1954
 4336W        W 7855   5.841   9.029   1.328 -0.0130 -0.0759 -0.1445
 4337W        W 7856   4.603   3.313   9.339 -0.0797  0.1198 -0.2046
 4338W        W 7857   3.196   0.716   1.876 -0.1117 -0.0661  0.1878
 4339W        W 7858   1.928   0.383   4.608 -0.0187 -0.0173 -0.1647
 4340W        W 7859   6.687   9.188  10.530 -0.2977  0.0179  0.0463
 4341W        W 7860   2.710   1.255   0.074  0.1260  0.0443 -0.0018
 4342W        W 7861   9.451   8.545   3.073 -0.0553  0.0021 -0.0558
 4343W        W 7862   1.044   0.392  12.337 -0.0122 -0.0695  0.2361
 4344W        W 7863   4.420   2.044   9.735  0.1782  0.0098  0.1646
 4345W        W 7864   4.354   4.529   3.066  0.2391  0.0152 -0.3168
 4346W        W 7865   4.972   1.998  11.533  0.1089  0.1454 -0.2197
 4347W        W 7866   0.637   0.761   3.790 -0.0870  0.1419  0.0070
 4348W        W 7867   6.858   3.111   1.124 -0.0065 -0.0514 -0.2198
 4349W        W 7868   2.211   2.940   0.119 -0.0121 -0.1235 -0.0853
 4350W        W 7869   9.456   5.882   3.527 -0.1574  0.0140 -0.2460
 4351W        W 7870   8.659   5.634  12.042 -0.0044  0.1194 -0.0696
 4352W        W 7871   5.173   7.011   3.506  0.0878 -0.1844 -0.3140
 4353W        W 7872   5.568   0.623  10.455 -0.0204 -0.1645 -0.1092
 4354W        W 7873   2.403   6.379   0.187  0.3321  0.1718  0.3307
 4355W        W 7874   5.943   0.864   0.590  0.0419  0.1059  0.0687
 4356W        W 7875   6.629   6.038   0.575 -0.0885  0.0108 -0.4181
 4357W        W 7876   6.287   0.845  12.345 -0.0541  0.2177  0.3507
 4358W        W 7877   3.489   6.664   3.148  0.2070 -0.1121 -0.0404
 4359W        W 7878   5.907   4.325   4.053 -0.1085 -0.3984  0.2995
 4360W        W 7879   4.311   0.856   3.649  0.0910 -0.2155 -0.0096
 4361W        W 7880   2.523   8.691   4.167  0.0870 -0.0270  0.2378
 4362W        W 7881   6.278   2.465  11.033  0.0556  0.0628 -0.0154
 4363W        W 7882   0.045   6.513   4.376 -0.4554 -0.2047  0.1241
 4364W        W 7883   8.870   8.967  12.032  0.0809  0.1762 -0.1495
 4365W        W 7884   2.755   0.190  11.461  0.0370  0.2790  0.0969
 4366W        W 7885   9.594   6.309   9.018 -0.1460  0.1477  0.0374
 4367W        W 7886   7.946   8.129  11.628  0.1612 -0.2018 -0.0925
 4368W        W 7887   3.782   3.811   0.416 -0.1586  0.0886  0.1334
 4369W        W 7888   5.162   5.300   2.137 -0.1772 -0.0027  0.0492
 4370W        W 7889   0.636   1.272   3.734  0.0543 -0.0447  0.2239
 4371W        W 7890   8.537   4.874   3.119  0.0226  0.0197  0.0048
 4372W        W 7891   0.198   6.004   2.145 -0.0528 -0.1110 -0.1913
 4373W        W 7892   6.279   0.687   0.251 -0.0008 -0.2092 -0.2309
 4374W        W 7893   4.908   5.421   0.113 -0.0600 -0.0568  0.1319
 4375W        W 7894   0.659   9.108   3.685 -0.0335 -0.0900  0.1189
 4376W        W 7895   7.732   1.717  11.493 -0.3572 -0.0272  0.1746
 4377W        W 7896   0.068   1.211   8.621 -0.0902 -0.1126 -0.2226
 4378W        W 7897   4.267   1.808   9.263 -0.0480  0.3345  0.2811
 4379W        W 7898   7.129   3.196   1.595 -0.0737 -0.0535 -0.1944
 4380W        W 7899   8.077   9.321   1.173 -0.2665  0.0296  0.0584
 4381W        W 7900   5.975   2.271   7.875 -0.0448  0.1818  0.3819
 4382W        W 7901   2.288   8.683   8.618  0.1237 -0.1993  0.2360
 4383W        W 7902   7.275   0.961  11.148  0.0813 -0.0637  0.2395
 4384W        W 7903   8.695   4.298  11.614  0.3007 -0.0705 -0.1414
 4385W        W 7904   3.943   1.615  10.830  0.0779  0.1792  0.0785
 4386W        W 7905   8.365   7.594   9.822  0.1798 -0.1077  0.0276
 4387W        W 7906   9.144   3.430   2.746 -0.0001 -0.1292  0.0860
 4388W        W 7907   7.799   3.555  12.338 -0.0479  0.1291 -0.2726
 4389W        W 7908   0.802   5.542   9.374 -0.0386 -0.0848  0.0271
 4390W        W 7909   9.692   4.336   9.109  0.3062  0.1621 -0.1548
 4391W        W 7910   4.004   0.592  11.979  0.2827  0.0744 -0.0097
 4392W        W 7911   4.375   5.513   9.640  0.0352 -0.3432 -0.2126
 4393W        W 7912   0.930   2.987   0.572 -0.0899 -0.2099 -0.2103
 4394W        W 7913   5.201   6.600   0.618  0.0859  0.2816 -0.2805
 4395W        W 7914   4.429   7.968   1.529 -0.2711 -0.3780 -0.0262
 4396W        W 7915   9.337   6.078   9.870  0.0252  0.1639  0.1093
 4397W        W 7916   9.190   2.310   9.928 -0.2928  0.0418  0.0014
 4398W        W 7917   7.159   6.606  11.583  0.1590  0.1672  0.1178
 4399W        W 7918   7.831   9.594   1.512 -0.4873  0.3209  0.0593
 4400W        W 7919   5.541   6.602   1.318 -0.0355  0.2501  0.1279
 4401W        W 7920   9.316   6.567   2.503 -0.0508  0.1514  0.0139
 4402W        W 7921   9.658   3.980  11.367 -0.1311 -0.0973  0.0196
 4403W        W 7922   1.692   9.325   8.607 -0.0255 -0.0158  0.0081
 4404W        W 7923   7.999   1.569   1.991  0.1514 -0.1409  0.2014
 4405W        W 7924   5.549   5.232   3.855 -0.2972 -0.2650 -0.0442
 4406W        W 7925   1.491   4.250   9.056 -0.3392 -0.0659 -0.1196
 4407W        W 7926   5.827   1.399   3.389 -0.1753 -0.2273 -0.1271
 4408W        W 7927   0.627   0.663   1.464 -0.2189 -0.0369 -0.1461
 4409W        W 7928   7.496   7.861   9.461 -0.5578 -0.0706 -0.0534
 4410W        W 7929   6.924   1.358   0.112 -0.1879 -0.0960  0.0070
 4411W        W 7930   5.731   3.508   1.547  0.0220 -0.1622  0.0902
 4412W        W 7931   5.172   4.228  11.318 -0.1638  0.1408 -0.1340
 4413W        W 7932   7.035   0.752  10.127  0.1639  0.0057 -0.0261
 4414W        W 7933   2.071   8.730   8.185  0.1015  0.1395  0.4304
 4415W        W 7934   8.722   2.365   0.714  0.1120  0.3307 -0.2320
 4416W        W 7935   6.704   7.351   0.582  0.1588  0.0538 -0.0261
 4417W        W 7936   0.306   8.325   9.390 -0.2501  0.0850  0.1033
 4418W        W 7937   4.635   5.282   3.951  0.0368  0.1167 -0.4277
 4419W        W 7938   0.053   2.743   2.724 -0.0562  0.0564 -0.0498
 4420W        W 7939   9.186   7.293   3.283 -0.0414  0.1533  0.3147
 4421W        W 7940   9.321   4.687   0.220 -0.0902  0.0905  0.6323
 4422W        W 7941   0.464   6.054   9.734 -0.1027 -0.1597 -0.1621
 4423W        W 7942   2.276   6.617   1.452 -0.1048 -0.4013 -0.1079
 4424W        W 7943   5.318   5.504   2.690  0.4744 -0.1508 -0.0247
 4425W        W 7944   0.486   4.260   9.307 -0.0664  0.0703  0.1311
 4426W        W 7945   6.761   2.356  11.106  0.0191 -0.1996 -0.2421
 4427W        W 7946   0.280   8.587   2.244 -0.1920 -0.0011  0.2269
 4428W        W 7947   1.115   1.370   1.274 -0.0273  0.0501 -0.2209
 4429W        W 7948   2.874   1.675   9.753 -0.0219  0.2056  0.1469
 4430W        W 7949   7.988   2.801   3.315  0.0132 -0.4165 -0.3053
 4431W        W 7950   7.327   2.448  11.928 -0.2435 -0.2776 -0.0275
 4432W        W 7951   3.233   4.552   0.160 -0.3412 -0.1697  0.0878
 4433W        W 7952   9.119   7.837   3.840 -0.3317  0.1690 -0.3572
 4434W        W 7953   2.065   1.331   4.186 -0.0786  0.0009  0.0859
 4435W        W 7954   2.065   9.198   1.011  0.0517  0.0508 -0.2341
 4436W        W 7955   1.341   6.096   2.922  0.1596 -0.0900 -0.1285
 4437W        W 7956   1.351   5.860   9.374 -0.0016 -0.2156  0.1054
 4438W        W 7957   7.746   6.318  11.724  0.0920 -0.1258  0.0390
 4439W        W 7958   5.855   5.536  10.095  0.1308  0.1590 -0.0462
 4440W        W 7959   0.771   1.198   0.330  0.2081 -0.0991 -0.2284
 4441W        W 7960   5.565   5.833   1.701  0.2983  0.3815  0.1925
 4442W        W 7961   6.567   3.201   4.451 -0.0329 -0.0475  0.1761
 4443W        W 7962   5.558   8.745   1.738 -0.1492 -0.0512  0.1240
 4444W        W 7963   0.686   2.744   2.466 -0.0343 -0.2071  0.2042
 4445W        W 7964   3.588   2.854   0.107 -0.0006 -0.2888 -0.1767
 4446W        W 7965   5.464   4.361   4.381  0.1204  0.1081  0.0950
 4447W        W 7966   8.348   6.418   0.923 -0.0038  0.1962 -0.0836
 4448W        W 7967   9.427   5.584  10.205  0.4358  0.1824  0.0748
 4449W        W 7968   5.899   4.759   9.324 -0.0554  0.0543 -0.0001
 4450W        W 7969   6.886   2.851   0.710 -0.4244 -0.1034  0.0542
 4451W        W 7970   1.480   5.197  10.514 -0.5270  0.2426 -0.1382
 4452W        W 7971   3.882   8.466   3.351  0.2330  0.0303 -0.1036
 4453W        W 7972   5.055   7.124  10.882  0.2131  0.2821  0.2038
 4454W        W 7973   8.995   1.042   3.579 -0.0872 -0.0511  0.1799
 4455W        W 7974   4.412   0.264   9.118  0.2730 -0.1901 -0.2706
 4456W        W 7975   7.975   1.749  10.729 -0.1677  0.0603  0.0522
 4457W        W 7976   9.120   6.987   4.459 -0.0725 -0.0898 -0.2921
 4458W        W 7977   8.029   0.838  10.375 -0.2139 -0.0006 -0.2080
 4459W        W 7978   8.343   2.801  10.621 -0.0136  0.0524  0.0977
 4460W        W 7979   5.834   4.114   2.239  0.0724  0.1949  0.1918
 4461W        W 7980   5.114   4.047   3.846 -0.2778  0.2158 -0.2484
 4462W        W 7981   1.241   9.271   4.748 -0.0366 -0.1097  0.0744
 4463W        W 7982   7.727   2.342   8.682 -0.0292  0.1238 -0.1125
 4464W        W 7983   8.129   4.373  11.908 -0.1476  0.2820 -0.1929
 4465W        W 7984   2.702   8.254   0.346 -0.1363 -0.0176 -0.0075
 4466W        W 7985   3.098   9.660   0.243 -0.2033  0.4103  0.1246
 4467W        W 7986   1.182   1.963   4.265  0.1075 -0.2731  0.2224
 4468W        W 7987   3.169   1.838   9.389 -0.1070  0.0222  0.2882
 4469W        W 7988   0.684   1.006  10.079 -0.0634  0.1225  0.0301
 4470W        W 7989   3.968   3.761   9.018 -0.0380  0.2199  0.0982
 4471W        W 7990   2.556   4.036   9.272 -0.2410  0.1987 -0.2543
 4472W        W 7991   3.999   7.199   2.238 -0.1279 -0.2108 -0.2521
 4473W        W 7992   1.084   9.646  12.139 -0.0074 -0.0102 -0.2963
 4474W        W 7993   8.276   1.516   9.338  0.3035 -0.2125 -0.1524
 4475W        W 7994   1.242   2.414   0.436  0.0119  0.0330 -0.0126
 4476W        W 7995   6.305   6.426   9.745 -0.2813  0.0722  0.1299
 4477W        W 7996   7.030   9.357   2.177 -0.2091  0.2153 -0.1736
 4478W        W 7997   2.104   2.712  10.076  0.0047 -0.1158 -0.2932
 4479W        W 7998   3.384   3.112   2.472 -0.1288 -0.3653  0.0051
 4480W        W 7999   5.708   8.086  10.364  0.3632 -0.0757  0.1103
 4481W        W 8000   6.077   3.273  11.715  0.0985  0.0625 -0.2298
 4482W        W 8001   0.854   6.524   9.062  0.0922 -0.2962 -0.2933
 4483W        W 8002   5.889   0.587   0.006 -0.0673 -0.0187  0.0412
 4484W        W 8003   3.222   3.545  11.571  0.1631 -0.2241  0.0186
 4485W        W 8004   1.182   8.852   2.097  0.3572  0.0528 -0.1879
 4486W        W 8005   6.664   2.395   8.439 -0.1588 -0.0051 -0.3934
 4487W        W 8006   5.655   1.878  11.973 -0.1440 -0.0836 -0.2318
 4488W        W 8007   8.132   3.412   1.289  0.0223  0.1687 -0.0579
 4489W        W 8008   4.547   2.209   9.232 -0.1199 -0.0087 -0.0133
 4490W        W 8009   2.075   9.313  12.344  0.0680 -0.0529  0.2409
 4491W        W 8010   0.522   8.329   0.401 -0.3196  0.1786  0.0249
 4492W        W 8011   3.707   7.923   9.586 -0.3335  0.0570 -0.0256
 4493W        W 8012   2.198   7.297  12.294 -0.1108  0.1246  0.2369
 4494W        W 8013   7.053   7.557  11.517 -0.0982  0.2689  0.0487
 4495W        W 8014   4.123   7.511   9.275  0.0012 -0.2453 -0.2308
 4496W        W 8015   1.418   4.628   1.760  0.0138 -0.2178  0.1621
 4497W        W 8016   4.274   0.075   2.661  0.0331 -0.1692  0.3365
 4498W        W 8017   1.410   1.497   0.856 -0.0953  0.1456 -0.2554
 4499W        W 8018   6.200   4.315   1.897 -0.2061 -0.0091  0.3117
 4500W        W 8019   9.675   0.230  10.935 -0.2761  0.1308  0.1717
 4501W        W 8020   0.195   4.745  10.307  0.0468 -0.1823  0.2493
 4502W        W 8021   5.213   9.003  10.642 -0.2536 -0.3517  0.2024
 4503W        W 8022   5.758   4.121   1.127 -0.0780 -0.0850  0.3342
 4504W        W 8023   7.845   4.337   9.832 -0.0957 -0.0218  0.1344
 4505W        W 8024   1.533   9.148   1.712  0.0343  0.0546 -0.2486
 4506W        W 8025   8.354   2.780   1.330  0.2239  0.0811  0.1479
 4507W        W 8026   2.608   4.822   3.527 -0.0599 -0.0743 -0.2578
 4508W        W 8027   4.060   6.524   0.827  0.0820 -0.1548  0.1535
 4509W        W 8028   2.662   8.208   0.860 -0.1910  0.0970 -0.1909
 4510W        W 8029   8.018   3.258   9.831  0.0185 -0.1206  0.2640
 4511W        W 8030   3.861   5.456   2.254 -0.2883 -0.1020  0.2492
 4512W        W 8031   5.643   5.170  10.436  0.1430  0.2529  0.0641
 4513W        W 8032   0.209   7.971   9.833 -0.0444 -0.0704  0.0535
 4514W        W 8033   3.160   2.958  11.484  0.3560 -0.2691 -0.2519
 4515W        W 8034   7.522   3.972   1.866 -0.3993  0.1662 -0.1184
 4516W        W 8035   2.573   6.520  10.771 -0.2881 -0.2143 -0.0263
 4517W        W 8036   5.220   4.116   0.032  0.1695 -0.2342 -0.1706
 4518W        W 8037   0.735   9.355   1.821 -0.1474  0.1383 -0.0235
 4519W        W 8038   2.574   5.545  11.741 -0.3289 -0.0431  0.1288
 4520W        W 8039   6.706   0.584  12.202  0.0956  0.1957 -0.3572
 4521W        W 8040   4.621   1.095   8.822 -0.1770  0.0224 -0.2334
 4522W        W 8041   5.296   7.695  12.565 -0.2903 -0.2365  0.0863
 4523W        W 8042   8.155   1.408  11.736  0.0365 -0.1395  0.3745
 4524W        W 8043   0.067   8.706   4.889 -0.0875  0.3321 -0.0380
 4525W        W 8044   0.083   6.276   3.734  0.2136  0.0818  0.0591
 4526W        W 8045   8.570   7.985   3.605 -0.3666 -0.3112 -0.3073
 4527W        W 8046   0.503   0.447   0.041  0.2243  0.1157 -0.1475
 4528W        W 8047   6.054   5.813   9.785  0.2315 -0.1860 -0.1394
 4529W        W 8048   5.149   6.179   1.880  0.4516 -0.4839  0.0298
 4530W        W 8049   5.497   3.666  12.481 -0.2970 -0.0087 -0.2770
 4531W        W 8050   1.420   2.967   1.860  0.0905 -0.0291  0.2353
 4532W        W 8051   2.068   4.175   8.913  0.2740 -0.0373  0.0432
 4533W        W 8052   6.842   9.514   0.247 -0.0276 -0.0280  0.1051
 4534W        W 8053   0.396   2.337   2.500 -0.0042 -0.0869 -0.1554
 4535W        W 8054   4.609   4.918   2.772  0.0376 -0.3427  0.0197
 4536W        W 8055   0.072   3.212   0.671  0.1140  0.1009  0.0880
 4537W        W 8056   1.666   0.362   0.909 -0.3019 -0.1039 -0.0231
 4538W        W 8057   2.249   9.529   0.654  0.1313 -0.0007  0.3074
 4539W        W 8058   7.890   1.994   1.288  0.0041 -0.2807  0.0084
 4540W        W 8059   3.003   7.466   3.410 -0.2206 -0.1142 -0.0705
 4541W        W 8060   9.094   3.880   2.556 -0.0943 -0.1765  0.3114
 4542W        W 8061   2.313   5.447  12.188 -0.1663 -0.0412  0.0485
 4543W        W 8062   6.977   6.587  12.369  0.0599  0.0450 -0.2689
 4544W        W 8063   7.079   1.644   9.657  0.0579  0.2868  0.0956
 4545W        W 8064   7.707   8.336   3.158  0.0367 -0.0559 -0.1448
 4546W        W 8065   2.890   3.309   4.385 -0.0241 -0.2891 -0.0794
 4547W        W 8066   3.909   4.695   8.817  0.0821  0.4418  0.4295
 4548W        W 8067   2.816   2.438  11.324  0.0068  0.0135 -0.2108
 4549W        W 8068   1.795   7.040   2.625 -0.0890 -0.3390 -0.2516
 4550W        W 8069   0.425   1.468   4.163  0.1194 -0.1783 -0.1735
 4551W        W 8070   5.740   3.369  11.283  0.2994 -0.2457  0.0101
 4552W        W 8071   5.455   5.117   1.007  0.2342  0.1202  0.3435
 4553W        W 8072   1.868   3.694  11.623  0.1826  0.0066 -0.1317
 4554W        W 8073   5.863   7.681  10.186 -0.1022  0.0237 -0.0101
 4555W        W 8074   8.602   5.967   9.951  0.0451  0.0073 -0.1899
 4556W        W 8075   5.106   7.109   0.761  0.2752  0.0743  0.2956
 4557W        W 8076   2.131   0.630   3.432  0.0601  0.1167  0.0793
 4558W        W 8077   8.506   0.415   9.081 -0.1983  0.2552  0.0966
 4559W        W 8078   6.556   6.782   0.040 -0.0173  0.0694  0.1336
 4560W        W 8079   7.791   9.082   1.633  0.1531 -0.0032  0.5581
 4561W        W 8080   2.558   0.157  10.931  0.0298 -0.0609  0.2779
 4562W        W 8081   6.461   4.111   8.864 -0.0018 -0.1808 -0.1979
 4563W        W 8082   1.691   4.678   4.601 -0.0493  0.3707  0.0644
 4564W        W 8083   0.707   7.875   9.832 -0.1129  0.1378  0.0032
 4565W        W 8084   4.518   5.091   0.157  0.1205  0.1923  0.2068
 4566W        W 8085   9.040   3.544  11.390  0.0293  0.2476  0.1141
 4567W        W 8086   0.108   3.360   9.192 -0.0316  0.1421  0.3328
 4568W        W 8087   1.062   5.680   0.793  0.0332  0.4523 -0.5535
 4569W        W 8088   0.474   7.062  10.404 -0.2971 -0.1086  0.0668
 4570W        W 8089   7.995   7.561  11.679  0.1422 -0.0395  0.0627
 4571W        W 8090   2.743   4.813  12.188  0.1815 -0.3584 -0.1687
 4572W        W 8091   5.835   6.784  10.965 -0.2652  0.1548  0.1834
 4573W        W 8092   5.349   4.789   2.311  0.3653 -0.0817 -0.1158
 4574W        W 8093   4.525   0.803   9.230 -0.2993  0.1741 -0.2788
 4575W        W 8094   2.102   0.834   4.009  0.3954  0.2995  0.3212
 4576W        W 8095   8.707   8.763   2.343  0.0550 -0.0717  0.1965
 4577W        W 8096   9.541   7.405   0.375 -0.3297  0.0153  0.2086
 4578W        W 8097   9.673   1.480   2.311  0.4106 -0.0763 -0.0690
 4579W        W 8098   8.273   5.016  11.911 -0.0511  0.1101  0.0575
 4580W        W 8099   2.022   2.293  10.701  0.3409  0.1516 -0.0255
 4581W        W 8100   7.438   3.556   3.662  0.3382 -0.0655  0.0411
 4582W        W 8101   0.854   6.208  10.707  0.0851  0.0543 -0.3192
 4583W        W 8102   2.056   1.407   9.280  0.1413  0.0938 -0.0063
 4584W        W 8103   3.834   5.060   1.281 -0.1215  0.0560  0.0970
 4585W        W 8104   2.775   0.154  10.398 -0.0910  0.0707 -0.0636
 4586W        W 8105   0.121   7.732   9.192  0.1513  0.1375  0.2409
 4587W        W 8106   0.571   9.233   1.339 -0.1371  0.0725  0.1006
 4588W        W 8107   3.766   0.068   2.596 -0.0185  0.0186 -0.1778
 4589W        W 8108   0.311   6.007   2.722  0.2359 -0.5356 -0.3569
 4590W        W 8109   7.473   3.522  10.937  0.0231  0.0855 -0.3218
 4591W        W 8110   2.473   3.544   4.238  0.1064  0.0438 -0.0025
 4592W        W 8111   3.231   2.391  10.956 -0.0466 -0.1110  0.0113
 4593W        W 8112   1.756   4.581   8.554  0.0240  0.0902  0.0750
 4594W        W 8113   1.883   5.656   9.310 -0.1045 -0.0729 -0.0514
 4595W        W 8114   2.223   0.238   1.730 -0.0112 -0.1473 -0.0589
 4596W        W 8115   1.162   4.505   8.675 -0.0556 -0.2393 -0.1789
 4597W        W 8116   4.718   8.563  10.429  0.2754 -0.0973 -0.1116
 4598W        W 8117   1.335   1.199  11.902 -0.1287 -0.4246  0.4030
 4599W        W 8118   3.632   8.163  11.985 -0.0183  0.0801 -0.1839
 4600W        W 8119   0.085   8.047   0.500 -0.0518 -0.0394  0.1655
 4601W        W 8120   1.594   6.393   9.919 -0.1560 -0.1444  0.1902
 4602W        W 8121   8.404   0.589   1.346 -0.0140 -0.0712 -0.2471
 4603W        W 8122   9.107   5.108   2.901 -0.0098 -0.2825 -0.1431
 4604W        W 8123   2.490   9.706   1.302 -0.1419  0.0207  0.0001
 4605W        W 8124   4.074   2.790   1.849 -0.2124 -0.0143  0.0999
 4606W        W 8125   1.089   5.775   3.670 -0.1194 -0.1268 -0.3219
 4607W        W 8126   1.248   2.374   1.009 -0.0921  0.3216 -0.0140
 4608W        W 8127   2.314   0.115  12.242  0.0090  0.1267  0.1623
 4609W        W 8128   6.687   7.191   3.270 -0.2580 -0.1106  0.3205
 4610W        W 8129   1.942   2.196   9.818 -0.3024  0.3448 -0.1425
 4611W        W 8130   0.560   2.852   9.555  0.0883 -0.2197 -0.0199
 4612W        W 8131   4.002   5.603   4.481  0.4538 -0.0207 -0.6531
 4613W        W 8132   6.312   6.729  10.186 -0.0753  0.1560  0.1143
 4614W        W 8133   3.291   6.136   4.087  0.3505 -0.0883 -0.2547
 4615W        W 8134   4.428   6.703  11.526 -0.3746  0.0232  0.0027
 4616W        W 8135   6.413   7.913  12.179 -0.1134 -0.0776  0.1116
 4617W        W 8136   8.524   2.731   9.017  0.2244 -0.1416 -0.0821
 4618W        W 8137   0.415   6.036   0.700 -0.1274  0.0497  0.0258
 4619W        W 8138   5.364   4.599   0.384  0.3250 -0.3175  0.0668
 4620W        W 8139   9.207   2.399  10.491 -0.1514  0.0510  0.3361
 4621W        W 8140   2.729   3.248   1.093  0.0430 -0.1457 -0.0446
 4622W        W 8141   8.501   7.363  11.594  0.2238  0.0138  0.1021
 4623W        W 8142   2.432   3.635   3.735  0.1031  0.2233  0.2369
 4624W        W 8143   1.025   3.288   2.067  0.2185 -0.0377  0.1174
 4625W        W 8144   3.378   7.814  11.678  0.2407 -0.2533  0.1759
 4626W        W 8145   5.948   1.559   2.610  0.1723  0.0706  0.0539
 4627W        W 8146   8.596   3.594   8.583 -0.1244 -0.2492 -0.1149
 4628W        W 8147   8.900   7.134   1.017  0.1613 -0.1147 -0.2765
 4629W        W 8148   9.330   8.497  12.261  0.0676 -0.1054  0.3518
 4630W        W 8149   3.068   0.288  10.789 -0.0819  0.0206 -0.0432
 4631W        W 8150   2.851   0.453   2.110  0.2459 -0.2214  0.1643
 4632W        W 8151   2.277   4.722   8.919  0.1066  0.2779  0.2351
 4633W        W 8152   1.257   8.401   0.830 -0.0413  0.0114  0.1229
 4634W        W 8153   0.941   7.965   2.580 -0.1628 -0.2280  0.1780
 4635W        W 8154   7.930   1.229   2.574  0.1793 -0.0007 -0.1195
 4636W        W 8155   4.975   1.758   2.280  0.1752 -0.0685 -0.0331
 4637W        W 8156   4.147   1.884   1.042 -0.0617  0.1287 -0.2355
 4638W        W 8157   3.027   6.312  10.991 -0.1742  0.1906  0.0843
 4639W        W 8158   3.908   0.190   3.082 -0.3867  0.0067  0.2755
 4640W        W 8159   3.183   1.399   8.713  0.0950  0.0919  0.0263
 4641W        W 8160   5.151   9.260  11.842  0.0544 -0.2266 -0.0165
 4642W        W 8161   9.191   1.093   9.168 -0.1654  0.0878 -0.2024
 4643W        W 8162   1.557   9.588   3.706 -0.0957  0.0046  0.1376
 4644W        W 8163   4.802   1.829   9.276  0.2807  0.3728  0.0315
 4645W        W 8164   2.885   2.973   2.737 -0.0890 -0.0179  0.2059
 4646W        W 8165   8.462   9.331  10.277  0.0884 -0.1422  0.0203
 4647W        W 8166   5.638   9.067   0.898  0.0120  0.0455 -0.1271
 4648W        W 8167   4.314   7.572  12.291 -0.2338 -0.0381 -0.1447
 4649W        W 8168   2.228   1.384   0.622  0.2169 -0.0225  0.0911
 4650W        W 8169   0.787   4.564   1.827 -0.1503 -0.0995  0.0264
 4651W        W 8170   8.014   3.308   3.427  0.2894  0.1657  0.0288
 4652W        W 8171   1.291   6.942  10.307  0.3015 -0.2346  0.1931
 4653W        W 8172   3.001   3.264  10.322 -0.0953 -0.0634 -0.1646
 4654W        W 8173   2.141   1.222   3.213 -0.0073 -0.0021  0.2260
 4655W        W 8174   9.676   0.618   1.767 -0.1202  0.0714  0.3158
 4656W        W 8175   6.249   9.080   2.287  0.5428  0.3488  0.2063
 4657W        W 8176   9.703   9.448  11.073  0.1233 -0.1918 -0.1534
 4658W        W 8177   2.582   6.528   1.066  0.0614 -0.0501 -0.0704
 4659W        W 8178   0.171   6.793   1.479 -0.3111 -0.1932 -0.2410
 4660W        W 8179   2.273   0.969   0.220 -0.0362 -0.3271  0.2563
 4661W        W 8180   3.584   0.195  12.009  0.0069  0.1609  0.1412
 4662W        W 8181   4.105   3.494   2.972 -0.1164 -0.3831  0.1316
 4663W        W 8182   1.374   5.477  10.890  0.3096  0.1529 -0.1340
 4664W        W 8183   1.601   9.088   4.990 -0.0877 -0.1607  0.0248
 4665W        W 8184   0.151   1.589   0.507 -0.0542 -0.0887  0.0662
 4666W        W 8185   3.742   9.097   9.194  0.1096  0.3832 -0.0270
 4667W        W 8186   1.062   6.879  11.736  0.1912  0.1232  0.0081
 4668W        W 8187   0.898   2.800   1.907  0.1785 -0.3397  0.1938
 4669W        W 8188   3.229   3.177  12.453 -0.2187  0.3138 -0.0404
 4670W        W 8189   2.377   6.599   3.588 -0.0475 -0.3979 -0.0133
 4671W        W 8190   1.212   4.397   3.796 -0.5216 -0.3613  0.1373
 4672W        W 8191   3.564   1.083   2.596 -0.0463 -0.1328  0.3009
 4673W        W 8192   0.804   1.722   1.559 -0.1321  0.0373  0.2390
 4674W        W 8193   4.889   3.660   4.019 -0.1814  0.1441 -0.2328
 4675W        W 8194   2.820   4.383   2.154 -0.1159 -0.0264 -0.0761
 4676W        W 8195   3.837   9.530   3.540 -0.0368 -0.1159  0.0358
 4677W        W 8196   6.089   5.783   0.050  0.4654 -0.1870  0.1107
 4678W        W 8197   8.626   5.270   3.646  0.0956  0.1898 -0.3296
 4679W        W 8198   9.366   5.512   4.624 -0.2176 -0.0800  0.1071
 4680W        W 8199   7.763   5.379  11.170  0.1568 -0.0897 -0.1123
 4681W        W 8200   2.194   0.909  10.808 -0.0309  0.1368  0.0329
 4682W        W 8201   9.555   5.292  11.597 -0.0309  0.2380 -0.1099
 4683W        W 8202   2.259   8.597  11.277  0.3734  0.2777 -0.1042
 4684W        W 8203   2.700   5.703   2.639 -0.0387 -0.1327 -0.0558
 4685W        W 8204   1.528   0.560   1.389 -0.1205  0.1822 -0.1466
 4686W        W 8205   2.794   7.673   0.168 -0.2218 -0.0072 -0.0595
 4687W        W 8206   8.170   9.616  10.996 -0.1480 -0.3535  0.0989
 4688W        W 8207   1.522   6.241   1.441 -0.2079 -0.3620 -0.2140
 4689W        W 8208   8.340   6.729   2.834  0.3760  0.1487 -0.0584
 4690W        W 8209   7.040   0.591   0.423  0.2280 -0.0495  0.1068
 4691W        W 8210   9.473   3.967   2.197 -0.2660  0.1153 -0.0645
 4692W        W 8211   2.595   6.220   9.309 -0.0162  0.0268 -0.0117
 4693W        W 8212   3.008   5.125   2.691 -0.2218 -0.1761  0.1288
 4694W        W 8213   1.037   5.511  12.240  0.1255  0.1906  0.0341
 4695W        W 8214   4.185   6.886   1.767  0.1389 -0.0627 -0.0897
 4696W        W 8215   0.804   4.263  11.502  0.0163 -0.1212 -0.1117
 4697W        W 8216   4.251   5.886  10.829 -0.0337 -0.0650  0.0205
 4698W        W 8217   3.454   0.226   1.614 -0.0567 -0.3225 -0.0732
 4699W        W 8218   9.333   8.623   3.635 -0.0943 -0.1802  0.1519
 4700W        W 8219   7.556   4.331   2.849 -0.2301 -0.1579  0.0961
 4701W        W 8220   6.357   5.594  11.590  0.1594  0.0154  0.0737
 4702W        W 8221   3.225   2.567   3.760  0.3787 -0.1017 -0.2225
 4703W        W 8222   6.790   4.155  11.422  0.2046  0.2696  0.0379
 4704W        W 8223   7.620   7.478  10.467  0.1006 -0.0340  0.2328
 4705W        W 8224   9.707   8.751   0.048 -0.0044  0.2307 -0.0816
 4706W        W 8225   2.494   1.070   4.049 -0.4450 -0.1197 -0.1022
 4707W        W 8226   3.432   1.609   1.924 -0.0369  0.1709 -0.3330
 4708W        W 8227   2.220   0.903   9.385  0.1740  0.1471 -0.0973
 4709W        W 8228   3.728   9.029  11.427 -0.2582  0.2995 -0.0818
 4710W        W 8229   4.712   5.809  12.417 -0.3589 -0.0032 -0.4619
 4711W        W 8230   3.206   3.104  11.950  0.1836  0.3501  0.0307
 4712W        W 8231   7.877   5.637  12.147  0.2832  0.0910 -0.0377
 4713W        W 8232   2.479   6.819   3.999 -0.3313 -0.1005 -0.1535
 4714W        W 8233   0.856   8.063  10.276  0.0038  0.0334  0.2226
 4715W        W 8234   8.906   2.860   9.978  0.3570  0.1444  0.1244
 4716W        W 8235   7.748   6.337   3.429 -0.1032  0.0032 -0.1674
 4717W        W 8236   8.639   1.503  10.404  0.1108  0.0611 -0.1330
 4718W        W 8237   3.619   0.637  12.406 -0.0027  0.0437  0.0676
 4719W        W 8238   6.771   6.724   2.371 -0.1755 -0.1853 -0.1197
 4720W        W 8239   6.407   8.065  10.889  0.1955  0.1094  0.1501
 4721W        W 8240   0.234   0.668  11.292  0.2534 -0.1891 -0.3806
 4722W        W 8241   1.752   1.883  10.708  0.1248 -0.2337 -0.2821
 4723W        W 8242   9.443   4.967   8.892  0.0810 -0.1126 -0.1602
 4724W        W 8243   1.183   8.417   0.232  0.0070  0.2302  0.0023
 4725W        W 8244   4.233   3.023   2.888 -0.0682 -0.0176 -0.1372
 4726W        W 8245   0.616   5.538   3.472 -0.1744 -0.0578  0.1010
 4727W        W 8246   2.297   7.946   1.624 -0.1935 -0.0482  0.0459
 4728W        W 8247   4.560   6.243   3.715 -0.0200  0.1185 -0.1548
 4729W        W 8248   6.572   1.944  10.829  0.5092 -0.0424  0.1713
 4730W        W 8249   3.894   1.422   2.804 -0.1434  0.0966 -0.1168
 4731W        W 8250   6.909   2.801   3.465 -0.1981 -0.0484  0.2511
 4732W        W 8251   0.719   4.412  11.016  0.0358 -0.2435 -0.2409
 4733W        W 8252   8.999   5.337  10.428  0.1838 -0.1643  0.1210
 4734W        W 8253   8.869   3.829   1.645  0.1409  0.1376  0.0691
 4735W        W 8254   3.303   4.185  10.986 -0.0976  0.0989 -0.2339
 4736W        W 8255   2.739   7.582   9.114 -0.0723 -0.1244  0.0824
 4737W        W 8256   5.000   4.027  10.386  0.4593  0.1260  0.1464
 4738W        W 8257   1.342   4.738  12.556 -0.4977 -0.1084 -0.1616
 4739W        W 8258   1.724   2.408   3.709 -0.1717 -0.1438 -0.2548
 4740W        W 8259   3.735   4.904   0.795  0.0206  0.0398  0.0515
 4741W        W 8260   0.088   2.504   0.220  0.1047  0.3023  0.1227
 4742W        W 8261   7.727   6.196  12.215  0.1828 -0.1926  0.1497
 4743W        W 8262   6.228   5.180   2.385 -0.0035  0.4307  0.5155
 4744W        W 8263   2.617   1.027   1.329 -0.1762  0.3701 -0.1045
 4745W        W 8264   4.788   0.177  11.814 -0.1406 -0.2079 -0.0385
 4746W        W 8265   1.508   4.051   0.460  0.0015  0.0085 -0.1898
 4747W        W 8266   2.321   7.636   8.926 -0.3468 -0.0346  0.1271
 4748W        W 8267   8.123   1.732   3.757 -0.0232 -0.0211 -0.0540
 4749W        W 8268   1.618   5.789   2.414  0.1255 -0.0554  0.2396
 4750W        W 8269   4.476   3.702  10.846 -0.1829 -0.1303 -0.1328
 4751W        W 8270   9.704   9.383   2.964  0.0284 -0.1190 -0.2827
 4752W        W 8271   4.491   2.075   8.758 -0.0498 -0.1561  0.2198
 4753W        W 8272   4.829   5.544   8.309 -0.2748 -0.1882 -0.1513
 4754W        W 8273   2.023   7.038   1.667 -0.4046 -0.1683  0.2993
 4755W        W 8274   0.562   4.765  11.408 -0.1218  0.1520  0.2160
 4756W        W 8275   9.271   0.857   2.789  0.1561 -0.1543  0.1209
 4757W        W 8276   2.968   0.594  11.762 -0.1070 -0.1674 -0.1138
 4758W        W 8277   8.067   7.043   9.767  0.0896 -0.0395 -0.1199
 4759W        W 8278   6.608   8.101   2.550  0.0757 -0.0111  0.0438
 4760W        W 8279   2.928   8.880  11.853 -0.4568  0.1815 -0.0466
 4761W        W 8280   7.268   6.348  11.211  0.0589  0.0926  0.0618
 4762W        W 8281   2.222   8.565   9.110  0.1407 -0.1807 -0.1853
 4763W        W 8282   9.305   6.248   3.234 -0.1145  0.1637 -0.0352
 4764W        W 8283   0.010   9.678  10.054 -0.0136  0.3887  0.2005
 4765W        W 8284   9.226   1.146   2.404 -0.1564  0.1857  0.0050
 4766W        W 8285   5.717   8.737   9.222 -0.5268  0.0992  0.2504
 4767W        W 8286   1.341   9.074   8.974  0.1093 -0.1622  0.1626
 4768W        W 8287   0.383   7.354   0.242 -0.0041 -0.0084  0.1544
 4769W        W 8288   4.550   4.934   0.833 -0.0307  0.2887 -0.1157
 4770W        W 8289   2.502   3.324   9.479 -0.1473 -0.0873 -0.4127
 4771W        W 8290   2.894   6.193  11.889  0.0305  0.0257 -0.2153
 4772W        W 8291   3.317   5.021   4.217  0.1866 -0.1398 -0.3605
 4773W        W 8292   6.752   5.223  11.548 -0.1597 -0.4500 -0.0928
 4774W        W 8293   5.727   0.202  12.221  0.0722 -0.0505 -0.2638
 4775W        W 8294   5.969   9.584   8.671  0.1527  0.1327  0.3671
 4776W        W 8295   3.693   6.027   0.802 -0.2047 -0.2379 -0.2332
 4777W        W 8296   7.005   5.643  12.315 -0.2370 -0.0115 -0.2758
 4778W        W 8297   9.081   4.293   0.470 -0.0212  0.0356 -0.3880
 4779W        W 8298   5.667   6.912   5.348 -0.5249 -0.1490  0.1181
 4780W        W 8299   9.396   0.491  12.505 -0.1694 -0.3920  0.0506
 4781W        W 8300   4.061   9.198   2.660  0.1804 -0.0218  0.0812
 4782W        W 8301   2.344   6.999   1.157 -0.2164 -0.2335 -0.1187
 4783W        W 8302   0.610   1.187   3.198 -0.0080  0.0649  0.1486
 4784W        W 8303   2.682   3.002   3.179 -0.4413 -0.0612  0.3097
 4785W        W 8304   5.626   7.362   0.810  0.2102  0.0989  0.0754
 4786W        W 8305   0.693   9.527  11.131  0.2270  0.1047 -0.0201
 4787W        W 8306   2.808   6.940   1.312  0.0739  0.1107 -0.0676
 4788W        W 8307   3.621   8.485   1.079  0.3081  0.1468  0.2212
 4789W        W 8308   9.629   6.355   1.549  0.0782  0.3165 -0.0807
 4790W        W 8309   2.274   2.457   0.254  0.0542 -0.0443  0.0072
 4791W        W 8310   2.307   4.758   4.373 -0.0116 -0.3169 -0.1487
 4792W        W 8311   6.562   1.584  10.529 -0.2300  0.0984 -0.0135
 4793W        W 8312   2.632   5.432   1.607  0.0564 -0.0671 -0.0308
 4794W        W 8313   7.063   0.392  11.868  0.0893 -0.0022 -0.0448
 4795W        W 8314   5.142   5.883   1.488 -0.1841  0.3260 -0.0695
 4796W        W 8315   3.814   2.048   2.274  0.2920  0.4418 -0.2212
 4797W        W 8316   3.749   6.952   9.710 -0.0914 -0.0986 -0.1858
 4798W        W 8317   3.453   2.144   3.074  0.2214 -0.1328 -0.0746
 4799W        W 8318   2.857   3.334  11.364 -0.0744  0.4333 -0.0291
 4800W        W 8319   7.421   5.547   9.708 -0.1006  0.0492 -0.1446
 4801W        W 8320   7.256   8.556   2.299  0.0296  0.2662  0.4648
 4802W        W 8321   7.099   8.512   0.893 -0.0860  0.1775  0.0490
 4803W        W 8322   1.902   0.696  12.486 -0.2051 -0.0148  0.3522
 4804W        W 8323   4.239   4.125  12.218 -0.1360  0.2096  0.1202
 4805W        W 8324   1.147   2.013   2.535 -0.0891 -0.3048  0.3501
 4806W        W 8325   9.216   8.756   0.399 -0.2867 -0.1287  0.0476
 4807W        W 8326   0.469   3.825   0.399  0.3586  0.2161  0.0082
 4808W        W 8327   9.162   4.563   8.800  0.0733  0.4374 -0.2142
 4809W        W 8328   7.633   4.607   2.115 -0.0486 -0.0359  0.0089
 4810W        W 8329   9.495   5.042   0.512  0.1501  0.0082  0.1597
 4811W        W 8330   1.982   4.334  11.774 -0.0077  0.2765  0.2642
 4812W        W 8331   3.211   1.680  10.317  0.0895  0.0382  0.1110
 4813W        W 8332   2.745   2.460   1.397  0.0521 -0.1556 -0.0417
 4814W        W 8333   9.289   2.710   1.376 -0.2069  0.1194  0.0692
 4815W        W 8334   5.958   1.900   3.624  0.2127  0.0300 -0.0850
 4816W        W 8335   9.325   0.691  11.582 -0.1597 -0.2964  0.1232
 4817W        W 8336   8.687   7.748   8.401  0.2137  0.1415 -0.1035
 4818W        W 8337   2.039   9.648   9.369  0.3598  0.2608  0.1642
 4819W        W 8338   8.277   5.323   1.133 -0.0828  0.2190 -0.0369
 4820W        W 8339   5.441   2.378   9.733  0.3114  0.2387 -0.1043
 4821W        W 8340   7.252   7.811  10.506  0.0969  0.0785  0.2546
 4822W        W 8341   4.631   3.154   0.099 -0.2303 -0.0653 -0.1703
 4823W        W 8342   9.235   5.468   8.721  0.2071  0.2810 -0.0888
 4824W        W 8343   3.074   8.341  11.990 -0.1939  0.0798  0.1132
 4825W        W 8344   1.086   6.535   1.280 -0.6179  0.1464  0.2714
 4826W        W 8345   1.152   0.898   1.500 -0.2286  0.0666  0.0355
 4827W        W 8346   3.295   5.763   1.054 -0.0538  0.3244 -0.1810
 4828W        W 8347   0.623   4.668  10.616 -0.2750  0.0267  0.0140
 4829W        W 8348   8.181   1.826  12.165 -0.3131  0.1232 -0.0245
 4830W        W 8349   4.692   6.182   9.383  0.1257 -0.0351  0.0916
 4831W        W 8350   4.658   3.558   0.365 -0.4573 -0.2605  0.1351
 4832W        W 8351   7.907   4.368   4.069  0.1240 -0.2791 -0.0531
 4833W        W 8352   7.557   3.081   3.486  0.0713  0.0490  0.2379
 4834W        W 8353   5.797   9.499   1.208 -0.0475  0.2796 -0.0406
 4835W        W 8354   6.556   4.203   9.353 -0.0279  0.1845 -0.3837
 4836W        W 8355   1.191   3.832   2.953 -0.2518 -0.0924  0.1099
 4837W        W 8356   7.929   3.457  11.255 -0.0450 -0.4299  0.1680
 4838W        W 8357   7.159   4.245  10.404  0.1274  0.0577  0.1980
 4839W        W 8358   7.658   8.704  11.118 -0.1139 -0.3436  0.2681
 4840W        W 8359   3.176   7.156  10.889 -0.3184  0.2142 -0.0572
 4841W        W 8360   1.314   2.787  10.219  0.2674  0.0679  0.1117
 4842W        W 8361   3.648   5.774   4.213 -0.1550  0.1905 -0.0290
 4843W        W 8362   0.391   4.474   2.168 -0.0118 -0.1873 -0.2069
 4844W        W 8363   3.734   6.342   2.485  0.1541 -0.0465  0.1753
 4845W        W 8364   3.670   4.554  10.752 -0.0878 -0.1328 -0.1817
 4846W        W 8365   5.777   9.500   2.225  0.1508  0.0396 -0.1246
 4847W        W 8366   8.886   5.805  10.689 -0.2125 -0.2824  0.1148
 4848W        W 8367   0.534   1.682   2.471  0.0561  0.1597 -0.3405
 4849W        W 8368   4.176   7.038   0.864  0.3832 -0.0346  0.1135
 4850W        W 8369   6.244   1.855  10.248  0.1122  0.2774  0.0056
 4851W        W 8370   8.611   5.472  11.517 -0.1337  0.0912  0.2426
 4852W        W 8371   9.229   8.395   8.929 -0.0637  0.0275 -0.0554
 4853W        W 8372   2.797   6.413   0.505  0.0244 -0.1835 -0.1021
 4854W        W 8373   6.266   6.012  11.326  0.0962  0.0576 -0.1097
 4855W        W 8374   8.536   7.627   4.025 -0.0753 -0.0888  0.1005
 4856W        W 8375   9.604   3.435   1.499  0.1285  0.2449 -0.2120
 4857W        W 8376   8.650   5.441   9.976  0.0112 -0.1689 -0.1992
 4858W        W 8377   1.132   7.830   3.436  0.0207  0.1082 -0.0907
 4859W        W 8378   3.287   2.066   2.207 -0.1521  0.3155  0.0416
 4860W        W 8379   1.489   0.851   1.877 -0.0923 -0.0960 -0.0236
 4861W        W 8380   1.472   2.110   9.615  0.1758 -0.0885 -0.1108
 4862W        W 8381   9.372   5.005   9.590  0.2395  0.4159 -0.3851
 4863W        W 8382   0.919   0.730   1.915  0.3455 -0.0187 -0.0700
 4864W        W 8383   3.438   0.935   3.530  0.1313  0.2037 -0.0797
 4865W        W 8384   3.698   0.456   1.207 -0.2845  0.2812 -0.1644
 4866W        W 8385   0.229   3.831   9.164 -0.1286  0.3647  0.0423
 4867W        W 8386   2.150   1.185   1.384  0.1382  0.0405 -0.1975
 4868W        W 8387   8.903   9.434  10.102  0.0008 -0.1299 -0.1637
 4869W        W 8388   2.372   5.967  12.040  0.1688 -0.4188 -0.2212
 4870W        W 8389   2.802   0.097   3.431 -0.4867 -0.1432  0.3355
 4871W        W 8390   8.285   1.610   1.258  0.2234 -0.1881  0.0202
 4872W        W 8391   6.645   5.516  11.124  0.2270  0.1530 -0.0167
 4873W        W 8392   7.437   0.461   0.637  0.0624  0.0080 -0.2358
 4874W        W 8393   0.249   6.695   9.399 -0.2218  0.0623 -0.0165
 4875W        W 8394   0.547   5.558   0.879  0.1266  0.0031  0.0622
 4876W        W 8395   0.763   4.726   3.933  0.4077  0.0004  0.0216
 4877W        W 8396   3.584   6.567  10.650 -0.0428 -0.0642  0.0959
 4878W        W 8397   9.136   0.895   1.916  0.2229 -0.1797  0.0071
 4879W        W 8398   6.519   7.465   2.830 -0.1426  0.1249  0.5419
 4880W        W 8399   7.406   4.805   2.981  0.0554  0.0190 -0.1763
 4881W        W 8400   7.664   3.444   0.266 -0.1298  0.0411 -0.1086
 4882W        W 8401   1.146   4.845  10.380  0.0002 -0.0896  0.1606
 4883W        W 8402   3.039   2.520  10.052  0.0439  0.0741  0.2640
 4884W        W 8403   3.420   6.442   2.099  0.1685 -0.0715  0.0348
 4885W        W 8404   5.953   7.628   0.324  0.2702 -0.2374 -0.2287
 4886W        W 8405   9.023   2.878   9.027 -0.1821  0.1310  0.0992
 4887W        W 8406   1.207   8.874   4.420 -0.1427  0.2184  0.1503
 4888W        W 8407   5.176   0.952  10.603  0.1460 -0.2354  0.0851
 4889W        W 8408   4.161   0.371   0.984  0.5733 -0.0576 -0.2188
 4890W        W 8409   5.271   8.361  11.399 -0.0474 -0.1372  0.0450
 4891W        W 8410   2.260   7.448   0.186  0.0063 -0.2616 -0.1082
 4892W        W 8411   7.378   0.709  11.532 -0.0137 -0.2380 -0.1928
 4893W        W 8412   2.869   7.937  11.690  0.0994 -0.0905  0.0845
 4894W        W 8413   8.860   6.632   2.916  0.1885 -0.0363 -0.1542
 4895W        W 8414   4.342   1.165  10.139 -0.1187  0.1068  0.0473
 4896W        W 8415   1.866   6.140   3.084 -0.0260  0.0765 -0.2100
 4897W        W 8416   8.937   7.745   3.378 -0.0434 -0.2326 -0.0213
 4898W        W 8417   1.605   3.405   0.289  0.1102  0.1755 -0.1337
 4899W        W 8418   3.441   9.433  11.448  0.0288 -0.0078 -0.1140
 4900W        W 8419   7.298   6.077   3.382 -0.1449 -0.0894 -0.1755
 4901W        W 8420   8.403   2.374   4.524 -0.0934 -0.2347 -0.1667
 4902W        W 8421   0.406   8.437  11.809  0.1223  0.2956  0.0444
 4903W        W 8422   3.610   7.745   2.393  0.2628  0.1333  0.0857
 4904W        W 8423   3.772   1.302  10.071 -0.0718 -0.1103 -0.0386
 4905W        W 8424   6.804   8.799   3.079  0.3637  0.1370  0.1903
 4906W        W 8425   3.236   4.700  10.075 -0.0873 -0.1052 -0.0423
 4907W        W 8426   5.544   8.109  10.955  0.0419  0.0966  0.3175
 4908W        W 8427   0.251   2.709   4.708  0.0318 -0.1514 -0.2874
 4909W        W 8428   8.406   0.262   9.524  0.0988 -0.0142  0.0491
 4910W        W 8429   1.309   0.585   9.592  0.0114 -0.0551 -0.1400
 4911W        W 8430   2.976   6.974   1.910  0.1765  0.3776  0.1761
 4912W        W 8431   5.747   5.959   1.269  0.1825  0.1449 -0.0935
 4913W        W 8432   0.883   1.445   0.771  0.1449 -0.0648 -0.1092
 4914W        W 8433   9.621   8.195  10.373  0.0195 -0.1398  0.0650
 4915W        W 8434   5.541   6.525   2.801 -0.0625  0.0319  0.0493
 4916W        W 8435   8.108   3.967  11.508 -0.0295  0.1841  0.0185
 4917W        W 8436   3.347   8.379   3.197 -0.2098 -0.1076 -0.0431
 4918W        W 8437   5.807   6.208  12.492  0.2796  0.2065  0.0416
 4919W        W 8438   5.899   0.789  10.120 -0.2159  0.2054  0.5773
 4920W        W 8439   1.893   7.806   9.341 -0.2982 -0.1949 -0.0466
 4921W        W 8440   5.343   0.535   7.680 -0.3683  0.0671 -0.2261
 4922W        W 8441   1.381   9.171   4.000  0.3048  0.1222 -0.2440
 4923W        W 8442   3.770   3.455   2.576 -0.1888  0.0865  0.2143
 4924W        W 8443   3.660   1.956  11.670 -0.3126  0.1137 -0.3321
 4925W        W 8444   3.746   8.897  10.420  0.2373  0.1009 -0.3390
 4926W        W 8445   7.063   8.101  11.408  0.1285  0.1005 -0.0336
 4927W        W 8446   7.755   8.834   4.348 -0.2655  0.4181 -0.0682
 4928W        W 8447   0.482   1.677   0.969  0.1470 -0.1057 -0.0792
 4929W        W 8448   9.428   3.303  11.094  0.0766  0.1976  0.3203
 4930W        W 8449   7.922   2.349   2.252  0.1986  0.0646 -0.1042
 4931W        W 8450   4.410   4.319   0.039  0.1291  0.2333  0.1677
 4932W        W 8451   7.702   0.069  11.127  0.1549 -0.0525  0.0864
 4933W        W 8452   3.493   7.667   2.949  0.3553 -0.0207 -0.0173
 4934W        W 8453   6.323   0.409   2.874  0.0413  0.0473  0.0126
 4935W        W 8454   1.645   5.645   2.944 -0.0145 -0.1432  0.2262
 4936W        W 8455   1.937   5.805   9.791 -0.0981 -0.0174 -0.1687
 4937W        W 8456   6.222   4.671  10.989  0.1866  0.3629 -0.0419
 4938W        W 8457   6.943   6.072  10.546  0.0634 -0.1136  0.0072
 4939W        W 8458   0.971   4.861  11.105  0.5000 -0.0256 -0.2160
 4940W        W 8459   2.377   0.116   3.150 -0.2940  0.0002 -0.1200
 4941W        W 8460   7.774   7.302  12.128  0.1229 -0.2538  0.1911
 4942W        W 8461   4.367   3.979   3.105 -0.2130 -0.4608 -0.3347
 4943W        W 8462   7.072   1.507   1.562 -0.3939  0.0492 -0.2166
 4944W        W 8463   4.828   2.989   0.582 -0.0331  0.0943 -0.3114
 4945W        W 8464   1.275   5.885   4.690 -0.0909 -0.0605  0.0387
 4946W        W 8465   0.888   5.783   8.742 -0.0021  0.0619  0.5287
 4947W        W 8466   2.965   9.175  11.001  0.0817  0.1107 -0.3641
 4948W        W 8467   3.412   6.353   1.235 -0.2395  0.2809 -0.0274
 4949W        W 8468   9.622   5.140   2.772  0.1356 -0.2971 -0.1186
 4950W        W 8469   5.624   5.833   9.237  0.1281  0.1657  0.2280
 4951W        W 8470   5.251   2.561   4.408  0.0156  0.0379 -0.1786
 4952W        W 8471   2.506   1.023   3.521 -0.1101  0.1076 -0.1006
 4953W        W 8472   1.860   9.617  10.136 -0.0184 -0.3408 -0.1003
 4954W        W 8473   0.439   2.847   0.422  0.1056  0.0743 -0.1303
 4955W        W 8474   1.120   3.329   0.213 -0.1171  0.1136  0.1240
 4956W        W 8475   6.557   7.532  11.625 -0.1282 -0.2617  0.1008
 4957W        W 8476   1.761   1.828   8.744 -0.1675  0.3394 -0.0182
 4958W        W 8477   3.156   6.199   1.725  0.4058 -0.2344 -0.0011
 4959W        W 8478   8.202   2.721  11.172  0.3025 -0.0958  0.1076
 4960W        W 8479   6.496   8.563   0.094  0.1158  0.0174  0.0610
 4961W        W 8480   0.977   0.979   1.015  0.1560 -0.0212 -0.0772
 4962W        W 8481   2.843   4.613   1.302  0.1082  0.1110 -0.1051
 4963W        W 8482   1.070   2.227  11.038  0.0714 -0.1032  0.4976
 4964W        W 8483   5.302   7.655   1.055  0.2439 -0.1711 -0.2140
 4965W        W 8484   6.909   2.306   0.282 -0.0112 -0.2077  0.2292
 4966W        W 8485   3.710   1.895  12.537  0.1416 -0.1398 -0.0887
 4967W        W 8486   4.945   9.566  10.081  0.0288  0.0940 -0.0297
 4968W        W 8487   0.704   9.318  12.208 -0.1221  0.1130  0.1169
 4969W        W 8488   3.524   3.402   8.587 -0.1310  0.0786 -0.0629
 4970W        W 8489   1.388   9.594   0.779  0.2471 -0.1082  0.1028
 4971W        W 8490   7.981   6.249  10.087 -0.1414 -0.4626  0.5011
 4972W        W 8491   3.931   3.479  11.342  0.0994  0.0974 -0.1932
 4973W        W 8492   8.934   6.768   3.485 -0.0546  0.0434 -0.0436
 4974W        W 8493   7.460   8.276  11.639  0.0452  0.1145 -0.3511
 4975W        W 8494   8.911   3.716   1.119 -0.0074 -0.2434 -0.0125
 4976W        W 8495   0.479   1.947   9.628  0.1554 -0.0532  0.1746
 4977W        W 8496   7.027   3.458   2.329  0.1555  0.0088 -0.0998
 4978W        W 8497   0.282   1.974   0.040  0.1819  0.1587  0.0749
 4979W        W 8498   2.046   6.050   9.094  0.1079 -0.0170 -0.1258
 4980W        W 8499   8.624   8.664   0.091 -0.0721  0.0386 -0.1936
 4981W        W 8500   8.890   8.733   3.465  0.0009  0.1547  0.3961
 4982W        W 8501   1.982   2.873  11.819  0.3995  0.0499 -0.0311
 4983W        W 8502   4.802   5.446   2.540  0.1397 -0.1922  0.0196
 4984W        W 8503   4.955   3.862   9.924  0.0643 -0.3716  0.1882
 4985W        W 8504   5.138   2.834   3.198 -0.0935  0.3149 -0.3149
 4986W        W 8505   8.887   8.400  11.966  0.0938  0.0285  0.1259
 4987W        W 8506   6.222   2.962  12.096 -0.0573 -0.1035 -0.1561
 4988W        W 8507   3.011   3.573   8.726  0.3422 -0.4466  0.0826
 4989W        W 8508   5.502   3.427   0.835  0.3242 -0.0151 -0.0328
 4990W        W 8509   8.418   8.832  10.344  0.2391 -0.4176  0.2799
 4991W        W 8510   3.545   7.816   4.016  0.0481 -0.0743 -0.0875
 4992W        W 8511   8.110   6.632   8.731 -0.3479  0.0310 -0.3330
 4993W        W 8512   1.788   3.657  12.198 -0.0735  0.1293 -0.1500
 4994W        W 8513   1.192   4.767   0.963 -0.0051  0.0439 -0.0983
 4995W        W 8514   9.097   4.708  11.351  0.2752  0.0869 -0.3616
 4996W        W 8515   3.758   6.412  11.523 -0.1612 -0.2273  0.1245
 4997W        W 8516   4.347   3.336  11.167  0.1405 -0.1780  0.2887
 4998W        W 8517   5.995   6.772   2.767 -0.2346 -0.1117  0.1824
 4999W        W 8518   3.201   3.407   2.066  0.1824  0.0011  0.0209
 5000W        W 8519   8.796   9.006   0.362  0.0910 -0.0357  0.1829
 5001W        W 8520   8.852   7.623   8.825 -0.0529  0.1385  0.0136
 5002W        W 8521   3.335   0.517   4.179 -0.2230  0.2789  0.0913
 5003W        W 8522   4.533   7.748   2.897  0.2108 -0.0118  0.0692
 5004W        W 8523   7.085   2.993   3.034  0.2525 -0.3073  0.0452
 5005W        W 8524   3.422   1.495   9.660 -0.2089 -0.1466  0.1890
 5006W        W 8525   4.204   3.777   4.615  0.2488 -0.1450 -0.0919
 5007W        W 8526   7.025   2.817   8.464  0.0701  0.0453  0.2074
 5008W        W 8527   3.773   0.745   7.987 -0.1693 -0.2251  0.1781
 5009W        W 8528   0.928   4.938   8.597 -0.1075 -0.2756 -0.2325
 5010W        W 8529   7.377   8.633   9.870 -0.0802  0.1072  0.1252
 5011W        W 8530   9.093   4.312  11.065  0.1304  0.2884  0.1849
 5012W        W 8531   1.917   0.815   1.205 -0.1274  0.1467  0.1635
 5013W        W 8532   5.263   2.813  10.754  0.0690 -0.0188 -0.3286
 5014W        W 8533   8.292   2.517   9.426 -0.5468 -0.2532  0.2219
 5015W        W 8534   8.264   5.655   3.992  0.1324 -0.0377  0.1978
 5016W        W 8535   1.515   0.462   0.083 -0.0756 -0.0527 -0.2394
 5017W        W 8536   1.862   9.673   3.286  0.1578 -0.1184  0.0913
 5018W        W 8537   3.792   1.893   8.787 -0.0372  0.0327 -0.0663
 5019W        W 8538   7.288   4.494   8.893 -0.2496  0.1904  0.1563
 5020W        W 8539   4.192   2.337   2.141 -0.0710  0.1063  0.0883
 5021W        W 8540   7.585   7.175   9.979  0.1932 -0.2277  0.2976
 5022W        W 8541   2.235   4.860   0.359 -0.3545  0.1970  0.1090
 5023W        W 8542   3.940   8.828  10.002  0.0360 -0.1237 -0.0392
 5024W        W 8543   1.947   5.639  11.863 -0.1210 -0.0938 -0.2807
 5025W        W 8544   6.537   1.062  11.289 -0.0313  0.2657 -0.1408
 5026W        W 8545   8.998   7.927   9.646 -0.1429  0.2366  0.0443
 5027W        W 8546   1.565   0.147   8.506 -0.4205  0.0040  0.0267
 5028W        W 8547   0.645   6.302  11.747 -0.2815 -0.2704 -0.0749
 5029W        W 8548   9.270   3.761  10.993 -0.3380  0.4188 -0.1046
 5030W        W 8549   5.093   2.844  11.371  0.2348  0.3676  0.3770
 5031W        W 8550   9.315   0.710   3.349 -0.0254  0.0821 -0.0198
 5032W        W 8551   1.725   3.919   1.161 -0.1684 -0.3597 -0.0159
 5033W        W 8552   5.915   3.426  10.024  0.0261 -0.0569  0.2492
 5034W        W 8553   1.524   6.689  11.547  0.1196  0.0337 -0.0059
 5035W        W 8554   0.232   4.946   8.858  0.2339  0.0536  0.0658
 5036W        W 8555   9.578   6.454  10.743 -0.2173  0.4759 -0.0606
 5037W        W 8556   6.877   0.980   1.675  0.0245 -0.0324  0.1144
 5038W        W 8557   3.118   9.315   8.569 -0.1250  0.1998 -0.1668
 5039W        W 8558   4.092   6.372  10.173 -0.1040 -0.1012  0.4858
 5040W        W 8559   2.322   4.389   0.543  0.0402 -0.0059  0.2328
 5041W        W 8560   8.414   5.058   2.137 -0.0306 -0.0454 -0.1272
 5042W        W 8561   0.819   7.410   8.760  0.2551 -0.0340 -0.0714
 5043W        W 8562   8.979   5.766   2.228  0.0156  0.0831 -0.1945
 5044W        W 8563   7.156   6.080  11.605  0.1932  0.2475  0.2172
 5045W        W 8564   8.250   2.189   9.010  0.1889 -0.3469 -0.2228
 5046W        W 8565   4.600   1.111   1.677 -0.2364  0.1782  0.1463
 5047W        W 8566   7.843   7.213  11.389 -0.3813 -0.1119 -0.1433
 5048W        W 8567   8.716   9.208   8.925 -0.3078  0.0987  0.0487
 5049W        W 8568   4.098   5.294  10.132 -0.0065  0.0006  0.2224
 5050W        W 8569   4.849   5.166  11.098  0.0916 -0.1641 -0.2320
 5051W        W 8570   8.759   8.888   3.952  0.2825  0.3017  0.0439
 5052W        W 8571   6.489   4.886   9.285  0.1315 -0.2293 -0.1210
 5053W        W 8572   3.209   2.688   1.284 -0.0363 -0.1777 -0.0230
 5054W        W 8573   9.625   3.883   3.870 -0.3766  0.0303 -0.0717
 5055W        W 8574   7.062   5.818   0.752  0.0256 -0.2549 -0.0648
 5056W        W 8575   6.081   7.204  10.067 -0.0664 -0.2412  0.2280
 5057W        W 8576   5.461   4.621   2.914 -0.2637 -0.0576  0.1545
 5058W        W 8577   3.656   5.874   2.972 -0.1219 -0.2017 -0.0352
 5059W        W 8578   8.183   7.563   0.946  0.0382 -0.0392 -0.1551
 5060W        W 8579   0.451   7.483  10.085  0.0898 -0.3434  0.0283
 5061W        W 8580   1.338   5.033   1.314 -0.0170  0.1981 -0.2707
 5062W        W 8581   3.440   1.998   3.566 -0.2382  0.2114  0.0373
 5063W        W 8582   7.514   4.003   1.297 -0.0404 -0.0071 -0.0475
 5064W        W 8583   0.325   2.153   1.071  0.1086  0.1433  0.0281
 5065W        W 8584   1.351   8.424   7.612  0.0669 -0.2645 -0.0046
 5066W        W 8585   4.499   9.548   4.197  0.2345  0.3969 -0.0648
 5067W        W 8586   2.722   7.938  10.587 -0.2595  0.0386  0.1108
 5068W        W 8587   6.544   7.491   1.945  0.0218 -0.1297 -0.2183
 5069W        W 8588   5.587   4.606   4.813  0.0179 -0.0756 -0.2597
 5070W        W 8589   0.656   0.048   2.556 -0.2930  0.1624  0.1000
 5071W        W 8590   7.208   8.559   9.391 -0.1272 -0.1909  0.0042
 5072W        W 8591   9.153   3.026   3.934  0.4717  0.0462 -0.0154
 5073W        W 8592   5.990   2.123   0.666  0.1651 -0.0601 -0.1744
 5074W        W 8593   8.860   1.240   1.678  0.1826 -0.1295  0.2630
 5075W        W 8594   6.627   1.800   0.397 -0.3005  0.2573  0.1749
 5076W        W 8595   4.663   7.581   2.334  0.0898 -0.2430  0.2960
 5077W        W 8596   0.598   3.023  10.860 -0.2730  0.1391  0.0094
 5078W        W 8597   9.422   8.025   2.356  0.4595 -0.0020 -0.1027
 5079W        W 8598   5.893   0.276  10.092  0.1290  0.0342 -0.0138
 5080W        W 8599   4.128   2.044   1.550  0.1935 -0.0560  0.1278
 5081W        W 8600   6.497   0.373  10.848  0.1299 -0.2457 -0.1459
 5082W        W 8601   0.905   1.024  10.532  0.1636  0.3209 -0.0081
 5083W        W 8602   4.634   8.085   2.594 -0.2160  0.0629  0.0603
 5084W        W 8603   4.016   3.660   8.579 -0.1839 -0.0995 -0.1523
 5085W        W 8604   6.312   6.511  11.184  0.0671  0.1819  0.3813
 5086W        W 8605   5.610   6.014   2.604 -0.3426  0.0052  0.0441
 5087W        W 8606   9.696   5.719   8.912  0.2224 -0.2026  0.1037
 5088W        W 8607   8.264   1.572   2.540  0.1590 -0.0001 -0.1045
 5089W        W 8608   2.039   3.295   3.547 -0.0031 -0.1083 -0.1517
 5090W        W 8609   3.350   1.433   0.903  0.0964 -0.1530 -0.0241
 5091W        W 8610   0.035   4.912   2.297 -0.0411 -0.1564  0.0775
 5092W        W 8611   1.114   2.207   2.995  0.1084  0.1278  0.2716
 5093W        W 8612   6.571   4.879   1.631  0.0598  0.0128 -0.5900
 5094W        W 8613   1.016   5.119   9.129 -0.2561  0.0983  0.3048
 5095W        W 8614   0.041   2.462  10.144 -0.0109 -0.2324 -0.0882
 5096W        W 8615   4.508   3.546   7.750  0.1449  0.2873  0.2330
 5097W        W 8616   6.515   2.065   1.531 -0.1193  0.2330 -0.1683
 5098W        W 8617   1.582   1.147   2.259  0.3606  0.0976  0.0029
 5099W        W 8618   2.303   5.040  11.947 -0.0387  0.0196 -0.2775
 5100W        W 8619   9.374   3.946   9.679  0.2286  0.1564 -0.4020
 5101W        W 8620   2.650   9.188   2.138 -0.0442  0.1134 -0.1290
 5102W        W 8621   4.950   3.684  11.026 -0.0648 -0.1222  0.2436
 5103W        W 8622   7.119   6.346   9.132  0.0284 -0.2376 -0.1538
 5104W        W 8623   9.500   7.563   3.596  0.1104  0.1178 -0.1572
 5105W        W 8624   5.873   1.454  10.902  0.0887 -0.0059  0.0065
 5106W        W 8625   2.622   0.876  12.011 -0.1832  0.2831 -0.3203
 5107W        W 8626   1.679   3.631   3.543 -0.1019 -0.0028 -0.1016
 5108W        W 8627   5.097   0.029   8.994  0.0956 -0.0799 -0.0664
 5109W        W 8628   6.937   3.628   0.941 -0.0053 -0.1462 -0.1230
 5110W        W 8629   3.745   5.535   1.724 -0.2099  0.0326  0.4210
 5111W        W 8630   4.728   2.860   2.899 -0.0256  0.1886  0.0146
 5112W        W 8631   6.794   8.933   9.365  0.4281  0.0399 -0.2187
 5113W        W 8632   5.758   2.932   2.132  0.0805  0.3274  0.0386
 5114W        W 8633   2.104   3.085   8.666  0.1652  0.1530 -0.0443
 5115W        W 8634   9.533   3.529   1.009  0.0255  0.1446 -0.0338
 5116W        W 8635   0.299   7.677   1.777 -0.1644  0.0750  0.0822
 5117W        W 8636   6.919   3.450  12.045 -0.4363 -0.1425 -0.1822
 5118W        W 8637   6.586   5.209   8.875  0.1836  0.0836 -0.1910
 5119W        W 8638   3.233   8.398   0.488 -0.1708 -0.2464 -0.0819
 5120W        W 8639   2.983   9.429  10.209 -0.1663  0.2217  0.0380
 5121W        W 8640   7.870   7.578  10.054 -0.4208 -0.2625  0.1568
 5122W        W 8641   4.149   1.617  11.256 -0.3471  0.3282 -0.0554
 5123W        W 8642   6.331   8.867   0.467  0.4397 -0.2618 -0.0720
 5124W        W 8643   0.759   3.575   1.238  0.3932  0.1234 -0.0352
 5125W        W 8644   1.595   2.380   8.848  0.0958 -0.2749  0.2233
 5126W        W 8645   8.155   4.607   2.047  0.0268 -0.2781  0.3170
 5127W        W 8646   1.523   7.017   0.928  0.0385  0.0659  0.0956
 5128W        W 8647   8.656   6.663  10.447  0.2627  0.0741  0.0696
 5129W        W 8648   7.881   6.720  12.126  0.1391 -0.1734  0.2792
 5130W        W 8649   2.398   5.180  11.050  0.0896 -0.3195 -0.0244
 5131W        W 8650   1.749   5.738  11.159 -0.1374 -0.3039  0.1333
 5132W        W 8651   8.186   7.389   9.335 -0.1141 -0.1214  0.0345
 5133W        W 8652   9.361   2.813   9.730 -0.0312 -0.0120  0.0606
 5134W        W 8653   3.906   1.099  11.647 -0.0176  0.2005 -0.1982
 5135W        W 8654   7.205   6.117  12.465  0.1229 -0.3433  0.0955
 5136W        W 8655   5.351   0.065   0.539  0.2365  0.2791 -0.1458
 5137W        W 8656   1.348   3.658   0.662  0.0556  0.0525  0.1387
 5138W        W 8657   7.288   6.978   0.104  0.2455 -0.0047  0.0297
 5139W        W 8658   1.782   9.155   8.164 -0.2266  0.1740  0.2259
 5140W        W 8659   6.452   5.372   9.406 -0.3149  0.1411  0.1937
 5141W        W 8660   9.688   1.795   2.985 -0.1174  0.1059  0.0501
 5142W        W 8661   4.127   0.734   0.035  0.0290  0.1258  0.0979
 5143W        W 8662   1.608   5.442  11.534 -0.2672 -0.2189 -0.1167
 5144W        W 8663   2.993   4.344  11.920 -0.1733  0.2734  0.2060
 5145W        W 8664   2.903   2.186  12.136 -0.0083  0.1476 -0.1571
 5146W        W 8665   7.770   7.424   9.579  0.0931  0.0235  0.1492
 5147W        W 8666   1.673   3.590   9.981 -0.0306 -0.1006 -0.1102
 5148W        W 8667   5.680   5.825  11.208  0.2157 -0.4941  0.0552
 5149W        W 8668   4.878   0.036   0.063 -0.1867 -0.1136  0.1891
 5150W        W 8669   4.988   1.134  10.074 -0.1628 -0.3305 -0.0581
 5151W        W 8670   0.260   7.526   9.616  0.1273  0.0107 -0.0776
 5152W        W 8671   8.221   3.845   9.742  0.0246 -0.0661  0.0736
 5153W        W 8672   8.041   1.468   8.346  0.0995  0.0160 -0.0276
 5154W        W 8673   5.115   6.164   3.968 -0.1860  0.1063  0.1161
 5155W        W 8674   5.209   6.658  11.645 -0.3379 -0.0524  0.0200
 5156W        W 8675   5.414   3.905   8.766  0.0908 -0.1540  0.2191
 5157W        W 8676   3.239   4.036   9.838  0.0218  0.1806  0.0067
 5158W        W 8677   0.313   0.811   1.089 -0.2789 -0.0006  0.1572
 5159W        W 8678   0.010   6.795   2.747 -0.1146  0.1543 -0.2534
 5160W        W 8679   8.285   5.235  10.289 -0.0861  0.0049 -0.0218
 5161W        W 8680   8.796   7.923   2.929 -0.1172 -0.3141 -0.1491
 5162W        W 8681   1.166   0.574   0.842  0.0635  0.1507  0.1819
 5163W        W 8682   3.714   7.970  11.222  0.0109 -0.1370  0.3710
 5164W        W 8683   0.660   8.966   2.135  0.1342  0.2552  0.0383
 5165W        W 8684   7.193   3.851   2.637  0.1339 -0.1111  0.0387
 5166W        W 8685   3.684   5.692  10.840 -0.2057 -0.1627  0.0915
 5167W        W 8686   5.278   6.921   9.940 -0.1560  0.1914  0.1294
 5168W        W 8687   0.699   2.493   0.182 -0.0194 -0.0122  0.0733
 5169W        W 8688   4.685   6.949   3.421 -0.0567 -0.0617  0.0594
 5170W        W 8689   8.188   4.334   0.887 -0.2308 -0.1862  0.2512
 5171W        W 8690   3.919   2.446  12.470  0.0251 -0.0786  0.5356
 5172W        W 8691   3.581   0.085   0.016  0.0109 -0.0174  0.0785
 5173W        W 8692   9.196   7.481  12.532 -0.2294  0.1902  0.2219
 5174W        W 8693   1.250   4.834   3.492  0.1721 -0.2852  0.2020
 5175W        W 8694   6.939   3.465   2.834 -0.2035 -0.1545  0.0781
 5176W        W 8695   0.779   6.507   4.375  0.0214  0.0017  0.3083
 5177W        W 8696   5.049   6.691   1.117 -0.0512  0.1166 -0.2452
 5178W        W 8697   4.634   4.135   9.645  0.1541  0.0735  0.0583
 5179W        W 8698   3.651   1.040   3.091 -0.3452 -0.0242 -0.0980
 5180W        W 8699   5.839   9.620   0.590 -0.2893  0.2252 -0.0556
 5181W        W 8700   3.661   0.710   1.672 -0.4017 -0.0590 -0.2426
 5182W        W 8701   2.876   5.076   9.893  0.0300  0.0043  0.0756
 5183W        W 8702   6.906   3.401   9.358  0.3251 -0.1980 -0.1152
 5184W        W 8703   3.759   3.122   9.895  0.0186 -0.1405  0.3053
 5185W        W 8704   2.512   5.938   0.440  0.3025  0.2043  0.0290
 5186W        W 8705   4.556   9.115   9.723 -0.1921  0.3364 -0.1193
 5187W        W 8706   8.299   0.296   3.318 -0.2753  0.5787  0.3059
 5188W        W 8707   7.488   0.248  11.538 -0.1214 -0.0930 -0.1230
 5189W        W 8708   7.705   4.924   3.354  0.0700 -0.0343  0.1033
 5190W        W 8709   8.800   2.413   1.201  0.3129 -0.0543 -0.0027
 5191W        W 8710   6.727   3.327   0.168  0.0337 -0.0055  0.0737
 5192W        W 8711   1.566   1.136   1.430 -0.0184 -0.0228 -0.0460
 5193W        W 8712   4.460   8.134  10.549 -0.0538 -0.4456 -0.3229
 5194W        W 8713   4.952   5.734   1.970  0.0953 -0.2138  0.3699
 5195W        W 8714   8.839   3.687  10.541  0.0512  0.0923  0.1704
 5196W        W 8715   4.781   1.623  11.236 -0.2659 -0.0981 -0.1157
 5197W        W 8716   4.660   7.362   3.763 -0.1091  0.1287  0.0858
 5198W        W 8717   5.111   2.953   8.135  0.0406  0.0545  0.0822
 5199W        W 8718   1.913   2.813  10.632  0.2033  0.0354 -0.2367
 5200W        W 8719   6.504   9.584  10.769  0.1195  0.0273 -0.1804
 5201W        W 8720   0.588   6.671   3.931  0.0004 -0.0452  0.0959
 5202W        W 8721   3.670   2.066   1.796 -0.0666 -0.2234  0.1109
 5203W        W 8722   8.818   3.231   4.286  0.6792  0.3620  0.3535
 5204W        W 8723   2.989   8.815   2.339 -0.1130  0.3825  0.0058
 5205W        W 8724   7.294   3.556  10.241  0.2315 -0.2856  0.0253
 5206W        W 8725   3.857   6.178  10.666  0.0291 -0.1464  0.1942
 5207W        W 8726   9.681   1.811   0.920 -0.0633 -0.0093  0.0986
 5208W        W 8727   4.739   9.028   1.413  0.1239  0.0594 -0.1348
 5209W        W 8728   2.868   1.710  12.312 -0.2249  0.1146  0.0386
 5210W        W 8729   4.999   4.424   9.476 -0.0291  0.0716  0.0990
 5211W        W 8730   8.104   5.089  11.405 -0.2700 -0.1193 -0.1167
 5212W        W 8731   2.909   3.202   5.141 -0.1260  0.2315  0.2378
 5213W        W 8732   9.469   6.876   9.357 -0.1650  0.1284 -0.2231
 5214W        W 8733   2.009   3.410  10.794  0.1377 -0.2691 -0.1011
 5215W        W 8734   7.788   3.099   8.980  0.0910 -0.2466  0.1708
 5216W        W 8735   3.436   5.718  12.493 -0.0921  0.0660  0.0515
 5217W        W 8736   0.140   8.048  12.115 -0.2467 -0.0191  0.1800
 5218W        W 8737   4.038   0.649  10.913 -0.0681  0.0317  0.3958
 5219W        W 8738   9.565   2.046   0.337  0.1091 -0.0758 -0.2505
 5220W        W 8739   9.615   5.033  11.164  0.0811  0.1014  0.2026
 5221W        W 8740   4.724   4.748   4.147  0.0657 -0.1291  0.0632
 5222W        W 8741   5.732   6.873   2.295  0.0494  0.0580  0.2066
 5223W        W 8742   4.903   0.471   8.019 -0.2880  0.2528  0.1087
 5224W        W 8743   5.030   6.206  10.968  0.3806 -0.0069  0.2857
 5225W        W 8744   8.246   9.234  10.718  0.2624  0.0666  0.0530
 5226W        W 8745   9.369   1.361   0.492 -0.1657  0.1428 -0.1807
 5227W        W 8746   2.485   3.410  11.066 -0.1619  0.1043 -0.0547
 5228W        W 8747   0.168   8.893  10.331  0.0076  0.0411  0.0464
 5229W        W 8748   0.520   4.148   0.846 -0.0867  0.1244  0.0612
 5230W        W 8749   1.719   1.517  11.283  0.1718 -0.0475  0.0495
 5231W        W 8750   0.580   4.298   1.323 -0.0379 -0.1528  0.2333
 5232W        W 8751   0.780   7.421   9.648  0.1436  0.1800 -0.1108
 5233W        W 8752   1.783   7.497  11.460 -0.2081  0.2574 -0.1245
 5234W        W 8753   2.969   8.686   3.881 -0.0056  0.2821 -0.2046
 5235W        W 8754   0.090   5.839   9.376 -0.1182  0.0261  0.1952
 5236W        W 8755   0.866   3.824  11.737  0.0194 -0.1098 -0.3728
 5237W        W 8756   4.086   2.912   0.055 -0.0771  0.0229  0.2229
 5238W        W 8757   1.913   6.719  11.869 -0.1481  0.0137 -0.2476
 5239W        W 8758   0.707   4.659   9.020  0.1060 -0.1319  0.0699
 5240W        W 8759   6.098   7.915   1.408 -0.1235  0.0745  0.0143
 5241W        W 8760   0.113   0.332  12.284 -0.1998 -0.1112  0.5095
 5242W        W 8761   4.015   4.748   3.366 -0.2081  0.1028 -0.1065
 5243W        W 8762   6.250   9.483   2.727 -0.1819 -0.0981  0.1043
 5244W        W 8763   3.628   4.738  12.460 -0.1047 -0.0042 -0.0302
 5245W        W 8764   8.814   9.691   9.115  0.0975 -0.4053  0.2630
 5246W        W 8765   2.836   7.226  11.296 -0.1163 -0.2842  0.0076
 5247W        W 8766   0.842   8.705   0.539 -0.0771  0.4344  0.1756
 5248W        W 8767   3.320   9.614   2.870 -0.2173  0.0785  0.0155
 5249W        W 8768   0.408   3.158   4.981  0.5324 -0.1701 -0.0120
 5250W        W 8769   7.245   4.058  11.071 -0.1648  0.0197 -0.3020
 5251W        W 8770   3.774   4.506   1.695  0.2547 -0.0484 -0.2542
 5252W        W 8771   3.369   3.686   4.218  0.0206  0.0872  0.2842
 5253W        W 8772   0.619   0.609  10.360 -0.3184 -0.1380  0.1648
 5254W        W 8773   6.677   3.123   9.734 -0.1035  0.0072 -0.2334
 5255W        W 8774   4.470   8.196  11.630  0.1170  0.1654  0.1530
 5256W        W 8775   7.679   8.575  12.544 -0.0461  0.0402 -0.1200
 5257W        W 8776   8.184   8.537   0.004 -0.0736  0.1911  0.2495
 5258W        W 8777   2.872   8.609   9.037 -0.0311  0.1207 -0.0791
 5259W        W 8778   8.693   7.285  12.492  0.1150 -0.3089  0.1468
 5260W        W 8779   7.973   3.846   1.097 -0.1483 -0.3084 -0.1565
 5261W        W 8780   8.329   0.178   0.581  0.1142 -0.0978  0.0005
 5262W        W 8781   3.874   0.356   0.260  0.0705  0.0350  0.0090
 5263W        W 8782   5.895   0.682   9.185  0.1515  0.1096  0.0627
 5264W        W 8783   5.130   3.207   0.252 -0.1131 -0.0965 -0.0259
 5265W        W 8784   2.769   8.112   9.007 -0.2726  0.0199  0.0720
 5266W        W 8785   8.713   2.189   3.040 -0.2107 -0.3262 -0.3349
 5267W        W 8786   4.277   3.210  11.672  0.3038 -0.2199  0.0261
 5268W        W 8787   4.005   4.928   2.729 -0.1777  0.1255  0.0713
 5269W        W 8788   1.139   5.283  11.414 -0.1882  0.2933  0.1577
 5270W        W 8789   4.731   2.481   3.284  0.0660 -0.0785 -0.2122
 5271W        W 8790   1.481   0.047   1.270 -0.2776 -0.0183  0.3099
 5272W        W 8791   8.235   8.995   0.329  0.3801  0.0086 -0.1909
 5273W        W 8792   7.186   9.492   0.696  0.1930 -0.1357 -0.1246
 5274W        W 8793   1.472   5.776   1.798 -0.0591 -0.0229  0.0748
 5275W        W 8794   5.782   4.452   0.014  0.4094 -0.3542 -0.0396
 5276W        W 8795   2.694   4.842   2.981  0.2251 -0.1677 -0.0170
 5277W        W 8796   5.200   1.764   1.278 -0.2483 -0.5948  0.2212
 5278W        W 8797   8.271   7.067   3.212  0.0780  0.0604 -0.1893
 5279W        W 8798   9.557   3.123   4.200  0.1014 -0.0733  0.2884
 5280W        W 8799   7.153   0.979  12.400  0.0623  0.2684 -0.4018
 5281W        W 8800   2.690   3.554   2.239  0.3298 -0.1511 -0.0665
 5282W        W 8801   4.396   3.008  12.215 -0.0666  0.0638 -0.1138
 5283W        W 8802   7.302   0.315  10.515  0.0040  0.1735 -0.1340
 5284W        W 8803   1.458   7.714  11.807  0.1496 -0.1460 -0.1791
 5285W        W 8804   0.552   0.550   4.757  0.2912  0.1318 -0.1713
 5286W        W 8805   0.941   0.835   2.829  0.2057 -0.0673 -0.1314
 5287W        W 8806   2.718   8.342   1.861  0.0534 -0.0450 -0.1080
 5288W        W 8807   6.456   4.313  11.830  0.2019  0.0380 -0.1374
 5289W        W 8808   6.117   5.143   9.085 -0.1588  0.0031  0.1720
 5290W        W 8809   5.762   4.086   1.696  0.0179 -0.1188  0.0437
 5291W        W 8810   4.271   5.069  11.955 -0.4835 -0.1540 -0.1406
 5292W        W 8811   1.150   0.975  10.945  0.0653 -0.1418  0.0605
 5293W        W 8812   5.738   4.572   2.176 -0.2815  0.2647 -0.0019
 5294W        W 8813   7.711   0.909   0.571 -0.1545 -0.1543  0.3249
 5295W        W 8814   3.917   4.184   4.574 -0.1644  0.2258  0.2190
 5296W        W 8815   3.496   1.137  12.145 -0.2339 -0.3409 -0.2887
 5297W        W 8816   8.599   3.249   1.240  0.1730 -0.0514 -0.0886
 5298W        W 8817   0.384   8.399  10.435  0.2116  0.3228 -0.1076
 5299W        W 8818   6.615   3.698   0.563 -0.1577 -0.0284 -0.4559
 5300W        W 8819   2.355   5.864  10.133  0.0519 -0.2389  0.1582
 5301W        W 8820   0.560   7.849  11.808 -0.0858  0.1168 -0.4178
 5302W        W 8821   9.224   4.280  10.004 -0.1073 -0.0662  0.0708
 5303W        W 8822   5.773   1.761  10.487  0.3117  0.0946  0.0870
 5304W        W 8823   2.289   8.011   0.299 -0.0736  0.0460 -0.3660
 5305W        W 8824   1.430   0.890   3.078  0.2345 -0.2939 -0.2071
 5306W        W 8825   7.504   0.979  10.225  0.1629 -0.1810  0.2602
 5307W        W 8826   9.367   0.648  11.062 -0.1875  0.0223  0.1662
 5308W        W 8827   0.900   4.809   3.133  0.0603  0.0533  0.2216
 5309W        W 8828   3.398   5.787   0.486  0.0351  0.3783 -0.1495
 5310W        W 8829   1.780   4.446  10.047  0.1369 -0.0497 -0.1935
 5311W        W 8830   3.140   2.092  10.597  0.2953 -0.0099  0.2075
 5312W        W 8831   1.713   6.145   9.493  0.1953  0.2705  0.1916
 5313W        W 8832   5.426   6.197  10.417  0.2494 -0.1417  0.1386
 5314W        W 8833   3.172   1.295  10.040 -0.1555 -0.0387 -0.0094
 5315W        W 8834   8.414   8.827   8.292 -0.2831 -0.0695 -0.0903
 5316W        W 8835   9.292   3.746  10.183  0.0424  0.0891 -0.1499
 5317W        W 8836   9.231   8.978   2.221  0.3301 -0.3441  0.0639
 5318W        W 8837   0.839   1.582   4.428 -0.2029  0.1054 -0.0159
 5319W        W 8838   6.330   1.734   3.346  0.1783 -0.2133 -0.3118
 5320W        W 8839   0.444   6.224  10.228 -0.0657  0.1909 -0.0342
 5321W        W 8840   8.669   8.330   9.296  0.3550 -0.0517 -0.0109
 5322W        W 8841   9.401   8.164   3.545 -0.0260  0.0427  0.2042
 5323W        W 8842   8.783   1.291   8.908  0.0060  0.2349 -0.2092
 5324W        W 8843   1.563   4.503   3.238  0.3028 -0.0211 -0.0634
 5325W        W 8844   3.424   4.443   2.195 -0.1959  0.2900 -0.2816
 5326W        W 8845   7.855   3.197   3.916  0.1929  0.0394  0.1249
 5327W        W 8846   4.596   5.183   7.941  0.0292 -0.1362 -0.0383
 5328W        W 8847   4.529   7.992  12.056  0.0207 -0.0608  0.1052
 5329W        W 8848   6.051   4.766   7.828 -0.1427 -0.2107  0.2578
 5330W        W 8849   3.830   2.864  10.307 -0.0060  0.0013 -0.0842
 5331W        W 8850   1.546   9.427  10.498  0.0123 -0.0645  0.0841
 5332W        W 8851   1.551   0.276   8.993  0.2194  0.1068  0.1051
 5333W        W 8852   8.702   5.377   3.061 -0.1244  0.0058  0.0053
 5334W        W 8853   2.496   8.516   3.637 -0.1130  0.0664 -0.1512
 5335W        W 8854   4.790   3.946   1.855  0.0613  0.1897  0.3545
 5336W        W 8855   7.483   9.503   1.921 -0.3306  0.1705 -0.2575
 5337W        W 8856   8.908   0.846  11.833 -0.1388  0.1953 -0.0890
 5338W        W 8857   9.593   1.138   3.090 -0.0305 -0.0765 -0.0016
 5339W        W 8858   3.279   5.407  10.741  0.0218 -0.0636 -0.1488
 5340W        W 8859   8.058   3.926   3.030 -0.0438  0.0323 -0.2126
 5341W        W 8860   0.143   9.282   1.588  0.0947  0.0953  0.1730
 5342W        W 8861   8.514   8.046   0.769 -0.0024  0.2216 -0.1510
 5343W        W 8862   3.401   5.262  11.867 -0.4128  0.1004  0.1443
 5344W        W 8863   6.864   4.702  11.928  0.0202  0.1041  0.1100
 5345W        W 8864   7.886   7.181   0.967 -0.2844 -0.0672  0.0112
 5346W        W 8865   4.419   9.514   9.423  0.1160  0.2237  0.0593
 5347W        W 8866   5.608   5.063   2.699 -0.0313  0.0373 -0.2826
 5348W        W 8867   7.917   7.520   0.119  0.3176  0.0561 -0.3167
 5349W        W 8868   0.676   3.936   3.382  0.0765  0.0947  0.3469
 5350W        W 8869   6.237   3.395   1.450 -0.1015  0.2640  0.0692
 5351W        W 8870   0.818   2.136   8.743 -0.3057 -0.2542  0.1188
 5352W        W 8871   8.038   7.181  10.362  0.1459  0.0324 -0.0347
 5353W        W 8872   1.098   3.835   0.233  0.0521 -0.1619 -0.2825
 5354W        W 8873   2.567   0.938   0.840  0.0980  0.0437  0.3449
 5355W        W 8874   1.792   5.099  11.859  0.0338  0.2581 -0.2151
 5356W        W 8875   1.245   5.478   2.155 -0.0322 -0.0629  0.0257
 5357W        W 8876   5.480   6.832   0.176  0.0461  0.3501  0.4717
 5358W        W 8877   5.878   0.026   1.809 -0.2446  0.1832 -0.0454
 5359W        W 8878   4.412   6.085   0.079  0.1377 -0.0811 -0.2183
 5360W        W 8879   2.511   7.472   3.224  0.3395 -0.0300 -0.0591
 5361W        W 8880   2.750   2.442   2.829 -0.3474  0.1068  0.2287
 5362W        W 8881   8.653   7.883  10.672  0.0555 -0.2522  0.2364
 5363W        W 8882   3.899   1.128   3.603  0.1404  0.1363 -0.1320
 5364W        W 8883   7.943   4.261   1.766 -0.3459 -0.1193 -0.2601
 5365W        W 8884   4.397   0.305   0.219  0.1413  0.0471  0.1410
 5366W        W 8885   9.151   5.605   2.768 -0.1266 -0.1063  0.0094
 5367W        W 8886   6.653   5.191   2.678 -0.2449 -0.1394  0.3965
 5368W        W 8887   3.665   7.710  12.161 -0.1854 -0.2082 -0.1079
 5369W        W 8888   8.755   3.228   3.741 -0.4720  0.0540 -0.1820
 5370W        W 8889   5.423   2.604   2.231 -0.3276  0.0662  0.0548
 5371W        W 8890   6.883   5.054   1.123  0.0549 -0.4290 -0.1974
 5372W        W 8891   4.189   5.347   4.073  0.1353 -0.3643 -0.3043
 5373W        W 8892   1.250   3.946   8.773 -0.2425  0.2826  0.5080
 5374W        W 8893   4.565   2.238   7.619  0.0717  0.0483 -0.2530
 5375W        W 8894   8.041   1.311  10.131 -0.0560  0.2295 -0.1251
 5376W        W 8895   2.930   1.433   4.117  0.2409 -0.1466 -0.1834
 5377W        W 8896   9.547   0.279   2.582  0.0121 -0.0289 -0.2338
 5378W        W 8897   7.238   9.646  12.322  0.2569  0.1811  0.0279
 5379W        W 8898   3.715   3.254   9.344  0.1502 -0.1963  0.1457
 5380W        W 8899   8.987   3.708   9.299 -0.1551 -0.0007 -0.1428
 5381W        W 8900   1.846   1.373  11.786 -0.3119 -0.0045  0.0684
 5382W        W 8901   5.097   0.498   0.120  0.0873 -0.1394  0.0509
 5383W        W 8902   3.071   8.241   9.385 -0.0868 -0.0016 -0.2383
 5384W        W 8903   6.707   3.404  10.613 -0.1907 -0.0465  0.0722
 5385W        W 8904   6.405   0.746   1.898  0.0430 -0.2093  0.1683
 5386W        W 8905   9.530   8.027   1.853  0.0058  0.0976  0.3574
 5387W        W 8906   3.892   2.850   0.719 -0.3586 -0.0659  0.3007
 5388W        W 8907   2.722   6.718  12.365  0.2487 -0.1125  0.3816
 5389W        W 8908   8.671   0.248   2.974  0.2465 -0.2008 -0.2694
 5390W        W 8909   9.523   4.395   1.281  0.1817  0.0868 -0.1628
 5391W        W 8910   9.466   4.516   0.757 -0.0243  0.0224  0.1525
 5392W        W 8911   4.324   6.598   0.332  0.1709 -0.0596 -0.1782
 5393W        W 8912   7.194   7.476   0.697  0.1193  0.1844  0.0631
 5394W        W 8913   6.993   5.107  12.311  0.2079  0.0883  0.2464
 5395W        W 8914   8.460   7.564  12.069  0.0064  0.0337 -0.0079
 5396W        W 8915   0.706   1.538   9.821 -0.0666 -0.0745  0.3374
 5397W        W 8916   4.898   7.836   3.797  0.0327  0.2366 -0.1299
 5398W        W 8917   3.398   2.506  12.277  0.3297 -0.2715  0.1157
 5399W        W 8918   7.912   3.538  11.849  0.1848 -0.0115  0.2179
 5400W        W 8919   5.158   2.144  10.044 -0.1053 -0.0002  0.2411
 5401W        W 8920   2.265   8.666  10.630  0.1071 -0.0008 -0.0351
 5402W        W 8921   8.579   2.065  12.348 -0.0338  0.1293 -0.1233
 5403W        W 8922   5.995   5.715   8.301  0.1764  0.1220 -0.0244
 5404W        W 8923   1.201   7.867   9.611  0.0201 -0.0798 -0.6574
 5405W        W 8924   2.324   4.730   1.571 -0.1073 -0.0363  0.0765
 5406W        W 8925   4.700   5.873  11.237 -0.3587 -0.1426 -0.0606
 5407W        W 8926   1.187   9.249  12.408 -0.1061 -0.0700  0.0920
 5408W        W 8927   8.160   2.745  12.544 -0.0623  0.0215 -0.1738
 5409W        W 8928   0.584   6.944   9.089 -0.2005  0.0834  0.2280
 5410W        W 8929   2.207   4.262   9.878 -0.1419 -0.1524 -0.0630
 5411W        W 8930   7.438   4.473  11.351  0.0050  0.0061  0.0571
 5412W        W 8931   8.979   9.404   2.281  0.2559  0.1317  0.2400
 5413W        W 8932   0.331   0.724   0.446 -0.1156  0.2420 -0.0481
 5414W        W 8933   9.141   2.372   2.252 -0.2113 -0.1896  0.1705
 5415W        W 8934   5.850   2.387   9.095  0.0158 -0.2736  0.1693
 5416W        W 8935   6.388   0.704   9.269  0.0490  0.2129  0.2110
 5417W        W 8936   4.014   0.113  10.645  0.0580 -0.5293 -0.1574
 5418W        W 8937   0.895   8.828   8.721  0.1471  0.2532 -0.1336
 5419W        W 8938   4.535   2.196   1.795  0.0250 -0.3123  0.0764
 5420W        W 8939   5.079   8.785   0.259 -0.0391 -0.0222  0.0908
 5421W        W 8940   9.127   5.153  12.543  0.1950  0.1271  0.1462
 5422W        W 8941   4.759   5.475   1.576 -0.0723  0.0960  0.0709
 5423W        W 8942   6.183   2.278   0.257  0.1443  0.0183  0.1093
 5424W        W 8943   8.050   7.880  12.120 -0.1412  0.1245  0.0339
 5425W        W 8944   3.574   2.271  10.280  0.1774 -0.1776 -0.1290
 5426W        W 8945   9.708   5.763   0.625  0.0587  0.0351  0.0968
 5427W        W 8946   9.130   5.286   9.955  0.0187 -0.1756 -0.2254
 5428W        W 8947   2.530   1.552   3.790  0.3578  0.1612  0.0322
 5429W        W 8948   3.167   2.543   2.373 -0.1568  0.0263  0.0938
 5430W        W 8949   5.436   2.478  11.530  0.0741  0.2182 -0.2552
 5431W        W 8950   8.226   0.027  10.450 -0.0943 -0.1716 -0.0783
 5432W        W 8951   0.874   4.722   0.197 -0.1505  0.0228  0.0489
 5433W        W 8952   4.293   7.523   1.841 -0.0110 -0.3275 -0.1362
 5434W        W 8953   3.401   3.451  10.023 -0.0114 -0.2803  0.0933
 5435W        W 8954   6.294   6.324   0.020  0.1859 -0.2540 -0.0788
 5436W        W 8955   3.202   5.913   2.769 -0.1738 -0.1177 -0.1744
 5437W        W 8956   1.515   6.151   5.151 -0.4168 -0.1827  0.0196
 5438W        W 8957   5.907   1.581   0.651 -0.3812 -0.1216 -0.1429
 5439W        W 8958   1.148   4.178   3.344  0.1348  0.0608  0.0021
 5440W        W 8959   4.596   0.971   1.172 -0.3136  0.0593 -0.2005
 5441W        W 8960   4.079   2.213   9.041 -0.1588  0.1638 -0.2765
 5442W        W 8961   3.573   3.043   8.937 -0.0703 -0.0548  0.3374
 5443W        W 8962   0.853   9.208   4.190  0.0437  0.0495  0.2261
 5444W        W 8963   7.738   6.280  11.228  0.1257 -0.1164  0.3097
 5445W        W 8964   2.524   3.089   0.589 -0.1651 -0.1062 -0.2381
 5446W        W 8965   7.438   5.088   2.469 -0.0969 -0.0581 -0.0763
 5447W        W 8966   7.189   2.973   3.845  0.1968 -0.2321  0.1759
 5448W        W 8967   2.107   3.114   9.237  0.0531  0.1329  0.2622
 5449W        W 8968   3.677   7.998   3.307 -0.0186 -0.0359 -0.1667
 5450W        W 8969   2.670   4.589   0.182  0.0269 -0.1360  0.1039
 5451W        W 8970   7.117   2.231   1.877  0.4769  0.2851 -0.2592
 5452W        W 8971   7.553   6.335   9.622  0.0804 -0.3616  0.0390
 5453W        W 8972   8.624   8.352  10.859 -0.0014  0.2137  0.2285
 5454W        W 8973   2.899   7.435   1.408  0.0600 -0.1795  0.1382
 5455W        W 8974   8.222   3.195   0.872 -0.3631 -0.0413 -0.2012
 5456W        W 8975   2.356   4.478   9.429 -0.1985  0.2910 -0.0112
 5457W        W 8976   3.700   4.981  11.426  0.0038 -0.2952 -0.0644
 5458W        W 8977   4.509   3.505   9.782 -0.0772  0.0178  0.5035
 5459W        W 8978   9.257   0.459   1.537 -0.3478 -0.3348 -0.4410
 5460W        W 8979   0.789   3.772   9.947 -0.0336  0.1982  0.1096
 5461W        W 8980   8.381   3.542   3.086 -0.1477  0.3749  0.0976
 5462W        W 8981   3.286   3.918  12.004 -0.1655  0.0312  0.0747
 5463W        W 8982   2.896   8.320   3.442  0.1524 -0.0836  0.0004
 5464W        W 8983   6.420   5.168   0.783  0.0005  0.1836  0.1453
 5465W        W 8984   2.015   7.504   2.406  0.1343  0.3557 -0.0062
 5466W        W 8985   2.832   8.225   4.029  0.1195 -0.1070 -0.1362
 5467W        W 8986   4.096   3.682   2.255  0.0056  0.1417 -0.2046
 5468W        W 8987   2.192   7.552   1.914  0.2105  0.0099  0.0954
 5469W        W 8988   0.204   4.645   2.661  0.2092 -0.0539  0.0748
 5470W        W 8989   0.063   8.147   2.877 -0.1350  0.0127 -0.0424
 5471W        W 8990   0.021   3.180   9.695  0.2441 -0.0816 -0.1571
 5472W        W 8991   7.027   6.817  11.111  0.2019 -0.0985  0.0711
 5473W        W 8992   6.946   1.644  10.825 -0.3933 -0.1653  0.2044
 5474W        W 8993   5.386   7.102  11.311 -0.1808 -0.4998 -0.2016
 5475W        W 8994   3.528   9.052  10.986  0.0602  0.2135  0.0764
 5476W        W 8995   5.893   6.642   9.557 -0.2344 -0.0563  0.0595
 5477W        W 8996   9.587   8.314   8.467  0.1234 -0.2730  0.1583
 5478W        W 8997   1.103   5.640   3.187  0.0492 -0.2837 -0.3262
 5479W        W 8998   7.850   6.493   2.981  0.1995 -0.3806 -0.0542
 5480W        W 8999   9.372   3.248  11.789  0.0995 -0.2986 -0.0661
 5481W        W 9000   8.489   7.619  11.034  0.1200  0.0087  0.0442
 5482W        W 9001   4.052   2.667   1.262 -0.1224  0.0922  0.0551
 5483W        W 9002   5.967   8.836  10.987 -0.1448  0.3187  0.0999
 5484W        W 9003   7.921   5.766   0.456 -0.1640  0.0259  0.0659
 5485W        W 9004   4.542   5.530  10.151  0.1136  0.0288  0.0914
 5486W        W 9005   7.489   2.643   9.815  0.1236  0.0103  0.1436
 5487W        W 9006   8.500   2.435   1.642  0.1761 -0.0641  0.2760
 5488W        W 9007   8.787   7.594   0.815 -0.1375  0.0647 -0.0504
 5489W        W 9008   1.942   4.086   9.429  0.2031 -0.1657  0.0058
 5490W        W 9009   8.763   3.475  12.326 -0.0118 -0.0191  0.1922
 5491W        W 9010   1.729   4.928   3.305 -0.0950 -0.1850 -0.0954
 5492W        W 9011   4.884   9.405  12.256 -0.1543  0.2151 -0.3039
 5493W        W 9012   5.665   8.104   9.883 -0.4172 -0.0414 -0.1146
 5494W        W 9013   1.450   8.288   9.542 -0.0668  0.2800  0.4313
 5495W        W 9014   5.032   8.712   0.940 -0.4778 -0.1951  0.2828
 5496W        W 9015   1.397   6.759  12.066  0.1851 -0.0800  0.2989
 5497W        W 9016   6.233   6.714  11.640 -0.0059 -0.0514 -0.1515
 5498W        W 9017   5.261   2.980   0.807  0.1478  0.1422  0.1548
 5499W        W 9018   8.865   6.845   0.268 -0.1207 -0.0150 -0.2029
 5500W        W 9019   3.517   4.869   9.158  0.3432 -0.2305  0.2403
 5501W        W 9020   6.854   8.048   7.131  0.0730  0.0109 -0.0127
 5502W        W 9021   0.703   3.076   0.043  0.0833 -0.0380 -0.0570
 5503W        W 9022   5.317   3.859   0.962 -0.2300  0.2335  0.0777
 5504W        W 9023   0.975   5.763   9.791  0.1169 -0.1404  0.1144
 5505W        W 9024   1.914   1.872  11.634 -0.0304 -0.1470  0.0276
 5506W        W 9025   9.357   1.167  12.567  0.0277 -0.0119 -0.3612
 5507W        W 9026   6.700   6.989   1.963 -0.0781  0.0602 -0.1474
 5508W        W 9027   8.520   8.073  11.229 -0.3572 -0.3783  0.1593
 5509W        W 9028   0.495   7.197   1.471  0.0209  0.3718  0.3179
 5510W        W 9029   3.716   1.423   8.934  0.0564 -0.1558  0.0737
 5511W        W 9030   2.887   1.522   2.880 -0.0577 -0.1589 -0.3309
 5512W        W 9031   5.519   5.614   3.511  0.1892  0.1182  0.2670
 5513W        W 9032   3.934   1.198   1.464  0.1146 -0.2473 -0.3340
 5514W        W 9033   2.063   6.465  10.042 -0.1557 -0.2292 -0.0910
 5515W        W 9034   4.086   3.752   1.241  0.2050 -0.0544 -0.0597
 5516W        W 9035   5.453   7.785   0.550 -0.0179 -0.2948 -0.4026
 5517W        W 9036   1.748   3.218  10.388  0.4343 -0.0433  0.1579
 5518W        W 9037   8.917   1.458   9.944  0.0202 -0.5513 -0.0983
 5519W        W 9038   8.694   1.605  12.486  0.1541  0.2777  0.2075
 5520W        W 9039   9.268   7.525  11.165 -0.0485 -0.2668  0.0765
 5521W        W 9040   0.904   6.304   3.870 -0.3639  0.0482  0.0581
 5522W        W 9041   0.344   7.283   2.807 -0.0252 -0.2294 -0.0921
 5523W        W 9042   1.642   8.197   0.444  0.0877  0.1534  0.0116
 5524W        W 9043   1.304   5.500   8.710 -0.0428 -0.1573 -0.1838
 5525W        W 9044   6.527   6.702   1.518 -0.1999 -0.0542 -0.3266
 5526W        W 9045   8.317   0.812   2.237  0.2635 -0.0611 -0.1345
 5527W        W 9046   9.385   6.969  11.871  0.0432  0.4132  0.0091
 5528W        W 9047   8.499   4.047   9.324  0.1122 -0.1075  0.0326
 5529W        W 9048   4.359   2.180   4.323 -0.1641 -0.2883  0.1354
 5530W        W 9049   3.438   6.849  11.141 -0.0248  0.0776  0.3498
 5531W        W 9050   0.717   2.529   2.986  0.1466 -0.0535 -0.4440
 5532W        W 9051   8.490   6.191  10.430 -0.3007 -0.0018 -0.2928
 5533W        W 9052   9.475   8.297  10.843 -0.0103  0.0767 -0.5402
 5534W        W 9053   4.697   8.393   0.926  0.2480 -0.1801 -0.2526
 5535W        W 9054   5.086   4.259   1.193 -0.1718 -0.1566  0.0928
 5536W        W 9055   8.775   8.863   9.295  0.0733 -0.1303  0.1712
 5537W        W 9056   9.554   6.324   0.611 -0.0378 -0.1217 -0.1035
 5538W        W 9057   5.076   3.071   9.130  0.0923 -0.1345  0.0879
 5539W        W 9058   1.869   3.868   1.726  0.1722 -0.1327  0.0807
 5540W        W 9059   7.232   2.402  11.118 -0.0685 -0.0096 -0.1219
 5541W        W 9060   1.327   8.319  11.524 -0.0703 -0.1313 -0.0582
 5542W        W 9061   1.516   2.601   9.810  0.3075  0.2556  0.2522
 5543W        W 9062   8.856   1.811   3.441 -0.1848 -0.1386  0.2019
 5544W        W 9063   0.589   3.466   9.050  0.1137  0.0114  0.2869
 5545W        W 9064   8.703   7.905  10.125  0.1359  0.0719 -0.2987
 5546W        W 9065   1.019   8.284   8.777  0.1749 -0.2565  0.1096
 5547W        W 9066   5.174   5.931   2.387 -0.3258 -0.1329 -0.0819
 5548W        W 9067   0.593   7.469   4.123 -0.0258  0.1668 -0.3202
 5549W        W 9068   1.402   8.828   2.558 -0.0691 -0.0243  0.0665
 5550W        W 9069   3.087   7.842   0.572 -0.2319  0.3801 -0.1350
 5551W        W 9070   9.284   9.467   3.301 -0.1573 -0.0016 -0.0601
 5552W        W 9071   6.521   0.293   1.145 -0.0252  0.0561 -0.2620
 5553W        W 9072   6.659   1.678  12.299 -0.0208  0.4651  0.1652
 5554W        W 9073   2.300   7.748  10.338 -0.0525 -0.3850 -0.2671
 5555W        W 9074   7.181   1.081  11.895 -0.1629  0.0486 -0.2077
 5556W        W 9075   8.532   6.776  11.484  0.2377 -0.0914  0.1785
 5557W        W 9076   5.808   1.002   2.743 -0.0429 -0.3352  0.0039
 5558W        W 9077   3.746   4.290   7.966  0.0522 -0.0164  0.0482
 5559W        W 9078   7.798   4.964   3.877 -0.1039  0.0495 -0.3508
 5560W        W 9079   3.489   6.211   0.258  0.0263 -0.1023 -0.0809
 5561W        W 9080   7.489   6.526  12.466  0.1043  0.0769  0.1516
 5562W        W 9081   2.403   4.358   1.087 -0.1832  0.0683  0.0037
 5563W        W 9082   3.666   3.304   1.711  0.1732 -0.3569  0.1404
 5564W        W 9083   3.720   8.021  10.516 -0.0072 -0.0995  0.2711
 5565W        W 9084   5.593   5.849   0.290 -0.0070 -0.0501  0.0289
 5566W        W 9085   2.324   7.862  11.045 -0.0691 -0.0195  0.1385
 5567W        W 9086   0.949   8.207   2.961 -0.1742 -0.0217  0.0678
 5568W        W 9087   3.802   3.048   2.237 -0.2433  0.2762 -0.0993
 5569W        W 9088   7.848   5.305   2.693 -0.1865  0.0559 -0.0972
 5570W        W 9089   9.519   1.480  12.121 -0.1806  0.1859 -0.1877
 5571W        W 9090   8.813   6.323   9.651 -0.0050  0.2235  0.0451
 5572W        W 9091   8.842   6.770   9.859 -0.1417 -0.3024 -0.2367
 5573W        W 9092   4.497   4.664  10.766 -0.2321 -0.0954  0.1315
 5574W        W 9093   2.042   0.828   1.791  0.0641  0.0555 -0.0954
 5575W        W 9094   1.106   1.545   5.258 -0.2245  0.1014 -0.0552
 5576W        W 9095   9.566   8.982  11.260  0.1467  0.2209  0.0767
 5577W        W 9096   1.740   7.756   2.068 -0.3710  0.0667  0.0052
 5578W        W 9097   7.024   0.801   2.151 -0.2693  0.1948  0.0020
 5579W        W 9098   9.155   6.130   1.662  0.1625  0.1322  0.0175
 5580W        W 9099   4.939   9.132   2.233 -0.0572  0.1608  0.2127
 5581W        W 9100   7.895   3.671  10.402 -0.4844 -0.1516  0.3710
 5582W        W 9101   7.849   2.521   1.204  0.3326 -0.0407  0.1875
 5583W        W 9102   0.821   6.549   1.997  0.0470  0.1188 -0.1084
 5584W        W 9103   3.428   0.262   7.991  0.0613  0.2171 -0.2301
 5585W        W 9104   5.284   4.416   2.021  0.4584  0.0654 -0.0586
 5586W        W 9105   8.823   7.686   0.306 -0.2731 -0.1257  0.3770
 5587W        W 9106   1.931   5.971  12.268 -0.1586  0.0237 -0.0290
 5588W        W 9107   1.291   6.811   3.615 -0.0017 -0.2224 -0.1869
 5589W        W 9108   5.269   7.240   0.325  0.3272  0.0504 -0.1280
 5590W        W 9109   9.121   0.419   2.868  0.4612  0.0985 -0.0205
 5591W        W 9110   5.737   3.383   4.129  0.1239  0.0534 -0.0954
 5592W        W 9111   8.821   2.541  11.433 -0.0902  0.1044  0.1699
 5593W        W 9112   7.800   0.378  10.410  0.0587  0.2628  0.0946
 5594W        W 9113   8.593   5.205  10.641 -0.0656  0.0669 -0.2185
 5595W        W 9114   6.158   4.191  12.366 -0.1698  0.0145 -0.0000
 5596W        W 9115   7.921   7.858   2.029  0.0348 -0.2228 -0.0123
 5597W        W 9116   3.352   1.946  12.178  0.1040  0.0449 -0.0106
 5598W        W 9117   4.225   0.259  11.204  0.1346  0.0642 -0.2262
 5599W        W 9118   3.255   8.264  10.302 -0.0347  0.1857 -0.0601
 5600W        W 9119   2.075   7.214   3.035  0.1833  0.1063 -0.1038
 5601W        W 9120   4.236   1.063   4.084  0.3159 -0.2141 -0.5587
 5602W        W 9121   4.113   4.578   0.908 -0.0455 -0.0963 -0.1344
 5603W        W 9122   3.270   8.162   3.700 -0.1789  0.2178 -0.1581
 5604W        W 9123   0.771   4.223   2.318  0.0298  0.0164 -0.2014
 5605W        W 9124   6.504   4.404   2.739 -0.3927 -0.2484  0.0441
 5606W        W 9125   4.814   3.944   8.696  0.2898  0.1952 -0.2183
 5607W        W 9126   3.769   7.326   2.746  0.1677  0.0476  0.3360
 5608W        W 9127   1.627   4.257   2.714  0.3216  0.1725 -0.0053
 5609W        W 9128   0.937   9.369   9.812  0.5012 -0.1420  0.1057
 5610W        W 9129   9.203   2.828   4.428 -0.1051 -0.0522 -0.2731
 5611W        W 9130   0.965   1.951  11.557  0.2929 -0.0608  0.0869
 5612W        W 9131   8.970   9.597   2.807 -0.2542 -0.1128  0.1266
 5613W        W 9132   3.164   8.851   2.865 -0.0521  0.0018  0.1668
 5614W        W 9133   4.958   1.920   7.616  0.1336  0.0676 -0.0263
 5615W        W 9134   4.437   7.076  12.497  0.1904 -0.3292  0.4062
 5616W        W 9135   1.466   7.834   0.769 -0.0868  0.0118  0.0952
 5617W        W 9136   4.478   9.627   9.895 -0.0385  0.0316  0.3796
 5618W        W 9137   7.656   5.408   3.222  0.2545 -0.4638  0.1758
 5619W        W 9138   1.703   6.463   9.046 -0.1355  0.3132 -0.0927
 5620W        W 9139   6.937   5.558   9.568 -0.1137  0.3005  0.2123
 5621W        W 9140   2.462   6.805   3.094 -0.3482  0.1976  0.1949
 5622W        W 9141   8.103   1.838   0.831 -0.1085 -0.0709  0.0917
 5623W        W 9142   9.357   9.050   3.911 -0.1642  0.0448  0.1607
 5624W        W 9143   4.481   5.020   9.435 -0.1791  0.1744 -0.2651
 5625W        W 9144   2.193   8.053   0.781  0.1547  0.1232 -0.0982
 5626W        W 9145   4.072   8.474   0.177  0.0730  0.1033 -0.1334
 5627W        W 9146   8.326   1.220   1.834 -0.0000 -0.2589 -0.2535
 5628W        W 9147   1.114   8.672   3.165 -0.0704 -0.3652  0.0968
 5629W        W 9148   1.863   1.812   0.741  0.0895  0.4487 -0.3938
 5630W        W 9149   0.492   8.752   3.969 -0.1474 -0.2375  0.1493
 5631W        W 9150   4.780   2.974  10.401 -0.1544 -0.4257 -0.4911
 5632W        W 9151   0.713   0.429   1.003  0.0977  0.0385 -0.2757
 5633W        W 9152   5.035   1.818  12.104  0.0892  0.1688  0.1045
 5634W        W 9153   2.302   1.534  11.687 -0.1072  0.2402  0.3034
 5635W        W 9154   0.098   2.503   1.438 -0.1689 -0.2572 -0.4071
 5636W        W 9155   8.823   0.516   9.684  0.0699  0.0447  0.0159
 5637W        W 9156   1.830   0.573   9.872  0.0694 -0.2179  0.0638
 5638W        W 9157   3.427   5.405   1.345 -0.4208 -0.1675 -0.2046
 5639W        W 9158   2.043   8.509   3.889 -0.0870 -0.0839  0.1850
 5640W        W 9159   1.639   0.568   4.095 -0.0421  0.2097 -0.0941
 5641W        W 9160   1.384   8.054   1.679  0.2631 -0.0829  0.0099
 5642W        W 9161   9.546   4.005   3.414 -0.2371 -0.1560 -0.1670
 5643W        W 9162   6.371   1.864   3.913  0.1363 -0.1366  0.0789
 5644W        W 9163   6.816   5.572  10.508  0.0934  0.0948 -0.1407
 5645W        W 9164   6.664   2.429   9.620  0.0977 -0.0264  0.0258
 5646W        W 9165   5.832   4.804   3.719  0.0711  0.2175 -0.3264
 5647W        W 9166   8.832   0.244   8.122 -0.4468  0.0923  0.2665
 5648W        W 9167   5.528   7.115   2.671  0.1327  0.1770 -0.0168
 5649W        W 9168   7.889   4.656   2.605  0.0418 -0.1793 -0.1678
 5650W        W 9169   1.958   8.343   9.577  0.0725  0.0485  0.0799
 5651W        W 9170   0.582   6.800  11.932  0.2875 -0.0336  0.0574
 5652W        W 9171   5.702   9.555  11.860 -0.0716  0.0037 -0.0057
 5653W        W 9172   3.679   7.486  10.533  0.0124  0.0614 -0.0595
 5654W        W 9173   8.341   2.452  11.573 -0.3124 -0.0452 -0.1243
 5655W        W 9174   7.370   2.020   2.986  0.0519  0.5181 -0.1279
 5656W        W 9175   2.931   6.262  10.491 -0.0962  0.0352 -0.1030
 5657W        W 9176   1.568   5.004   4.925  0.1003 -0.2008  0.0594
 5658W        W 9177   9.395   5.528   8.088  0.1142 -0.0858  0.0236
 5659W        W 9178   2.090   1.191   3.665 -0.1741  0.0055 -0.0993
 5660W        W 9179   2.005   6.913   9.066 -0.0181  0.6914 -0.0596
 5661W        W 9180   7.751   1.156  11.049 -0.0787  0.1347  0.4093
 5662W        W 9181   5.954   6.267   2.909 -0.3036  0.1963  0.4704
 5663W        W 9182   4.578   2.945  11.378 -0.1753  0.2290  0.2082
 5664W        W 9183   8.400   2.777   0.448 -0.0637  0.1531 -0.0515
 5665W        W 9184   5.396   3.936  10.817 -0.1183  0.0972  0.0984
 5666W        W 9185   7.135   4.215  12.309 -0.1724  0.3194 -0.3032
 5667W        W 9186   0.450   3.886  10.259  0.1316  0.0315  0.2828
 5668W        W 9187   1.387   2.447   1.909 -0.1126  0.1612 -0.0103
 5669W        W 9188   8.932   3.093  11.998 -0.1288 -0.0836  0.2333
 5670W        W 9189   6.731   4.436  10.227 -0.1102  0.1139  0.1033
 5671W        W 9190   2.124   2.812   2.360 -0.1781 -0.4204  0.0740
 5672W        W 9191   4.565   1.837  10.708  0.1389 -0.1467 -0.0016
 5673W        W 9192   7.601   5.061   9.449 -0.3447 -0.0286  0.0840
 5674W        W 9193   7.159   9.082   9.773  0.1173  0.0579 -0.1916
 5675W        W 9194   6.139   8.199   2.403 -0.3810  0.3622  0.0065
 5676W        W 9195   0.086   8.528   1.704  0.1699 -0.1027 -0.1393
 5677W        W 9196   7.748   4.090  11.163 -0.0547 -0.3388 -0.1047
 5678W        W 9197   4.662   5.925   2.874 -0.1590  0.4176 -0.0228
 5679W        W 9198   2.411   9.176  11.838  0.0399  0.2265 -0.2510
 5680W        W 9199   5.585   0.963  10.954 -0.4501 -0.0499 -0.3201
 5681W        W 9200   3.817   6.467   9.723  0.0409 -0.0610  0.2564
 5682W        W 9201   5.213   8.206   0.877 -0.0079  0.1761 -0.2285
 5683W        W 9202   3.429   4.384   8.799 -0.0490 -0.1019 -0.2985
 5684W        W 9203   1.030   1.669   2.901  0.3324 -0.1139  0.1914
 5685W        W 9204   1.000   9.296   1.140  0.1347  0.1643  0.3764
 5686W        W 9205   4.837   2.455  11.526 -0.1161  0.2290  0.2507
 5687W        W 9206   8.898   1.350  11.348  0.1353  0.0411  0.0176
 5688W        W 9207   7.635   7.203   2.382 -0.1339  0.1147  0.0405
 5689W        W 9208   4.746   4.087   0.327  0.0486  0.0634  0.1455
 5690W        W 9209   1.131   4.443   1.363 -0.1570 -0.1645 -0.0152
 5691W        W 9210   2.284   3.444   0.846 -0.1474  0.0132  0.0055
 5692W        W 9211   5.587   0.530  11.142  0.1564  0.2276 -0.0983
 5693W        W 9212   2.787   2.745   8.878 -0.3293 -0.2420  0.0015
 5694W        W 9213   9.391   6.050  10.438  0.0025  0.0618  0.0091
 5695W        W 9214   1.278   4.614   0.488  0.2817  0.1768  0.0820
 5696W        W 9215   2.435   5.815   3.148 -0.1196 -0.1256 -0.1749
 5697W        W 9216   1.288   2.835  11.629  0.2276  0.4209 -0.2263
 5698W        W 9217   3.878   5.992  11.255 -0.1574  0.0235 -0.1719
 5699W        W 9218   1.811   1.001  12.093 -0.0630  0.2144  0.1308
 5700W        W 9219   4.288   4.309   1.742 -0.0814 -0.1001 -0.2286
 5701W        W 9220   6.233   2.185   1.118  0.1060 -0.2038 -0.3096
 5702W        W 9221   2.329   7.836  12.401  0.0013  0.1224  0.2060
 5703W        W 9222   4.638   7.634  11.753 -0.0349  0.0029  0.0183
 5704W        W 9223   7.360   2.220   2.319 -0.0778  0.3583 -0.2497
 5705W        W 9224   2.689   3.916   9.785 -0.1707 -0.0328 -0.3755
 5706W        W 9225   4.477   9.598  10.397 -0.1094 -0.1279  0.1008
 5707W        W 9226   1.643   3.037  10.943  0.2081  0.3624  0.0623
 5708W        W 9227   8.525   9.138   3.529 -0.0328  0.3777  0.1889
 5709W        W 9228   4.370   7.912   1.066  0.0777 -0.0961  0.0702
 5710W        W 9229   5.494   5.234  11.654  0.1744  0.1899 -0.1370
 5711W        W 9230   8.134   9.209   3.074 -0.2723 -0.2688  0.1913
 5712W        W 9231   3.540   3.755   2.874  0.1214  0.0470  0.0104
 5713W        W 9232   7.881   7.694   9.028  0.2637 -0.0349 -0.1982
 5714W        W 9233   2.938   0.299   1.539 -0.0838 -0.0504 -0.0078
 5715W        W 9234   3.744   0.705   3.813  0.1674 -0.1384 -0.2230
 5716W        W 9235   3.120   9.118   1.127  0.1089 -0.3944  0.0574
 5717W        W 9236   2.187   9.693   4.959  0.0989 -0.1760 -0.1085
 5718W        W 9237   4.216   9.531  11.442  0.0251  0.0958  0.1310
 5719W        W 9238   7.923   8.670  11.569  0.5397 -0.2008  0.3139
 5720W        W 9239   3.174   9.646   3.817  0.2440  0.0675 -0.2326
 5721W        W 9240   5.030   3.488  12.414 -0.0092 -0.0053 -0.0153
 5722W        W 9241   2.865   5.660   0.727  0.0645  0.0164 -0.0424
 5723W        W 9242   0.176   5.209   3.224 -0.0371  0.0815  0.1173
 5724W        W 9243   6.456   8.790  10.202 -0.2262 -0.0203  0.0235
 5725W        W 9244   1.960   0.468   0.501 -0.0711 -0.1328  0.2885
 5726W        W 9245   4.369   9.081   2.293  0.0031 -0.1069 -0.1977
 5727W        W 9246   2.229   0.030   9.819  0.4656 -0.0414  0.1093
 5728W        W 9247   2.361   7.849   2.222 -0.2556 -0.1350  0.1143
 5729W        W 9248   9.049   6.394   0.851 -0.4564 -0.0126 -0.0951
 5730W        W 9249   2.756   2.904   4.060 -0.0074  0.0559  0.1146
 5731W        W 9250   3.087   7.315   0.361 -0.1693 -0.0262  0.2535
 5732W        W 9251   4.782   1.504  10.356 -0.1480  0.0256 -0.0213
 5733W        W 9252   0.067   6.262   4.905 -0.0971  0.1190  0.1224
 5734W        W 9253   4.840   3.137   2.413  0.0732 -0.1065  0.2610
 5735W        W 9254   8.726   6.426   9.181  0.1449 -0.0609 -0.0783
 5736W        W 9255   3.316   0.423   8.874 -0.2703 -0.1913  0.0623
 5737W        W 9256   1.405   1.743  11.630 -0.1610  0.0780 -0.2565
 5738W        W 9257   0.413   7.061   9.671 -0.2343 -0.0871 -0.1068
 5739W        W 9258   4.433   0.406   9.616 -0.1151 -0.1367  0.3578
 5740W        W 9259   5.739   2.015  10.013  0.1398  0.2714  0.1764
 5741W        W 9260   4.019   2.657   2.601 -0.1528 -0.2812  0.2733
 5742W        W 9261   7.235   6.824  10.214 -0.0057 -0.0533  0.0406
 5743W        W 9262   5.894   0.508  11.537  0.0548  0.2349  0.1151
 5744W        W 9263   4.359   9.043  11.317 -0.4504  0.0323 -0.0539
 5745W        W 9264   8.203   1.975   2.289  0.2998  0.3831  0.2817
 5746W        W 9265   7.153   4.768   9.306 -0.1668 -0.2784 -0.2234
 5747W        W 9266   6.966   7.161  11.767 -0.1449  0.3995  0.0852
 5748W        W 9267   5.429   7.690  10.646 -0.1170 -0.2090 -0.0795
 5749W        W 9268   4.686   8.852   9.049  0.2845  0.0045 -0.1409
 5750W        W 9269   4.607   4.860   3.499 -0.0924 -0.1181 -0.0858
 5751W        W 9270   5.008   1.177   2.014  0.0950 -0.0692 -0.0489
 5752W        W 9271   8.767   4.318   8.478  0.2920  0.0339 -0.1298
 5753W        W 9272   9.379   4.686  10.845  0.1561 -0.1738 -0.3089
 5754W        W 9273   9.664   1.299   8.121 -0.1797 -0.1529 -0.0915
 5755W        W 9274   2.703   3.357  11.835 -0.1769 -0.2443 -0.3129
 5756W        W 9275   3.035   5.070   3.227  0.0564  0.2732  0.0821
 5757W        W 9276   3.358   5.768   3.504 -0.0823  0.2343  0.0167
 5758W        W 9277   4.368   2.906   0.513  0.2089 -0.2971 -0.0244
 5759W        W 9278   7.075   4.686   0.125 -0.1760  0.1848  0.1644
 5760W        W 9279   4.072   8.845   3.064 -0.1275 -0.3373 -0.0512
 5761W        W 9280   1.978   7.052   0.275  0.4041  0.2027  0.1731
 5762W        W 9281   1.658   0.431   3.166  0.2028 -0.0881 -0.1444
 5763W        W 9282   1.698   0.827   3.616  0.3194 -0.2979 -0.0530
 5764W        W 9283   0.544   2.388  10.350 -0.2405 -0.0633 -0.1314
 5765W        W 9284   8.304   5.529  12.557  0.1112  0.0820  0.1693
 5766W        W 9285   2.668   1.132  10.933 -0.1203 -0.0806 -0.2808
 5767W        W 9286   7.432   7.285   1.136 -0.2410  0.0717  0.1414
 5768W        W 9287   9.483   8.043   8.021  0.2184 -0.3587 -0.1422
 5769W        W 9288   9.417   4.126   8.670 -0.2230 -0.0340 -0.0432
 5770W        W 9289   1.470   8.753   1.142 -0.0246  0.2265  0.1089
 5771W        W 9290   2.310   6.167   9.709 -0.1604  0.2952  0.1383
 5772W        W 9291   7.215   3.140   9.113 -0.2366  0.0965 -0.1851
 5773W        W 9292   7.470   5.415   1.550  0.0749 -0.2461 -0.0937
 5774W        W 9293   5.639   5.570   3.043 -0.1573  0.0383  0.1217
 5775W        W 9294   2.042   4.792  10.979  0.1108  0.0246 -0.0123
 5776W        W 9295   3.951   4.075   2.738  0.0930  0.3242  0.2273
 5777W        W 9296   0.831   2.927  11.803 -0.2252 -0.0837 -0.0875
 5778W        W 9297   5.735   8.493  11.251 -0.0599  0.0486 -0.1507
 5779W        W 9298   6.107   4.374   9.141  0.2417 -0.1091  0.3189
 5780W        W 9299   2.931   4.099   0.978  0.2485  0.0496 -0.0899
 5781W        W 9300   0.324   6.981   1.038 -0.1243 -0.1287  0.3775
 5782W        W 9301   8.688   5.008  11.374 -0.1077  0.0516 -0.2112
 5783W        W 9302   9.218   3.339   9.012  0.1368  0.0748 -0.0482
 5784W        W 9303   5.793   0.484   2.063 -0.3815 -0.1618 -0.0578
 5785W        W 9304   0.860   5.207  10.709 -0.2950  0.2435  0.2278
 5786W        W 9305   3.874   8.635  11.829 -0.0270 -0.0556 -0.1895
 5787W        W 9306   7.594   0.241   2.639  0.0087  0.1397 -0.2290
 5788W        W 9307   1.559   3.847   0.007 -0.0259  0.0618  0.0934
 5789W        W 9308   9.119   8.449   2.417  0.0001 -0.2435  0.2538
 5790W        W 9309   9.332   9.514   9.780 -0.2202 -0.0120 -0.1062
 5791W        W 9310   4.527   6.762  10.378 -0.2816 -0.2324  0.1833
 5792W        W 9311   0.319   1.450  12.479 -0.0531 -0.0994  0.1166
 5793W        W 9312   8.467   8.522   9.801  0.0541  0.4308  0.2169
 5794W        W 9313   9.463   7.200   2.897  0.1160  0.3810 -0.0513
 5795W        W 9314   7.964   2.824   8.483  0.4080  0.0582  0.0517
 5796W        W 9315   4.704   3.873  12.430 -0.1332  0.2884  0.1547
 5797W        W 9316   0.707   2.939  10.330 -0.0492 -0.2843 -0.1599
 5798W        W 9317   7.174   8.278  10.148 -0.1497  0.0287 -0.0767
 5799W        W 9318   7.060   0.247   9.955 -0.0234 -0.1293 -0.0631
 5800W        W 9319   4.869   0.224  10.510 -0.1920  0.1088 -0.3682
 5801W        W 9320   5.320   6.275   0.990 -0.0168 -0.0349 -0.1838
 5802W        W 9321   2.946   1.455   1.163 -0.0566  0.3320  0.1146
 5803W        W 9322   1.260   1.635   4.749 -0.0723 -0.0503  0.1869
 5804W        W 9323   1.890   2.609   2.844  0.0340 -0.2225  0.1534
 5805W        W 9324   5.390   4.330  10.494  0.1363 -0.1870 -0.2139
 5806W        W 9325   9.412   6.050  11.446 -0.4781 -0.3524 -0.0809
 5807W        W 9326   2.608   3.512  10.601 -0.0859 -0.0793 -0.0757
 5808W        W 9327   7.876   8.408   1.416  0.3229 -0.1172  0.0137
 5809W        W 9328   0.927   3.231   9.361 -0.3083  0.2974 -0.2442
 5810W        W 9329   0.320   6.121   8.664  0.1983  0.0049 -0.0263
 5811W        W 9330   6.376   5.997   3.391  0.0311  0.1959  0.2030
 5812W        W 9331   9.239   8.156   2.818 -0.3126 -0.4676 -0.3691
 5813W        W 9332   6.796   6.594  11.906  0.0984  0.2968 -0.1973
 5814W        W 9333   3.125   3.132   8.797 -0.0461  0.2631 -0.0429
 5815W        W 9334   1.354   2.538   2.655 -0.1591 -0.0645 -0.1615
 5816W        W 9335   6.051   7.769   1.908  0.0699 -0.1836 -0.2390
 5817W        W 9336   7.174   6.540  10.751 -0.0798 -0.2629 -0.0293
 5818W        W 9337   2.590   4.323   8.856  0.4568  0.0607  0.1044
 5819W        W 9338   4.625   6.741   2.465 -0.1679 -0.0162  0.0791
 5820W        W 9339   6.601   0.055   2.476  0.1515  0.0196  0.2491
 5821W        W 9340   6.792   4.095  10.790 -0.2624  0.0681  0.0089
 5822W        W 9341   9.242   3.836   0.571  0.0429 -0.0752 -0.0554
 5823W        W 9342   7.991   5.801   8.951  0.1342  0.1187  0.2547
 5824W        W 9343   8.659   4.526   9.985  0.0238  0.2344 -0.1139
 5825W        W 9344   4.019   7.032   0.266  0.0170  0.1061 -0.2116
 5826W        W 9345   6.316   6.040   8.614 -0.0751  0.3115 -0.0842
 5827W        W 9346   7.223   5.352  11.341  0.0191 -0.2275 -0.0614
 5828W        W 9347   4.608   2.732   9.606  0.0033  0.1009  0.0862
 5829W        W 9348   9.635   6.946  10.463 -0.2234  0.2812  0.0298
 5830W        W 9349   2.812   3.879  11.755  0.0876 -0.1224 -0.1008
 5831W        W 9350   5.463   4.808   3.402  0.1143  0.3046  0.0801
 5832W        W 9351   0.964   4.893   8.006 -0.0059  0.1707 -0.0163
 5833W        W 9352   7.028   1.368  10.322  0.3778  0.0503  0.1570
 5834W        W 9353   6.888   8.318   3.186 -0.0276  0.1908 -0.1327
 5835W        W 9354   1.671   1.427   3.781  0.2617 -0.0541  0.6241
 5836W        W 9355   1.874   8.922   1.402 -0.0823 -0.2403 -0.0099
 5837W        W 9356   7.997   0.026   9.090 -0.0293 -0.0814 -0.1260
 5838W        W 9357   6.329   1.109  10.841  0.3364 -0.2709  0.1410
 5839W        W 9358   5.067   1.924  10.558 -0.2450  0.0695  0.1180
 5840W        W 9359   3.047   3.092   9.295  0.1045  0.0846  0.0562
 5841W        W 9360   1.589   5.237   2.463 -0.0620  0.2201 -0.2836
 5842W        W 9361   7.215   8.059   2.475  0.1477 -0.0215  0.4946
 5843W        W 9362   5.449   3.729   9.226 -0.0721 -0.1059  0.1429
 5844W        W 9363   3.211   2.889   4.169  0.2672 -0.3324 -0.4538
 5845W        W 9364   0.976   6.149   0.089  0.1613 -0.3794  0.0402
 5846W        W 9365   2.020   2.894   4.697 -0.0785 -0.3420  0.1980
 5847W        W 9366   2.303   8.339  12.503 -0.1805  0.0434  0.0761
 5848W        W 9367   6.833   2.826   9.344 -0.2800 -0.3173 -0.4015
 5849W        W 9368   3.020   9.539   0.834 -0.3848 -0.0462  0.0356
 5850W        W 9369   8.221   3.944   8.365  0.1192  0.2554  0.0261
 5851W        W 9370   5.931   9.076   1.891 -0.0670 -0.0546 -0.0487
 5852W        W 9371   7.466   2.388  10.661 -0.3139  0.1437 -0.1571
 5853W        W 9372   0.166   2.919   1.641  0.0402  0.1800 -0.0086
 5854W        W 9373   2.885   8.447  11.532 -0.1937 -0.4728 -0.1618
 5855W        W 9374   8.228   9.694   2.916 -0.1229 -0.0609 -0.1631
 5856W        W 9375   7.720   4.315   4.546 -0.0580 -0.4553  0.0703
 5857W        W 9376   6.363   0.410  10.139  0.0178  0.1731 -0.1324
 5858W        W 9377   9.638   6.915   9.912 -0.2749 -0.0498  0.0596
 5859W        W 9378   5.721   9.210  10.506  0.2486  0.0702  0.1086
 5860W        W 9379   6.310   4.687   8.786 -0.0467 -0.0290  0.0041
 5861W        W 9380   0.309   1.308   1.928 -0.1397 -0.3135  0.0355
 5862W        W 9381   0.915   3.461  12.065 -0.2461  0.2083 -0.1007
 5863W        W 9382   3.501   4.476  11.890  0.0366  0.1087 -0.0242
 5864W        W 9383   8.859   7.932  11.895 -0.3601  0.3626 -0.1364
 5865W        W 9384   0.792   0.707   0.539 -0.0845 -0.3054  0.0120
 5866W        W 9385   1.715   5.135   8.531 -0.0041 -0.1914 -0.2072
 5867W        W 9386   4.982   1.284   1.005  0.1289  0.1111  0.1597
 5868W        W 9387   8.180   8.966   9.457  0.1015  0.1891 -0.1953
 5869W        W 9388   9.422   8.949   1.647  0.0168  0.3730 -0.0489
 5870W        W 9389   1.714   2.746   0.240  0.3213 -0.0220 -0.3834
 5871W        W 9390   0.066   5.893  10.150 -0.0078 -0.3043 -0.0810
 5872W        W 9391   0.227   7.967   2.397  0.0542  0.0530  0.1447
 5873W        W 9392   1.358   8.725  10.261 -0.1243 -0.0989  0.0380
 5874W        W 9393   4.692   9.096  10.223 -0.0042 -0.1991  0.0112
 5875W        W 9394   4.242   1.281   2.026 -0.0606  0.0413  0.0469
 5876W        W 9395   6.878   6.242   8.392 -0.0769  0.2533  0.1462
 5877W        W 9396   0.109   1.849  12.193  0.0611 -0.0221  0.1613
 5878W        W 9397   6.120   0.708   1.493  0.1724 -0.1025 -0.1275
 5879W        W 9398   4.936   4.663  11.088 -0.1851 -0.2224  0.0240
 5880W        W 9399   4.901   4.532  10.442  0.0206  0.2442  0.0921
 5881W        W 9400   6.592   5.108  12.007  0.2901 -0.0402 -0.1383
 5882W        W 9401   6.175   1.508   4.238 -0.1839 -0.0848 -0.0439
 5883W        W 9402   2.203   3.894  10.722  0.2910  0.1380  0.1633
 5884W        W 9403   3.284   5.113  11.207  0.0259 -0.1279 -0.1465
 5885W        W 9404   8.626   9.122  11.273 -0.0824 -0.1124  0.0407
 5886W        W 9405   7.048   3.173  10.108 -0.1145  0.1803 -0.3484
 5887W        W 9406   7.865   1.771  10.259  0.0193  0.1773  0.0686
 5888W        W 9407   1.806   7.377   9.039 -0.0093 -0.0695 -0.2045
 5889W        W 9408   1.721   1.605   2.379  0.2690  0.3062 -0.0148
 5890W        W 9409   6.017   0.224   1.346  0.0482  0.3212  0.0548
 5891W        W 9410   6.239   7.067  12.353 -0.1265 -0.5131 -0.2338
 5892W        W 9411   8.470   1.644  11.449  0.0242  0.0957  0.0240
 5893W        W 9412   6.365   4.179   2.356 -0.0889 -0.1721  0.0878
 5894W        W 9413   5.103   0.276  11.240  0.0066  0.0855  0.0077
 5895W        W 9414   1.177   0.071  11.256  0.1749  0.3815  0.2348
 5896W        W 9415   5.941   7.009  10.488 -0.0921 -0.2761 -0.3031
 5897W        W 9416   9.614   3.695   2.550  0.2752  0.1662 -0.3792
 5898W        W 9417   9.305   2.119   3.202 -0.0406 -0.1858  0.1162
 5899W        W 9418   2.402   2.506   8.600  0.2660  0.1790 -0.0906
 5900W        W 9419   5.319   1.140   8.708  0.0088 -0.2464  0.3960
 5901W        W 9420   3.426   3.169  10.713 -0.0440  0.0399 -0.1035
 5902W        W 9421   7.861   5.825   3.485  0.2225 -0.2880  0.1121
 5903W        W 9422   4.383   0.355   3.313  0.0588  0.1086 -0.2505
 5904W        W 9423   6.312   8.996   2.859  0.0879 -0.4167 -0.1704
 5905W        W 9424   3.288   1.829   1.263  0.0183 -0.0290 -0.2556
 5906W        W 9425   2.761   8.688   1.161 -0.1423  0.1673  0.2277
 5907W        W 9426   8.446   6.095   2.291  0.0941  0.2506 -0.0250
 5908W        W 9427   5.576   0.712   9.664  0.1544 -0.2486 -0.3943
 5909W        W 9428   2.614   1.357   8.061 -0.0284  0.1876 -0.0767
 5910W        W 9429   1.012   0.066   1.125 -0.2961  0.0035 -0.1401
 5911W        W 9430   9.375   6.377   2.017 -0.0399  0.0494  0.1984
 5912W        W 9431   4.061   4.515   8.240  0.1520 -0.0197  0.0280
 5913W        W 9432   1.438   7.513  10.895  0.0609  0.0439  0.0835
 5914W        W 9433   6.818   1.844   3.168 -0.0394  0.1816  0.0081
 5915W        W 9434   1.357   5.650   0.372  0.1428  0.0112  0.2630
 5916W        W 9435   5.497   5.295   9.851 -0.1703  0.0499  0.0974
 5917W        W 9436   3.493   3.457  12.118  0.1573 -0.1597  0.2095
 5918W        W 9437   7.380   9.187   3.120 -0.1266 -0.1624  0.0533
 5919W        W 9438   3.022   9.244   2.594 -0.0700 -0.0460  0.0201
 5920W        W 9439   9.188   8.729   4.187 -0.1202  0.3283 -0.0822
 5921W        W 9440   5.204   2.764   9.472  0.2372  0.0852  0.2283
 5922W        W 9441   5.397   7.751  10.106  0.0392  0.0011 -0.0925
 5923W        W 9442   4.946   4.165   2.256 -0.1990 -0.0771  0.0558
 5924W        W 9443   2.932   3.880   1.905  0.0828 -0.0132  0.1960
 5925W        W 9444   4.045   0.548   9.279 -0.0536 -0.1320  0.0719
 5926W        W 9445   7.954   3.818   3.555 -0.0278 -0.0671  0.1916
 5927W        W 9446   4.352   1.524   1.593  0.1149  0.0807 -0.1848
 5928W        W 9447   8.049   4.050   8.851 -0.1865 -0.0796 -0.1869
 5929W        W 9448   7.689   3.748   2.758 -0.3102  0.0110 -0.0583
 5930W        W 9449   7.862   0.552  11.684 -0.0225 -0.3295  0.2909
 5931W        W 9450   1.596   3.528  11.166 -0.1042  0.0430 -0.0683
 5932W        W 9451   6.132   1.597   1.266  0.1919 -0.0066  0.0138
 5933W        W 9452   7.331   6.812   0.886 -0.1714  0.2994 -0.3679
 5934W        W 9453   9.163   2.028   1.189  0.1771  0.0766  0.3343
 5935W        W 9454   8.449   6.056   8.985  0.2566  0.2163  0.1183
 5936W        W 9455   3.796   4.186   0.828 -0.0799 -0.0059 -0.1121
 5937W        W 9456   0.831   4.679   9.972  0.2499  0.0391 -0.1350
 5938W        W 9457   4.039   9.319   9.650  0.3263  0.2188 -0.0332
 5939W        W 9458   7.622   1.664   1.566 -0.0706  0.0337 -0.1892
 5940W        W 9459   5.410   2.013  12.372  0.0513  0.0551  0.1455
 5941W        W 9460   3.089   0.411  10.118  0.1610  0.0107  0.3268
 5942W        W 9461   3.199   7.901   3.280 -0.0384  0.3804 -0.1385
 5943W        W 9462   8.642   2.365   0.199 -0.0772 -0.4580 -0.1367
 5944W        W 9463   3.851   8.971   0.594 -0.0011 -0.1623  0.0193
 5945W        W 9464   2.148   9.091  11.249 -0.4635 -0.1870  0.0828
 5946W        W 9465   1.397   7.789   0.250  0.2821 -0.1933 -0.1804
 5947W        W 9466   5.083   5.338   3.634  0.1655 -0.0058  0.1863
 5948W        W 9467   4.752   2.717   8.364 -0.0554 -0.0488  0.1268
 5949W        W 9468   5.611   4.780   1.342  0.0035 -0.2706 -0.2169
 5950W        W 9469   5.565   2.898   9.810  0.0083 -0.1730 -0.1642
 5951W        W 9470   1.321   9.585  10.105  0.2476 -0.0508  0.3917
 5952W        W 9471   1.795   7.915  10.297 -0.1661  0.2556  0.0979
 5953W        W 9472   6.123   3.034   2.997  0.0861 -0.3292 -0.0932
 5954W        W 9473   7.572   1.192   9.699  0.4084 -0.2409 -0.1348
 5955W        W 9474   2.665   2.335   0.901 -0.3960  0.1836  0.1886
 5956W        W 9475   7.287   1.079   0.324 -0.0729  0.1698  0.0819
 5957W        W 9476   8.976   8.335  11.512  0.0110 -0.0830 -0.2864
 5958W        W 9477   8.228   3.089   8.802 -0.3295 -0.0788  0.0049
 5959W        W 9478   3.559   9.597   9.557  0.1332 -0.2619 -0.0386
 5960W        W 9479   1.707   2.438  10.268  0.4095  0.0997 -0.0612
 5961W        W 9480   3.082   2.025   0.097  0.1649  0.1968  0.2083
 5962W        W 9481   1.802   1.658   0.258 -0.0820 -0.3903 -0.0327
 5963W        W 9482   1.110   0.789  10.111 -0.1019  0.0779 -0.0230
 5964W        W 9483   7.291   8.245   2.945  0.1943 -0.2666 -0.0540
 5965W        W 9484   6.424   6.439   0.972 -0.0527 -0.3240 -0.2110
 5966W        W 9485   2.775   8.845  10.604  0.0063  0.3554  0.0851
 5967W        W 9486   8.975   8.816   1.870 -0.1213  0.0718  0.4011
 5968W        W 9487   7.383   2.603   0.069 -0.1070  0.0003 -0.3177
 5969W        W 9488   8.807   1.144   2.193  0.1892  0.1085  0.0336
 5970W        W 9489   0.348   9.109  11.228  0.1119 -0.2542 -0.0446
 5971W        W 9490   2.052   9.571   7.733  0.2375  0.1956  0.1008
 5972W        W 9491   8.276   7.109   2.420  0.1983  0.0325 -0.0368
 5973W        W 9492   3.077   2.492  11.783 -0.1123 -0.2891 -0.0924
 5974W        W 9493   2.860   2.454   7.721  0.3608 -0.0072 -0.1576
 5975W        W 9494   2.077   5.382   3.142 -0.0407  0.2236 -0.1013
 5976W        W 9495   0.306   3.335  10.626 -0.0305 -0.2747 -0.4145
 5977W        W 9496   1.046   9.036   1.582 -0.0617  0.3467  0.2031
 5978W        W 9497   9.140   1.446   3.823  0.2062  0.3418  0.1195
 5979W        W 9498   7.292   2.740   1.132  0.0760 -0.2939  0.1257
 5980W        W 9499   6.364   1.426   3.720 -0.3146 -0.3817 -0.0854
 5981W        W 9500   6.427   1.635   2.291 -0.2677 -0.1550  0.0567
 5982W        W 9501   8.704   4.210   0.146 -0.0163 -0.0799  0.1453
 5983W        W 9502   7.184   7.295  10.305 -0.1622  0.0827  0.0560
 5984W        W 9503   5.912   4.462   2.660  0.0498 -0.0755 -0.0865
 5985W        W 9504   2.955   5.358   1.100  0.0724  0.2093 -0.4235
 5986W        W 9505   6.758   6.101   2.285 -0.0407 -0.0074 -0.0696
 5987W        W 9506   0.191   6.891  10.953  0.2348 -0.1331  0.1161
 5988W        W 9507   1.987   6.026   0.178  0.1592 -0.0230  0.2011
 5989W        W 9508   2.171   5.711   2.586  0.3063  0.3638  0.2895
 5990W        W 9509   4.841   1.712   9.782  0.0263 -0.1707  0.0024
 5991W        W 9510   0.435   1.135   0.726  0.2271  0.1105  0.2120
 5992W        W 9511   3.768   3.342   0.030  0.4005 -0.0270  0.2349
 5993W        W 9512   3.071   6.654  11.947 -0.3375 -0.0791  0.1185
 5994W        W 9513   4.634   0.027   2.972 -0.4077 -0.0663 -0.0904
 5995W        W 9514   7.722   4.841   0.359 -0.1715  0.0918 -0.0193
 5996W        W 9515   9.011   7.875   4.718 -0.2197  0.1106  0.1966
 5997W        W 9516   1.776   6.518  10.554  0.1997 -0.2453 -0.2063
 5998W        W 9517   8.390   9.378   9.359 -0.4536  0.1942  0.1949
 5999W        W 9518   5.168   7.488   9.262  0.0850 -0.1066 -0.0138
 6000W        W 9519   9.673   4.549  11.310 -0.2031 -0.3342  0.2970
 6001W        W 9520   2.441   4.025   2.047  0.1612 -0.0153 -0.1769
 6002W        W 9521   6.747   9.031   4.043 -0.2809 -0.0237 -0.2023
 6003W        W 9522   7.118   8.611   1.854 -0.1922  0.0629 -0.0921
 6004W        W 9523   1.033   0.337  11.797 -0.2521 -0.1603  0.0459
 6005W        W 9524   2.588   9.355   3.300  0.1546 -0.0386 -0.2716
 6006W        W 9525   2.378   7.463   9.469  0.0967  0.1230 -0.0036
 6007W        W 9526   1.258   3.993   2.501 -0.1494 -0.0824 -0.0736
 6008W        W 9527   8.740   7.240  11.172  0.0920  0.2078 -0.0238
 6009W        W 9528   1.230   4.224  11.805  0.0548 -0.0838 -0.0576
 6010W        W 9529   6.246   7.203   0.271  0.0203  0.1266 -0.1596
 6011W        W 9530   5.354   2.484   2.884 -0.2588  0.3240 -0.2383
 6012W        W 9531   5.135   5.410   0.702  0.0602 -0.0029 -0.0698
 6013W        W 9532   3.810   8.260   3.828  0.0729 -0.0306  0.0584
 6014W        W 9533   6.707   3.550   1.406  0.2018  0.1715 -0.1935
 6015W        W 9534   3.917   4.517   2.438 -0.2721 -0.1395 -0.0674
 6016W        W 9535   9.370   4.914   3.744 -0.4571  0.1921  0.2677
 6017W        W 9536   0.534   3.746  11.339  0.1737  0.1258 -0.5793
 6018W        W 9537   0.986   1.044   2.258  0.2591 -0.3938  0.1013
 6019W        W 9538   1.092   1.283  12.365 -0.0651 -0.2673  0.1013
 6020W        W 9539   6.716   0.305   0.141 -0.0319 -0.0795 -0.0685
 6021W        W 9540   4.099   3.218   1.347 -0.2280 -0.0734  0.1934
 6022W        W 9541   3.903   9.360  10.571 -0.1231 -0.0717 -0.0959
 6023W        W 9542   3.813   3.792  12.399  0.1922  0.0629  0.0445
 6024W        W 9543   9.040   0.100   0.779 -0.2369  0.0968 -0.0495
 6025W        W 9544   0.153   3.853   8.655 -0.0039  0.2473 -0.2849
 6026W        W 9545   4.401   5.929   1.461 -0.0176  0.2580  0.2031
 6027W        W 9546   8.558   3.409  11.335 -0.0222  0.3636  0.0902
 6028W        W 9547   2.356   6.223   4.152 -0.3076  0.0760  0.0059
 6029W        W 9548   2.133   5.351  11.473 -0.1947 -0.0269 -0.1080
 6030W        W 9549   7.382   6.171   1.554  0.0672  0.0880 -0.1224
 6031W        W 9550   0.795   1.613  12.542  0.0921 -0.0629 -0.4031
 6032W        W 9551   4.556   6.123  12.038 -0.0519  0.0516 -0.1443
 6033W        W 9552   2.143   9.340   3.536  0.1286 -0.0162  0.2018
 6034W        W 9553   6.936   2.849   0.195  0.0754  0.2568 -0.2095
 6035W        W 9554   7.140   7.043   2.315 -0.3739 -0.3800 -0.2325
 6036W        W 9555   1.536   1.689   2.802  0.0213 -0.0294 -0.2929
 6037W        W 9556   0.362   3.966   9.720  0.0329  0.1941  0.0123
 6038W        W 9557   3.521   9.165   0.018  0.0220  0.0910 -0.0847
 6039W        W 9558   4.851   0.436   9.360 -0.1750  0.0197  0.0032
 6040W        W 9559   7.287   3.554   9.759  0.1043  0.2135  0.2621
 6041W        W 9560   0.694   5.128  11.750 -0.2370 -0.1220  0.1142
 6042W        W 9561   4.693   8.452   0.381 -0.1408  0.0369  0.0066
 6043W        W 9562   9.367   7.742   4.265 -0.2990 -0.1736 -0.2991
 6044W        W 9563   9.084   5.754  11.712  0.1495 -0.0493  0.2499
 6045W        W 9564   5.755   2.610  10.645  0.1903  0.0796 -0.1586
 6046W        W 9565   6.587   0.819  10.543  0.2733  0.0601  0.2280
 6047W        W 9566   9.622   9.115   0.368  0.1041  0.0416 -0.1915
 6048W        W 9567   1.372   9.152  11.901  0.1175  0.1469  0.0113
 6049W        W 9568   4.489   4.043  11.761  0.0308  0.0181 -0.0755
 6050W        W 9569   2.658   2.504  12.488  0.4038  0.1143  0.0187
 6051W        W 9570   5.823   1.592  11.431 -0.2077 -0.1484  0.1699
 6052W        W 9571   9.186   5.382  12.006  0.0059 -0.1278  0.0789
 6053W        W 9572   4.653   5.560  10.900  0.2145 -0.2729  0.0669
 6054W        W 9573   2.774   6.879   0.278 -0.0740 -0.0765  0.2093
 6055W        W 9574   6.636   5.115   3.169  0.1266 -0.0997 -0.0392
 6056W        W 9575   7.587   4.087  10.171 -0.0511  0.1532  0.1754
 6057W        W 9576   7.386   9.013   2.134  0.0808 -0.4243  0.0522
 6058W        W 9577   2.564   2.201   9.106  0.0446  0.3034  0.1083
 6059W        W 9578   0.056   5.316   9.257 -0.1449  0.2143 -0.3441
 6060W        W 9579   9.698   4.124  10.106 -0.4071  0.0148 -0.0034
 6061W        W 9580   9.031   9.302   9.348 -0.1589  0.0968  0.2133
 6062W        W 9581   1.807   9.336   9.613  0.0091 -0.1038  0.0086
 6063W        W 9582   5.327   0.528   0.706 -0.2410 -0.3860  0.1597
 6064W        W 9583   6.005   6.132   3.775 -0.1066 -0.1333  0.0868
 6065W        W 9584   6.372   5.095  11.217 -0.1619 -0.1001  0.2433
 6066W        W 9585   2.358   8.236   8.755 -0.2044  0.1430  0.0233
 6067W        W 9586   8.287   0.628   0.879 -0.0425  0.1914 -0.2268
 6068W        W 9587   1.972   0.879   2.345 -0.1921 -0.1414 -0.1362
 6069W        W 9588   9.191   2.229   0.613 -0.0025 -0.0262  0.1090
 6070W        W 9589   9.491   8.327   0.165  0.1462 -0.0713  0.4228
 6071W        W 9590   6.868   0.777  11.551 -0.1058  0.1653  0.3352
 6072W        W 9591   7.683   5.788   2.395 -0.0308 -0.0375 -0.0390
 6073W        W 9592   6.362   6.233   1.450  0.1137 -0.2195  0.2124
 6074W        W 9593   4.282   9.410   3.005  0.4741 -0.0976 -0.3188
 6075W        W 9594   9.444   8.000  11.244  0.4383 -0.1339  0.2765
 6076W        W 9595   4.368   6.850  11.021 -0.3708  0.2137  0.0605
 6077W        W 9596   9.193   1.365   9.582  0.2614 -0.0517 -0.2565
 6078W        W 9597   1.199   3.345  10.236  0.2303 -0.1324  0.2889
 6079W        W 9598   5.039   9.086   9.701 -0.0620  0.1304 -0.2009
 6080W        W 9599   6.173   0.230   2.242  0.0548 -0.0306  0.1869
 6081W        W 9600   7.521   7.763   1.123  0.1770 -0.2803 -0.1165
 6082W        W 9601   6.949   8.461   8.815 -0.0055  0.1762  0.0099
 6083W        W 9602   8.687   3.301   9.074 -0.0906  0.2357 -0.1917
 6084W        W 9603   1.607   2.071  12.003 -0.1196  0.0980  0.1581
 6085W        W 9604   2.181   1.206  11.284  0.1698 -0.1798  0.2397
 6086W        W 9605   0.191   5.718   3.338  0.0632  0.0982 -0.1707
 6087W        W 9606   9.171   3.991   3.929  0.2733  0.1688 -0.1068
 6088W        W 9607   5.724   7.091   1.681  0.0481  0.3920 -0.4113
 6089W        W 9608   6.046   1.148  11.381  0.1129 -0.0754 -0.1795
 6090W        W 9609   1.051   8.276   7.943 -0.0663  0.0970 -0.0930
 6091W        W 9610   9.053   9.321   1.771 -0.3319  0.0182  0.2403
 6092W        W 9611   5.361   6.210  11.516  0.2945  0.3995 -0.0826
 6093W        W 9612   4.133   4.060  10.925  0.0153  0.2855  0.2740
 6094W        W 9613   1.500   5.701  10.444  0.2186  0.3794 -0.1572
 6095W        W 9614   7.040   0.754   8.621  0.2585 -0.1186  0.2686
 6096W        W 9615   0.313   4.124  11.067 -0.3041  0.2035  0.0692
 6097W        W 9616   0.742   8.319   4.665  0.4846 -0.0162  0.1165
 6098W        W 9617   5.721   6.736  11.586  0.0708  0.2417  0.0219
 6099W        W 9618   4.399   1.311   8.421  0.0800  0.0669  0.1557
 6100W        W 9619   8.167   6.523  11.812  0.1642  0.2822  0.1406
 6101W        W 9620   4.104   5.874   2.492  0.1365  0.0377  0.3575
 6102W        W 9621   5.799   4.819  11.300 -0.0144 -0.0399  0.0206
 6103W        W 9622   5.094   6.576  10.181  0.0230 -0.1833  0.1095
 6104W        W 9623   9.082   8.924  12.515 -0.3437  0.0681  0.1508
 6105W        W 9624   8.366   0.522  10.458  0.2999  0.0275 -0.0658
 6106W        W 9625   8.612   2.364   2.178 -0.5186  0.1987 -0.0670
 6107W        W 9626   9.146   4.000  11.529  0.0287 -0.0509  0.3225
 6108W        W 9627   8.449   8.636   0.581  0.0220 -0.1221 -0.1946
 6109W        W 9628   2.467   8.164  11.458 -0.0650  0.0855  0.0442
 6110W        W 9629   5.474   4.654  12.120  0.0117 -0.1879 -0.1999
 6111W        W 9630   1.883   4.920   4.112  0.0864 -0.1780 -0.0543
 6112W        W 9631   3.727   1.769  10.393 -0.2240 -0.1461  0.1356
 6113W        W 9632   1.277   6.544   8.652 -0.1645 -0.1506 -0.1175
 6114W        W 9633   3.691   5.195  10.924  0.1955  0.3690 -0.0099
 6115W        W 9634   2.010   6.441  11.406  0.2106  0.4299 -0.0956
 6116W        W 9635   7.431   1.431   2.342 -0.0922 -0.0780 -0.1450
 6117W        W 9636   5.958   1.383   1.792 -0.3123  0.1211 -0.1172
 6118W        W 9637   3.877   0.828  10.285  0.1099 -0.5311  0.0361
 6119W        W 9638   9.545   5.136  10.684  0.0475 -0.1495 -0.0578
 6120W        W 9639   2.018   3.493   4.029  0.1085 -0.0830  0.1366
 6121W        W 9640   4.382   8.609  10.916 -0.1635  0.0594  0.2754
 6122W        W 9641   5.125   2.108   4.696  0.1087 -0.0681  0.1264
 6123W        W 9642   2.452   3.063   1.977  0.1557 -0.0445  0.2597
 6124W        W 9643   8.940   2.281   3.593  0.2269  0.3102 -0.0730
 6125W        W 9644   3.190   4.833  11.638  0.0331 -0.0741 -0.1628
 6126W        W 9645   8.651   3.845  11.603  0.2607 -0.0632 -0.0899
 6127W        W 9646   0.463   4.684   9.578 -0.0175  0.1138  0.2037
 6128W        W 9647   0.157   2.488  11.289 -0.0067  0.1492 -0.0438
 6129W        W 9648   6.357   7.701   2.373 -0.0708 -0.0931 -0.2049
 6130W        W 9649   4.412   7.887   9.672  0.2613  0.0455  0.1343
 6131W        W 9650   7.882   5.311   0.383  0.1254 -0.1534  0.1449
 6132W        W 9651   8.559   2.952   9.605  0.2182 -0.1417  0.1669
 6133W        W 9652   6.563   5.875  12.504 -0.1760 -0.3310 -0.2007
 6134W        W 9653   7.574   1.430   8.330  0.1834  0.0627  0.2336
 6135W        W 9654   0.701   1.322  11.201 -0.0402  0.0185  0.0203
 6136W        W 9655   8.556   2.962  11.564  0.1047  0.2630  0.0225
 6137W        W 9656   4.289   2.671   8.285  0.1093 -0.1672  0.1131
 6138W        W 9657   6.007   4.483   1.470  0.1447  0.1398 -0.0731
 6139W        W 9658   0.475   1.732   3.692  0.2308  0.2109 -0.1072
 6140W        W 9659   7.618   0.356   9.290  0.0611 -0.0139 -0.1204
 6141W        W 9660   4.053   5.540  11.118  0.0300 -0.0203 -0.1242
 6142W        W 9661   2.167   4.788   0.827 -0.2583  0.0879 -0.0775
 6143W        W 9662   9.049   4.729   9.860 -0.1522  0.1553  0.0282
 6144W        W 9663   3.372   9.693   4.323 -0.1187 -0.1179  0.0064
 6145W        W 9664   5.968   1.226   0.314 -0.1371 -0.0234 -0.0412
 6146W        W 9665   2.897   7.012   4.247  0.0824 -0.2109 -0.2092
 6147W        W 9666   9.071   1.819  12.194  0.1413 -0.0406  0.2110
 6148W        W 9667   2.293   3.161  10.362 -0.1283  0.0238  0.1132
 6149W        W 9668   6.630   1.889  11.368 -0.1358  0.0002  0.1545
 6150W        W 9669   9.497   3.985   0.087 -0.1516  0.2503 -0.1023
 6151W        W 9670   0.694   8.066   3.501  0.1591 -0.1162  0.0914
 6152W        W 9671   2.044   4.049   0.324 -0.0421  0.1691  0.2039
 6153W        W 9672   4.866   7.492   1.395 -0.1962  0.0416 -0.0917
 6154W        W 9673   8.222   4.236  12.523  0.0439  0.0725  0.1407
 6155W        W 9674   1.130   8.016   2.065 -0.0865 -0.3581 -0.1179
 6156W        W 9675   9.437   5.833   2.044  0.1462 -0.0869 -0.0684
 6157W        W 9676   9.671   4.466   8.066  0.1547 -0.3369  0.1538
 6158W        W 9677   5.729   8.143   2.661  0.1058  0.4125  0.1020
 6159W        W 9678   5.600   6.850   0.903  0.3262 -0.2089 -0.0030
 6160W        W 9679   2.375   2.582  11.516  0.0018  0.1255  0.2062
 6161W        W 9680   0.873   7.441   0.455 -0.2030  0.5572  0.4154
 6162W        W 9681   7.669   8.220  11.210 -0.1453  0.0108 -0.0123
 6163W        W 9682   9.331   7.192   1.917 -0.0917  0.0248  0.2805
 6164W        W 9683   4.495   4.677   0.435 -0.1173  0.2154  0.3147
 6165W        W 9684   6.270   3.443  11.150 -0.0476 -0.0376 -0.0435
 6166W        W 9685   5.083   8.148   1.928 -0.1134  0.1972 -0.1107
 6167W        W 9686   7.176   4.295  11.772  0.4560  0.1291 -0.2425
 6168W        W 9687   2.459   8.657   9.967 -0.2495 -0.0537  0.0945
 6169W        W 9688   7.614   8.657   8.155 -0.0757  0.1939 -0.3038
 6170W        W 9689   4.583   1.942  10.201 -0.1165 -0.1459 -0.3011
 6171W        W 9690   2.912   8.886  10.123  0.4820  0.2070  0.1855
 6172W        W 9691   5.517   3.828  11.799  0.0773  0.2534  0.1325
 6173W        W 9692   6.482   2.331  11.537 -0.0170  0.0642 -0.2986
 6174W        W 9693   3.714   6.254   3.280 -0.0815 -0.0052 -0.0666
 6175W        W 9694   2.694   2.903  10.199 -0.3551  0.0390  0.0752
 6176W        W 9695   7.078   9.593   3.397  0.3716  0.0763 -0.0002
 6177W        W 9696   4.034   2.569  10.736  0.4449  0.0232  0.1709
 6178W        W 9697   8.853   7.407  10.126 -0.0426 -0.3670 -0.3465
 6179W        W 9698   3.904   5.162   3.638 -0.1787 -0.4114 -0.0452
 6180W        W 9699   7.654   8.125   9.853  0.3333  0.0067 -0.0341
 6181W        W 9700   8.898   3.956   2.113 -0.3485  0.1022 -0.1665
 6182W        W 9701   7.558   0.835   3.909 -0.2857 -0.0167  0.2552
 6183W        W 9702   7.186   7.386  12.240 -0.2968 -0.5133  0.0350
 6184W        W 9703   0.230   4.516   0.915 -0.6500  0.0658  0.1259
 6185W        W 9704   6.131   3.065   4.140  0.4719 -0.3037 -0.1478
 6186W        W 9705   6.635   9.133   3.547  0.3131  0.1422  0.6591
 6187W        W 9706   7.655   4.486  10.878  0.1262  0.1065 -0.0116
 6188W        W 9707   2.207   4.964   9.783 -0.0083 -0.0371  0.1136
 6189W        W 9708   5.473   9.029  11.482  0.0957  0.4257 -0.3060
 6190W        W 9709   4.665   5.720   8.816 -0.3112  0.1882 -0.0473
 6191W        W 9710   7.395   3.238   1.205  0.2646  0.3465  0.3136
 6192W        W 9711   7.726   9.303  11.031 -0.0011  0.0313  0.1941
 6193W        W 9712   3.839   2.621   8.797  0.2402  0.0310 -0.0350
 6194W        W 9713   0.530   5.077   9.315 -0.2590  0.1899 -0.0559
 6195W        W 9714   3.151   5.228  10.249  0.1162  0.0314  0.0963
 6196W        W 9715   1.349   8.887   0.048 -0.3982 -0.2232 -0.0879
 6197W        W 9716   2.871   8.282   2.373 -0.2046  0.2184  0.0735
 6198W        W 9717   8.428   0.635   2.815  0.5362 -0.3543  0.0795
 6199W        W 9718   1.659   9.342   0.113  0.0628 -0.3144  0.1172
 6200W        W 9719   1.790   8.447   0.830 -0.1162  0.0288 -0.1059
 6201W        W 9720   5.693   3.291   3.635  0.1154 -0.0422  0.0266
 6202W        W 9721   5.025   4.734   7.750  0.2102 -0.0270  0.1792
 6203W        W 9722   5.316   0.120  10.160 -0.3430  0.0116  0.0052
 6204W        W 9723   0.810   9.011  11.238 -0.2826 -0.3317 -0.1541
 6205W        W 9724   5.977   8.251   1.865  0.2042 -0.2170  0.1551
 6206W        W 9725   3.357   1.495  12.463  0.0235  0.0376  0.2209
 6207W        W 9726   4.816   2.522  11.004  0.1190 -0.2149 -0.0149
 6208W        W 9727   8.077   3.163  10.390 -0.2737  0.0053  0.2062
 6209W        W 9728   4.526   7.235  12.004  0.1077  0.1390 -0.0762
 6210W        W 9729   8.307   4.346   1.400  0.0640 -0.0595  0.0171
 6211W        W 9730   3.861   4.185   8.552  0.1609  0.1693 -0.1059
 6212W        W 9731   3.530   8.004   1.218 -0.1576  0.1289  0.0854
 6213W        W 9732   6.235   3.480   0.293  0.0707 -0.1022 -0.1458
 6214W        W 9733   8.488   0.247  10.858 -0.0079  0.3088  0.2244
 6215W        W 9734   8.875   6.011   1.188  0.1315  0.2152 -0.2782
 6216W        W 9735   6.071   6.868   0.872  0.1469 -0.0522 -0.1251
 6217W        W 9736   2.555   7.537   9.906  0.1289  0.1288 -0.2550
 6218W        W 9737   3.939   6.356  12.020  0.4326  0.1181 -0.0826
 6219W        W 9738   4.625   0.187   7.695 -0.0820 -0.2275  0.1611
 6220W        W 9739   3.643   7.399   9.995 -0.3290 -0.0347  0.0474
 6221W        W 9740   2.348   9.324   9.581  0.1928 -0.0677  0.0055
 6222W        W 9741   7.748   2.549  12.271  0.0065  0.1283  0.0466
 6223W        W 9742   0.699   8.769   4.432  0.6086 -0.0081  0.0060
 6224W        W 9743   8.075   4.868   9.517  0.3497 -0.1659  0.0255
 6225W        W 9744   5.001   4.213  10.846  0.1829  0.0973 -0.1488
 6226W        W 9745   2.179   6.413   8.355 -0.0723 -0.2266 -0.2498
 6227W        W 9746   2.475   6.941  11.028 -0.1363 -0.0556  0.0605
 6228W        W 9747   0.808   0.014   8.904  0.0407  0.1696  0.1010
 6229W        W 9748   2.310   1.126   8.960 -0.2848 -0.0145  0.2497
 6230W        W 9749   6.384   4.684   0.669  0.1803  0.2130 -0.2453
 6231W        W 9750   8.322   5.460   9.061 -0.1200  0.5193  0.1953
 6232W        W 9751   3.750   9.353   3.040  0.0084  0.1988 -0.0332
 6233W        W 9752   8.475   5.056  12.354  0.0041  0.1073 -0.2705
 6234W        W 9753   3.838   0.558   9.816  0.0818  0.1049  0.0671
 6235W        W 9754   3.620   7.375  11.012 -0.1823  0.3344 -0.0935
 6236W        W 9755   4.486   0.012  12.169  0.1538  0.2773  0.2577
 6237W        W 9756   5.668   6.691   9.053  0.0154  0.2309 -0.1011
 6238W        W 9757   4.640   6.099   1.905 -0.0339  0.0964  0.2744
 6239W        W 9758   0.731   6.606   0.403  0.3993 -0.4246 -0.4025
 6240W        W 9759   6.285   1.194   9.252 -0.1362  0.2027 -0.2161
 6241W        W 9760   0.611   8.749   1.711  0.0508  0.0535  0.2096
 6242W        W 9761   8.902   8.616   2.969 -0.1531 -0.1019  0.0274
 6243W        W 9762   7.128   9.373   9.367  0.0459 -0.0563  0.0112
 6244W        W 9763   7.707   2.112   0.334 -0.2110 -0.0499 -0.0521
 6245W        W 9764   0.104   1.448   4.928 -0.1383 -0.0225 -0.1154
 6246W        W 9765   2.247   0.506   0.905 -0.0567  0.0082 -0.1126
 6247W        W 9766   1.476   8.423  12.372 -0.1083 -0.0180  0.2056
 6248W        W 9767   8.416   7.499   2.773 -0.1031 -0.0024 -0.2008
 6249W        W 9768   1.003   2.391  12.009 -0.0059 -0.0623  0.1862
 6250W        W 9769   4.941   8.697  10.003  0.2298 -0.1873 -0.1170
 6251W        W 9770   0.433   4.261   2.934  0.0233 -0.3064  0.0330
 6252W        W 9771   6.232   3.293   8.733  0.2415  0.1659  0.0921
 6253W        W 9772   8.732   2.880   0.932  0.0976  0.0481  0.0161
 6254W        W 9773   7.171   1.237   8.770 -0.2460 -0.0207  0.1730
 6255W        W 9774   1.220   8.336  10.510 -0.0870  0.1133 -0.0612
 6256W        W 9775   3.112   2.294   0.523  0.0784 -0.2158  0.1967
 6257W        W 9776   1.569   3.105   9.847 -0.3958  0.1865  0.1007
 6258W        W 9777   4.961   6.791   0.153  0.0446  0.1872  0.0251
 6259W        W 9778   0.046   2.992  10.930  0.1107  0.1335 -0.2959
 6260W        W 9779   8.469   6.558   3.363 -0.0399 -0.0819  0.1781
 6261W        W 9780   0.460   6.224   4.110 -0.2142  0.1189  0.0748
 6262W        W 9781   7.859   2.273   0.786  0.2847  0.1642  0.1004
 6263W        W 9782   1.559   8.032  10.782 -0.0367 -0.0349 -0.0295
 6264W        W 9783   3.941   5.576   9.338 -0.0599 -0.1939 -0.1423
 6265W        W 9784   6.897   6.611   1.234 -0.1270  0.2216  0.2772
 6266W        W 9785   0.603   5.535   7.930 -0.0011 -0.0579 -0.2015
 6267W        W 9786   6.388   7.555  12.532 -0.2366  0.1034 -0.0062
 6268W        W 9787   7.679   5.004   1.833  0.0913  0.2240 -0.3238
 6269W        W 9788   9.404   7.952  12.324  0.1085 -0.0119  0.0541
 6270W        W 9789   0.561   2.643   1.468  0.0830 -0.1670 -0.2367
 6271W        W 9790   0.365   2.071   8.543  0.0358 -0.3341  0.0412
 6272W        W 9791   9.457   0.190   1.090 -0.0977 -0.0010  0.3268
 6273W        W 9792   8.830   7.814  12.381 -0.0982  0.1766  0.3462
 6274W        W 9793   2.731   7.866   9.482  0.1157  0.1497  0.1173
 6275W        W 9794   2.116   0.958   8.504  0.0491 -0.1798 -0.0964
 6276W        W 9795   3.095   0.565  12.242 -0.0191  0.2517  0.0349
 6277W        W 9796   4.124   0.212   3.678  0.3500 -0.0568  0.0865
 6278W        W 9797   0.508   2.559  11.810  0.5405  0.2122  0.2184
 6279W        W 9798   2.097   3.573  10.277 -0.1201 -0.0592  0.2578
 6280W        W 9799   8.209   4.714  10.530 -0.1606  0.0648 -0.0521
 6281W        W 9800   4.821   9.593   1.765  0.0468 -0.0739 -0.0243
 6282W        W 9801   3.336   2.885   9.609  0.1756 -0.0528 -0.1044
 6283W        W 9802   5.048   6.581   9.610 -0.1124 -0.0663 -0.1875
 6284W        W 9803   3.006   3.524   9.671 -0.6059 -0.1108  0.1525
 6285W        W 9804   0.123   2.028   3.894 -0.0277 -0.2875 -0.0889
 6286W        W 9805   5.811   3.513   8.533  0.2121  0.1748  0.2443
 6287W        W 9806   8.902   0.811  11.325  0.0922 -0.2044 -0.2276
 6288W        W 9807   3.999   3.323  12.138  0.3872  0.0586 -0.0150
 6289W        W 9808   4.383   3.776   2.629  0.2708 -0.0514 -0.4273
 6290W        W 9809   5.040   9.240   8.813 -0.3880 -0.0732 -0.1067
 6291W        W 9810   2.189   1.983   0.405  0.0507  0.0311  0.2692
 6292W        W 9811   9.606   3.014   0.184  0.0518  0.2499 -0.1837
 6293W        W 9812   1.226   1.519   0.386 -0.2840  0.2610 -0.0217
 6294W        W 9813   5.282   4.297  11.860  0.0960  0.1842  0.4913
 6295W        W 9814   3.629   3.185  11.710 -0.1646 -0.1046  0.0950
 6296W        W 9815   2.076   4.355  11.229 -0.0742 -0.0805  0.1527
 6297W        W 9816   4.743   8.693   6.217  0.0619 -0.0263 -0.2025
 6298W        W 9817   8.211   7.878   1.636  0.0824 -0.0247 -0.2718
 6299W        W 9818   1.455   0.629  11.223  0.0874  0.0552  0.1471
 6300W        W 9819   0.629   0.749  11.565  0.0186 -0.2473  0.1069
 6301W        W 9820   2.925   2.013  11.647 -0.0841 -0.2192  0.0268
 6302W        W 9821   9.403   9.027  12.027  0.1414 -0.0126 -0.1519
 6303W        W 9822   3.143   5.512   9.755  0.2061  0.0005  0.0711
 6304W        W 9823   6.325   8.597  11.174 -0.0163 -0.1059 -0.2315
 6305W        W 9824   6.490   3.163   0.572  0.3616 -0.1465 -0.1487
 6306W        W 9825   8.581   0.252  10.103  0.0585  0.1125  0.1050
 6307W        W 9826   1.792   7.284   3.460 -0.0297 -0.1619 -0.2084
 6308W        W 9827   6.178   5.789   2.941 -0.1437  0.0226  0.2288
 6309W        W 9828   6.876   7.807   2.137 -0.0707 -0.4921 -0.1091
 6310W        W 9829   4.006   8.970   0.019  0.1846 -0.1516 -0.0871
 6311W        W 9830   6.391   3.471  12.252  0.1206 -0.0147  0.2497
 6312W        W 9831   2.578   6.136   2.353 -0.2406  0.1313  0.4686
 6313W        W 9832   7.591   3.970   3.190 -0.0070  0.4341  0.0655
 6314W        W 9833   3.087   1.848   0.800  0.2227  0.2747 -0.0792
 6315W        W 9834   2.155   7.232   8.714  0.2450  0.1563 -0.2291
 6316W        W 9835   9.417   7.831   3.161  0.3008 -0.0324 -0.0977
 6317W        W 9836   0.298   4.284  11.573  0.1806 -0.0266 -0.0441
 6318W        W 9837   5.220   5.463   9.200 -0.2486  0.2028 -0.0147
 6319W        W 9838   5.962   0.101   3.117 -0.0478  0.3144  0.2148
 6320W        W 9839   5.950   4.121  11.816 -0.0871 -0.0770  0.1383
 6321W        W 9840   7.779   2.453  11.097  0.0895 -0.0896  0.0716
 6322W        W 9841   7.480   1.278   7.852 -0.2341  0.0477 -0.0595
 6323W        W 9842   1.501   5.749   0.864 -0.1133 -0.2659  0.0412
 6324W        W 9843   5.590   0.836   2.355  0.0720  0.3335 -0.1100
 6325W        W 9844   3.186   7.998   9.880  0.0703  0.4687 -0.0419
 6326W        W 9845   3.745   4.226   9.709 -0.0679 -0.0835  0.0419
 6327W        W 9846   4.194   6.365   9.156  0.0114 -0.0469 -0.0651
 6328W        W 9847   8.944   8.089   1.067  0.1578  0.1644 -0.1902
 6329W        W 9848   8.635   2.961  11.051 -0.0090  0.1659  0.0599
 6330W        W 9849   2.390   2.799   2.800 -0.3841  0.1752  0.1284
 6331W        W 9850   3.637   1.886   0.907  0.1905  0.2633  0.1654
 6332W        W 9851   5.033   7.545  12.082  0.1814  0.0437 -0.0638
 6333W        W 9852   2.723   6.458   1.536 -0.0856 -0.0460  0.0841
 6334W        W 9853   9.498   7.610   1.517 -0.2057 -0.2590  0.1931
 6335W        W 9854   0.959   6.116   0.610 -0.2941  0.0432 -0.1044
 6336W        W 9855   1.974   0.705  11.280 -0.3738  0.0422  0.1443
 6337W        W 9856   0.569   5.352   1.377  0.1314  0.1327 -0.2662
 6338W        W 9857   0.092   0.725  11.842 -0.0708  0.1651 -0.1129
 6339W        W 9858   5.922   0.914   1.941  0.1283  0.0935  0.2072
 6340W        W 9859   3.899   4.278  12.564  0.0673 -0.0493 -0.1757
 6341W        W 9860   6.575   8.656   0.957  0.2396 -0.0276  0.1937
 6342W        W 9861   3.521   0.587   8.417 -0.3350  0.2529  0.0953
 6343W        W 9862   1.746   1.099  10.963  0.0620  0.1797  0.2983
 6344W        W 9863   1.408   7.457   3.171  0.1667  0.3532 -0.0541
 6345W        W 9864   6.538   1.253   1.947  0.0390 -0.3814  0.2225
 6346W        W 9865   9.437   3.628   3.088 -0.0251  0.0373  0.0502
 6347W        W 9866   9.432   0.481   0.657  0.1700  0.0298  0.4911
 6348W        W 9867   6.626   6.142   9.978  0.0350 -0.0735 -0.1537
 6349W        W 9868   8.413   6.529  10.037 -0.1911  0.1430  0.0482
 6350W        W 9869   2.687   6.606   4.381 -0.1983  0.2960 -0.3290
 6351W        W 9870   6.182   8.431   9.257  0.1480 -0.0552 -0.0817
 6352W        W 9871   8.361   2.092   8.323  0.0632  0.2740  0.0948
 6353W        W 9872   0.668   2.514   8.498  0.0690  0.0424  0.2878
 6354W        W 9873   5.492   7.265  10.328  0.0771 -0.0477 -0.1750
 6355W        W 9874   0.732   9.070  11.720 -0.1627  0.2295 -0.3414
 6356W        W 9875   6.944   3.718  12.484 -0.2762  0.2722 -0.2373
 6357W        W 9876   4.075   4.310   4.051  0.1261  0.0338 -0.1604
 6358W        W 9877   0.893   3.978   1.560 -0.1126  0.1060 -0.2040
 6359W        W 9878   9.251   3.209   0.618 -0.0109 -0.0036 -0.2196
 6360W        W 9879   8.752   4.011  12.212 -0.5680  0.0545  0.3729
 6361W        W 9880   1.128   8.689  12.207  0.2708 -0.0054 -0.4045
 6362W        W 9881   4.318   5.082  11.041  0.1218 -0.0403  0.2906
 6363W        W 9882   1.200   8.826  11.598 -0.2361  0.2274  0.1001
 6364W        W 9883   9.406   2.109  10.852 -0.0974 -0.0161  0.1849
 6365W        W 9884   1.731   0.421   1.921 -0.1847  0.0802 -0.1201
 6366W        W 9885   7.305   4.913   1.346  0.0236 -0.0157  0.3039
 6367W        W 9886   5.189   8.907   9.183 -0.2399 -0.0268  0.0328
 6368W        W 9887   1.657   0.072   0.403 -0.1943  0.1321 -0.0107
 6369W        W 9888   4.995   8.020  10.455 -0.3609 -0.2995 -0.2926
 6370W        W 9889   0.310   1.609   8.321  0.2759  0.1316  0.1048
 6371W        W 9890   2.094   5.893   8.139  0.2587 -0.1974  0.0401
 6372W        W 9891   6.506   2.500   9.013  0.0368 -0.1128  0.3406
 6373W        W 9892   9.629   4.003   0.951 -0.0808  0.2341 -0.0718
 6374W        W 9893   5.097   5.883   0.090  0.0222  0.0802  0.1893
 6375W        W 9894   5.086   5.014  12.490 -0.0111  0.1774  0.2509
 6376W        W 9895   4.648   2.455   3.897 -0.0185  0.2918  0.0625
 6377W        W 9896   1.220   1.787   9.943  0.0190 -0.1423 -0.1827
 6378W        W 9897   9.509   5.789   3.023 -0.2155 -0.0467 -0.4401
 6379W        W 9898   7.694   0.804   9.413  0.1253  0.0200  0.4610
 6380W        W 9899   1.216   0.264   3.939 -0.1318  0.2613  0.0154
 6381W        W 9900   3.897   7.276   1.677  0.0927  0.0037  0.1195
 6382W        W 9901   6.525   5.398  12.442  0.0190 -0.0049 -0.0363
 6383W        W 9902   6.896   7.717   0.374  0.1676  0.0694  0.0067
 6384W        W 9903   2.590   1.842   2.551  0.0913  0.0079  0.2140
 6385W        W 9904   3.862   5.468  12.090  0.3670 -0.1614  0.4103
 6386W        W 9905   9.678   5.030  12.543  0.0121 -0.1685  0.4148
 6387W        W 9906   5.095   0.795   9.639 -0.0527  0.1141  0.2020
 6388W        W 9907   2.956   7.755   1.038 -0.1337 -0.1546  0.3619
 6389W        W 9908   4.822   1.297   0.319 -0.0290  0.0320  0.0396
 6390W        W 9909   5.934   4.569   0.928 -0.2413  0.0789  0.0107
 6391W        W 9910   5.141   7.358   9.766 -0.0461 -0.0559  0.1371
 6392W        W 9911   8.321   0.368   1.840  0.0076  0.1279  0.0534
 6393W        W 9912   8.352   3.216   2.278  0.3280  0.0792  0.1318
 6394W        W 9913   5.872   4.263  10.883 -0.2658 -0.2499  0.0851
 6395W        W 9914   3.843   6.126   2.061 -0.0140 -0.2697  0.0633
 6396W        W 9915   6.155   4.603  12.048 -0.2280  0.0909  0.1291
 6397W        W 9916   2.399   2.887   9.723  0.2885  0.0431 -0.2210
 6398W        W 9917   1.344   7.899  10.145  0.0742 -0.0344  0.2003
 6399W        W 9918   9.703   0.608   3.004  0.2583  0.2354 -0.0302
 6400W        W 9919   8.757   9.430   0.758  0.0359  0.3864 -0.0860
 6401W        W 9920   3.234   2.653   2.932  0.0670 -0.0269  0.3650
 6402W        W 9921   9.247   7.034   8.471  0.0613  0.0841 -0.4063
 6403W        W 9922   0.620   0.853  11.065 -0.1543  0.0032 -0.0334
 6404W        W 9923   1.561   3.164  11.960 -0.2302 -0.1585 -0.0047
 6405W        W 9924   8.937   1.782  11.694  0.0857  0.0758  0.1260
 6406W        W 9925   7.638   3.828   4.499  0.0958  0.1202 -0.2351
 6407W        W 9926   0.686   7.928   8.757 -0.1029 -0.0279  0.0874
 6408W        W 9927   6.317   3.489   9.704 -0.1502 -0.4739  0.2063
 6409W        W 9928   6.884   5.347   0.725  0.0539  0.4395 -0.0698
 6410W        W 9929   9.077   2.291   1.620 -0.2519  0.1645 -0.0442
 6411W        W 9930   3.364   1.315   1.456 -0.0728 -0.1463  0.1189
 6412W        W 9931   3.018   6.228   9.509  0.1197 -0.0336  0.0797
 6413W        W 9932   6.947   1.416   0.598  0.2389  0.1178  0.2581
 6414W        W 9933   4.407   8.438   9.387  0.1724 -0.0501 -0.3338
 6415W        W 9934   1.714   3.771  10.568 -0.0580 -0.0659  0.0103
 6416W        W 9935   3.172   9.676  12.302 -0.2030  0.0173  0.3324
 6417W        W 9936   4.190   3.241  10.092  0.2903  0.0268 -0.2865
 6418W        W 9937   0.419   8.466   3.099  0.3443 -0.1133 -0.0837
 6419W        W 9938   2.589   6.699   9.170 -0.1412 -0.0055 -0.2703
 6420W        W 9939   4.030   6.212   0.441  0.1547  0.1327 -0.0132
 6421W        W 9940   8.618   2.389   9.787  0.0953  0.0381 -0.0763
 6422W        W 9941   2.813   5.033   0.292  0.1304  0.0183 -0.1152
 6423W        W 9942   3.007   7.478  11.703 -0.1480 -0.0467  0.0537
 6424W        W 9943   3.194   6.693   1.561  0.1493  0.0052 -0.0861
 6425W        W 9944   2.438   8.733   4.706 -0.0841 -0.2353  0.0028
 6426W        W 9945   7.838   1.870   9.278 -0.1840  0.0458  0.3911
 6427W        W 9946   2.864   2.861   0.850  0.1310  0.4251 -0.4184
 6428W        W 9947   3.099   3.641   1.142 -0.2112  0.1819  0.3576
 6429W        W 9948   7.591   7.858   2.821  0.1518  0.3551  0.2879
 6430W        W 9949   1.789   4.800   1.428 -0.1742 -0.1040 -0.4000
 6431W        W 9950   8.418   1.078   1.377 -0.1598  0.0885 -0.5237
 6432W        W 9951   3.878   8.618   9.207 -0.2072 -0.1216 -0.1502
 6433W        W 9952   9.490   3.950   8.192 -0.1739  0.2749  0.0435
 6434W        W 9953   9.213   1.260  11.750 -0.0098 -0.0670  0.0433
 6435W        W 9954   4.568   2.062  11.212  0.3596 -0.0509  0.1722
 6436W        W 9955   2.520   3.404   0.171  0.2790  0.0298  0.1277
 6437W        W 9956   9.144   5.250  11.024  0.3458 -0.0513  0.0120
 6438W        W 9957   3.694   5.633   9.808  0.2234  0.3514 -0.0339
 6439W        W 9958   8.989   7.507   1.453  0.4981  0.1230 -0.0823
 6440W        W 9959   6.917   4.579   1.434  0.4147 -0.0499 -0.1908
 6441W        W 9960   8.857   7.805   2.422  0.1390 -0.1690 -0.2227
 6442W        W 9961   8.965   7.124  11.667  0.2472  0.1136 -0.0836
 6443W        W 9962   5.463   4.510  11.036 -0.0841  0.0956 -0.0005
 6444W        W 9963   6.816   7.289   8.922  0.3503 -0.2125  0.1611
 6445W        W 9964   6.066   0.710  11.052  0.0304 -0.3062  0.2242
 6446W        W 9965   1.101   2.757   0.083  0.1486 -0.2361  0.1833
 6447W        W 9966   6.982   5.604   1.258 -0.1640  0.0235  0.2761
 6448W        W 9967   0.061   8.788   8.385  0.0524 -0.1029 -0.1817
 6449W        W 9968   3.049   8.812   8.590  0.0065  0.0377 -0.0210
 6450W        W 9969   3.636   7.895  10.044  0.0552 -0.5328 -0.2726
 6451W        W 9970   1.036   7.070   3.158 -0.0358  0.1218 -0.2912
 6452W        W 9971   5.448   0.117   0.070  0.1094  0.0195  0.0900
 6453W        W 9972   8.938   0.835   1.348  0.1475 -0.3193 -0.3255
 6454W        W 9973   4.479   0.128   1.472  0.0014 -0.1154  0.0918
 6455W        W 9974   5.293   5.367   1.685  0.1066 -0.4462 -0.4543
 6456W        W 9975   7.684   1.887   2.530  0.0094 -0.0865  0.2651
 6457W        W 9976   2.682   0.004   5.073  0.1619 -0.0279 -0.3528
 6458W        W 9977   2.356   5.663   2.013 -0.2123  0.0427 -0.2628
 6459W        W 9978   7.541   8.843   0.727  0.0890 -0.3985  0.0039
 6460W        W 9979   1.010   2.076   0.147 -0.0614 -0.3741  0.4247
 6461W        W 9980   9.143   4.081  10.607 -0.0160  0.3627  0.3391
 6462W        W 9981   6.159   5.024   9.602  0.1460  0.0015  0.1341
 6463W        W 9982   8.143   3.986   4.468 -0.1680 -0.0520  0.0096
 6464W        W 9983   3.929   0.155   8.768 -0.4562  0.1132 -0.0514
 6465W        W 9984   3.091   4.861   3.798  0.0773 -0.0809  0.1460
 6466W        W 9985   5.306   2.778   7.723 -0.2793  0.0073 -0.1593
 6467W        W 9986   4.263   4.812   3.941  0.1753 -0.0138 -0.1219
 6468W        W 9987   5.816   9.198  12.391  0.1083 -0.1275 -0.0335
 6469W        W 9988   0.681   4.113  12.101 -0.0107  0.0261  0.3721
 6470W        W 9989   0.371   5.593   1.793  0.1139  0.1048  0.0260
 6471W        W 9990   4.119   1.613  12.501 -0.1500 -0.0052  0.2514
 6472W        W 9991   6.812   8.106   0.686 -0.1489  0.1623  0.1251
 6473W        W 9992   2.270   8.468   1.705  0.2691  0.0866  0.3588
 6474W        W 9993   4.683   4.183   2.802 -0.0964  0.4243  0.3783
 6475W        W 9994   8.308   6.850   0.161 -0.0019  0.1207  0.2860
 6476W        W 9995   6.025   5.628   8.850  0.0265 -0.4817 -0.0521
 6477W        W 9996   4.124   7.338  11.621  0.0012 -0.2992  0.2628
 6478W        W 9997   0.397   4.349   8.792  0.4330  0.1233 -0.1559
 6479W        W 9998   9.136   2.411   9.024 -0.1641 -0.2436 -0.1667
 6480W        W 9999   8.569   4.419   2.257  0.0127 -0.2221  0.2072
 6481W        W10000   7.275   5.310   2.031 -0.1507 -0.1385 -0.2653
 6482W        W10001   5.831   7.788   2.369 -0.1534  0.0005  0.1327
 6483W        W10002   2.407   4.815  10.697 -0.1817 -0.0235  0.0957
 6484W        W10003   2.147   4.677   3.721  0.0007  0.1259  0.4321
 6485W        W10004   3.780   1.478   0.280 -0.1253  0.1191  0.2371
 6486W        W10005   5.413   6.359   9.325  0.2001  0.0670  0.0572
 6487W        W10006   0.135   8.078   3.372  0.3724 -0.0604 -0.0026
 6488W        W10007   2.285   2.238   2.264  0.0874  0.1122  0.0253
 6489W        W10008   0.517   4.086   1.860 -0.2645  0.2261  0.0406
 6490W        W10009   0.277   0.955   7.975 -0.1459  0.0238 -0.2232
 6491W        W10010   7.176   3.265  12.518 -0.2049  0.0646  0.2101
 6492W        W10011   3.289   3.613   0.525  0.0973  0.1798 -0.1350
 6493W        W10012   1.254   6.537   0.809  0.0801  0.0643 -0.4165
 6494W        W10013   5.063   4.007   9.208  0.0981 -0.3539  0.2340
 6495W        W10014   3.636   0.215   3.851  0.0146  0.0229  0.0612
 6496W        W10015   2.269   3.504   2.966  0.1987  0.1315 -0.3402
 6497W        W10016   6.334   2.102   2.046  0.1846 -0.0832 -0.1827
 6498W        W10017   9.467   2.994   8.747  0.1560  0.1960 -0.3431
 6499W        W10018   5.497   3.199   8.843  0.0987  0.3545  0.1389
 6500W        W10019   4.307   2.801   9.235 -0.0988  0.3337 -0.3486
 6501W        W10020   6.298   4.081  11.130  0.0657 -0.1904  0.0888
 6502W        W10021   7.907   6.839   2.093  0.1236  0.1609  0.2103
 6503W        W10022   1.675   5.095   0.358 -0.1194 -0.2003 -0.1694
 6504W        W10023   9.314   3.691   1.875 -0.0342  0.3124 -0.2375
 6505W        W10024   2.525   5.750   4.241  0.2174  0.1256  0.1391
 6506W        W10025   1.195   5.674  11.777  0.1795  0.0342 -0.1289
 6507W        W10026   2.387   0.565   1.373 -0.1096 -0.1089  0.0362
 6508W        W10027   3.011   2.377   4.165  0.1655  0.0799 -0.1680
 6509W        W10028   7.543   2.829   2.406  0.1691  0.3090  0.0730
 6510W        W10029   3.989   1.076  12.212 -0.1978 -0.0685  0.2765
 6511W        W10030   4.508   2.953   1.533 -0.0456 -0.2548 -0.0405
 6512W        W10031   4.656   0.560  11.396  0.2616 -0.2223  0.2051
 6513W        W10032   1.887   9.357  11.837  0.0411  0.1012 -0.2155
 6514W        W10033   8.950   7.464  12.041  0.3193  0.2994 -0.2591
 6515W        W10034   0.891   1.687   3.437  0.0958  0.1396 -0.1458
 6516W        W10035   0.503   2.952   3.718 -0.0799 -0.1813  0.0350
 6517W        W10036   4.050   7.714  10.792  0.0593  0.0169 -0.0656
 6518W        W10037   3.839   2.367  11.397  0.0044 -0.0562  0.1714
 6519W        W10038   3.199   0.701   1.387  0.1068 -0.3146  0.0250
 6520W        W10039   8.557   7.080  12.059  0.0121  0.0976  0.0908
 6521W        W10040   6.226   4.716   3.945  0.0285 -0.0402 -0.1351
 6522W        W10041   7.531   8.651   2.714  0.1855  0.0164 -0.4257
 6523W        W10042   1.413   8.586   8.867 -0.1346  0.2614 -0.0542
 6524W        W10043   7.646   3.211  10.573  0.2544  0.2423 -0.1545
 6525W        W10044   2.184   8.349   2.218  0.0421  0.1301  0.2035
 6526W        W10045   4.663   1.043   9.708  0.0043  0.1016 -0.4341
 6527W        W10046   0.501   1.666   4.742 -0.2891  0.2271 -0.1645
 6528W        W10047   9.111   9.375   0.224  0.0694  0.4532  0.0346
 6529W        W10048   3.310   8.440   1.977 -0.0284 -0.0819  0.3435
 6530W        W10049   9.619   6.935   8.895 -0.4394  0.0521 -0.0552
 6531W        W10050   7.012   0.744   3.919 -0.2539  0.4587  0.1411
 6532W        W10051   0.880   9.282   8.505  0.0505  0.0714 -0.0361
 6533W        W10052   6.784   6.617   2.959 -0.0312 -0.0075 -0.0758
 6534W        W10053   4.161   3.792  10.405  0.0116 -0.0585 -0.2773
 6535W        W10054   7.455   6.987   1.895 -0.0645  0.0122 -0.3073
 6536W        W10055   7.096   0.730  10.643  0.0881 -0.1209 -0.1421
 6537W        W10056   8.965   1.294  12.229 -0.1852 -0.2021  0.3525
 6538W        W10057   3.567   6.794  11.866 -0.0310 -0.2773  0.2899
 6539W        W10058   8.698   2.753   8.582  0.2028  0.0820 -0.0584
 6540W        W10059   0.269   6.615   8.859 -0.1626  0.2961 -0.1132
 6541W        W10060   7.730   1.249   0.131 -0.1220  0.3318  0.1169
 6542W        W10061   0.283   5.385   0.430  0.1221 -0.2340 -0.1039
 6543W        W10062   7.819   8.185   8.913  0.0788 -0.0835  0.1224
 6544W        W10063   2.735   4.866   1.807  0.1584 -0.2286 -0.3208
 6545W        W10064   6.012   8.023  11.155 -0.0182 -0.2081  0.4137
 6546W        W10065   3.559   0.703   0.323 -0.0140  0.2376  0.0786
 6547W        W10066   2.233   3.775   9.651 -0.4919  0.0844  0.1190
 6548W        W10067   6.960   8.639   6.143  0.0687 -0.1535  0.0267
 6549W        W10068   1.715   3.783   8.954  0.3162 -0.2184  0.0528
 6550W        W10069   3.687   3.726  11.663 -0.0543 -0.2829 -0.0364
 6551W        W10070   1.802   2.242   0.385  0.0066  0.1991 -0.0925
 6552W        W10071   1.214   2.098   9.174  0.0027  0.1698 -0.0186
 6553W        W10072   1.188   8.726   9.322 -0.1334  0.2315  0.2987
 6554W        W10073   8.059   6.861   9.296  0.0115  0.2707  0.0987
 6555W        W10074   0.482   5.184   3.990  0.0614 -0.1203  0.2222
 6556W        W10075   9.410   3.475   9.453 -0.0943  0.2898  0.1665
 6557W        W10076   7.140   3.603   0.396  0.0671  0.2861 -0.2221
 6558W        W10077   4.588   1.286   2.433  0.2678 -0.3196  0.0862
 6559W        W10078   0.337   9.068  12.399 -0.3229 -0.1930  0.0778
 6560W        W10079   6.658   0.552   2.491 -0.1421 -0.0517 -0.1918
 6561W        W10080   3.316   4.098  11.539  0.0601  0.0763  0.1148
 6562W        W10081   5.738   4.863   9.867 -0.0654  0.1944  0.0583
 6563W        W10082   1.330   5.379   9.555  0.1362 -0.0184 -0.0730
 6564W        W10083   6.012   7.280  11.040  0.0968 -0.2265 -0.2107
 6565W        W10084   4.269   1.601  10.385 -0.1373  0.2302  0.1491
 6566W        W10085   0.873   6.199   9.984 -0.5939  0.1289 -0.0272
 6567W        W10086   8.010   8.928   0.790 -0.1518  0.4617 -0.0281
 6568W        W10087   2.636   2.008   4.052 -0.0169  0.3491 -0.0344
 6569W        W10088   8.971   4.214   9.120 -0.2315 -0.0730  0.3116
 6570W        W10089   3.488   0.193   0.557 -0.0528 -0.1542 -0.2951
 6571W        W10090   8.000   8.544  12.084 -0.1954 -0.0322  0.0124
 6572W        W10091   6.443   5.608   2.494  0.1194 -0.1382 -0.3311
 6573W        W10092   1.700   0.261  10.454 -0.0714 -0.0112  0.0614
 6574W        W10093   8.772   9.224   3.103  0.0742 -0.0821  0.1294
 6575W        W10094   9.192   5.357   0.874  0.3783 -0.0041  0.0607
 6576W        W10095   1.395   1.704   3.314  0.2459 -0.1280 -0.2646
 6577W        W10096   8.293   1.967   3.335 -0.1023 -0.1043  0.1137
 6578W        W10097   7.038   5.534  11.786 -0.1481  0.2299  0.1389
 6579W        W10098   6.960   9.087  11.671  0.1263 -0.1929 -0.2794
 6580W        W10099   4.088   1.681   4.156  0.0312  0.2443  0.1652
 6581W        W10100   6.700   8.386   9.231 -0.0952 -0.2399 -0.0136
 6582W        W10101   5.409   1.225   4.216 -0.2153 -0.0720  0.2687
 6583W        W10102   4.128   9.569   2.237  0.1720 -0.0917 -0.0974
 6584W        W10103   1.157   3.787  11.358  0.0101  0.0946 -0.2646
 6585W        W10104   1.366   8.625   1.691  0.1989 -0.2915  0.2741
 6586W        W10105   1.108   3.003  12.223 -0.0969 -0.1944 -0.0406
 6587W        W10106   2.416   6.835   1.975  0.0998  0.1575  0.2293
 6588W        W10107   7.837   5.504   4.664  0.2036 -0.0372  0.0376
 6589W        W10108   9.280   6.538   9.738  0.0311 -0.2407  0.2114
 6590W        W10109   6.500   5.563   0.398 -0.2711 -0.2551 -0.2383
 6591W        W10110   4.227   5.328  10.622 -0.0581 -0.0090  0.2109
 6592W        W10111   1.136   2.927  10.690  0.0592 -0.0683  0.1056
 6593W        W10112   9.555   1.611  10.899 -0.0230 -0.1111  0.4692
 6594W        W10113   2.181   5.015   2.326  0.1419 -0.3562  0.2733
 6595W        W10114   2.173   4.659   2.678 -0.0695 -0.0969 -0.3154
 6596W        W10115   1.647   1.208   0.449  0.0970  0.1939 -0.4525
 6597W        W10116   9.340   7.750  10.290  0.1172 -0.1363 -0.0867
 6598W        W10117   6.384   6.242   9.162  0.0022 -0.3616  0.0656
 6599W        W10118   2.401   5.828  12.561 -0.1422  0.1670  0.4154
 6600W        W10119   0.819   3.809   9.370 -0.1023  0.0559  0.2331
 6601W        W10120   6.938   0.398   3.409  0.3486  0.2398 -0.2717
 6602W        W10121   1.425   7.634   1.320  0.0705 -0.0229  0.0097
 6603W        W10122   0.869   4.207  10.404  0.1141  0.0841 -0.0085
 6604W        W10123   4.022   8.232   1.176  0.1178  0.0055 -0.1834
 6605W        W10124   4.686   4.542   2.029 -0.0526  0.1193 -0.2187
 6606W        W10125   0.643   9.112  10.679 -0.1830  0.1030 -0.1078
 6607W        W10126   8.287   7.173  11.170 -0.0341 -0.0943 -0.1375
 6608W        W10127   4.893   4.773  12.040 -0.1596 -0.1758  0.1151
 6609W        W10128   9.125   0.554   1.000  0.0658 -0.3777 -0.2501
 6610W        W10129   4.367   9.530  10.919 -0.4371 -0.2771 -0.2269
 6611W        W10130   7.160   6.945   3.310  0.0554  0.1060 -0.0660
 6612W        W10131   4.810   2.162   0.204  0.1674  0.1292 -0.0356
 6613W        W10132   7.837   0.333   3.082  0.1172  0.1628 -0.1539
 6614W        W10133   2.631   1.985   3.060 -0.0472 -0.0794  0.0278
 6615W        W10134   4.921   2.784   3.655 -0.0349 -0.0799 -0.0031
 6616W        W10135   8.758   1.430   0.651 -0.2577 -0.2388 -0.0083
 6617W        W10136   7.447   2.206   1.034 -0.1787  0.1384  0.3107
 6618W        W10137   5.863   3.914   9.978  0.0008 -0.2146  0.0272
 6619W        W10138   2.037   2.421   3.311 -0.1398 -0.1270 -0.1841
 6620W        W10139   5.512   1.342   0.193  0.0295 -0.0047 -0.1486
 6621W        W10140   1.323   7.820   4.530  0.0090  0.3348  0.1590
 6622W        W10141   6.623   9.012   1.761 -0.2580  0.0203 -0.0442
 6623W        W10142   2.690   1.076   2.245  0.1443  0.3764  0.0831
 6624W        W10143   8.603   3.233  10.526  0.2236  0.0360  0.0404
 6625W        W10144   9.474   7.087   3.643 -0.0872 -0.0625 -0.1583
 6626W        W10145   8.896   0.198  12.439 -0.1182 -0.0806  0.2864
 6627W        W10146   8.143   0.851  12.489 -0.1488  0.1429  0.1448
 6628W        W10147   3.914   0.696   2.760  0.0395 -0.2367  0.1544
 6629W        W10148   3.764   1.345   4.046 -0.0289  0.0670  0.1006
 6630W        W10149   9.118   3.131   1.101 -0.0024  0.0809  0.1972
 6631W        W10150   4.542   4.158  10.604  0.0477  0.1430 -0.3456
 6632W        W10151   4.509   8.913   2.766  0.1999 -0.0156  0.1074
 6633W        W10152   0.447   2.102   3.421 -0.0640  0.0013 -0.2807
 6634W        W10153   2.097   8.936   4.301  0.1604  0.0385  0.2175
 6635W        W10154   0.735   2.060   0.547 -0.1173  0.2515  0.2051
 6636W        W10155   1.575   8.139   1.208 -0.1770 -0.4311 -0.1049
 6637W        W10156   3.108   0.065  11.807  0.0440 -0.1018  0.1146
 6638W        W10157   0.192   0.018   1.733  0.0029  0.0763  0.1863
 6639W        W10158   1.144   8.020  11.118  0.0620  0.0873 -0.0311
 6640W        W10159   8.088   9.547   3.431 -0.2225 -0.3763  0.0289
 6641W        W10160   8.800   3.854  11.077  0.1298  0.1900  0.0475
 6642W        W10161   5.644   9.702   2.651 -0.0019 -0.2420  0.1861
 6643W        W10162   8.568   6.336   2.675  0.2417 -0.0317  0.1369
 6644W        W10163   4.793   0.974   2.824  0.0615 -0.3063  0.1458
 6645W        W10164   5.148   7.769   2.304 -0.1674  0.0057 -0.1678
 6646W        W10165   7.565   2.889   2.918 -0.1772  0.1036  0.0690
 6647W        W10166   8.535   7.035   3.662  0.1260  0.1751 -0.0166
 6648W        W10167   3.540   4.613   3.486  0.0822  0.0530 -0.4404
 6649W        W10168   7.175   7.040   1.489 -0.0717  0.0254  0.3043
 6650W        W10169   4.579   3.571  12.015  0.3598 -0.0535 -0.0183
 6651W        W10170   0.234   8.308  12.563 -0.1055 -0.2364 -0.2934
 6652W        W10171   2.813   3.505   3.399 -0.2864  0.2755 -0.0314
 6653W        W10172   3.265   3.647   1.642 -0.0331 -0.0673 -0.1922
 6654W        W10173   7.678   9.340   3.567 -0.1482 -0.1327 -0.1979
 6655W        W10174   0.260   4.158  12.561  0.1520 -0.0331 -0.2583
 6656W        W10175   1.438   0.766   9.058 -0.0251  0.1784 -0.0556
 6657W        W10176   1.203   5.559   4.146 -0.0762 -0.2309 -0.0546
 6658W        W10177   9.709   2.398   2.254  0.0023 -0.0675  0.1167
 6659W        W10178   1.965   0.802   3.021 -0.0507 -0.0599  0.0126
 6660W        W10179   1.217   7.173   2.686  0.1285 -0.0302  0.1117
 6661W        W10180   8.025   7.815  11.246 -0.1998  0.1267 -0.7054
 6662W        W10181   3.334   0.374  11.404 -0.1172 -0.3286 -0.1071
 6663W        W10182   3.505   3.206  11.241  0.1851  0.0852 -0.1559
 6664W        W10183   5.636   2.458   0.694 -0.1141  0.1266 -0.1124
 6665W        W10184   2.890   5.392  12.492  0.3746  0.0816 -0.0086
 6666W        W10185   3.142   3.150   0.399  0.0364  0.0272  0.3078
 6667W        W10186   2.548   9.546  10.062  0.0316  0.1968 -0.2127
 6668W        W10187   0.140   1.203   4.446 -0.0944 -0.2278  0.0772
 6669W        W10188   3.507   9.602  10.734 -0.0241  0.1184 -0.0557
 6670W        W10189   8.326   6.091   9.487  0.4176  0.2208  0.0017
 6671W        W10190   0.634   0.387   9.385  0.1016 -0.3226  0.3707
 6672W        W10191   1.908   6.329   3.543 -0.1055  0.1542 -0.3780
 6673W        W10192   1.781   1.984   3.481 -0.0052  0.3321 -0.1249
 6674W        W10193   6.817   0.695  11.083  0.2055 -0.0386  0.0211
 6675W        W10194   4.327   0.421   8.052 -0.2201 -0.0414 -0.1892
 6676W        W10195   0.807   6.998   2.254 -0.3806  0.1257 -0.1188
 6677W        W10196   3.506   6.848   1.197 -0.2456  0.0252  0.0916
 6678W        W10197   0.618   6.106  11.281 -0.0965 -0.1422  0.0006
 6679W        W10198   8.743   0.349   1.566  0.1001 -0.0791  0.1256
 6680W        W10199   0.526   0.945  12.565  0.0293  0.0093  0.0105
 6681W        W10200   7.334   3.521   1.865 -0.0682  0.2176 -0.1422
 6682W        W10201   7.179   3.189  11.159 -0.0541  0.2736 -0.2176
 6683W        W10202   7.317   8.419   0.441 -0.0701 -0.2056 -0.0444
 6684W        W10203   7.122   8.817  12.125 -0.3145 -0.1798  0.2293
 6685W        W10204   5.768   7.144   0.395 -0.1299 -0.1543  0.4219
 6686W        W10205   3.637   8.193   1.675  0.2966  0.0350  0.0008
 6687W        W10206   3.163   0.743   9.186  0.3078 -0.3522  0.1000
 6688W        W10207   4.455   1.833   2.112 -0.2278 -0.2034 -0.1609
 6689W        W10208   5.705   0.122  10.563 -0.4093  0.0021  0.1067
 6690W        W10209   7.962   8.555   9.840 -0.0008  0.1210  0.0340
 6691W        W10210   0.548   9.578   0.924 -0.2854 -0.1854  0.0731
 6692W        W10211   6.145   7.467  12.029  0.3711  0.0996  0.0736
 6693W        W10212   1.328   3.939   9.437 -0.0545 -0.1731  0.1535
 6694W        W10213   9.383   2.317   9.448  0.3436 -0.0082 -0.2210
 6695W        W10214   9.378   6.796   1.696  0.1124  0.5128  0.0694
 6696W        W10215   9.353   8.337   0.727  0.4448 -0.1887  0.1357
 6697W        W10216   4.352   4.869  10.279  0.0357  0.0036  0.2377
 6698W        W10217   0.387   5.047   0.979 -0.1449 -0.1284 -0.0476
 6699W        W10218   8.971   0.353  11.100  0.0868 -0.1660 -0.3376
 6700W        W10219   0.603   4.994   3.519  0.0314 -0.0588 -0.0193
 6701W        W10220   4.713   4.360  12.149  0.0814  0.1319 -0.2038
 6702W        W10221   0.086   4.528   0.182 -0.2804 -0.0241  0.0213
 6703W        W10222   9.026   8.920   1.279 -0.3174 -0.1498 -0.0227
 6704W        W10223   5.559   6.252  10.897  0.0115  0.2247  0.0845
 6705ION    NA+10224   7.762   3.733   4.025  0.0882  0.1693  0.2458
 6706ION    NA+10225   3.374   3.250   3.840  0.1268 -0.5190 -0.0923
 6707ION    NA+10226   1.699   8.699   9.291  0.0769 -0.3476 -0.2126
 6708ION    NA+10227   2.151   9.213   4.822 -0.0679 -0.1761 -0.1977
 6709ION    NA+10228   3.462   6.043   9.675  0.1168 -0.0652 -0.2313
 6710ION    NA+10229   9.397   8.181  11.791  0.0233  0.1324 -0.1058
 6711ION    NA+10230   5.519   2.975   2.913 -0.0943 -0.0675  0.2202
 6712ION    NA+10231   8.662   6.845   2.500 -0.1840  0.0504  0.0802
 6713ION    NA+10232   4.905   9.669   9.586 -0.0540 -0.2778 -0.5241
 6714ION    NA+10233   5.368   3.932   2.015 -0.0293 -0.0007  0.4076
 6715ION    NA+10234   9.233   0.396   4.208  0.2127 -0.1261  0.1712
 6716ION    NA+10235   4.443   4.580   8.559  0.1854  0.0802  0.0314
 6717ION    NA+10236   3.738   0.872   4.327  0.3939 -0.0051  0.2309
 6718ION    NA+10237   6.374   2.012   4.405 -0.0469 -0.1679  0.3209
 6719ION    NA+10238   7.051   3.069   7.934  0.2716 -0.0441 -0.1194
 6720ION    NA+10239   7.496   6.585   2.291  0.2469  0.0292  0.2410
 6721ION    NA+10240   2.757   1.405   0.732 -0.2253  0.0119  0.2488
 6722ION    NA+10241   4.987   0.748  12.126 -0.0398 -0.1759 -0.1200
 6723ION    NA+10242   7.016   5.817   0.255 -0.2915 -0.0013  0.2534
 6724ION    NA+10243   2.944   2.789   8.444 -0.0494 -0.2153  0.2374
 6725ION    NA+10244   1.981   3.743   4.848 -0.1361 -0.2963 -0.1061
 6726ION    NA+10245   5.730   2.940   0.830 -0.3743 -0.2135  0.3102
 6727ION    NA+10246   6.121   4.846  12.478  0.0299 -0.0253 -0.0909
 6728ION    NA+10247   2.316   9.687  11.704 -0.1954 -0.1740  0.0700
 6729ION    NA+10248   2.211   3.896   1.072 -0.0203  0.1254  0.0254
 6730ION    NA+10249   4.887   3.201   1.089  0.0637  0.1588 -0.1215
 6731ION    NA+10250   3.906   7.818   0.921 -0.0575 -0.1849 -0.1741
 6732ION    NA+10251   6.957   0.281  11.384 -0.0103  0.2064 -0.1224
 6733ION    NA+10252   6.065   8.426  10.207  0.0053  0.2639  0.0672
 6734ION    NA+10253   3.544   1.308  11.029 -0.0286 -0.1140  0.0528
 6735ION    NA+10254   7.561   1.544   2.870  0.1185  0.2014 -0.1384
 6736ION    NA+10255   0.069   3.650  10.979  0.0697  0.1784  0.2504
 6737ION    NA+10256   3.199   3.214   0.908 -0.2043  0.0358 -0.1855
 6738ION    NA+10257   4.811   4.415  11.650 -0.3032  0.0558 -0.0819
 6739ION    NA+10258   9.216   6.407  11.139 -0.2364  0.0166 -0.3580
 6740ION    NA+10259   2.560   3.450   9.973  0.1315 -0.1174 -0.0946
 6741ION    NA+10260   3.205   8.990   8.141 -0.1171 -0.1105 -0.0527
 6742ION    NA+10261   4.566   2.711   7.839  0.0506 -0.1203  0.1177
 6743ION    NA+10262   6.462   3.917   8.030 -0.1423  0.1003 -0.1573
 6744ION    NA+10263   2.607   5.717   4.776  0.3739 -0.0520  0.0404
 6745ION    NA+10264   2.044   9.179   9.971 -0.3453  0.4669 -0.1134
 6746ION    NA+10265   9.538   9.161  12.464  0.0955  0.1663 -0.1386
 6747ION    NA+10266   9.021   2.011   0.153 -0.0546 -0.3354  0.2364
 6748ION    NA+10267   7.411   3.022   0.357 -0.1060  0.1477  0.1326
 6749ION    NA+10268   1.617   8.345  10.132 -0.0660  0.1603  0.1347
 6750ION    NA+10269   5.898   7.839  12.327 -0.0406  0.1442  0.0131
 6751ION    NA+10270   2.545   5.328   3.326 -0.1039  0.1469 -0.0106
 6752ION    NA+10271   3.115   0.233   2.507 -0.1845  0.1183  0.0840
 6753ION    NA+10272   8.491   9.407   2.605 -0.3150  0.3828 -0.2352
 6754ION    NA+10273   6.189   2.445  11.957  0.3106 -0.0752  0.3806
 6755ION    NA+10274   8.205   7.237   4.039  0.0085 -0.2270  0.1765
 6756ION    NA+10275   8.525   1.700  10.923 -0.1645 -0.0906 -0.0935
 6757ION    NA+10276   1.733   8.941  12.289 -0.0332 -0.1166  0.1602
 6758ION    NA+10277   8.123   0.894  11.956 -0.2466  0.0237 -0.1034
 6759ION    NA+10278   9.471   1.463   8.959  0.0485  0.0373  0.0512
 6760ION    NA+10279   5.021   5.155  11.748  0.3510 -0.1560 -0.0157
 6761ION    NA+10280   1.834   4.522   0.426  0.0332  0.0938  0.0300
 6762ION    NA+10281   5.398   0.557   3.540  0.0959  0.0474  0.4949
 6763ION    NA+10282   7.914   4.901   8.536  0.0970 -0.1962 -0.0297
 6764ION    NA+10283   0.996   3.181   3.806 -0.5336 -0.2422 -0.0138
 6765ION    NA+10284   9.571   5.572  12.393 -0.0419  0.5535 -0.0598
 6766ION    NA+10285   3.295   9.199   4.641 -0.2438  0.0315  0.0252
 6767ION    NA+10286   7.836   5.540   8.230  0.5812  0.0559  0.1287
 6768ION    NA+10287   5.411   3.204  11.584 -0.1946  0.0633 -0.0590
 6769ION    NA+10288   8.703   8.323   2.609  0.0618 -0.0508  0.0874
 6770ION    NA+10289   0.074   1.323   1.031 -0.2780 -0.2421 -0.0391
 6771ION    NA+10290   5.625   1.293   2.165 -0.2753  0.1949 -0.2945
 6772ION    NA+10291   4.491   8.579   3.207 -0.0884  0.1953 -0.2062
 6773ION    NA+10292   6.809   3.716  11.064  0.2474  0.2474 -0.0412
 6774ION    NA+10293   2.570   2.118   1.741 -0.0727  0.3571  0.5047
 6775ION    NA+10294   0.679   0.428   2.946 -0.1777  0.1728 -0.2130
 6776ION    CL-10295   6.330   3.761  10.751 -0.5208 -0.0034  0.2575
 6777ION    CL-10296   3.513   1.525  11.490  0.1597  0.0571  0.0298
 6778ION    CL-10297   8.199   2.077  11.093 -0.1248 -0.0117 -0.1407
 6779ION    CL-10298   4.696   9.603  11.337  0.0634 -0.1253 -0.0278
 6780ION    CL-10299   8.958   9.422  12.172  0.7850  0.0679 -0.2010
 6781ION    CL-10300   9.218   1.140   8.598  0.1824  0.0085 -0.1007
 6782ION    CL-10301   9.625   4.831   1.132 -0.1175 -0.1993  0.0024
 6783ION    CL-10302   5.426   5.235  12.142  0.2804  0.3797 -0.0713
 6784ION    CL-10303   3.553   2.705  11.135 -0.0591  0.0562  0.2395
 6785ION    CL-10304   9.487   8.625  11.701 -0.0547 -0.1128 -0.0152
 6786ION    CL-10305   8.316   8.003   2.609  0.0778  0.1587 -0.2143
 6787ION    CL-10306   7.919   7.105   2.794 -0.3987 -0.2744  0.0029
 6788ION    CL-10307   5.232   2.861  11.882 -0.3006  0.4036  0.2460
 6789ION    CL-10308   7.359   2.528   3.224 -0.3254 -0.0781  0.0286
 6790ION    CL-10309   3.672   2.372   0.736  0.1280 -0.1052  0.2351
 6791ION    CL-10310   3.599   6.164  10.212 -0.3915  0.1531  0.1700
 6792ION    CL-10311   6.028   2.399   3.524 -0.0655 -0.1141 -0.1129
 6793ION    CL-10312   3.304   9.197   9.914 -0.0661  0.2391 -0.1891
 6794ION    CL-10313   3.800   3.341   3.670 -0.1438  0.3598 -0.0812
 6795ION    CL-10314   6.148   1.836  11.761  0.2262 -0.2554  0.0438
 6796ION    CL-10315   5.122   3.537   2.191 -0.1147  0.1400 -0.0527
 6797ION    CL-10316   2.709   5.876   9.659 -0.1708 -0.2915 -0.1033
 6798ION    CL-10317   7.118   8.624   0.003  0.3596  0.0420  0.1747
 6799ION    CL-10318   5.328   0.370   2.548  0.1264 -0.0548  0.2344
 6800ION    CL-10319   8.833   3.343   0.302 -0.2535 -0.0841 -0.1487
 6801ION    CL-10320   8.544   6.899   1.959  0.2808 -0.0077 -0.0212
 6802ION    CL-10321   6.603   0.179  11.772 -0.0032 -0.0050 -0.2311
 6803ION    CL-10322   6.157   2.635   0.845  0.4556  0.2761 -0.0322
 6804ION    CL-10323   2.491   9.446  11.265  0.1371  0.2097  0.1681
 6805ION    CL-10324   0.298   7.181   3.619  0.1870 -0.1772  0.0339
 6806ION    CL-10325   0.446   2.457   8.978  0.1115  0.2113  0.0714
 6807ION    CL-10326   8.920   6.929   9.288  0.1803  0.0012 -0.4082
 6808ION    CL-10327   5.079   0.874   3.258 -0.5425  0.0229 -0.1194
 6809ION    CL-10328   1.899   8.533   0.095 -0.0296  0.4699 -0.2550
 6810ION    CL-10329   1.730   8.482  10.633  0.2099 -0.1475  0.1206
 6811ION    CL-10330   1.582   5.882   8.918 -0.0702  0.2199  0.0374
 6812ION    CL-10331   0.801   7.481  12.492 -0.0597  0.1305  0.1092
 6813ION    CL-10332   2.912   8.816   3.356  0.0314  0.4210 -0.0065
 6814ION    CL-10333   2.755   5.242   8.668 -0.4338  0.1106  0.1126
 6815ION    CL-10334   5.309   1.699   1.925 -0.2926  0.0326  0.1255
 6816ION    CL-10335   4.625   3.028   8.892  0.1850  0.2520 -0.1720
 6817ION    CL-10336   1.192   1.159   9.217  0.0075  0.5794 -0.0522
 6818ION    CL-10337   4.924   7.444   3.355 -0.0781  0.0480  0.0139
 6819ION    CL-10338   6.255   4.424   0.219  0.0183 -0.1139 -0.0380
 6820ION    CL-10339   2.156   4.675  10.251 -0.0189 -0.0113  0.3695
 6821ION    CL-10340   1.567   8.689   9.761 -0.3054  0.2756  0.1046
 6822ION    CL-10341   1.643   4.798   0.783  0.2695 -0.1227  0.0766
 6823ION    CL-10342   6.277   4.672   2.283  0.0941 -0.0978  0.2238
 6824ION    CL-10343   1.001   7.741   9.121  0.1374  0.3267  0.1362
 6825ION    CL-10344   9.366   6.528  11.577 -0.0265 -0.0427 -0.0000
 6826ION    CL-10345   1.875   3.741   0.735 -0.2405 -0.1241 -0.2763
 6827ION    CL-10346   2.985   6.835   2.942  0.1927 -0.3739  0.2068
 6828ION    CL-10347   5.688   6.442  12.033 -0.1281  0.1546 -0.0691
 6829ION    CL-10348   7.756   8.215   2.454 -0.0103  0.2266 -0.0711
 6830ION    CL-10349   2.145   3.884   4.359 -0.1709  0.1982  0.2629
 6831ION    CL-10350   6.882   8.585   9.786  0.1677  0.4483 -0.0113
 6832ION    CL-10351   6.053   8.063  11.892  0.2283  0.6027  0.0181
 6833ION    CL-10352   8.129   0.965  11.405 -0.0867  0.1638 -0.1737
 6834ION    CL-10353   6.659   5.014   3.659 -0.2010 -0.0747 -0.3264
 6835ION    CL-10354   4.999   3.877  11.629  0.1942 -0.0295 -0.0168
 6836ION    CL-10355   7.546   6.220   2.587  0.1627  0.0777 -0.0257
 6837ION    CL-10356   1.942   4.506   1.850 -0.3771  0.1694  0.0288
 6838ION    CL-10357   3.135   3.178   1.438 -0.2038 -0.3685 -0.2282
 6839ION    CL-10358   0.352   5.502  12.487 -0.0420  0.1531  0.2092
 6840ION    CL-10359   6.650   3.752   2.305  0.1673 -0.1792 -0.1448
 6841ION    CL-10360   5.039   3.488   0.689 -0.1813 -0.5182  0.2955
 6842ION    CL-10361   0.478   7.804   1.255  0.0889 -0.2532  0.2178
 6843ION    CL-10362   2.160   9.210   9.051  0.2607 -0.1591 -0.0269
 6844ION    CL-10363   2.866   1.628   0.324  0.1647 -0.0085 -0.1612
 6845ION    CL-10364   5.366   3.306   3.241 -0.2727 -0.0179 -0.2099
 6846ION    CL-10365   8.525   3.122   3.346  0.1242  0.3174  0.0347
   9.71002   9.71002  12.57182
