Protein in INSANE! Membrane UpperLeaflet>POPC=1.0 LowerLeaflet>POPC=1.0
10365
    1AU     AUC    1   9.012   1.114   6.975 -0.0204 -0.0715  0.0294
    1AU     AUC    2   9.315   1.244   6.981  0.0524 -0.0041  0.0317
    1AU     AUC    3   9.088   1.327   6.752 -0.0292  0.0124 -0.0979
    1AU     AUC    4   8.936   0.932   7.217  0.0264 -0.1398 -0.0927
    1AU     AUC    5   8.722   1.008   6.962  0.0204 -0.0396  0.0840
    1AU     AUC    6   8.999   0.816   6.921  0.0440  0.0441  0.0566
    1AU     AUC    7   9.251   1.026   6.790  0.0777  0.0496 -0.0169
    1AU     AUC    8   8.814   1.216   7.201 -0.1006 -0.0320 -0.0136
    1AU     AUC    9   9.025   1.458   7.077 -0.0132 -0.0304 -0.0525
    1AU     AUC   10   8.784   1.325   6.879  0.1013 -0.0076 -0.0039
    1AU     AUC   11   8.887   1.062   6.694  0.0277 -0.0401  0.0263
    1AU     AUC   12   9.160   1.176   7.252  0.0305 -0.0410  0.0346
    1AU     AUC   13   9.275   0.955   7.086 -0.0078  0.0408  0.0065
    1AU     AUC   14   9.663   1.401   7.038  0.0749  0.0181 -0.0045
    1AU     AUC   15   9.419   1.531   6.814 -0.0196  0.0066 -0.0082
    1AU     AUC   16   9.187   1.587   6.535  0.1246  0.0412  0.0537
    1AU     AUC   17   8.876   0.700   7.475 -0.0525  0.0494 -0.0142
    1AU     AUC   18   8.602   0.753   7.210 -0.0790 -0.0197 -0.0270
    1AU     AUC   19   8.389   0.831   6.910  0.0112  0.0140  0.0076
    1AU     AUC   20   9.010   0.509   6.811  0.0903 -0.1559  0.0313
    1AU     AUC   21   9.256   0.690   6.652 -0.0000 -0.0061  0.0332
    1AU     AUC   22   9.484   0.947   6.553  0.0257  0.0278 -0.0723
    1AU     AUC   23   8.594   1.304   7.437  0.0712 -0.0119  0.0230
    1AU     AUC   24   8.806   1.556   7.336  0.0563  0.0023  0.0223
    1AU     AUC   25   9.046   1.775   7.167  0.0336  0.0117  0.0735
    1AU     AUC   26   8.501   1.523   6.789  0.0699 -0.0126 -0.1887
    1AU     AUC   27   8.676   1.320   6.518 -0.0185  0.0568 -0.0685
    1AU     AUC   28   8.791   1.025   6.341  0.0321  0.0078 -0.0615
    1AU     AUC   29   9.301   1.263   7.515 -0.0508  0.0747  0.0661
    1AU     AUC   30   9.457   0.999   7.385  0.1401 -0.0205  0.0507
    1AU     AUC   31   9.529   0.726   7.193  0.0062  0.0427 -0.0011
    1AU     AUC   32   8.833   1.577   6.641  0.0926  0.0820  0.0398
    1AU     AUC   33   8.993   1.342   6.406 -0.0326  0.0829 -0.1015
    1AU     AUC   34   9.528   1.289   7.245  0.0423 -0.0487 -0.0272
    1AU     AUC   35   9.642   1.047   7.113 -0.0428 -0.0475 -0.0005
    1AU     AUC   36   8.437   1.170   6.807 -0.0030  0.0484  0.0139
    1AU     AUC   37   8.587   0.931   6.596  0.0228 -0.0361  0.0020
    1AU     AUC   38   9.076   0.978   7.510 -0.1304  0.0796  0.0543
    1AU     AUC   39   9.202   0.712   7.382 -0.0374  0.0519  0.0361
    1AU     AUC   40   9.593   1.157   6.808  0.0998 -0.0520 -0.0984
    1AU     AUC   41   9.372   1.253   6.511 -0.0135 -0.0275 -0.0247
    1AU     AUC   42   8.906   0.577   7.143 -0.0116  0.0078 -0.0003
    1AU     AUC   43   8.699   0.637   6.852 -0.0226  0.1189  0.0046
    1AU     AUC   44   9.343   1.610   7.037  0.0404  0.0138  0.0595
    1AU     AUC   45   9.062   1.729   6.850  0.0391 -0.0084  0.0264
    1AU     AUC   46   8.697   1.001   7.480  0.0837  0.0435  0.0006
    1AU     AUC   47   8.489   1.070   7.174 -0.1001 -0.0247  0.0173
    1AU     AUC   48   8.868   0.724   6.527 -0.0029 -0.0230  0.0265
    1AU     AUC   49   9.125   0.971   6.444  0.0755 -0.0594 -0.0629
    1AU     AUC   50   8.534   1.424   7.101 -0.0104  0.0082  0.0078
    1AU     AUC   51   8.745   1.665   7.021 -0.0518  0.0726  0.0274
    1AU     AUC   52   9.260   0.608   7.024 -0.0139 -0.0107 -0.0788
    1AU     AUC   53   9.516   0.790   6.854 -0.0260  0.0271 -0.0071
    1AU     AUC   54   8.951   1.298   7.540 -0.0219  0.0932 -0.0171
    1AU     AUC   55   9.202   1.524   7.377  0.0973  0.0654  0.0939
    1AU    AUSL   56   8.902   1.730   6.296 -0.0089  0.0058 -0.0171
    1AU    AUSL   57   8.611   1.821   6.674 -0.0239 -0.0462 -0.0055
    1AU     AUL   58   8.721   2.007   6.376  0.0483 -0.0653 -0.0311
    1AU       S   59   8.668   2.346   6.730  0.2713 -0.0633 -0.6439
    1AU     LIG   60   8.203   2.350   6.535 -0.0161 -0.0911  0.0917
    1AU     LIG   61   7.942   2.535   6.354 -0.5681  0.1313  0.1667
    1AU     LIG   62   7.726   2.862   6.314 -0.6643  0.2704  0.1449
    1AU       S   63   8.626   1.822   5.934  0.0225 -0.1319  0.1406
    1AU     LIG   64   8.196   1.781   5.767 -0.1290  0.1826 -0.0499
    1AU     LIG   65   8.160   1.681   5.374 -0.1734  0.2879 -0.3115
    1AU     LIG   66   7.893   1.674   5.066 -0.1671 -0.1415  0.1702
    1AU    AUSL   67   8.486   1.562   6.354 -0.0090 -0.0571  0.0646
    1AU    AUSL   68   8.540   1.119   6.301 -0.1499 -0.0446 -0.0153
    1AU     AUL   69   8.332   1.318   6.017  0.0416 -0.0514 -0.0449
    1AU       S   70   8.402   1.729   6.201 -0.1760 -0.4820 -0.7448
    1AU     LIG   71   8.402   2.236   6.075 -0.1029 -0.2661  0.0004
    1AU     LIG   72   8.733   2.480   6.256  0.0827 -0.0762 -0.2359
    1AU     LIG   73   8.641   2.821   6.534 -0.1825  0.0927  0.0848
    1AU       S   74   8.007   1.365   6.350 -0.1489  0.2889  0.3527
    1AU     LIG   75   7.810   1.548   5.987 -0.0293  0.4230 -0.0110
    1AU     LIG   76   7.425   1.814   5.984  0.0705  0.3852  0.3460
    1AU     LIG   77   7.271   1.995   5.726  0.0807  0.0432 -0.1120
    1AU    AUSL   78   8.777   1.378   6.071 -0.0098  0.1138 -0.0515
    1AU    AUSL   79   9.233   1.482   6.181 -0.0668 -0.0016  0.0673
    1AU     AUL   80   9.055   1.740   6.048  0.0388  0.1279  0.0048
    1AU       S   81   8.712   1.491   5.853  0.5163 -0.1956 -0.0353
    1AU     LIG   82   8.419   1.304   5.561 -0.0096  0.2597  0.3805
    1AU     LIG   83   8.005   1.139   5.716  0.0800  0.4245  0.0820
    1AU     LIG   84   7.703   0.817   5.555  0.3096  0.1503  0.4526
    1AU       S   85   9.257   1.346   5.895 -0.5942 -0.1404  0.0680
    1AU     LIG   86   9.007   1.556   5.482 -0.3088  0.2188  0.0443
    1AU     LIG   87   8.647   1.776   5.365  0.0831 -0.0046  0.2324
    1AU     LIG   88   8.522   2.187   5.494 -0.3077  0.2556  0.0555
    1AU    AUSL   89  10.026   1.206   7.207  0.0792 -0.0788 -0.0172
    1AU    AUSL   90   9.887   0.775   6.979 -0.0447  0.0330  0.0200
    1AU     AUL   91  10.188   0.892   7.060  0.0368  0.0032  0.0203
    1AU       S   92  10.253   1.068   7.488 -0.1504 -0.3333 -0.3377
    1AU     LIG   93  10.587   0.990   7.232 -0.1353  0.0158 -0.0299
    1AU     LIG   94  11.025   1.105   7.082 -0.2445 -0.3174  0.0570
    1AU     LIG   95  11.400   1.401   6.953  0.1898 -0.1077 -0.2108
    1AU       S   96  10.258   0.773   6.620  0.3015  0.1862  0.5125
    1AU     LIG   97  10.501   0.370   6.755  0.0578 -0.0778  0.1889
    1AU     LIG   98  10.886   0.203   6.812 -0.3301  0.0666 -0.1051
    1AU     LIG   99  11.012  -0.179   7.017 -0.0177  0.2504  0.1708
    1AU    AUSL  100   9.804   1.306   7.563 -0.1018  0.0153 -0.0458
    1AU    AUSL  101   9.849   1.602   6.813  0.0304  0.0750  0.1084
    1AU     AUL  102  10.201   1.412   7.137  0.0497  0.0657 -0.0148
    1AU       S  103  10.143   1.896   7.234 -0.3914 -0.0073 -0.0145
    1AU     LIG  104  10.556   2.082   7.341 -0.3741  0.0218 -0.0760
    1AU     LIG  105  10.865   2.364   7.348  0.1091 -0.1764 -0.1173
    1AU     LIG  106  10.847   2.807   7.250 -0.1953 -0.3223  0.2913
    1AU       S  107  10.178   1.257   7.641  0.1567  0.0890  0.0966
    1AU     LIG  108  10.503   1.602   7.525 -0.1446  0.0217  0.0848
    1AU     LIG  109  10.780   1.658   7.128  0.3242 -0.0787 -0.1291
    1AU     LIG  110  11.163   1.959   7.074  0.2227  0.4392 -0.1331
    1AU    AUSL  111   9.732   0.904   7.356 -0.0992 -0.0347  0.0484
    1AU    AUSL  112   9.441   1.062   7.661  0.0229  0.0232  0.1285
    1AU     AUL  113   9.746   1.057   7.761 -0.0396  0.0042  0.0540
    1AU       S  114   9.653   0.692   8.060 -0.2012  0.0368 -0.2009
    1AU     LIG  115  10.091   0.880   8.060 -0.0731 -0.0590  0.1753
    1AU     LIG  116  10.457   0.902   7.917 -0.1781  0.1321  0.0154
    1AU     LIG  117  10.865   0.838   8.066  0.0683  0.0803  0.3049
    1AU       S  118  10.117   0.845   7.549 -0.0851 -0.0304  0.1489
    1AU     LIG  119  10.491   0.554   7.428 -0.1772 -0.0693  0.2288
    1AU     LIG  120  10.902   0.751   7.532 -0.1005 -0.1741  0.2907
    1AU     LIG  121  11.317   0.690   7.373 -0.2354 -0.1892 -0.6570
    1AU    AUSL  122   8.193   0.936   6.517 -0.0132 -0.0476 -0.0510
    1AU    AUSL  123   8.536   0.696   6.299 -0.0678  0.0719  0.0147
    1AU     AUL  124   8.304   0.873   6.164 -0.0178  0.0055  0.0526
    1AU       S  125   7.934   1.168   6.286 -0.1186 -0.4149  0.3129
    1AU     LIG  126   7.722   0.819   6.050  0.1691 -0.3458 -0.2241
    1AU     LIG  127   7.257   0.727   5.879  0.2526  0.0734 -0.1661
    1AU     LIG  128   7.255   0.617   5.396  0.2032  0.0222 -0.0134
    1AU       S  129   8.144   0.441   6.289  0.1891  0.2620 -0.0394
    1AU     LIG  130   8.005   0.132   6.014  0.1110  0.4122  0.4057
    1AU     LIG  131   8.142  -0.278   5.922  0.3013  0.0271 -0.1313
    1AU     LIG  132   8.461  -0.580   5.936  0.0384  0.0334  0.0899
    1AU    AUSL  133   8.368   1.310   6.666  0.0206 -0.0386 -0.0583
    1AU    AUSL  134   8.092   1.045   6.939  0.0861  0.0092  0.0060
    1AU     AUL  135   7.972   0.957   6.678  0.0195  0.0460  0.0595
    1AU       S  136   7.693   1.202   7.004 -0.4351  0.0692  0.4580
    1AU     LIG  137   7.537   1.204   6.580 -0.0407 -0.1898 -0.1052
    1AU     LIG  138   7.431   1.264   6.090 -0.1992 -0.2872  0.6058
    1AU     LIG  139   7.345   1.173   5.645  0.1446  0.1979  0.3364
    1AU       S  140   8.047   1.409   6.479 -0.4832 -0.1768 -0.1718
    1AU     LIG  141   7.605   1.701   6.475  0.0337  0.3200 -0.0747
    1AU     LIG  142   7.213   1.956   6.453 -0.0094 -0.1659  0.0109
    1AU     LIG  143   6.970   2.123   6.122 -0.2292 -0.3365 -0.5713
    1AU    AUSL  144   9.164   0.734   7.742 -0.1103  0.0510 -0.0024
    1AU    AUSL  145   9.044   1.167   7.761  0.0153 -0.1098 -0.0700
    1AU     AUL  146   9.302   1.048   7.959  0.0663  0.0105 -0.0454
    1AU       S  147   9.539   0.665   8.113  0.0022 -0.1110  0.1995
    1AU     LIG  148   9.667   1.142   8.306  0.3893 -0.1577 -0.1045
    1AU     LIG  149   9.799   1.610   8.404  0.2610 -0.1854 -0.1413
    1AU     LIG  150   9.968   2.091   8.238 -0.3503 -0.0998  0.1563
    1AU       S  151   8.895   0.916   8.118  0.2107 -0.3811 -0.4085
    1AU     LIG  152   9.196   0.890   8.426 -0.1680 -0.2369 -0.2074
    1AU     LIG  153   9.522   0.719   8.622  0.0105  0.4320 -0.0551
    1AU     LIG  154   9.723   0.389   8.940 -0.0427 -0.2800  0.0132
    1AU    AUSL  155   9.563   0.621   7.621  0.0476  0.0247  0.0272
    1AU    AUSL  156   9.032   0.354   7.554 -0.0771 -0.0382 -0.0204
    1AU     AUL  157   9.249   0.438   7.814  0.0173 -0.0647 -0.0910
    1AU       S  158   9.198  -0.002   7.634  0.2229 -0.3375 -0.1801
    1AU     LIG  159   9.518  -0.392   7.691 -0.0107 -0.1965 -0.0974
    1AU     LIG  160   9.850  -0.699   7.533 -0.3490  0.0708 -0.0692
    1AU     LIG  161  10.264  -0.895   7.485  0.0872  0.4075  0.2756
    1AU       S  162   9.714   0.562   7.797 -0.1492 -0.2723 -0.2181
    1AU     LIG  163  10.145   0.435   7.872 -0.1718 -0.1957  0.1893
    1AU     LIG  164  10.583   0.389   7.913 -0.7756 -0.1580  0.1241
    1AU     LIG  165  10.868   0.046   8.083 -0.2219 -0.0774  0.1296
    1AU    AUSL  166   9.819   1.281   6.457 -0.0357 -0.0835  0.0130
    1AU    AUSL  167   9.767   1.181   6.883  0.0077  0.1095  0.0538
    1AU     AUL  168  10.106   1.212   6.716  0.0387 -0.0155  0.0204
    1AU       S  169  10.140   0.824   6.444 -0.0195 -0.2184  0.0107
    1AU     LIG  170  10.375   0.703   6.126  0.0636  0.2972 -0.1898
    1AU     LIG  171  10.762   0.680   6.285 -0.1264  0.0430  0.5335
    1AU     LIG  172  11.048   0.602   6.527  0.0365 -0.4198  0.1304
    1AU       S  173  10.081   1.543   6.360  0.5735 -0.0292 -0.3441
    1AU     LIG  174  10.359   1.297   6.280 -0.4654 -0.0738 -0.0004
    1AU     LIG  175  10.639   1.158   6.292 -0.2729 -0.2374  0.2146
    1AU     LIG  176  10.992   1.361   6.614 -0.1407  0.0301 -0.0057
    1AU    AUSL  177   9.823   1.599   7.221  0.0362  0.0716 -0.0309
    1AU    AUSL  178   9.490   1.914   6.617 -0.1028 -0.1129  0.0885
    1AU     AUL  179   9.940   2.041   6.797  0.0643  0.0269 -0.0019
    1AU       S  180  10.271   1.707   6.685  0.1348  0.0933 -0.0661
    1AU     LIG  181  10.547   1.344   6.774 -0.0184 -0.2319 -0.2631
    1AU     LIG  182  10.674   0.915   6.764 -0.0350 -0.1843 -0.0906
    1AU     LIG  183  10.925   0.593   7.045 -0.0419  0.2817  0.0066
    1AU       S  184   9.573   2.356   6.578  0.0627  0.4945  0.2661
    1AU     LIG  185   9.825   2.548   6.314  0.2036  0.1624  0.4433
    1AU     LIG  186  10.263   2.662   6.174  0.3621 -0.1332  0.0604
    1AU     LIG  187  10.657   3.032   6.247  0.0937  0.3107 -0.2236
    1AU    AUSL  188   9.463   1.495   6.548  0.0936 -0.0417  0.0971
    1AU    AUSL  189   9.490   1.101   6.211 -0.0003  0.0168 -0.0198
    1AU     AUL  190   9.622   1.467   6.182 -0.0456 -0.0366 -0.0220
    1AU       S  191   9.467   1.204   5.804 -0.0394 -0.3055  0.3518
    1AU     LIG  192   9.357   0.879   5.532 -0.0590  0.2183 -0.0576
    1AU     LIG  193   9.523   0.910   5.181  0.1979  0.2798 -0.1139
    1AU     LIG  194   9.788   0.640   4.926 -0.0355  0.0263  0.0716
    1AU       S  195   9.898   1.762   6.388  0.3011 -0.2585 -0.6158
    1AU     LIG  196  10.106   2.168   6.380  0.0356 -0.3021  0.1065
    1AU     LIG  197  10.566   2.302   6.406 -0.0020  0.1718 -0.0912
    1AU     LIG  198  10.836   2.523   6.158  0.0442  0.1980 -0.3416
    1AU    AUSL  199   8.731   0.270   6.911  0.0122 -0.0209 -0.0933
    1AU    AUSL  200   8.436   0.661   6.734 -0.0845  0.0532  0.0224
    1AU     AUL  201   8.528   0.210   6.698  0.0477  0.0064 -0.0311
    1AU       S  202   8.150   0.484   6.627  0.2451 -0.0331 -0.3878
    1AU     LIG  203   7.757   0.309   6.563 -0.3684  0.1627 -0.2949
    1AU     LIG  204   7.394   0.042   6.472 -0.0785  0.0692  0.1682
    1AU     LIG  205   6.995   0.175   6.611  0.0671  0.1184  0.0518
    1AU       S  206   8.612  -0.098   7.020 -0.2839  0.1091  0.3757
    1AU     LIG  207   8.582  -0.520   6.942 -0.2363  0.1762 -0.1040
    1AU     LIG  208   8.409  -0.889   6.675 -0.0141 -0.3770 -0.1509
    1AU     LIG  209   8.099  -1.103   6.530 -0.1751  0.1630  0.2466
    1AU    AUSL  210   8.733   0.520   7.296  0.0500 -0.0805 -0.0838
    1AU    AUSL  211   9.095   0.191   7.128 -0.0074 -0.0388  0.0226
    1AU     AUL  212   8.851   0.161   7.322 -0.1077  0.0174  0.0144
    1AU       S  213   8.456  -0.046   7.204  0.1240  0.3980 -0.0155
    1AU     LIG  214   8.340  -0.394   7.360 -0.4222  0.0111  0.0862
    1AU     LIG  215   8.073  -0.668   6.977 -0.2401  0.0897  0.2809
    1AU     LIG  216   7.544  -0.820   7.086  0.2734 -0.0325  0.1150
    1AU       S  217   9.278  -0.080   7.403 -0.0193  0.0758 -0.1394
    1AU     LIG  218   9.563  -0.304   7.169  0.4252  0.2250  0.0420
    1AU     LIG  219   9.852  -0.524   7.080 -0.1601 -0.4151 -0.0729
    1AU     LIG  220  10.234  -0.766   6.995  0.3586  0.2959  0.0455
    1AU    AUSL  221   8.360   0.436   7.085  0.1224  0.1029  0.0812
    1AU    AUSL  222   8.422   0.619   7.584  0.0962  0.0297  0.0011
    1AU     AUL  223   8.442   0.362   7.450  0.0802 -0.0573 -0.0405
    1AU       S  224   8.048   0.628   7.490 -0.1737  0.2041 -0.0485
    1AU     LIG  225   7.743   0.284   7.341  0.2029  0.3601  0.5515
    1AU     LIG  226   7.526   0.096   6.991 -0.2293  0.0368 -0.1366
    1AU     LIG  227   7.224  -0.122   6.948 -0.3798  0.1176  0.2859
    1AU       S  228   8.195   0.219   7.077 -0.0260  0.5239  0.4156
    1AU     LIG  229   8.056  -0.029   6.777  0.0250  0.3280  0.0985
    1AU     LIG  230   7.824  -0.164   6.409  0.1848 -0.2314 -0.5351
    1AU     LIG  231   7.601  -0.282   6.099  0.2060  0.1685  0.1114
    1AU    AUSL  232   9.253   2.052   6.990  0.0818 -0.0569 -0.0452
    1AU    AUSL  233   9.068   1.783   6.675  0.0537 -0.0063  0.0431
    1AU     AUL  234   9.202   2.074   6.536  0.0091  0.0086 -0.0569
    1AU       S  235   9.318   2.348   6.950 -0.1388 -0.1290  0.0325
    1AU     LIG  236   9.410   2.798   7.011  0.2037 -0.4715 -0.3045
    1AU     LIG  237   9.543   3.205   6.911 -0.2422 -0.0714 -0.1848
    1AU     LIG  238   9.438   3.609   6.723  0.0055  0.0153  0.6274
    1AU       S  239   8.883   2.331   6.718 -0.0736  0.0836 -0.3018
    1AU     LIG  240   9.144   2.678   6.562  0.3420 -0.0426 -0.0990
    1AU     LIG  241   9.158   3.094   6.629 -0.1715 -0.4443  0.1090
    1AU     LIG  242   8.793   3.331   6.528  0.2656  0.1756 -0.0738
    1AU    AUSL  243   9.476   1.677   6.986 -0.0693 -0.0106 -0.0703
    1AU    AUSL  244   9.480   1.926   7.352 -0.0283  0.0009  0.1035
    1AU     AUL  245   9.590   1.963   7.081  0.1020  0.0021 -0.0476
    1AU       S  246   9.555   2.334   6.784 -0.1536  0.0220  0.2402
    1AU     LIG  247  10.017   2.508   6.863  0.0919 -0.2315  0.1681
    1AU     LIG  248  10.428   2.438   6.883  0.0622 -0.3305 -0.0152
    1AU     LIG  249  10.837   2.562   6.811  0.3387  0.0012  0.2696
    1AU       S  250   9.848   2.009   7.468 -0.0324  0.0565 -0.0532
    1AU     LIG  251   9.774   2.457   7.335  0.1934  0.0967  0.0578
    1AU     LIG  252   9.905   2.912   7.135 -0.1403 -0.0062 -0.1117
    1AU     LIG  253   9.731   2.864   6.680 -0.2741  0.0263 -0.1457
    1AU    AUSL  254   8.319   1.066   7.593  0.0253 -0.1217  0.1247
    1AU    AUSL  255   8.752   0.859   7.660  0.0490  0.0862  0.0206
    1AU     AUL  256   8.364   0.806   7.836 -0.0944  0.0417  0.0573
    1AU       S  257   8.840   0.817   8.013  0.2896 -0.2827  0.2520
    1AU     LIG  258   9.123   0.477   8.237  0.0750  0.1913 -0.1296
    1AU     LIG  259   9.326   0.297   8.656  0.3559  0.0267 -0.1196
    1AU     LIG  260   9.428  -0.102   8.854 -0.0205 -0.0031  0.1145
    1AU       S  261   7.962   0.713   7.543  0.1827 -0.1944 -0.1248
    1AU     LIG  262   7.502   0.684   7.459 -0.4592 -0.1116  0.3435
    1AU     LIG  263   7.142   0.366   7.304 -0.1630 -0.0900 -0.4250
    1AU     LIG  264   6.855   0.323   7.530 -0.2249  0.5206  0.1691
    1AU    AUSL  265   8.363   0.846   7.201 -0.0035 -0.0322  0.0313
    1AU    AUSL  266   8.346   1.292   7.215 -0.0023 -0.0192  0.0366
    1AU     AUL  267   8.052   1.106   7.333 -0.0588  0.0223  0.0068
    1AU       S  268   7.738   1.367   7.206  0.3740 -0.2184  0.0039
    1AU     LIG  269   7.311   1.564   7.059  0.0158 -0.1794  0.3259
    1AU     LIG  270   6.968   1.790   6.933 -0.1081  0.0808  0.0765
    1AU     LIG  271   6.641   1.868   6.795  0.0978  0.0286 -0.3844
    1AU       S  272   8.029   0.669   7.319  0.0519  0.0274 -0.1621
    1AU     LIG  273   7.798   0.594   6.990  0.2720  0.0370 -0.1787
    1AU     LIG  274   7.508   0.774   6.825 -0.1685 -0.0271 -0.0020
    1AU     LIG  275   7.086   0.573   6.858 -0.0817  0.0954  0.2164
    1AU    AUSL  276   8.949   0.701   6.147  0.0130 -0.0157  0.0128
    1AU    AUSL  277   8.825   0.535   6.593 -0.0047 -0.0554  0.0058
    1AU     AUL  278   8.680   0.423   6.257 -0.0161  0.0307 -0.1326
    1AU       S  279   8.215   0.377   6.412 -0.1653  0.0839 -0.0375
    1AU     LIG  280   8.421  -0.067   6.288 -0.0032 -0.1686  0.2024
    1AU     LIG  281   8.661  -0.080   5.999  0.0268 -0.1440  0.1509
    1AU     LIG  282   8.960  -0.267   5.570 -0.2383  0.1784 -0.3614
    1AU       S  283   8.939   0.508   5.873  0.1119  0.1317  0.1617
    1AU     LIG  284   8.980   0.563   5.484 -0.0139 -0.1208  0.2000
    1AU     LIG  285   9.237   0.462   5.246 -0.0932 -0.0068  0.1811
    1AU     LIG  286   9.679   0.539   5.443 -0.0843  0.0310  0.1211
    1AU    AUSL  287   9.170   0.360   6.384 -0.0327  0.0586  0.0517
    1AU    AUSL  288   9.595   0.469   6.564  0.0118  0.0222  0.0599
    1AU     AUL  289   9.518   0.331   6.271 -0.0459 -0.0272  0.0213
    1AU       S  290   9.084   0.236   6.109  0.3140  0.4298  0.0262
    1AU     LIG  291   9.217  -0.208   6.129 -0.0057  0.2549  0.0714
    1AU     LIG  292   8.989  -0.588   5.959  0.1640  0.1069  0.1643
    1AU     LIG  293   8.773  -0.659   6.346  0.0202 -0.0535  0.1483
    1AU       S  294   9.756   0.100   6.587  0.2577 -0.0263 -0.1695
    1AU     LIG  295  10.084   0.285   6.308  0.2760  0.3274  0.3745
    1AU     LIG  296  10.589   0.229   6.190 -0.0223  0.1903  0.2313
    1AU     LIG  297  10.955   0.144   6.296 -0.1087 -0.0554 -0.0999
    1AU    AUSL  298   9.306   0.763   6.420 -0.0021 -0.0514 -0.0523
    1AU    AUSL  299   9.038   1.096   6.257  0.0063 -0.0094  0.0155
    1AU     AUL  300   9.334   0.784   6.044  0.1176 -0.0585  0.0581
    1AU       S  301   9.117   1.148   5.855 -0.0827 -0.3334  0.0393
    1AU     LIG  302   8.879   1.084   5.391 -0.1248  0.2406 -0.2138
    1AU     LIG  303   8.622   0.944   5.006  0.1724 -0.2321 -0.4415
    1AU     LIG  304   8.484   0.804   4.661  0.4149 -0.1990 -0.3432
    1AU       S  305   9.179   0.395   5.893  0.0467  0.0811 -0.0372
    1AU     LIG  306   9.364   0.096   5.704  0.1209 -0.0705 -0.2548
    1AU     LIG  307   9.442  -0.304   5.712  0.1425  0.2299 -0.1032
    1AU     LIG  308   9.505  -0.546   5.317  0.4654  0.1798 -0.1214
    1AU    AUSL  309   8.456   1.705   7.066 -0.0804 -0.1185  0.0447
    1AU    AUSL  310   8.836   1.969   7.012 -0.0431 -0.0392 -0.0482
    1AU     AUL  311   8.401   1.988   6.888 -0.0231 -0.0040 -0.1145
    1AU       S  312   8.238   2.076   7.306 -0.2128  0.1565  0.0720
    1AU     LIG  313   8.041   2.304   7.077 -0.0335  0.1346  0.0988
    1AU     LIG  314   7.840   2.656   6.807  0.1846 -0.2306 -0.0615
    1AU     LIG  315   7.357   2.747   6.684 -0.2488  0.3198  0.0445
    1AU       S  316   8.827   2.224   6.975  0.3406  0.0387  0.0328
    1AU     LIG  317   8.909   2.732   6.980 -0.1242  0.1846  0.0131
    1AU     LIG  318   9.045   3.203   7.122  0.1913  0.1198 -0.0169
    1AU     LIG  319   9.197   3.582   7.171  0.0453 -0.0192  0.1897
    1AU    AUSL  320   8.363   1.597   7.514  0.0786  0.0839 -0.0384
    1AU    AUSL  321   8.111   1.519   6.923 -0.0149  0.0599  0.0782
    1AU     AUL  322   8.147   1.611   7.276 -0.0676  0.0715 -0.0191
    1AU       S  323   8.266   2.056   7.517  0.0428 -0.7170 -0.0144
    1AU     LIG  324   7.755   1.978   7.492 -0.1561  0.1703 -0.0107
    1AU     LIG  325   7.421   2.162   7.347 -0.0182 -0.1947  0.0661
    1AU     LIG  326   7.108   2.415   7.393  0.3389  0.0506 -0.1383
    1AU       S  327   7.824   1.431   6.975  0.1076  0.1355  0.0394
    1AU     LIG  328   7.757   1.899   6.991  0.1117  0.1932  0.1341
    1AU     LIG  329   7.699   2.160   6.648  0.0614 -0.4203 -0.0357
    1AU     LIG  330   7.819   2.049   6.160 -0.1270 -0.4979  0.3593
    1AU    AUSL  331   8.675   1.887   7.400  0.0112  0.0973  0.0243
    1AU    AUSL  332   8.788   1.495   7.571 -0.0270  0.0253  0.0437
    1AU     AUL  333   8.525   1.735   7.746 -0.0333  0.1424  0.0617
    1AU       S  334   8.892   1.996   7.802  0.1802  0.3308  0.4160
    1AU     LIG  335   8.825   2.439   7.748 -0.0550 -0.1057 -0.0050
    1AU     LIG  336   8.857   2.773   7.493 -0.2230  0.2932  0.2181
    1AU     LIG  337   8.911   3.158   7.693 -0.1234  0.0300  0.2324
    1AU       S  338   8.539   2.092   7.393 -0.1378 -0.1229 -0.1959
    1AU     LIG  339   8.535   2.514   7.206 -0.0487 -0.2487  0.0814
    1AU     LIG  340   8.304   2.738   6.925 -0.5383  0.0672 -0.4267
    1AU     LIG  341   8.164   2.985   6.550 -0.0594 -0.1199 -0.1428
    1AU    AUSL  342   9.643   0.418   6.987 -0.1116  0.0347  0.0585
    1AU    AUSL  343   9.712   0.881   6.583  0.0556  0.0679 -0.0284
    1AU     AUL  344   9.869   0.532   6.723 -0.0382 -0.0349  0.0126
    1AU       S  345   9.750   0.027   6.819  0.3334 -0.5231  0.2858
    1AU     LIG  346  10.121   0.040   6.963  0.2353  0.1233  0.0594
    1AU     LIG  347  10.543   0.053   7.152 -0.3001  0.0080 -0.0608
    1AU     LIG  348  10.950  -0.127   7.539  0.0315 -0.1659 -0.2243
    1AU       S  349   9.902   0.844   6.362  0.0648 -0.2525 -0.1549
    1AU     LIG  350   9.798   0.627   6.019 -0.1537 -0.1593  0.4136
    1AU     LIG  351   9.900   0.268   5.833 -0.5121 -0.1079  0.0349
    1AU     LIG  352  10.250   0.111   5.791 -0.0713  0.0628  0.0207
    1AU    AUSL  353   9.230   0.444   6.803  0.0053  0.0381 -0.0805
    1AU    AUSL  354   9.322   0.531   7.276  0.0460  0.0569  0.0538
    1AU     AUL  355   9.447   0.208   7.097  0.1234  0.0911  0.0247
    1AU       S  356   9.394   0.059   6.657 -0.0057  0.1258 -0.2687
    1AU     LIG  357   9.442  -0.416   6.598  0.4583  0.1143 -0.3345
    1AU     LIG  358   9.336  -0.669   6.353  0.1030 -0.0742  0.3525
    1AU     LIG  359   9.175  -1.096   6.386  0.2448  0.1687 -0.0961
    1AU       S  360   9.501   0.146   7.539 -0.0450  0.0743 -0.0279
    1AU     LIG  361   9.871  -0.109   7.442 -0.0259 -0.1467  0.1180
    1AU     LIG  362  10.245  -0.346   7.311  0.1365 -0.3717 -0.0540
    1AU     LIG  363  10.584  -0.385   7.354 -0.1070  0.1003  0.1879
    1AU    AUSL  364   9.181   1.580   7.784 -0.0409 -0.0876  0.1036
    1AU    AUSL  365   8.611   1.242   7.856  0.0557  0.0090  0.0579
    1AU     AUL  366   8.885   1.440   7.984  0.0065 -0.0911  0.0173
    1AU       S  367   8.649   1.053   8.104 -0.4390  0.2615 -0.0262
    1AU     LIG  368   8.597   0.885   8.491 -0.1670  0.1439  0.1546
    1AU     LIG  369   8.826   0.432   8.593  0.0446 -0.0694 -0.1395
    1AU     LIG  370   8.962  -0.004   8.616 -0.0508  0.1275 -0.3666
    1AU       S  371   9.072   1.854   7.873  0.0935  0.2146  0.0011
    1AU     LIG  372   9.324   2.248   7.936 -0.1262 -0.0045  0.2864
    1AU     LIG  373   9.715   2.334   7.828  0.2843 -0.2524 -0.1485
    1AU     LIG  374  10.150   2.354   7.855 -0.1781 -0.3637  0.0050
    1AU    AUSL  375   9.088   1.796   7.412 -0.0510 -0.0779  0.0582
    1AU    AUSL  376   9.441   1.474   7.466 -0.0075 -0.0023  0.0001
    1AU     AUL  377   9.467   1.777   7.655  0.1195 -0.0295 -0.0073
    1AU       S  378   9.114   2.089   7.528  0.4572  0.5277 -0.4145
    1AU     LIG  379   9.280   2.468   7.492  0.1170  0.1233  0.0551
    1AU     LIG  380   9.346   2.866   7.821  0.1470  0.1768  0.1279
    1AU     LIG  381   9.345   3.328   7.896 -0.0112 -0.1085 -0.1025
    1AU       S  382   9.904   1.816   7.625 -0.2870  0.4250 -0.1905
    1AU     LIG  383  10.294   1.839   7.879  0.1243 -0.2672  0.2742
    1AU     LIG  384  10.787   1.788   8.029  0.2715 -0.0250  0.1629
    1AU     LIG  385  11.114   1.516   7.931  0.0552 -0.0275 -0.2517
    2POPC   NC3  386   7.595   6.595   8.745 -0.2242  0.0317  0.1825
    2POPC   PO4  387   7.702   6.824   8.336  0.0141 -0.1148  0.0240
    2POPC   GL1  388   7.612   7.046   8.002  0.1782 -0.0429 -0.1520
    2POPC   GL2  389   7.718   6.932   7.704  0.0846  0.1101 -0.1687
    2POPC   C1A  390   7.647   7.467   7.801 -0.1674 -0.1977  0.4073
    2POPC   D2A  391   7.893   7.816   7.782 -0.0499  0.1610  0.0067
    2POPC   C3A  392   8.221   7.983   7.541 -0.2622  0.2384 -0.1523
    2POPC   C4A  393   8.615   7.975   7.262  0.0777  0.0287 -0.5050
    2POPC   C1B  394   7.596   7.072   7.356 -0.2329 -0.3191 -0.2885
    2POPC   C2B  395   7.646   7.123   6.970 -0.1079  0.1740 -0.0771
    2POPC   C3B  396   7.738   6.872   6.559  0.1787  0.1351  0.0239
    2POPC   C4B  397   7.889   6.788   6.206  0.1551  0.0677  0.4853
    3POPC   NC3  398   3.910   8.179   8.962 -0.0890 -0.0486 -0.2435
    3POPC   PO4  399   3.720   8.174   8.439  0.1814 -0.1255 -0.0385
    3POPC   GL1  400   3.643   8.162   7.913 -0.0797  0.2836  0.0036
    3POPC   GL2  401   3.339   7.994   7.775 -0.1960 -0.3092  0.4045
    3POPC   C1A  402   3.685   8.372   7.429  0.1070  0.2770 -0.0522
    3POPC   D2A  403   3.815   8.470   7.094  0.0059 -0.1741 -0.1121
    3POPC   C3A  404   3.548   8.443   6.685  0.0252  0.1959  0.4346
    3POPC   C4A  405   3.562   7.993   6.422  0.1683 -0.2034  0.1708
    3POPC   C1B  406   3.575   7.799   7.497 -0.1325  0.2003  0.2421
    3POPC   C2B  407   3.431   7.412   7.243  0.2248 -0.0938 -0.0748
    3POPC   C3B  408   3.385   7.153   6.930  0.2331  0.1153  0.2732
    3POPC   C4B  409   3.199   6.861   6.630 -0.0250 -0.0313  0.0909
    4POPC   NC3  410   3.533   5.340   8.665 -0.1549  0.2548 -0.0990
    4POPC   PO4  411   3.884   5.019   8.663 -0.0849 -0.1443 -0.1958
    4POPC   GL1  412   3.984   4.930   8.272 -0.2160  0.1937 -0.2024
    4POPC   GL2  413   4.247   4.779   8.146 -0.2565  0.0124  0.1401
    4POPC   C1A  414   3.884   5.033   7.781 -0.1261  0.1241 -0.0508
    4POPC   D2A  415   3.670   4.866   7.378 -0.0942  0.0312  0.1526
    4POPC   C3A  416   3.187   5.065   7.298  0.2537 -0.0319  0.2189
    4POPC   C4A  417   2.735   5.081   7.482 -0.0042  0.2357  0.1891
    4POPC   C1B  418   4.192   4.706   7.603 -0.1367  0.0910  0.0795
    4POPC   C2B  419   4.192   4.718   7.136 -0.1499 -0.0869 -0.2275
    4POPC   C3B  420   3.907   4.688   6.791 -0.2393 -0.2432 -0.0761
    4POPC   C4B  421   3.730   4.972   6.487  0.0654 -0.2265 -0.1168
    5POPC   NC3  422   3.255   7.999   8.350  0.1235  0.0482 -0.1345
    5POPC   PO4  423   3.413   7.572   8.127  0.0414  0.3152 -0.2348
    5POPC   GL1  424   3.249   7.517   7.749 -0.1232 -0.1027  0.0841
    5POPC   GL2  425   3.227   7.140   7.720 -0.0822 -0.0595  0.1531
    5POPC   C1A  426   3.056   7.732   7.355 -0.1590 -0.1588  0.0457
    5POPC   D2A  427   3.087   7.733   6.848 -0.1166  0.0642  0.1304
    5POPC   C3A  428   3.505   7.625   6.790  0.0712  0.0068 -0.2060
    5POPC   C4A  429   3.938   7.545   6.623 -0.0602 -0.1278  0.1653
    5POPC   C1B  430   2.847   7.304   7.445 -0.0215  0.0995 -0.1639
    5POPC   C2B  431   2.658   7.472   7.060  0.0633 -0.1526  0.1412
    5POPC   C3B  432   2.618   7.729   6.604  0.0674  0.1056 -0.0530
    5POPC   C4B  433   2.274   7.781   6.200  0.2027 -0.2499 -0.0568
    6POPC   NC3  434   5.282   4.819   8.697 -0.1315 -0.4064  0.0666
    6POPC   PO4  435   5.004   4.459   8.739 -0.3239 -0.0762 -0.0057
    6POPC   GL1  436   5.011   4.491   8.258 -0.3721 -0.1022 -0.0032
    6POPC   GL2  437   4.740   4.718   8.038  0.0365  0.0088 -0.2795
    6POPC   C1A  438   5.164   4.250   7.917 -0.2050  0.0877 -0.0338
    6POPC   D2A  439   5.322   3.803   7.886  0.0984  0.2744  0.0358
    6POPC   C3A  440   5.098   3.598   7.656 -0.0853 -0.1295  0.0115
    6POPC   C4A  441   4.860   3.402   7.356  0.0787 -0.0986  0.2822
    6POPC   C1B  442   4.800   4.579   7.685  0.0069  0.1372  0.0001
    6POPC   C2B  443   4.629   4.349   7.284 -0.4175 -0.1455 -0.0414
    6POPC   C3B  444   4.444   4.407   6.826 -0.1649  0.2774  0.0121
    6POPC   C4B  445   4.446   4.424   6.394 -0.0618 -0.1523 -0.1047
    7POPC   NC3  446   0.113   7.285   8.866  0.2698  0.2049 -0.0273
    7POPC   PO4  447  -0.211   7.595   8.647 -0.3193 -0.0305 -0.0962
    7POPC   GL1  448  -0.192   7.543   8.154 -0.1259  0.1232 -0.1459
    7POPC   GL2  449  -0.351   7.359   8.147 -0.0832 -0.1642 -0.2075
    7POPC   C1A  450  -0.209   7.707   7.608  0.2178  0.0333  0.1379
    7POPC   D2A  451  -0.164   7.837   7.119 -0.0812 -0.3071  0.0351
    7POPC   C3A  452  -0.119   7.411   6.806  0.1592 -0.2141  0.1787
    7POPC   C4A  453  -0.193   7.174   6.540  0.1961  0.2919  0.2785
    7POPC   C1B  454  -0.411   7.289   7.729 -0.0735 -0.0937 -0.0411
    7POPC   C2B  455  -0.369   7.333   7.286 -0.0144 -0.0182  0.0892
    7POPC   C3B  456  -0.400   7.067   6.973 -0.0348  0.2005 -0.2177
    7POPC   C4B  457  -0.693   6.937   6.616  0.2245 -0.1371  0.0046
    8POPC   NC3  458   9.528   8.179   9.204  0.2074  0.0649 -0.0988
    8POPC   PO4  459   9.865   8.478   9.155 -0.0486 -0.2074 -0.0878
    8POPC   GL1  460  10.129   8.528   8.735  0.0772  0.0976  0.0889
    8POPC   GL2  461  10.247   8.850   8.814 -0.2557 -0.2411 -0.0538
    8POPC   C1A  462  10.078   8.668   8.350 -0.1121  0.1837  0.0896
    8POPC   D2A  463  10.084   8.906   7.998  0.2321  0.0584  0.1146
    8POPC   C3A  464  10.090   9.316   8.041  0.2927  0.0673  0.3043
    8POPC   C4A  465   9.906   9.630   8.316  0.1663  0.0305 -0.0964
    8POPC   C1B  466  10.302   9.137   8.450 -0.0613 -0.0433 -0.2031
    8POPC   C2B  467  10.481   9.445   8.314  0.1541 -0.1712  0.3001
    8POPC   C3B  468  10.466   9.742   7.882  0.1133  0.0798 -0.1242
    8POPC   C4B  469  10.338   9.988   7.581 -0.3525 -0.3280 -0.2397
    9POPC   NC3  470   1.388   4.450   8.120  0.2239 -0.0274 -0.0174
    9POPC   PO4  471   1.741   4.716   8.316  0.2313  0.2671 -0.0805
    9POPC   GL1  472   1.885   4.713   7.967  0.0818  0.2721  0.0633
    9POPC   GL2  473   1.833   4.397   7.793  0.1745  0.1529  0.1349
    9POPC   C1A  474   1.891   4.934   7.577 -0.2570 -0.0196  0.2205
    9POPC   D2A  475   1.646   5.100   7.238 -0.2874  0.0428 -0.0587
    9POPC   C3A  476   1.884   4.901   6.905 -0.1275 -0.2957 -0.1108
    9POPC   C4A  477   2.011   4.986   6.457  0.0761 -0.2087  0.1618
    9POPC   C1B  478   1.583   4.414   7.399  0.2169 -0.2303 -0.1501
    9POPC   C2B  479   1.541   4.535   7.012 -0.2323 -0.0618  0.4271
    9POPC   C3B  480   1.422   4.916   6.831 -0.2826  0.0019 -0.0484
    9POPC   C4B  481   1.607   5.405   6.782  0.1058 -0.3262 -0.0300
   10POPC   NC3  482   6.856   1.706   8.817 -0.2895 -0.0644 -0.1375
   10POPC   PO4  483   6.636   1.338   8.727  0.0046  0.2341 -0.0955
   10POPC   GL1  484   6.771   1.181   8.234  0.1018  0.0686 -0.4808
   10POPC   GL2  485   6.527   1.092   8.020 -0.0006  0.1254  0.1880
   10POPC   C1A  486   7.005   1.398   7.974 -0.3909 -0.1024 -0.4296
   10POPC   D2A  487   6.990   1.782   7.948 -0.0308 -0.0998 -0.0142
   10POPC   C3A  488   7.401   2.062   7.846  0.1559 -0.0789  0.2659
   10POPC   C4A  489   7.758   2.316   7.813 -0.1582 -0.4149 -0.0245
   10POPC   C1B  490   6.232   1.215   7.647 -0.1784  0.3720 -0.1539
   10POPC   C2B  491   6.214   1.140   7.170 -0.2125  0.1485  0.2164
   10POPC   C3B  492   6.131   0.766   6.880  0.2257  0.1003 -0.2493
   10POPC   C4B  493   6.132   0.267   6.805  0.0861  0.0600 -0.2935
   11POPC   NC3  494   2.405   8.450   8.605 -0.0501  0.0085 -0.0556
   11POPC   PO4  495   2.681   8.808   8.619 -0.3160  0.0541 -0.1234
   11POPC   GL1  496   2.534   8.687   8.161  0.0526  0.2314  0.1562
   11POPC   GL2  497   2.253   8.508   8.109  0.0105  0.0328  0.0026
   11POPC   C1A  498   2.741   8.591   7.828 -0.1468 -0.0769 -0.0885
   11POPC   D2A  499   2.933   8.844   7.412 -0.1545 -0.2446  0.1606
   11POPC   C3A  500   2.550   8.827   7.220  0.2608 -0.1604  0.0096
   11POPC   C4A  501   2.341   8.898   6.948  0.0563  0.0885 -0.1449
   11POPC   C1B  502   2.285   8.744   7.749 -0.1992 -0.1075 -0.0315
   11POPC   C2B  503   2.040   8.833   7.367  0.0321 -0.1920  0.1487
   11POPC   C3B  504   1.840   8.884   7.049  0.1694 -0.0329 -0.0854
   11POPC   C4B  505   1.598   8.945   6.693  0.1395 -0.1905 -0.0688
   12POPC   NC3  506   2.277   4.806   8.480  0.5022  0.2770  0.1169
   12POPC   PO4  507   2.031   5.111   8.307 -0.1196 -0.3384  0.0262
   12POPC   GL1  508   1.896   5.359   8.033  0.0119  0.2562 -0.0679
   12POPC   GL2  509   2.087   5.635   8.006  0.0036 -0.0285  0.0432
   12POPC   C1A  510   1.714   5.358   7.628 -0.1086  0.2099 -0.1882
   12POPC   D2A  511   1.814   5.620   7.243  0.1734  0.3253 -0.0967
   12POPC   C3A  512   1.743   6.075   7.228  0.1004  0.0961 -0.0759
   12POPC   C4A  513   2.024   6.277   6.997 -0.0351  0.0517  0.2882
   12POPC   C1B  514   2.188   5.482   7.614  0.2176 -0.2432  0.1150
   12POPC   C2B  515   2.254   5.201   7.304 -0.2448 -0.0621 -0.3324
   12POPC   C3B  516   2.409   4.927   7.119 -0.0756  0.0654  0.0533
   12POPC   C4B  517   2.660   4.829   6.761  0.0991  0.3269 -0.1863
   13POPC   NC3  518   0.896   4.767   8.313  0.0676 -0.0755  0.0322
   13POPC   PO4  519   1.271   4.804   8.472  0.2546  0.1936  0.1496
   13POPC   GL1  520   1.346   4.938   7.995 -0.0668 -0.0478 -0.4769
   13POPC   GL2  521   1.457   4.765   7.667  0.0995 -0.1296  0.0146
   13POPC   C1A  522   1.022   5.072   7.682 -0.1167  0.1810  0.3082
   13POPC   D2A  523   0.959   5.211   7.202 -0.3315  0.0299 -0.0949
   13POPC   C3A  524   1.097   5.411   6.848 -0.0214 -0.0102 -0.1469
   13POPC   C4A  525   0.920   5.477   6.426 -0.2634  0.2295  0.2197
   13POPC   C1B  526   1.176   4.808   7.284 -0.1388 -0.0953 -0.0317
   13POPC   C2B  527   0.891   4.847   6.889 -0.0592 -0.1095  0.0111
   13POPC   C3B  528   1.017   4.877   6.480 -0.0967 -0.0884 -0.0786
   13POPC   C4B  529   1.357   5.197   6.434  0.1415 -0.0582 -0.2993
   14POPC   NC3  530   8.495   8.052   8.628  0.2058  0.3242 -0.1021
   14POPC   PO4  531   8.858   8.134   8.596  0.1897  0.1757  0.0124
   14POPC   GL1  532   9.071   8.162   8.153  0.3506  0.2102  0.0512
   14POPC   GL2  533   9.292   7.920   7.999  0.3130  0.1224 -0.0543
   14POPC   C1A  534   9.022   8.254   7.604  0.3085 -0.0095 -0.0472
   14POPC   D2A  535   9.183   8.126   7.285  0.1027 -0.1146 -0.1397
   14POPC   C3A  536   9.138   8.107   6.897  0.0657 -0.4083 -0.4570
   14POPC   C4A  537   9.267   8.290   6.544 -0.0450  0.0409  0.1845
   14POPC   C1B  538   9.495   8.168   7.739 -0.1714  0.1499 -0.1463
   14POPC   C2B  539   9.475   8.521   7.403  0.1809 -0.0575  0.0477
   14POPC   C3B  540   9.209   8.642   7.007 -0.2931 -0.0008  0.0356
   14POPC   C4B  541   9.132   9.119   6.838  0.0002  0.2307  0.2619
   15POPC   NC3  542   7.490   7.972   8.536 -0.1879 -0.0795  0.0384
   15POPC   PO4  543   7.214   8.300   8.439 -0.0710 -0.1490  0.4795
   15POPC   GL1  544   7.241   8.354   7.971  0.0858  0.1851 -0.1095
   15POPC   GL2  545   7.008   8.127   7.875 -0.0492  0.2195  0.0137
   15POPC   C1A  546   7.420   8.180   7.570 -0.0236 -0.2529 -0.0656
   15POPC   D2A  547   7.828   8.014   7.274 -0.1270  0.1722 -0.2101
   15POPC   C3A  548   7.825   8.105   6.876  0.0342 -0.2661 -0.1143
   15POPC   C4A  549   7.865   8.328   6.417  0.0600  0.0119 -0.4001
   15POPC   C1B  550   6.938   7.962   7.532  0.1322 -0.0482  0.0424
   15POPC   C2B  551   6.709   7.766   7.246 -0.0461 -0.1549 -0.2686
   15POPC   C3B  552   6.346   7.452   7.238 -0.3880  0.3544  0.2035
   15POPC   C4B  553   5.928   7.445   7.232  0.2181  0.0028  0.1665
   16POPC   NC3  554   8.620   3.829   8.975  0.1069  0.0908  0.1677
   16POPC   PO4  555   8.343   3.992   8.592  0.0430  0.4504  0.2513
   16POPC   GL1  556   8.510   4.082   8.223 -0.1365 -0.1377  0.0491
   16POPC   GL2  557   8.642   4.459   8.062  0.2528  0.2261 -0.0567
   16POPC   C1A  558   8.788   4.032   7.887 -0.0519 -0.0523  0.2792
   16POPC   D2A  559   9.024   3.750   7.632 -0.2205 -0.0083  0.1378
   16POPC   C3A  560   9.334   3.994   7.364  0.0326 -0.2864 -0.0535
   16POPC   C4A  561   9.433   4.387   7.176  0.2103 -0.2194  0.2268
   16POPC   C1B  562   8.495   4.463   7.483  0.0732 -0.0352  0.0221
   16POPC   C2B  563   8.467   4.490   7.001 -0.3359  0.1677  0.2071
   16POPC   C3B  564   8.375   4.640   6.613  0.4286 -0.1242  0.1104
   16POPC   C4B  565   8.513   4.942   6.378  0.1526 -0.2819  0.0625
   17POPC   NC3  566   5.244   2.715   8.557  0.0068 -0.0814 -0.2174
   17POPC   PO4  567   5.032   2.556   8.202  0.0791 -0.1290 -0.1139
   17POPC   GL1  568   5.299   2.700   7.756  0.0017 -0.0541 -0.1562
   17POPC   GL2  569   5.039   2.619   7.620  0.0437 -0.0184 -0.4097
   17POPC   C1A  570   5.493   2.737   7.378 -0.0025  0.0339 -0.2623
   17POPC   D2A  571   5.436   2.803   6.850  0.0908  0.1241  0.1185
   17POPC   C3A  572   5.005   2.771   6.774  0.1808  0.0448 -0.2496
   17POPC   C4A  573   4.781   2.495   6.778 -0.0569  0.0581  0.0184
   17POPC   C1B  574   4.687   2.730   7.423  0.0796  0.0695 -0.0207
   17POPC   C2B  575   4.475   3.056   7.028  0.2166  0.1974 -0.1254
   17POPC   C3B  576   4.006   2.988   6.988  0.0510 -0.2523  0.1778
   17POPC   C4B  577   3.581   2.752   6.861  0.0997 -0.1746 -0.2722
   18POPC   NC3  578   6.215   2.299   8.565  0.1224 -0.1103  0.2498
   18POPC   PO4  579   6.747   2.155   8.580  0.1608 -0.0484 -0.1928
   18POPC   GL1  580   6.734   2.280   8.221 -0.3508 -0.3075  0.2704
   18POPC   GL2  581   6.562   2.177   7.869  0.0622 -0.4830 -0.2575
   18POPC   C1A  582   7.009   2.396   7.874 -0.0239  0.1705  0.1347
   18POPC   D2A  583   7.367   2.637   7.807 -0.0920  0.1212  0.0585
   18POPC   C3A  584   7.298   3.011   7.592 -0.0480  0.0091 -0.1759
   18POPC   C4A  585   7.538   3.444   7.510 -0.2925  0.1749 -0.1783
   18POPC   C1B  586   6.586   2.544   7.476  0.1608  0.2659  0.0522
   18POPC   C2B  587   6.926   2.770   7.171  0.0548  0.0133  0.0578
   18POPC   C3B  588   6.950   3.038   6.817 -0.1209 -0.0890 -0.0206
   18POPC   C4B  589   6.650   3.143   6.544  0.0692 -0.2783  0.0701
   19POPC   NC3  590   4.464   7.314   8.333 -0.0961  0.3692 -0.1829
   19POPC   PO4  591   4.697   7.730   8.322  0.3534  0.1436 -0.3421
   19POPC   GL1  592   4.614   7.553   7.895 -0.0471  0.4460 -0.0222
   19POPC   GL2  593   4.592   7.162   7.795  0.2159  0.2215  0.0168
   19POPC   C1A  594   4.506   7.558   7.447  0.0997 -0.1050  0.1004
   19POPC   D2A  595   4.243   7.724   7.105  0.1660 -0.0770  0.1098
   19POPC   C3A  596   3.930   8.000   7.165 -0.0971  0.0783 -0.1093
   19POPC   C4A  597   3.444   8.108   7.046  0.0989 -0.1015  0.3136
   19POPC   C1B  598   4.997   7.359   7.587 -0.0497 -0.0305 -0.1851
   19POPC   C2B  599   5.101   7.617   7.226 -0.0131 -0.1643  0.3112
   19POPC   C3B  600   5.224   8.121   7.096 -0.0114  0.1521  0.0528
   19POPC   C4B  601   5.337   8.471   6.839  0.2184 -0.0418 -0.1176
   20POPC   NC3  602   3.335   8.533   8.510  0.0858 -0.0103 -0.1121
   20POPC   PO4  603   2.980   8.372   8.594  0.4300 -0.2948 -0.2128
   20POPC   GL1  604   2.756   8.240   8.301 -0.0448 -0.1793  0.4057
   20POPC   GL2  605   2.482   8.059   8.171 -0.0404 -0.5299  0.0606
   20POPC   C1A  606   2.893   8.099   7.810 -0.0351 -0.1185 -0.2066
   20POPC   D2A  607   2.997   8.230   7.350  0.2712 -0.2902 -0.3726
   20POPC   C3A  608   2.747   8.388   6.938  0.0989  0.0860  0.0552
   20POPC   C4A  609   2.675   8.708   6.570  0.1995  0.0539 -0.0559
   20POPC   C1B  610   2.347   8.163   7.725  0.2317  0.0975 -0.0089
   20POPC   C2B  611   2.288   8.399   7.314 -0.0375 -0.0345  0.0087
   20POPC   C3B  612   2.026   8.386   6.981  0.1096 -0.1717 -0.0397
   20POPC   C4B  613   1.668   8.480   6.825  0.3251  0.0218 -0.0446
   21POPC   NC3  614   4.349   0.246   8.729 -0.3350  0.1066  0.1397
   21POPC   PO4  615   4.035   0.027   8.925 -0.0119  0.0097  0.0027
   21POPC   GL1  616   3.896   0.111   8.449 -0.2533  0.0964  0.1501
   21POPC   GL2  617   3.756   0.426   8.376  0.0261  0.0509  0.1621
   21POPC   C1A  618   3.902   0.038   7.879  0.0476 -0.1396  0.2837
   21POPC   D2A  619   3.644   0.051   7.426 -0.1560 -0.0886  0.1838
   21POPC   C3A  620   3.439   0.016   6.974 -0.0863  0.1705  0.1141
   21POPC   C4A  621   3.394   0.120   6.536  0.0450  0.0118  0.0669
   21POPC   C1B  622   3.470   0.471   8.000 -0.0909  0.2542 -0.0475
   21POPC   C2B  623   3.110   0.749   7.702 -0.1687 -0.2513  0.1871
   21POPC   C3B  624   2.715   0.675   7.772 -0.0707 -0.1278 -0.1221
   21POPC   C4B  625   2.286   0.735   7.883  0.0285  0.1508  0.0458
   22POPC   NC3  626   0.840   6.789   8.367 -0.5691  0.1248  0.2846
   22POPC   PO4  627   0.994   6.348   8.263 -0.5163 -0.1288  0.0908
   22POPC   GL1  628   0.745   6.496   7.944 -0.2227  0.0003  0.2001
   22POPC   GL2  629   0.461   6.340   7.775 -0.0612  0.0701 -0.2183
   22POPC   C1A  630   0.640   6.742   7.549  0.2915  0.5608 -0.0759
   22POPC   D2A  631   0.755   7.094   7.281  0.1532 -0.1889 -0.1425
   22POPC   C3A  632   1.066   7.179   7.096  0.2432  0.1836 -0.0002
   22POPC   C4A  633   1.102   7.635   6.980  0.1948  0.4104 -0.1193
   22POPC   C1B  634   0.227   6.207   7.432 -0.1817 -0.1877  0.1420
   22POPC   C2B  635   0.065   6.472   7.098  0.2140 -0.1802 -0.1361
   22POPC   C3B  636   0.087   6.901   6.892  0.1500  0.0352 -0.1507
   22POPC   C4B  637   0.309   7.149   7.062  0.0103  0.1298 -0.0732
   23POPC   NC3  638   9.621   4.646   9.225 -0.2670  0.2262 -0.0483
   23POPC   PO4  639   9.664   4.441   8.745  0.2982 -0.1815 -0.0815
   23POPC   GL1  640   9.859   4.292   8.437 -0.1277  0.0574  0.5364
   23POPC   GL2  641   9.943   3.920   8.358 -0.3667 -0.1251 -0.0879
   23POPC   C1A  642   9.826   4.359   8.011 -0.1463 -0.1739  0.0211
   23POPC   D2A  643   9.713   4.258   7.612 -0.3495  0.2800  0.0519
   23POPC   C3A  644   9.903   4.591   7.295 -0.1377 -0.2835 -0.0910
   23POPC   C4A  645   9.836   4.273   6.961  0.1940 -0.1899  0.0454
   23POPC   C1B  646   9.854   3.902   7.974  0.1806 -0.0448 -0.0203
   23POPC   C2B  647   9.598   3.669   7.625  0.0652 -0.1145  0.1237
   23POPC   C3B  648   9.815   3.858   7.211  0.0338  0.0404  0.0295
   23POPC   C4B  649   9.930   3.704   6.891 -0.1690  0.3078  0.3294
   24POPC   NC3  650   5.492   9.228   8.521  0.0315 -0.2145  0.0841
   24POPC   PO4  651   5.158   9.031   8.446  0.0136 -0.1910  0.1653
   24POPC   GL1  652   5.212   9.112   8.039 -0.2965  0.0106  0.2243
   24POPC   GL2  653   5.254   9.380   7.762 -0.2432  0.2381  0.2621
   24POPC   C1A  654   5.065   8.907   7.732  0.1606  0.3406  0.0781
   24POPC   D2A  655   5.083   8.440   7.476 -0.3750 -0.2151  0.1867
   24POPC   C3A  656   4.771   8.461   7.117 -0.1571  0.1167  0.3161
   24POPC   C4A  657   4.747   8.249   6.714 -0.4599  0.1409  0.3098
   24POPC   C1B  658   5.248   9.340   7.285  0.2273  0.0601  0.0479
   24POPC   C2B  659   5.129   9.385   6.826 -0.0409 -0.1583 -0.0581
   24POPC   C3B  660   4.828   9.220   6.492 -0.0801  0.0638 -0.1758
   24POPC   C4B  661   4.845   8.909   6.098  0.1531  0.2009  0.0158
   25POPC   NC3  662   4.768   8.806   8.792 -0.0205  0.1463  0.1873
   25POPC   PO4  663   4.432   9.133   8.586 -0.1756 -0.1879 -0.0195
   25POPC   GL1  664   4.341   9.251   8.153 -0.0171 -0.1932  0.4294
   25POPC   GL2  665   4.063   9.524   8.064 -0.0460  0.1411 -0.3039
   25POPC   C1A  666   4.367   9.066   7.708  0.2205  0.1183  0.1782
   25POPC   D2A  667   4.188   8.771   7.463 -0.2873 -0.0370 -0.0588
   25POPC   C3A  668   4.367   8.794   7.018  0.2715  0.1997  0.1746
   25POPC   C4A  669   4.115   9.092   6.715 -0.0777  0.0158  0.0146
   25POPC   C1B  670   3.955   9.407   7.583  0.3472  0.2650  0.3576
   25POPC   C2B  671   3.766   9.502   7.198 -0.1147 -0.1172 -0.1462
   25POPC   C3B  672   3.926   9.723   6.758  0.1718  0.1233  0.1160
   25POPC   C4B  673   4.295   9.671   6.533 -0.0574  0.3734  0.1801
   26POPC   NC3  674   7.969   3.283   8.831 -0.1631 -0.2314  0.2067
   26POPC   PO4  675   8.301   2.990   8.999 -0.0071  0.2685 -0.0607
   26POPC   GL1  676   8.325   3.020   8.541 -0.1636 -0.1973 -0.0895
   26POPC   GL2  677   7.945   3.029   8.328 -0.2388  0.0140  0.2307
   26POPC   C1A  678   8.542   3.190   8.143 -0.0641  0.1619  0.0425
   26POPC   D2A  679   8.577   3.534   7.848  0.2295 -0.2926 -0.2786
   26POPC   C3A  680   8.677   3.488   7.447  0.1807  0.2590 -0.1376
   26POPC   C4A  681   8.733   3.641   7.031 -0.1427  0.0859 -0.0010
   26POPC   C1B  682   7.863   2.964   7.856  0.0774  0.1934 -0.0059
   26POPC   C2B  683   7.824   2.978   7.534 -0.0944 -0.1668  0.0987
   26POPC   C3B  684   7.967   2.998   7.184 -0.0399 -0.2646  0.0415
   26POPC   C4B  685   7.770   3.133   6.857  0.1569  0.0549 -0.3244
   27POPC   NC3  686   9.232   4.104   8.818 -0.1337  0.3632  0.2975
   27POPC   PO4  687   8.844   4.202   8.629 -0.2273  0.0235  0.2317
   27POPC   GL1  688   9.086   4.002   8.339  0.1446  0.2991  0.0410
   27POPC   GL2  689   9.388   4.178   8.334 -0.2665  0.2652 -0.0039
   27POPC   C1A  690   9.490   3.680   8.289 -0.2145  0.1283 -0.1146
   27POPC   D2A  691   9.528   3.206   8.335 -0.0443  0.1397  0.1616
   27POPC   C3A  692   9.774   3.095   7.978 -0.0393 -0.0255  0.1023
   27POPC   C4A  693   9.928   2.764   7.711  0.1984  0.2577  0.0374
   27POPC   C1B  694   9.211   4.244   7.879  0.1498  0.0486 -0.0707
   27POPC   C2B  695   9.009   4.477   7.680 -0.0233  0.2953  0.0615
   27POPC   C3B  696   8.955   4.550   7.208  0.1239 -0.1572  0.1076
   27POPC   C4B  697   8.864   4.397   6.774 -0.2171  0.0695  0.2606
   28POPC   NC3  698   2.219   1.072   9.151 -0.0494  0.1471 -0.0065
   28POPC   PO4  699   2.371   1.327   8.898 -0.0197 -0.2215 -0.0281
   28POPC   GL1  700   2.234   1.253   8.575  0.1867 -0.0021 -0.3371
   28POPC   GL2  701   2.439   1.481   8.419  0.0451 -0.0454 -0.1006
   28POPC   C1A  702   2.108   1.040   8.252 -0.2604  0.1730  0.0152
   28POPC   D2A  703   1.832   0.671   8.019  0.0503  0.3387  0.0909
   28POPC   C3A  704   1.936   0.576   7.508 -0.0213 -0.0831 -0.0302
   28POPC   C4A  705   2.025   0.507   7.088  0.0355 -0.1543  0.2577
   28POPC   C1B  706   2.635   1.569   8.017  0.2145 -0.2544 -0.0489
   28POPC   C2B  707   2.712   1.591   7.594  0.0623 -0.2196  0.3264
   28POPC   C3B  708   2.663   1.594   7.108 -0.1909 -0.0952  0.1730
   28POPC   C4B  709   2.872   1.575   6.661 -0.0527  0.3379 -0.0345
   29POPC   NC3  710   1.117   3.517   8.582 -0.0185  0.0446  0.0640
   29POPC   PO4  711   1.519   3.608   8.715 -0.0873  0.0614  0.0298
   29POPC   GL1  712   1.870   3.397   8.452  0.3286 -0.2117 -0.0667
   29POPC   GL2  713   1.680   3.337   8.235  0.1299 -0.1402  0.2087
   29POPC   C1A  714   2.275   3.390   8.272  0.2131  0.0288  0.3473
   29POPC   D2A  715   2.668   3.534   8.336 -0.1368 -0.1650  0.1904
   29POPC   C3A  716   2.933   3.465   8.001 -0.3566 -0.0455 -0.1667
   29POPC   C4A  717   3.172   3.704   7.712 -0.1101 -0.0209  0.0130
   29POPC   C1B  718   1.952   3.433   7.884  0.2035 -0.2231 -0.0007
   29POPC   C2B  719   1.796   3.473   7.452 -0.0584  0.3116  0.0130
   29POPC   C3B  720   1.560   3.445   7.196  0.0844  0.0188  0.1900
   29POPC   C4B  721   1.433   3.092   6.828 -0.3232  0.0712  0.4537
   30POPC   NC3  722   0.397   4.338   8.737  0.2020  0.0204  0.0960
   30POPC   PO4  723   0.233   4.726   8.910 -0.2476  0.0555  0.0455
   30POPC   GL1  724   0.122   4.730   8.419 -0.0221 -0.1950  0.4755
   30POPC   GL2  725  -0.107   4.947   8.218 -0.0411 -0.1611 -0.2158
   30POPC   C1A  726   0.091   4.800   7.824  0.1941 -0.0383  0.0410
   30POPC   D2A  727   0.088   5.062   7.477 -0.0046  0.3654 -0.1961
   30POPC   C3A  728   0.464   5.263   7.358 -0.0385  0.0196 -0.0585
   30POPC   C4A  729   0.570   5.673   7.081  0.1198 -0.2566 -0.0384
   30POPC   C1B  730  -0.408   4.720   7.906  0.1753  0.0491 -0.1343
   30POPC   C2B  731  -0.466   4.798   7.496  0.1263  0.0129 -0.0283
   30POPC   C3B  732  -0.312   5.051   7.125 -0.1009 -0.0486 -0.0329
   30POPC   C4B  733   0.072   5.269   7.014 -0.2193 -0.0904  0.0915
   31POPC   NC3  734   6.539   0.308   8.288 -0.0536 -0.1850 -0.1475
   31POPC   PO4  735   6.292   0.062   7.953  0.1632  0.1515 -0.0765
   31POPC   GL1  736   6.063  -0.023   7.617 -0.0518  0.0766 -0.1123
   31POPC   GL2  737   5.776  -0.350   7.682 -0.0630  0.2201  0.0580
   31POPC   C1A  738   6.306  -0.125   7.253 -0.1787 -0.1341 -0.4114
   31POPC   D2A  739   6.168  -0.318   6.936 -0.0299  0.1217  0.0581
   31POPC   C3A  740   6.263  -0.222   6.422 -0.0028 -0.2399 -0.3803
   31POPC   C4A  741   6.158   0.098   6.081  0.2043 -0.0047 -0.0938
   31POPC   C1B  742   5.719  -0.268   7.243 -0.3319 -0.1018 -0.2223
   31POPC   C2B  743   5.636  -0.203   6.821  0.1232  0.1824 -0.0525
   31POPC   C3B  744   5.779  -0.330   6.400 -0.2299 -0.3224 -0.2840
   31POPC   C4B  745   6.128  -0.569   6.060  0.1675 -0.2838 -0.2419
   32POPC   NC3  746   4.479   2.152   8.720  0.3133  0.0436 -0.1614
   32POPC   PO4  747   4.536   2.364   8.429  0.0992 -0.1094  0.1370
   32POPC   GL1  748   4.420   2.426   8.016 -0.1109  0.0314  0.0362
   32POPC   GL2  749   4.100   2.584   7.994 -0.1586  0.0883 -0.1264
   32POPC   C1A  750   4.291   2.348   7.568 -0.0890 -0.1404  0.0397
   32POPC   D2A  751   4.543   2.347   7.134  0.2857 -0.3418 -0.1418
   32POPC   C3A  752   4.454   2.162   6.794 -0.1225  0.0391 -0.3072
   32POPC   C4A  753   4.332   2.203   6.397 -0.1207  0.4339 -0.1685
   32POPC   C1B  754   3.826   2.390   7.765  0.3888  0.1338  0.1483
   32POPC   C2B  755   3.385   2.306   7.520 -0.2905 -0.1273 -0.0303
   32POPC   C3B  756   3.004   2.322   7.322  0.0961  0.2007 -0.1702
   32POPC   C4B  757   2.873   2.041   7.046 -0.0887  0.0944 -0.1835
   33POPC   NC3  758   7.951   1.530   8.351 -0.3455  0.1288 -0.3343
   33POPC   PO4  759   7.726   1.181   8.151 -0.0728  0.0352 -0.0407
   33POPC   GL1  760   7.704   1.172   7.719 -0.1102 -0.2189 -0.1857
   33POPC   GL2  761   7.828   1.492   7.633 -0.0033  0.2478  0.0821
   33POPC   C1A  762   7.368   1.176   7.445 -0.1727  0.0236 -0.2238
   33POPC   D2A  763   7.168   0.944   7.209 -0.0213 -0.0890  0.3484
   33POPC   C3A  764   7.057   1.061   6.875 -0.2006  0.0849 -0.1843
   33POPC   C4A  765   7.107   1.420   6.555 -0.1111 -0.0350  0.3199
   33POPC   C1B  766   7.355   1.639   7.582  0.2597 -0.0167  0.0700
   33POPC   C2B  767   7.015   1.904   7.435 -0.0549 -0.3851 -0.1238
   33POPC   C3B  768   6.673   1.859   7.427  0.1405  0.3021 -0.2473
   33POPC   C4B  769   6.276   1.638   7.186 -0.4329  0.1842  0.1109
   34POPC   NC3  770   4.038   4.378   8.956 -0.0407  0.0875 -0.2967
   34POPC   PO4  771   3.815   4.130   8.741 -0.1723 -0.0335  0.1632
   34POPC   GL1  772   3.720   4.178   8.333  0.1591 -0.0639  0.0034
   34POPC   GL2  773   3.292   4.449   8.261  0.0735 -0.0728  0.4192
   34POPC   C1A  774   3.467   4.038   7.950 -0.1889 -0.2209  0.2160
   34POPC   D2A  775   3.238   4.114   7.515  0.1485  0.3066  0.4226
   34POPC   C3A  776   2.816   3.939   7.369 -0.1557  0.1381 -0.1533
   34POPC   C4A  777   2.754   3.610   7.344  0.0439 -0.2601 -0.2477
   34POPC   C1B  778   3.001   4.235   8.003 -0.1372 -0.1029 -0.2615
   34POPC   C2B  779   2.719   3.909   8.002  0.1161 -0.4592 -0.1189
   34POPC   C3B  780   2.427   3.592   7.826 -0.2875  0.0784 -0.2502
   34POPC   C4B  781   2.284   3.671   7.433 -0.1653 -0.1858 -0.0326
   35POPC   NC3  782   5.125   5.734   8.635  0.0862 -0.0243 -0.3089
   35POPC   PO4  783   4.928   6.005   8.376  0.2856  0.2129 -0.0032
   35POPC   GL1  784   4.635   5.892   8.056 -0.0935 -0.0150  0.2803
   35POPC   GL2  785   4.532   6.087   7.776 -0.0391 -0.0804  0.4704
   35POPC   C1A  786   4.506   5.573   7.951 -0.1152  0.0932  0.1596
   35POPC   D2A  787   4.319   5.236   7.728 -0.0106 -0.2253  0.1856
   35POPC   C3A  788   4.050   5.165   7.232  0.0084 -0.2311 -0.1785
   35POPC   C4A  789   4.232   5.168   6.782  0.4352  0.0468 -0.0676
   35POPC   C1B  790   4.309   6.148   7.392 -0.1965  0.1716  0.0936
   35POPC   C2B  791   4.003   6.169   7.007 -0.0034 -0.1077  0.4672
   35POPC   C3B  792   3.691   6.020   6.797  0.2112 -0.0206 -0.0279
   35POPC   C4B  793   3.365   5.762   6.849 -0.0739 -0.0351 -0.2142
   36POPC   NC3  794   4.097   5.975   8.789 -0.2300 -0.0006  0.2125
   36POPC   PO4  795   3.668   5.936   8.670 -0.0280 -0.1896  0.1132
   36POPC   GL1  796   3.710   5.714   8.344  0.0508  0.0247  0.3899
   36POPC   GL2  797   3.711   5.979   8.152  0.0662 -0.0519  0.3288
   36POPC   C1A  798   3.970   5.543   7.963 -0.1653 -0.2452  0.0890
   36POPC   D2A  799   4.041   5.626   7.571  0.2743 -0.0750 -0.3371
   36POPC   C3A  800   4.408   5.583   7.231  0.0943 -0.0385  0.1649
   36POPC   C4A  801   4.560   5.896   7.015  0.0990  0.1299 -0.3668
   36POPC   C1B  802   3.614   5.847   7.734 -0.0901  0.0474  0.1216
   36POPC   C2B  803   3.729   5.831   7.266 -0.1024  0.0754 -0.2487
   36POPC   C3B  804   4.035   5.633   6.924 -0.1632  0.1129  0.0538
   36POPC   C4B  805   4.354   5.613   6.629 -0.1141 -0.3175  0.0444
   37POPC   NC3  806   1.354   6.080   8.471 -0.1085  0.1279 -0.2252
   37POPC   PO4  807   1.739   5.907   8.789  0.2018  0.0665  0.0784
   37POPC   GL1  808   1.668   5.726   8.332 -0.2452  0.2843  0.3361
   37POPC   GL2  809   1.382   5.684   8.143  0.0661  0.0175  0.1715
   37POPC   C1A  810   1.694   5.887   7.811  0.1268 -0.4305  0.1100
   37POPC   D2A  811   1.709   6.387   7.734 -0.3238  0.2135  0.1835
   37POPC   C3A  812   1.869   6.608   7.322  0.1174  0.0729  0.2977
   37POPC   C4A  813   1.615   6.804   7.069 -0.1342 -0.1168 -0.1251
   37POPC   C1B  814   1.248   5.572   7.780 -0.1235 -0.1542  0.0652
   37POPC   C2B  815   1.348   5.504   7.381  0.4151 -0.0276 -0.0774
   37POPC   C3B  816   1.388   5.777   7.030 -0.0040  0.0504 -0.2031
   37POPC   C4B  817   1.796   5.864   6.785  0.1293  0.2258  0.1302
   38POPC   NC3  818   1.084   0.624   9.883  0.0433 -0.0651  0.2337
   38POPC   PO4  819   1.191   0.247   9.809 -0.0380  0.0296  0.2486
   38POPC   GL1  820   1.223   0.456   9.444  0.3278  0.1593  0.1884
   38POPC   GL2  821   1.608   0.464   9.402 -0.1753  0.2385  0.1499
   38POPC   C1A  822   1.033   0.742   9.144  0.0111 -0.1192  0.3489
   38POPC   D2A  823   0.823   0.715   8.771  0.0164  0.2211 -0.0711
   38POPC   C3A  824   0.989   1.024   8.498 -0.3362 -0.1186 -0.2368
   38POPC   C4A  825   1.098   1.439   8.436  0.1608  0.0148 -0.1643
   38POPC   C1B  826   1.526   0.627   8.954 -0.0320 -0.1363  0.2273
   38POPC   C2B  827   1.328   0.668   8.611  0.3158  0.2759  0.1846
   38POPC   C3B  828   1.373   0.544   8.206 -0.1111  0.0179  0.3112
   38POPC   C4B  829   1.213   0.437   7.845  0.0772 -0.2365 -0.0966
   39POPC   NC3  830   4.625   0.535   9.228  0.0159  0.0500  0.2248
   39POPC   PO4  831   4.447   0.738   8.885 -0.1546  0.0958  0.1890
   39POPC   GL1  832   4.277   0.744   8.502 -0.1030 -0.1437  0.1201
   39POPC   GL2  833   4.552   0.620   8.289 -0.1742  0.1027 -0.2359
   39POPC   C1A  834   4.057   0.570   8.006 -0.1356 -0.0336 -0.1438
   39POPC   D2A  835   4.037   0.440   7.547 -0.0074 -0.2755 -0.4173
   39POPC   C3A  836   4.444   0.356   7.337  0.1938 -0.0955 -0.0398
   39POPC   C4A  837   4.825   0.318   7.029  0.1694  0.2388 -0.2109
   39POPC   C1B  838   4.338   0.942   7.992  0.0660 -0.1721 -0.1087
   39POPC   C2B  839   3.943   0.895   7.646  0.3555 -0.0932 -0.0585
   39POPC   C3B  840   3.562   0.581   7.500  0.0829  0.1329  0.1085
   39POPC   C4B  841   3.225   0.314   7.322 -0.1212 -0.0612 -0.2116
   40POPC   NC3  842   0.124   5.202   8.678 -0.1445  0.0840  0.0739
   40POPC   PO4  843  -0.251   4.999   8.719  0.0816 -0.1731  0.1371
   40POPC   GL1  844  -0.505   4.923   8.561  0.2215  0.4590  0.2858
   40POPC   GL2  845  -0.582   4.685   8.338 -0.0720  0.0617 -0.1052
   40POPC   C1A  846  -0.724   5.196   8.223 -0.1736 -0.5526 -0.1789
   40POPC   D2A  847  -1.025   5.401   7.879 -0.0097  0.1401 -0.0985
   40POPC   C3A  848  -1.390   5.449   7.683 -0.0948  0.0269 -0.1738
   40POPC   C4A  849  -1.647   5.618   7.321  0.3126 -0.3042  0.0836
   40POPC   C1B  850  -0.924   4.831   7.977 -0.1692  0.1454 -0.1736
   40POPC   C2B  851  -1.214   4.924   7.748  0.2532 -0.0204  0.2187
   40POPC   C3B  852  -1.313   4.920   7.296 -0.2276 -0.2018 -0.2317
   40POPC   C4B  853  -1.306   5.255   7.094 -0.0031  0.0066 -0.1624
   41POPC   NC3  854   2.634   4.540   9.269  0.0265  0.1155 -0.2608
   41POPC   PO4  855   2.918   4.295   8.977  0.0819  0.1609 -0.0033
   41POPC   GL1  856   2.862   4.283   8.512  0.1252 -0.1661 -0.0841
   41POPC   GL2  857   2.685   4.503   8.372 -0.0075 -0.1075 -0.0120
   41POPC   C1A  858   2.481   4.061   8.387 -0.3447  0.1643 -0.3044
   41POPC   D2A  859   2.107   3.850   8.179 -0.0542 -0.3677 -0.0600
   41POPC   C3A  860   2.018   3.915   7.789 -0.0800  0.0804  0.0011
   41POPC   C4A  861   1.885   3.989   7.494 -0.0945  0.0251  0.0304
   41POPC   C1B  862   2.349   4.371   7.934  0.1236  0.3051  0.1466
   41POPC   C2B  863   2.418   4.141   7.585 -0.2083 -0.0074 -0.0644
   41POPC   C3B  864   2.378   4.045   7.128 -0.2554  0.1679  0.2128
   41POPC   C4B  865   2.722   3.786   6.874 -0.4800  0.0518 -0.1600
   42POPC   NC3  866   4.619   1.305   9.022 -0.3059 -0.1587  0.1864
   42POPC   PO4  867   4.307   1.661   8.844 -0.3264  0.1613 -0.1951
   42POPC   GL1  868   4.297   1.889   8.349 -0.1009  0.3028 -0.2268
   42POPC   GL2  869   4.099   1.883   8.101 -0.2782 -0.1233  0.1740
   42POPC   C1A  870   4.459   1.638   7.882  0.0444 -0.1976 -0.0697
   42POPC   D2A  871   4.645   1.225   7.762  0.0620  0.1085  0.0455
   42POPC   C3A  872   4.816   1.222   7.414 -0.1021  0.1348  0.2161
   42POPC   C4A  873   4.975   1.203   6.898  0.0131 -0.0238  0.0048
   42POPC   C1B  874   4.089   1.878   7.619  0.2579  0.0750  0.2590
   42POPC   C2B  875   4.113   1.704   7.202 -0.0142  0.2028  0.1683
   42POPC   C3B  876   4.213   1.728   6.742  0.1950 -0.1188 -0.1131
   42POPC   C4B  877   4.149   1.708   6.395  0.0862 -0.0292  0.0378
   43POPC   NC3  878   1.691   0.884   9.825  0.2038 -0.0028  0.1485
   43POPC   PO4  879   1.487   1.276   9.856  0.1698 -0.1405  0.1772
   43POPC   GL1  880   1.297   1.080   9.494  0.0266 -0.1226  0.0076
   43POPC   GL2  881   0.932   1.128   9.511  0.1357  0.2106  0.1066
   43POPC   C1A  882   1.306   1.175   9.073 -0.0555  0.0065  0.0567
   43POPC   D2A  883   1.378   1.176   8.720 -0.0182 -0.0963 -0.0324
   43POPC   C3A  884   1.501   1.567   8.592 -0.0270 -0.1376 -0.0693
   43POPC   C4A  885   1.482   1.908   8.350 -0.1575  0.1024  0.1258
   43POPC   C1B  886   0.826   1.253   9.149  0.0799  0.0202 -0.1192
   43POPC   C2B  887   0.623   1.248   8.782  0.2023  0.0242 -0.1253
   43POPC   C3B  888   0.426   1.162   8.417 -0.2951  0.1702 -0.0654
   43POPC   C4B  889   0.268   1.383   8.119 -0.2632 -0.3132 -0.0112
   44POPC   NC3  890   7.182   4.819   8.154 -0.1114 -0.1011 -0.1473
   44POPC   PO4  891   6.718   4.837   8.310  0.0886 -0.0895 -0.0958
   44POPC   GL1  892   6.728   5.143   8.034 -0.2647 -0.0595 -0.3689
   44POPC   GL2  893   6.357   5.230   8.034  0.2309  0.0432 -0.2141
   44POPC   C1A  894   6.823   5.320   7.629 -0.2901  0.0333  0.0513
   44POPC   D2A  895   6.906   5.381   7.103 -0.1529 -0.1192  0.0384
   44POPC   C3A  896   6.594   5.185   6.805  0.2112  0.1549 -0.1593
   44POPC   C4A  897   6.075   5.185   6.604 -0.1612  0.1213 -0.3865
   44POPC   C1B  898   6.156   5.173   7.625 -0.0072 -0.4248 -0.1033
   44POPC   C2B  899   6.487   5.055   7.352  0.1965  0.0394 -0.4695
   44POPC   C3B  900   6.831   4.879   7.196  0.3445 -0.3781 -0.0676
   44POPC   C4B  901   7.060   4.872   6.859  0.0935  0.0791  0.0459
   45POPC   NC3  902   2.418   9.194   8.930  0.0319 -0.0721 -0.2321
   45POPC   PO4  903   2.795   9.520   9.018  0.1390  0.1691 -0.2339
   45POPC   GL1  904   2.675   9.573   8.509  0.2149  0.1338  0.0640
   45POPC   GL2  905   2.570   9.295   8.372  0.0424  0.0529 -0.1602
   45POPC   C1A  906   2.422   9.828   8.374  0.3039 -0.3302  0.1064
   45POPC   D2A  907   2.373   9.676   8.034  0.0240  0.1890 -0.1115
   45POPC   C3A  908   1.946   9.646   7.902 -0.3070  0.0014 -0.5108
   45POPC   C4A  909   1.662   9.396   7.855 -0.0461 -0.3390  0.1402
   45POPC   C1B  910   2.587   9.152   7.962 -0.0989 -0.0944 -0.0276
   45POPC   C2B  911   2.618   9.235   7.583 -0.1718  0.0436  0.2362
   45POPC   C3B  912   2.441   9.325   7.081  0.0184 -0.1107  0.1706
   45POPC   C4B  913   1.950   9.352   6.840  0.0133  0.4113  0.0954
   46POPC   NC3  914   7.606   6.287   8.319  0.4953  0.1260 -0.0851
   46POPC   PO4  915   7.803   5.962   8.576 -0.2808 -0.2287 -0.0668
   46POPC   GL1  916   7.913   5.797   8.054 -0.1648 -0.1822 -0.0219
   46POPC   GL2  917   7.992   5.395   7.807 -0.0153  0.1005 -0.1213
   46POPC   C1A  918   8.050   5.971   7.645 -0.2321 -0.1461 -0.0224
   46POPC   D2A  919   8.330   6.132   7.355 -0.2113 -0.5894 -0.1969
   46POPC   C3A  920   8.722   5.794   7.247  0.1486  0.2151 -0.1674
   46POPC   C4A  921   8.888   5.614   6.916 -0.0952 -0.2547  0.0514
   46POPC   C1B  922   7.712   5.577   7.403  0.0146  0.0219  0.1662
   46POPC   C2B  923   7.765   5.494   6.830 -0.2803  0.3263 -0.2569
   46POPC   C3B  924   7.908   5.359   6.480  0.0704  0.1590 -0.0685
   46POPC   C4B  925   8.211   5.495   6.164  0.2018  0.1231  0.0893
   47POPC   NC3  926   8.688   8.602   8.930 -0.3786 -0.0033  0.3035
   47POPC   PO4  927   8.256   8.510   8.760  0.2450 -0.2681 -0.0607
   47POPC   GL1  928   8.087   8.445   8.291  0.0571 -0.1971 -0.1818
   47POPC   GL2  929   7.730   8.304   8.192  0.3173 -0.1452  0.2764
   47POPC   C1A  930   8.234   8.197   8.036  0.1088  0.3609  0.1256
   47POPC   D2A  931   8.619   8.011   7.847 -0.2722 -0.1355 -0.0356
   47POPC   C3A  932   8.438   7.528   7.577  0.0751 -0.4355 -0.1679
   47POPC   C4A  933   7.970   7.557   7.362  0.0617  0.0538  0.0959
   47POPC   C1B  934   7.695   8.479   7.874  0.1072  0.1210  0.0409
   47POPC   C2B  935   7.972   8.378   7.583 -0.0902  0.0482 -0.3253
   47POPC   C3B  936   8.230   8.344   7.220  0.2863 -0.4500 -0.0248
   47POPC   C4B  937   8.408   8.488   6.869  0.1700  0.1772  0.0253
   48POPC   NC3  938   1.549   7.371   8.445 -0.3335  0.1651 -0.0162
   48POPC   PO4  939   1.169   7.610   8.499 -0.2846  0.1880  0.0857
   48POPC   GL1  940   1.169   7.854   8.059 -0.0637 -0.0175 -0.4258
   48POPC   GL2  941   1.596   7.801   8.024  0.0655  0.3569 -0.0705
   48POPC   C1A  942   1.218   7.902   7.671  0.3226 -0.0145 -0.3476
   48POPC   D2A  943   1.723   7.824   7.534  0.4726  0.1990  0.1380
   48POPC   C3A  944   1.841   7.665   7.121  0.0045 -0.0545 -0.0528
   48POPC   C4A  945   2.178   7.458   6.862 -0.1342  0.1378 -0.3155
   48POPC   C1B  946   1.474   7.438   7.859  0.0312 -0.0109 -0.3622
   48POPC   C2B  947   1.251   7.106   7.896  0.0944  0.3972 -0.0938
   48POPC   C3B  948   1.131   6.827   7.586 -0.1317 -0.0243 -0.1296
   48POPC   C4B  949   1.010   6.681   7.204  0.1564  0.2295 -0.0617
   49POPC   NC3  950   6.503   4.433   8.536 -0.1642  0.0554 -0.1542
   49POPC   PO4  951   6.572   4.174   8.886 -0.0410 -0.3304  0.2550
   49POPC   GL1  952   6.309   3.946   8.477 -0.0243 -0.0168  0.0592
   49POPC   GL2  953   6.483   3.687   8.550 -0.1126  0.3701 -0.3801
   49POPC   C1A  954   6.361   3.980   8.053  0.1158  0.0450 -0.1509
   49POPC   D2A  955   6.211   3.837   7.653 -0.1547 -0.2253  0.2436
   49POPC   C3A  956   6.133   4.174   7.424  0.1097 -0.0344 -0.1912
   49POPC   C4A  957   6.182   4.110   6.971  0.3144  0.3729 -0.1188
   49POPC   C1B  958   6.771   3.721   8.135  0.0467 -0.1845 -0.1572
   49POPC   C2B  959   6.803   4.011   7.844  0.1541 -0.1111  0.1059
   49POPC   C3B  960   6.686   4.022   7.526 -0.1400 -0.0405 -0.1666
   49POPC   C4B  961   6.630   3.891   7.129  0.0985  0.1219  0.2241
   50POPC   NC3  962   1.032   1.449   9.873 -0.0266 -0.2789  0.1280
   50POPC   PO4  963   0.794   1.727   9.697 -0.4223 -0.1277 -0.3039
   50POPC   GL1  964   1.117   1.571   9.347  0.1712 -0.2227 -0.2112
   50POPC   GL2  965   1.314   1.856   9.271 -0.1694 -0.0941 -0.1158
   50POPC   C1A  966   1.122   1.608   8.920  0.2280  0.1750  0.0151
   50POPC   D2A  967   0.798   1.798   8.607  0.0155  0.0057 -0.3936
   50POPC   C3A  968   0.667   1.602   8.423  0.3837 -0.1880  0.1256
   50POPC   C4A  969   0.784   1.315   8.059 -0.3298  0.2201 -0.0953
   50POPC   C1B  970   1.161   2.124   8.827  0.0875 -0.0110 -0.2085
   50POPC   C2B  971   0.771   2.297   8.764  0.1413  0.0483 -0.1038
   50POPC   C3B  972   0.369   2.073   8.675 -0.0034 -0.0055 -0.2490
   50POPC   C4B  973  -0.074   1.981   8.690 -0.1833  0.0994 -0.0754
   51POPC   NC3  974   1.356   9.454   9.791 -0.1417 -0.0716 -0.2294
   51POPC   PO4  975   1.732   9.272   9.666 -0.0092  0.1051  0.2628
   51POPC   GL1  976   1.653   9.658   9.314 -0.1367  0.0177 -0.3752
   51POPC   GL2  977   1.372   9.800   9.326 -0.0025  0.0781 -0.0514
   51POPC   C1A  978   1.558   9.684   8.793  0.6166  0.1291  0.1327
   51POPC   D2A  979   1.370   9.939   8.455 -0.2338 -0.0941  0.0179
   51POPC   C3A  980   0.952  10.200   8.497  0.1721  0.3284  0.1632
   51POPC   C4A  981   0.616  10.491   8.314 -0.0430 -0.1939 -0.1430
   51POPC   C1B  982   1.020   9.701   9.042  0.0317  0.0845  0.0709
   51POPC   C2B  983   1.050   9.435   8.696 -0.0078  0.2182  0.0251
   51POPC   C3B  984   0.956   9.094   8.314  0.0826  0.0132  0.3177
   51POPC   C4B  985   0.662   9.004   8.002  0.2017  0.3706  0.1995
   52POPC   NC3  986   2.972   9.162   8.646 -0.3539 -0.1676  0.1623
   52POPC   PO4  987   3.203   9.575   8.734  0.2099  0.0259 -0.1170
   52POPC   GL1  988   3.183   9.415   8.215 -0.3086 -0.2891 -0.3746
   52POPC   GL2  989   3.565   9.441   7.959  0.1789 -0.0926  0.0766
   52POPC   C1A  990   3.166   9.106   7.871  0.0192 -0.0970  0.0567
   52POPC   D2A  991   3.406   9.128   7.502  0.2903 -0.2629 -0.0136
   52POPC   C3A  992   3.227   9.349   7.154  0.0217 -0.1193 -0.1339
   52POPC   C4A  993   3.293   9.316   6.665 -0.0375  0.0401  0.4117
   52POPC   C1B  994   3.269   9.590   7.563  0.0327  0.0998 -0.1176
   52POPC   C2B  995   2.863   9.636   7.372 -0.0858  0.2950 -0.1924
   52POPC   C3B  996   2.891   9.818   6.986 -0.0786  0.0489 -0.2243
   52POPC   C4B  997   2.826   9.914   6.619  0.5287  0.1662 -0.1192
   53POPC   NC3  998   3.828   1.509   8.854 -0.0991 -0.2417  0.1704
   53POPC   PO4  999   3.790   1.901   8.716  0.0079 -0.2036 -0.0980
   53POPC   GL1 1000   3.719   1.735   8.343  0.1946 -0.2734  0.0020
   53POPC   GL2 1001   3.534   1.347   8.313  0.1163  0.1438 -0.0349
   53POPC   C1A 1002   4.000   1.331   8.073  0.0535 -0.1468  0.0934
   53POPC   D2A 1003   4.200   1.322   7.575 -0.0287  0.1748 -0.1520
   53POPC   C3A 1004   3.987   1.221   7.226 -0.2816 -0.0981  0.1578
   53POPC   C4A 1005   3.726   0.980   7.005 -0.4094  0.2158  0.1525
   53POPC   C1B 1006   3.520   1.513   7.902  0.2697 -0.1161 -0.0600
   53POPC   C2B 1007   3.685   1.451   7.567 -0.0172  0.2920  0.1788
   53POPC   C3B 1008   3.571   1.482   7.201 -0.1109  0.1389 -0.0619
   53POPC   C4B 1009   3.304   1.716   6.907  0.3306  0.3297  0.0579
   54POPC   NC3 1010   1.448   8.349   8.847  0.2491 -0.2901  0.0253
   54POPC   PO4 1011   1.427   8.843   8.847 -0.2298  0.1026 -0.0861
   54POPC   GL1 1012   1.323   8.800   8.443  0.1669  0.2091  0.1281
   54POPC   GL2 1013   1.280   8.542   8.365 -0.0352 -0.1706  0.0048
   54POPC   C1A 1014   1.373   8.951   8.027 -0.2725 -0.0128  0.0240
   54POPC   D2A 1015   1.589   8.872   7.575 -0.1291  0.0558 -0.0431
   54POPC   C3A 1016   1.338   8.684   7.285  0.4285 -0.0495  0.1142
   54POPC   C4A 1017   1.230   8.699   6.923  0.0653 -0.1261 -0.4289
   54POPC   C1B 1018   0.987   8.659   8.024 -0.4194  0.4371  0.0355
   54POPC   C2B 1019   1.045   8.819   7.620  0.0619  0.0584 -0.0123
   54POPC   C3B 1020   0.883   8.962   7.246 -0.0559 -0.3557  0.2529
   54POPC   C4B 1021   0.929   9.275   6.895 -0.1254 -0.2091 -0.0688
   55POPC   NC3 1022   0.188   0.029   9.769  0.1386 -0.0332  0.0688
   55POPC   PO4 1023   0.111  -0.343  10.008 -0.1383 -0.5345  0.2472
   55POPC   GL1 1024   0.126  -0.487   9.586  0.0504 -0.1785 -0.0456
   55POPC   GL2 1025   0.405  -0.365   9.436 -0.1241  0.3992  0.3610
   55POPC   C1A 1026  -0.132  -0.396   9.127 -0.0750 -0.2430 -0.0091
   55POPC   D2A 1027  -0.223  -0.491   8.665 -0.1645 -0.2641  0.0293
   55POPC   C3A 1028  -0.072  -0.762   8.457 -0.1365 -0.1456 -0.3768
   55POPC   C4A 1029  -0.318  -1.105   8.310 -0.4444  0.1192 -0.0682
   55POPC   C1B 1030   0.542  -0.100   9.100 -0.1015 -0.1625 -0.0429
   55POPC   C2B 1031   0.726  -0.112   8.639 -0.2443  0.0984 -0.0311
   55POPC   C3B 1032   0.428   0.050   8.294 -0.1001  0.0912  0.0435
   55POPC   C4B 1033   0.093   0.017   7.929 -0.1966 -0.3174 -0.1244
   56POPC   NC3 1034   2.212   5.735   8.536  0.2917 -0.1860  0.0725
   56POPC   PO4 1035   2.414   6.135   8.436 -0.0084 -0.0350 -0.1285
   56POPC   GL1 1036   2.545   6.000   8.079  0.0584  0.1574 -0.1530
   56POPC   GL2 1037   2.592   5.702   8.204 -0.0289  0.0708  0.1114
   56POPC   C1A 1038   2.473   6.028   7.673 -0.1518  0.3311 -0.1165
   56POPC   D2A 1039   2.239   5.938   7.383 -0.1095  0.1718  0.0941
   56POPC   C3A 1040   2.334   5.858   6.977 -0.3550 -0.1904 -0.0225
   56POPC   C4A 1041   2.504   6.123   6.703  0.2203  0.0798  0.0020
   56POPC   C1B 1042   2.605   5.514   7.829  0.1182 -0.0521 -0.3000
   56POPC   C2B 1043   2.664   5.547   7.386 -0.0041 -0.2070 -0.0114
   56POPC   C3B 1044   2.775   5.310   7.002  0.0128 -0.0200  0.1691
   56POPC   C4B 1045   3.057   5.339   6.724 -0.2753  0.2350 -0.0797
   57POPC   NC3 1046   4.316   8.745   8.292 -0.1213  0.0031  0.0599
   57POPC   PO4 1047   3.843   8.667   8.314  0.0086  0.0337  0.3794
   57POPC   GL1 1048   3.637   8.672   7.951  0.0508 -0.4579  0.1576
   57POPC   GL2 1049   3.795   8.971   7.772  0.3167  0.0908  0.1804
   57POPC   C1A 1050   3.363   8.676   7.673  0.0780  0.3389 -0.0584
   57POPC   D2A 1051   3.343   8.578   7.234  0.0035 -0.1079 -0.3297
   57POPC   C3A 1052   3.169   8.855   6.886 -0.5117  0.0249  0.3890
   57POPC   C4A 1053   3.185   8.818   6.391  0.0784  0.0432 -0.0329
   57POPC   C1B 1054   3.751   8.886   7.349  0.1258 -0.0532 -0.1846
   57POPC   C2B 1055   3.680   8.916   6.852 -0.0629  0.2434  0.0139
   57POPC   C3B 1056   3.725   9.080   6.428  0.1094  0.1011  0.1053
   57POPC   C4B 1057   3.900   9.517   6.257 -0.2972  0.2482  0.1782
   58POPC   NC3 1058   5.796   1.589   8.405 -0.0390  0.0744 -0.0873
   58POPC   PO4 1059   5.804   2.017   8.271  0.1671 -0.4550 -0.0509
   58POPC   GL1 1060   5.966   2.121   7.905 -0.1654  0.4657  0.1773
   58POPC   GL2 1061   5.742   2.264   7.702  0.2575  0.1742 -0.1204
   58POPC   C1A 1062   6.242   2.118   7.487  0.0833  0.1754  0.1758
   58POPC   D2A 1063   6.422   2.270   7.081 -0.3491 -0.1354 -0.2044
   58POPC   C3A 1064   6.804   2.275   7.047 -0.0297  0.1496 -0.0872
   58POPC   C4A 1065   7.215   2.259   6.864 -0.0702  0.0110  0.1313
   58POPC   C1B 1066   5.829   2.353   7.275  0.0211  0.1415 -0.1868
   58POPC   C2B 1067   5.704   2.406   6.894 -0.1777 -0.1509  0.0969
   58POPC   C3B 1068   5.798   2.655   6.554  0.0584 -0.0340 -0.0588
   58POPC   C4B 1069   6.286   2.741   6.393 -0.0815 -0.0346 -0.4747
   59POPC   NC3 1070   2.030   9.317   9.280 -0.0986 -0.2804  0.5060
   59POPC   PO4 1071   1.897   9.112   8.879  0.1361 -0.1619 -0.1503
   59POPC   GL1 1072   1.726   9.086   8.472  0.4156  0.2472  0.0082
   59POPC   GL2 1073   1.499   9.292   8.569 -0.0371  0.4611  0.1587
   59POPC   C1A 1074   1.957   8.981   8.080 -0.0191 -0.0634  0.3640
   59POPC   D2A 1075   2.144   9.206   7.754  0.0453 -0.1474 -0.0133
   59POPC   C3A 1076   1.873   9.346   7.373  0.0342 -0.1561 -0.0148
   59POPC   C4A 1077   1.581   9.633   7.354  0.0848  0.2076  0.2684
   59POPC   C1B 1078   1.321   9.449   8.254 -0.0000 -0.1052 -0.1886
   59POPC   C2B 1079   1.165   9.400   7.884 -0.1043  0.2790  0.2354
   59POPC   C3B 1080   1.242   9.207   7.432 -0.0719 -0.4851 -0.1983
   59POPC   C4B 1081   1.384   9.183   7.106 -0.1795 -0.2069 -0.2449
   60POPC   NC3 1082   1.551   5.194   8.397 -0.1676  0.2841  0.1080
   60POPC   PO4 1083   1.026   5.224   8.378  0.0457  0.1658  0.0485
   60POPC   GL1 1084   0.726   5.423   7.954 -0.1862  0.0086 -0.1344
   60POPC   GL2 1085   0.447   5.418   7.941 -0.0867 -0.0423 -0.0657
   60POPC   C1A 1086   0.843   5.490   7.569  0.1679 -0.4392  0.0515
   60POPC   D2A 1087   1.054   5.895   7.395  0.1115  0.2145 -0.0525
   60POPC   C3A 1088   1.004   6.150   6.991 -0.0721  0.3410  0.1115
   60POPC   C4A 1089   0.845   6.443   6.715 -0.0193 -0.0048 -0.3561
   60POPC   C1B 1090   0.037   5.402   7.841  0.1238  0.1016 -0.0519
   60POPC   C2B 1091  -0.375   5.308   7.857 -0.1515 -0.1129 -0.2195
   60POPC   C3B 1092  -0.685   5.159   7.626 -0.0410 -0.1428 -0.4534
   60POPC   C4B 1093  -0.788   5.122   7.226  0.1874  0.0528 -0.1823
   61POPC   NC3 1094   0.814   5.786   8.294 -0.1154 -0.0222  0.2440
   61POPC   PO4 1095   0.529   6.125   8.264 -0.1479  0.0261  0.2029
   61POPC   GL1 1096   0.582   5.899   7.868  0.0909 -0.1770  0.0052
   61POPC   GL2 1097   0.877   5.992   7.809 -0.1251 -0.4781 -0.3126
   61POPC   C1A 1098   0.355   5.699   7.512 -0.3701 -0.0189 -0.0071
   61POPC   D2A 1099   0.093   5.773   7.161  0.0556 -0.2885 -0.1863
   61POPC   C3A 1100  -0.317   6.070   7.135  0.1912 -0.0208  0.0393
   61POPC   C4A 1101  -0.499   6.503   6.967 -0.1029  0.1619  0.1300
   61POPC   C1B 1102   0.729   6.298   7.373 -0.3476  0.1540 -0.1210
   61POPC   C2B 1103   0.513   6.713   7.070  0.0586  0.1339 -0.3278
   61POPC   C3B 1104   0.737   6.944   6.781 -0.3713  0.0373  0.0859
   61POPC   C4B 1105   0.847   6.859   6.479 -0.0078 -0.1362  0.1117
   62POPC   NC3 1106   1.622   2.157   9.530  0.4111 -0.0994  0.0191
   62POPC   PO4 1107   1.708   2.153   9.100  0.1941  0.0191 -0.0401
   62POPC   GL1 1108   1.767   1.954   8.811 -0.2389  0.3571  0.2552
   62POPC   GL2 1109   2.075   1.835   8.739 -0.0377 -0.2253  0.2746
   62POPC   C1A 1110   1.950   2.155   8.377 -0.2539 -0.1108 -0.1938
   62POPC   D2A 1111   1.768   2.002   7.981 -0.2061 -0.0939 -0.1806
   62POPC   C3A 1112   1.379   2.119   7.834 -0.3506  0.6109 -0.1355
   62POPC   C4A 1113   1.282   2.605   7.781  0.2374  0.0288 -0.0116
   62POPC   C1B 1114   1.923   1.610   8.359  0.0913 -0.1307  0.0845
   62POPC   C2B 1115   1.712   1.497   7.997  0.1496 -0.0744  0.0228
   62POPC   C3B 1116   1.589   1.650   7.629 -0.3289  0.2781 -0.1559
   62POPC   C4B 1117   1.346   1.519   7.382  0.0534 -0.0577  0.1577
   63POPC   NC3 1118   5.552   3.474   8.341 -0.1603  0.1503  0.0860
   63POPC   PO4 1119   5.821   3.503   8.780 -0.0389 -0.0548 -0.2800
   63POPC   GL1 1120   6.073   3.319   8.436  0.4307  0.1174 -0.0820
   63POPC   GL2 1121   6.085   3.016   8.394  0.2612 -0.0006  0.1736
   63POPC   C1A 1122   6.271   3.477   8.139 -0.0542 -0.4164  0.1779
   63POPC   D2A 1123   6.553   3.477   7.754  0.2602 -0.2268  0.3014
   63POPC   C3A 1124   6.366   3.545   7.321  0.2603 -0.4813  0.0534
   63POPC   C4A 1125   5.951   3.706   7.162  0.0455  0.1056 -0.4247
   63POPC   C1B 1126   6.227   3.045   7.922  0.0610 -0.4022  0.0010
   63POPC   C2B 1127   6.435   3.024   7.570  0.1247 -0.1689  0.0329
   63POPC   C3B 1128   6.440   3.029   7.190 -0.2173  0.0560  0.2774
   63POPC   C4B 1129   6.307   3.310   6.913 -0.2020  0.1237  0.2937
   64POPC   NC3 1130   5.368   6.433   8.470  0.1734  0.0346 -0.0085
   64POPC   PO4 1131   5.497   6.000   8.576  0.1681  0.2829  0.2420
   64POPC   GL1 1132   5.467   6.013   8.148  0.0412  0.1094 -0.0737
   64POPC   GL2 1133   5.591   6.276   8.048 -0.2735 -0.0744  0.0387
   64POPC   C1A 1134   5.144   5.982   7.796  0.1502 -0.1939 -0.3678
   64POPC   D2A 1135   4.849   5.679   7.505  0.1215  0.0484 -0.1111
   64POPC   C3A 1136   4.885   5.579   7.090  0.0200  0.3454  0.3709
   64POPC   C4A 1137   4.800   5.381   6.662  0.0717 -0.1454 -0.0992
   64POPC   C1B 1138   5.598   6.070   7.664  0.0269 -0.3165 -0.0291
   64POPC   C2B 1139   5.416   5.713   7.351 -0.1210  0.0050 -0.1167
   64POPC   C3B 1140   5.281   5.718   6.896  0.1179  0.3066  0.1379
   64POPC   C4B 1141   5.337   5.579   6.510 -0.2929 -0.3060 -0.0625
   65POPC   NC3 1142   2.484   0.409   9.602  0.0051  0.0552 -0.2533
   65POPC   PO4 1143   2.174   0.586   9.232  0.0391 -0.1424 -0.1301
   65POPC   GL1 1144   2.062   0.640   8.829 -0.0605 -0.1717  0.0301
   65POPC   GL2 1145   1.872   0.924   8.784  0.2090  0.3560 -0.0844
   65POPC   C1A 1146   1.774   0.453   8.556  0.0999  0.0367  0.1106
   65POPC   D2A 1147   1.832   0.204   8.227 -0.1477 -0.0932 -0.0527
   65POPC   C3A 1148   2.174   0.261   7.905 -0.0300  0.0626 -0.1962
   65POPC   C4A 1149   2.535   0.241   7.928 -0.0287  0.1445 -0.1425
   65POPC   C1B 1150   1.704   0.935   8.447  0.3268  0.4708  0.0472
   65POPC   C2B 1151   1.446   1.077   8.136 -0.0460 -0.2954  0.1157
   65POPC   C3B 1152   1.371   1.031   7.789  0.0463 -0.0615 -0.0317
   65POPC   C4B 1153   0.998   1.250   7.605  0.2337 -0.1392 -0.0958
   66POPC   NC3 1154   6.707   7.642   9.073 -0.1999  0.2164 -0.0629
   66POPC   PO4 1155   6.623   7.690   8.585  0.0589  0.0160 -0.2865
   66POPC   GL1 1156   6.611   7.781   8.105  0.4423  0.0946 -0.0595
   66POPC   GL2 1157   6.823   7.596   8.020 -0.1473 -0.0082  0.1738
   66POPC   C1A 1158   6.443   7.998   7.791  0.1948  0.0696  0.0547
   66POPC   D2A 1159   6.617   8.301   7.501  0.0042  0.0470  0.3410
   66POPC   C3A 1160   7.040   8.375   7.348  0.2114  0.0680 -0.1998
   66POPC   C4A 1161   7.374   8.099   7.052  0.0118 -0.0334 -0.1221
   66POPC   C1B 1162   7.136   7.549   7.743 -0.2165 -0.2802 -0.1197
   66POPC   C2B 1163   7.414   7.702   7.413  0.0622  0.1966  0.1230
   66POPC   C3B 1164   7.583   7.639   6.955  0.2107  0.1307 -0.0181
   66POPC   C4B 1165   8.007   7.487   6.780  0.0773  0.0429  0.0031
   67POPC   NC3 1166   0.767   4.936   8.978  0.0648 -0.0301 -0.1991
   67POPC   PO4 1167   0.560   4.887   8.628  0.0704  0.0080  0.1331
   67POPC   GL1 1168   0.488   5.015   8.208 -0.2393  0.2651 -0.2015
   67POPC   GL2 1169   0.527   4.570   8.095  0.3163  0.2009  0.0510
   67POPC   C1A 1170   0.545   4.933   7.744 -0.1547  0.0330 -0.2741
   67POPC   D2A 1171   0.607   4.753   7.338  0.0697  0.0452  0.1293
   67POPC   C3A 1172   0.385   4.688   6.948 -0.1393  0.0762 -0.2015
   67POPC   C4A 1173  -0.062   4.767   6.758 -0.1268  0.0328  0.0720
   67POPC   C1B 1174   0.393   4.424   7.649 -0.1130  0.0726 -0.1390
   67POPC   C2B 1175   0.455   4.249   7.237  0.1675 -0.0250  0.0442
   67POPC   C3B 1176   0.488   3.868   6.897 -0.2428  0.3061 -0.2041
   67POPC   C4B 1177   0.392   3.670   6.515 -0.1822 -0.1511 -0.2222
   68POPC   NC3 1178   4.064   4.471   8.466  0.2146  0.0370  0.1581
   68POPC   PO4 1179   4.568   4.422   8.379  0.0296 -0.2573 -0.0398
   68POPC   GL1 1180   4.423   4.285   8.016 -0.2215  0.2711  0.1742
   68POPC   GL2 1181   4.456   4.213   7.687  0.1872 -0.0905 -0.0417
   68POPC   C1A 1182   3.995   4.352   7.876 -0.0565 -0.4212  0.1839
   68POPC   D2A 1183   3.710   4.411   7.594 -0.0470 -0.0651 -0.2173
   68POPC   C3A 1184   3.749   4.456   7.160  0.0755 -0.0233 -0.1351
   68POPC   C4A 1185   3.517   4.346   6.913 -0.1764  0.0650  0.0075
   68POPC   C1B 1186   4.145   4.234   7.374 -0.0396  0.0325 -0.0339
   68POPC   C2B 1187   4.099   4.055   7.030 -0.0653 -0.0968  0.1754
   68POPC   C3B 1188   3.918   4.226   6.606 -0.1228 -0.1866 -0.3651
   68POPC   C4B 1189   4.009   4.349   6.178  0.3067 -0.1693  0.1084
   69POPC   NC3 1190   3.762   2.763   8.330 -0.0527  0.3559  0.1484
   69POPC   PO4 1191   3.696   3.162   8.488 -0.3065  0.4176 -0.3597
   69POPC   GL1 1192   3.336   3.162   8.169  0.0100 -0.0864  0.0186
   69POPC   GL2 1193   3.530   3.533   7.942 -0.0524 -0.1016  0.0583
   69POPC   C1A 1194   3.219   3.112   7.819 -0.3335  0.1198  0.2653
   69POPC   D2A 1195   3.126   3.290   7.435  0.0001  0.0827  0.0940
   69POPC   C3A 1196   3.258   3.593   7.181  0.1667 -0.0304  0.1068
   69POPC   C4A 1197   3.151   3.988   7.017  0.1319 -0.2678 -0.1543
   69POPC   C1B 1198   3.592   3.397   7.532  0.0477  0.1612  0.0086
   69POPC   C2B 1199   3.688   3.359   7.184 -0.0021 -0.0873 -0.1495
   69POPC   C3B 1200   3.626   3.257   6.698 -0.0408  0.1851  0.1287
   69POPC   C4B 1201   3.885   3.501   6.427  0.1339 -0.2681  0.1488
   70POPC   NC3 1202   7.450   5.522   8.579  0.2183 -0.1914 -0.2199
   70POPC   PO4 1203   7.287   5.812   8.305  0.1601 -0.1612 -0.0967
   70POPC   GL1 1204   7.352   6.048   7.960 -0.0293  0.5617 -0.1605
   70POPC   GL2 1205   7.557   6.074   7.723  0.1056  0.3784 -0.3108
   70POPC   C1A 1206   7.057   6.125   7.674 -0.1523  0.2763  0.2575
   70POPC   D2A 1207   6.800   5.934   7.252 -0.3719 -0.1033  0.0092
   70POPC   C3A 1208   6.480   5.680   7.199 -0.1545 -0.2987 -0.2157
   70POPC   C4A 1209   6.182   5.622   6.794 -0.1000  0.0438 -0.3651
   70POPC   C1B 1210   7.676   6.098   7.331 -0.0814  0.2484 -0.3693
   70POPC   C2B 1211   7.609   6.059   6.913  0.2159  0.0329 -0.1389
   70POPC   C3B 1212   7.511   6.033   6.511 -0.3020 -0.0305 -0.2133
   70POPC   C4B 1213   7.505   5.612   6.367  0.2729  0.0462 -0.0032
   71POPC   NC3 1214   6.250   5.404   8.523  0.2066 -0.3235 -0.1621
   71POPC   PO4 1215   6.255   4.891   8.526  0.0511  0.1399  0.1137
   71POPC   GL1 1216   6.321   4.707   8.081  0.1677  0.2151 -0.2191
   71POPC   GL2 1217   6.543   4.456   8.029  0.1459  0.2132 -0.2649
   71POPC   C1A 1218   6.104   4.451   7.842 -0.1233 -0.4761 -0.2647
   71POPC   D2A 1219   5.972   4.666   7.560 -0.2439  0.1896  0.2555
   71POPC   C3A 1220   5.959   4.549   7.067  0.3400  0.3286 -0.1243
   71POPC   C4A 1221   5.896   4.736   6.710 -0.1397 -0.2985  0.1397
   71POPC   C1B 1222   6.546   4.619   7.565  0.3012  0.1618  0.1890
   71POPC   C2B 1223   6.483   4.496   7.158 -0.0072  0.1141 -0.2877
   71POPC   C3B 1224   6.515   4.639   6.681 -0.0081 -0.0978  0.1401
   71POPC   C4B 1225   6.772   4.782   6.227  0.0830 -0.1542  0.0806
   72POPC   NC3 1226   0.356   7.978   8.840 -0.1316 -0.0049 -0.0761
   72POPC   PO4 1227  -0.044   8.060   8.883 -0.0766 -0.3228  0.1758
   72POPC   GL1 1228  -0.164   8.002   8.398 -0.1889 -0.1419  0.2925
   72POPC   GL2 1229  -0.338   8.244   8.291  0.1020  0.0953 -0.1727
   72POPC   C1A 1230   0.080   7.951   7.985 -0.0578  0.0566  0.0901
   72POPC   D2A 1231   0.200   8.051   7.559 -0.0603  0.0119  0.2287
   72POPC   C3A 1232   0.080   8.265   7.064 -0.1659 -0.1455 -0.1176
   72POPC   C4A 1233  -0.244   8.407   6.839  0.0409  0.0257  0.1001
   72POPC   C1B 1234  -0.092   8.420   8.015 -0.0228 -0.2179 -0.1272
   72POPC   C2B 1235   0.055   8.553   7.564  0.0904 -0.0524  0.0191
   72POPC   C3B 1236  -0.020   8.771   7.157 -0.1963  0.1831 -0.2008
   72POPC   C4B 1237  -0.203   8.987   6.818  0.0901 -0.0749  0.0134
   73POPC   NC3 1238   0.047   6.212   8.434  0.0411 -0.1476 -0.1214
   73POPC   PO4 1239  -0.255   5.907   8.502  0.2382  0.3892  0.4124
   73POPC   GL1 1240  -0.314   5.810   8.077 -0.1675  0.0783 -0.0198
   73POPC   GL2 1241  -0.598   5.686   8.093 -0.5135 -0.1379 -0.3823
   73POPC   C1A 1242  -0.163   5.836   7.567 -0.0426 -0.2289 -0.3578
   73POPC   D2A 1243  -0.289   5.530   7.368 -0.3938 -0.0307  0.0031
   73POPC   C3A 1244  -0.471   5.529   6.964  0.0579  0.0586  0.0647
   73POPC   C4A 1245  -0.719   5.198   6.595 -0.1209 -0.1369 -0.0520
   73POPC   C1B 1246  -0.669   5.723   7.647 -0.0134  0.1657 -0.1523
   73POPC   C2B 1247  -0.748   6.136   7.360  0.1218  0.1236  0.2998
   73POPC   C3B 1248  -1.009   6.319   7.082 -0.2432  0.0628  0.1128
   73POPC   C4B 1249  -0.954   6.592   6.933  0.0508  0.0951 -0.1899
   74POPC   NC3 1250   6.597   7.188   8.403 -0.2561  0.2973 -0.1704
   74POPC   PO4 1251   6.994   7.305   8.468  0.0712  0.2420  0.0285
   74POPC   GL1 1252   7.078   7.155   8.066 -0.1663 -0.3466  0.1880
   74POPC   GL2 1253   6.828   7.069   7.970 -0.2272 -0.1948 -0.3062
   74POPC   C1A 1254   7.207   6.987   7.642 -0.2606 -0.0336  0.0180
   74POPC   D2A 1255   7.122   6.834   7.275 -0.1381 -0.0177  0.1066
   74POPC   C3A 1256   6.844   6.848   6.905  0.0076  0.0719  0.0602
   74POPC   C4A 1257   6.817   6.621   6.539  0.2720  0.1296  0.1619
   74POPC   C1B 1258   6.824   7.311   7.558  0.4717  0.0595 -0.2949
   74POPC   C2B 1259   7.004   7.338   7.204 -0.0670 -0.0719 -0.1587
   74POPC   C3B 1260   7.114   7.258   6.822  0.0494  0.1568  0.1901
   74POPC   C4B 1261   7.165   7.001   6.520  0.1345  0.1430 -0.2677
   75POPC   NC3 1262   6.767   8.886   8.763 -0.0493  0.1051  0.2425
   75POPC   PO4 1263   6.419   8.595   8.502  0.2299  0.0896  0.0415
   75POPC   GL1 1264   6.462   8.747   7.974  0.0063 -0.3224  0.3136
   75POPC   GL2 1265   6.512   9.031   7.904 -0.0593 -0.2058  0.0062
   75POPC   C1A 1266   6.277   8.548   7.747  0.1958  0.0529 -0.1312
   75POPC   D2A 1267   6.042   8.625   7.389  0.4974 -0.1921 -0.1555
   75POPC   C3A 1268   5.972   9.075   7.249  0.3147 -0.1249 -0.1197
   75POPC   C4A 1269   5.617   9.227   6.956  0.1650  0.1429 -0.1285
   75POPC   C1B 1270   6.623   8.822   7.481  0.0423 -0.1071 -0.2256
   75POPC   C2B 1271   6.558   8.624   7.133 -0.2529  0.0092  0.2499
   75POPC   C3B 1272   6.775   8.312   6.942 -0.5308  0.1866  0.0194
   75POPC   C4B 1273   6.763   8.064   6.597  0.3183  0.0275  0.2216
   76POPC   NC3 1274   8.313   9.489   8.976 -0.0091 -0.1250  0.0784
   76POPC   PO4 1275   8.168   9.692   8.542 -0.0988  0.0401  0.1472
   76POPC   GL1 1276   8.343   9.381   8.428  0.2513 -0.1653 -0.0464
   76POPC   GL2 1277   8.199   9.083   8.506  0.0316 -0.0613 -0.3567
   76POPC   C1A 1278   8.733   9.428   8.329  0.1194  0.0426 -0.0778
   76POPC   D2A 1279   9.275   9.464   8.166  0.0404 -0.0642  0.1319
   76POPC   C3A 1280   9.508   9.149   8.044  0.0913  0.0563  0.0769
   76POPC   C4A 1281   9.474   8.915   7.745  0.1933  0.2251  0.1799
   76POPC   C1B 1282   8.439   8.955   8.216  0.0398 -0.1901  0.1394
   76POPC   C2B 1283   8.680   8.716   7.957  0.0778  0.1621 -0.0800
   76POPC   C3B 1284   8.517   8.435   7.599 -0.0428 -0.1433 -0.0271
   76POPC   C4B 1285   8.802   8.440   7.209  0.0907  0.4568 -0.3023
   77POPC   NC3 1286   5.121   8.025   8.385  0.0200 -0.2826  0.0403
   77POPC   PO4 1287   4.725   8.315   8.492 -0.2445 -0.0199  0.4018
   77POPC   GL1 1288   4.588   8.404   8.032 -0.2344 -0.3734  0.1273
   77POPC   GL2 1289   4.750   8.069   7.962 -0.0284 -0.2422 -0.3610
   77POPC   C1A 1290   4.582   8.507   7.621  0.0530  0.0458  0.0404
   77POPC   D2A 1291   4.291   8.276   7.359  0.0071  0.1711 -0.2398
   77POPC   C3A 1292   4.259   8.307   6.884  0.0294  0.0311  0.0726
   77POPC   C4A 1293   4.026   8.029   6.573 -0.1723  0.0949 -0.0850
   77POPC   C1B 1294   4.745   8.026   7.540  0.0881  0.3651 -0.1354
   77POPC   C2B 1295   4.699   7.942   7.111  0.0412 -0.0268 -0.2582
   77POPC   C3B 1296   4.499   7.810   6.704  0.4142 -0.0451  0.3665
   77POPC   C4B 1297   4.307   7.615   6.262  0.3541 -0.2457 -0.0454
   78POPC   NC3 1298   3.668   4.583   8.684 -0.0159 -0.0620 -0.1816
   78POPC   PO4 1299   3.197   4.673   8.699 -0.1249 -0.0277 -0.0077
   78POPC   GL1 1300   3.025   4.910   8.343 -0.1754  0.0490  0.0439
   78POPC   GL2 1301   3.382   5.009   8.324  0.0499  0.2039  0.0900
   78POPC   C1A 1302   2.790   4.800   7.925  0.1739  0.2305 -0.2127
   78POPC   D2A 1303   2.825   4.419   7.611  0.1718 -0.0192 -0.0879
   78POPC   C3A 1304   2.734   4.440   7.145 -0.0205 -0.0769  0.0908
   78POPC   C4A 1305   2.720   4.227   6.710 -0.1354 -0.1921  0.4366
   78POPC   C1B 1306   3.406   4.884   7.887  0.1094  0.0011 -0.1504
   78POPC   C2B 1307   3.278   4.561   7.730 -0.0590  0.1266 -0.1712
   78POPC   C3B 1308   3.264   4.575   7.279  0.2480 -0.0504 -0.1826
   78POPC   C4B 1309   3.334   4.753   6.818 -0.1423 -0.2120 -0.3325
   79POPC   NC3 1310   6.175   3.211   8.922  0.1106 -0.0727 -0.0775
   79POPC   PO4 1311   6.167   2.780   8.858 -0.2298  0.2545  0.1841
   79POPC   GL1 1312   6.531   2.949   8.661 -0.1505  0.0779  0.1557
   79POPC   GL2 1313   6.514   2.738   8.482  0.0839  0.1675  0.3555
   79POPC   C1A 1314   6.616   3.189   8.236 -0.3360  0.2754 -0.1308
   79POPC   D2A 1315   6.970   3.306   7.983 -0.1617  0.0442  0.1083
   79POPC   C3A 1316   7.098   3.574   7.784  0.1023 -0.0820  0.2839
   79POPC   C4A 1317   7.062   3.688   7.371 -0.0655 -0.0180 -0.1710
   79POPC   C1B 1318   6.791   2.749   8.139  0.1064 -0.3788  0.0402
   79POPC   C2B 1319   6.862   2.880   7.738 -0.1570  0.2094 -0.1115
   79POPC   C3B 1320   6.917   3.203   7.435  0.0213  0.0796 -0.1385
   79POPC   C4B 1321   6.739   3.358   7.118 -0.0408 -0.3362  0.1577
   80POPC   NC3 1322   5.909   0.677   8.680 -0.2818 -0.0756  0.1572
   80POPC   PO4 1323   6.160   0.289   8.591  0.3472 -0.6248  0.2522
   80POPC   GL1 1324   6.067   0.457   8.206  0.3984  0.0654  0.2775
   80POPC   GL2 1325   5.819   0.299   7.969  0.0587  0.0026  0.0532
   80POPC   C1A 1326   6.070   0.736   7.828 -0.1733 -0.0627  0.1399
   80POPC   D2A 1327   6.123   0.722   7.469  0.0625  0.0532  0.0508
   80POPC   C3A 1328   6.319   0.419   7.282  0.1147  0.5164  0.2664
   80POPC   C4A 1329   6.653   0.312   7.016 -0.0677  0.1511 -0.0733
   80POPC   C1B 1330   5.731   0.245   7.502 -0.0705  0.2101 -0.2949
   80POPC   C2B 1331   5.729   0.218   7.108  0.2630  0.3759  0.1429
   80POPC   C3B 1332   5.660   0.426   6.655  0.1645  0.0028 -0.1970
   80POPC   C4B 1333   5.427   0.592   6.326 -0.2803 -0.2634  0.0343
   81POPC   NC3 1334   2.148   2.810   8.978  0.2311 -0.0179 -0.3719
   81POPC   PO4 1335   1.873   3.093   8.837 -0.0205 -0.3239 -0.0363
   81POPC   GL1 1336   2.098   2.969   8.480  0.3091 -0.1764  0.1431
   81POPC   GL2 1337   1.730   2.797   8.408 -0.1728  0.1021 -0.0979
   81POPC   C1A 1338   2.156   2.958   7.955  0.2692 -0.3289 -0.4438
   81POPC   D2A 1339   2.196   2.861   7.648  0.1004 -0.0602  0.1196
   81POPC   C3A 1340   1.926   2.981   7.409 -0.0370  0.3434 -0.3503
   81POPC   C4A 1341   1.916   3.147   6.963 -0.0777  0.0585 -0.0192
   81POPC   C1B 1342   1.631   2.913   8.034  0.1012 -0.0999 -0.1447
   81POPC   C2B 1343   1.526   3.143   7.714 -0.3268 -0.1299 -0.0189
   81POPC   C3B 1344   1.446   2.915   7.290  0.1752 -0.1731  0.3216
   81POPC   C4B 1345   1.370   2.527   7.022 -0.3189 -0.0205  0.2036
   82POPC   NC3 1346   1.948   6.344   8.597 -0.2400 -0.0228  0.0642
   82POPC   PO4 1347   1.489   6.485   8.703 -0.0371 -0.1021  0.2065
   82POPC   GL1 1348   1.531   6.460   8.267 -0.3260  0.0892  0.0196
   82POPC   GL2 1349   1.384   6.165   8.032  0.2751  0.0075 -0.0823
   82POPC   C1A 1350   1.617   6.805   7.977  0.4809  0.1970 -0.2824
   82POPC   D2A 1351   1.627   7.006   7.540 -0.1815 -0.1719  0.2225
   82POPC   C3A 1352   1.916   7.224   7.319 -0.1498  0.0391 -0.0328
   82POPC   C4A 1353   2.238   7.529   7.358 -0.0027  0.0079 -0.1277
   82POPC   C1B 1354   1.204   6.320   7.622  0.1072 -0.0485  0.4257
   82POPC   C2B 1355   1.364   6.442   7.317  0.1074  0.0375  0.0919
   82POPC   C3B 1356   1.537   6.324   6.875  0.0053 -0.0556 -0.0489
   82POPC   C4B 1357   1.760   6.612   6.610  0.2565 -0.0124 -0.3378
   83POPC   NC3 1358   3.260   1.918   8.615 -0.0451 -0.0129 -0.0829
   83POPC   PO4 1359   2.806   1.622   8.771 -0.0894  0.1573  0.3320
   83POPC   GL1 1360   2.897   1.300   8.545 -0.0325 -0.1876 -0.2704
   83POPC   GL2 1361   3.059   1.296   8.279  0.0868 -0.0213 -0.0043
   83POPC   C1A 1362   2.609   1.010   8.232  0.0833  0.0013  0.0499
   83POPC   D2A 1363   2.356   1.212   7.887 -0.0863  0.1980  0.0768
   83POPC   C3A 1364   1.930   1.112   7.763 -0.1225  0.2121 -0.0460
   83POPC   C4A 1365   1.780   1.199   7.402 -0.0538 -0.2583 -0.2666
   83POPC   C1B 1366   3.023   1.235   7.819  0.0512  0.0418 -0.1362
   83POPC   C2B 1367   2.789   1.108   7.459 -0.0424 -0.1835 -0.0415
   83POPC   C3B 1368   2.828   1.029   7.041  0.0139  0.1322 -0.1347
   83POPC   C4B 1369   2.923   0.948   6.679  0.2281  0.3249 -0.0623
   84POPC   NC3 1370   6.010   4.228   8.800  0.1293 -0.1720  0.1469
   84POPC   PO4 1371   5.809   3.913   8.485 -0.0354 -0.2339  0.0924
   84POPC   GL1 1372   5.865   3.719   8.043 -0.1488  0.1706 -0.1904
   84POPC   GL2 1373   5.798   4.045   7.924  0.3298  0.2717  0.1377
   84POPC   C1A 1374   5.932   3.478   7.723 -0.1011 -0.2010 -0.1036
   84POPC   D2A 1375   5.975   3.186   7.316  0.0178 -0.0104  0.2240
   84POPC   C3A 1376   5.780   3.157   6.854 -0.4169  0.0594  0.1290
   84POPC   C4A 1377   5.668   3.158   6.451  0.1500  0.0388 -0.0093
   84POPC   C1B 1378   5.658   3.924   7.521  0.1963  0.1087 -0.2582
   84POPC   C2B 1379   5.721   4.111   7.062 -0.1675  0.2666 -0.0486
   84POPC   C3B 1380   5.790   4.217   6.665 -0.0080  0.1054  0.2574
   84POPC   C4B 1381   6.154   4.272   6.535  0.1077  0.0185 -0.2180
   85POPC   NC3 1382   6.662   9.611   8.155  0.0165  0.3509 -0.0376
   85POPC   PO4 1383   6.179   9.403   8.048 -0.0988 -0.1629 -0.2259
   85POPC   GL1 1384   6.444   9.463   7.651 -0.0412  0.0762  0.0324
   85POPC   GL2 1385   6.659   9.731   7.628  0.0656 -0.0990 -0.0729
   85POPC   C1A 1386   6.458   9.235   7.267 -0.2031 -0.1583 -0.2087
   85POPC   D2A 1387   6.479   9.024   6.879 -0.3046 -0.1328  0.2085
   85POPC   C3A 1388   6.033   9.116   6.686  0.2594  0.0784 -0.0315
   85POPC   C4A 1389   5.610   9.037   6.467  0.2356 -0.0938 -0.0981
   85POPC   C1B 1390   6.865   9.638   7.203  0.0857  0.0278  0.0259
   85POPC   C2B 1391   6.694   9.529   6.788  0.2266 -0.1804 -0.0026
   85POPC   C3B 1392   6.833   9.621   6.433  0.0226  0.0968 -0.0717
   85POPC   C4B 1393   7.115   9.761   6.020 -0.1302 -0.0496  0.0698
   86POPC   NC3 1394   0.971   8.079   8.573  0.0608  0.2384  0.1922
   86POPC   PO4 1395   1.017   8.309   9.097 -0.1332  0.1435  0.1484
   86POPC   GL1 1396   0.918   8.571   8.739  0.2398  0.0096 -0.0053
   86POPC   GL2 1397   0.926   8.857   8.781 -0.3200  0.0791 -0.3792
   86POPC   C1A 1398   0.702   8.661   8.421  0.1767  0.0075 -0.1984
   86POPC   D2A 1399   0.560   8.401   7.988 -0.1041 -0.1358  0.0014
   86POPC   C3A 1400   0.523   8.533   7.631 -0.0883 -0.0252 -0.0981
   86POPC   C4A 1401   0.576   8.471   7.264  0.2633  0.2434  0.1972
   86POPC   C1B 1402   0.703   9.193   9.002 -0.0776  0.1531 -0.1438
   86POPC   C2B 1403   0.297   9.441   8.895 -0.1933  0.1295  0.0431
   86POPC   C3B 1404   0.106   9.866   8.750 -0.0335  0.0612  0.1950
   86POPC   C4B 1405   0.344  10.177   8.796  0.0105 -0.1820 -0.1351
   87POPC   NC3 1406   0.344   3.807   8.756  0.1085  0.0024 -0.1505
   87POPC   PO4 1407   0.734   3.999   8.766  0.2574  0.3113  0.1982
   87POPC   GL1 1408   0.761   3.950   8.307  0.2487 -0.2346 -0.1031
   87POPC   GL2 1409   0.938   4.254   8.161  0.0093 -0.1250 -0.2561
   87POPC   C1A 1410   0.466   4.030   8.022  0.2222 -0.0485  0.0950
   87POPC   D2A 1411   0.314   3.931   7.595 -0.1059  0.3892 -0.4240
   87POPC   C3A 1412   0.549   3.511   7.341 -0.1347 -0.1567 -0.0818
   87POPC   C4A 1413   0.514   3.328   6.873 -0.2422  0.1543 -0.1521
   87POPC   C1B 1414   0.966   4.412   7.665  0.0946  0.0581 -0.1527
   87POPC   C2B 1415   0.965   4.353   7.214 -0.2514  0.2621  0.0199
   87POPC   C3B 1416   0.758   4.366   6.820 -0.0509  0.0560 -0.1012
   87POPC   C4B 1417   0.337   4.334   6.563 -0.1246 -0.0145 -0.3270
   88POPC   NC3 1418   4.450   6.389   8.190 -0.0813 -0.0660  0.0840
   88POPC   PO4 1419   4.452   6.761   8.283 -0.1930  0.4321  0.0726
   88POPC   GL1 1420   4.421   6.717   7.804 -0.1628 -0.1546  0.1390
   88POPC   GL2 1421   4.208   6.586   7.744  0.2581 -0.0752  0.2619
   88POPC   C1A 1422   4.219   7.007   7.529 -0.1971  0.1023 -0.1159
   88POPC   D2A 1423   4.212   6.894   7.112 -0.0709 -0.0824  0.0467
   88POPC   C3A 1424   4.374   7.266   6.851  0.0789 -0.0111 -0.2416
   88POPC   C4A 1425   4.767   7.470   6.936  0.0769  0.0228 -0.0751
   88POPC   C1B 1426   3.943   6.600   7.435 -0.0757  0.3368  0.4131
   88POPC   C2B 1427   3.631   6.269   7.295 -0.0686 -0.0957 -0.1450
   88POPC   C3B 1428   3.273   6.066   7.428 -0.0445 -0.0011 -0.2072
   88POPC   C4B 1429   2.937   6.241   7.464 -0.0698 -0.1175 -0.0719
   89POPC   NC3 1430   5.542   2.429   8.129  0.2622 -0.1314 -0.3769
   89POPC   PO4 1431   5.725   2.732   8.231 -0.0504  0.0290 -0.1346
   89POPC   GL1 1432   5.759   2.864   7.889 -0.1872  0.1044 -0.0308
   89POPC   GL2 1433   5.748   3.162   7.993 -0.0963  0.1981 -0.0561
   89POPC   C1A 1434   6.017   2.722   7.543 -0.3024  0.4146 -0.1857
   89POPC   D2A 1435   6.081   2.699   7.004  0.1405  0.0588 -0.2840
   89POPC   C3A 1436   6.523   2.733   6.823 -0.0954 -0.2719 -0.2596
   89POPC   C4A 1437   6.732   2.361   6.535  0.0867 -0.3316 -0.1600
   89POPC   C1B 1438   5.521   3.135   7.610 -0.3199 -0.1471 -0.0330
   89POPC   C2B 1439   5.512   3.427   7.327 -0.2357  0.0278  0.2488
   89POPC   C3B 1440   5.263   3.658   7.138 -0.0493 -0.0966  0.2651
   89POPC   C4B 1441   5.244   4.093   6.980  0.2559  0.2439  0.3946
   90POPC   NC3 1442   9.804   0.932   9.835 -0.2407 -0.1918 -0.0981
   90POPC   PO4 1443   9.983   0.498   9.652 -0.3217 -0.2647 -0.1565
   90POPC   GL1 1444  10.020   0.616   9.228 -0.0186 -0.3329  0.2309
   90POPC   GL2 1445  10.315   0.627   9.128  0.2874  0.0438  0.2224
   90POPC   C1A 1446   9.838   0.927   8.959  0.0101 -0.1881 -0.0781
   90POPC   D2A 1447   9.878   1.272   8.752  0.2435  0.0871 -0.3407
   90POPC   C3A 1448  10.156   1.574   8.799 -0.0203  0.1764 -0.2060
   90POPC   C4A 1449  10.532   1.699   9.086 -0.2712  0.1018 -0.0149
   90POPC   C1B 1450  10.264   0.816   8.740 -0.1350  0.2014 -0.4010
   90POPC   C2B 1451   9.987   0.641   8.463  0.1431  0.1344 -0.2700
   90POPC   C3B 1452   9.792   0.321   8.378  0.1185  0.0519 -0.5005
   90POPC   C4B 1453   9.472   0.042   8.172  0.2427 -0.0099 -0.4858
   91POPC   NC3 1454   4.853   7.034   8.238  0.4886 -0.1312 -0.0256
   91POPC   PO4 1455   5.234   6.886   8.430 -0.1413 -0.2312 -0.1966
   91POPC   GL1 1456   5.133   6.596   8.016 -0.0429  0.3102  0.0513
   91POPC   GL2 1457   4.841   6.489   7.908  0.1554 -0.0924 -0.0525
   91POPC   C1A 1458   5.205   6.389   7.577  0.1196 -0.0447 -0.0140
   91POPC   D2A 1459   5.129   6.663   7.159 -0.1492 -0.2984 -0.0513
   91POPC   C3A 1460   5.204   6.636   6.761  0.1101  0.1681  0.1817
   91POPC   C4A 1461   4.915   6.729   6.406  0.3050  0.2570 -0.0871
   91POPC   C1B 1462   4.747   6.478   7.422 -0.1848 -0.3320  0.3764
   91POPC   C2B 1463   4.511   6.504   7.023 -0.2454 -0.2081  0.2789
   91POPC   C3B 1464   4.377   6.333   6.608  0.2889 -0.1466  0.0826
   91POPC   C4B 1465   4.135   6.050   6.459 -0.0222 -0.2866  0.1178
   92POPC   NC3 1466   4.481   3.576   8.342  0.2168 -0.1378  0.2148
   92POPC   PO4 1467   4.961   3.463   8.321 -0.2774  0.0929 -0.0152
   92POPC   GL1 1468   4.681   3.378   7.911 -0.2977 -0.0659 -0.0176
   92POPC   GL2 1469   4.964   3.120   7.731  0.1175  0.3255  0.0635
   92POPC   C1A 1470   4.475   3.205   7.626 -0.0507  0.0013 -0.4072
   92POPC   D2A 1471   4.131   3.374   7.451  0.1759 -0.1716  0.2167
   92POPC   C3A 1472   4.101   3.521   6.965  0.1392 -0.1565  0.2633
   92POPC   C4A 1473   4.352   3.810   6.655  0.2487  0.0504  0.2058
   92POPC   C1B 1474   5.174   3.020   7.227  0.1414  0.1463 -0.0510
   92POPC   C2B 1475   5.186   3.258   6.825  0.2920  0.0810  0.1981
   92POPC   C3B 1476   5.281   3.462   6.466  0.0419  0.3147  0.0667
   92POPC   C4B 1477   5.131   3.674   6.078 -0.1882 -0.0712 -0.0806
   93POPC   NC3 1478   9.268   2.573   9.907  0.4158 -0.1755 -0.0276
   93POPC   PO4 1479   9.511   2.706   9.562  0.0476  0.0044 -0.4696
   93POPC   GL1 1480   9.507   2.553   9.088 -0.0056 -0.1330 -0.0442
   93POPC   GL2 1481   9.854   2.513   8.807  0.0786  0.2151  0.0541
   93POPC   C1A 1482   9.386   2.620   8.715 -0.0900 -0.2697 -0.2163
   93POPC   D2A 1483   9.222   2.658   8.343 -0.4734  0.3437  0.0541
   93POPC   C3A 1484   8.984   3.009   8.144 -0.0255  0.0814  0.0141
   93POPC   C4A 1485   8.934   3.479   8.297 -0.1597 -0.0991  0.1264
   93POPC   C1B 1486  10.255   2.550   8.514  0.4208  0.0937 -0.0568
   93POPC   C2B 1487  10.496   2.170   8.282 -0.3436 -0.1122  0.2589
   93POPC   C3B 1488  10.971   2.241   8.366 -0.0425  0.1227 -0.2014
   93POPC   C4B 1489  11.255   2.490   8.268  0.5286  0.1045  0.1318
   94POPC   NC3 1490   8.551   7.262   8.361  0.0475  0.2402  0.0657
   94POPC   PO4 1491   9.094   7.233   8.411  0.3659 -0.3140 -0.4186
   94POPC   GL1 1492   8.929   7.213   8.011  0.0655 -0.2015 -0.3469
   94POPC   GL2 1493   8.916   7.559   7.882 -0.1601  0.0793 -0.3079
   94POPC   C1A 1494   8.986   7.092   7.685  0.3141 -0.1814 -0.2550
   94POPC   D2A 1495   9.016   7.007   7.160 -0.0138 -0.2501 -0.0723
   94POPC   C3A 1496   8.823   7.251   6.722  0.3308  0.0908 -0.0867
   94POPC   C4A 1497   8.456   7.512   6.572 -0.2049 -0.2244  0.1333
   94POPC   C1B 1498   9.148   7.607   7.500  0.1550  0.2062  0.1269
   94POPC   C2B 1499   8.911   7.549   7.216 -0.0303 -0.2706 -0.3270
   94POPC   C3B 1500   8.758   7.718   6.886  0.0683  0.0390 -0.2293
   94POPC   C4B 1501   8.912   7.859   6.527  0.0262  0.2049 -0.1193
   95POPC   NC3 1502   4.252   2.767   8.526 -0.0255  0.1514 -0.0931
   95POPC   PO4 1503   4.279   3.077   8.226  0.1834  0.1246  0.4480
   95POPC   GL1 1504   4.062   3.079   7.864 -0.0293 -0.1380  0.1250
   95POPC   GL2 1505   3.755   3.043   7.915 -0.1726  0.3739  0.1106
   95POPC   C1A 1506   4.091   2.848   7.576  0.3322  0.1672  0.0969
   95POPC   D2A 1507   3.930   2.566   7.215  0.1089 -0.1305  0.1758
   95POPC   C3A 1508   4.057   2.231   7.054  0.1626  0.0706 -0.0316
   95POPC   C4A 1509   3.756   1.933   6.805  0.0713 -0.1962  0.0066
   95POPC   C1B 1510   3.589   2.849   7.633 -0.2505  0.2588 -0.1208
   95POPC   C2B 1511   3.330   2.824   7.264  0.0510 -0.0715  0.0240
   95POPC   C3B 1512   3.245   3.117   6.966 -0.1285  0.0796 -0.0440
   95POPC   C4B 1513   2.792   3.296   6.820 -0.0509  0.0882  0.2896
   96POPC   NC3 1514   8.510   5.389   8.830 -0.3335  0.1981 -0.0872
   96POPC   PO4 1515   8.426   5.058   8.658 -0.3126 -0.2414  0.0885
   96POPC   GL1 1516   8.355   4.864   8.180  0.1200 -0.2301 -0.0580
   96POPC   GL2 1517   8.129   4.445   8.103  0.1138 -0.0137 -0.0179
   96POPC   C1A 1518   8.140   4.849   7.740 -0.5749  0.2576  0.0770
   96POPC   D2A 1519   7.962   4.570   7.355  0.2032 -0.0777 -0.2469
   96POPC   C3A 1520   7.956   4.456   6.967 -0.2239 -0.1205  0.1186
   96POPC   C4A 1521   7.989   4.266   6.574 -0.2239 -0.1879 -0.0038
   96POPC   C1B 1522   8.232   4.160   7.754  0.1479 -0.0597  0.0320
   96POPC   C2B 1523   8.442   3.927   7.449 -0.0500  0.1881  0.2628
   96POPC   C3B 1524   8.826   4.103   7.189  0.2073  0.2623  0.2116
   96POPC   C4B 1525   9.084   3.954   6.818  0.0844 -0.1918 -0.0036
   97POPC   NC3 1526   5.657   5.552   8.335 -0.1048  0.2069  0.0648
   97POPC   PO4 1527   5.427   5.235   8.415  0.1012  0.0055 -0.4685
   97POPC   GL1 1528   5.261   4.975   8.229 -0.1826  0.2277  0.1804
   97POPC   GL2 1529   5.471   4.749   8.201  0.0655  0.1692 -0.1182
   97POPC   C1A 1530   5.195   4.894   7.827 -0.3407  0.0400 -0.1044
   97POPC   D2A 1531   5.182   4.741   7.379 -0.0011 -0.4258  0.0667
   97POPC   C3A 1532   5.438   4.623   7.028 -0.0130 -0.1805 -0.0106
   97POPC   C4A 1533   5.437   4.633   6.615  0.0294 -0.4937 -0.0867
   97POPC   C1B 1534   5.580   4.518   7.856  0.3117 -0.1402 -0.1186
   97POPC   C2B 1535   5.564   4.413   7.490 -0.1243  0.1101 -0.3128
   97POPC   C3B 1536   5.231   4.240   7.476 -0.3032  0.2359  0.1117
   97POPC   C4B 1537   4.866   4.001   7.561 -0.0584 -0.2559 -0.0938
   98POPC   NC3 1538   6.957   0.965   8.768 -0.3639 -0.0154  0.4473
   98POPC   PO4 1539   6.930   0.564   8.400  0.1457 -0.1538  0.1457
   98POPC   GL1 1540   6.999   0.642   7.967 -0.0505 -0.0411 -0.0212
   98POPC   GL2 1541   7.300   0.819   7.894 -0.2945  0.0537  0.0020
   98POPC   C1A 1542   6.920   0.855   7.575  0.2210  0.2196 -0.0234
   98POPC   D2A 1543   6.597   0.835   7.225 -0.2618  0.1716  0.2798
   98POPC   C3A 1544   6.659   0.783   6.780  0.0876 -0.0674  0.2560
   98POPC   C4A 1545   6.420   0.889   6.509  0.0368 -0.2900 -0.0759
   98POPC   C1B 1546   7.363   0.366   7.762 -0.3865  0.0560  0.1096
   98POPC   C2B 1547   7.362  -0.049   7.495 -0.0912 -0.1290 -0.1205
   98POPC   C3B 1548   7.395  -0.424   7.439  0.0470  0.1802  0.2653
   98POPC   C4B 1549   7.420  -0.752   7.808  0.2758 -0.2035  0.0870
   99POPC   NC3 1550   5.305   1.950   8.834  0.1186  0.2109 -0.1049
   99POPC   PO4 1551   5.407   2.175   8.591 -0.0924 -0.0681  0.0088
   99POPC   GL1 1552   5.286   1.922   8.113 -0.2977 -0.0845 -0.0339
   99POPC   GL2 1553   5.235   2.160   7.797  0.3242 -0.2710 -0.1739
   99POPC   C1A 1554   5.530   1.692   7.793 -0.2459  0.1877 -0.2564
   99POPC   D2A 1555   5.301   1.361   7.614 -0.2310  0.1063 -0.0737
   99POPC   C3A 1556   5.276   1.110   7.286 -0.0554 -0.2465  0.1774
   99POPC   C4A 1557   5.495   1.036   6.906  0.2984  0.5516  0.0188
   99POPC   C1B 1558   5.326   2.169   7.367 -0.0457  0.0341  0.2747
   99POPC   C2B 1559   5.500   1.972   6.885 -0.0595 -0.1254  0.1132
   99POPC   C3B 1560   5.741   2.104   6.488 -0.0652 -0.1483 -0.0764
   99POPC   C4B 1561   5.991   2.380   6.201  0.1569 -0.0152 -0.0031
  100POPC   NC3 1562   3.459   2.519   9.130 -0.2614 -0.0778 -0.2761
  100POPC   PO4 1563   3.539   2.305   8.723  0.0558 -0.3987  0.0101
  100POPC   GL1 1564   3.518   2.301   8.240  0.0786  0.1921  0.4334
  100POPC   GL2 1565   3.355   2.550   7.994 -0.1969 -0.1837 -0.1068
  100POPC   C1A 1566   3.564   2.032   7.877 -0.2761  0.3605 -0.0638
  100POPC   D2A 1567   3.647   1.914   7.370 -0.0330  0.2387  0.0072
  100POPC   C3A 1568   3.456   2.246   7.033 -0.1583  0.1177 -0.1985
  100POPC   C4A 1569   3.513   2.370   6.543  0.0370 -0.1769  0.1614
  100POPC   C1B 1570   3.021   2.298   7.989 -0.0477  0.2405 -0.0266
  100POPC   C2B 1571   2.765   2.092   7.745  0.2641 -0.1453 -0.1004
  100POPC   C3B 1572   2.513   1.988   7.425 -0.2188  0.1430  0.0385
  100POPC   C4B 1573   2.316   1.907   7.178  0.2734 -0.1064  0.3612
  101POPC   NC3 1574   2.367   5.416   9.031  0.3665 -0.3448 -0.0455
  101POPC   PO4 1575   2.447   5.246   8.626  0.0479 -0.2146  0.3890
  101POPC   GL1 1576   2.544   5.129   8.200  0.0027 -0.1195  0.0869
  101POPC   GL2 1577   2.357   4.979   7.908  0.3614  0.2127  0.0731
  101POPC   C1A 1578   3.009   5.240   7.898 -0.1623  0.0178 -0.3464
  101POPC   D2A 1579   3.470   5.372   7.871  0.0910 -0.2028 -0.1093
  101POPC   C3A 1580   3.564   5.400   7.495 -0.1514  0.2555 -0.1540
  101POPC   C4A 1581   3.580   5.282   7.008  0.2093 -0.0188  0.0295
  101POPC   C1B 1582   2.377   4.766   7.613 -0.0986 -0.2221 -0.1356
  101POPC   C2B 1583   2.197   4.520   7.270  0.1182 -0.0677  0.3109
  101POPC   C3B 1584   2.042   4.317   6.900  0.4487  0.2533  0.1181
  101POPC   C4B 1585   2.188   4.122   6.525 -0.0767  0.0696 -0.0686
  102POPC   NC3 1586   2.430   1.884   9.065 -0.1277  0.3276 -0.0573
  102POPC   PO4 1587   2.662   2.222   8.813 -0.0972  0.0029  0.1541
  102POPC   GL1 1588   2.523   2.058   8.438  0.0030  0.2064  0.0592
  102POPC   GL2 1589   2.830   1.916   8.329 -0.2778  0.1547  0.2521
  102POPC   C1A 1590   2.234   1.874   8.109  0.1005 -0.0572 -0.0613
  102POPC   D2A 1591   2.137   1.695   7.590 -0.0877  0.0500 -0.0889
  102POPC   C3A 1592   2.350   1.324   7.377 -0.0959 -0.0126  0.2052
  102POPC   C4A 1593   2.321   0.943   7.259  0.1577 -0.0833 -0.0928
  102POPC   C1B 1594   3.067   1.758   8.038  0.0549  0.0786  0.0109
  102POPC   C2B 1595   3.202   1.785   7.578  0.0099 -0.0127  0.2992
  102POPC   C3B 1596   3.104   1.464   7.305  0.0397 -0.2078 -0.0245
  102POPC   C4B 1597   3.297   1.212   6.887  0.2381  0.2049 -0.0980
  103POPC   NC3 1598   6.196   6.678   8.635  0.2342  0.0799  0.0171
  103POPC   PO4 1599   5.765   6.842   8.449  0.1807 -0.0073 -0.2454
  103POPC   GL1 1600   5.611   6.889   8.076 -0.0637  0.2513  0.2303
  103POPC   GL2 1601   5.356   7.127   7.992  0.3232  0.0563 -0.0393
  103POPC   C1A 1602   5.530   6.795   7.643 -0.1088 -0.0113 -0.0409
  103POPC   D2A 1603   5.622   6.469   7.277 -0.0412  0.0520 -0.0922
  103POPC   C3A 1604   5.390   6.280   7.035  0.0971  0.1273  0.1437
  103POPC   C4A 1605   5.047   6.069   7.219  0.3476  0.2102 -0.0222
  103POPC   C1B 1606   5.038   6.874   7.661 -0.2636  0.1159 -0.2403
  103POPC   C2B 1607   4.738   6.977   7.302  0.1748 -0.2958  0.1082
  103POPC   C3B 1608   4.800   6.965   6.859  0.2539  0.0214 -0.1556
  103POPC   C4B 1609   4.744   7.213   6.357  0.3756 -0.1537  0.1912
  104POPC   NC3 1610   4.762   4.035   8.571 -0.1480  0.1360 -0.0654
  104POPC   PO4 1611   4.197   3.986   8.356 -0.0851 -0.1673 -0.0134
  104POPC   GL1 1612   3.990   3.903   7.932  0.1226  0.2237 -0.0890
  104POPC   GL2 1613   4.294   3.765   7.878  0.0601  0.1543  0.3126
  104POPC   C1A 1614   3.870   3.839   7.432 -0.1684  0.0761 -0.2847
  104POPC   D2A 1615   3.591   3.945   7.221 -0.0349  0.0325  0.1311
  104POPC   C3A 1616   3.609   3.738   6.837  0.0736 -0.2403 -0.2508
  104POPC   C4A 1617   3.433   4.044   6.525 -0.1314 -0.1654 -0.0925
  104POPC   C1B 1618   4.516   3.673   7.545  0.1719 -0.2865  0.1693
  104POPC   C2B 1619   4.666   3.756   7.088 -0.2484  0.1771 -0.2603
  104POPC   C3B 1620   4.785   4.033   6.828 -0.0853 -0.0869 -0.1146
  104POPC   C4B 1621   5.158   3.962   6.529 -0.0239 -0.2019  0.0128
  105POPC   NC3 1622   4.753   4.868   8.506  0.0699 -0.1290 -0.0773
  105POPC   PO4 1623   4.988   5.218   8.670  0.0016 -0.1996 -0.1222
  105POPC   GL1 1624   4.853   5.311   8.324  0.2464  0.1730  0.0264
  105POPC   GL2 1625   5.066   5.537   8.218  0.1338  0.0477  0.2842
  105POPC   C1A 1626   4.806   5.195   7.803 -0.3004  0.2972 -0.1030
  105POPC   D2A 1627   4.745   5.033   7.377 -0.1578  0.1235 -0.0016
  105POPC   C3A 1628   4.737   4.875   7.010  0.1671  0.0330 -0.1114
  105POPC   C4A 1629   4.603   4.836   6.696  0.1162  0.0597  0.1071
  105POPC   C1B 1630   5.285   5.391   7.828 -0.0800 -0.0513 -0.3871
  105POPC   C2B 1631   5.195   5.294   7.411  0.4037  0.1847 -0.1363
  105POPC   C3B 1632   5.218   5.156   7.010 -0.3965 -0.0963  0.2684
  105POPC   C4B 1633   5.071   4.973   6.555  0.2170  0.2133  0.1811
  106POPC   NC3 1634   1.698   8.072   9.237  0.0231  0.0569  0.2375
  106POPC   PO4 1635   1.896   8.100   8.806  0.2906  0.2579  0.0550
  106POPC   GL1 1636   2.030   8.220   8.410 -0.0416 -0.0220  0.3680
  106POPC   GL2 1637   1.826   8.470   8.360 -0.0994  0.1845  0.2742
  106POPC   C1A 1638   1.922   8.116   7.928 -0.0679 -0.0111 -0.1987
  106POPC   D2A 1639   1.824   8.315   7.441  0.0456 -0.1699  0.0219
  106POPC   C3A 1640   1.430   8.012   7.153  0.2121  0.1598 -0.0079
  106POPC   C4A 1641   1.099   8.222   7.016  0.0978  0.2632 -0.3228
  106POPC   C1B 1642   1.712   8.564   7.949 -0.0888 -0.0185 -0.3499
  106POPC   C2B 1643   1.343   8.398   7.663  0.0080 -0.2140  0.0166
  106POPC   C3B 1644   0.982   8.300   7.493  0.2265 -0.0150 -0.0714
  106POPC   C4B 1645   0.686   7.970   7.752 -0.1633 -0.0963  0.2712
  107POPC   NC3 1646   1.910   3.997   8.675 -0.1845 -0.2441  0.2513
  107POPC   PO4 1647   1.644   3.969   8.284 -0.0594  0.2490 -0.1494
  107POPC   GL1 1648   1.297   3.879   7.961 -0.0167 -0.0686 -0.0886
  107POPC   GL2 1649   1.197   3.540   8.104  0.0220 -0.0235 -0.0549
  107POPC   C1A 1650   1.346   3.973   7.539 -0.0409 -0.1632  0.0905
  107POPC   D2A 1651   1.519   3.992   7.076 -0.0397  0.0102 -0.1818
  107POPC   C3A 1652   1.989   3.766   7.038  0.2985 -0.3694  0.3397
  107POPC   C4A 1653   2.349   3.422   6.981 -0.4259 -0.3838 -0.0752
  107POPC   C1B 1654   1.142   3.483   7.674  0.0422 -0.2914  0.1475
  107POPC   C2B 1655   1.002   3.268   7.434 -0.0352  0.1802 -0.1412
  107POPC   C3B 1656   0.939   3.263   7.071 -0.3290  0.3569  0.1349
  107POPC   C4B 1657   0.917   3.083   6.714  0.0707  0.2205 -0.2110
  108POPC   NC3 1658   8.776   6.838   8.490 -0.0540 -0.1556 -0.1473
  108POPC   PO4 1659   8.256   6.848   8.600  0.3426  0.1104 -0.1232
  108POPC   GL1 1660   8.296   6.821   8.145  0.0335  0.0512  0.3068
  108POPC   GL2 1661   8.080   6.945   8.055  0.5763  0.1549 -0.1040
  108POPC   C1A 1662   8.504   6.978   7.701  0.3122  0.1493 -0.0556
  108POPC   D2A 1663   8.578   7.131   7.298  0.0821  0.0413 -0.4625
  108POPC   C3A 1664   8.347   7.462   7.101 -0.2702 -0.0561  0.0612
  108POPC   C4A 1665   8.204   7.880   7.044  0.2245  0.0550 -0.0136
  108POPC   C1B 1666   8.108   7.219   7.705  0.0289  0.1405 -0.3138
  108POPC   C2B 1667   8.101   7.031   7.279  0.3977 -0.2312 -0.1635
  108POPC   C3B 1668   8.201   7.029   6.886 -0.0319  0.0859 -0.2875
  108POPC   C4B 1669   8.279   7.044   6.483 -0.1252  0.1353 -0.1109
  109POPC   NC3 1670   3.933   9.174   8.413  0.1999 -0.1023  0.0925
  109POPC   PO4 1671   3.663   9.527   8.526 -0.2316 -0.0657 -0.0641
  109POPC   GL1 1672   3.435   9.853   8.302 -0.0440 -0.1119  0.0056
  109POPC   GL2 1673   3.199  10.090   8.426 -0.0772 -0.0574  0.2397
  109POPC   C1A 1674   3.326   9.874   7.957 -0.0091 -0.0470 -0.0042
  109POPC   D2A 1675   3.047  10.159   7.800  0.1681 -0.0476 -0.1343
  109POPC   C3A 1676   2.784  10.083   7.480  0.4211 -0.0181 -0.1499
  109POPC   C4A 1677   2.390  10.263   7.417  0.1179 -0.2318  0.0895
  109POPC   C1B 1678   2.895   9.805   8.181 -0.0790 -0.0224  0.3056
  109POPC   C2B 1679   2.818   9.700   7.864 -0.2926  0.1411  0.0230
  109POPC   C3B 1680   2.434   9.772   7.541 -0.0384  0.3123  0.0672
  109POPC   C4B 1681   2.120   9.744   7.210 -0.2602 -0.0075  0.1071
  110POPC   NC3 1682   7.144   4.638   8.702  0.1621 -0.4281  0.1518
  110POPC   PO4 1683   6.985   4.393   8.312 -0.0822  0.3026  0.1872
  110POPC   GL1 1684   7.010   4.466   7.816  0.2837 -0.2356 -0.2155
  110POPC   GL2 1685   6.996   4.808   7.723 -0.0156  0.3917 -0.3168
  110POPC   C1A 1686   6.945   4.468   7.359 -0.0712  0.1541 -0.3215
  110POPC   D2A 1687   6.954   4.270   7.030  0.3344  0.2228 -0.1166
  110POPC   C3A 1688   6.789   4.153   6.674  0.0637  0.1184  0.1338
  110POPC   C4A 1689   6.986   4.042   6.328 -0.1679  0.3593 -0.1257
  110POPC   C1B 1690   7.196   4.997   7.501 -0.1751  0.4493 -0.2555
  110POPC   C2B 1691   7.411   5.198   7.112  0.2720 -0.2816  0.1232
  110POPC   C3B 1692   7.232   5.417   6.713 -0.1200  0.1654 -0.1415
  110POPC   C4B 1693   6.980   5.337   6.376  0.3015  0.1946 -0.0839
  111POPC   NC3 1694   9.702   3.584   9.724  0.0461 -0.1897 -0.1164
  111POPC   PO4 1695   9.743   3.807   9.307 -0.3253  0.1318 -0.1407
  111POPC   GL1 1696   9.753   3.438   8.955 -0.2139  0.3658 -0.1220
  111POPC   GL2 1697   9.855   3.467   8.577 -0.1837 -0.1552 -0.2030
  111POPC   C1A 1698   9.870   2.968   8.654  0.1432  0.0190  0.2449
  111POPC   D2A 1699   9.798   2.662   8.230 -0.1588 -0.0108 -0.1268
  111POPC   C3A 1700   9.595   2.287   8.407 -0.1676 -0.2379  0.0311
  111POPC   C4A 1701   9.508   1.861   8.146  0.3418  0.3759  0.0633
  111POPC   C1B 1702  10.036   3.454   8.146 -0.2534 -0.2199 -0.0559
  111POPC   C2B 1703  10.081   3.360   7.747  0.2919 -0.0297 -0.0344
  111POPC   C3B 1704   9.947   3.394   7.419 -0.0166 -0.0549  0.2467
  111POPC   C4B 1705   9.482   3.245   7.404 -0.0321  0.0344  0.0016
  112POPC   NC3 1706   7.235   6.886   8.452  0.2680  0.4840 -0.0559
  112POPC   PO4 1707   7.158   6.386   8.437  0.1778  0.2605 -0.0740
  112POPC   GL1 1708   7.002   6.529   8.064 -0.1213  0.0579  0.2567
  112POPC   GL2 1709   7.342   6.592   7.998 -0.4576 -0.3619 -0.1548
  112POPC   C1A 1710   6.734   6.700   7.677  0.1032  0.2317  0.1979
  112POPC   D2A 1711   6.551   6.965   7.279  0.1098 -0.0703 -0.0871
  112POPC   C3A 1712   6.209   6.955   7.224  0.3429  0.2482 -0.2451
  112POPC   C4A 1713   5.932   6.841   7.408 -0.0594  0.0773 -0.3200
  112POPC   C1B 1714   7.503   6.530   7.541  0.2186  0.1607  0.0827
  112POPC   C2B 1715   7.213   6.329   7.201 -0.0544  0.0910 -0.1563
  112POPC   C3B 1716   6.826   6.361   7.021  0.0760  0.2843  0.0600
  112POPC   C4B 1717   6.449   6.173   6.967  0.4481 -0.0040  0.1184
  113POPC   NC3 1718   5.684   7.345   8.368  0.1394 -0.0654 -0.1413
  113POPC   PO4 1719   5.510   7.756   8.302  0.1592 -0.1069  0.3451
  113POPC   GL1 1720   5.631   7.601   7.935 -0.2029 -0.2593 -0.0280
  113POPC   GL2 1721   5.855   7.361   7.878 -0.1864 -0.1690  0.0488
  113POPC   C1A 1722   5.499   7.412   7.503  0.1149 -0.0332  0.0811
  113POPC   D2A 1723   5.370   7.103   7.231 -0.1105  0.1270 -0.1857
  113POPC   C3A 1724   5.654   7.105   6.885  0.2010  0.1471  0.0961
  113POPC   C4A 1725   5.620   6.900   6.440 -0.0830  0.2309 -0.2977
  113POPC   C1B 1726   6.116   7.681   7.635 -0.1457  0.0548  0.1191
  113POPC   C2B 1727   6.186   7.889   7.280  0.1202 -0.3636 -0.0193
  113POPC   C3B 1728   6.275   8.220   7.129 -0.1811  0.2059 -0.1065
  113POPC   C4B 1729   6.243   8.205   6.745  0.0025  0.6206 -0.1305
  114POPC   NC3 1730   7.346   4.186   8.691  0.0227 -0.2222 -0.5289
  114POPC   PO4 1731   7.498   3.657   8.493  0.0263 -0.0854 -0.2748
  114POPC   GL1 1732   7.674   3.535   8.127 -0.0553 -0.0665 -0.2338
  114POPC   GL2 1733   7.492   3.594   7.969 -0.0553 -0.0566 -0.2126
  114POPC   C1A 1734   7.984   3.512   7.835  0.0415  0.2125 -0.0302
  114POPC   D2A 1735   8.182   3.332   7.493  0.0099 -0.0083  0.0346
  114POPC   C3A 1736   7.985   3.547   7.232  0.2966 -0.0216 -0.0030
  114POPC   C4A 1737   7.540   3.723   7.012 -0.0068 -0.1187  0.0314
  114POPC   C1B 1738   7.728   3.889   7.664 -0.0014 -0.0030 -0.0039
  114POPC   C2B 1739   7.947   3.986   7.212 -0.3232 -0.2679  0.3336
  114POPC   C3B 1740   8.313   4.033   6.928 -0.2220 -0.1335  0.1483
  114POPC   C4B 1741   8.550   4.139   6.544 -0.0454 -0.1609 -0.0972
  115POPC   NC3 1742   2.977   3.797   8.778 -0.0635  0.0151 -0.1568
  115POPC   PO4 1743   2.926   3.235   8.719 -0.0306 -0.0220  0.2514
  115POPC   GL1 1744   2.810   3.114   8.261  0.0707  0.2187 -0.0299
  115POPC   GL2 1745   2.937   2.818   8.070  0.0681  0.3137 -0.0603
  115POPC   C1A 1746   2.613   3.064   7.868  0.2297  0.0406 -0.1494
  115POPC   D2A 1747   2.650   3.093   7.404 -0.0576 -0.0689  0.1590
  115POPC   C3A 1748   2.801   2.793   6.984  0.1705 -0.2716 -0.0655
  115POPC   C4A 1749   3.127   2.612   6.814 -0.0000 -0.1701  0.3538
  115POPC   C1B 1750   2.934   2.667   7.638  0.5561 -0.2431 -0.1973
  115POPC   C2B 1751   2.565   2.544   7.400  0.2296  0.1412  0.0416
  115POPC   C3B 1752   2.463   2.444   7.065 -0.0994 -0.1254 -0.1075
  115POPC   C4B 1753   2.679   2.455   6.624 -0.1589 -0.4833 -0.1097
  116POPC   NC3 1754   5.905   8.534   8.541  0.1120  0.0090 -0.0147
  116POPC   PO4 1755   5.577   8.776   8.281  0.1223  0.0074 -0.0294
  116POPC   GL1 1756   5.774   8.671   7.901  0.2670 -0.2109  0.3681
  116POPC   GL2 1757   6.004   8.992   7.720  0.2083 -0.2999  0.0341
  116POPC   C1A 1758   5.629   8.363   7.528  0.0576  0.0202  0.0408
  116POPC   D2A 1759   5.668   7.907   7.408  0.0748 -0.2635  0.1667
  116POPC   C3A 1760   5.609   7.785   7.069  0.0960  0.1475 -0.1106
  116POPC   C4A 1761   5.363   7.517   6.829 -0.2369  0.1855 -0.3411
  116POPC   C1B 1762   5.550   8.984   7.550  0.2872  0.2533 -0.0529
  116POPC   C2B 1763   5.340   8.848   7.111  0.0114  0.0077 -0.0229
  116POPC   C3B 1764   5.751   8.770   6.936  0.1453 -0.1055  0.0317
  116POPC   C4B 1765   6.110   8.617   6.893  0.0863  0.0840  0.1374
  117POPC   NC3 1766   2.329   7.572   8.231 -0.1403 -0.2942 -0.2725
  117POPC   PO4 1767   2.025   7.230   8.419 -0.1758 -0.1602 -0.2916
  117POPC   GL1 1768   1.996   7.054   8.102  0.2384 -0.0672  0.2580
  117POPC   GL2 1769   1.978   7.352   7.893 -0.1372 -0.2460 -0.2805
  117POPC   C1A 1770   2.093   6.825   7.688 -0.1134 -0.3433 -0.1059
  117POPC   D2A 1771   2.370   6.549   7.497  0.1089 -0.0775 -0.1188
  117POPC   C3A 1772   2.507   6.396   7.170 -0.2625 -0.1092  0.2462
  117POPC   C4A 1773   2.809   6.483   6.910  0.3156  0.0158  0.1966
  117POPC   C1B 1774   2.367   7.239   7.696  0.2208  0.0720 -0.0040
  117POPC   C2B 1775   2.379   7.071   7.286  0.1068 -0.2097 -0.0241
  117POPC   C3B 1776   2.175   6.879   6.992  0.1496  0.1076  0.3172
  117POPC   C4B 1777   2.301   6.607   6.597 -0.1203 -0.1808  0.0689
  118POPC   NC3 1778   9.458   6.404   8.659 -0.1356 -0.0408  0.1172
  118POPC   PO4 1779   9.226   6.768   8.747 -0.1590  0.3247 -0.0586
  118POPC   GL1 1780   9.207   6.766   8.312 -0.1186 -0.0825  0.2554
  118POPC   GL2 1781   9.099   6.453   8.346 -0.1935  0.2351 -0.2402
  118POPC   C1A 1782   9.371   6.736   7.815 -0.0055 -0.0808 -0.1260
  118POPC   D2A 1783   9.467   6.749   7.385 -0.0550 -0.1118  0.0762
  118POPC   C3A 1784   9.937   6.928   7.415 -0.0640 -0.1248 -0.2782
  118POPC   C4A 1785   9.950   7.339   7.585  0.0653 -0.0099 -0.3357
  118POPC   C1B 1786   9.201   6.258   7.901  0.1667 -0.0328 -0.1837
  118POPC   C2B 1787   9.505   6.307   7.643 -0.2707 -0.1438  0.3836
  118POPC   C3B 1788   9.819   6.542   7.733  0.0441  0.0346  0.0714
  118POPC   C4B 1789   9.993   6.877   7.870 -0.3168 -0.3040 -0.0564
  119POPC   NC3 1790   4.839   9.358   8.276  0.2966 -0.4223  0.0441
  119POPC   PO4 1791   5.240   9.619   8.221  0.2702 -0.1801  0.0780
  119POPC   GL1 1792   4.962   9.763   7.967  0.0227  0.2880 -0.0100
  119POPC   GL2 1793   4.601   9.599   7.846  0.0658  0.4869  0.0482
  119POPC   C1A 1794   4.879   9.872   7.562 -0.1120 -0.0541  0.0835
  119POPC   D2A 1795   4.814   9.597   7.143  0.0094  0.0501 -0.3550
  119POPC   C3A 1796   4.558   9.299   6.907 -0.1001  0.2217  0.1039
  119POPC   C4A 1797   4.195   9.273   7.167 -0.1700  0.4431  0.0275
  119POPC   C1B 1798   4.778   9.319   7.578  0.2240 -0.3563  0.0914
  119POPC   C2B 1799   4.843   9.017   7.310  0.2310  0.1505  0.3175
  119POPC   C3B 1800   4.860   8.865   6.873 -0.0874  0.0292 -0.1311
  119POPC   C4B 1801   5.130   8.789   6.499 -0.0398  0.2779  0.1648
  120POPC   NC3 1802   3.922   6.904   9.033 -0.0492  0.2934  0.1663
  120POPC   PO4 1803   3.583   6.995   8.748  0.1542 -0.2415 -0.1256
  120POPC   GL1 1804   3.294   7.032   8.339 -0.0547  0.1537  0.0118
  120POPC   GL2 1805   3.089   7.241   8.188  0.0875  0.1139  0.1055
  120POPC   C1A 1806   3.077   6.719   7.971 -0.2614  0.4697  0.4032
  120POPC   D2A 1807   2.661   6.721   7.851 -0.3399  0.0756 -0.2214
  120POPC   C3A 1808   2.797   6.770   7.449  0.1237  0.0766  0.6195
  120POPC   C4A 1809   2.821   7.020   6.894 -0.0111  0.1870  0.1080
  120POPC   C1B 1810   2.803   7.321   7.921  0.0549  0.0562 -0.2266
  120POPC   C2B 1811   2.629   7.699   7.700  0.1042  0.0749 -0.0025
  120POPC   C3B 1812   2.547   7.922   7.307 -0.1731  0.0786 -0.1628
  120POPC   C4B 1813   2.313   7.941   6.982 -0.0262  0.5304  0.2122
  121POPC   NC3 1814   8.519   2.115   8.581 -0.0794 -0.1784  0.3860
  121POPC   PO4 1815   8.409   2.087   8.204 -0.1051 -0.2172  0.0033
  121POPC   GL1 1816   8.311   2.373   7.877  0.0718  0.0005  0.0802
  121POPC   GL2 1817   8.221   2.662   7.986 -0.1586  0.0544 -0.2195
  121POPC   C1A 1818   8.122   2.563   7.470 -0.4852 -0.0723 -0.0547
  121POPC   D2A 1819   7.700   2.567   7.260 -0.0422 -0.2776 -0.0189
  121POPC   C3A 1820   7.465   2.859   7.163  0.0637  0.0313  0.0051
  121POPC   C4A 1821   7.284   3.233   7.098 -0.0179  0.0823 -0.3223
  121POPC   C1B 1822   8.422   2.942   7.737 -0.1220 -0.0336  0.1356
  121POPC   C2B 1823   8.494   3.030   7.282  0.1127  0.0867  0.3261
  121POPC   C3B 1824   8.445   3.302   6.899 -0.0430  0.3938 -0.2895
  121POPC   C4B 1825   8.159   3.562   6.731 -0.0435 -0.4431  0.1754
  122POPC   NC3 1826   7.903   0.093   8.159  0.2397 -0.1720  0.0737
  122POPC   PO4 1827   7.650  -0.208   8.218 -0.1396  0.3828  0.1477
  122POPC   GL1 1828   7.969  -0.444   8.127 -0.0109 -0.1123 -0.0327
  122POPC   GL2 1829   8.256  -0.374   7.936 -0.0123  0.1855 -0.0067
  122POPC   C1A 1830   7.879  -0.970   8.034 -0.1234 -0.0735 -0.1488
  122POPC   D2A 1831   8.205  -1.153   7.812 -0.1547  0.0416 -0.1178
  122POPC   C3A 1832   8.163  -1.029   7.346 -0.1725  0.1030 -0.2289
  122POPC   C4A 1833   8.024  -1.128   7.051  0.0311 -0.0438  0.3079
  122POPC   C1B 1834   8.399  -0.685   7.769  0.1429 -0.2963 -0.0934
  122POPC   C2B 1835   8.636  -0.921   7.483  0.0614 -0.0854  0.3236
  122POPC   C3B 1836   8.773  -0.965   7.051 -0.2195 -0.0325  0.0558
  122POPC   C4B 1837   8.833  -1.299   6.669  0.1542 -0.3497 -0.0894
  123POPC   NC3 1838   4.159   9.584   8.528  0.2311 -0.1354 -0.0512
  123POPC   PO4 1839   4.502   9.688   8.388  0.2846 -0.0286  0.0169
  123POPC   GL1 1840   4.521   9.995   8.171  0.1508 -0.0316 -0.2246
  123POPC   GL2 1841   4.346  10.046   7.862 -0.1702 -0.2526  0.1989
  123POPC   C1A 1842   4.814  10.258   7.934  0.2616 -0.2736  0.0157
  123POPC   D2A 1843   5.088  10.325   7.500 -0.2049 -0.2443 -0.3073
  123POPC   C3A 1844   4.925  10.641   7.194 -0.3778  0.2688  0.2463
  123POPC   C4A 1845   4.655  10.723   6.862  0.4204  0.0054  0.1495
  123POPC   C1B 1846   4.204   9.809   7.457 -0.3792  0.5451 -0.1492
  123POPC   C2B 1847   4.341   9.911   6.956 -0.3106 -0.1565 -0.0702
  123POPC   C3B 1848   4.480  10.191   6.632 -0.2538  0.2089 -0.1928
  123POPC   C4B 1849   4.864  10.285   6.433 -0.2651 -0.1755  0.0675
  124POPC   NC3 1850   3.711   6.784   8.283 -0.1246  0.0791 -0.0775
  124POPC   PO4 1851   4.008   6.404   8.163  0.0862  0.2251  0.1895
  124POPC   GL1 1852   3.638   6.416   7.922 -0.3228  0.0341  0.2189
  124POPC   GL2 1853   3.582   6.825   7.795  0.0787 -0.0996 -0.3769
  124POPC   C1A 1854   3.307   6.283   7.854  0.0096 -0.1968 -0.0879
  124POPC   D2A 1855   2.972   6.205   7.990  0.0592 -0.1291  0.0023
  124POPC   C3A 1856   3.060   5.741   7.704  0.2265  0.0786 -0.2757
  124POPC   C4A 1857   3.151   5.532   7.294  0.2170  0.3453 -0.1323
  124POPC   C1B 1858   3.279   6.689   7.481 -0.1613 -0.0591 -0.1237
  124POPC   C2B 1859   3.261   6.532   7.016  0.0833 -0.1140  0.0109
  124POPC   C3B 1860   3.462   6.415   6.517  0.1469  0.0011 -0.2123
  124POPC   C4B 1861   3.580   6.409   6.114  0.1436  0.0459 -0.0931
  125POPC   NC3 1862   3.829   7.810   8.158 -0.3881 -0.1292  0.0895
  125POPC   PO4 1863   4.075   7.549   8.048  0.0679 -0.0403 -0.0332
  125POPC   GL1 1864   3.741   7.335   7.811 -0.0961  0.0097  0.0795
  125POPC   GL2 1865   3.918   7.442   7.558 -0.0904  0.0773  0.3159
  125POPC   C1A 1866   3.660   7.019   7.385  0.0314  0.2540 -0.1221
  125POPC   D2A 1867   3.691   6.734   7.032  0.0590 -0.0439  0.2014
  125POPC   C3A 1868   3.873   6.606   6.736 -0.0786 -0.0593  0.0081
  125POPC   C4A 1869   4.006   6.503   6.296 -0.0072 -0.3067  0.1866
  125POPC   C1B 1870   3.950   7.284   7.143  0.1069  0.0963  0.1283
  125POPC   C2B 1871   3.866   7.096   6.814 -0.1598 -0.2831 -0.2053
  125POPC   C3B 1872   3.618   7.164   6.467  0.2194  0.2523  0.1771
  125POPC   C4B 1873   3.522   6.945   6.251  0.0133  0.3452 -0.1954
  126POPC   NC3 1874   5.893   6.309   8.492  0.2300  0.3441 -0.1484
  126POPC   PO4 1875   6.036   5.861   8.500  0.3005  0.1624  0.1933
  126POPC   GL1 1876   5.986   5.964   8.079 -0.3198 -0.3175  0.2391
  126POPC   GL2 1877   5.916   5.727   7.952  0.2664 -0.0093 -0.2379
  126POPC   C1A 1878   6.085   6.195   7.666 -0.4726 -0.1560  0.1500
  126POPC   D2A 1879   6.141   6.017   7.357 -0.0274 -0.1364 -0.0386
  126POPC   C3A 1880   5.853   6.055   7.053  0.1334  0.1333 -0.5489
  126POPC   C4A 1881   5.655   5.966   6.716 -0.0094  0.3067  0.2347
  126POPC   C1B 1882   5.744   5.474   7.676  0.2487  0.2252 -0.1972
  126POPC   C2B 1883   5.643   5.027   7.657 -0.0354 -0.1538 -0.1132
  126POPC   C3B 1884   5.713   5.022   7.198  0.1140 -0.1211 -0.3055
  126POPC   C4B 1885   6.013   5.047   7.058 -0.1305  0.0517 -0.0242
  127POPC   NC3 1886   9.562   8.873   9.122  0.4247 -0.0485  0.0618
  127POPC   PO4 1887   9.129   8.859   9.038 -0.3232  0.0696 -0.1946
  127POPC   GL1 1888   9.180   8.615   8.532 -0.0892 -0.0370  0.1138
  127POPC   GL2 1889   8.876   8.737   8.423  0.0617  0.1155  0.1619
  127POPC   C1A 1890   9.199   8.591   8.060  0.0200 -0.1282 -0.1488
  127POPC   D2A 1891   9.059   8.737   7.672  0.3418  0.1652  0.4005
  127POPC   C3A 1892   9.110   8.948   7.393 -0.0117  0.0707  0.1177
  127POPC   C4A 1893   9.477   9.066   7.257  0.1333  0.2681 -0.0561
  127POPC   C1B 1894   9.007   9.074   8.139 -0.0194  0.1841 -0.2417
  127POPC   C2B 1895   8.949   9.353   7.738  0.0507  0.1825  0.0804
  127POPC   C3B 1896   8.928   9.388   7.287  0.0824 -0.0470  0.1497
  127POPC   C4B 1897   9.118   9.591   6.936  0.0311 -0.2318 -0.2389
  128POPC   NC3 1898   5.688   0.235   8.466  0.2972 -0.0851  0.3171
  128POPC   PO4 1899   5.337   0.209   8.386  0.0116 -0.1260 -0.0693
  128POPC   GL1 1900   5.327   0.308   7.964 -0.0630 -0.3195  0.0562
  128POPC   GL2 1901   5.440   0.015   7.839 -0.1731  0.0833  0.1330
  128POPC   C1A 1902   5.476   0.695   7.805 -0.0807  0.0694 -0.0036
  128POPC   D2A 1903   5.656   0.827   7.455 -0.2447 -0.2735 -0.1143
  128POPC   C3A 1904   5.435   0.599   7.123  0.0216 -0.0029 -0.0499
  128POPC   C4A 1905   5.158   0.677   6.767  0.0010  0.0849  0.0211
  128POPC   C1B 1906   5.335   0.036   7.365  0.1713  0.0493 -0.3214
  128POPC   C2B 1907   5.179   0.021   6.932  0.4931 -0.2145  0.0021
  128POPC   C3B 1908   4.747  -0.110   6.700  0.0042  0.0363 -0.0700
  128POPC   C4B 1909   4.676  -0.188   6.214  0.1364 -0.3296 -0.1437
  129POPC   NC3 1910   8.115   6.441   8.398 -0.3024 -0.0737 -0.0053
  129POPC   PO4 1911   8.520   6.273   8.477  0.0525 -0.0036  0.1476
  129POPC   GL1 1912   8.652   6.441   8.066  0.0988 -0.1927 -0.2529
  129POPC   GL2 1913   8.343   6.533   7.774  0.0522 -0.0700  0.3499
  129POPC   C1A 1914   8.863   6.636   7.856 -0.1169 -0.0480 -0.1159
  129POPC   D2A 1915   8.887   6.658   7.470  0.0911  0.1073 -0.1037
  129POPC   C3A 1916   8.508   6.616   7.239 -0.0345  0.0798 -0.0755
  129POPC   C4A 1917   8.393   6.471   6.866 -0.0957  0.0031  0.2066
  129POPC   C1B 1918   8.015   6.538   7.533  0.0188  0.1685  0.1996
  129POPC   C2B 1919   7.838   6.528   7.066  0.1232  0.1644  0.3808
  129POPC   C3B 1920   7.859   6.376   6.617  0.1848 -0.1798 -0.0961
  129POPC   C4B 1921   7.808   6.294   6.157  0.0218 -0.0668  0.1454
  130POPC   NC3 1922   6.832   6.069   8.244  0.0264  0.1837  0.2517
  130POPC   PO4 1923   6.383   6.293   8.316 -0.1728  0.1360  0.0877
  130POPC   GL1 1924   6.556   6.260   7.847  0.1766 -0.1147  0.4297
  130POPC   GL2 1925   6.558   5.985   7.704  0.2655  0.1316  0.1809
  130POPC   C1A 1926   6.443   6.420   7.371  0.0637 -0.1199  0.3842
  130POPC   D2A 1927   6.071   6.525   7.023 -0.0528  0.1146 -0.1701
  130POPC   C3A 1928   5.877   6.583   6.774  0.4468 -0.0645  0.1612
  130POPC   C4A 1929   5.597   6.421   6.482  0.1228 -0.1964  0.1010
  130POPC   C1B 1930   6.277   5.662   7.647  0.0030  0.0429  0.0882
  130POPC   C2B 1931   5.982   5.588   7.253  0.0252  0.1156 -0.3239
  130POPC   C3B 1932   5.702   5.428   6.851  0.0603 -0.0275  0.3887
  130POPC   C4B 1933   5.598   5.121   6.520  0.0314  0.1205 -0.1825
  131POPC   NC3 1934   7.733   5.367   8.205  0.3181  0.2495  0.0479
  131POPC   PO4 1935   7.232   5.319   8.181 -0.1637 -0.0700  0.0356
  131POPC   GL1 1936   7.415   5.274   7.862 -0.1392  0.1561 -0.2718
  131POPC   GL2 1937   7.462   5.560   7.839  0.1950 -0.1121 -0.2901
  131POPC   C1A 1938   7.762   5.039   7.510 -0.0560 -0.0167 -0.1665
  131POPC   D2A 1939   7.951   5.161   7.173  0.0653 -0.5692  0.0886
  131POPC   C3A 1940   8.229   5.002   6.873 -0.0750 -0.1809  0.2275
  131POPC   C4A 1941   8.759   4.885   6.825 -0.0699 -0.2314  0.0020
  131POPC   C1B 1942   7.237   5.636   7.510 -0.0351 -0.1643 -0.4238
  131POPC   C2B 1943   7.242   5.802   7.093 -0.1996 -0.1557 -0.0017
  131POPC   C3B 1944   7.089   6.026   6.789 -0.2672 -0.3067 -0.0469
  131POPC   C4B 1945   7.062   6.142   6.342 -0.3448 -0.2226 -0.3490
  132POPC   NC3 1946   1.579   3.482   9.132  0.1912  0.0464 -0.2989
  132POPC   PO4 1947   1.198   3.352   9.257  0.0222  0.0848  0.0316
  132POPC   GL1 1948   1.148   3.084   8.836  0.1650  0.1175 -0.3316
  132POPC   GL2 1949   1.311   3.035   8.529 -0.1984 -0.1300  0.1583
  132POPC   C1A 1950   0.824   2.781   8.614  0.0694  0.0096 -0.2330
  132POPC   D2A 1951   0.762   2.640   8.181 -0.1956 -0.1437  0.1609
  132POPC   C3A 1952   0.905   2.255   7.863  0.3903  0.0335 -0.1411
  132POPC   C4A 1953   1.064   1.868   7.571 -0.1254  0.1234 -0.2884
  132POPC   C1B 1954   1.153   2.991   8.162  0.0251  0.0666  0.0354
  132POPC   C2B 1955   0.964   2.975   7.828  0.2076 -0.2992  0.0895
  132POPC   C3B 1956   0.658   2.640   7.625 -0.0523 -0.0342 -0.0397
  132POPC   C4B 1957   0.404   2.478   7.359  0.0346  0.0865  0.0461
  133POPC   NC3 1958   0.696   6.893   8.942 -0.0236 -0.3052  0.0706
  133POPC   PO4 1959   0.497   7.074   8.642 -0.2998  0.2452  0.0368
  133POPC   GL1 1960   0.681   7.207   8.197 -0.4481  0.1311  0.2932
  133POPC   GL2 1961   0.770   7.453   8.236  0.1226  0.0953  0.0819
  133POPC   C1A 1962   0.509   7.252   7.795 -0.1119  0.4445  0.1579
  133POPC   D2A 1963   0.479   7.569   7.459 -0.0411  0.2048 -0.0612
  133POPC   C3A 1964   0.634   7.946   7.143  0.1276 -0.1196 -0.0998
  133POPC   C4A 1965   0.553   8.227   6.844  0.2946  0.0447  0.2852
  133POPC   C1B 1966   0.931   7.539   7.831 -0.2789  0.1154  0.0191
  133POPC   C2B 1967   1.010   7.506   7.458  0.1863 -0.3112 -0.4560
  133POPC   C3B 1968   1.417   7.460   7.320  0.3150 -0.0236  0.2944
  133POPC   C4B 1969   1.515   7.372   6.861  0.1301 -0.2083 -0.2395
  134POPC   NC3 1970   2.658   0.028   9.290  0.3272 -0.3374  0.0827
  134POPC   PO4 1971   2.444  -0.280   9.372  0.0529  0.0303 -0.0494
  134POPC   GL1 1972   2.312  -0.129   8.937 -0.1818  0.1473 -0.1760
  134POPC   GL2 1973   2.139  -0.376   8.674 -0.1739  0.0390 -0.0511
  134POPC   C1A 1974   1.969   0.092   8.823 -0.1559  0.1852  0.2273
  134POPC   D2A 1975   1.698   0.166   9.016 -0.2357 -0.0891  0.5041
  134POPC   C3A 1976   1.234   0.191   8.899  0.0433 -0.1129 -0.0049
  134POPC   C4A 1977   0.783   0.273   8.991 -0.0558 -0.0540 -0.0352
  134POPC   C1B 1978   1.789  -0.321   8.351 -0.0963  0.1112 -0.2894
  134POPC   C2B 1979   1.424  -0.028   8.000  0.1232  0.0801  0.1394
  134POPC   C3B 1980   1.575   0.173   7.653  0.2017  0.0898  0.0008
  134POPC   C4B 1981   1.394   0.229   7.196  0.1349 -0.2103 -0.3525
  135POPC   NC3 1982   4.760   1.047   8.553  0.2750 -0.0298  0.0246
  135POPC   PO4 1983   4.790   1.572   8.610 -0.0441  0.1718  0.1329
  135POPC   GL1 1984   4.865   1.698   8.155 -0.4154  0.0912  0.2630
  135POPC   GL2 1985   4.766   2.033   8.070 -0.0511  0.3080 -0.1207
  135POPC   C1A 1986   5.010   1.709   7.700 -0.1522 -0.0224  0.1933
  135POPC   D2A 1987   5.054   1.669   7.270  0.0454  0.3929  0.0257
  135POPC   C3A 1988   5.007   2.049   6.960  0.1542 -0.0418 -0.1848
  135POPC   C4A 1989   5.095   2.493   7.151  0.0035  0.2052  0.1180
  135POPC   C1B 1990   4.748   2.153   7.666 -0.1316  0.1499 -0.1821
  135POPC   C2B 1991   4.604   1.872   7.303 -0.0460 -0.1074  0.0148
  135POPC   C3B 1992   4.578   1.498   7.094 -0.0930  0.2522  0.0535
  135POPC   C4B 1993   4.249   1.207   6.854  0.2441  0.0048 -0.0084
  136POPC   NC3 1994   3.063   1.621   9.184 -0.2059  0.2565  0.0415
  136POPC   PO4 1995   3.447   1.334   9.186  0.1808  0.2556  0.0294
  136POPC   GL1 1996   3.478   0.967   8.860  0.0199 -0.1055  0.0313
  136POPC   GL2 1997   3.854   1.000   8.705 -0.0555 -0.4544 -0.1185
  136POPC   C1A 1998   3.401   0.817   8.460  0.1356  0.0472 -0.0418
  136POPC   D2A 1999   3.016   0.643   8.211  0.0600  0.0396  0.0973
  136POPC   C3A 2000   2.754   0.529   8.413  0.1018  0.1670 -0.1581
  136POPC   C4A 2001   2.285   0.435   8.327 -0.0567 -0.0005  0.0049
  136POPC   C1B 2002   3.852   0.926   8.240 -0.0497  0.0989  0.2880
  136POPC   C2B 2003   3.516   1.032   7.938 -0.0287  0.2334 -0.1025
  136POPC   C3B 2004   3.400   1.053   7.393  0.0239 -0.1448 -0.0148
  136POPC   C4B 2005   3.260   0.777   7.162  0.1621  0.0097  0.0892
  137POPC   NC3 2006   2.573   2.745   8.728 -0.0591 -0.2164 -0.0708
  137POPC   PO4 2007   2.562   2.571   8.328 -0.1621  0.1237  0.1279
  137POPC   GL1 2008   2.304   2.557   8.160  0.1340 -0.0306 -0.2615
  137POPC   GL2 2009   2.396   2.407   7.865 -0.0152  0.1410 -0.1265
  137POPC   C1A 2010   1.918   2.467   8.021  0.1182  0.2576  0.4662
  137POPC   D2A 2011   1.745   2.573   7.664  0.1131  0.0718 -0.1766
  137POPC   C3A 2012   1.567   2.248   7.412  0.1876 -0.1083 -0.1657
  137POPC   C4A 2013   1.737   1.888   7.252 -0.3486 -0.1725  0.0350
  137POPC   C1B 2014   2.117   2.201   7.616  0.3256 -0.0163 -0.0564
  137POPC   C2B 2015   2.028   2.333   7.296  0.2653  0.0772  0.1086
  137POPC   C3B 2016   1.907   2.491   6.996 -0.0722 -0.3194  0.0798
  137POPC   C4B 2017   1.803   2.719   6.645  0.2473 -0.1693 -0.0005
  138POPC   NC3 2018   7.585   9.254   8.594 -0.0834  0.1313 -0.1261
  138POPC   PO4 2019   7.175   9.118   8.525 -0.1388  0.1560 -0.1664
  138POPC   GL1 2020   6.955   9.146   8.099  0.0913 -0.0228  0.1275
  138POPC   GL2 2021   7.067   9.499   7.867 -0.1589 -0.0574 -0.2626
  138POPC   C1A 2022   6.981   8.803   7.767  0.0216 -0.5238 -0.0514
  138POPC   D2A 2023   7.187   8.859   7.367  0.2482  0.1536 -0.0507
  138POPC   C3A 2024   7.086   8.697   6.899 -0.1694 -0.1016  0.1593
  138POPC   C4A 2025   7.107   8.459   6.566 -0.1127 -0.0544 -0.1227
  138POPC   C1B 2026   6.899   9.237   7.592 -0.3144  0.4092 -0.1454
  138POPC   C2B 2027   6.924   9.167   7.089  0.0874 -0.0769  0.1767
  138POPC   C3B 2028   7.176   9.302   6.796 -0.0083  0.0829 -0.2845
  138POPC   C4B 2029   7.221   9.358   6.438 -0.1162 -0.0146 -0.0254
  139POPC   NC3 2030   0.502   3.881   9.240 -0.3010  0.2234  0.0437
  139POPC   PO4 2031   0.767   3.545   8.951  0.3491  0.2195  0.1080
  139POPC   GL1 2032   0.586   3.491   8.481  0.1289 -0.0349  0.0613
  139POPC   GL2 2033   0.538   3.135   8.347 -0.0115 -0.1800  0.0657
  139POPC   C1A 2034   0.748   3.469   8.010  0.2934 -0.2117 -0.0449
  139POPC   D2A 2035   0.812   3.830   7.684  0.1536  0.0854  0.0153
  139POPC   C3A 2036   0.945   3.823   7.235  0.0528 -0.1073 -0.2937
  139POPC   C4A 2037   1.099   3.997   6.902 -0.0599 -0.0590 -0.1030
  139POPC   C1B 2038   0.434   3.021   7.973  0.0518  0.0228  0.0660
  139POPC   C2B 2039   0.472   3.058   7.458 -0.1639  0.1432  0.3507
  139POPC   C3B 2040   0.532   2.885   7.040 -0.1269 -0.1121 -0.0948
  139POPC   C4B 2041   0.422   2.887   6.626 -0.1589 -0.2239  0.3431
  140POPC   NC3 2042   6.087   1.148   9.005 -0.0465 -0.1102  0.1109
  140POPC   PO4 2043   6.147   1.281   8.663  0.1469  0.2522 -0.3452
  140POPC   GL1 2044   6.266   1.421   8.242 -0.0723 -0.4789 -0.1412
  140POPC   GL2 2045   6.106   1.538   8.037 -0.2063 -0.2599  0.4015
  140POPC   C1A 2046   6.516   1.550   7.853 -0.1598  0.2520  0.2246
  140POPC   D2A 2047   6.780   1.349   7.536 -0.2133  0.0403  0.3356
  140POPC   C3A 2048   6.729   1.395   7.139 -0.2586 -0.2359 -0.2226
  140POPC   C4A 2049   6.517   1.374   6.766  0.3241 -0.0925 -0.0448
  140POPC   C1B 2050   6.020   1.656   7.655 -0.6431 -0.1135 -0.1095
  140POPC   C2B 2051   5.806   1.796   7.346 -0.0683 -0.1179  0.2186
  140POPC   C3B 2052   6.010   1.970   6.961  0.1957 -0.1694  0.0794
  140POPC   C4B 2053   6.224   2.312   6.634 -0.0658  0.1196 -0.0997
  141POPC   NC3 2054   5.183   1.193   8.739  0.0482  0.0374  0.1211
  141POPC   PO4 2055   5.625   1.098   8.681  0.2717 -0.2301 -0.2143
  141POPC   GL1 2056   5.475   1.198   8.176 -0.0961 -0.1036  0.1723
  141POPC   GL2 2057   5.104   1.196   8.179  0.0580  0.0404  0.0629
  141POPC   C1A 2058   5.756   1.242   7.784 -0.2373  0.2987 -0.0885
  141POPC   D2A 2059   5.768   1.338   7.296  0.3445 -0.0924  0.0032
  141POPC   C3A 2060   5.426   1.499   7.069  0.1149  0.0806  0.0272
  141POPC   C4A 2061   5.121   1.647   6.656 -0.0418  0.2987 -0.0304
  141POPC   C1B 2062   5.001   0.878   7.835  0.0663 -0.2305  0.1870
  141POPC   C2B 2063   4.618   0.779   7.586  0.0536  0.1066  0.2887
  141POPC   C3B 2064   4.315   0.833   7.230 -0.3937 -0.0027  0.0239
  141POPC   C4B 2065   4.198   0.635   6.924 -0.2443  0.1041 -0.2069
  142POPC   NC3 2066   8.393   0.051   8.166  0.1956  0.0327  0.1419
  142POPC   PO4 2067   8.173   0.309   7.874  0.1546 -0.0328 -0.2340
  142POPC   GL1 2068   8.029  -0.089   7.582 -0.2616  0.1344 -0.2450
  142POPC   GL2 2069   7.785  -0.194   7.716  0.0782  0.2753 -0.2330
  142POPC   C1A 2070   7.838  -0.245   7.177 -0.0254 -0.0422 -0.1351
  142POPC   D2A 2071   7.632  -0.390   6.801  0.0079  0.0497  0.1392
  142POPC   C3A 2072   7.715  -0.790   6.590  0.1890 -0.3422  0.0742
  142POPC   C4A 2073   7.662  -1.101   6.284  0.2485 -0.1767 -0.1383
  142POPC   C1B 2074   7.894  -0.583   7.548 -0.4355 -0.2771  0.0558
  142POPC   C2B 2075   7.730  -1.029   7.528  0.1367  0.0663  0.0359
  142POPC   C3B 2076   7.602  -1.272   7.299  0.1012  0.0393 -0.1343
  142POPC   C4B 2077   7.579  -1.382   6.832  0.1039  0.2059 -0.0323
  143POPC   NC3 2078   7.814   4.034   8.324 -0.1334 -0.0178  0.1642
  143POPC   PO4 2079   7.602   4.473   8.361  0.1869 -0.1372  0.2119
  143POPC   GL1 2080   7.454   4.422   8.007 -0.1534  0.1808  0.2755
  143POPC   GL2 2081   7.245   4.092   8.080  0.2782 -0.1365 -0.3727
  143POPC   C1A 2082   7.519   4.550   7.578 -0.2185  0.1226  0.1560
  143POPC   D2A 2083   7.464   4.631   7.170 -0.1394 -0.0661  0.4203
  143POPC   C3A 2084   7.637   4.849   6.818  0.2222 -0.2484  0.1182
  143POPC   C4A 2085   7.883   4.849   6.552  0.0844  0.1027 -0.2378
  143POPC   C1B 2086   7.268   4.113   7.624 -0.3930 -0.0279 -0.0204
  143POPC   C2B 2087   7.368   4.118   7.263 -0.1147  0.1486 -0.2607
  143POPC   C3B 2088   7.432   4.248   6.780 -0.0953 -0.3416 -0.1810
  143POPC   C4B 2089   7.100   4.477   6.465 -0.2477 -0.0750 -0.1646
  144POPC   NC3 2090   6.746   7.971   4.765  0.1152 -0.1468  0.0959
  144POPC   PO4 2091   6.755   7.559   4.973  0.0867 -0.1672  0.2390
  144POPC   GL1 2092   6.667   7.359   5.308  0.0465 -0.0942  0.2049
  144POPC   GL2 2093   6.850   7.086   5.307 -0.2833 -0.0917  0.0386
  144POPC   C1A 2094   6.522   7.426   5.688  0.0035 -0.0403 -0.0847
  144POPC   D2A 2095   6.287   7.443   6.136  0.2947  0.0346  0.2229
  144POPC   C3A 2096   6.365   7.753   6.485  0.2445 -0.0155  0.0824
  144POPC   C4A 2097   6.402   7.777   6.874 -0.2099  0.1393  0.0791
  144POPC   C1B 2098   7.039   7.189   5.678  0.6136 -0.2326  0.0724
  144POPC   C2B 2099   6.912   7.294   6.164 -0.0669  0.1175  0.1350
  144POPC   C3B 2100   6.853   7.530   6.497 -0.2931  0.0309  0.0724
  144POPC   C4B 2101   7.024   7.775   6.879 -0.0517 -0.1368 -0.2261
  145POPC   NC3 2102   2.038   3.730   4.835 -0.2130  0.0720 -0.0846
  145POPC   PO4 2103   1.939   3.361   5.062 -0.1904  0.4777  0.0082
  145POPC   GL1 2104   2.052   3.290   5.487  0.0106  0.1954 -0.1099
  145POPC   GL2 2105   2.015   3.009   5.446  0.2338 -0.2476 -0.1695
  145POPC   C1A 2106   1.959   3.379   5.974 -0.0189  0.7345  0.1041
  145POPC   D2A 2107   1.619   3.170   6.217  0.0984 -0.0355 -0.2265
  145POPC   C3A 2108   1.169   3.352   6.321  0.4976 -0.0199 -0.1453
  145POPC   C4A 2109   0.889   3.586   6.593  0.0004 -0.0084  0.2780
  145POPC   C1B 2110   2.203   2.878   5.860  0.1727  0.2541  0.0637
  145POPC   C2B 2111   2.073   2.885   6.294  0.0770 -0.0109 -0.0005
  145POPC   C3B 2112   2.334   3.015   6.602  0.0273 -0.3589 -0.2139
  145POPC   C4B 2113   2.294   2.905   7.083  0.0173  0.1361 -0.1237
  146POPC   NC3 2114   8.361   1.714   3.613 -0.2201  0.0137 -0.0255
  146POPC   PO4 2115   8.537   2.090   3.777 -0.1750 -0.2398  0.1301
  146POPC   GL1 2116   8.656   1.795   4.117  0.1861  0.0877  0.1131
  146POPC   GL2 2117   8.658   1.458   4.067  0.1579  0.0648  0.1915
  146POPC   C1A 2118   8.590   1.954   4.575 -0.0141  0.3257  0.1712
  146POPC   D2A 2119   8.679   2.336   4.886  0.0464  0.1415  0.2116
  146POPC   C3A 2120   8.342   2.471   5.060 -0.1975  0.0123 -0.1450
  146POPC   C4A 2121   7.983   2.642   4.892 -0.1522  0.2879  0.0805
  146POPC   C1B 2122   8.747   1.259   4.533  0.1156  0.0942 -0.0200
  146POPC   C2B 2123   8.899   1.349   4.925  0.1222 -0.1076  0.1068
  146POPC   C3B 2124   9.364   1.529   5.113  0.2715 -0.0108  0.0483
  146POPC   C4B 2125   9.868   1.306   5.269  0.1497 -0.0680 -0.2498
  147POPC   NC3 2126   2.632   1.713   4.856  0.1773 -0.3488 -0.3952
  147POPC   PO4 2127   2.209   1.792   4.863  0.0214  0.0798  0.2395
  147POPC   GL1 2128   1.976   1.810   5.232  0.2867  0.1408  0.2756
  147POPC   GL2 2129   1.612   1.877   5.202 -0.1804 -0.1014  0.2859
  147POPC   C1A 2130   1.870   1.929   5.644 -0.2927 -0.1979 -0.0389
  147POPC   D2A 2131   1.639   1.629   5.813  0.2686 -0.2635 -0.2389
  147POPC   C3A 2132   1.418   1.798   6.182  0.1174 -0.0854 -0.0726
  147POPC   C4A 2133   1.477   1.693   6.523 -0.0190  0.0719 -0.1719
  147POPC   C1B 2134   1.355   2.198   5.318  0.0022 -0.0720  0.0521
  147POPC   C2B 2135   0.977   2.330   5.637  0.0996  0.2818  0.2511
  147POPC   C3B 2136   0.599   2.324   5.882 -0.1502  0.0365  0.3753
  147POPC   C4B 2137   0.258   2.248   5.839 -0.2172  0.0176 -0.0356
  148POPC   NC3 2138   1.179   4.846   4.714  0.1525 -0.1462  0.4199
  148POPC   PO4 2139   1.578   4.926   4.781 -0.0909  0.4658  0.3469
  148POPC   GL1 2140   1.584   4.895   5.190  0.1552 -0.0703  0.1080
  148POPC   GL2 2141   1.321   4.759   5.197  0.3250  0.0142  0.0383
  148POPC   C1A 2142   1.502   5.054   5.561 -0.0677 -0.1425  0.1657
  148POPC   D2A 2143   1.562   4.990   6.011  0.0444 -0.0649 -0.1843
  148POPC   C3A 2144   1.443   4.644   6.280  0.1841 -0.0089 -0.2414
  148POPC   C4A 2145   1.272   4.443   6.605 -0.3908  0.0080  0.0607
  148POPC   C1B 2146   1.318   4.628   5.594 -0.0745  0.0821  0.1857
  148POPC   C2B 2147   0.994   4.560   5.887  0.0735 -0.0470 -0.1167
  148POPC   C3B 2148   0.895   4.425   6.251  0.2932  0.1384 -0.4733
  148POPC   C4B 2149   0.780   4.043   6.459  0.1855 -0.0892 -0.0743
  149POPC   NC3 2150   0.201   8.020   4.756  0.2006  0.2155 -0.0272
  149POPC   PO4 2151   0.618   7.958   4.681 -0.2304 -0.1596  0.3992
  149POPC   GL1 2152   0.643   7.992   5.107  0.2134 -0.1415  0.0048
  149POPC   GL2 2153   0.879   8.298   5.163 -0.0210 -0.0735 -0.1994
  149POPC   C1A 2154   0.626   7.909   5.602 -0.1044  0.2870  0.1863
  149POPC   D2A 2155   0.651   7.871   5.994 -0.0455 -0.1080  0.0249
  149POPC   C3A 2156   0.475   7.763   6.334  0.2233 -0.0932  0.1265
  149POPC   C4A 2157   0.342   7.726   6.777  0.0038 -0.2686  0.0951
  149POPC   C1B 2158   0.981   8.260   5.649 -0.1735 -0.2681  0.1830
  149POPC   C2B 2159   1.060   8.104   6.095  0.1073 -0.2088  0.3667
  149POPC   C3B 2160   1.378   8.112   6.298 -0.0635  0.2002 -0.2202
  149POPC   C4B 2161   1.586   8.491   6.357  0.0610  0.3406  0.1567
  150POPC   NC3 2162   2.990   8.264   4.304  0.2947 -0.2526  0.1940
  150POPC   PO4 2163   3.431   8.151   4.294 -0.2457 -0.0336 -0.1968
  150POPC   GL1 2164   3.443   8.280   4.778  0.2408 -0.0887 -0.1366
  150POPC   GL2 2165   3.631   8.168   4.953 -0.1175 -0.2393  0.0548
  150POPC   C1A 2166   3.290   8.413   5.244  0.4554 -0.0412 -0.0969
  150POPC   D2A 2167   3.135   8.547   5.639 -0.0647 -0.0036 -0.0227
  150POPC   C3A 2168   2.769   8.738   5.611 -0.1709 -0.2877 -0.0450
  150POPC   C4A 2169   2.334   8.684   5.812 -0.0135  0.3234  0.2192
  150POPC   C1B 2170   3.698   8.074   5.364 -0.2709  0.2140  0.1061
  150POPC   C2B 2171   3.842   7.903   5.716 -0.1750 -0.1444  0.0151
  150POPC   C3B 2172   4.087   7.983   6.014  0.0938 -0.1258  0.0570
  150POPC   C4B 2173   4.438   8.297   6.311 -0.0792  0.2533  0.1892
  151POPC   NC3 2174   2.363   0.743   4.853  0.0357 -0.0538  0.0114
  151POPC   PO4 2175   2.517   0.428   4.932  0.1355 -0.1801 -0.0333
  151POPC   GL1 2176   2.634   0.367   5.410 -0.0443 -0.3772  0.1303
  151POPC   GL2 2177   2.833   0.318   5.669  0.1654  0.5352 -0.4898
  151POPC   C1A 2178   2.331   0.156   5.807 -0.1894  0.1246  0.0058
  151POPC   D2A 2179   1.976   0.318   5.993  0.0944  0.0285 -0.3368
  151POPC   C3A 2180   2.232   0.569   6.136 -0.1843  0.0080 -0.0107
  151POPC   C4A 2181   2.167   0.957   6.223 -0.1106 -0.4846  0.0738
  151POPC   C1B 2182   2.767  -0.071   5.680 -0.0715  0.1024 -0.0039
  151POPC   C2B 2183   2.608  -0.418   5.830 -0.0185  0.2042  0.1768
  151POPC   C3B 2184   2.706  -0.797   6.074  0.2977 -0.1468  0.1198
  151POPC   C4B 2185   2.783  -1.283   6.088 -0.0191  0.0608 -0.3229
  152POPC   NC3 2186   5.500   7.900   4.426  0.1685  0.2294  0.1307
  152POPC   PO4 2187   5.706   7.531   4.572 -0.0314  0.0011  0.1907
  152POPC   GL1 2188   5.603   7.490   4.956  0.1199 -0.1204  0.0882
  152POPC   GL2 2189   5.787   7.685   5.090  0.3066  0.1064 -0.1258
  152POPC   C1A 2190   5.591   7.217   5.194 -0.4711 -0.2449 -0.2172
  152POPC   D2A 2191   5.324   7.081   5.502  0.0148 -0.0136 -0.0131
  152POPC   C3A 2192   5.469   7.376   5.870 -0.4192 -0.1902 -0.0878
  152POPC   C4A 2193   5.775   7.469   6.099 -0.0684 -0.0942 -0.0328
  152POPC   C1B 2194   5.708   8.153   5.250 -0.1081 -0.0988 -0.1204
  152POPC   C2B 2195   5.691   8.158   5.758 -0.0485  0.0571  0.1504
  152POPC   C3B 2196   5.659   8.254   6.202  0.2767 -0.1826 -0.0430
  152POPC   C4B 2197   5.731   8.570   6.518  0.0513  0.0068 -0.1094
  153POPC   NC3 2198   0.530   8.903   4.182 -0.2654 -0.1185  0.0918
  153POPC   PO4 2199   0.417   8.495   4.519 -0.1022  0.2324 -0.1267
  153POPC   GL1 2200   0.468   8.421   4.918  0.1363 -0.0724 -0.3148
  153POPC   GL2 2201   0.709   8.762   5.056 -0.1415  0.1978  0.1792
  153POPC   C1A 2202   0.155   8.681   5.263 -0.2562  0.0782 -0.2025
  153POPC   D2A 2203  -0.353   8.737   5.228 -0.0172 -0.1634  0.1211
  153POPC   C3A 2204  -0.656   8.895   5.611  0.0565 -0.2159  0.0610
  153POPC   C4A 2205  -0.933   8.753   5.841 -0.0133 -0.0241 -0.3304
  153POPC   C1B 2206   0.597   8.821   5.550 -0.2100 -0.2362  0.1172
  153POPC   C2B 2207   0.271   8.755   5.801  0.0951 -0.1095 -0.0984
  153POPC   C3B 2208   0.215   8.708   6.126  0.0864 -0.2283 -0.2102
  153POPC   C4B 2209  -0.234   8.662   6.415  0.0298  0.0790  0.2530
  154POPC   NC3 2210   7.729   5.049   4.213  0.0319  0.0324 -0.4314
  154POPC   PO4 2211   7.925   5.408   4.384  0.0486 -0.2567 -0.0536
  154POPC   GL1 2212   8.089   5.267   4.747  0.2962 -0.1549  0.3684
  154POPC   GL2 2213   8.200   4.940   4.900  0.1486 -0.0820 -0.1926
  154POPC   C1A 2214   8.181   5.380   5.244 -0.0438 -0.1184  0.4765
  154POPC   D2A 2215   8.211   5.478   5.670 -0.2536 -0.0249  0.1376
  154POPC   C3A 2216   8.295   5.158   5.824  0.0736  0.1170 -0.2637
  154POPC   C4A 2217   8.135   4.909   6.106  0.4801  0.1161  0.4959
  154POPC   C1B 2218   7.871   4.642   5.127 -0.0172 -0.2552 -0.2602
  154POPC   C2B 2219   7.812   4.360   5.589  0.3138  0.1478 -0.1024
  154POPC   C3B 2220   7.868   4.193   6.010 -0.3159  0.2921 -0.3929
  154POPC   C4B 2221   8.080   3.886   6.264  0.1272  0.2547  0.0284
  155POPC   NC3 2222   5.634   5.385   4.591 -0.0309 -0.0192  0.3878
  155POPC   PO4 2223   6.093   5.295   4.669 -0.0874  0.2137  0.3060
  155POPC   GL1 2224   6.120   5.434   5.040  0.1000  0.2953  0.2722
  155POPC   GL2 2225   6.010   5.669   5.176  0.1378 -0.0456 -0.2404
  155POPC   C1A 2226   6.454   5.531   5.269 -0.2691 -0.3174  0.6098
  155POPC   D2A 2227   6.937   5.532   5.133  0.0025  0.1237  0.0105
  155POPC   C3A 2228   7.118   5.756   5.487  0.2530 -0.2823  0.0088
  155POPC   C4A 2229   6.920   6.063   5.743 -0.0368 -0.1112 -0.0467
  155POPC   C1B 2230   6.022   5.717   5.592  0.2137 -0.3253 -0.1085
  155POPC   C2B 2231   5.915   6.004   5.914 -0.1527  0.1031 -0.1837
  155POPC   C3B 2232   5.746   5.967   6.241 -0.1252 -0.2513 -0.0913
  155POPC   C4B 2233   6.051   6.146   6.552 -0.0524 -0.1398 -0.3178
  156POPC   NC3 2234   9.184   6.532   4.477 -0.3594 -0.0718  0.1265
  156POPC   PO4 2235   9.270   6.136   4.529 -0.0791  0.0028 -0.0263
  156POPC   GL1 2236   9.313   5.903   4.946  0.0059 -0.1100  0.0923
  156POPC   GL2 2237   9.491   6.122   5.121  0.0224  0.3338 -0.2032
  156POPC   C1A 2238   9.114   5.873   5.317  0.3103 -0.0196 -0.1613
  156POPC   D2A 2239   9.083   5.824   5.767 -0.0423 -0.2405 -0.1226
  156POPC   C3A 2240   9.158   5.935   6.149  0.0012 -0.0215 -0.0700
  156POPC   C4A 2241   9.053   5.689   6.459  0.0031 -0.3272 -0.4121
  156POPC   C1B 2242   9.201   6.398   5.454  0.3116 -0.2789  0.2022
  156POPC   C2B 2243   9.138   6.735   5.792  0.1150 -0.1043  0.2372
  156POPC   C3B 2244   9.166   6.601   6.177 -0.3875  0.4915  0.1463
  156POPC   C4B 2245   9.356   6.377   6.390  0.1132  0.2751  0.1246
  157POPC   NC3 2246   9.590   3.570   4.730 -0.1451  0.0073 -0.0378
  157POPC   PO4 2247   9.765   3.985   4.648  0.2912 -0.2368 -0.0928
  157POPC   GL1 2248   9.474   3.959   4.953  0.1049  0.1523 -0.1691
  157POPC   GL2 2249   9.252   4.260   4.933  0.2103  0.2006  0.1613
  157POPC   C1A 2250   9.557   4.002   5.364  0.0340 -0.3272  0.1511
  157POPC   D2A 2251   9.567   3.797   5.767 -0.2187  0.0378  0.0004
  157POPC   C3A 2252   9.389   3.863   6.209 -0.0646  0.1122 -0.2750
  157POPC   C4A 2253   9.004   3.753   6.374  0.1139  0.2187 -0.1246
  157POPC   C1B 2254   9.016   4.156   5.181  0.2561 -0.3476 -0.0873
  157POPC   C2B 2255   8.951   4.039   5.400  0.1809  0.2732  0.0921
  157POPC   C3B 2256   8.897   4.094   5.849 -0.0650 -0.1941 -0.2463
  157POPC   C4B 2257   8.988   4.267   6.228  0.1823 -0.0967  0.2792
  158POPC   NC3 2258   5.679   8.976   4.147 -0.1243 -0.1135 -0.0060
  158POPC   PO4 2259   5.928   9.263   4.283  0.1078 -0.0996 -0.0042
  158POPC   GL1 2260   5.899   9.063   4.617 -0.1414 -0.0816  0.6227
  158POPC   GL2 2261   5.875   8.720   4.532 -0.0206 -0.1575 -0.1564
  158POPC   C1A 2262   6.003   8.953   4.984  0.1794 -0.0571 -0.2345
  158POPC   D2A 2263   5.972   8.764   5.374  0.1347 -0.1209 -0.0608
  158POPC   C3A 2264   6.037   8.933   5.704  0.0709 -0.0130  0.0091
  158POPC   C4A 2265   5.674   9.139   5.875  0.1120 -0.1673 -0.0671
  158POPC   C1B 2266   5.773   8.530   4.919 -0.1993  0.2153  0.2173
  158POPC   C2B 2267   5.480   8.663   5.262  0.1590  0.2077  0.0520
  158POPC   C3B 2268   5.466   8.766   5.618  0.1858 -0.2153 -0.0256
  158POPC   C4B 2269   5.354   8.609   6.031  0.3208  0.1031 -0.2062
  159POPC   NC3 2270   8.391   6.539   4.280 -0.0011  0.0875  0.1127
  159POPC   PO4 2271   8.373   6.129   4.619  0.0274  0.0362 -0.2246
  159POPC   GL1 2272   8.549   6.114   4.961 -0.4248 -0.4435 -0.1800
  159POPC   GL2 2273   8.383   5.810   4.973  0.0597 -0.1123 -0.3426
  159POPC   C1A 2274   8.622   6.216   5.461 -0.4544 -0.2372 -0.5169
  159POPC   D2A 2275   8.775   6.247   5.894 -0.3382  0.3137  0.1099
  159POPC   C3A 2276   8.881   6.251   6.386 -0.2422  0.1305  0.0858
  159POPC   C4A 2277   9.112   6.059   6.773 -0.2806 -0.1522 -0.1070
  159POPC   C1B 2278   8.220   5.924   5.408 -0.2496 -0.0456 -0.0511
  159POPC   C2B 2279   8.399   5.877   5.833  0.0261 -0.0140  0.0452
  159POPC   C3B 2280   8.586   5.876   6.243  0.1711  0.0715  0.0708
  159POPC   C4B 2281   8.572   5.920   6.700  0.0411 -0.0085  0.1024
  160POPC   NC3 2282   3.707   7.160   4.585  0.1266 -0.1304 -0.1492
  160POPC   PO4 2283   3.645   6.731   4.321 -0.1097  0.0097  0.2517
  160POPC   GL1 2284   3.707   6.540   4.665  0.1092 -0.2381  0.0398
  160POPC   GL2 2285   4.073   6.459   4.711  0.2073 -0.0128 -0.0880
  160POPC   C1A 2286   3.817   6.498   5.163 -0.0802 -0.2666 -0.1758
  160POPC   D2A 2287   3.932   6.479   5.618 -0.1168 -0.0718 -0.3187
  160POPC   C3A 2288   4.020   6.083   5.923 -0.0993  0.0396  0.0504
  160POPC   C4A 2289   4.033   5.678   5.885  0.2038  0.1183 -0.1616
  160POPC   C1B 2290   3.994   6.091   4.933  0.1490 -0.2447 -0.1424
  160POPC   C2B 2291   3.731   5.995   5.285  0.2638 -0.1821 -0.0693
  160POPC   C3B 2292   3.585   5.943   5.690  0.1710  0.2017 -0.0470
  160POPC   C4B 2293   3.653   5.904   6.176  0.0141 -0.2362 -0.1583
  161POPC   NC3 2294   6.186   7.494   4.743  0.1879 -0.0018 -0.0586
  161POPC   PO4 2295   6.274   7.765   5.018  0.0126 -0.1852 -0.0414
  161POPC   GL1 2296   6.219   7.767   5.499  0.2810  0.2055  0.1368
  161POPC   GL2 2297   5.865   7.642   5.584 -0.0210  0.0548 -0.1115
  161POPC   C1A 2298   6.035   7.874   6.001 -0.2618  0.1067 -0.2936
  161POPC   D2A 2299   5.813   7.798   6.470 -0.2180  0.1692  0.4255
  161POPC   C3A 2300   5.532   8.018   6.674  0.1795 -0.0109  0.2722
  161POPC   C4A 2301   5.790   8.269   6.990 -0.1240  0.0345 -0.5677
  161POPC   C1B 2302   5.989   7.287   5.658  0.1206 -0.0076 -0.2065
  161POPC   C2B 2303   6.096   6.968   5.939  0.1224  0.2207  0.1376
  161POPC   C3B 2304   6.066   7.091   6.434  0.3417 -0.1091  0.1969
  161POPC   C4B 2305   6.096   7.290   6.769 -0.0446 -0.1697  0.1673
  162POPC   NC3 2306   8.912   7.486   4.619  0.0087  0.1981  0.1378
  162POPC   PO4 2307   9.353   7.423   4.626  0.1399  0.1815  0.0652
  162POPC   GL1 2308   9.179   7.439   5.099  0.2577  0.3070 -0.4709
  162POPC   GL2 2309   8.832   7.538   5.172 -0.2805  0.1365  0.2123
  162POPC   C1A 2310   9.149   7.569   5.591  0.0877 -0.2402  0.1172
  162POPC   D2A 2311   9.194   7.751   6.008 -0.1689  0.0336  0.0326
  162POPC   C3A 2312   9.332   7.603   6.409 -0.1946  0.2566 -0.3262
  162POPC   C4A 2313   9.282   7.538   6.891  0.0372  0.0013  0.0694
  162POPC   C1B 2314   8.649   7.272   5.552  0.2692  0.2431 -0.0128
  162POPC   C2B 2315   8.317   7.242   5.934  0.0252  0.0161 -0.0224
  162POPC   C3B 2316   8.010   7.478   6.285  0.2034  0.1262  0.1140
  162POPC   C4B 2317   7.803   7.855   6.447 -0.1811  0.2422 -0.0186
  163POPC   NC3 2318   4.819   4.359   4.840 -0.0716 -0.2659  0.2996
  163POPC   PO4 2319   5.037   3.938   4.855 -0.2548  0.1502 -0.2662
  163POPC   GL1 2320   4.957   3.762   5.225 -0.2335  0.1563  0.1181
  163POPC   GL2 2321   5.279   3.703   5.232 -0.1025 -0.0250  0.0607
  163POPC   C1A 2322   4.937   4.007   5.625  0.0006 -0.1039 -0.0800
  163POPC   D2A 2323   5.062   4.197   6.031 -0.3064 -0.1141 -0.0019
  163POPC   C3A 2324   5.460   4.253   6.280  0.1189  0.0656  0.1419
  163POPC   C4A 2325   5.821   4.495   6.254  0.0251  0.0324 -0.1849
  163POPC   C1B 2326   5.440   4.011   5.569 -0.2642 -0.1692  0.0389
  163POPC   C2B 2327   5.618   3.937   5.905  0.4320  0.0050  0.0696
  163POPC   C3B 2328   5.656   3.795   6.336  0.0947  0.0332  0.1624
  163POPC   C4B 2329   5.621   3.661   6.769  0.0268 -0.3398 -0.1464
  164POPC   NC3 2330   0.431   5.851   4.504 -0.0054  0.0123 -0.0284
  164POPC   PO4 2331   0.264   6.206   4.581 -0.1950 -0.0246  0.2768
  164POPC   GL1 2332   0.297   6.247   4.993 -0.1498 -0.1015 -0.1988
  164POPC   GL2 2333   0.550   6.075   5.146  0.1540  0.0041 -0.4058
  164POPC   C1A 2334   0.031   6.458   5.379 -0.0376  0.0407 -0.2603
  164POPC   D2A 2335  -0.213   6.748   5.728 -0.0073  0.2536  0.4784
  164POPC   C3A 2336  -0.207   6.660   6.104 -0.0604  0.1830  0.1753
  164POPC   C4A 2337  -0.113   6.666   6.493  0.0987  0.1849 -0.0029
  164POPC   C1B 2338   0.204   5.832   5.412 -0.2794 -0.0659  0.2220
  164POPC   C2B 2339   0.227   5.634   5.846  0.2948 -0.0102  0.4788
  164POPC   C3B 2340   0.001   5.699   6.184 -0.1252 -0.0185 -0.0510
  164POPC   C4B 2341  -0.329   5.789   6.542 -0.2330  0.0288 -0.0115
  165POPC   NC3 2342   3.927   9.786   4.802  0.1155 -0.0116  0.0462
  165POPC   PO4 2343   3.563  10.016   4.744 -0.2368 -0.1272  0.0633
  165POPC   GL1 2344   3.591   9.872   5.180  0.2769  0.2124 -0.0481
  165POPC   GL2 2345   3.776   9.641   5.281 -0.0451 -0.3273 -0.0644
  165POPC   C1A 2346   3.556  10.137   5.572 -0.4020  0.0988 -0.0746
  165POPC   D2A 2347   3.709  10.496   5.759 -0.2350 -0.2240  0.0898
  165POPC   C3A 2348   3.767  10.452   6.203 -0.1432 -0.0006  0.0915
  165POPC   C4A 2349   4.055  10.168   6.445 -0.1932 -0.1580  0.0903
  165POPC   C1B 2350   3.869   9.574   5.713  0.1378  0.1624  0.0082
  165POPC   C2B 2351   4.230   9.461   5.902  0.0047 -0.0112 -0.1902
  165POPC   C3B 2352   4.335   9.133   6.186  0.4505  0.2625  0.4593
  165POPC   C4B 2353   4.472   8.830   6.453  0.1243  0.1487  0.0174
  166POPC   NC3 2354   0.774   5.043   4.994  0.2121 -0.0667 -0.1455
  166POPC   PO4 2355   0.864   4.588   4.957  0.2891 -0.0468  0.1933
  166POPC   GL1 2356   0.757   4.700   5.371  0.1391  0.1034 -0.2027
  166POPC   GL2 2357   0.904   4.406   5.421 -0.1115 -0.3514 -0.1279
  166POPC   C1A 2358   0.485   4.917   5.641 -0.1319  0.1371 -0.2066
  166POPC   D2A 2359   0.184   4.913   5.841 -0.0028 -0.1239 -0.5201
  166POPC   C3A 2360   0.074   5.129   6.202  0.0505 -0.1261 -0.0474
  166POPC   C4A 2361  -0.227   5.250   6.608 -0.0774 -0.1014  0.1807
  166POPC   C1B 2362   0.536   4.407   5.728  0.4966 -0.3538  0.0735
  166POPC   C2B 2363   0.419   4.575   6.167 -0.2275 -0.2269  0.3675
  166POPC   C3B 2364  -0.005   4.625   6.247  0.4516  0.1958 -0.0502
  166POPC   C4B 2365  -0.439   4.901   6.192 -0.0360  0.3162  0.1463
  167POPC   NC3 2366   7.021   4.688   4.062  0.0093  0.3565 -0.0938
  167POPC   PO4 2367   7.143   5.034   4.128 -0.1830  0.3013  0.0285
  167POPC   GL1 2368   7.311   5.033   4.573  0.3147  0.2306  0.0261
  167POPC   GL2 2369   7.454   5.190   4.756  0.0003 -0.1221 -0.0734
  167POPC   C1A 2370   7.096   5.069   5.006 -0.2270 -0.1437  0.1870
  167POPC   D2A 2371   6.783   5.056   5.320  0.1063  0.1125  0.1805
  167POPC   C3A 2372   6.910   4.821   5.713  0.2127  0.0147 -0.0718
  167POPC   C4A 2373   7.215   4.810   6.019 -0.1660  0.0095 -0.1082
  167POPC   C1B 2374   7.748   5.132   5.085 -0.0116 -0.0659 -0.0268
  167POPC   C2B 2375   7.725   5.273   5.514  0.1887 -0.1495  0.2843
  167POPC   C3B 2376   7.660   5.332   5.949 -0.1379 -0.0754  0.1304
  167POPC   C4B 2377   7.521   5.086   6.352 -0.2197  0.0063 -0.1715
  168POPC   NC3 2378   0.594   2.421   3.691 -0.0640 -0.0310 -0.0191
  168POPC   PO4 2379   0.472   2.255   4.061 -0.1668 -0.0671  0.4150
  168POPC   GL1 2380   0.452   2.282   4.552 -0.0078 -0.0853  0.0623
  168POPC   GL2 2381   0.613   1.914   4.582 -0.0511  0.1371  0.0094
  168POPC   C1A 2382   0.432   2.499   4.818 -0.0527  0.1125 -0.1219
  168POPC   D2A 2383   0.228   2.937   4.941  0.0346  0.0454 -0.2501
  168POPC   C3A 2384   0.402   2.964   5.410  0.1536  0.0958  0.0438
  168POPC   C4A 2385   0.610   2.809   5.744  0.3106  0.1839  0.1005
  168POPC   C1B 2386   0.554   1.644   4.850 -0.1624 -0.0817 -0.1732
  168POPC   C2B 2387   0.432   1.246   5.110  0.4125  0.0710  0.0230
  168POPC   C3B 2388   0.434   1.228   5.560 -0.1927 -0.1013 -0.1126
  168POPC   C4B 2389   0.751   1.065   5.780  0.0343  0.0394 -0.0187
  169POPC   NC3 2390   9.825   7.294   4.370 -0.1234  0.0135  0.1250
  169POPC   PO4 2391  10.057   7.112   4.653  0.0708 -0.0230 -0.0181
  169POPC   GL1 2392  10.188   7.255   4.978  0.3307 -0.1060 -0.0105
  169POPC   GL2 2393  10.118   7.543   4.946  0.2516  0.1135  0.1512
  169POPC   C1A 2394  10.068   7.113   5.339 -0.1065 -0.1754 -0.1685
  169POPC   D2A 2395  10.032   7.347   5.777 -0.1338 -0.3817  0.1094
  169POPC   C3A 2396   9.842   7.088   6.075  0.0127 -0.2185 -0.1797
  169POPC   C4A 2397   9.404   7.114   6.090 -0.2396  0.0991  0.5041
  169POPC   C1B 2398  10.126   7.671   5.342  0.2561 -0.0389  0.1262
  169POPC   C2B 2399  10.049   7.870   5.756  0.0632  0.0683  0.0118
  169POPC   C3B 2400  10.127   8.251   5.935 -0.0007 -0.0182  0.0574
  169POPC   C4B 2401  10.068   8.342   6.413 -0.0024 -0.2193  0.2013
  170POPC   NC3 2402   7.600   8.532   4.080  0.2762 -0.3695 -0.2018
  170POPC   PO4 2403   7.923   8.837   4.279 -0.1403  0.1640  0.1535
  170POPC   GL1 2404   7.859   8.744   4.793 -0.1806 -0.0634 -0.1674
  170POPC   GL2 2405   7.600   8.862   4.956 -0.1492  0.1180  0.1555
  170POPC   C1A 2406   8.006   8.665   5.154 -0.1207  0.3462  0.2887
  170POPC   D2A 2407   7.971   8.800   5.584 -0.1074 -0.1657  0.0816
  170POPC   C3A 2408   8.115   8.721   6.029  0.3314 -0.2441 -0.2697
  170POPC   C4A 2409   8.546   8.734   6.121  0.0266 -0.0560 -0.0889
  170POPC   C1B 2410   7.521   9.018   5.404 -0.1451 -0.1020 -0.1317
  170POPC   C2B 2411   7.599   9.065   5.833  0.2602 -0.0788  0.1890
  170POPC   C3B 2412   8.007   9.209   6.124 -0.2992  0.1726 -0.1005
  170POPC   C4B 2413   8.183   9.344   6.479 -0.2016  0.0154 -0.0330
  171POPC   NC3 2414   7.735   2.241   3.939 -0.0020 -0.2708 -0.1240
  171POPC   PO4 2415   7.482   1.850   3.998  0.2630  0.1812 -0.0406
  171POPC   GL1 2416   7.777   1.785   4.299  0.0997 -0.1296  0.1562
  171POPC   GL2 2417   7.730   2.034   4.416 -0.1366 -0.1233 -0.1031
  171POPC   C1A 2418   8.234   1.602   4.370  0.2300  0.2805  0.0311
  171POPC   D2A 2419   8.253   1.161   4.445  0.0537 -0.2964  0.1510
  171POPC   C3A 2420   7.989   0.977   4.755 -0.0266  0.4060  0.2614
  171POPC   C4A 2421   7.982   1.093   5.225  0.1707  0.1156 -0.1382
  171POPC   C1B 2422   7.752   2.059   4.802  0.2356 -0.2279  0.1596
  171POPC   C2B 2423   7.902   2.150   5.124 -0.2812  0.0343  0.2488
  171POPC   C3B 2424   8.075   2.407   5.408  0.1827 -0.3324 -0.1090
  171POPC   C4B 2425   8.013   2.424   5.830  0.0377 -0.2668 -0.0755
  172POPC   NC3 2426   5.664   1.299   4.400 -0.1862  0.3641 -0.1440
  172POPC   PO4 2427   5.321   1.390   4.774  0.3376 -0.2551  0.0460
  172POPC   GL1 2428   5.617   1.082   4.957 -0.0478 -0.0587  0.1688
  172POPC   GL2 2429   5.380   0.995   5.125 -0.0382 -0.0567 -0.0381
  172POPC   C1A 2430   6.008   0.967   5.091 -0.1169  0.0478  0.1249
  172POPC   D2A 2431   6.439   0.893   5.297  0.0828  0.3819 -0.2752
  172POPC   C3A 2432   6.484   1.110   5.770  0.0714 -0.0809 -0.1130
  172POPC   C4A 2433   6.636   1.224   6.211  0.1168 -0.1732  0.2818
  172POPC   C1B 2434   5.639   0.836   5.423 -0.0373 -0.1408 -0.2335
  172POPC   C2B 2435   6.039   0.927   5.622 -0.2779 -0.1820 -0.0056
  172POPC   C3B 2436   6.144   1.039   6.135  0.0853 -0.1052  0.2784
  172POPC   C4B 2437   6.134   1.291   6.417  0.3540  0.0264  0.2557
  173POPC   NC3 2438   1.734   0.035   5.249 -0.3910  0.4519 -0.0698
  173POPC   PO4 2439   1.430   0.328   5.084  0.2179  0.0255  0.1574
  173POPC   GL1 2440   1.214   0.143   5.414 -0.2562 -0.1158  0.1802
  173POPC   GL2 2441   1.460   0.140   5.627 -0.1579 -0.0680 -0.0522
  173POPC   C1A 2442   1.008   0.055   5.784 -0.0451  0.0300  0.2025
  173POPC   D2A 2443   0.757  -0.236   5.875  0.1219  0.1989  0.0574
  173POPC   C3A 2444   0.413  -0.218   6.184  0.0220  0.1406  0.3028
  173POPC   C4A 2445   0.147  -0.373   6.578  0.1294 -0.4720 -0.1145
  173POPC   C1B 2446   1.389   0.416   6.019  0.0190  0.0643 -0.2358
  173POPC   C2B 2447   1.647   0.627   6.322 -0.3388 -0.4069  0.0088
  173POPC   C3B 2448   2.038   0.694   6.586 -0.0913 -0.1574  0.0182
  173POPC   C4B 2449   2.373   0.991   6.665 -0.1271  0.1154 -0.3361
  174POPC   NC3 2450   4.267   5.238   3.918 -0.0822 -0.0818  0.3590
  174POPC   PO4 2451   4.210   5.649   4.074 -0.3870  0.1087 -0.0917
  174POPC   GL1 2452   4.110   5.545   4.542  0.0324  0.1122  0.0697
  174POPC   GL2 2453   4.480   5.443   4.881  0.3163 -0.0841 -0.0479
  174POPC   C1A 2454   3.891   5.463   4.959 -0.2818  0.0613 -0.0339
  174POPC   D2A 2455   4.035   5.495   5.391  0.2132  0.1255 -0.1720
  174POPC   C3A 2456   4.458   5.584   5.624  0.1166 -0.2124 -0.1559
  174POPC   C4A 2457   4.466   5.644   6.103 -0.1781  0.4244 -0.2504
  174POPC   C1B 2458   4.319   5.800   5.113  0.5041 -0.2016 -0.1337
  174POPC   C2B 2459   4.220   6.054   5.467 -0.0455  0.0751  0.0837
  174POPC   C3B 2460   4.468   6.198   5.793  0.0571  0.1662 -0.1297
  174POPC   C4B 2461   4.474   6.618   6.040 -0.0406 -0.1457 -0.0911
  175POPC   NC3 2462   6.142   1.643   4.255 -0.1349  0.2186  0.0174
  175POPC   PO4 2463   5.904   2.031   4.237  0.0745 -0.1046  0.2729
  175POPC   GL1 2464   6.123   1.909   4.672  0.2577  0.1385 -0.0155
  175POPC   GL2 2465   6.065   2.050   4.866  0.2711 -0.0409  0.2013
  175POPC   C1A 2466   6.474   1.652   4.908  0.0776 -0.2778  0.1961
  175POPC   D2A 2467   6.540   1.315   5.043  0.1545  0.1990  0.1624
  175POPC   C3A 2468   6.563   0.862   4.793  0.0653 -0.0874 -0.1523
  175POPC   C4A 2469   6.294   0.614   4.838 -0.0917  0.0183 -0.0158
  175POPC   C1B 2470   6.162   1.924   5.245 -0.1296  0.1467  0.1775
  175POPC   C2B 2471   6.128   1.926   5.713  0.0301  0.2113 -0.3123
  175POPC   C3B 2472   5.987   1.825   6.160  0.1994  0.0529  0.1200
  175POPC   C4B 2473   6.270   1.774   6.492 -0.0263  0.0543  0.2782
  176POPC   NC3 2474   8.275   4.065   4.511 -0.0460 -0.0984 -0.0833
  176POPC   PO4 2475   8.176   4.491   4.515 -0.1748  0.3777 -0.0528
  176POPC   GL1 2476   7.938   4.161   4.833 -0.2012  0.0653  0.2159
  176POPC   GL2 2477   7.676   4.270   4.827  0.1132  0.1040  0.0873
  176POPC   C1A 2478   8.038   4.061   5.203  0.0962 -0.1989  0.0988
  176POPC   D2A 2479   8.303   4.123   5.615 -0.0171  0.0543  0.2618
  176POPC   C3A 2480   8.231   4.597   5.595  0.0162 -0.2322 -0.3030
  176POPC   C4A 2481   8.030   4.938   5.484  0.2287  0.1242 -0.1386
  176POPC   C1B 2482   7.457   4.266   5.213 -0.0289  0.0955 -0.0786
  176POPC   C2B 2483   7.223   4.367   5.671 -0.0644  0.0813  0.1583
  176POPC   C3B 2484   6.931   4.408   5.977 -0.2078 -0.2205 -0.1192
  176POPC   C4B 2485   6.487   4.372   6.115 -0.0821 -0.1915 -0.0537
  177POPC   NC3 2486   8.187   9.752   3.623 -0.0558 -0.0153  0.0343
  177POPC   PO4 2487   8.306  10.148   3.788  0.1501  0.2820 -0.1837
  177POPC   GL1 2488   8.537  10.179   4.029  0.0456  0.1296  0.0166
  177POPC   GL2 2489   8.692  10.539   4.160  0.0910  0.0771 -0.2090
  177POPC   C1A 2490   8.488  10.150   4.503  0.2162 -0.1302  0.0393
  177POPC   D2A 2491   8.449   9.931   4.964  0.1339  0.0154 -0.0107
  177POPC   C3A 2492   8.132   9.666   5.165 -0.0382 -0.2699  0.0215
  177POPC   C4A 2493   7.732   9.402   5.169 -0.2579  0.4367 -0.1898
  177POPC   C1B 2494   8.938  10.392   4.497 -0.1470 -0.1156  0.0176
  177POPC   C2B 2495   9.293  10.127   4.732  0.0255  0.2135  0.0303
  177POPC   C3B 2496   9.626  10.095   4.961 -0.0096  0.2225 -0.0752
  177POPC   C4B 2497   9.535   9.848   5.307 -0.2895  0.0743 -0.1697
  178POPC   NC3 2498   1.018   8.555   4.655  0.0452 -0.1358 -0.0867
  178POPC   PO4 2499   1.391   8.754   4.655  0.0254  0.0719  0.0134
  178POPC   GL1 2500   1.238   8.853   5.085 -0.1442  0.2411  0.0533
  178POPC   GL2 2501   1.373   9.164   5.259  0.2696 -0.0869  0.3350
  178POPC   C1A 2502   1.137   8.747   5.475  0.0567  0.2605  0.0407
  178POPC   D2A 2503   1.017   8.943   5.836  0.1178 -0.0127 -0.2922
  178POPC   C3A 2504   0.630   9.038   6.046 -0.0460 -0.0915  0.0185
  178POPC   C4A 2505   0.501   9.112   6.412  0.1876  0.0118  0.1346
  178POPC   C1B 2506   1.148   9.390   5.641 -0.0992  0.0353 -0.1885
  178POPC   C2B 2507   1.086   9.419   6.121 -0.2012  0.1403  0.1103
  178POPC   C3B 2508   0.967   9.564   6.453  0.0128  0.1709 -0.1386
  178POPC   C4B 2509   0.598   9.632   6.749 -0.1757  0.1963 -0.0591
  179POPC   NC3 2510   5.281   6.578   4.074 -0.1621  0.0297  0.3276
  179POPC   PO4 2511   4.913   6.767   4.296  0.0304 -0.0545 -0.0172
  179POPC   GL1 2512   4.891   6.777   4.786  0.0328  0.2156  0.0709
  179POPC   GL2 2513   4.588   6.830   4.795  0.1206 -0.0151 -0.1422
  179POPC   C1A 2514   5.022   6.792   5.173 -0.1011 -0.0242 -0.0942
  179POPC   D2A 2515   4.864   6.806   5.613 -0.0122 -0.0129  0.0600
  179POPC   C3A 2516   4.975   6.423   5.988  0.1769 -0.1759 -0.1613
  179POPC   C4A 2517   4.707   6.220   6.284 -0.0706 -0.0651 -0.1812
  179POPC   C1B 2518   4.628   7.094   5.084  0.3290  0.1046 -0.1825
  179POPC   C2B 2519   4.280   7.372   5.231  0.0547 -0.2915  0.2683
  179POPC   C3B 2520   4.058   7.754   5.247 -0.3283 -0.0143  0.0456
  179POPC   C4B 2521   4.156   8.198   5.140  0.2464 -0.1185 -0.0235
  180POPC   NC3 2522   3.468   2.668   4.429  0.1527  0.1429  0.1828
  180POPC   PO4 2523   3.481   2.937   4.738 -0.1545  0.1472 -0.2542
  180POPC   GL1 2524   3.692   3.280   5.110 -0.1513  0.0208  0.2081
  180POPC   GL2 2525   3.545   3.628   5.238 -0.4490  0.0584  0.2976
  180POPC   C1A 2526   3.624   3.158   5.613 -0.0171  0.0234 -0.0927
  180POPC   D2A 2527   3.604   3.093   6.035 -0.3308 -0.0280  0.1730
  180POPC   C3A 2528   3.417   3.368   6.267  0.0488  0.2959 -0.2900
  180POPC   C4A 2529   3.157   3.564   6.593 -0.0174 -0.1858 -0.3203
  180POPC   C1B 2530   4.037   3.521   5.355 -0.1079  0.0909  0.2266
  180POPC   C2B 2531   4.501   3.548   5.604 -0.1437  0.0927 -0.0257
  180POPC   C3B 2532   4.963   3.493   5.622  0.1117  0.4088  0.0540
  180POPC   C4B 2533   5.391   3.471   5.695 -0.2827  0.1501  0.2886
  181POPC   NC3 2534   9.380   8.654   4.582 -0.0645  0.5516 -0.1567
  181POPC   PO4 2535   9.057   8.393   4.396 -0.2303 -0.3923  0.2305
  181POPC   GL1 2536   8.916   8.663   4.841 -0.3008 -0.0457  0.1129
  181POPC   GL2 2537   9.168   8.443   4.976  0.2228 -0.1510  0.0685
  181POPC   C1A 2538   8.921   8.873   5.179  0.3224 -0.1901  0.0911
  181POPC   D2A 2539   8.749   9.138   5.463  0.3128 -0.0923 -0.0863
  181POPC   C3A 2540   8.496   8.845   5.646 -0.1037 -0.0844  0.0417
  181POPC   C4A 2541   8.235   8.361   5.505  0.4089  0.0821 -0.2271
  181POPC   C1B 2542   9.113   8.475   5.312 -0.2410  0.1061  0.2241
  181POPC   C2B 2543   9.256   8.381   5.608 -0.0120  0.0856 -0.2481
  181POPC   C3B 2544   9.143   8.272   5.940  0.1006  0.4488  0.2210
  181POPC   C4B 2545   8.830   8.292   6.233  0.0232  0.1401 -0.2141
  182POPC   NC3 2546   8.999   1.863   3.732 -0.1743  0.4737 -0.5122
  182POPC   PO4 2547   9.067   2.198   3.920 -0.2199  0.1862  0.2459
  182POPC   GL1 2548   9.287   1.847   4.138 -0.0084  0.1292 -0.2141
  182POPC   GL2 2549   9.142   1.493   4.187  0.0740 -0.1461  0.1003
  182POPC   C1A 2550   9.523   1.629   4.610 -0.0565 -0.1397 -0.2836
  182POPC   D2A 2551   9.833   1.650   4.953 -0.0275 -0.1686 -0.1051
  182POPC   C3A 2552  10.057   2.043   4.978 -0.0882  0.2145  0.3603
  182POPC   C4A 2553   9.857   2.511   5.086  0.2097 -0.1340 -0.2466
  182POPC   C1B 2554   9.056   1.673   4.563 -0.2680  0.1687  0.0569
  182POPC   C2B 2555   9.074   1.819   4.909  0.0087 -0.0702 -0.1477
  182POPC   C3B 2556   9.069   2.299   5.125 -0.1983  0.0611 -0.2191
  182POPC   C4B 2557   9.378   2.534   5.234  0.0154 -0.0965 -0.0542
  183POPC   NC3 2558   8.734   3.319   4.248  0.1791 -0.0023 -0.4331
  183POPC   PO4 2559   8.535   3.745   4.241 -0.1323 -0.0916 -0.2547
  183POPC   GL1 2560   8.594   3.517   4.722 -0.1247  0.0362 -0.1026
  183POPC   GL2 2561   8.630   3.816   4.781  0.3405  0.1772 -0.1101
  183POPC   C1A 2562   8.657   3.441   5.126 -0.0274  0.1245  0.2795
  183POPC   D2A 2563   8.769   3.154   5.382 -0.2740 -0.5452 -0.0185
  183POPC   C3A 2564   8.768   3.036   5.732  0.0945 -0.1216  0.0015
  183POPC   C4A 2565   8.986   2.968   6.129 -0.3359  0.1602 -0.3313
  183POPC   C1B 2566   8.539   3.963   5.137  0.0788 -0.1662  0.0618
  183POPC   C2B 2567   8.564   4.444   5.303  0.0085 -0.3317 -0.0426
  183POPC   C3B 2568   8.989   4.526   5.479  0.1154 -0.3091 -0.0910
  183POPC   C4B 2569   9.497   4.555   5.310  0.1556 -0.0733  0.0371
  184POPC   NC3 2570   1.425   1.178   4.617 -0.2064 -0.1198 -0.1823
  184POPC   PO4 2571   1.412   1.593   4.508 -0.1151 -0.1758  0.3555
  184POPC   GL1 2572   1.164   1.765   4.664  0.0579 -0.0673 -0.0107
  184POPC   GL2 2573   1.186   1.668   5.005  0.1394  0.2006  0.0506
  184POPC   C1A 2574   0.856   2.076   5.065 -0.1898  0.0564  0.1249
  184POPC   D2A 2575   0.608   1.956   5.325 -0.1518 -0.2268 -0.0365
  184POPC   C3A 2576   0.257   1.687   5.492 -0.2430 -0.0617  0.0461
  184POPC   C4A 2577   0.104   1.537   5.879  0.1728 -0.0768 -0.1822
  184POPC   C1B 2578   1.106   1.857   5.610  0.3196 -0.0359  0.4342
  184POPC   C2B 2579   0.959   2.044   6.025 -0.1295 -0.1381 -0.1580
  184POPC   C3B 2580   1.228   2.196   6.457  0.2035  0.3947 -0.2763
  184POPC   C4B 2581   1.591   2.250   6.659  0.2182 -0.0165 -0.0611
  185POPC   NC3 2582   1.494   6.659   4.900 -0.0145  0.2145  0.2767
  185POPC   PO4 2583   1.438   6.297   4.882  0.1071  0.0760  0.1201
  185POPC   GL1 2584   1.379   6.403   5.333 -0.1075  0.0279  0.2185
  185POPC   GL2 2585   1.040   6.489   5.362  0.0098  0.1532 -0.2527
  185POPC   C1A 2586   1.341   6.171   5.627  0.0574  0.1735 -0.2164
  185POPC   D2A 2587   0.954   6.117   5.877 -0.1460  0.0272  0.2008
  185POPC   C3A 2588   0.995   6.162   6.341  0.0018  0.1560  0.0113
  185POPC   C4A 2589   1.313   6.023   6.600 -0.2084 -0.2366  0.3663
  185POPC   C1B 2590   0.951   6.720   5.628 -0.1693  0.1605  0.3174
  185POPC   C2B 2591   0.723   6.528   6.030 -0.0879  0.3221 -0.0821
  185POPC   C3B 2592   0.461   6.224   6.302 -0.0529  0.0033 -0.0547
  185POPC   C4B 2593   0.454   6.090   6.636 -0.1422  0.1157  0.1124
  186POPC   NC3 2594   1.327   4.265   5.002  0.1655 -0.2297  0.1081
  186POPC   PO4 2595   1.717   4.110   4.926  0.0048 -0.3374  0.3351
  186POPC   GL1 2596   1.850   4.004   5.348  0.1239 -0.2371  0.0100
  186POPC   GL2 2597   1.892   4.394   5.440  0.1654 -0.1463  0.0525
  186POPC   C1A 2598   1.710   3.824   5.690 -0.2805  0.1210 -0.0504
  186POPC   D2A 2599   1.408   3.552   5.953 -0.1493 -0.3569  0.1761
  186POPC   C3A 2600   1.631   3.633   6.244 -0.1755 -0.0484 -0.0939
  186POPC   C4A 2601   1.958   3.544   6.510 -0.1388 -0.0064 -0.0832
  186POPC   C1B 2602   1.701   4.343   5.754 -0.0981  0.2419  0.2970
  186POPC   C2B 2603   1.462   4.171   6.081  0.3538 -0.0949 -0.0604
  186POPC   C3B 2604   1.307   3.883   6.404  0.4319 -0.0214 -0.2011
  186POPC   C4B 2605   1.380   3.591   6.772 -0.1647 -0.0381  0.1663
  187POPC   NC3 2606   2.707   9.763   5.068 -0.2668 -0.2238 -0.3661
  187POPC   PO4 2607   2.424   9.356   5.063  0.4979 -0.0449  0.1730
  187POPC   GL1 2608   2.279   8.985   5.368 -0.0356 -0.0657  0.1770
  187POPC   GL2 2609   2.214   8.613   5.302  0.0749 -0.2649 -0.4992
  187POPC   C1A 2610   2.077   9.103   5.712  0.1797  0.0492  0.1191
  187POPC   D2A 2611   2.161   9.239   6.114 -0.0674 -0.3408  0.0106
  187POPC   C3A 2612   2.359   9.108   6.538  0.2554  0.0446 -0.1076
  187POPC   C4A 2613   2.811   9.149   6.750  0.0651 -0.1483 -0.1381
  187POPC   C1B 2614   1.780   8.774   5.446 -0.1407  0.1693  0.1761
  187POPC   C2B 2615   1.574   9.001   5.790  0.1680  0.0418  0.3557
  187POPC   C3B 2616   1.407   9.054   6.241 -0.1097  0.1520  0.2190
  187POPC   C4B 2617   1.124   8.987   6.497 -0.0408 -0.1610 -0.0501
  188POPC   NC3 2618   2.034   9.659   4.458 -0.2023 -0.1382  0.0421
  188POPC   PO4 2619   1.843   9.513   4.807  0.0220 -0.3870  0.1425
  188POPC   GL1 2620   1.960   9.486   5.347  0.0216  0.1887 -0.0601
  188POPC   GL2 2621   1.635   9.470   5.504 -0.0662  0.0319  0.0222
  188POPC   C1A 2622   2.126   9.576   5.764 -0.2127  0.0993 -0.1772
  188POPC   D2A 2623   2.096   9.749   6.163  0.2564 -0.0351 -0.0439
  188POPC   C3A 2624   1.893   9.633   6.456  0.0187  0.0508  0.2741
  188POPC   C4A 2625   1.476   9.412   6.586  0.1637  0.0449  0.1884
  188POPC   C1B 2626   1.703   9.445   5.986  0.0553  0.1675 -0.2078
  188POPC   C2B 2627   1.423   9.762   6.113  0.0656 -0.3627 -0.0253
  188POPC   C3B 2628   1.503   9.969   6.606 -0.2679 -0.0385  0.2908
  188POPC   C4B 2629   1.867  10.024   6.850 -0.0612 -0.0264 -0.1225
  189POPC   NC3 2630   6.504   7.097   4.891 -0.0997  0.2295  0.3071
  189POPC   PO4 2631   6.238   6.779   4.896  0.0716  0.1859  0.0481
  189POPC   GL1 2632   6.296   6.644   5.268 -0.1260  0.2295  0.2124
  189POPC   GL2 2633   6.304   6.872   5.474 -0.2261 -0.0322  0.0876
  189POPC   C1A 2634   6.303   6.462   5.685 -0.1979  0.0350  0.0885
  189POPC   D2A 2635   6.349   6.209   5.979 -0.1296 -0.1691 -0.2238
  189POPC   C3A 2636   6.567   6.203   6.507 -0.2327  0.2078  0.1849
  189POPC   C4A 2637   6.670   5.744   6.743 -0.2581 -0.3174 -0.0698
  189POPC   C1B 2638   6.589   6.855   5.784 -0.1798 -0.1175  0.3097
  189POPC   C2B 2639   6.498   6.932   6.188 -0.4462 -0.1257  0.0675
  189POPC   C3B 2640   6.544   7.137   6.515 -0.0067  0.0756  0.0524
  189POPC   C4B 2641   6.632   7.357   6.855  0.1997 -0.3611 -0.1614
  190POPC   NC3 2642   9.777   2.538   3.762  0.1829 -0.1514 -0.0015
  190POPC   PO4 2643   9.597   2.840   4.131  0.0511  0.0789 -0.0075
  190POPC   GL1 2644   9.606   2.662   4.473 -0.1480 -0.1136  0.1211
  190POPC   GL2 2645   9.876   2.447   4.564 -0.1108  0.0533  0.1616
  190POPC   C1A 2646   9.585   2.926   4.912  0.0580  0.0689 -0.0817
  190POPC   D2A 2647   9.761   3.071   5.338  0.1956 -0.0828  0.3716
  190POPC   C3A 2648   9.788   2.669   5.567 -0.1944  0.0586 -0.3421
  190POPC   C4A 2649   9.648   2.318   5.895 -0.2411 -0.0345 -0.0607
  190POPC   C1B 2650   9.585   2.193   4.763  0.1342  0.0748  0.0997
  190POPC   C2B 2651   9.544   2.041   5.119  0.0753 -0.2403 -0.5757
  190POPC   C3B 2652   9.277   2.012   5.471  0.3508 -0.1379  0.5944
  190POPC   C4B 2653   8.956   2.211   5.788 -0.0372 -0.3873 -0.0573
  191POPC   NC3 2654   8.922   9.461   4.275  0.0254  0.0137  0.1101
  191POPC   PO4 2655   9.306   9.450   4.216  0.0271 -0.4774  0.2960
  191POPC   GL1 2656   9.474   9.266   4.559 -0.0719  0.1581 -0.1244
  191POPC   GL2 2657   9.219   9.088   4.801 -0.0573  0.1562 -0.0009
  191POPC   C1A 2658   9.726   9.189   4.879  0.1257 -0.3177 -0.0945
  191POPC   D2A 2659  10.039   9.156   5.158  0.1019 -0.1826 -0.1691
  191POPC   C3A 2660   9.843   9.089   5.568  0.3166 -0.2452  0.1229
  191POPC   C4A 2661   9.605   9.008   5.962 -0.0804 -0.1474 -0.0987
  191POPC   C1B 2662   8.997   9.356   5.052 -0.1723  0.0037 -0.1068
  191POPC   C2B 2663   8.599   9.457   5.173 -0.0508  0.0527 -0.0203
  191POPC   C3B 2664   8.456   9.604   5.560  0.2521 -0.2979 -0.0697
  191POPC   C4B 2665   8.193   9.950   5.545  0.1536  0.1496  0.1030
  192POPC   NC3 2666   6.691   0.259   4.202 -0.2406  0.1498 -0.2448
  192POPC   PO4 2667   6.674  -0.191   4.516  0.2016  0.0028  0.0301
  192POPC   GL1 2668   6.862  -0.092   4.925  0.2444 -0.3171  0.0723
  192POPC   GL2 2669   7.170  -0.174   5.068 -0.0454  0.0892  0.0225
  192POPC   C1A 2670   6.787   0.113   5.337  0.0017 -0.2789 -0.0545
  192POPC   D2A 2671   6.875   0.257   5.697  0.2343 -0.0640  0.0363
  192POPC   C3A 2672   6.628   0.155   6.065 -0.0351 -0.1438 -0.1889
  192POPC   C4A 2673   6.493   0.321   6.461  0.1465 -0.0966  0.0508
  192POPC   C1B 2674   7.290   0.103   5.468  0.1332  0.0255 -0.2021
  192POPC   C2B 2675   7.422   0.238   6.004  0.0286  0.1524 -0.2178
  192POPC   C3B 2676   7.376   0.535   6.425  0.3056 -0.1119 -0.0219
  192POPC   C4B 2677   7.101   0.895   6.396  0.2679 -0.1300 -0.2327
  193POPC   NC3 2678   1.244   1.290   4.186  0.0807  0.2234  0.0549
  193POPC   PO4 2679   0.819   1.262   3.976 -0.0737 -0.0411  0.0277
  193POPC   GL1 2680   0.814   1.392   4.439  0.1274 -0.3137  0.1162
  193POPC   GL2 2681   0.607   1.259   4.448  0.3036 -0.1584 -0.0487
  193POPC   C1A 2682   0.868   1.318   4.898 -0.3169  0.0601 -0.0010
  193POPC   D2A 2683   0.827   1.511   5.317  0.0953  0.4513  0.0972
  193POPC   C3A 2684   0.702   1.604   5.782 -0.1000 -0.0531 -0.0494
  193POPC   C4A 2685   0.497   1.864   6.147  0.0723 -0.1436  0.0600
  193POPC   C1B 2686   0.545   0.986   4.730  0.4010  0.0236  0.0739
  193POPC   C2B 2687   0.686   0.645   4.889  0.1670 -0.4629 -0.1112
  193POPC   C3B 2688   0.770   0.345   5.221  0.0671 -0.0696  0.1880
  193POPC   C4B 2689   0.776  -0.151   5.395 -0.0864 -0.1870 -0.0288
  194POPC   NC3 2690   4.757   9.249   4.149  0.0163  0.1615  0.1445
  194POPC   PO4 2691   4.981   9.639   4.271 -0.3416 -0.0785  0.0235
  194POPC   GL1 2692   4.816   9.589   4.646  0.0361  0.3132 -0.0250
  194POPC   GL2 2693   4.914   9.933   4.757  0.0664 -0.3803  0.3185
  194POPC   C1A 2694   4.765   9.583   5.078  0.1389  0.0097  0.2241
  194POPC   D2A 2695   4.935   9.584   5.472 -0.0475 -0.0594 -0.2848
  194POPC   C3A 2696   4.666   9.331   5.773 -0.2074  0.0606  0.1225
  194POPC   C4A 2697   4.457   9.038   5.682 -0.1463  0.0843 -0.0144
  194POPC   C1B 2698   5.275   9.651   4.953 -0.0957  0.0374  0.2712
  194POPC   C2B 2699   5.636   9.862   5.200 -0.1803 -0.1041 -0.2698
  194POPC   C3B 2700   5.961  10.000   5.520 -0.0143  0.2759  0.0292
  194POPC   C4B 2701   6.409   9.879   5.608  0.3019  0.1166  0.1092
  195POPC   NC3 2702   4.864   7.978   4.422  0.0165  0.0128 -0.0111
  195POPC   PO4 2703   5.224   8.334   4.388  0.0341 -0.0760 -0.2192
  195POPC   GL1 2704   5.220   8.265   4.785 -0.0242  0.2925 -0.1964
  195POPC   GL2 2705   5.234   7.909   4.851  0.1028  0.1119  0.4243
  195POPC   C1A 2706   5.167   8.243   5.281  0.0245  0.0057  0.3520
  195POPC   D2A 2707   5.165   8.252   5.698 -0.0304 -0.3563  0.0392
  195POPC   C3A 2708   4.830   8.438   6.003 -0.1457  0.0204 -0.1434
  195POPC   C4A 2709   4.439   8.603   5.904  0.1278 -0.2257 -0.0478
  195POPC   C1B 2710   5.300   7.787   5.241 -0.1069 -0.1885  0.1031
  195POPC   C2B 2711   5.294   7.792   5.663  0.1841  0.1144 -0.0201
  195POPC   C3B 2712   5.298   7.963   6.070 -0.2169  0.0134 -0.1364
  195POPC   C4B 2713   5.153   8.291   6.347  0.2352  0.0239  0.1120
  196POPC   NC3 2714   4.341   0.405   4.323 -0.0716  0.2386  0.2037
  196POPC   PO4 2715   4.476   0.083   4.558  0.1205  0.2401 -0.0346
  196POPC   GL1 2716   4.446   0.054   4.918  0.2909  0.1371  0.0840
  196POPC   GL2 2717   4.392   0.373   5.109  0.0325  0.0448  0.0734
  196POPC   C1A 2718   4.279  -0.099   5.339  0.2764  0.0427  0.3176
  196POPC   D2A 2719   4.524  -0.096   5.745 -0.1423 -0.1240 -0.0959
  196POPC   C3A 2720   4.452   0.255   6.121 -0.4505  0.2376  0.1420
  196POPC   C4A 2721   4.643   0.673   5.924 -0.0778 -0.0981  0.0436
  196POPC   C1B 2722   4.640   0.379   5.500 -0.0778  0.1751  0.0648
  196POPC   C2B 2723   4.872   0.199   5.877  0.2123 -0.0970 -0.2185
  196POPC   C3B 2724   5.129   0.186   6.108 -0.0966  0.1898  0.0268
  196POPC   C4B 2725   5.324   0.037   6.464 -0.2162 -0.0058  0.0706
  197POPC   NC3 2726   3.217   0.665   4.961  0.0905  0.1352 -0.0844
  197POPC   PO4 2727   2.917   0.803   4.993  0.0810 -0.1927 -0.0514
  197POPC   GL1 2728   2.944   0.745   5.473 -0.0723 -0.2057 -0.3038
  197POPC   GL2 2729   3.297   0.725   5.504 -0.1788 -0.1105  0.0008
  197POPC   C1A 2730   2.992   1.063   5.775  0.0195  0.0141 -0.1572
  197POPC   D2A 2731   3.086   1.083   6.237  0.3699 -0.3582  0.3162
  197POPC   C3A 2732   3.422   1.433   6.479 -0.0061  0.2670 -0.3737
  197POPC   C4A 2733   3.809   1.416   6.724 -0.0321 -0.1947  0.2648
  197POPC   C1B 2734   3.123   0.607   6.017 -0.2521  0.1264  0.0803
  197POPC   C2B 2735   3.146   0.531   6.441 -0.1162  0.0072  0.0463
  197POPC   C3B 2736   3.109   0.383   6.831 -0.1280  0.1459  0.0106
  197POPC   C4B 2737   2.815   0.547   7.144 -0.1116 -0.2693  0.1953
  198POPC   NC3 2738   4.837   7.173   4.487  0.0430 -0.2407 -0.1041
  198POPC   PO4 2739   4.519   7.447   4.401  0.0762  0.1992  0.1735
  198POPC   GL1 2740   4.820   7.639   4.835 -0.3249  0.1102  0.4819
  198POPC   GL2 2741   4.667   7.792   5.001 -0.4031  0.3540  0.0951
  198POPC   C1A 2742   5.049   7.425   5.131  0.2899  0.4672 -0.1359
  198POPC   D2A 2743   4.856   7.355   5.532 -0.1715  0.1272 -0.1197
  198POPC   C3A 2744   4.954   7.477   5.964  0.2095  0.2625  0.2899
  198POPC   C4A 2745   5.255   7.518   6.306 -0.1489  0.0029 -0.0873
  198POPC   C1B 2746   4.831   7.841   5.424 -0.3455  0.2923 -0.1785
  198POPC   C2B 2747   4.838   7.968   5.903  0.3390 -0.0168 -0.1061
  198POPC   C3B 2748   4.775   7.810   6.336  0.2970  0.0152  0.2964
  198POPC   C4B 2749   5.001   7.826   6.590 -0.0590 -0.2330  0.1626
  199POPC   NC3 2750   7.769   3.839   3.931  0.0092  0.0685 -0.0279
  199POPC   PO4 2751   7.575   3.846   4.383  0.2435 -0.0001  0.0106
  199POPC   GL1 2752   7.633   3.679   4.759  0.0584 -0.0779 -0.3872
  199POPC   GL2 2753   7.329   3.797   4.925 -0.0980  0.1894 -0.1017
  199POPC   C1A 2754   7.731   3.675   5.232  0.2634  0.0052 -0.1548
  199POPC   D2A 2755   7.773   3.405   5.603  0.0549  0.0264  0.1040
  199POPC   C3A 2756   7.774   3.309   6.124 -0.3259 -0.0694 -0.0290
  199POPC   C4A 2757   8.148   3.407   6.245 -0.0970  0.0974  0.3424
  199POPC   C1B 2758   7.249   3.410   5.299 -0.0709 -0.1783  0.3163
  199POPC   C2B 2759   7.292   3.474   5.681  0.1717  0.1167  0.3046
  199POPC   C3B 2760   7.371   3.519   6.038  0.1035 -0.3436 -0.1434
  199POPC   C4B 2761   7.611   3.695   6.510  0.0235  0.2452  0.1878
  200POPC   NC3 2762   6.048   0.758   3.879 -0.1999  0.0250  0.1737
  200POPC   PO4 2763   6.113   1.133   4.152 -0.0893  0.0178 -0.2957
  200POPC   GL1 2764   6.346   1.166   4.489  0.0020 -0.3268  0.1155
  200POPC   GL2 2765   6.099   1.320   4.614  0.0958  0.0719 -0.0450
  200POPC   C1A 2766   6.738   1.430   4.573 -0.2333 -0.0508 -0.3145
  200POPC   D2A 2767   7.020   1.549   4.910  0.1176 -0.2716 -0.0027
  200POPC   C3A 2768   7.447   1.700   4.752 -0.1058  0.2583 -0.2106
  200POPC   C4A 2769   7.688   1.395   4.644 -0.2157  0.1308 -0.0349
  200POPC   C1B 2770   6.014   1.492   5.002  0.0674 -0.1544  0.1842
  200POPC   C2B 2771   6.182   1.417   5.512  0.1076 -0.0805 -0.3628
  200POPC   C3B 2772   6.353   1.552   6.006  0.1033 -0.1602  0.1142
  200POPC   C4B 2773   6.763   1.726   6.326  0.4254 -0.0567 -0.1250
  201POPC   NC3 2774   3.921   4.170   4.473  0.2062  0.0916  0.1744
  201POPC   PO4 2775   3.742   4.670   4.426  0.0026 -0.1642  0.2367
  201POPC   GL1 2776   3.699   4.742   4.827 -0.1144  0.2620 -0.0843
  201POPC   GL2 2777   3.900   4.924   4.811 -0.4608 -0.1436  0.0905
  201POPC   C1A 2778   3.494   4.609   5.210  0.1385  0.1716 -0.2213
  201POPC   D2A 2779   3.512   4.583   5.601 -0.0345  0.0174  0.0818
  201POPC   C3A 2780   3.628   4.210   5.858  0.2538 -0.4215  0.1466
  201POPC   C4A 2781   3.714   3.970   6.117  0.1947  0.0928  0.1431
  201POPC   C1B 2782   4.208   5.007   4.933 -0.3000  0.1516  0.0703
  201POPC   C2B 2783   4.358   4.981   5.339 -0.2912  0.0434  0.0474
  201POPC   C3B 2784   4.400   5.185   5.854  0.0926 -0.0080  0.0683
  201POPC   C4B 2785   4.584   5.119   6.239  0.0371 -0.0324  0.2773
  202POPC   NC3 2786   3.665   9.049   4.351  0.4848 -0.0994  0.3151
  202POPC   PO4 2787   4.121   8.978   4.492 -0.0856 -0.1434 -0.0371
  202POPC   GL1 2788   4.007   9.239   4.878 -0.0393  0.1305  0.1322
  202POPC   GL2 2789   4.248   9.415   5.027  0.0449  0.1328  0.2476
  202POPC   C1A 2790   4.003   9.164   5.420  0.0291  0.0277  0.0830
  202POPC   D2A 2791   3.949   9.030   5.872 -0.2971 -0.1215 -0.1017
  202POPC   C3A 2792   4.028   8.775   6.186 -0.3242  0.2374  0.1239
  202POPC   C4A 2793   4.029   8.574   6.579  0.2089 -0.1549  0.1776
  202POPC   C1B 2794   4.641   9.158   5.222  0.0843 -0.0272 -0.0186
  202POPC   C2B 2795   5.135   9.168   5.132 -0.1126 -0.2304 -0.2622
  202POPC   C3B 2796   5.579   9.146   5.069 -0.1413  0.1296  0.0763
  202POPC   C4B 2797   5.952   9.400   5.104  0.1019 -0.0969 -0.0882
  203POPC   NC3 2798   4.522   5.842   4.398  0.0763 -0.1370 -0.0647
  203POPC   PO4 2799   4.895   5.764   4.579 -0.1473 -0.1162 -0.0057
  203POPC   GL1 2800   4.859   5.917   5.042  0.2504  0.1393  0.0030
  203POPC   GL2 2801   5.172   6.042   5.148  0.1632 -0.1029  0.3065
  203POPC   C1A 2802   4.773   5.900   5.407  0.0796  0.0667 -0.0574
  203POPC   D2A 2803   4.880   5.935   5.831  0.0974  0.2699 -0.2076
  203POPC   C3A 2804   4.966   5.501   5.843  0.0444  0.0318 -0.0981
  203POPC   C4A 2805   5.129   5.229   6.117  0.0202  0.1015  0.0779
  203POPC   C1B 2806   5.143   5.587   5.371  0.1040 -0.2288 -0.0062
  203POPC   C2B 2807   4.796   5.335   5.395 -0.0634 -0.0029 -0.1434
  203POPC   C3B 2808   4.825   4.976   5.714 -0.0405  0.0869 -0.3423
  203POPC   C4B 2809   4.840   4.526   5.772 -0.1695 -0.1285  0.0462
  204POPC   NC3 2810   2.491   6.084   4.284 -0.1445  0.3463  0.4075
  204POPC   PO4 2811   2.792   5.786   4.617 -0.0977  0.1664 -0.2569
  204POPC   GL1 2812   3.065   5.793   4.958 -0.0328  0.2175 -0.0926
  204POPC   GL2 2813   2.913   6.041   5.171 -0.0295  0.3473 -0.3028
  204POPC   C1A 2814   3.383   5.655   5.194 -0.1555  0.1326 -0.1931
  204POPC   D2A 2815   3.521   5.459   5.591 -0.2207  0.1670 -0.2215
  204POPC   C3A 2816   3.335   5.592   5.953  0.1338 -0.0442  0.2430
  204POPC   C4A 2817   3.415   5.520   6.442 -0.0618  0.1001  0.2573
  204POPC   C1B 2818   3.051   5.798   5.511  0.2030 -0.3617  0.1202
  204POPC   C2B 2819   2.930   5.399   5.677  0.0964  0.0170 -0.0688
  204POPC   C3B 2820   2.955   5.159   6.069 -0.1245 -0.1891  0.1011
  204POPC   C4B 2821   3.029   4.872   6.447  0.0582 -0.0323 -0.1918
  205POPC   NC3 2822   2.403   4.932   4.173 -0.1525  0.0336  0.1385
  205POPC   PO4 2823   2.322   4.616   4.472 -0.0213  0.2384  0.1705
  205POPC   GL1 2824   2.457   4.679   4.901 -0.2222  0.0821 -0.0254
  205POPC   GL2 2825   2.539   4.941   5.005 -0.1503  0.2709  0.0503
  205POPC   C1A 2826   2.254   4.647   5.288 -0.1821  0.1802 -0.1247
  205POPC   D2A 2827   2.416   4.646   5.665  0.1704 -0.0305 -0.0612
  205POPC   C3A 2828   2.175   4.265   5.885 -0.0613 -0.2320  0.3551
  205POPC   C4A 2829   1.964   3.997   6.061 -0.4398 -0.0032 -0.0368
  205POPC   C1B 2830   2.706   5.022   5.422  0.1015  0.0066  0.2650
  205POPC   C2B 2831   2.517   5.177   5.750  0.4105  0.0546  0.1830
  205POPC   C3B 2832   2.365   5.301   6.143 -0.0098  0.0567 -0.2640
  205POPC   C4B 2833   2.512   5.266   6.530  0.0885 -0.2573 -0.3835
  206POPC   NC3 2834   6.913   3.422   4.721 -0.1219  0.1833  0.2084
  206POPC   PO4 2835   6.471   3.295   4.596 -0.1638 -0.0211  0.1111
  206POPC   GL1 2836   6.435   3.392   5.018 -0.2803  0.4601  0.2013
  206POPC   GL2 2837   6.672   3.170   5.169 -0.0862 -0.1046 -0.0532
  206POPC   C1A 2838   6.219   3.323   5.436  0.0418 -0.2650  0.3254
  206POPC   D2A 2839   6.407   2.933   5.614  0.0882 -0.1035  0.0102
  206POPC   C3A 2840   6.219   2.835   5.922 -0.2164  0.1526  0.2101
  206POPC   C4A 2841   5.803   2.845   6.078  0.1360 -0.1959 -0.2139
  206POPC   C1B 2842   6.916   3.128   5.614  0.1081  0.1846 -0.1638
  206POPC   C2B 2843   6.902   3.223   6.045 -0.1007  0.2072 -0.2077
  206POPC   C3B 2844   7.044   3.543   6.363  0.5249 -0.2359  0.1435
  206POPC   C4B 2845   7.090   3.759   6.813 -0.2158 -0.0326 -0.0359
  207POPC   NC3 2846   7.330   3.082   3.904  0.5357 -0.1682  0.2787
  207POPC   PO4 2847   7.617   2.740   3.874  0.0791 -0.3287  0.0465
  207POPC   GL1 2848   7.898   2.790   4.188 -0.1474  0.1182 -0.0283
  207POPC   GL2 2849   7.821   2.972   4.466  0.0778  0.0665  0.0887
  207POPC   C1A 2850   8.187   2.576   4.374  0.2509  0.4120  0.3137
  207POPC   D2A 2851   8.183   2.301   4.643  0.4889  0.0731 -0.0327
  207POPC   C3A 2852   8.329   1.981   4.973  0.0178  0.4705  0.0782
  207POPC   C4A 2853   8.440   1.518   4.931 -0.1213  0.2593  0.0697
  207POPC   C1B 2854   7.943   3.226   4.713  0.0368  0.1677  0.0105
  207POPC   C2B 2855   8.109   3.545   4.929  0.4415 -0.2434 -0.2123
  207POPC   C3B 2856   8.234   3.619   5.354 -0.2944 -0.1441 -0.0304
  207POPC   C4B 2857   8.614   3.662   5.611  0.0791 -0.0466  0.0763
  208POPC   NC3 2858   6.304   8.431   3.894  0.0007  0.0205 -0.0526
  208POPC   PO4 2859   6.227   8.423   4.384 -0.2788 -0.0263 -0.0160
  208POPC   GL1 2860   6.257   8.507   4.920 -0.0212  0.2500 -0.2071
  208POPC   GL2 2861   6.282   8.299   5.113 -0.0045  0.1029 -0.1789
  208POPC   C1A 2862   6.519   8.671   5.442  0.0464 -0.3343 -0.3108
  208POPC   D2A 2863   6.550   8.912   5.748 -0.0903 -0.0692  0.0469
  208POPC   C3A 2864   6.628   8.731   6.119  0.0029 -0.1041  0.1126
  208POPC   C4A 2865   6.571   8.630   6.571  0.0662 -0.0227  0.0823
  208POPC   C1B 2866   6.129   8.312   5.461 -0.3507  0.1560  0.0528
  208POPC   C2B 2867   5.990   8.515   5.951 -0.0022 -0.0544 -0.3655
  208POPC   C3B 2868   6.146   8.788   6.327  0.0619 -0.0123  0.0003
  208POPC   C4B 2869   6.474   9.123   6.386 -0.1477  0.0024 -0.1938
  209POPC   NC3 2870   3.449   1.978   4.798  0.3080 -0.0345  0.0118
  209POPC   PO4 2871   2.979   2.046   4.858  0.0247 -0.2246  0.3535
  209POPC   GL1 2872   2.949   1.785   5.233  0.0887 -0.2026 -0.0324
  209POPC   GL2 2873   2.726   1.810   5.409  0.1265 -0.1923  0.0384
  209POPC   C1A 2874   3.141   1.610   5.617 -0.0520 -0.0921  0.1251
  209POPC   D2A 2875   3.320   1.490   6.027  0.2185  0.0602 -0.1025
  209POPC   C3A 2876   3.069   1.697   6.213 -0.1298  0.1958 -0.3049
  209POPC   C4A 2877   3.053   2.110   6.453 -0.2952 -0.1166  0.0498
  209POPC   C1B 2878   2.998   2.096   5.628  0.1027  0.1535 -0.0458
  209POPC   C2B 2879   2.912   2.325   6.024  0.2752  0.0735 -0.0141
  209POPC   C3B 2880   3.045   2.591   6.285  0.0843  0.1739  0.0498
  209POPC   C4B 2881   3.384   2.865   6.410  0.1209 -0.0892 -0.0677
  210POPC   NC3 2882   1.314   3.530   4.251 -0.3461  0.0440 -0.2091
  210POPC   PO4 2883   1.254   3.157   4.681  0.0516  0.1158 -0.2179
  210POPC   GL1 2884   1.326   3.069   5.109  0.3089 -0.2834  0.0983
  210POPC   GL2 2885   1.308   2.748   5.071  0.1461 -0.0901 -0.2918
  210POPC   C1A 2886   1.541   3.163   5.535  0.4354 -0.0318  0.0252
  210POPC   D2A 2887   1.688   2.850   5.879  0.1831  0.2146  0.1964
  210POPC   C3A 2888   1.408   2.526   5.914 -0.2266 -0.0025  0.1667
  210POPC   C4A 2889   1.534   2.184   5.911  0.2531  0.2099 -0.2312
  210POPC   C1B 2890   1.293   2.722   5.459  0.3138  0.2340 -0.0076
  210POPC   C2B 2891   1.078   2.815   5.721  0.0763 -0.0711 -0.2343
  210POPC   C3B 2892   1.237   2.987   5.952  0.3372  0.1335  0.1127
  210POPC   C4B 2893   1.364   2.774   6.365 -0.0189  0.1032 -0.2316
  211POPC   NC3 2894   6.153   3.709   4.608  0.2416  0.0938  0.3721
  211POPC   PO4 2895   6.600   3.818   4.666  0.3506 -0.2034  0.1658
  211POPC   GL1 2896   6.802   3.838   5.044  0.0099  0.4331  0.2512
  211POPC   GL2 2897   6.913   4.136   5.037 -0.0432  0.0501  0.0618
  211POPC   C1A 2898   6.715   3.613   5.437 -0.1469  0.0862 -0.0720
  211POPC   D2A 2899   6.537   3.404   5.784  0.5190  0.0217 -0.1863
  211POPC   C3A 2900   6.516   3.521   6.169  0.0539  0.0090 -0.0848
  211POPC   C4A 2901   6.630   3.658   6.588  0.0136 -0.1153 -0.0969
  211POPC   C1B 2902   7.156   3.920   5.392 -0.1145  0.1723  0.1490
  211POPC   C2B 2903   7.647   3.907   5.656 -0.2315  0.2041  0.0470
  211POPC   C3B 2904   8.045   3.690   5.815 -0.4057  0.3813 -0.2196
  211POPC   C4B 2905   8.547   3.874   6.068 -0.1539  0.3566  0.0575
  212POPC   NC3 2906   1.939   0.503   4.908 -0.3280  0.1697  0.0044
  212POPC   PO4 2907   2.153   0.404   5.291  0.1206 -0.0482  0.0389
  212POPC   GL1 2908   1.822   0.519   5.455  0.3887  0.0970 -0.0036
  212POPC   GL2 2909   1.540   0.850   5.396  0.0793 -0.2082 -0.2139
  212POPC   C1A 2910   1.747   0.767   5.858  0.0871  0.1545 -0.1339
  212POPC   D2A 2911   1.684   1.206   6.163 -0.1752 -0.1456  0.0434
  212POPC   C3A 2912   1.817   1.189   6.576 -0.0423  0.1469  0.1093
  212POPC   C4A 2913   1.798   1.011   6.977 -0.4183  0.2237 -0.0278
  212POPC   C1B 2914   1.300   0.970   5.861  0.0270  0.1662 -0.0044
  212POPC   C2B 2915   1.250   0.984   6.262  0.4318 -0.3326 -0.2387
  212POPC   C3B 2916   1.420   0.981   6.690  0.0979 -0.0790  0.0451
  212POPC   C4B 2917   1.586   0.566   6.865 -0.0587 -0.0613  0.0666
  213POPC   NC3 2918   4.008   7.508   4.330 -0.0697  0.3808  0.2440
  213POPC   PO4 2919   4.184   7.066   4.521 -0.3204 -0.3041 -0.0052
  213POPC   GL1 2920   4.064   6.910   4.916  0.1147 -0.0792  0.0098
  213POPC   GL2 2921   4.282   6.709   5.146 -0.0283 -0.0096 -0.1629
  213POPC   C1A 2922   3.865   7.042   5.358  0.3546 -0.0128  0.4424
  213POPC   D2A 2923   3.927   7.403   5.636 -0.0023 -0.1577  0.0392
  213POPC   C3A 2924   4.398   7.735   5.613 -0.0573 -0.1607 -0.0399
  213POPC   C4A 2925   4.417   8.166   5.624 -0.0461  0.2540 -0.3052
  213POPC   C1B 2926   4.364   7.001   5.517  0.2715 -0.0933  0.0086
  213POPC   C2B 2927   4.385   7.204   5.867  0.2131  0.1135 -0.1448
  213POPC   C3B 2928   4.255   7.062   6.234  0.0474  0.4638 -0.0157
  213POPC   C4B 2929   4.422   6.852   6.606 -0.0611 -0.1749 -0.0846
  214POPC   NC3 2930   5.318   4.305   4.476  0.1383  0.1043  0.1596
  214POPC   PO4 2931   5.475   3.862   4.609  0.1141 -0.2139 -0.1508
  214POPC   GL1 2932   5.821   3.925   4.938  0.2522  0.0784  0.0259
  214POPC   GL2 2933   5.732   3.663   5.003 -0.3374 -0.0017  0.1234
  214POPC   C1A 2934   5.896   4.153   5.465 -0.0965 -0.0504  0.3941
  214POPC   D2A 2935   6.166   4.169   5.811  0.4101 -0.0257  0.3505
  214POPC   C3A 2936   6.545   3.943   5.834 -0.1189 -0.1837 -0.0970
  214POPC   C4A 2937   7.003   3.859   5.870  0.1666 -0.0030 -0.1517
  214POPC   C1B 2938   5.794   3.619   5.377  0.0044  0.3382  0.1668
  214POPC   C2B 2939   5.980   3.676   5.670  0.0396 -0.2348  0.0349
  214POPC   C3B 2940   6.112   3.879   6.213 -0.2202 -0.0497  0.0189
  214POPC   C4B 2941   6.073   3.760   6.613  0.2783  0.3536 -0.2596
  215POPC   NC3 2942   6.900   5.900   4.761 -0.1386  0.3649  0.2307
  215POPC   PO4 2943   6.942   6.357   4.867  0.1872 -0.0278  0.2858
  215POPC   GL1 2944   6.736   6.429   5.218  0.0579  0.0324 -0.0595
  215POPC   GL2 2945   6.838   6.593   5.529 -0.0520 -0.0845  0.0542
  215POPC   C1A 2946   6.541   6.088   5.462  0.3529  0.1781  0.0202
  215POPC   D2A 2947   6.463   5.796   5.784 -0.1903  0.0780 -0.0373
  215POPC   C3A 2948   6.580   5.321   5.722 -0.1383 -0.1086  0.0090
  215POPC   C4A 2949   6.445   4.874   5.725  0.0363 -0.0418 -0.2475
  215POPC   C1B 2950   7.073   6.693   5.865 -0.3688  0.0054  0.0578
  215POPC   C2B 2951   7.300   7.020   6.050 -0.0644 -0.2192  0.1259
  215POPC   C3B 2952   7.677   7.207   5.937 -0.0062  0.2923  0.0978
  215POPC   C4B 2953   7.960   7.410   5.555  0.1850 -0.2339  0.0741
  216POPC   NC3 2954   1.188   5.841   4.846  0.1694  0.0849  0.0127
  216POPC   PO4 2955   0.801   5.552   4.818 -0.0609  0.0298 -0.1924
  216POPC   GL1 2956   0.730   5.629   5.173 -0.1713 -0.0024 -0.0178
  216POPC   GL2 2957   0.620   5.486   5.351  0.0995 -0.0617  0.0078
  216POPC   C1A 2958   0.624   5.853   5.658  0.0157 -0.0662  0.0417
  216POPC   D2A 2959   0.690   5.807   6.131  0.1487 -0.1951 -0.0303
  216POPC   C3A 2960   0.444   5.489   6.327 -0.3416  0.3561 -0.0226
  216POPC   C4A 2961   0.181   5.577   6.664 -0.2208  0.0241 -0.0139
  216POPC   C1B 2962   0.627   5.349   5.851 -0.1530 -0.4060  0.2812
  216POPC   C2B 2963   0.653   5.050   6.166 -0.2622 -0.1610  0.2240
  216POPC   C3B 2964   0.519   5.033   6.465  0.1138  0.0966 -0.0192
  216POPC   C4B 2965   0.528   5.246   6.783 -0.1782  0.0035 -0.2703
  217POPC   NC3 2966   4.845   1.980   4.376 -0.2990  0.0636  0.0624
  217POPC   PO4 2967   4.843   1.564   4.572  0.0192  0.5357  0.2340
  217POPC   GL1 2968   4.750   1.575   4.941  0.0905  0.0672  0.1041
  217POPC   GL2 2969   4.714   1.926   5.069  0.1894 -0.0497  0.2214
  217POPC   C1A 2970   4.900   1.227   5.262  0.0325  0.1334 -0.2283
  217POPC   D2A 2971   5.156   1.166   5.534  0.0678 -0.2387  0.1283
  217POPC   C3A 2972   5.217   1.011   5.933  0.1918  0.2180  0.0557
  217POPC   C4A 2973   4.951   0.890   6.244  0.2016 -0.2321  0.0711
  217POPC   C1B 2974   4.842   1.709   5.463 -0.1521  0.2658 -0.0151
  217POPC   C2B 2975   4.884   1.505   5.870 -0.1376  0.2995  0.2990
  217POPC   C3B 2976   4.997   1.418   6.244  0.1434  0.1485  0.1895
  217POPC   C4B 2977   5.304   1.223   6.455 -0.1424 -0.0644 -0.0079
  218POPC   NC3 2978   4.322   1.309   4.662  0.2182  0.2046 -0.2069
  218POPC   PO4 2979   4.350   1.842   4.798 -0.0947 -0.2599  0.1535
  218POPC   GL1 2980   4.294   1.710   5.147 -0.1235 -0.0507  0.0332
  218POPC   GL2 2981   4.127   1.567   5.088 -0.0366  0.2001  0.2227
  218POPC   C1A 2982   4.416   1.596   5.613  0.0103 -0.1138  0.4326
  218POPC   D2A 2983   4.468   1.788   5.968 -0.1950  0.1775 -0.2224
  218POPC   C3A 2984   4.685   2.194   6.011  0.0764 -0.0361  0.0620
  218POPC   C4A 2985   4.900   2.449   6.262 -0.0053  0.1144 -0.1483
  218POPC   C1B 2986   4.124   1.263   5.376  0.2884  0.2212 -0.1371
  218POPC   C2B 2987   4.012   1.144   5.793 -0.0452 -0.3208 -0.0494
  218POPC   C3B 2988   4.193   0.781   6.080 -0.1373 -0.2440 -0.0047
  218POPC   C4B 2989   4.514   0.822   6.386  0.3316  0.1155  0.0034
  219POPC   NC3 2990   0.676   0.033   3.999 -0.2705  0.1844  0.0448
  219POPC   PO4 2991   1.076   0.068   4.160 -0.2253  0.1086 -0.0692
  219POPC   GL1 2992   0.587   0.075   4.474 -0.2475 -0.0853 -0.3760
  219POPC   GL2 2993   0.325  -0.138   4.612  0.1398  0.0099 -0.2793
  219POPC   C1A 2994   0.397   0.165   4.951 -0.2618 -0.1616 -0.0976
  219POPC   D2A 2995   0.257   0.285   5.340  0.0910  0.2986  0.1749
  219POPC   C3A 2996   0.598   0.509   5.651 -0.2091  0.2422 -0.0213
  219POPC   C4A 2997   1.083   0.557   5.689  0.6081 -0.1384 -0.1551
  219POPC   C1B 2998  -0.024  -0.201   4.847 -0.0788 -0.0504  0.2719
  219POPC   C2B 2999  -0.515  -0.210   4.823  0.1505  0.0239 -0.1018
  219POPC   C3B 3000  -0.872   0.004   5.120  0.1413  0.2553  0.0975
  219POPC   C4B 3001  -1.176   0.184   5.446 -0.0562 -0.0072 -0.2492
  220POPC   NC3 3002   7.108   6.884   4.821  0.1420 -0.0759 -0.2071
  220POPC   PO4 3003   7.234   7.255   4.956 -0.0837 -0.0282  0.2021
  220POPC   GL1 3004   7.246   7.424   5.206  0.1497  0.2338  0.0120
  220POPC   GL2 3005   7.621   7.303   5.255  0.0213 -0.1617  0.0991
  220POPC   C1A 3006   7.450   7.554   5.616  0.1190 -0.1522  0.2362
  220POPC   D2A 3007   7.173   7.653   5.813 -0.1174  0.0813  0.0151
  220POPC   C3A 3008   7.226   7.645   6.184 -0.2014 -0.3573 -0.3280
  220POPC   C4A 3009   7.524   7.380   6.408  0.1474  0.2998  0.1557
  220POPC   C1B 3010   7.760   6.921   5.453 -0.0126 -0.2175 -0.1284
  220POPC   C2B 3011   7.567   6.665   5.837 -0.0145  0.1157 -0.0191
  220POPC   C3B 3012   7.359   6.550   6.287  0.1824  0.0758  0.1437
  220POPC   C4B 3013   7.320   6.513   6.713 -0.1655 -0.0104 -0.0592
  221POPC   NC3 3014   5.184   6.327   4.656  0.4830  0.0252 -0.4105
  221POPC   PO4 3015   5.439   6.676   4.521 -0.1153 -0.2183  0.3067
  221POPC   GL1 3016   5.473   6.647   5.028 -0.1053 -0.0897  0.0643
  221POPC   GL2 3017   5.800   6.690   5.130 -0.1110  0.0462  0.2680
  221POPC   C1A 3018   5.402   6.481   5.360 -0.0463  0.1699  0.2101
  221POPC   D2A 3019   5.047   6.324   5.522  0.0705 -0.0054 -0.1518
  221POPC   C3A 3020   4.731   6.397   5.225 -0.1093  0.0186 -0.1445
  221POPC   C4A 3021   4.493   6.230   4.926 -0.1294 -0.0612 -0.2755
  221POPC   C1B 3022   5.805   6.843   5.502  0.1313  0.0145  0.1743
  221POPC   C2B 3023   5.578   6.884   5.891  0.1229 -0.1792 -0.0319
  221POPC   C3B 3024   5.143   7.016   6.073  0.0219 -0.0011  0.0909
  221POPC   C4B 3025   5.213   7.110   6.541 -0.0780  0.2256 -0.3241
  222POPC   NC3 3026   5.773   2.429   4.640  0.1134 -0.0540 -0.0105
  222POPC   PO4 3027   5.362   2.569   4.685 -0.0068 -0.1138  0.0610
  222POPC   GL1 3028   5.235   2.422   5.111  0.2155 -0.1686 -0.2396
  222POPC   GL2 3029   5.148   2.148   5.266  0.0908 -0.0085 -0.0531
  222POPC   C1A 3030   5.408   2.586   5.484  0.0814  0.2234 -0.0072
  222POPC   D2A 3031   5.128   2.610   5.844  0.0502 -0.0452 -0.1309
  222POPC   C3A 3032   4.917   2.993   5.918  0.2411  0.1437 -0.1864
  222POPC   C4A 3033   4.889   3.125   6.361  0.1028 -0.0534  0.0388
  222POPC   C1B 3034   5.559   2.070   5.512  0.1903 -0.0613 -0.3479
  222POPC   C2B 3035   5.649   2.031   5.932  0.2839  0.0184 -0.0017
  222POPC   C3B 3036   5.516   2.367   6.132 -0.0114  0.0127 -0.0724
  222POPC   C4B 3037   5.293   2.354   6.648  0.2608 -0.1664  0.1939
  223POPC   NC3 3038   1.583   5.560   4.770  0.3702 -0.2033  0.1957
  223POPC   PO4 3039   1.249   5.299   4.882  0.1139 -0.0474  0.2343
  223POPC   GL1 3040   1.124   5.243   5.275  0.0158  0.0489 -0.1132
  223POPC   GL2 3041   1.129   5.421   5.348  0.0491 -0.0027  0.0865
  223POPC   C1A 3042   0.983   5.061   5.617  0.1470  0.3411  0.5117
  223POPC   D2A 3043   1.103   5.128   5.994  0.0297  0.1267 -0.0507
  223POPC   C3A 3044   1.476   5.487   5.834  0.0536 -0.0568  0.0500
  223POPC   C4A 3045   1.683   5.857   5.773  0.1458 -0.0634 -0.2477
  223POPC   C1B 3046   1.034   5.574   5.719 -0.2465  0.0297  0.1680
  223POPC   C2B 3047   1.206   5.793   6.124 -0.1359  0.0123 -0.2892
  223POPC   C3B 3048   1.606   5.696   6.308 -0.2428 -0.3916  0.2597
  223POPC   C4B 3049   1.890   5.360   6.128  0.2892  0.0551  0.2171
  224POPC   NC3 3050   9.723   5.217   4.624 -0.0396 -0.1689 -0.0297
  224POPC   PO4 3051   9.950   4.852   4.631 -0.1912 -0.0221  0.0768
  224POPC   GL1 3052  10.033   5.083   5.040  0.1905 -0.0680 -0.2478
  224POPC   GL2 3053   9.949   4.765   5.327 -0.3257 -0.0701  0.1633
  224POPC   C1A 3054  10.001   5.262   5.503 -0.2471 -0.2294  0.0071
  224POPC   D2A 3055   9.659   5.488   5.675 -0.1337 -0.0757  0.1783
  224POPC   C3A 3056   9.638   5.920   5.708 -0.1479 -0.0189  0.1574
  224POPC   C4A 3057   9.450   6.276   5.863 -0.0733  0.0465  0.1762
  224POPC   C1B 3058   9.854   4.492   5.651  0.1004  0.0744 -0.1136
  224POPC   C2B 3059   9.614   4.336   5.915 -0.1003  0.1149 -0.0002
  224POPC   C3B 3060   9.402   4.398   6.339 -0.2190 -0.1545  0.2234
  224POPC   C4B 3061   9.291   4.700   6.765 -0.0213 -0.0283  0.0998
  225POPC   NC3 3062   1.120   0.271   4.603 -0.1619 -0.1310 -0.0768
  225POPC   PO4 3063   1.507   0.618   4.695  0.0596  0.0809  0.0726
  225POPC   GL1 3064   1.224   0.970   5.000 -0.1358  0.0701  0.0226
  225POPC   GL2 3065   1.290   1.211   5.184  0.0698  0.0645  0.0798
  225POPC   C1A 3066   0.819   0.928   5.253  0.3363 -0.2358 -0.2250
  225POPC   D2A 3067   0.383   0.765   5.260 -0.0297 -0.3026 -0.2110
  225POPC   C3A 3068   0.180   0.790   5.639 -0.2749  0.0908 -0.0648
  225POPC   C4A 3069   0.142   1.111   6.003 -0.1794  0.2203  0.1826
  225POPC   C1B 3070   1.214   1.381   5.663 -0.1706 -0.1875 -0.0700
  225POPC   C2B 3071   1.058   1.496   6.116  0.2337 -0.0597  0.0100
  225POPC   C3B 3072   0.887   1.718   6.415 -0.1826  0.0780 -0.1013
  225POPC   C4B 3073   0.785   2.007   6.806  0.1203 -0.0370 -0.2592
  226POPC   NC3 3074   1.375   8.351   5.018 -0.0954 -0.6085 -0.4021
  226POPC   PO4 3075   1.557   8.066   4.836 -0.1592 -0.0893 -0.1217
  226POPC   GL1 3076   1.561   8.038   5.341  0.0648 -0.0511  0.2012
  226POPC   GL2 3077   1.522   8.317   5.513 -0.0060  0.4693  0.0773
  226POPC   C1A 3078   1.337   7.907   5.750  0.2690  0.4219 -0.2638
  226POPC   D2A 3079   1.085   7.642   5.827 -0.1707  0.1296 -0.0512
  226POPC   C3A 3080   0.891   7.571   6.275  0.0938 -0.1524  0.2448
  226POPC   C4A 3081   1.018   7.272   6.539  0.2861  0.1537  0.0415
  226POPC   C1B 3082   1.400   8.405   5.875 -0.2979 -0.0344 -0.0600
  226POPC   C2B 3083   1.122   8.553   6.186  0.2561 -0.0744 -0.1024
  226POPC   C3B 3084   1.023   8.338   6.545  0.1730 -0.1097 -0.0507
  226POPC   C4B 3085   0.872   7.936   6.602  0.2322 -0.2207  0.1169
  227POPC   NC3 3086   8.772   2.576   3.682  0.2191 -0.2371  0.3008
  227POPC   PO4 3087   8.591   2.918   4.001 -0.0057 -0.1285  0.2409
  227POPC   GL1 3088   8.637   2.773   4.392  0.3582 -0.0097  0.0389
  227POPC   GL2 3089   8.806   3.034   4.682 -0.1273 -0.0719  0.2309
  227POPC   C1A 3090   8.355   2.917   4.694  0.1948 -0.0386 -0.1695
  227POPC   D2A 3091   8.315   3.060   5.117 -0.1019 -0.1745 -0.0967
  227POPC   C3A 3092   8.376   2.859   5.409  0.0115  0.0320  0.0152
  227POPC   C4A 3093   8.521   2.595   5.724  0.5469 -0.1394 -0.0176
  227POPC   C1B 3094   8.769   2.817   5.038 -0.3154  0.0437  0.1128
  227POPC   C2B 3095   8.940   2.669   5.456 -0.1422 -0.1326 -0.2362
  227POPC   C3B 3096   9.274   2.649   5.773  0.2012 -0.1689 -0.1767
  227POPC   C4B 3097   9.294   2.435   6.151  0.2438  0.3138 -0.1340
  228POPC   NC3 3098   2.845   9.305   4.800  0.3804 -0.2372  0.0389
  228POPC   PO4 3099   3.231   9.019   4.892  0.0439 -0.0517  0.0313
  228POPC   GL1 3100   3.311   9.030   5.338  0.1508 -0.3257 -0.2067
  228POPC   GL2 3101   3.503   9.290   5.583 -0.0483  0.2093 -0.3654
  228POPC   C1A 3102   3.582   8.776   5.566  0.0608 -0.0716 -0.1254
  228POPC   D2A 3103   3.566   8.312   5.746 -0.1367  0.0811  0.1739
  228POPC   C3A 3104   3.197   8.288   6.103  0.0234  0.2542 -0.0951
  228POPC   C4A 3105   2.966   8.287   6.521  0.3116 -0.2510 -0.0237
  228POPC   C1B 3106   3.471   9.434   6.079  0.0889 -0.2522  0.0634
  228POPC   C2B 3107   3.025   9.482   6.214  0.3167  0.1634 -0.5036
  228POPC   C3B 3108   2.588   9.562   6.346  0.1480 -0.2071 -0.1905
  228POPC   C4B 3109   2.359   9.668   6.697  0.0061 -0.1598 -0.0361
  229POPC   NC3 3110   0.948   2.295   4.472 -0.0749  0.1466 -0.1803
  229POPC   PO4 3111   0.744   2.620   4.312  0.0936 -0.0345  0.4201
  229POPC   GL1 3112   0.871   2.793   4.710  0.0971  0.0306  0.3521
  229POPC   GL2 3113   0.917   2.537   4.879 -0.1164  0.1385  0.2192
  229POPC   C1A 3114   0.765   3.052   5.137 -0.1192 -0.0017  0.3221
  229POPC   D2A 3115   0.972   3.280   5.573  0.1650 -0.0528 -0.1070
  229POPC   C3A 3116   1.087   3.699   5.609  0.2679 -0.1542  0.1427
  229POPC   C4A 3117   0.988   4.057   5.961 -0.0787 -0.2037 -0.1491
  229POPC   C1B 3118   0.845   2.606   5.266  0.2693  0.1975 -0.0893
  229POPC   C2B 3119   0.432   2.416   5.416 -0.3349 -0.1760 -0.1244
  229POPC   C3B 3120  -0.046   2.174   5.459 -0.3089 -0.4200  0.0401
  229POPC   C4B 3121  -0.215   1.752   5.528  0.1134 -0.0919 -0.4055
  230POPC   NC3 3122   1.931   6.259   4.904 -0.1391  0.1241 -0.1136
  230POPC   PO4 3123   2.027   5.772   4.953  0.2761  0.0559  0.0878
  230POPC   GL1 3124   2.230   6.025   5.306 -0.6838  0.0372 -0.0410
  230POPC   GL2 3125   2.531   5.772   5.489 -0.2919 -0.4121 -0.3411
  230POPC   C1A 3126   2.070   6.161   5.717 -0.0632 -0.1912  0.0438
  230POPC   D2A 3127   2.136   6.402   6.000  0.1685 -0.2270 -0.0144
  230POPC   C3A 3128   2.585   6.614   6.065 -0.2704 -0.2848  0.2486
  230POPC   C4A 3129   2.739   6.947   6.391  0.1672 -0.2799 -0.1532
  230POPC   C1B 3130   2.617   5.687   5.869 -0.1826  0.1633 -0.1855
  230POPC   C2B 3131   2.747   5.623   6.247 -0.0462  0.1869  0.2797
  230POPC   C3B 3132   2.762   5.716   6.700  0.0001  0.0799 -0.0157
  230POPC   C4B 3133   2.899   6.016   6.960  0.1069  0.1892 -0.2822
  231POPC   NC3 3134   5.035   8.408   3.884 -0.4646  0.2222  0.0430
  231POPC   PO4 3135   4.718   8.337   4.129 -0.0847  0.0246  0.1020
  231POPC   GL1 3136   4.666   8.418   4.447 -0.3336 -0.1530  0.0571
  231POPC   GL2 3137   4.884   8.625   4.586  0.1205  0.1816  0.1749
  231POPC   C1A 3138   4.634   8.392   4.916 -0.0861 -0.1824 -0.0278
  231POPC   D2A 3139   4.474   8.611   5.306 -0.0555 -0.0126  0.1308
  231POPC   C3A 3140   4.138   8.697   5.326 -0.2913 -0.1496 -0.0482
  231POPC   C4A 3141   3.973   8.503   5.765  0.0647  0.1586 -0.3804
  231POPC   C1B 3142   4.975   8.719   5.015  0.0558  0.2916 -0.3070
  231POPC   C2B 3143   4.908   8.751   5.476  0.0485 -0.1837  0.2392
  231POPC   C3B 3144   5.075   9.123   5.647 -0.2515 -0.1387  0.0723
  231POPC   C4B 3145   5.464   9.410   5.490  0.0573 -0.0356  0.1574
  232POPC   NC3 3146   1.382   9.276   4.772  0.0013  0.0133  0.0446
  232POPC   PO4 3147   1.344   9.622   5.084 -0.1714 -0.1849 -0.0586
  232POPC   GL1 3148   0.952   9.376   5.066 -0.2809 -0.2722 -0.3963
  232POPC   GL2 3149   0.883   9.174   5.344  0.0484  0.0843 -0.4095
  232POPC   C1A 3150   0.506   9.513   5.036  0.1828 -0.0122 -0.0844
  232POPC   D2A 3151   0.202   9.687   5.290 -0.1852  0.6683  0.3268
  232POPC   C3A 3152   0.028   9.630   5.687 -0.3024  0.0248 -0.1533
  232POPC   C4A 3153  -0.149   9.695   6.088  0.0241  0.0032  0.1881
  232POPC   C1B 3154   0.439   9.312   5.565  0.0333 -0.3841 -0.2529
  232POPC   C2B 3155   0.188   9.251   5.991 -0.0336 -0.1704 -0.0985
  232POPC   C3B 3156   0.017   9.104   6.351  0.1762 -0.3178  0.0658
  232POPC   C4B 3157   0.202   8.779   6.653 -0.0412  0.1094  0.2246
  233POPC   NC3 3158   6.307   4.920   4.387 -0.0084  0.3043 -0.0567
  233POPC   PO4 3159   5.951   4.736   4.529  0.0513 -0.0950  0.1406
  233POPC   GL1 3160   6.120   4.835   4.906 -0.1189  0.1567 -0.0561
  233POPC   GL2 3161   5.772   5.067   5.021 -0.0261  0.1363 -0.0599
  233POPC   C1A 3162   6.296   4.938   5.265  0.2053 -0.3727 -0.3712
  233POPC   D2A 3163   6.122   5.219   5.542  0.0566  0.1683  0.0962
  233POPC   C3A 3164   6.130   5.360   5.966 -0.2524  0.0912 -0.0790
  233POPC   C4A 3165   5.871   5.568   6.391 -0.0873  0.2085  0.1594
  233POPC   C1B 3166   5.612   5.366   5.388 -0.2574 -0.1004  0.2776
  233POPC   C2B 3167   5.597   5.569   5.841 -0.1619  0.1177 -0.1537
  233POPC   C3B 3168   5.300   5.796   6.041 -0.0280  0.1159  0.1745
  233POPC   C4B 3169   4.925   5.686   6.280  0.0017  0.1195 -0.0128
  234POPC   NC3 3170   3.520   4.280   4.116  0.0475  0.1740  0.1051
  234POPC   PO4 3171   3.216   4.385   4.419  0.0506  0.1315  0.3409
  234POPC   GL1 3172   3.150   4.421   4.782 -0.3000  0.0918  0.1258
  234POPC   GL2 3173   3.024   4.684   4.961 -0.0476 -0.0072  0.2639
  234POPC   C1A 3174   2.895   4.196   5.034  0.1099 -0.0141 -0.0224
  234POPC   D2A 3175   2.551   4.234   5.384  0.0708 -0.2448  0.1138
  234POPC   C3A 3176   2.636   4.169   5.853 -0.2945 -0.1761  0.0164
  234POPC   C4A 3177   2.596   4.287   6.232 -0.2047 -0.1619  0.2819
  234POPC   C1B 3178   2.965   4.518   5.438 -0.2895  0.2792  0.0230
  234POPC   C2B 3179   2.880   4.674   5.921  0.1692  0.1103  0.0706
  234POPC   C3B 3180   2.511   4.754   6.178 -0.2462 -0.1145 -0.0234
  234POPC   C4B 3181   2.306   4.597   6.529  0.3234  0.0042 -0.0251
  235POPC   NC3 3182   4.004   2.781   5.126 -0.0259 -0.2069 -0.0087
  235POPC   PO4 3183   4.294   3.159   4.894  0.1723 -0.0830  0.3894
  235POPC   GL1 3184   4.491   3.026   5.248 -0.1283  0.0663  0.2921
  235POPC   GL2 3185   4.254   3.127   5.402 -0.1547 -0.1194  0.0063
  235POPC   C1A 3186   4.780   3.064   5.439 -0.1806 -0.0049  0.1525
  235POPC   D2A 3187   5.204   3.067   5.521 -0.5626  0.0581 -0.1561
  235POPC   C3A 3188   5.347   3.108   6.051 -0.2423 -0.3228 -0.1957
  235POPC   C4A 3189   5.271   2.814   6.351  0.2573  0.0169 -0.1015
  235POPC   C1B 3190   4.381   3.059   5.815  0.0067  0.1635  0.2986
  235POPC   C2B 3191   4.458   2.825   6.196  0.0590  0.0880 -0.1179
  235POPC   C3B 3192   4.342   2.727   6.574 -0.2116  0.4656  0.0867
  235POPC   C4B 3193   4.026   2.532   6.643  0.0039 -0.1093 -0.0148
  236POPC   NC3 3194   6.583   2.846   4.812  0.0643 -0.1389 -0.1907
  236POPC   PO4 3195   6.992   2.984   4.579 -0.2211  0.3632  0.5131
  236POPC   GL1 3196   7.379   3.004   4.805 -0.0038  0.1245  0.3902
  236POPC   GL2 3197   7.153   3.010   5.055 -0.3501 -0.1235 -0.0898
  236POPC   C1A 3198   7.679   3.148   5.101 -0.2675  0.0305  0.1259
  236POPC   D2A 3199   7.882   2.828   5.402  0.5032 -0.1568 -0.1894
  236POPC   C3A 3200   7.965   2.942   5.799 -0.0111 -0.1772 -0.2154
  236POPC   C4A 3201   8.334   2.832   6.142 -0.0432  0.0622  0.4304
  236POPC   C1B 3202   7.374   2.943   5.436 -0.0064 -0.1658 -0.1085
  236POPC   C2B 3203   7.490   2.987   5.844 -0.0740  0.1694  0.1791
  236POPC   C3B 3204   7.297   3.082   6.207 -0.2774 -0.1174  0.0824
  236POPC   C4B 3205   7.349   3.256   6.628  0.0161  0.0026 -0.1257
  237POPC   NC3 3206   7.232   2.096   3.623  0.0728  0.1267  0.0972
  237POPC   PO4 3207   7.029   2.399   3.935 -0.1638 -0.0554 -0.2308
  237POPC   GL1 3208   7.302   2.257   4.313 -0.0172  0.2833  0.2163
  237POPC   GL2 3209   7.067   2.042   4.497 -0.1772 -0.4440  0.3358
  237POPC   C1A 3210   7.493   2.459   4.599  0.2352  0.2326 -0.1160
  237POPC   D2A 3211   7.499   2.578   5.079  0.1098  0.0624 -0.2487
  237POPC   C3A 3212   7.601   2.421   5.479 -0.0487 -0.0418 -0.3068
  237POPC   C4A 3213   7.792   1.978   5.603  0.2007 -0.0786  0.0951
  237POPC   C1B 3214   7.248   2.156   4.879 -0.1659  0.2996 -0.1796
  237POPC   C2B 3215   7.101   2.270   5.361 -0.2872  0.1445  0.3534
  237POPC   C3B 3216   6.813   2.168   5.687  0.0877  0.1428  0.2300
  237POPC   C4B 3217   6.482   2.060   6.072 -0.0640 -0.1650 -0.0176
  238POPC   NC3 3218   8.857   5.804   4.727  0.1944  0.0449  0.0347
  238POPC   PO4 3219   8.765   5.401   4.518 -0.2834  0.3879 -0.1204
  238POPC   GL1 3220   8.588   5.249   4.888 -0.3569 -0.1276 -0.0506
  238POPC   GL2 3221   8.756   5.530   5.139 -0.1383 -0.0497  0.0814
  238POPC   C1A 3222   8.588   5.094   5.340  0.0676  0.2681  0.0787
  238POPC   D2A 3223   8.775   5.005   5.780 -0.1150 -0.1185 -0.3133
  238POPC   C3A 3224   8.630   4.625   5.959  0.1344 -0.1371  0.2019
  238POPC   C4A 3225   8.302   4.418   6.152 -0.0920  0.1959 -0.1914
  238POPC   C1B 3226   8.687   5.678   5.477 -0.2173 -0.3411  0.0945
  238POPC   C2B 3227   8.729   5.485   5.925  0.2040 -0.1845  0.0801
  238POPC   C3B 3228   8.717   5.360   6.281 -0.0465 -0.1534  0.1257
  238POPC   C4B 3229   8.404   5.455   6.588 -0.3973  0.0923  0.2248
  239POPC   NC3 3230   6.098   6.304   4.921  0.0724 -0.2997 -0.1968
  239POPC   PO4 3231   5.700   6.292   4.772  0.1768 -0.1987 -0.0601
  239POPC   GL1 3232   5.721   6.100   5.207  0.1082  0.0228  0.1953
  239POPC   GL2 3233   5.979   6.208   5.413 -0.0560 -0.1738  0.0598
  239POPC   C1A 3234   5.512   5.932   5.540 -0.0190  0.2768 -0.1159
  239POPC   D2A 3235   5.432   6.233   5.939  0.0590 -0.1602 -0.0221
  239POPC   C3A 3236   5.169   6.140   6.361 -0.0392  0.0559  0.3270
  239POPC   C4A 3237   4.949   6.094   6.727 -0.1587 -0.1636  0.1232
  239POPC   C1B 3238   5.797   6.392   5.641 -0.0362  0.1905 -0.0666
  239POPC   C2B 3239   5.870   6.501   5.965  0.1994 -0.1018  0.0458
  239POPC   C3B 3240   6.075   6.530   6.304 -0.0514 -0.0508  0.2233
  239POPC   C4B 3241   6.322   6.769   6.737  0.0065 -0.3573 -0.1089
  240POPC   NC3 3242   7.606   8.015   4.602 -0.0762  0.0491  0.0607
  240POPC   PO4 3243   8.057   7.844   4.513  0.1162  0.0220  0.1251
  240POPC   GL1 3244   7.937   7.785   4.978  0.0421  0.1308 -0.1706
  240POPC   GL2 3245   7.568   7.791   5.066 -0.1351 -0.2834 -0.0392
  240POPC   C1A 3246   7.819   7.908   5.472 -0.0174  0.0706 -0.3357
  240POPC   D2A 3247   7.364   8.086   5.730 -0.0308 -0.0909 -0.1037
  240POPC   C3A 3248   7.370   8.248   6.208  0.4992 -0.2522 -0.0199
  240POPC   C4A 3249   7.332   8.022   6.566 -0.0425 -0.1878  0.1119
  240POPC   C1B 3250   7.157   7.890   5.336  0.4892  0.2454  0.4125
  240POPC   C2B 3251   6.789   8.040   5.572 -0.1151  0.2068  0.1169
  240POPC   C3B 3252   6.442   8.252   5.849 -0.1854 -0.1607  0.2968
  240POPC   C4B 3253   6.341   8.270   6.231  0.1212  0.4222 -0.0117
  241POPC   NC3 3254   3.121   7.804   4.403  0.2436  0.2477  0.1300
  241POPC   PO4 3255   3.534   7.651   4.381 -0.1879  0.0607  0.0001
  241POPC   GL1 3256   3.678   7.613   4.801 -0.1201  0.3412  0.1964
  241POPC   GL2 3257   3.331   7.758   4.909  0.0934 -0.1539 -0.4847
  241POPC   C1A 3258   3.586   7.465   5.213  0.1964  0.1046  0.0060
  241POPC   D2A 3259   3.463   7.546   5.534 -0.1180  0.2932 -0.3887
  241POPC   C3A 3260   3.541   7.217   5.819  0.1330  0.2318 -0.2489
  241POPC   C4A 3261   3.841   6.962   5.906 -0.0935  0.2396  0.0181
  241POPC   C1B 3262   3.149   7.841   5.342  0.0374 -0.0933 -0.2018
  241POPC   C2B 3263   3.186   7.950   5.729 -0.1482 -0.0036 -0.1487
  241POPC   C3B 3264   3.434   7.765   5.996  0.0111  0.1091 -0.0302
  241POPC   C4B 3265   3.855   7.492   6.111  0.1474 -0.1234  0.2273
  242POPC   NC3 3266   1.707   2.930   4.799  0.1382 -0.0838  0.1800
  242POPC   PO4 3267   1.742   2.538   4.646 -0.1313  0.0467 -0.1526
  242POPC   GL1 3268   1.806   2.370   5.107 -0.1531 -0.2994 -0.1450
  242POPC   GL2 3269   1.776   2.597   5.284 -0.2266  0.0427  0.0465
  242POPC   C1A 3270   2.198   2.235   5.359  0.4412  0.0210  0.1949
  242POPC   D2A 3271   2.520   2.222   5.672  0.0365 -0.0014  0.1439
  242POPC   C3A 3272   2.734   2.749   5.874 -0.0760  0.0767 -0.1208
  242POPC   C4A 3273   3.163   3.046   5.733  0.4670 -0.1737  0.2751
  242POPC   C1B 3274   1.756   2.409   5.584 -0.1440 -0.3373 -0.0566
  242POPC   C2B 3275   2.069   2.346   5.843 -0.0398 -0.0693 -0.2760
  242POPC   C3B 3276   2.397   2.496   6.165  0.1740 -0.1054  0.2658
  242POPC   C4B 3277   2.208   2.425   6.569 -0.0766  0.4083 -0.5489
  243POPC   NC3 3278   8.978   3.744   4.053 -0.2304 -0.1341 -0.0194
  243POPC   PO4 3279   9.111   3.539   4.554 -0.0294 -0.0719  0.1929
  243POPC   GL1 3280   9.081   3.544   4.885 -0.2039  0.0465 -0.0435
  243POPC   GL2 3281   9.207   3.234   5.032  0.1008  0.2014 -0.0325
  243POPC   C1A 3282   9.118   3.507   5.378 -0.0939  0.0128 -0.2206
  243POPC   D2A 3283   9.028   3.565   5.840  0.1688 -0.1185  0.0584
  243POPC   C3A 3284   8.654   3.393   6.043  0.1294  0.1447 -0.1105
  243POPC   C4A 3285   8.334   3.246   5.684 -0.3248 -0.1819  0.2407
  243POPC   C1B 3286   9.250   3.019   5.425 -0.0706 -0.2961 -0.2516
  243POPC   C2B 3287   9.368   3.184   5.829  0.3394 -0.1710  0.2414
  243POPC   C3B 3288   9.468   3.371   6.115 -0.0359  0.0132 -0.1852
  243POPC   C4B 3289   9.783   3.554   6.297 -0.2533  0.0358  0.1042
  244POPC   NC3 3290   4.007   0.343   4.758  0.0611 -0.3622  0.0515
  244POPC   PO4 3291   4.150   0.785   4.565  0.3707 -0.0805  0.2495
  244POPC   GL1 3292   4.186   0.955   5.003  0.2363  0.0616  0.2513
  244POPC   GL2 3293   4.492   1.025   5.058 -0.1232 -0.2480  0.0071
  244POPC   C1A 3294   4.088   0.682   5.442  0.1030  0.1650  0.3676
  244POPC   D2A 3295   4.068   0.200   5.648  0.0778 -0.1204 -0.1244
  244POPC   C3A 3296   3.926   0.126   6.027  0.0294  0.0872  0.1782
  244POPC   C4A 3297   3.511   0.074   5.987 -0.2363 -0.0234 -0.1853
  244POPC   C1B 3298   4.590   0.837   5.386  0.1249  0.0805  0.0352
  244POPC   C2B 3299   4.540   1.119   5.718  0.3160  0.0929  0.1571
  244POPC   C3B 3300   4.405   1.224   6.128 -0.0903  0.1157 -0.1141
  244POPC   C4B 3301   4.615   1.323   6.483  0.0540  0.1399 -0.1573
  245POPC   NC3 3302   6.575   2.320   4.081 -0.1672 -0.0985 -0.1980
  245POPC   PO4 3303   6.247   2.317   4.491  0.0379  0.0979 -0.0873
  245POPC   GL1 3304   6.525   2.275   4.802 -0.2804  0.2062  0.0742
  245POPC   GL2 3305   6.324   2.436   5.012 -0.1204  0.3584  0.0039
  245POPC   C1A 3306   6.723   1.982   5.096  0.0704  0.0662  0.0162
  245POPC   D2A 3307   6.567   1.779   5.444  0.0105 -0.2754  0.3205
  245POPC   C3A 3308   6.746   1.704   5.802 -0.0729 -0.1600 -0.3498
  245POPC   C4A 3309   7.036   1.507   6.009 -0.3736  0.1524  0.1705
  245POPC   C1B 3310   6.562   2.359   5.299  0.0962 -0.0730 -0.0010
  245POPC   C2B 3311   6.867   2.653   5.481  0.0905  0.0339  0.1099
  245POPC   C3B 3312   7.177   2.540   5.753 -0.3404  0.1532  0.0447
  245POPC   C4B 3313   7.476   2.341   6.021  0.0337  0.0125  0.2624
  246POPC   NC3 3314   8.456   8.148   4.309  0.1632 -0.0472 -0.0266
  246POPC   PO4 3315   8.728   7.987   4.502  0.2173 -0.0497  0.0674
  246POPC   GL1 3316   8.763   8.104   4.946  0.0485 -0.0781  0.0913
  246POPC   GL2 3317   9.042   7.938   4.928  0.0325  0.0126  0.2432
  246POPC   C1A 3318   8.846   7.993   5.402  0.0656  0.1154 -0.1459
  246POPC   D2A 3319   8.734   7.806   5.854 -0.1817 -0.1922  0.0323
  246POPC   C3A 3320   8.517   7.814   6.193  0.0868  0.0393 -0.1524
  246POPC   C4A 3321   8.287   8.047   6.507 -0.2038  0.1272  0.1061
  246POPC   C1B 3322   9.294   7.911   5.260 -0.1294  0.2154 -0.2361
  246POPC   C2B 3323   9.525   7.914   5.669 -0.1792 -0.2104 -0.2182
  246POPC   C3B 3324   9.616   7.602   5.880 -0.1029  0.2029  0.1657
  246POPC   C4B 3325   9.884   7.562   6.312  0.1634  0.0743 -0.2295
  247POPC   NC3 3326   8.972   1.472   3.373  0.2447  0.1098  0.5083
  247POPC   PO4 3327   9.295   1.156   3.431 -0.1027  0.0395  0.0773
  247POPC   GL1 3328   9.185   1.062   3.831 -0.0448  0.0720 -0.1808
  247POPC   GL2 3329   9.448   1.136   4.010 -0.3210 -0.1807  0.2295
  247POPC   C1A 3330   9.105   0.928   4.333  0.2740 -0.3011  0.0634
  247POPC   D2A 3331   9.445   0.676   4.569 -0.0477  0.1212 -0.1049
  247POPC   C3A 3332   9.841   0.735   4.426 -0.0569 -0.1080 -0.0360
  247POPC   C4A 3333  10.176   0.516   4.581 -0.1035 -0.1801  0.1440
  247POPC   C1B 3334   9.534   1.204   4.365  0.3071  0.1569  0.1732
  247POPC   C2B 3335   9.268   1.153   4.796  0.1959  0.0635  0.0864
  247POPC   C3B 3336   9.050   0.863   4.889  0.2160 -0.0396  0.1516
  247POPC   C4B 3337   8.829   0.455   4.960  0.1193 -0.1196 -0.0555
  248POPC   NC3 3338   3.007   6.232   4.608  0.0087 -0.2865  0.1756
  248POPC   PO4 3339   2.637   6.432   4.589  0.1114  0.1620  0.3796
  248POPC   GL1 3340   2.937   6.600   4.923  0.0831 -0.3223 -0.4278
  248POPC   GL2 3341   3.329   6.420   4.940 -0.0827 -0.3796  0.0247
  248POPC   C1A 3342   3.005   6.702   5.366  0.0777 -0.1567 -0.2533
  248POPC   D2A 3343   2.925   6.902   5.815 -0.0350  0.3754  0.1908
  248POPC   C3A 3344   2.594   7.234   5.912  0.4349 -0.1220  0.0042
  248POPC   C4A 3345   2.150   7.380   5.963 -0.0253  0.2218  0.0538
  248POPC   C1B 3346   3.278   6.312   5.376 -0.0264 -0.0205 -0.0563
  248POPC   C2B 3347   2.997   6.334   5.793 -0.2082  0.2206  0.1125
  248POPC   C3B 3348   2.957   6.053   6.018  0.0066 -0.2492  0.2922
  248POPC   C4B 3349   3.168   5.944   6.446 -0.0438 -0.1918  0.1535
  249POPC   NC3 3350   1.404   7.549   4.877 -0.0020  0.3482 -0.0529
  249POPC   PO4 3351   1.105   7.834   5.156 -0.0821 -0.0896  0.1294
  249POPC   GL1 3352   1.038   7.401   5.336 -0.1900 -0.1954  0.0161
  249POPC   GL2 3353   0.726   7.480   5.352  0.0141 -0.1920  0.0957
  249POPC   C1A 3354   1.094   7.198   5.686 -0.0568  0.0067  0.0506
  249POPC   D2A 3355   1.062   6.935   6.048  0.1907  0.1047  0.1129
  249POPC   C3A 3356   1.324   6.493   6.020  0.1177 -0.1802 -0.0822
  249POPC   C4A 3357   1.506   6.218   6.171  0.1703 -0.3292  0.1903
  249POPC   C1B 3358   0.617   7.375   5.773 -0.5809 -0.2950 -0.1295
  249POPC   C2B 3359   0.553   7.198   6.106  0.1056  0.2217 -0.1139
  249POPC   C3B 3360   0.499   7.251   6.429  0.0319  0.1890 -0.0272
  249POPC   C4B 3361   0.670   7.392   6.844  0.2393 -0.0515  0.1385
  250POPC   NC3 3362   0.783   3.662   4.701  0.2048 -0.0684 -0.1292
  250POPC   PO4 3363   0.915   4.063   4.856 -0.1564 -0.0396 -0.0995
  250POPC   GL1 3364   0.762   3.858   5.177 -0.1479 -0.1651 -0.0718
  250POPC   GL2 3365   0.592   3.530   5.143 -0.3093 -0.1379  0.2224
  250POPC   C1A 3366   0.630   3.922   5.633  0.1084 -0.0362  0.0645
  250POPC   D2A 3367   0.468   4.091   6.075  0.4098  0.0716 -0.0291
  250POPC   C3A 3368   0.124   4.179   6.136 -0.1704  0.1339 -0.0860
  250POPC   C4A 3369  -0.099   4.035   6.487 -0.3592  0.1786  0.3618
  250POPC   C1B 3370   0.507   3.448   5.525 -0.3010  0.2215 -0.0979
  250POPC   C2B 3371   0.431   3.201   5.955  0.1005 -0.0746  0.1252
  250POPC   C3B 3372   0.303   3.201   6.320  0.0102  0.1328 -0.0748
  250POPC   C4B 3373   0.068   3.264   6.631 -0.0494  0.0305 -0.0559
  251POPC   NC3 3374   5.152   1.901   4.774  0.4588 -0.1275  0.0823
  251POPC   PO4 3375   5.540   2.072   4.917 -0.0588  0.1525 -0.2565
  251POPC   GL1 3376   5.539   1.705   5.144 -0.1466  0.1521  0.4708
  251POPC   GL2 3377   5.239   1.624   5.286 -0.0337  0.0281 -0.1081
  251POPC   C1A 3378   5.656   1.434   5.427  0.2604  0.3545  0.0506
  251POPC   D2A 3379   5.839   1.342   5.860  0.0682 -0.1229 -0.3174
  251POPC   C3A 3380   5.680   1.142   6.131  0.2490  0.2300  0.1609
  251POPC   C4A 3381   5.821   0.942   6.534  0.3238 -0.1930 -0.0157
  251POPC   C1B 3382   5.372   1.573   5.800  0.0449  0.2375  0.0381
  251POPC   C2B 3383   5.519   1.681   6.249 -0.1511 -0.0243 -0.2367
  251POPC   C3B 3384   5.724   1.582   6.542  0.5233 -0.2506 -0.3971
  251POPC   C4B 3385   5.908   1.380   6.832  0.1563  0.1953  0.0891
  252POPC   NC3 3386   5.726   4.473   4.944 -0.0053  0.0787  0.2282
  252POPC   PO4 3387   5.329   4.418   4.985  0.1103  0.3503  0.1831
  252POPC   GL1 3388   5.472   4.497   5.381  0.2652  0.2868 -0.1898
  252POPC   GL2 3389   5.362   4.870   5.288 -0.0844 -0.1777  0.4932
  252POPC   C1A 3390   5.466   4.527   5.873 -0.1678 -0.2405 -0.1222
  252POPC   D2A 3391   5.149   4.697   6.135 -0.0270 -0.0863  0.4695
  252POPC   C3A 3392   4.969   4.398   6.480  0.0046  0.0781  0.0573
  252POPC   C4A 3393   4.969   4.468   6.851 -0.2421 -0.3520 -0.0730
  252POPC   C1B 3394   5.399   5.037   5.750  0.0029 -0.2417 -0.2243
  252POPC   C2B 3395   5.751   5.076   6.021  0.1237 -0.2223 -0.0442
  252POPC   C3B 3396   6.168   4.934   6.164  0.0588  0.0578  0.0088
  252POPC   C4B 3397   6.457   5.248   6.318  0.0234 -0.1013  0.1044
  253POPC   NC3 3398   5.009   0.567   4.633  0.1121  0.1727  0.3869
  253POPC   PO4 3399   4.620   0.552   4.726  0.0292 -0.0362  0.0051
  253POPC   GL1 3400   4.912   0.429   5.080  0.0662 -0.3447 -0.1933
  253POPC   GL2 3401   4.970   0.634   5.169 -0.0806 -0.0738  0.1038
  253POPC   C1A 3402   5.058   0.157   5.313 -0.0710  0.3372 -0.1363
  253POPC   D2A 3403   5.355   0.061   5.620 -0.1032 -0.1206 -0.1996
  253POPC   C3A 3404   5.254  -0.280   5.923 -0.0509 -0.0814  0.1224
  253POPC   C4A 3405   5.186  -0.592   6.156 -0.1283 -0.3291 -0.0279
  253POPC   C1B 3406   5.079   0.658   5.551  0.1243  0.0517 -0.0672
  253POPC   C2B 3407   5.422   0.538   5.782  0.1425  0.0334 -0.3343
  253POPC   C3B 3408   5.856   0.601   5.928  0.0475 -0.3607  0.1086
  253POPC   C4B 3409   6.001   0.498   6.316  0.0386 -0.0679 -0.0395
  254POPC   NC3 3410   1.994   5.019   4.421 -0.3290  0.1893 -0.1586
  254POPC   PO4 3411   2.005   5.258   4.824  0.1428  0.1298 -0.1556
  254POPC   GL1 3412   2.194   5.303   5.221  0.1181 -0.0781  0.2643
  254POPC   GL2 3413   2.132   5.088   5.426 -0.0037 -0.1267 -0.1937
  254POPC   C1A 3414   2.147   5.566   5.605  0.3557  0.0126  0.3726
  254POPC   D2A 3415   2.124   5.798   6.079  0.0870  0.3325 -0.0376
  254POPC   C3A 3416   2.216   5.669   6.502 -0.1031  0.2643 -0.2326
  254POPC   C4A 3417   2.111   5.403   6.809 -0.0329 -0.0629 -0.1831
  254POPC   C1B 3418   2.061   5.012   5.818  0.0058  0.0613 -0.2116
  254POPC   C2B 3419   1.951   4.660   6.094 -0.0602  0.0096  0.3119
  254POPC   C3B 3420   1.872   4.472   6.439  0.0058 -0.1649  0.0588
  254POPC   C4B 3421   1.691   4.120   6.639 -0.0752  0.0517  0.1074
  255POPC   NC3 3422   2.614   3.048   4.610  0.2945 -0.3763 -0.2223
  255POPC   PO4 3423   2.843   3.429   4.659 -0.0333  0.0653  0.1347
  255POPC   GL1 3424   3.058   3.220   4.911 -0.2262  0.0475  0.2940
  255POPC   GL2 3425   2.903   2.976   5.007  0.0639 -0.1030  0.0671
  255POPC   C1A 3426   3.180   3.340   5.326 -0.1356  0.1037  0.0843
  255POPC   D2A 3427   3.278   3.525   5.734 -0.2954 -0.1980  0.2211
  255POPC   C3A 3428   3.714   3.603   5.828 -0.1080  0.3557  0.1241
  255POPC   C4A 3429   4.040   3.425   5.936  0.2244  0.3583 -0.0752
  255POPC   C1B 3430   2.728   3.262   5.336  0.0386  0.1195 -0.4922
  255POPC   C2B 3431   2.524   3.339   5.781  0.1525  0.0712  0.2790
  255POPC   C3B 3432   2.440   3.343   6.175  0.0230 -0.3299 -0.2103
  255POPC   C4B 3433   2.459   3.523   6.513  0.0389 -0.0460  0.0539
  256POPC   NC3 3434   7.147   9.559   4.497  0.1341 -0.0370  0.0673
  256POPC   PO4 3435   7.071  10.070   4.529  0.2580 -0.0640  0.1990
  256POPC   GL1 3436   7.092  10.466   4.826 -0.0244  0.2768  0.3263
  256POPC   GL2 3437   7.140  10.198   5.009  0.1626  0.1240  0.2142
  256POPC   C1A 3438   6.975  10.877   5.027 -0.3360 -0.1267  0.0437
  256POPC   D2A 3439   6.854  11.195   5.431 -0.2712  0.0411  0.2120
  256POPC   C3A 3440   7.064  11.477   5.480  0.0500 -0.2979  0.1946
  256POPC   C4A 3441   7.396  11.720   5.273  0.2665 -0.0075  0.0576
  256POPC   C1B 3442   6.813  10.424   5.218 -0.2922 -0.1019  0.3008
  256POPC   C2B 3443   6.783  10.603   5.570 -0.3198 -0.1218 -0.0290
  256POPC   C3B 3444   6.799  10.579   5.948  0.1390 -0.0753 -0.3975
  256POPC   C4B 3445   6.906  10.349   6.262 -0.0058  0.0494  0.0049
  257POPC   NC3 3446   7.563   9.781   3.899 -0.0602  0.2260  0.4614
  257POPC   PO4 3447   7.516   9.812   4.283 -0.0027 -0.1017 -0.2125
  257POPC   GL1 3448   7.588   9.813   4.694 -0.2511  0.1414 -0.0065
  257POPC   GL2 3449   7.585  10.172   4.622  0.0861 -0.2859  0.0386
  257POPC   C1A 3450   7.684  10.011   5.105  0.0754  0.2375 -0.2966
  257POPC   D2A 3451   7.748  10.192   5.560  0.1314  0.1886  0.1682
  257POPC   C3A 3452   8.111  10.456   5.826  0.2013 -0.2850 -0.0547
  257POPC   C4A 3453   8.474  10.337   5.849 -0.1982 -0.3871 -0.2091
  257POPC   C1B 3454   7.642  10.526   5.015 -0.0589 -0.0234 -0.2766
  257POPC   C2B 3455   7.508  10.890   4.984 -0.1912  0.0369  0.2274
  257POPC   C3B 3456   7.406  11.217   5.180  0.1916  0.4151  0.0781
  257POPC   C4B 3457   7.659  11.375   5.515 -0.0830 -0.0292 -0.1680
  258POPC   NC3 3458   2.205   8.825   4.762 -0.3803  0.2198 -0.3390
  258POPC   PO4 3459   2.469   8.555   4.918  0.1386  0.2850  0.1923
  258POPC   GL1 3460   2.509   8.239   5.154 -0.0821  0.1008 -0.2483
  258POPC   GL2 3461   2.832   8.221   5.251  0.1005 -0.1408  0.0690
  258POPC   C1A 3462   2.514   7.881   5.335  0.1404  0.1445 -0.1942
  258POPC   D2A 3463   2.400   7.765   5.717 -0.0887  0.3377  0.1513
  258POPC   C3A 3464   2.769   7.655   6.116  0.0866 -0.0978 -0.0506
  258POPC   C4A 3465   3.053   7.835   6.355  0.3371  0.0040 -0.0241
  258POPC   C1B 3466   2.652   8.261   5.683  0.1284 -0.0767  0.0869
  258POPC   C2B 3467   2.617   8.155   6.128  0.3375  0.1533 -0.3582
  258POPC   C3B 3468   2.476   8.256   6.539  0.2834  0.0443  0.1926
  258POPC   C4B 3469   2.028   8.166   6.490 -0.0385 -0.1785 -0.1270
  259POPC   NC3 3470   8.590   4.668   4.117 -0.1367 -0.0334  0.0131
  259POPC   PO4 3471   9.052   4.576   4.374  0.0532 -0.3375  0.0486
  259POPC   GL1 3472   9.212   4.823   4.772  0.0852  0.0518 -0.0381
  259POPC   GL2 3473   9.470   4.885   4.883  0.0296  0.1640 -0.4185
  259POPC   C1A 3474   9.039   4.983   5.187  0.0745 -0.0990  0.2328
  259POPC   D2A 3475   9.156   5.380   5.407 -0.0075 -0.0718  0.2268
  259POPC   C3A 3476   9.261   5.237   5.846 -0.1159  0.1786 -0.0676
  259POPC   C4A 3477   9.435   5.471   6.200  0.1266 -0.0856  0.1072
  259POPC   C1B 3478   9.576   5.033   5.295 -0.0934  0.0128 -0.3660
  259POPC   C2B 3479   9.453   4.818   5.691 -0.1199  0.1055  0.2423
  259POPC   C3B 3480   9.182   4.647   5.897  0.3052  0.1509 -0.3074
  259POPC   C4B 3481   8.976   4.768   6.279  0.0386  0.3450  0.0721
  260POPC   NC3 3482   2.816   7.560   4.718 -0.0073  0.1889 -0.1021
  260POPC   PO4 3483   2.785   7.074   4.902 -0.4229  0.1534 -0.2232
  260POPC   GL1 3484   2.547   6.850   5.150 -0.1013 -0.1093  0.2845
  260POPC   GL2 3485   2.363   6.523   5.094  0.2423  0.1602  0.1518
  260POPC   C1A 3486   2.449   6.919   5.499  0.0688  0.1097 -0.1308
  260POPC   D2A 3487   2.117   6.923   5.800  0.2317  0.1301 -0.2243
  260POPC   C3A 3488   2.238   6.960   6.222  0.2963  0.1236  0.2873
  260POPC   C4A 3489   2.392   7.245   6.491  0.3903 -0.2772  0.0723
  260POPC   C1B 3490   2.600   6.381   5.501  0.1928 -0.0914 -0.0186
  260POPC   C2B 3491   2.523   6.172   5.797 -0.0981 -0.0175 -0.0563
  260POPC   C3B 3492   2.467   6.132   6.208 -0.2745  0.0006  0.1539
  260POPC   C4B 3493   1.960   6.180   6.414 -0.0020 -0.0547  0.2133
  261POPC   NC3 3494   6.493   9.308   4.210  0.0586 -0.1717  0.0591
  261POPC   PO4 3495   6.457   8.919   4.566 -0.0013 -0.2856  0.2707
  261POPC   GL1 3496   6.617   8.878   4.995  0.0960  0.2288 -0.4101
  261POPC   GL2 3497   6.500   9.090   5.237  0.3361 -0.0512 -0.0814
  261POPC   C1A 3498   6.944   8.849   5.263  0.0785  0.4751  0.2006
  261POPC   D2A 3499   7.090   8.971   5.641 -0.1377  0.0521  0.0928
  261POPC   C3A 3500   6.864   9.227   5.974  0.0520  0.1394  0.2773
  261POPC   C4A 3501   6.548   9.498   6.017 -0.2000 -0.2024  0.2605
  261POPC   C1B 3502   6.274   9.368   5.555 -0.1930 -0.1693 -0.0650
  261POPC   C2B 3503   5.903   9.532   5.559  0.1937  0.0604  0.0538
  261POPC   C3B 3504   5.846   9.680   5.925  0.2347 -0.3385 -0.1293
  261POPC   C4B 3505   5.638   9.944   6.033 -0.3728 -0.0146 -0.3190
  262POPC   NC3 3506   3.195   2.545   4.904  0.0513 -0.0556 -0.0666
  262POPC   PO4 3507   3.624   2.467   4.925  0.1651  0.2452  0.2465
  262POPC   GL1 3508   3.788   2.387   5.431  0.0540  0.2152  0.0380
  262POPC   GL2 3509   4.144   2.308   5.428 -0.2318  0.1242  0.1157
  262POPC   C1A 3510   3.857   2.728   5.762  0.1053 -0.0073 -0.1035
  262POPC   D2A 3511   3.913   2.673   6.158 -0.1890 -0.2033  0.1339
  262POPC   C3A 3512   3.937   2.999   6.380 -0.3844  0.0915 -0.1697
  262POPC   C4A 3513   4.360   3.230   6.496 -0.2537 -0.2046  0.1112
  262POPC   C1B 3514   3.978   1.856   5.544 -0.0461  0.4436  0.2079
  262POPC   C2B 3515   3.973   1.607   5.954 -0.0808 -0.3136  0.0418
  262POPC   C3B 3516   3.885   1.277   6.223  0.2462  0.1451  0.2424
  262POPC   C4B 3517   4.029   0.871   6.521 -0.1270 -0.1011  0.2459
  263POPC   NC3 3518   3.339   7.117   4.230  0.0928 -0.0905 -0.0453
  263POPC   PO4 3519   3.146   7.320   4.515  0.1335  0.3867  0.0710
  263POPC   GL1 3520   3.290   7.178   4.878  0.0577 -0.1393 -0.0254
  263POPC   GL2 3521   3.532   6.878   5.017 -0.0025 -0.1460  0.2036
  263POPC   C1A 3522   3.164   7.159   5.392  0.4211  0.1542 -0.0184
  263POPC   D2A 3523   3.012   7.387   5.794 -0.0054 -0.0785  0.0532
  263POPC   C3A 3524   3.121   7.295   6.196 -0.2036  0.1450  0.2933
  263POPC   C4A 3525   2.990   7.342   6.545  0.2259  0.0106 -0.3451
  263POPC   C1B 3526   3.477   6.820   5.421  0.0246 -0.2147 -0.2255
  263POPC   C2B 3527   3.382   6.756   5.792 -0.0208  0.1264 -0.1305
  263POPC   C3B 3528   3.124   6.657   6.191  0.1283 -0.0542  0.2168
  263POPC   C4B 3529   2.913   6.428   6.445  0.0195 -0.2455 -0.2064
  264POPC   NC3 3530   7.561   8.526   4.525 -0.0391 -0.2083 -0.0820
  264POPC   PO4 3531   7.960   8.336   4.482 -0.2909  0.1316 -0.0057
  264POPC   GL1 3532   8.189   8.282   4.862  0.0558 -0.0179  0.1170
  264POPC   GL2 3533   8.415   8.478   4.800  0.0398  0.1885 -0.1312
  264POPC   C1A 3534   8.347   7.989   5.180 -0.5026  0.0541 -0.1394
  264POPC   D2A 3535   8.411   7.702   5.417  0.1860 -0.0434 -0.2799
  264POPC   C3A 3536   8.204   7.873   5.767  0.0283 -0.1147 -0.1718
  264POPC   C4A 3537   7.802   7.693   5.920  0.2572  0.0519  0.1894
  264POPC   C1B 3538   8.606   8.498   5.191  0.0537 -0.0776  0.0142
  264POPC   C2B 3539   8.664   8.350   5.727  0.0968  0.0279 -0.0498
  264POPC   C3B 3540   8.314   8.298   6.054  0.1027  0.3586 -0.1173
  264POPC   C4B 3541   7.847   8.277   5.902  0.1195  0.1333  0.0216
  265POPC   NC3 3542   2.660   1.316   5.123  0.0066  0.0669  0.2027
  265POPC   PO4 3543   2.280   1.286   4.939  0.3250 -0.3233 -0.1909
  265POPC   GL1 3544   2.309   1.456   5.419 -0.0449  0.1270  0.0048
  265POPC   GL2 3545   2.510   1.346   5.595 -0.0621 -0.1495 -0.0977
  265POPC   C1A 3546   2.336   1.754   5.768  0.1912  0.0526 -0.2247
  265POPC   D2A 3547   2.551   2.007   6.173  0.3516 -0.0198 -0.0786
  265POPC   C3A 3548   2.393   1.937   6.524 -0.0342  0.0131  0.0952
  265POPC   C4A 3549   1.942   1.897   6.778 -0.1422  0.1797  0.1195
  265POPC   C1B 3550   2.728   1.450   5.949  0.1435  0.2227 -0.2226
  265POPC   C2B 3551   2.569   1.291   6.314  0.1738 -0.0316  0.2417
  265POPC   C3B 3552   2.250   1.507   6.746  0.0479 -0.0967  0.1645
  265POPC   C4B 3553   1.966   1.528   7.067 -0.0447  0.3205 -0.3370
  266POPC   NC3 3554   8.096   7.306   4.690  0.0891  0.3692 -0.1246
  266POPC   PO4 3555   8.183   6.854   4.706  0.2140  0.1736  0.0497
  266POPC   GL1 3556   8.214   6.688   5.121  0.1979  0.2727  0.3894
  266POPC   GL2 3557   8.279   6.427   5.213  0.3571  0.1854 -0.1376
  266POPC   C1A 3558   8.218   6.800   5.570 -0.2034 -0.1048 -0.4559
  266POPC   D2A 3559   8.653   6.733   5.756  0.2530  0.0637 -0.1511
  266POPC   C3A 3560   8.754   6.989   6.089  0.0249 -0.3299  0.0903
  266POPC   C4A 3561   8.919   7.467   6.217  0.0594 -0.0396  0.0636
  266POPC   C1B 3562   8.685   6.670   5.178 -0.0810  0.2408  0.2607
  266POPC   C2B 3563   8.988   6.953   5.357  0.0090 -0.0233 -0.2514
  266POPC   C3B 3564   9.350   7.065   5.440  0.0960 -0.1654 -0.0906
  266POPC   C4B 3565   9.674   7.461   5.342  0.1283 -0.4916 -0.1251
  267POPC   NC3 3566   7.790   9.321   4.188 -0.0917  0.0916  0.0203
  267POPC   PO4 3567   8.171   9.362   3.935 -0.1307 -0.0713 -0.1155
  267POPC   GL1 3568   8.262   9.217   4.300 -0.1528 -0.0520 -0.0834
  267POPC   GL2 3569   8.432   9.478   4.366 -0.0753 -0.1545 -0.4569
  267POPC   C1A 3570   8.209   9.249   4.766  0.0793 -0.0109  0.0263
  267POPC   D2A 3571   8.242   9.116   5.220 -0.0929 -0.3652  0.1607
  267POPC   C3A 3572   7.992   9.323   5.559 -0.1533 -0.2390  0.0663
  267POPC   C4A 3573   7.772   9.707   5.661  0.0654 -0.0747  0.2743
  267POPC   C1B 3574   8.123   9.763   4.631 -0.1785 -0.1641 -0.0650
  267POPC   C2B 3575   8.070  10.176   4.826 -0.0320 -0.0439  0.1279
  267POPC   C3B 3576   8.285  10.390   5.159 -0.1222 -0.1014  0.0642
  267POPC   C4B 3577   8.354  10.635   5.435 -0.4423  0.1305 -0.2433
  268POPC   NC3 3578   6.661   8.469   4.636  0.2537  0.5538 -0.1297
  268POPC   PO4 3579   7.084   8.258   4.689 -0.1172 -0.3487 -0.0433
  268POPC   GL1 3580   7.355   8.406   5.003  0.1300 -0.1616  0.3759
  268POPC   GL2 3581   7.672   8.268   5.028  0.1182 -0.2952 -0.2362
  268POPC   C1A 3582   7.149   8.436   5.444  0.0336 -0.1608 -0.0916
  268POPC   D2A 3583   6.903   8.492   5.793  0.2483 -0.2646  0.0103
  268POPC   C3A 3584   6.857   8.266   6.167  0.0297  0.3991 -0.0122
  268POPC   C4A 3585   6.701   7.844   6.087  0.2990  0.2444  0.1751
  268POPC   C1B 3586   7.678   8.392   5.403  0.2740 -0.0276 -0.1890
  268POPC   C2B 3587   7.430   8.621   5.778  0.0436 -0.1920 -0.2381
  268POPC   C3B 3588   7.205   8.774   6.147  0.2748 -0.3450 -0.2200
  268POPC   C4B 3589   6.924   8.958   6.496  0.0726  0.0946  0.3095
  269POPC   NC3 3590   5.627   3.002   4.585  0.1494  0.1464 -0.3129
  269POPC   PO4 3591   6.071   2.835   4.648 -0.1085  0.2648  0.1059
  269POPC   GL1 3592   5.961   2.734   5.164  0.1421 -0.0755  0.0785
  269POPC   GL2 3593   5.770   2.496   5.135  0.0051  0.0001 -0.1034
  269POPC   C1A 3594   5.923   2.910   5.470 -0.0019 -0.0363 -0.0344
  269POPC   D2A 3595   5.782   3.187   5.661  0.2841 -0.3557 -0.0491
  269POPC   C3A 3596   6.034   3.321   5.969  0.0357 -0.1807 -0.3065
  269POPC   C4A 3597   6.120   3.178   6.388  0.0872  0.1777  0.0729
  269POPC   C1B 3598   6.100   2.435   5.468  0.3166  0.4892  0.1172
  269POPC   C2B 3599   6.413   2.424   5.764 -0.1016 -0.0167  0.0728
  269POPC   C3B 3600   6.638   2.604   6.029  0.0711  0.1338 -0.0393
  269POPC   C4B 3601   6.953   2.744   6.308  0.2014 -0.1705  0.0784
  270POPC   NC3 3602   4.572   3.685   4.662 -0.0473 -0.1459 -0.0908
  270POPC   PO4 3603   4.298   4.082   4.708 -0.0542  0.0254 -0.1197
  270POPC   GL1 3604   4.167   4.533   4.840  0.2419 -0.0214 -0.0590
  270POPC   GL2 3605   4.449   4.532   5.114  0.1296 -0.2695 -0.1838
  270POPC   C1A 3606   4.010   4.534   5.277  0.2998 -0.2210  0.1589
  270POPC   D2A 3607   4.058   4.505   5.700  0.2303 -0.0297 -0.2693
  270POPC   C3A 3608   4.437   4.664   5.983  0.3982 -0.0247  0.2275
  270POPC   C4A 3609   4.211   4.817   6.434  0.0454 -0.2795  0.1070
  270POPC   C1B 3610   4.469   4.303   5.464 -0.0270 -0.2254 -0.2350
  270POPC   C2B 3611   4.551   4.151   5.900 -0.1425 -0.3313 -0.2387
  270POPC   C3B 3612   4.730   3.930   6.311  0.4119 -0.0498  0.2124
  270POPC   C4B 3613   4.785   3.579   6.593  0.1360 -0.0098  0.2714
  271POPC   NC3 3614   7.304   4.235   4.494  0.0216 -0.1742  0.0882
  271POPC   PO4 3615   7.353   4.549   4.414  0.0281  0.0262 -0.0096
  271POPC   GL1 3616   7.196   4.587   4.810  0.3073  0.0460 -0.4548
  271POPC   GL2 3617   7.402   4.697   5.016  0.2527 -0.0256 -0.1934
  271POPC   C1A 3618   6.939   4.557   5.274 -0.0302 -0.0519 -0.0495
  271POPC   D2A 3619   6.603   4.329   5.441  0.0056  0.2182 -0.0538
  271POPC   C3A 3620   6.233   4.489   5.422  0.2652 -0.0486 -0.0515
  271POPC   C4A 3621   5.901   4.781   5.602  0.3111 -0.5768  0.1528
  271POPC   C1B 3622   7.522   4.819   5.458 -0.0942 -0.1153 -0.0044
  271POPC   C2B 3623   7.684   4.808   5.922 -0.0687 -0.1699 -0.1278
  271POPC   C3B 3624   7.607   4.544   6.271  0.0458  0.0454 -0.0356
  271POPC   C4B 3625   7.449   4.126   6.267  0.0101 -0.0645 -0.3570
  272POPC   NC3 3626   9.248   7.901   4.472  0.2579 -0.1004  0.0077
  272POPC   PO4 3627   9.471   8.162   4.728 -0.1528  0.1929 -0.1298
  272POPC   GL1 3628   9.644   8.238   5.162 -0.1211  0.0991  0.0460
  272POPC   GL2 3629  10.036   8.149   5.212  0.0545  0.0343 -0.1331
  272POPC   C1A 3630   9.777   8.342   5.593 -0.1152 -0.0316 -0.1517
  272POPC   D2A 3631   9.650   8.457   5.984 -0.1377  0.3375  0.0888
  272POPC   C3A 3632   9.624   7.980   6.251 -0.1286 -0.2062  0.1272
  272POPC   C4A 3633   9.590   7.964   6.653  0.1240  0.0687  0.0376
  272POPC   C1B 3634  10.343   8.357   5.451  0.0006  0.1644  0.0163
  272POPC   C2B 3635  10.565   8.491   5.925 -0.1011  0.0549  0.0037
  272POPC   C3B 3636  10.489   8.573   6.412 -0.1131 -0.0492  0.2943
  272POPC   C4B 3637  10.591   8.694   6.782 -0.0880 -0.1020 -0.1155
  273POPC   NC3 3638   0.441   4.022   4.191 -0.2045  0.2958  0.0183
  273POPC   PO4 3639   0.304   3.629   4.460  0.1805 -0.0372  0.1923
  273POPC   GL1 3640   0.192   3.658   4.866  0.1482  0.1214  0.1340
  273POPC   GL2 3641   0.054   3.372   5.034  0.3622 -0.0905 -0.1289
  273POPC   C1A 3642   0.180   3.936   5.196  0.1762 -0.0222  0.2772
  273POPC   D2A 3643   0.125   3.965   5.644 -0.3687 -0.2590  0.0005
  273POPC   C3A 3644   0.279   3.676   5.901  0.1865  0.2288 -0.4939
  273POPC   C4A 3645   0.709   3.625   6.035  0.3124 -0.0231 -0.0359
  273POPC   C1B 3646  -0.009   3.523   5.435  0.1103  0.2940 -0.0718
  273POPC   C2B 3647  -0.024   3.276   5.788 -0.0178  0.1660  0.0928
  273POPC   C3B 3648  -0.086   2.918   5.996  0.3198  0.0240 -0.1029
  273POPC   C4B 3649  -0.429   2.897   6.259  0.0111 -0.0203  0.2900
  274POPC   NC3 3650   2.896   3.882   4.305  0.0347 -0.1749 -0.1507
  274POPC   PO4 3651   3.398   3.940   4.519 -0.0235 -0.2182 -0.3299
  274POPC   GL1 3652   3.509   4.054   4.879  0.1761 -0.0109  0.0122
  274POPC   GL2 3653   3.803   4.160   4.931  0.0187 -0.1600 -0.3780
  274POPC   C1A 3654   3.444   4.118   5.285  0.1640  0.0805  0.0223
  274POPC   D2A 3655   3.108   4.134   5.706 -0.2363 -0.0217 -0.0314
  274POPC   C3A 3656   3.112   4.243   6.198  0.1133  0.0960 -0.1621
  274POPC   C4A 3657   3.105   4.410   6.567  0.1095 -0.0377  0.0021
  274POPC   C1B 3658   3.945   3.995   5.332 -0.2277  0.0975  0.1653
  274POPC   C2B 3659   4.119   3.951   5.797  0.3370 -0.1864 -0.1317
  274POPC   C3B 3660   4.261   3.824   6.149  0.0589  0.2466  0.4608
  274POPC   C4B 3661   4.605   3.471   6.087  0.0579  0.0288 -0.2019
  275POPC   NC3 3662   2.343   6.882   4.635  0.2238  0.1417  0.2387
  275POPC   PO4 3663   1.981   6.746   4.849  0.1716 -0.2878 -0.0712
  275POPC   GL1 3664   1.849   6.698   5.253  0.1535 -0.4451 -0.3458
  275POPC   GL2 3665   1.892   7.094   5.392 -0.1061  0.3257  0.1167
  275POPC   C1A 3666   1.725   6.640   5.695  0.1417 -0.0418  0.0772
  275POPC   D2A 3667   1.776   6.815   6.144  0.0093 -0.0258  0.1261
  275POPC   C3A 3668   1.482   6.990   6.439  0.0971  0.0005 -0.1490
  275POPC   C4A 3669   1.254   6.750   6.717 -0.1141  0.0842 -0.3123
  275POPC   C1B 3670   1.701   7.241   5.817  0.2038  0.3180  0.0347
  275POPC   C2B 3671   1.392   7.364   6.149  0.2438 -0.1357  0.0724
  275POPC   C3B 3672   1.301   7.653   6.478 -0.1230 -0.0259  0.0269
  275POPC   C4B 3673   1.643   7.945   6.728 -0.3466 -0.0369 -0.0663
  276POPC   NC3 3674   3.861   1.213   4.716 -0.0916  0.1109  0.1301
  276POPC   PO4 3675   3.575   1.504   4.951  0.1405  0.1696  0.1599
  276POPC   GL1 3676   3.660   1.542   5.410 -0.1567 -0.0339  0.1327
  276POPC   GL2 3677   3.492   1.209   5.695  0.0060 -0.0142 -0.3357
  276POPC   C1A 3678   3.502   1.872   5.778 -0.2192 -0.0240 -0.2096
  276POPC   D2A 3679   3.358   2.107   6.006  0.5349 -0.0274  0.1985
  276POPC   C3A 3680   3.329   2.549   5.753  0.3342  0.0881 -0.2336
  276POPC   C4A 3681   2.945   2.670   5.449  0.0483  0.2951 -0.2168
  276POPC   C1B 3682   3.485   1.031   6.059 -0.3054  0.2259 -0.2100
  276POPC   C2B 3683   3.523   0.896   6.471 -0.3876  0.0701 -0.1849
  276POPC   C3B 3684   3.591   0.547   6.734 -0.0118  0.2530  0.3228
  276POPC   C4B 3685   3.833   0.315   7.047 -0.2459 -0.1966  0.1273
  277POPC   NC3 3686   3.289   4.886   4.580  0.0893  0.1507 -0.0265
  277POPC   PO4 3687   3.024   5.295   4.611  0.0609  0.0502 -0.2256
  277POPC   GL1 3688   3.031   5.269   5.030 -0.1671  0.0345  0.0525
  277POPC   GL2 3689   3.350   5.093   5.047  0.1732  0.0232 -0.2809
  277POPC   C1A 3690   3.212   5.005   5.501  0.0683  0.1574 -0.2710
  277POPC   D2A 3691   3.415   4.959   5.894  0.1320 -0.0646 -0.0415
  277POPC   C3A 3692   3.686   5.292   6.087  0.1780  0.0866  0.1771
  277POPC   C4A 3693   4.093   5.367   6.284  0.0240  0.2492  0.2309
  277POPC   C1B 3694   3.740   5.091   5.247 -0.3515  0.0200 -0.3747
  277POPC   C2B 3695   3.984   5.030   5.725  0.0821  0.0292  0.2916
  277POPC   C3B 3696   3.943   4.834   6.039  0.0010  0.0909  0.0626
  277POPC   C4B 3697   3.557   4.526   6.286  0.0979  0.0326 -0.0650
  278POPC   NC3 3698   0.544   6.651   4.648 -0.0731 -0.2404 -0.0307
  278POPC   PO4 3699   0.653   7.046   4.761 -0.2612 -0.2845  0.4349
  278POPC   GL1 3700   0.742   7.005   5.209 -0.0028  0.2630 -0.2263
  278POPC   GL2 3701   0.600   6.638   5.166 -0.3077  0.1614  0.2161
  278POPC   C1A 3702   0.532   6.901   5.662 -0.3294  0.2560 -0.3275
  278POPC   D2A 3703   0.241   6.687   5.901 -0.0179 -0.1396 -0.1361
  278POPC   C3A 3704   0.284   6.774   6.274 -0.1491 -0.0056  0.1556
  278POPC   C4A 3705   0.365   6.603   6.630  0.1469  0.1671 -0.2084
  278POPC   C1B 3706   0.523   6.396   5.579 -0.2820 -0.0403  0.0057
  278POPC   C2B 3707   0.208   6.166   5.836  0.0030 -0.1023 -0.0800
  278POPC   C3B 3708  -0.069   6.202   6.205  0.2780  0.1374 -0.1894
  278POPC   C4B 3709  -0.050   6.202   6.658 -0.2496  0.0404  0.3591
  279POPC   NC3 3710   1.762   1.314   5.338 -0.1362  0.0800 -0.1326
  279POPC   PO4 3711   1.964   0.928   5.199  0.2090  0.4044 -0.0614
  279POPC   GL1 3712   2.088   1.009   5.608  0.1979 -0.1274 -0.0513
  279POPC   GL2 3713   2.217   0.797   5.733  0.1997 -0.4198 -0.2259
  279POPC   C1A 3714   2.122   1.366   5.893  0.1561  0.1265 -0.1253
  279POPC   D2A 3715   2.042   1.619   6.204  0.0083  0.3107 -0.0375
  279POPC   C3A 3716   1.987   2.008   6.243  0.1209 -0.2910 -0.4508
  279POPC   C4A 3717   1.807   2.424   6.269  0.2420 -0.1077 -0.0387
  279POPC   C1B 3718   2.586   0.900   5.939 -0.0476  0.1908  0.2161
  279POPC   C2B 3719   2.710   0.682   6.295 -0.0278  0.2373  0.0352
  279POPC   C3B 3720   2.644   0.495   6.654  0.4580 -0.1653 -0.0458
  279POPC   C4B 3721   2.461   0.243   6.948 -0.1534 -0.0489  0.0444
  280POPC   NC3 3722   1.858   8.079   4.317  0.4008 -0.1198  0.1043
  280POPC   PO4 3723   1.868   7.703   4.684 -0.0359 -0.1715  0.2414
  280POPC   GL1 3724   1.924   7.751   5.205  0.2904  0.1655  0.0531
  280POPC   GL2 3725   2.064   8.035   5.298 -0.1244 -0.0802  0.0074
  280POPC   C1A 3726   1.812   7.791   5.678 -0.0281 -0.0043  0.0017
  280POPC   D2A 3727   1.742   7.916   6.036  0.0667 -0.2863  0.0788
  280POPC   C3A 3728   1.793   7.669   6.360 -0.1494  0.0296 -0.0450
  280POPC   C4A 3729   1.864   7.277   6.401 -0.0484 -0.0174 -0.1625
  280POPC   C1B 3730   2.087   8.244   5.532 -0.2047 -0.0296 -0.2510
  280POPC   C2B 3731   1.949   8.390   5.984 -0.1038 -0.0209  0.1832
  280POPC   C3B 3732   1.986   8.807   6.228 -0.1585 -0.0499  0.0634
  280POPC   C4B 3733   2.056   8.703   6.599  0.1697  0.1762 -0.0396
  281POPC   NC3 3734   7.309   6.166   4.621  0.1117  0.1035 -0.2788
  281POPC   PO4 3735   7.429   6.520   4.968  0.4213 -0.1022 -0.1540
  281POPC   GL1 3736   7.605   6.461   5.329 -0.1492  0.4278  0.0714
  281POPC   GL2 3737   7.323   6.350   5.525 -0.0222 -0.2330  0.1027
  281POPC   C1A 3738   7.966   6.317   5.531  0.0948  0.1075  0.2076
  281POPC   D2A 3739   8.269   6.371   5.866  0.1454 -0.0211  0.0329
  281POPC   C3A 3740   8.340   6.511   6.242 -0.0696 -0.1148 -0.1344
  281POPC   C4A 3741   8.718   6.726   6.466  0.1314  0.0259  0.0602
  281POPC   C1B 3742   7.363   6.182   5.916 -0.0485  0.4099  0.1171
  281POPC   C2B 3743   7.231   5.731   5.978 -0.1396  0.0976  0.0366
  281POPC   C3B 3744   6.839   5.727   6.120 -0.0626  0.1783  0.0780
  281POPC   C4B 3745   6.340   5.769   6.281  0.1976  0.3418 -0.1254
  282POPC   NC3 3746   7.918   6.421   4.800  0.3196 -0.1832 -0.2572
  282POPC   PO4 3747   7.846   6.133   4.472  0.0004 -0.0195 -0.0646
  282POPC   GL1 3748   7.978   5.878   4.775  0.1856 -0.2233 -0.4063
  282POPC   GL2 3749   7.794   6.068   5.104 -0.1950  0.1083  0.0231
  282POPC   C1A 3750   7.809   5.616   5.008  0.0534  0.0630 -0.0258
  282POPC   D2A 3751   7.398   5.480   5.185 -0.2382  0.1934  0.0404
  282POPC   C3A 3752   7.198   5.258   5.514  0.3041 -0.1580  0.0707
  282POPC   C4A 3753   7.053   5.239   5.870 -0.0218 -0.0008  0.0498
  282POPC   C1B 3754   7.656   5.873   5.480 -0.1599  0.0213 -0.1737
  282POPC   C2B 3755   7.833   5.818   5.975 -0.0328 -0.0140  0.0719
  282POPC   C3B 3756   8.102   5.934   6.365 -0.0687  0.0211  0.0579
  282POPC   C4B 3757   8.077   5.928   6.879 -0.0550  0.0252 -0.1094
  283POPC   NC3 3758   4.322   2.988   4.296  0.3184  0.3310  0.3330
  283POPC   PO4 3759   4.554   2.734   4.599 -0.0480  0.0567  0.2733
  283POPC   GL1 3760   4.569   2.463   5.173 -0.2411  0.0942  0.0910
  283POPC   GL2 3761   4.857   2.589   5.412  0.0452  0.0850  0.2767
  283POPC   C1A 3762   4.589   2.116   5.553  0.0939 -0.2273 -0.1050
  283POPC   D2A 3763   5.101   2.027   5.800  0.1837 -0.0633 -0.1622
  283POPC   C3A 3764   5.107   1.936   6.229 -0.0636  0.0165 -0.3452
  283POPC   C4A 3765   4.697   1.846   6.561 -0.4059  0.2480  0.0064
  283POPC   C1B 3766   4.567   2.593   5.684  0.0467  0.1698  0.0328
  283POPC   C2B 3767   4.257   2.410   5.905  0.1498 -0.1157 -0.0498
  283POPC   C3B 3768   3.916   2.117   5.951  0.3603  0.1700  0.0682
  283POPC   C4B 3769   3.658   1.856   6.292 -0.3941  0.2250  0.2117
  284POPC   NC3 3770   2.178   4.182   4.558  0.2678 -0.2734  0.8734
  284POPC   PO4 3771   2.487   3.757   4.604 -0.1889 -0.3125  0.0720
  284POPC   GL1 3772   2.548   3.848   4.984  0.0164 -0.2596 -0.2516
  284POPC   GL2 3773   2.279   3.786   5.271 -0.0602  0.4986 -0.0571
  284POPC   C1A 3774   2.884   3.757   5.372 -0.0136  0.0259 -0.1614
  284POPC   D2A 3775   2.809   3.737   5.837  0.0554  0.2710  0.0160
  284POPC   C3A 3776   2.936   3.362   6.082 -0.1715 -0.1391 -0.1519
  284POPC   C4A 3777   2.864   3.033   6.302 -0.3742 -0.0771  0.1880
  284POPC   C1B 3778   2.280   3.749   5.692 -0.2073  0.1149  0.0505
  284POPC   C2B 3779   2.423   3.841   6.156 -0.1738  0.1234  0.1341
  284POPC   C3B 3780   2.819   3.863   6.308  0.1365  0.2634 -0.0057
  284POPC   C4B 3781   3.262   3.806   6.163 -0.1932 -0.0057  0.3531
  285POPC   NC3 3782   3.550   9.357   4.932 -0.1289 -0.0219  0.0968
  285POPC   PO4 3783   3.176   9.654   4.812  0.1272 -0.3240 -0.0401
  285POPC   GL1 3784   3.142   9.512   5.189 -0.2379  0.3034 -0.1028
  285POPC   GL2 3785   2.857   9.407   5.366 -0.1275  0.0639  0.1459
  285POPC   C1A 3786   3.233   9.688   5.675 -0.2514  0.0442  0.1463
  285POPC   D2A 3787   3.009   9.974   6.128 -0.0542  0.4148 -0.2415
  285POPC   C3A 3788   2.579  10.074   6.197  0.1208 -0.1303 -0.1841
  285POPC   C4A 3789   2.199  10.081   6.485 -0.2925 -0.2327  0.0044
  285POPC   C1B 3790   3.065   9.172   5.724 -0.0175 -0.1545  0.2080
  285POPC   C2B 3791   3.283   8.935   5.959 -0.0626  0.2423  0.0542
  285POPC   C3B 3792   3.533   8.678   6.118 -0.0370  0.2385  0.1574
  285POPC   C4B 3793   3.788   8.324   6.206 -0.3758 -0.4613  0.1410
  286POPC   NC3 3794   5.260   0.193   4.372  0.0871 -0.2488  0.0707
  286POPC   PO4 3795   5.613   0.440   4.230 -0.1248 -0.1774  0.0772
  286POPC   GL1 3796   5.742   0.345   4.658  0.0408 -0.0512  0.0333
  286POPC   GL2 3797   5.711   0.000   4.704  0.2274 -0.0725 -0.1885
  286POPC   C1A 3798   5.831   0.436   5.095 -0.1032 -0.1936  0.2608
  286POPC   D2A 3799   6.315   0.422   5.284 -0.1435 -0.1313  0.1198
  286POPC   C3A 3800   6.323   0.489   5.743  0.4131 -0.0760  0.3038
  286POPC   C4A 3801   6.352   0.603   6.057  0.0377 -0.1896 -0.1319
  286POPC   C1B 3802   6.104  -0.009   5.014  0.1002 -0.2661  0.1840
  286POPC   C2B 3803   6.416  -0.222   5.143 -0.0352  0.0560  0.0300
  286POPC   C3B 3804   6.774  -0.404   5.517  0.3157  0.2197 -0.2484
  286POPC   C4B 3805   7.290  -0.441   5.544  0.2180 -0.1859 -0.1480
  287W        W 3806   5.387   7.160   4.305  0.0077 -0.0766  0.2177
  288W        W 3807   4.773   7.067   1.987 -0.3701 -0.0180 -0.1733
  289W        W 3808   4.911   3.296  10.845  0.3893 -0.1250  0.1346
  290W        W 3809   8.677   3.445   9.697  0.0341 -0.0797 -0.0366
  291W        W 3810   7.117   1.351   8.527 -0.1193 -0.1145  0.3452
  292W        W 3811   5.180   2.562  10.414 -0.2003 -0.0889  0.1841
  293W        W 3812   5.537   7.820   1.953  0.1217  0.1633  0.1988
  294W        W 3813   4.113   7.216  10.812 -0.1081  0.1745 -0.2331
  295W        W 3814   6.549   1.017   9.161 -0.2028 -0.3142  0.1377
  296W        W 3815   4.110   2.193   0.405 -0.0111  0.0352  0.1238
  297W        W 3816   4.607   4.309   1.165  0.0179 -0.0630  0.0027
  298W        W 3817   2.920   8.001   2.452  0.2275  0.0809 -0.0160
  299W        W 3818   1.747   5.916   1.032  0.2813  0.2203  0.1856
  300W        W 3819   7.378   9.106   2.121  0.3491  0.0569  0.2421
  301W        W 3820   0.632   7.465   3.223 -0.0556  0.4488 -0.1097
  302W        W 3821   1.219   1.004   2.517 -0.2147  0.0125 -0.0998
  303W        W 3822   8.280   3.377  10.573 -0.0268  0.0991  0.1089
  304W        W 3823   3.241   5.759   0.910  0.0807  0.1438 -0.2716
  305W        W 3824   5.080   7.686   8.015 -0.1868  0.0564  0.3543
  306W        W 3825   0.499   3.949   9.760  0.1619 -0.0814 -0.0563
  307W        W 3826   1.520   0.498  10.108 -0.3750  0.0129 -0.0094
  308W        W 3827   9.838   1.085  10.742  0.3221 -0.0028 -0.0543
  309W        W 3828   1.735   7.401   0.301 -0.0106  0.1815 -0.2487
  310W        W 3829   7.324   6.334   3.352  0.0081  0.2379  0.0412
  311W        W 3830   1.449   9.610   4.391  0.1877 -0.2038 -0.0790
  312W        W 3831   5.636   6.473   0.109 -0.1964  0.0307  0.2448
  313W        W 3832   4.647   7.129   2.959 -0.3139  0.0588 -0.1157
  314W        W 3833   9.159   4.215  10.279  0.0543  0.1841  0.0484
  315W        W 3834   5.214   9.520  10.857  0.0115 -0.1423  0.3556
  316W        W 3835   7.664   4.869  10.254  0.0016 -0.2748 -0.0874
  317W        W 3836   8.002   0.676   3.689 -0.0052 -0.0556 -0.0218
  318W        W 3837   4.800   1.594   3.885  0.1237 -0.3068  0.0795
  319W        W 3838   6.287   8.484   0.599 -0.1491  0.1209 -0.0794
  320W        W 3839   8.173   9.548   2.551 -0.2354 -0.0132 -0.4460
  321W        W 3840   6.566   8.940   0.169  0.1428  0.1520 -0.2322
  322W        W 3841   6.117   3.257   2.826 -0.0895 -0.0978  0.1885
  323W        W 3842   6.629   9.854   0.771 -0.1127  0.0762  0.2976
  324W        W 3843   1.073   2.708  11.733 -0.0628 -0.0247 -0.0589
  325W        W 3844   7.571   7.977   9.054  0.0134 -0.1202  0.0213
  326W        W 3845   2.864   8.200   1.867 -0.1426 -0.0356 -0.2762
  327W        W 3846   9.366   7.071   4.192 -0.1268 -0.2278  0.0692
  328W        W 3847   8.991   5.715   9.774  0.3641  0.0823  0.0513
  329W        W 3848   6.913   3.407  12.068 -0.0214  0.0260 -0.3361
  330W        W 3849   1.664   4.219  11.643 -0.0681 -0.0613  0.0784
  331W        W 3850   4.121   2.922   3.263  0.0039 -0.1766  0.2510
  332W        W 3851   2.530   2.730  11.790 -0.0958 -0.0791 -0.0159
  333W        W 3852   5.429   6.520   3.574 -0.1954 -0.0116 -0.2908
  334W        W 3853   2.309   0.963   4.365  0.0543 -0.0429  0.0415
  335W        W 3854   1.711   3.833   9.927  0.0944  0.0395  0.0254
  336W        W 3855   5.457   4.724   4.219 -0.0364  0.0324  0.1042
  337W        W 3856   5.079   9.265   2.091 -0.3085 -0.1008  0.1239
  338W        W 3857   4.800   1.549  10.756 -0.1316  0.1410 -0.0286
  339W        W 3858   2.452   7.332   9.192  0.2475  0.0627  0.1267
  340W        W 3859   7.063   7.862   8.339  0.1183 -0.1074 -0.0918
  341W        W 3860   2.284   6.955  10.120  0.0891  0.3589  0.0044
  342W        W 3861   5.452   0.129   1.473  0.4746 -0.0156 -0.2353
  343W        W 3862   2.140   3.198   4.028 -0.0071 -0.0244  0.1079
  344W        W 3863   6.491   3.617   4.201 -0.0098 -0.2208  0.0605
  345W        W 3864   7.631   0.844   3.875  0.0035  0.2242 -0.0121
  346W        W 3865   7.262   4.614   2.841 -0.0827 -0.1609  0.0740
  347W        W 3866   6.932   9.463  10.384  0.0821  0.0012 -0.0161
  348W        W 3867   5.511   9.664   3.433 -0.1622  0.1588  0.0135
  349W        W 3868   1.703   5.290   3.919  0.1535  0.1717 -0.0140
  350W        W 3869   5.570   7.817   0.475  0.0372  0.1381 -0.2052
  351W        W 3870   2.301   2.922   1.343 -0.0903  0.0437  0.0439
  352W        W 3871   1.400   5.428   4.359 -0.2591  0.1013 -0.0930
  353W        W 3872   8.083   1.984   2.592  0.0958 -0.0165  0.2074
  354W        W 3873   9.157   9.300  11.078  0.1251 -0.0502 -0.0136
  355W        W 3874   5.852   5.039   8.069 -0.2741  0.2497 -0.1520
  356W        W 3875   7.149   8.597   0.197 -0.1334 -0.0102 -0.0047
  357W        W 3876   7.522   7.449   8.327 -0.1669  0.0254 -0.2468
  358W        W 3877   6.335   3.633   3.079 -0.2425  0.0182 -0.1614
  359W        W 3878   2.799   4.268   1.505 -0.1737  0.1101 -0.2087
  360W        W 3879   2.717   4.506   9.869 -0.2469 -0.1523 -0.2640
  361W        W 3880   8.665   9.571   0.113  0.0000 -0.3491 -0.1916
  362W        W 3881   3.334   5.617   1.408  0.0254  0.2361  0.2319
  363W        W 3882   0.381   3.080   8.906 -0.3238 -0.2193  0.0117
  364W        W 3883   1.025   2.431   3.947 -0.1498 -0.2670  0.0726
  365W        W 3884   3.013   0.345   9.421  0.0708  0.0732  0.2231
  366W        W 3885   0.061   5.825   1.346  0.1560 -0.0365  0.2652
  367W        W 3886   8.124   2.764   9.536 -0.0403  0.2508  0.1964
  368W        W 3887   4.622   0.371   0.004  0.1191 -0.0332  0.2202
  369W        W 3888   6.026   5.052  11.852  0.1330  0.4160  0.2176
  370W        W 3889   2.449   0.052   1.902 -0.0164  0.2759 -0.0452
  371W        W 3890   0.928   6.016   3.849 -0.0123 -0.2890 -0.1068
  372W        W 3891   6.350   3.680  11.936  0.0676  0.0460  0.1465
  373W        W 3892   3.677   6.528   9.770 -0.0500  0.2121  0.2528
  374W        W 3893   3.509   1.398   2.915 -0.0956  0.2759 -0.0715
  375W        W 3894   0.865   9.073   4.632  0.0679  0.1117  0.0122
  376W        W 3895   7.695   3.963   2.071 -0.1622  0.0247  0.1210
  377W        W 3896   4.571   9.691   3.410 -0.0308 -0.0375  0.0416
  378W        W 3897   3.638   0.920   0.470  0.2021  0.1674  0.1953
  379W        W 3898   7.731   3.866  11.038  0.1730 -0.1719 -0.2298
  380W        W 3899   5.577   1.776  11.272  0.2648  0.0143  0.1484
  381W        W 3900   0.474   8.061  10.191 -0.0633 -0.4604  0.0910
  382W        W 3901   6.749   2.663   9.918 -0.2480 -0.1043  0.0558
  383W        W 3902   5.209   6.065   9.722  0.0208 -0.0917  0.0724
  384W        W 3903   4.181   9.697  11.458  0.0594  0.1626  0.1468
  385W        W 3904   9.273   1.860   3.236 -0.1264 -0.0660  0.0821
  386W        W 3905   2.060   5.801   1.544 -0.2796  0.1773 -0.0871
  387W        W 3906   3.843   2.878   1.052  0.0029  0.0954 -0.0651
  388W        W 3907   5.438   4.859   4.727  0.0501  0.2090  0.1581
  389W        W 3908   3.170   1.041   1.067 -0.2162 -0.1855 -0.0993
  390W        W 3909   4.216   8.579  10.393  0.1823  0.0149 -0.2044
  391W        W 3910   6.083   8.765   3.222  0.0363  0.1292  0.1281
  392W        W 3911   6.411   4.378   9.404 -0.5994  0.1524  0.0480
  393W        W 3912   0.132   1.939   9.303 -0.1123 -0.2122 -0.0296
  394W        W 3913   0.412   7.220   3.627 -0.0349  0.1318 -0.0120
  395W        W 3914   8.732   1.883   3.281  0.1304  0.0705 -0.2030
  396W        W 3915   2.311   8.621   9.737  0.2375 -0.0100  0.2668
  397W        W 3916   5.433   6.732   2.634 -0.0810  0.4381  0.2282
  398W        W 3917   2.587   2.390   9.764 -0.4435  0.3352  0.0723
  399W        W 3918   0.959   0.850  10.336 -0.0394 -0.1042 -0.0284
  400W        W 3919   9.118   1.089  12.001 -0.4214  0.2202 -0.2704
  401W        W 3920   5.214   8.508   8.539  0.0071  0.3092  0.3138
  402W        W 3921   4.627   8.043   3.171  0.4144  0.1104 -0.2861
  403W        W 3922   9.698   3.924   8.789  0.1156  0.0010  0.0192
  404W        W 3923   3.441   2.298  11.195 -0.1037  0.1456  0.2674
  405W        W 3924   6.378   7.380   7.866 -0.3132 -0.0485  0.0114
  406W        W 3925   9.496   5.343  11.735  0.1061  0.0950 -0.1338
  407W        W 3926   7.750   5.857  11.875  0.0819  0.1691 -0.1556
  408W        W 3927   0.923   1.101   2.155  0.0556 -0.3178 -0.1169
  409W        W 3928   0.749   4.770   3.078  0.1030 -0.1595  0.0594
  410W        W 3929   1.347   4.144  11.202  0.2772  0.0098 -0.2072
  411W        W 3930   5.003   4.318   5.309 -0.3442  0.0856 -0.1535
  412W        W 3931   0.548   2.576   1.346  0.1576 -0.3411  0.0327
  413W        W 3932   4.358   6.235   3.479 -0.0851 -0.0581  0.1331
  414W        W 3933   7.954   3.520   0.386  0.1821  0.0786  0.0223
  415W        W 3934   3.051   0.896   2.101  0.0835  0.2827  0.0560
  416W        W 3935   7.275   5.320   2.004  0.0998  0.1254  0.0011
  417W        W 3936   5.827   7.537  11.815  0.0981 -0.2753  0.0925
  418W        W 3937   3.529   1.098   9.659 -0.2806 -0.1705 -0.0243
  419W        W 3938   5.760   2.961  10.081  0.0845 -0.1294 -0.0674
  420W        W 3939   2.062   6.539   9.023 -0.0039  0.2857 -0.1123
  421W        W 3940   0.075   8.047   3.895  0.0718  0.3890 -0.0385
  422W        W 3941   3.474   9.037   8.248 -0.0375  0.1249 -0.0806
  423W        W 3942   7.730   3.421   3.584 -0.3669 -0.0710 -0.1007
  424W        W 3943   7.098   1.997   2.427  0.2336  0.2378  0.1982
  425W        W 3944   4.013   8.409   2.352 -0.1592 -0.0212  0.2695
  426W        W 3945   2.658   4.411   3.622 -0.0373  0.1829 -0.2140
  427W        W 3946   7.525   4.039   9.134 -0.1443 -0.0167 -0.1414
  428W        W 3947   8.775   5.870  11.847 -0.2220 -0.0687  0.3832
  429W        W 3948   9.149   8.818  10.632  0.0380  0.1000 -0.2829
  430W        W 3949   4.416   6.749   1.809 -0.2772 -0.0596  0.1351
  431W        W 3950   1.010   2.995   3.392 -0.0617 -0.1339  0.1565
  432W        W 3951   2.287   6.681   9.490 -0.0268 -0.0888 -0.1210
  433W        W 3952   1.908   5.344  11.034 -0.1496 -0.0273 -0.1931
  434W        W 3953   7.856   0.390   9.504  0.0064 -0.3318 -0.2245
  435W        W 3954   7.802   8.002   4.093  0.1504  0.0709  0.1019
  436W        W 3955   9.399   3.395   1.174 -0.1930 -0.4574  0.3568
  437W        W 3956   1.423   1.793   2.883  0.2830  0.1589 -0.2046
  438W        W 3957   6.788   4.977   9.305 -0.0807 -0.3753 -0.2451
  439W        W 3958   3.792   7.582  11.001 -0.0450 -0.0612 -0.0756
  440W        W 3959   1.504   1.769   0.145 -0.2644  0.2240 -0.2814
  441W        W 3960   8.774   2.217   0.718  0.3142  0.1167  0.0465
  442W        W 3961   5.275   3.732  11.000  0.0725  0.1944 -0.2583
  443W        W 3962   5.068   6.236   8.792 -0.1186 -0.0823 -0.4058
  444W        W 3963   3.285   6.935   0.831 -0.0755 -0.0235  0.0131
  445W        W 3964   5.403   2.161   1.188  0.3878  0.1920  0.0151
  446W        W 3965   7.926   2.934  11.171  0.1372 -0.2625  0.1053
  447W        W 3966   0.571   8.038   1.624  0.0926 -0.2087 -0.1075
  448W        W 3967   0.657   5.841   1.510 -0.0705  0.0590 -0.2593
  449W        W 3968   1.905   4.063   1.449  0.0244 -0.1829  0.1565
  450W        W 3969   5.918   8.040   7.859 -0.1138  0.1191 -0.1088
  451W        W 3970   5.164   2.835   3.336 -0.1151 -0.3706 -0.0209
  452W        W 3971   1.316   2.661   4.326  0.2332  0.0156 -0.0793
  453W        W 3972   6.743   8.106   3.029  0.1979 -0.1682  0.2128
  454W        W 3973   7.937   8.715   2.399 -0.1582  0.0188 -0.2298
  455W        W 3974   8.288   5.239   0.255  0.2108 -0.0240 -0.1668
  456W        W 3975   3.761   6.364   9.189  0.3143 -0.1280  0.3214
  457W        W 3976   5.361   4.969   1.633  0.0692 -0.0272  0.0476
  458W        W 3977   6.779   8.352   5.087 -0.2603 -0.0586 -0.1536
  459W        W 3978   2.828   0.931  10.992 -0.0369  0.1986  0.0385
  460W        W 3979   8.936   6.000   8.338  0.1689 -0.1559 -0.1002
  461W        W 3980   6.272   4.150   4.872  0.1959 -0.1814 -0.2408
  462W        W 3981   7.647   1.443   9.169 -0.2276 -0.2845 -0.0777
  463W        W 3982   8.309   5.777   8.597  0.1049 -0.0084 -0.0150
  464W        W 3983   6.448   7.615   0.668 -0.0314  0.2534  0.0550
  465W        W 3984   6.320   5.734   0.384  0.0024 -0.0506  0.1849
  466W        W 3985   0.921   8.215  10.469 -0.0515  0.1486 -0.2548
  467W        W 3986   5.521   2.647   4.182  0.0117  0.3063  0.1759
  468W        W 3987   4.732   2.852  10.018  0.0366 -0.3260 -0.0986
  469W        W 3988   0.986   4.745   2.262  0.0804  0.0517 -0.2893
  470W        W 3989   0.309   8.398   2.029 -0.0055 -0.0888 -0.2550
  471W        W 3990   3.004   3.306   0.401  0.2122 -0.0572 -0.1325
  472W        W 3991   7.118   4.749   3.260  0.1396  0.0096 -0.3197
  473W        W 3992   7.849   7.059   2.833 -0.1392 -0.1319 -0.0018
  474W        W 3993   4.420   2.491  11.724 -0.6103  0.3077 -0.4077
  475W        W 3994   8.096   8.302   0.620 -0.4662 -0.0557 -0.0129
  476W        W 3995   8.650   8.248   9.756 -0.0116  0.0288 -0.0334
  477W        W 3996   3.976   0.549   3.158  0.0625 -0.0598 -0.3129
  478W        W 3997   3.724   0.919  10.557 -0.1602  0.2554  0.0834
  479W        W 3998   9.506   0.509   9.769  0.2673  0.1423 -0.3828
  480W        W 3999   0.438   4.542  11.030  0.0944  0.0600  0.1189
  481W        W 4000   0.134   6.560   2.911  0.0466  0.0914 -0.1306
  482W        W 4001   0.805   7.905   3.415  0.1246 -0.0451  0.1215
  483W        W 4002   3.402   2.497  10.280  0.4157 -0.3406 -0.2008
  484W        W 4003   4.469   7.388  10.441  0.0490  0.0778 -0.2015
  485W        W 4004   9.489   7.055   0.536 -0.1215  0.1468 -0.2287
  486W        W 4005   0.663   9.231   1.039  0.3058 -0.1321 -0.1243
  487W        W 4006   2.280   7.260   4.986 -0.2883  0.2221  0.2228
  488W        W 4007   0.362   6.970   0.205  0.2284  0.3493  0.0322
  489W        W 4008   6.721   6.765   8.672 -0.2171 -0.0131 -0.1519
  490W        W 4009   0.462   5.762  10.031  0.0371 -0.2042 -0.2673
  491W        W 4010   0.496   5.950   9.066  0.1305  0.2587  0.1328
  492W        W 4011   1.855   0.634   2.445 -0.1879 -0.0309  0.0092
  493W        W 4012   3.500   3.928  11.979  0.0876  0.1621 -0.1293
  494W        W 4013   1.656   9.441   1.607  0.2471 -0.0389  0.1986
  495W        W 4014   6.700   7.279   0.480 -0.4382  0.1312  0.0718
  496W        W 4015   5.213   5.797  10.134 -0.0810 -0.2965  0.1597
  497W        W 4016   1.228   9.245  11.016 -0.2374 -0.0613 -0.0559
  498W        W 4017   7.676   7.263   0.589  0.1252  0.0649  0.0537
  499W        W 4018   8.181   5.953   3.589  0.0206  0.1329 -0.3136
  500W        W 4019   6.595   9.179  10.610  0.1974 -0.2031 -0.0795
  501W        W 4020   7.746   2.578   1.925 -0.1896 -0.1420  0.2889
  502W        W 4021   4.543   8.139  11.113  0.1333  0.2066  0.1702
  503W        W 4022   7.745   5.999  10.588 -0.1952  0.0200 -0.0809
  504W        W 4023   0.670   9.736   3.088 -0.0329 -0.1639 -0.0497
  505W        W 4024   1.293   2.456   0.087 -0.1968  0.1591  0.3048
  506W        W 4025   5.216   9.798   0.822 -0.3289  0.1810 -0.1152
  507W        W 4026   0.356   2.519   9.967 -0.1885 -0.1121 -0.0802
  508W        W 4027   8.355   4.679  10.301  0.0125 -0.1647 -0.3577
  509W        W 4028   7.721   0.684   8.600 -0.1733  0.0415 -0.1964
  510W        W 4029   8.291   7.014   4.261 -0.0220 -0.0049 -0.1274
  511W        W 4030   4.901   1.264   9.453  0.0332 -0.1244 -0.0317
  512W        W 4031   2.487   7.874  10.786  0.1457  0.2503  0.2189
  513W        W 4032   3.173   3.836   3.460  0.1898 -0.1500  0.4134
  514W        W 4033   8.671   1.717  12.034  0.1671 -0.0564 -0.0782
  515W        W 4034   4.644   9.471   0.399 -0.3061  0.0441  0.1017
  516W        W 4035   8.320   4.221   9.057 -0.3517 -0.0497  0.0022
  517W        W 4036   4.632   3.241   9.608  0.2208  0.0173 -0.2427
  518W        W 4037   3.752   7.283  11.738 -0.1342  0.0050 -0.1374
  519W        W 4038   1.542   3.039   2.169  0.1135  0.0759 -0.0603
  520W        W 4039   8.952   4.238   1.741  0.0367  0.2945  0.1693
  521W        W 4040   4.913   2.280   2.499 -0.1933 -0.2409  0.2532
  522W        W 4041   4.172   7.878   7.709  0.2198 -0.2878  0.1390
  523W        W 4042   6.203   5.148   8.982 -0.0080  0.2737 -0.1326
  524W        W 4043   3.609   3.811   8.987 -0.0401  0.1158 -0.2259
  525W        W 4044   1.159   7.322  11.834  0.1710 -0.0459  0.0402
  526W        W 4045   8.906   2.266   0.210 -0.0910  0.0757  0.1295
  527W        W 4046   7.737   4.182   9.632  0.0429  0.1567  0.0593
  528W        W 4047   1.246   3.448   1.944  0.3054  0.2171  0.0225
  529W        W 4048   4.108   7.872   1.496  0.0064  0.0092 -0.2014
  530W        W 4049   4.147   1.194   9.069  0.0940 -0.0931 -0.0790
  531W        W 4050   6.982   1.220  11.275 -0.4616 -0.0696 -0.0943
  532W        W 4051   0.758   9.111   2.294  0.2609  0.2078 -0.0833
  533W        W 4052   6.412   0.713   4.223  0.1392  0.1148  0.0936
  534W        W 4053   5.998   4.248   9.818 -0.0057  0.0620 -0.0773
  535W        W 4054   9.681   6.982   2.074 -0.1318 -0.1145 -0.4161
  536W        W 4055   9.281   1.183   9.318  0.2508  0.1129  0.0118
  537W        W 4056   4.620   4.108   3.217 -0.0157 -0.2793 -0.1706
  538W        W 4057   6.557   8.965   0.988  0.0498  0.2613 -0.2526
  539W        W 4058   3.727   7.529   2.466  0.2069  0.0249  0.0107
  540W        W 4059   4.070   6.261   3.065  0.0206 -0.2407  0.1654
  541W        W 4060   2.640   9.858   0.936 -0.1831 -0.1436 -0.2450
  542W        W 4061   7.061   5.144   0.162  0.0826 -0.0801 -0.1622
  543W        W 4062   7.863   2.960   0.405  0.1123  0.2771 -0.3951
  544W        W 4063   8.636   6.227   0.035  0.2288 -0.1821  0.1448
  545W        W 4064   4.990   9.069   0.427 -0.2128 -0.1202 -0.1334
  546W        W 4065   6.595   8.863   2.364  0.0089  0.0715 -0.1640
  547W        W 4066   8.617   0.980  11.288 -0.1318 -0.0571  0.1282
  548W        W 4067   7.417   9.026  11.201 -0.1217 -0.5572 -0.0599
  549W        W 4068   2.416   4.913   9.676 -0.0301  0.0011  0.1708
  550W        W 4069   6.586   6.660   3.556  0.2128 -0.2968  0.0803
  551W        W 4070   5.369   1.506   2.009  0.0265  0.1049  0.1481
  552W        W 4071   1.978   1.819   9.338  0.0723  0.3549  0.0904
  553W        W 4072   7.619   6.578   1.876 -0.0836  0.1088  0.5362
  554W        W 4073   7.780   5.830   3.257 -0.0843 -0.3019 -0.1995
  555W        W 4074   2.449   8.443   4.421  0.3413  0.1199  0.0320
  556W        W 4075   0.072   0.382   7.364 -0.1299 -0.0306 -0.3322
  557W        W 4076   6.840   7.218   1.569  0.1890 -0.0642  0.0916
  558W        W 4077   3.293   1.771   2.588  0.0312  0.1344  0.3592
  559W        W 4078   1.025   8.877   9.250  0.0114 -0.0414 -0.1920
  560W        W 4079   6.077   8.330   9.920 -0.1429  0.0514  0.0581
  561W        W 4080   4.243   0.157  10.704  0.2040 -0.1245  0.1053
  562W        W 4081   8.434   9.191   2.958  0.1835 -0.2449  0.2357
  563W        W 4082   6.192   3.350   0.844  0.0679 -0.1670  0.1011
  564W        W 4083   2.355   1.542   4.474 -0.2685  0.0000  0.1091
  565W        W 4084   4.009   0.194   2.750  0.1481 -0.1491  0.0963
  566W        W 4085   1.904   9.471  11.551  0.1698  0.3111  0.1192
  567W        W 4086   2.716   3.855   3.470  0.2374  0.2472  0.0621
  568W        W 4087   5.719   9.688  10.957 -0.3339 -0.1064  0.0037
  569W        W 4088   9.373   5.302   3.051  0.0365  0.0817 -0.2777
  570W        W 4089   2.836   4.633  10.881  0.1266  0.1910  0.2123
  571W        W 4090   2.800   3.820  10.952 -0.1129  0.1844 -0.1700
  572W        W 4091   2.312   9.355  10.718 -0.2936  0.0995  0.1554
  573W        W 4092   5.592   3.896   1.963  0.0958  0.2829 -0.1486
  574W        W 4093   8.578   1.229  12.083 -0.0864  0.0528 -0.2325
  575W        W 4094   2.110   3.385   1.502 -0.1734  0.0369  0.2331
  576W        W 4095   0.926   8.545   9.628 -0.0923 -0.1214  0.0501
  577W        W 4096   0.916   6.245   9.187 -0.1825 -0.0601 -0.2034
  578W        W 4097   9.484   6.013   2.302  0.1168  0.5594  0.1162
  579W        W 4098   7.529   1.777   3.433 -0.0760 -0.0149  0.1241
  580W        W 4099   4.868   9.500   2.516 -0.1390 -0.1483 -0.0011
  581W        W 4100   9.671   8.647  10.857  0.0897  0.1585  0.4325
  582W        W 4101   4.796   0.258   1.629 -0.0907  0.3211 -0.0373
  583W        W 4102   7.442   5.450   4.176 -0.0377 -0.1629 -0.0733
  584W        W 4103   5.097   3.077   9.555  0.1463 -0.0015 -0.1081
  585W        W 4104   7.081   3.826  11.830  0.1921  0.0559 -0.3454
  586W        W 4105   0.962   0.344   3.623  0.0532  0.2754 -0.0111
  587W        W 4106   1.681   5.347  11.855  0.3213  0.1042 -0.1497
  588W        W 4107   1.808   4.603  11.953  0.0636  0.1094 -0.2564
  589W        W 4108   6.725   8.071   0.049  0.1475  0.2006 -0.1338
  590W        W 4109   8.957   1.456   2.813 -0.1700 -0.1094  0.0089
  591W        W 4110   7.131   6.838  10.609 -0.0362 -0.1095 -0.0528
  592W        W 4111   4.406   0.136   1.309  0.1080 -0.1899  0.0150
  593W        W 4112   8.831   5.934   1.845  0.3939  0.0055  0.0626
  594W        W 4113   7.736   2.997   9.758 -0.1012  0.2035  0.0486
  595W        W 4114   6.136   4.393  10.326  0.0680 -0.0248 -0.4310
  596W        W 4115   4.914   4.950   0.451  0.1916  0.3641  0.2187
  597W        W 4116   0.172   1.471   4.527 -0.1363 -0.0455 -0.1697
  598W        W 4117   1.422   2.866   1.270 -0.2452 -0.0812 -0.2339
  599W        W 4118   5.192   8.990   1.183 -0.4049  0.0597 -0.1652
  600W        W 4119   6.699   4.743  10.297  0.1489  0.1016  0.2339
  601W        W 4120   1.021   7.257   4.352  0.1742  0.0610  0.0543
  602W        W 4121   8.409   7.297   9.629 -0.1512 -0.1691 -0.1438
  603W        W 4122   4.268   7.898   4.189 -0.0339 -0.3358 -0.2109
  604W        W 4123   6.183   2.715   2.912  0.1630  0.0435  0.2703
  605W        W 4124   2.914   4.802   2.715 -0.0714 -0.1876 -0.5464
  606W        W 4125   2.065   2.985  11.811 -0.1372  0.1021  0.0724
  607W        W 4126   6.102   8.963   0.806  0.2535 -0.0948 -0.0785
  608W        W 4127   0.837   0.391   0.053 -0.2182  0.1821 -0.0578
  609W        W 4128   5.452   4.447   9.049  0.2144  0.1373 -0.1840
  610W        W 4129   4.813   0.862  11.941 -0.0554  0.2344 -0.1236
  611W        W 4130   6.783   6.785   9.163  0.1020 -0.0936  0.1334
  612W        W 4131   2.218   2.352   4.779 -0.2369 -0.0906  0.0701
  613W        W 4132   1.460   2.738   1.794  0.1459  0.1356  0.2943
  614W        W 4133   7.268   4.120   4.010 -0.0381 -0.1560  0.1695
  615W        W 4134   3.639   7.834  11.867  0.3393  0.1134  0.2869
  616W        W 4135   5.391   2.036   2.286 -0.4835 -0.0447  0.0444
  617W        W 4136   3.585   0.595   3.433  0.1517 -0.3318 -0.1714
  618W        W 4137   1.814   3.605   1.119  0.0356  0.1257 -0.3809
  619W        W 4138   4.550   1.120   1.395 -0.1184 -0.1078 -0.0477
  620W        W 4139   1.888   5.408   8.728 -0.1510 -0.1207  0.0056
  621W        W 4140   6.557   9.769  10.110 -0.2952 -0.1129 -0.0746
  622W        W 4141   1.370   8.508   9.991 -0.0726 -0.0601 -0.0801
  623W        W 4142   2.035   6.182  12.079  0.5411  0.1269  0.2379
  624W        W 4143   4.305   3.767   0.053  0.0756  0.3202  0.3400
  625W        W 4144   6.405   9.492   3.150 -0.0726 -0.0263  0.0320
  626W        W 4145   9.142   2.207   4.487  0.1457 -0.0267 -0.1268
  627W        W 4146   3.986   6.812  10.615  0.0741  0.3040 -0.0428
  628W        W 4147   2.485   8.262   3.371  0.0245  0.0386  0.0305
  629W        W 4148   9.241   3.836   0.810 -0.2560  0.2398  0.2388
  630W        W 4149   3.128   7.545   9.897 -0.1957  0.1926 -0.3751
  631W        W 4150   2.833   5.938   0.128  0.0338 -0.1247  0.1385
  632W        W 4151   7.342   0.867   2.367  0.1083 -0.1575  0.3055
  633W        W 4152   2.004   7.122   9.519 -0.0497 -0.1020  0.0582
  634W        W 4153   7.858   6.864   9.955 -0.1697 -0.1594 -0.5621
  635W        W 4154   5.886   1.671   2.981 -0.2194  0.1672  0.0432
  636W        W 4155   1.670   4.693  10.078  0.0465 -0.0151 -0.0980
  637W        W 4156   9.324   9.395   0.957 -0.2430 -0.3252  0.2589
  638W        W 4157   0.938   0.565   2.549  0.2938  0.0940  0.1223
  639W        W 4158   3.424   3.798   3.941  0.5295 -0.0918 -0.2947
  640W        W 4159   2.264   0.908   2.651  0.0942 -0.3398  0.3634
  641W        W 4160   9.353   1.212   8.785  0.0262  0.0126 -0.1675
  642W        W 4161   4.424   6.971   9.301 -0.2371 -0.1726 -0.1040
  643W        W 4162   2.746   2.526   3.339 -0.1950 -0.3782  0.1535
  644W        W 4163   9.505   9.682   9.534  0.2122 -0.1463  0.1463
  645W        W 4164   1.685   2.962   9.763 -0.1829 -0.0700  0.1984
  646W        W 4165   1.736   9.513  10.133 -0.0908 -0.2886 -0.1970
  647W        W 4166   6.590   5.941   9.698  0.1451  0.2712  0.0815
  648W        W 4167   4.014   5.968   1.181  0.1436 -0.0690 -0.0859
  649W        W 4168   3.558   6.964   0.011  0.3941  0.0531 -0.0529
  650W        W 4169   4.082   9.343   4.076 -0.1470 -0.1146  0.0907
  651W        W 4170   2.884   9.241   9.963 -0.1527 -0.1723  0.0994
  652W        W 4171   5.902   3.763   9.796  0.2278  0.2667 -0.4495
  653W        W 4172   8.995   3.885   9.474 -0.1409  0.0139 -0.3904
  654W        W 4173   4.580   7.615   2.079 -0.0825 -0.1797 -0.0663
  655W        W 4174   5.423   7.610   0.001 -0.0719 -0.0589 -0.0555
  656W        W 4175   1.628   2.136  10.745 -0.1189 -0.0554  0.0436
  657W        W 4176   5.565   9.196   2.194  0.2997  0.2181  0.1922
  658W        W 4177   9.855   5.105   9.174 -0.1113 -0.1236  0.1915
  659W        W 4178   7.401   6.316   4.067 -0.1561  0.0811  0.0075
  660W        W 4179   5.506   5.993  10.838  0.3766 -0.0168 -0.1307
  661W        W 4180   4.477   3.492   9.188 -0.0252 -0.0840  0.1313
  662W        W 4181   3.578   7.169  10.693 -0.1433  0.0575 -0.0576
  663W        W 4182   5.812   4.903   1.974  0.0054 -0.1354  0.2405
  664W        W 4183   1.381   3.917   9.508 -0.0523  0.1889  0.1809
  665W        W 4184   1.791   6.732   1.164  0.0301 -0.1862 -0.0390
  666W        W 4185   4.744   3.562   0.740 -0.1508  0.0098  0.1136
  667W        W 4186   8.766   3.047  10.562  0.0116 -0.2754 -0.1249
  668W        W 4187   2.438   1.795   2.217 -0.0331 -0.2879  0.3257
  669W        W 4188   3.819   6.261   1.581 -0.0418 -0.2708  0.0988
  670W        W 4189   2.312   8.383  10.961  0.0347 -0.1115  0.1081
  671W        W 4190   4.983   3.072   0.601 -0.0317  0.0478  0.1025
  672W        W 4191   2.316   6.016   0.343  0.1800  0.1786  0.0141
  673W        W 4192   5.321   0.306   3.811 -0.1536  0.2155  0.0262
  674W        W 4193   0.512   7.116   9.679 -0.0822  0.2303  0.0493
  675W        W 4194   6.773   5.774   0.653 -0.1384 -0.3167 -0.2499
  676W        W 4195   7.774   8.581   9.041 -0.0145  0.0150 -0.2575
  677W        W 4196   1.022   5.089   0.909 -0.2058  0.1467 -0.1597
  678W        W 4197   6.901   9.331   1.886 -0.2491 -0.2583  0.2628
  679W        W 4198   3.524   7.863  10.673 -0.0211  0.0263  0.3366
  680W        W 4199   0.753   8.335  10.946 -0.0473  0.1142  0.2634
  681W        W 4200   3.973   5.412  10.489  0.0292  0.0350  0.2160
  682W        W 4201   0.342   4.607   1.150 -0.0381  0.0624  0.1946
  683W        W 4202   8.672   2.011  10.907 -0.1098 -0.0397 -0.0753
  684W        W 4203   2.981   6.214   9.630 -0.0713 -0.0008  0.2843
  685W        W 4204   2.989   2.448   1.578  0.1519 -0.1193  0.0725
  686W        W 4205   6.606   4.119   1.123 -0.1171 -0.2015  0.2184
  687W        W 4206   4.025   0.078  10.213  0.6112  0.5595  0.0057
  688W        W 4207   0.112   7.149   8.248 -0.2332 -0.1216 -0.0065
  689W        W 4208   3.375   9.507   2.739 -0.0563 -0.1323  0.1109
  690W        W 4209   9.821   4.677   0.674 -0.0568 -0.2064  0.2542
  691W        W 4210   3.120   6.519   1.981 -0.0408  0.2999  0.0299
  692W        W 4211   4.303   3.887   8.930 -0.0740  0.0010  0.1874
  693W        W 4212   1.187   6.209  10.522 -0.0566  0.1011 -0.1500
  694W        W 4213   2.972   8.755  11.117  0.0816  0.0991 -0.1719
  695W        W 4214   8.037   1.556   8.893 -0.0133 -0.2248 -0.1143
  696W        W 4215   3.218   9.301   1.033  0.1388 -0.3796  0.0946
  697W        W 4216   2.277   8.604   2.560 -0.0923 -0.1669 -0.1364
  698W        W 4217   7.545   6.681   1.387 -0.2189  0.2202 -0.1739
  699W        W 4218   2.631   6.354   9.305  0.2202 -0.0693  0.0447
  700W        W 4219   8.346   0.877   3.217 -0.0647 -0.0638  0.1963
  701W        W 4220   1.830   1.489   3.701  0.2411  0.0843 -0.1066
  702W        W 4221   7.213   7.753  11.377 -0.0007  0.1124  0.1350
  703W        W 4222   7.300   1.919  11.095  0.1051 -0.2834  0.3518
  704W        W 4223   8.975   7.831   1.170  0.4381 -0.3872 -0.2394
  705W        W 4224   8.680   7.643   3.097 -0.2205  0.1796 -0.0496
  706W        W 4225   0.338   7.808   3.552  0.0053 -0.0648  0.0923
  707W        W 4226   0.483   6.992   3.002 -0.2243  0.0947  0.1625
  708W        W 4227   7.043   9.816   2.125 -0.4523  0.1751  0.3342
  709W        W 4228   5.697   4.699   9.603  0.1627  0.1785 -0.0643
  710W        W 4229   5.187   4.489  11.833 -0.2448 -0.1688  0.0410
  711W        W 4230   1.560   7.314   4.452 -0.1247  0.2251 -0.1517
  712W        W 4231   0.391   4.003   0.258 -0.2238 -0.1493  0.0127
  713W        W 4232   6.571   1.160   2.505  0.0542  0.2474 -0.0275
  714W        W 4233   2.400   3.523   9.243  0.2267  0.1644 -0.0852
  715W        W 4234   9.080   0.769   9.664  0.0532  0.0890 -0.1831
  716W        W 4235   0.434   3.917   1.664  0.0714 -0.0414  0.1490
  717W        W 4236   2.255   8.984   3.254  0.0055 -0.0659  0.0060
  718W        W 4237   7.797   4.747   4.654  0.2178  0.0212  0.2635
  719W        W 4238   8.855   0.624  10.470 -0.0796 -0.1673  0.1787
  720W        W 4239   3.613   3.510   9.469  0.0759  0.2450  0.2417
  721W        W 4240   8.663   7.185   8.816  0.0253 -0.1067 -0.2337
  722W        W 4241   2.415   5.684   1.180 -0.0486 -0.1839  0.2246
  723W        W 4242   3.257   2.155  10.726 -0.0039  0.1232 -0.0662
  724W        W 4243   8.914   8.497   1.129 -0.0513  0.0968 -0.0345
  725W        W 4244   2.722   8.249  11.141  0.0021 -0.2135 -0.0039
  726W        W 4245   9.376   8.078   1.784  0.0649 -0.0027  0.1749
  727W        W 4246   4.285   3.156   0.788 -0.1251  0.1873  0.3084
  728W        W 4247   1.334   0.556   0.998 -0.1067  0.2612 -0.4006
  729W        W 4248   9.726   6.265   0.193  0.1155  0.3144  0.0668
  730W        W 4249   5.827   0.935   1.372  0.1604  0.3287  0.3397
  731W        W 4250   8.420   6.215   1.604 -0.1196 -0.2742  0.0344
  732W        W 4251   4.287   6.597   8.791 -0.1252  0.3882  0.1766
  733W        W 4252   5.364   0.145  11.001  0.1359  0.3667  0.2491
  734W        W 4253   4.882   8.270   2.636 -0.0962  0.2398  0.1594
  735W        W 4254   9.168   0.775  11.537  0.0830  0.0613  0.2134
  736W        W 4255   0.423   9.783   1.677  0.0296 -0.1054 -0.4114
  737W        W 4256   0.587   4.907  11.275  0.0097  0.0628 -0.1697
  738W        W 4257   1.856   4.021   0.469 -0.1717  0.2224  0.0672
  739W        W 4258   5.586   5.371   0.828  0.0107 -0.0318 -0.0389
  740W        W 4259   0.487   0.298   2.085  0.1296  0.2853 -0.0890
  741W        W 4260   3.780   7.847   4.019  0.0838 -0.3734  0.2415
  742W        W 4261   8.817   9.504   8.895  0.2027  0.1171 -0.1392
  743W        W 4262   4.192   2.072  11.852 -0.0242 -0.1355 -0.3039
  744W        W 4263   1.712   4.200   1.877 -0.0008 -0.0085 -0.3686
  745W        W 4264   6.178   8.417  11.110 -0.0990  0.0757 -0.0490
  746W        W 4265   3.131   6.653   4.083  0.0624 -0.0652 -0.3146
  747W        W 4266   4.908   0.947   2.842  0.3478 -0.0446 -0.0296
  748W        W 4267   4.924   4.326   2.059  0.2278  0.2157  0.0602
  749W        W 4268   0.098   0.612  10.810 -0.0033 -0.2142  0.0740
  750W        W 4269   1.637   3.255  11.890 -0.1587  0.1753 -0.0422
  751W        W 4270   7.360   3.605  10.706 -0.1224 -0.0435  0.1231
  752W        W 4271   0.879   7.097   0.210  0.2490  0.1989 -0.2737
  753W        W 4272   7.382   0.190   1.235  0.1351  0.4532  0.0762
  754W        W 4273   1.983   4.064   0.956 -0.0169  0.1585  0.1701
  755W        W 4274   2.129   8.203   4.752  0.2853 -0.1000 -0.0024
  756W        W 4275   3.593   4.119   3.491  0.0667 -0.0188 -0.0039
  757W        W 4276   7.953   4.385   9.278  0.2871 -0.2159  0.1361
  758W        W 4277   3.154   3.452   4.305 -0.0284  0.0671 -0.1644
  759W        W 4278   8.851   2.840   9.039  0.0545  0.3158 -0.0648
  760W        W 4279   8.332   5.340   8.211 -0.0583  0.0463  0.1744
  761W        W 4280   8.290   3.451   3.349  0.1263 -0.2798 -0.0806
  762W        W 4281   0.965   5.550   0.552  0.2498 -0.1172 -0.0819
  763W        W 4282   5.907   3.491   9.359  0.0505  0.0919 -0.2599
  764W        W 4283   3.346   2.982   1.263  0.1763 -0.2094 -0.1339
  765W        W 4284   1.410   7.930  11.107  0.0135  0.0469  0.0409
  766W        W 4285   7.291   3.822   2.470 -0.2475  0.1488 -0.2114
  767W        W 4286   6.341   4.108   3.858 -0.0627  0.0903  0.2167
  768W        W 4287   2.528   6.519   2.862 -0.1476  0.2231  0.2475
  769W        W 4288   7.899   2.004  10.622  0.1295 -0.2472  0.1112
  770W        W 4289   1.475   3.185  10.180  0.0440 -0.0062 -0.2662
  771W        W 4290   7.758   0.674   8.035  0.1319  0.2296  0.1553
  772W        W 4291   1.817   5.996   0.380 -0.2703  0.0459 -0.1543
  773W        W 4292   2.505   8.221   9.493 -0.3249 -0.1183 -0.0077
  774W        W 4293   7.847   1.602   1.624 -0.0501 -0.1052 -0.1042
  775W        W 4294   4.032   2.781   1.749  0.0982  0.2507  0.0536
  776W        W 4295   1.607   3.212   1.621  0.1043 -0.1911 -0.1025
  777W        W 4296   5.050   3.710   2.395 -0.2157 -0.0682 -0.1240
  778W        W 4297   7.292   0.890   8.412 -0.1745 -0.3677  0.6045
  779W        W 4298   8.891   9.750  10.647  0.2499  0.0241 -0.1356
  780W        W 4299   4.499   5.205   0.586 -0.2581  0.0523  0.1404
  781W        W 4300   7.823   2.611   2.443 -0.0839 -0.3785 -0.0839
  782W        W 4301   7.471   2.443  11.662 -0.0976 -0.2612  0.2812
  783W        W 4302   6.950   5.670   7.927 -0.2262 -0.0914  0.0786
  784W        W 4303   8.913   9.851   6.496 -0.1635 -0.2229  0.2947
  785W        W 4304   7.110   2.568   0.237  0.0506  0.1714 -0.3787
  786W        W 4305   4.503   1.087  10.795  0.0093  0.0038  0.1250
  787W        W 4306   8.582   3.828   3.710  0.0403  0.3234 -0.1655
  788W        W 4307   2.549   2.360   1.349  0.1761 -0.1332  0.2484
  789W        W 4308   0.981   7.096   3.881 -0.5356 -0.0853  0.3180
  790W        W 4309   5.203   4.539   0.633  0.1473 -0.1088  0.1509
  791W        W 4310   2.383   7.188   3.441 -0.0358 -0.1491  0.1764
  792W        W 4311   5.501   0.119   2.861  0.1813 -0.3604 -0.3654
  793W        W 4312   6.558   1.980   0.041 -0.1829  0.2683  0.0165
  794W        W 4313   0.094   8.827  10.495  0.1672 -0.1146  0.2937
  795W        W 4314   1.406   7.019   0.190 -0.0471 -0.3282  0.0282
  796W        W 4315   6.479   0.241   2.460  0.2353  0.2730 -0.3020
  797W        W 4316   1.535   7.726   0.673 -0.0978 -0.1768 -0.1651
  798W        W 4317   2.678   6.557  10.150 -0.2202 -0.1974  0.0746
  799W        W 4318   4.712   6.230  11.975  0.1031  0.2117  0.2741
  800W        W 4319   4.957   0.646   1.250  0.2008 -0.0982  0.2426
  801W        W 4320   0.204   9.679   3.718  0.1280  0.0133 -0.2621
  802W        W 4321   6.597   7.666  10.290  0.0820  0.0015 -0.2330
  803W        W 4322   6.489   6.201   4.571  0.2166  0.2224 -0.0473
  804W        W 4323   2.137   4.422   0.581  0.1221 -0.4353  0.0645
  805W        W 4324   4.257   9.463   1.627 -0.2518 -0.3198  0.0296
  806W        W 4325   5.186   9.151   2.574 -0.2107  0.2442 -0.1622
  807W        W 4326   2.283   4.476   3.944 -0.1700 -0.1771  0.3512
  808W        W 4327   5.753   6.589   3.996 -0.2842  0.1843  0.0647
  809W        W 4328   4.815   4.708   2.351 -0.1804 -0.0958  0.1070
  810W        W 4329   8.501   7.113  10.820  0.1305  0.3684 -0.0077
  811W        W 4330   3.812   3.327   0.774 -0.1259  0.2119 -0.1432
  812W        W 4331   5.034   5.381   1.710  0.0468  0.2206  0.0416
  813W        W 4332   7.004   6.250   9.833  0.1544 -0.0210  0.2117
  814W        W 4333   4.103   6.989   8.585 -0.0760 -0.1199 -0.0183
  815W        W 4334   7.149   0.142   4.032 -0.1058  0.0674 -0.0467
  816W        W 4335   9.536   4.169  10.620 -0.1176 -0.1332  0.2023
  817W        W 4336   7.074   6.053   3.756  0.0156 -0.0029  0.1320
  818W        W 4337   2.441   5.844   9.348 -0.2859 -0.0840  0.2215
  819W        W 4338   5.888   1.963   8.735  0.2604 -0.0351  0.1334
  820W        W 4339   9.811   5.075  11.297  0.0771 -0.0479 -0.0715
  821W        W 4340   8.611   2.183   2.336  0.0993 -0.0553  0.3337
  822W        W 4341   0.563   5.441   0.233 -0.2215  0.0294  0.1194
  823W        W 4342   1.611   3.896   3.851 -0.2990 -0.0305 -0.0915
  824W        W 4343   9.044   4.542   1.360  0.0986  0.0760  0.1303
  825W        W 4344   8.306   5.872  11.940 -0.1459  0.2635 -0.1711
  826W        W 4345   5.803   0.114   2.449  0.2534  0.0022  0.0797
  827W        W 4346   4.442   2.439  10.810  0.1920 -0.0285 -0.1299
  828W        W 4347   5.917   3.724   2.773 -0.0479  0.0497  0.0099
  829W        W 4348   6.620   1.355   0.956  0.0796 -0.2492 -0.0206
  830W        W 4349   1.322   8.935   9.674  0.1638 -0.1366  0.2355
  831W        W 4350   9.639   0.046   9.956  0.0350 -0.2607 -0.0401
  832W        W 4351   1.225   7.861   2.961  0.2356 -0.2026 -0.2338
  833W        W 4352   1.614   3.729  11.720  0.1482  0.2638 -0.0951
  834W        W 4353   3.450   0.105  10.263 -0.0357 -0.2193  0.2147
  835W        W 4354   1.960   3.397   9.936 -0.1726 -0.0975  0.3672
  836W        W 4355   7.562   7.631   1.031  0.1740  0.3253 -0.0365
  837W        W 4356   0.370   7.227  11.391 -0.1764 -0.3863 -0.1295
  838W        W 4357   1.836   4.561   1.279 -0.1098 -0.0850 -0.2315
  839W        W 4358   5.427   5.506  11.126 -0.0933  0.0381 -0.1844
  840W        W 4359   2.154   5.806   0.762 -0.2044 -0.0903  0.1357
  841W        W 4360   6.094   0.316   4.266 -0.1621  0.1031  0.1877
  842W        W 4361   8.833   0.468   9.067  0.2162 -0.0736 -0.1682
  843W        W 4362   7.345   0.506   3.697  0.4160 -0.1900 -0.2321
  844W        W 4363   0.844   4.107   1.498  0.1707 -0.1294 -0.2131
  845W        W 4364   2.291   1.439   1.092 -0.3087 -0.1634  0.3926
  846W        W 4365   2.742   1.896  11.561 -0.1616 -0.0217 -0.1008
  847W        W 4366   8.546   4.852   2.110  0.0042 -0.0440 -0.2059
  848W        W 4367   1.561   8.845  10.951  0.0460 -0.0846  0.1555
  849W        W 4368   6.680   2.648   2.169 -0.1854  0.1450 -0.1841
  850W        W 4369   8.267   3.718   0.676 -0.1336 -0.2801  0.2392
  851W        W 4370   8.473   0.220   0.425 -0.1651  0.1027  0.0456
  852W        W 4371   8.306   6.354  11.179  0.0196 -0.2145 -0.2801
  853W        W 4372   5.824   5.866   3.159 -0.1500 -0.2366 -0.1425
  854W        W 4373   6.155   2.280   3.687 -0.1399  0.1041  0.0027
  855W        W 4374   7.206   7.249   0.360  0.3507  0.0574 -0.0248
  856W        W 4375   1.990   4.583  10.988  0.0498 -0.0959 -0.0553
  857W        W 4376   1.087   3.171   1.547 -0.0459  0.1444 -0.2974
  858W        W 4377   4.255   5.664  10.881  0.2223 -0.0386 -0.1626
  859W        W 4378   3.599   8.352  10.133  0.2586 -0.0398  0.0859
  860W        W 4379   4.880   7.794  10.245 -0.4449  0.0310 -0.3606
  861W        W 4380   4.209   1.162  10.178 -0.0071 -0.0127  0.0615
  862W        W 4381   7.163   7.900   3.346  0.2918 -0.0294 -0.2072
  863W        W 4382   5.544   0.530  11.474  0.1267  0.1996 -0.2960
  864W        W 4383   9.208   2.483  11.730  0.4009 -0.0577 -0.0308
  865W        W 4384   9.382   4.167   9.285  0.3694 -0.0437 -0.1830
  866W        W 4385   6.463   7.573   0.132 -0.1872 -0.0489 -0.3640
  867W        W 4386   5.232   4.691   3.075  0.0503 -0.3553 -0.0061
  868W        W 4387   2.827   6.507   1.012  0.2571 -0.0505 -0.1586
  869W        W 4388   4.536   7.211  11.650 -0.2165 -0.4754  0.1258
  870W        W 4389   4.654   3.404   3.974  0.0017  0.2028 -0.0517
  871W        W 4390   8.224   0.343   1.054 -0.3335  0.2439 -0.2616
  872W        W 4391   9.349   6.693   1.762  0.0845  0.1300  0.0142
  873W        W 4392   5.231   3.034  11.627 -0.2950  0.2932  0.2735
  874W        W 4393   6.726   1.022  10.175  0.0942  0.1946 -0.1468
  875W        W 4394   8.490   8.049  11.173  0.0460 -0.2698 -0.3253
  876W        W 4395   3.644   7.843   3.089 -0.0467 -0.0703 -0.0286
  877W        W 4396   5.093   0.390  11.803 -0.0407 -0.3832  0.2735
  878W        W 4397   5.850   0.151  11.374 -0.2491 -0.0452 -0.1590
  879W        W 4398   6.401   8.494   9.476  0.1996 -0.0737  0.0383
  880W        W 4399   5.823   8.352   2.586  0.1796  0.1983 -0.0291
  881W        W 4400   1.604   3.718   1.671 -0.2081  0.1525  0.0072
  882W        W 4401   7.324   6.801  11.070 -0.1020  0.0662  0.0315
  883W        W 4402   8.615   8.226   0.824  0.0156  0.1972  0.0776
  884W        W 4403   1.243   1.783  10.643  0.2583  0.1087  0.1908
  885W        W 4404   5.091   1.671  11.483 -0.0332  0.1211 -0.3351
  886W        W 4405   3.980   3.343  10.340 -0.1642  0.0420 -0.0306
  887W        W 4406   0.750   5.512   1.114 -0.0642  0.1442 -0.1399
  888W        W 4407   6.842   4.642   9.662  0.1776  0.2448 -0.1404
  889W        W 4408   0.584   5.631   9.507  0.3947 -0.1531  0.0055
  890W        W 4409   7.407   1.531   0.717 -0.0837  0.1126 -0.1526
  891W        W 4410   9.223   2.850   2.277  0.0030  0.2281 -0.0999
  892W        W 4411   7.884   7.123   3.314 -0.0364 -0.2598  0.0872
  893W        W 4412   0.820   8.713   2.840 -0.2270  0.0957  0.2078
  894W        W 4413   4.464   0.972   9.363 -0.2053  0.3846  0.2209
  895W        W 4414   2.911   8.450  12.087  0.1783 -0.1419 -0.2784
  896W        W 4415   3.605   0.298   1.963  0.2118 -0.2037  0.1372
  897W        W 4416   4.188   1.590   2.903 -0.1039 -0.0466  0.0475
  898W        W 4417   9.433   6.677  10.543  0.2585 -0.3283 -0.2666
  899W        W 4418   3.424   1.503  11.965 -0.0836 -0.0338  0.0772
  900W        W 4419   3.895   8.192   1.161  0.2148 -0.0624 -0.0145
  901W        W 4420   8.189   5.180   9.149  0.2990 -0.1011  0.1994
  902W        W 4421   4.519   4.551   4.472 -0.0324  0.1119 -0.3950
  903W        W 4422   0.637   2.511  11.437  0.0904 -0.0982 -0.2749
  904W        W 4423   5.576   8.374   9.982  0.0052  0.1248 -0.0078
  905W        W 4424   5.443   3.349   0.670 -0.0494  0.0994  0.0475
  906W        W 4425   7.708   5.242   8.906  0.1147 -0.0403 -0.1185
  907W        W 4426   9.070   2.603  11.249  0.1690 -0.1661  0.0203
  908W        W 4427   8.582   9.019  11.483  0.0294  0.1055 -0.2510
  909W        W 4428   0.038   4.736   9.716 -0.2259  0.1325  0.2265
  910W        W 4429   1.951   2.706   2.164  0.1945  0.3532  0.1304
  911W        W 4430   3.647   1.425   0.423  0.1617 -0.3159 -0.0069
  912W        W 4431   3.146   8.822  10.095 -0.0060  0.1802 -0.3138
  913W        W 4432   7.996   6.793   0.180 -0.0077 -0.1030 -0.0163
  914W        W 4433   7.485   5.718  10.200 -0.0692  0.0548  0.0465
  915W        W 4434   1.865   8.464  10.640  0.1433  0.2257  0.0151
  916W        W 4435   8.560   9.720   3.962  0.3784  0.0608 -0.1241
  917W        W 4436   3.502   5.160   2.288 -0.0738  0.2920  0.1557
  918W        W 4437   3.852   2.495   3.614  0.1413  0.3171  0.0410
  919W        W 4438   4.901   9.159  11.032 -0.0696  0.2417 -0.1150
  920W        W 4439   5.126   4.195   3.031 -0.0525  0.0335  0.3601
  921W        W 4440   3.638   9.074  11.795  0.1904  0.0902  0.0513
  922W        W 4441   0.048   2.084   3.449  0.1787 -0.1289 -0.0764
  923W        W 4442   6.853   2.979   2.506  0.0024 -0.0179 -0.3572
  924W        W 4443   4.403   3.494  10.730 -0.2272 -0.3391 -0.0021
  925W        W 4444   7.951   7.268   0.986 -0.0404 -0.2132 -0.1543
  926W        W 4445   6.258   5.965  10.079 -0.2969  0.0038 -0.0430
  927W        W 4446   1.452   0.994  10.335  0.0596 -0.1057  0.2667
  928W        W 4447   7.340   4.985  11.917  0.0912 -0.0071  0.2766
  929W        W 4448   8.819   4.696   8.465  0.1139  0.0533 -0.3304
  930W        W 4449   5.813   9.724   8.179 -0.0188  0.0575  0.2215
  931W        W 4450   3.913   7.291   9.360 -0.1245 -0.0269 -0.3191
  932W        W 4451   2.615   4.078   1.947  0.0793  0.0209 -0.2523
  933W        W 4452   1.589   2.273   1.450  0.0633  0.0516  0.1459
  934W        W 4453   5.927   8.062  10.865  0.0203 -0.0928 -0.1087
  935W        W 4454   2.939   1.179  10.552 -0.0800  0.1837  0.0483
  936W        W 4455   4.922   1.017   4.838 -0.2433 -0.1056  0.1986
  937W        W 4456   0.570   6.328   4.214  0.1556 -0.0116 -0.2241
  938W        W 4457   5.911   6.920   2.854  0.0463 -0.6820  0.2064
  939W        W 4458   5.466   9.139   3.017 -0.1383 -0.2763  0.0159
  940W        W 4459   8.637   2.283   4.207 -0.3371 -0.1073 -0.0267
  941W        W 4460   4.422   2.243   9.245 -0.0098 -0.0809 -0.1673
  942W        W 4461   9.560   5.323   0.162 -0.2566  0.0559 -0.0279
  943W        W 4462   5.801   5.156   8.718 -0.2111  0.2686  0.2280
  944W        W 4463   9.233   5.356   0.498 -0.0821 -0.3111  0.0473
  945W        W 4464   7.307   6.339  11.292  0.2962 -0.1655  0.1434
  946W        W 4465   4.852   9.263  12.090 -0.0476 -0.1177  0.1298
  947W        W 4466   8.250   6.803   2.603 -0.0762 -0.2997  0.0513
  948W        W 4467   9.012   1.710   9.741 -0.2489 -0.1477 -0.2175
  949W        W 4468   1.017   0.949  11.827 -0.3514  0.0768 -0.1738
  950W        W 4469   7.239   4.609   1.985 -0.0899 -0.0406  0.2642
  951W        W 4470   9.545   4.787   4.275 -0.1501  0.4294 -0.1357
  952W        W 4471   0.789   8.476   1.904 -0.0110 -0.2789 -0.1937
  953W        W 4472   3.159   2.713   2.524 -0.1581 -0.0604  0.0378
  954W        W 4473   2.916   7.486   1.701 -0.0441 -0.2271 -0.1168
  955W        W 4474   8.960   7.028  10.718 -0.1085  0.4633  0.3911
  956W        W 4475   8.162   0.303  11.090  0.3512  0.2377  0.0899
  957W        W 4476   4.095   8.030   3.656  0.2981  0.0775 -0.3501
  958W        W 4477   8.909   6.515  11.369 -0.2531 -0.2906 -0.0031
  959W        W 4478   6.364   3.712   9.713 -0.1493  0.3221  0.0339
  960W        W 4479   3.157   8.398   8.038 -0.0385 -0.1431 -0.1031
  961W        W 4480   9.378   5.650   4.384  0.1425  0.1344 -0.2878
  962W        W 4481   1.727   2.535   2.962  0.3202  0.4164  0.1145
  963W        W 4482   7.363   5.938   2.481  0.1544  0.0072 -0.0544
  964W        W 4483   3.466   4.402   1.605  0.0260  0.0808 -0.1000
  965W        W 4484   8.614   5.757   0.220 -0.0359 -0.1219 -0.0077
  966W        W 4485   1.315   6.042   8.995 -0.0303  0.0516 -0.2654
  967W        W 4486   5.900   0.437   1.566  0.0506  0.2960 -0.0057
  968W        W 4487   2.927   6.503   3.094 -0.1813  0.0830  0.0354
  969W        W 4488   2.442   0.254  10.299 -0.3708  0.3669  0.0418
  970W        W 4489   0.273   2.679   0.275 -0.0886 -0.0579  0.1847
  971W        W 4490   7.988   9.396   1.705  0.0314  0.2332 -0.1400
  972W        W 4491   1.488   7.996   8.467  0.0942 -0.4234  0.0725
  973W        W 4492   0.601   1.603  10.135  0.2438  0.1953  0.0598
  974W        W 4493   3.790   7.433   0.049 -0.0280  0.0743  0.0611
  975W        W 4494   4.276   8.908  11.167 -0.1502  0.0753  0.0745
  976W        W 4495   7.016   4.187   2.861  0.3614  0.0923  0.2806
  977W        W 4496   1.383   5.144   9.404 -0.1444  0.1392  0.2411
  978W        W 4497   6.707   5.174   4.122  0.0506 -0.0163 -0.0236
  979W        W 4498   6.754   5.504   8.339 -0.1395  0.2096 -0.0965
  980W        W 4499   8.584   6.617  10.733  0.2077 -0.0850  0.2056
  981W        W 4500   5.458   2.964   5.060 -0.3035 -0.0553 -0.3257
  982W        W 4501   2.662   2.035  10.679  0.0432  0.2898 -0.4142
  983W        W 4502   0.957   1.653   2.004  0.5343  0.1766 -0.1643
  984W        W 4503   7.650   0.789   1.807 -0.2429  0.0893 -0.1633
  985W        W 4504   1.780   5.569  10.097 -0.2123 -0.1167  0.0919
  986W        W 4505   8.392   9.356   1.283 -0.0941 -0.0573 -0.1450
  987W        W 4506   0.478   0.477  10.472 -0.2315 -0.2804 -0.0088
  988W        W 4507   3.938   3.301   2.792 -0.0962 -0.0124 -0.0141
  989W        W 4508   5.893   2.374   2.173  0.0587 -0.0504 -0.1425
  990W        W 4509   9.089   4.573   2.102 -0.0330 -0.0705 -0.4019
  991W        W 4510   2.480   7.790   2.584 -0.2447 -0.1921 -0.2256
  992W        W 4511   8.125   1.600   9.885 -0.1339  0.0978 -0.2385
  993W        W 4512   6.924   9.121   4.307  0.0406 -0.0771 -0.0959
  994W        W 4513   4.999   6.110   4.266  0.1763  0.1607 -0.1088
  995W        W 4514   7.192   7.555   1.809 -0.1845 -0.3235  0.3588
  996W        W 4515   4.243   5.968   2.251  0.0474  0.3392 -0.2005
  997W        W 4516   6.066   1.634   9.077 -0.2023  0.1594 -0.2866
  998W        W 4517   8.057   9.027   1.372  0.0417 -0.0704  0.0648
  999W        W 4518   8.929   0.536   2.192 -0.2792 -0.0138  0.0383
 1000W        W 4519   8.255   2.552   8.518  0.0236 -0.0384  0.2529
 1001W        W 4520   1.624   9.694  11.103 -0.1030 -0.2861  0.0476
 1002W        W 4521   6.814   4.013   2.351  0.0728  0.2505  0.1669
 1003W        W 4522   9.098   7.280   9.887  0.0447  0.2133  0.1701
 1004W        W 4523   9.388   7.270   1.690  0.0724 -0.2995 -0.2254
 1005W        W 4524   1.881   7.346  11.927  0.1799 -0.2530 -0.1457
 1006W        W 4525   7.897   9.451   1.069  0.3405 -0.1410 -0.1025
 1007W        W 4526   2.882   7.456   9.005 -0.2091 -0.1098 -0.1414
 1008W        W 4527   5.183   6.856   1.721 -0.0718  0.0079 -0.0854
 1009W        W 4528   7.631   8.470   0.347 -0.0910 -0.1898 -0.1236
 1010W        W 4529   7.617   0.217  11.379  0.0955  0.1775 -0.0912
 1011W        W 4530   6.159   5.794   2.833  0.1954 -0.1486 -0.0227
 1012W        W 4531   8.314   7.589   8.614 -0.2903 -0.2968  0.2191
 1013W        W 4532   7.089   0.811   1.928 -0.0681  0.0791  0.0427
 1014W        W 4533   5.236   1.860   0.688 -0.1426 -0.0912  0.0806
 1015W        W 4534   3.701   0.467   5.155 -0.0957 -0.1604  0.3010
 1016W        W 4535   2.299   8.776   9.243  0.0339  0.2363  0.3505
 1017W        W 4536   9.661   0.368   4.209  0.1209  0.0856 -0.2382
 1018W        W 4537   0.885   8.396   3.648  0.5537 -0.2372 -0.3542
 1019W        W 4538   1.847   3.195  11.408 -0.3381 -0.0011  0.2809
 1020W        W 4539   4.725   3.601   3.296 -0.0912 -0.0223 -0.1026
 1021W        W 4540   3.597   6.005   4.781  0.2057  0.0830 -0.1468
 1022W        W 4541   9.454   7.453   3.095  0.1591 -0.1520  0.2722
 1023W        W 4542   5.755   7.675   8.778  0.0487 -0.1489 -0.1902
 1024W        W 4543   6.053   5.814   4.693  0.2168 -0.2167 -0.1810
 1025W        W 4544   0.173   1.437   0.877  0.2130  0.2610 -0.2004
 1026W        W 4545   6.833   6.536  10.250 -0.0128 -0.1668 -0.0825
 1027W        W 4546   1.549   4.047   0.006 -0.0488  0.0620 -0.1112
 1028W        W 4547   3.526   7.432   3.888  0.3894 -0.0062  0.3432
 1029W        W 4548   0.251   7.713  11.353  0.2373 -0.1058  0.0782
 1030W        W 4549   6.915   0.151   7.976 -0.2197  0.0268  0.1215
 1031W        W 4550   4.299   2.331   3.456  0.2411  0.2047 -0.2143
 1032W        W 4551   3.650   5.648   9.616 -0.0352  0.0577 -0.1076
 1033W        W 4552   4.113   8.098   3.175 -0.1212  0.4668  0.0373
 1034W        W 4553   5.753   8.874   2.700 -0.0604 -0.0430  0.0017
 1035W        W 4554   8.121   8.194   9.956  0.3284 -0.1317 -0.1196
 1036W        W 4555   1.025   7.173   8.673  0.0795 -0.2117 -0.0840
 1037W        W 4556   3.857   8.073   0.600  0.0974  0.2153  0.0025
 1038W        W 4557   9.221   6.904   9.582 -0.2510 -0.0132  0.3232
 1039W        W 4558   6.584   5.090  11.813 -0.1607 -0.0507 -0.0448
 1040W        W 4559   4.120   3.473   1.192 -0.0273 -0.0041 -0.1197
 1041W        W 4560   4.721   6.949   1.048 -0.2195  0.4038  0.0349
 1042W        W 4561   8.603   0.716   9.998  0.2961 -0.3904 -0.5710
 1043W        W 4562   6.281   5.165   1.929  0.0811 -0.0035  0.0076
 1044W        W 4563   2.859   0.995   2.758  0.2928  0.5542  0.1452
 1045W        W 4564   0.405   7.982   0.107  0.1833  0.2212 -0.0304
 1046W        W 4565   0.225   7.595   8.430  0.0997  0.3582  0.1283
 1047W        W 4566   5.699   9.499   0.047 -0.1273 -0.1256  0.0579
 1048W        W 4567   4.536   8.760   9.426 -0.1432  0.2456 -0.0599
 1049W        W 4568   4.446   9.759  12.092 -0.3044 -0.3005 -0.0341
 1050W        W 4569   0.131   6.528   3.838  0.2164 -0.0322 -0.0009
 1051W        W 4570   5.266   8.129   2.979  0.1496 -0.2406 -0.0784
 1052W        W 4571   3.479   8.684   3.447 -0.1456 -0.0378  0.1568
 1053W        W 4572   1.918   4.449   8.994  0.0385  0.1781  0.0050
 1054W        W 4573   9.394   1.340   9.786 -0.0717 -0.1035 -0.3769
 1055W        W 4574   7.205   8.567  10.873  0.2794 -0.2608 -0.3059
 1056W        W 4575   1.770   4.515   4.453 -0.0809 -0.1663  0.1237
 1057W        W 4576   9.850   8.579   1.334 -0.1361  0.4735  0.0617
 1058W        W 4577   7.287   9.172   3.522 -0.0327  0.1401 -0.2060
 1059W        W 4578   3.647   1.810  11.596  0.0953  0.1799 -0.3514
 1060W        W 4579   3.551   9.083   8.736 -0.0000  0.1764  0.2202
 1061W        W 4580   5.930   8.114   4.160  0.2666  0.0245 -0.0289
 1062W        W 4581   3.202   4.633  10.000 -0.0440  0.1709 -0.3474
 1063W        W 4582   4.073   5.670  11.323 -0.0648 -0.1380 -0.1637
 1064W        W 4583   9.822   0.845   1.189 -0.2749  0.1394  0.0765
 1065W        W 4584   3.232   9.328   3.975  0.0975 -0.0249 -0.0798
 1066W        W 4585   8.262   1.910   3.066  0.1776  0.1560 -0.1233
 1067W        W 4586   4.166   8.635   1.007 -0.1206  0.2440 -0.2508
 1068W        W 4587   7.049   6.519   3.774 -0.2802 -0.4035  0.0495
 1069W        W 4588   5.142   7.307   9.650  0.0645 -0.0780 -0.2162
 1070W        W 4589   4.102   5.306  10.032  0.0843  0.1715  0.0659
 1071W        W 4590   1.913   7.711   8.468  0.0645 -0.1792 -0.1584
 1072W        W 4591   4.502   9.144   9.110 -0.2410  0.0336  0.1771
 1073W        W 4592   6.893   2.483   4.434  0.2385 -0.0780 -0.2534
 1074W        W 4593   7.811   1.168   9.725  0.1238  0.2559  0.0063
 1075W        W 4594   7.155   3.081  10.050 -0.1153  0.1488  0.0331
 1076W        W 4595   5.507   0.972   0.180 -0.0710  0.2277 -0.5153
 1077W        W 4596   3.348   5.783   9.141  0.0767 -0.0062 -0.2057
 1078W        W 4597   4.781   2.947   4.039 -0.1684 -0.0165 -0.0054
 1079W        W 4598   4.943   8.262   0.007  0.1105 -0.0194  0.0514
 1080W        W 4599   4.689   6.574   9.125 -0.2228 -0.1236  0.2525
 1081W        W 4600   2.561   5.473  12.110  0.3776  0.0414  0.0819
 1082W        W 4601   5.135   0.425   1.937  0.6658  0.0496  0.0414
 1083W        W 4602   0.986   2.058   2.875 -0.0393 -0.1787  0.2252
 1084W        W 4603   0.772   0.482   4.191  0.0260 -0.2229 -0.0567
 1085W        W 4604   3.769   7.414   1.966  0.0620 -0.2663 -0.1222
 1086W        W 4605   5.971   4.321   1.155  0.2245 -0.0471 -0.0819
 1087W        W 4606   9.347   9.337   9.956 -0.0625  0.0830 -0.1298
 1088W        W 4607   7.778   4.286   4.244  0.1039  0.2089 -0.0656
 1089W        W 4608   1.790   1.064   3.397  0.2689  0.1139 -0.2312
 1090W        W 4609   7.625   9.094   3.108 -0.0152 -0.4438  0.1788
 1091W        W 4610   4.244   2.084  10.285 -0.2351 -0.0984 -0.0766
 1092W        W 4611   2.956   3.218  10.965 -0.0928 -0.0957 -0.2135
 1093W        W 4612   1.221   7.802   3.779 -0.0361 -0.1436  0.0258
 1094W        W 4613   4.964   5.361  10.447 -0.1010 -0.1365 -0.1944
 1095W        W 4614   0.633   7.989   3.869 -0.1739 -0.2651 -0.2878
 1096W        W 4615   1.756   7.733  10.104  0.0483  0.0345  0.0016
 1097W        W 4616   7.302   0.417   2.134  0.1526  0.1813 -0.0755
 1098W        W 4617   1.298   8.819   3.054  0.2249  0.4131 -0.0039
 1099W        W 4618   2.551   3.105   0.559 -0.5356 -0.1645 -0.0335
 1100W        W 4619   2.784   5.458  11.074  0.1567  0.1587  0.1759
 1101W        W 4620   2.324   0.135   1.452  0.1318  0.0887  0.2390
 1102W        W 4621   6.189   9.112   2.871 -0.2504 -0.0466 -0.2014
 1103W        W 4622   1.891   9.050   5.026  0.0566 -0.2135 -0.0677
 1104W        W 4623   9.847   7.823   0.184  0.0188  0.1068  0.0075
 1105W        W 4624   8.771   5.452   8.382 -0.0709 -0.0621 -0.1101
 1106W        W 4625   0.943   0.093  11.704 -0.1323  0.2298 -0.1015
 1107W        W 4626   7.697   1.126   0.789  0.3023  0.2200 -0.1824
 1108W        W 4627   7.380   4.744  11.322 -0.0784 -0.1670  0.1654
 1109W        W 4628   6.161   0.669   0.068  0.2731  0.0286 -0.0970
 1110W        W 4629   9.345   2.117   9.638  0.0050  0.0905  0.1222
 1111W        W 4630   1.197   7.450   0.315  0.0562 -0.0916  0.0135
 1112W        W 4631   4.230   1.472  12.034 -0.1371  0.1862  0.0037
 1113W        W 4632   5.062   8.100   3.449  0.1766 -0.3829  0.1132
 1114W        W 4633   8.470   8.521   0.238 -0.3326  0.2845  0.0208
 1115W        W 4634   4.233   2.238   4.443 -0.0989  0.1358 -0.3971
 1116W        W 4635   0.353   6.793  10.928 -0.3431  0.2510  0.0372
 1117W        W 4636   9.539   1.007   2.031  0.2577 -0.0861 -0.1072
 1118W        W 4637   6.482   9.287   2.142  0.2508 -0.2339 -0.1482
 1119W        W 4638   6.932   8.327  10.297 -0.2017  0.0349 -0.1083
 1120W        W 4639   4.980   0.223  10.278  0.1746  0.0720 -0.4162
 1121W        W 4640   3.599   0.347   2.488  0.1727  0.0780 -0.2499
 1122W        W 4641   1.717   3.008   4.265  0.0799  0.0723  0.0624
 1123W        W 4642   0.420   2.940  10.856 -0.0718 -0.1148  0.2550
 1124W        W 4643   2.097   3.506  11.723 -0.3906  0.4040  0.2677
 1125W        W 4644   7.507   2.905   3.396  0.2691 -0.1251  0.0822
 1126W        W 4645   5.060   9.140   9.938 -0.0690  0.0725  0.1134
 1127W        W 4646   5.979   2.585  10.249 -0.3921 -0.2376 -0.1407
 1128W        W 4647   8.346   0.400   2.394  0.0088 -0.0492  0.3391
 1129W        W 4648   6.174   9.323   0.153  0.0358  0.2592 -0.0183
 1130W        W 4649   7.988   7.317   8.320  0.0457  0.0475 -0.2176
 1131W        W 4650   9.369   8.182   1.313 -0.1091  0.0242 -0.0520
 1132W        W 4651   4.603   3.372   0.262 -0.0939 -0.3433 -0.1134
 1133W        W 4652   2.987   0.432  11.005 -0.2546  0.2421  0.0981
 1134W        W 4653   6.313   2.868  11.153 -0.2122 -0.0388 -0.2222
 1135W        W 4654   1.777   1.471   4.844 -0.3276 -0.1293 -0.0098
 1136W        W 4655   9.749   1.637   9.560  0.2559  0.2691 -0.1978
 1137W        W 4656   5.210   1.714  12.009  0.1591  0.1640 -0.2684
 1138W        W 4657   9.358   8.025   4.011 -0.2928 -0.1392  0.2895
 1139W        W 4658   6.340   2.898  10.016  0.0769  0.0408 -0.1983
 1140W        W 4659   6.725   8.056  10.736 -0.1371 -0.2870  0.1058
 1141W        W 4660   9.577   6.421  11.869  0.0124 -0.2978  0.0913
 1142W        W 4661   6.111   7.268   3.258  0.0962 -0.1496  0.0037
 1143W        W 4662   7.529   1.562   9.946  0.2520  0.1729  0.0076
 1144W        W 4663   4.438   3.222   8.690  0.2022 -0.0765 -0.1093
 1145W        W 4664   0.271   7.508  11.862  0.0963 -0.3414 -0.3678
 1146W        W 4665   7.668   4.428   2.267  0.0634 -0.1317  0.2799
 1147W        W 4666   5.751   8.188   9.578 -0.3117 -0.1467  0.0692
 1148W        W 4667   6.844   8.377   8.782  0.2168  0.0045 -0.2152
 1149W        W 4668   2.691   5.846   9.816 -0.2801  0.1230  0.1071
 1150W        W 4669   0.894   3.206   2.939 -0.0755  0.2159 -0.2129
 1151W        W 4670   8.423   0.363  11.971 -0.2883 -0.1677 -0.2202
 1152W        W 4671   8.494   7.941  10.194 -0.0577  0.1738  0.0617
 1153W        W 4672   3.138   9.168   4.406  0.1764 -0.2225  0.1441
 1154W        W 4673   2.474   3.994  11.947  0.0722  0.1578 -0.0070
 1155W        W 4674   0.404   3.102   0.094 -0.0415  0.1112 -0.1561
 1156W        W 4675   6.969   1.565   1.260 -0.1505  0.1330  0.0228
 1157W        W 4676   3.722   3.341   9.014 -0.1943  0.3599  0.2805
 1158W        W 4677   6.946   4.925   0.713  0.1043 -0.1793 -0.3861
 1159W        W 4678   0.436   8.461  10.475 -0.2343  0.0499 -0.1783
 1160W        W 4679   1.693   5.109   2.085  0.1703 -0.1140  0.1429
 1161W        W 4680   4.808   6.709  11.755 -0.1134 -0.2321 -0.0142
 1162W        W 4681   5.364   1.002  10.463  0.1497  0.0346 -0.3137
 1163W        W 4682   5.389   9.301   0.742  0.3114 -0.0779 -0.0832
 1164W        W 4683   8.338   2.686  11.341 -0.1353 -0.0911  0.1439
 1165W        W 4684   1.576   9.443  11.986 -0.1578 -0.0543 -0.0980
 1166W        W 4685   2.364   1.948   4.012 -0.1819  0.1307  0.3526
 1167W        W 4686   2.920   4.856   9.582 -0.0731 -0.0074  0.0747
 1168W        W 4687   2.440   3.229   8.758 -0.0627 -0.2230  0.2151
 1169W        W 4688   1.738   7.168   4.954 -0.2079 -0.2118 -0.2266
 1170W        W 4689   7.768   0.880   0.309 -0.0942 -0.2631 -0.1823
 1171W        W 4690   7.917   2.439   0.500 -0.1016 -0.1862  0.1048
 1172W        W 4691   2.543   9.686   4.600  0.0935 -0.1241  0.0514
 1173W        W 4692   9.152   1.100  11.112 -0.0933 -0.0651 -0.2337
 1174W        W 4693   2.309   4.313   1.291 -0.1338  0.2055  0.3610
 1175W        W 4694   7.196   7.759   2.826 -0.2953  0.0240 -0.1002
 1176W        W 4695   2.799   1.874   2.585  0.3068 -0.1409  0.2187
 1177W        W 4696   2.675   1.405  11.774  0.1332  0.2882  0.0327
 1178W        W 4697   4.133   8.981  11.763 -0.0374  0.0652  0.2568
 1179W        W 4698   8.992   5.698   3.081  0.0266 -0.1411 -0.2565
 1180W        W 4699   6.860   6.853   9.758 -0.1051 -0.1894  0.1663
 1181W        W 4700   0.913   9.512  11.902 -0.0419 -0.2021 -0.1976
 1182W        W 4701   8.144   4.050   0.193 -0.1123 -0.1114  0.1231
 1183W        W 4702   6.035   4.391   3.613  0.1597  0.1529  0.0760
 1184W        W 4703   0.645   6.386   3.139  0.0458 -0.3190 -0.1193
 1185W        W 4704   3.270   3.575   9.910  0.0905 -0.2711 -0.0810
 1186W        W 4705   5.364   9.503   9.718  0.0071 -0.0031 -0.0293
 1187W        W 4706   3.657   7.931   9.361 -0.1727  0.0090 -0.3153
 1188W        W 4707   7.991   8.374   2.006 -0.2185  0.1990 -0.1045
 1189W        W 4708   9.194   0.208  11.251 -0.0256 -0.2647 -0.3787
 1190W        W 4709   3.230   5.201   9.371 -0.0369 -0.2193  0.0281
 1191W        W 4710   5.486   8.657   2.338 -0.1215  0.2185  0.0395
 1192W        W 4711   0.203   9.745   0.301 -0.2219  0.2817  0.0581
 1193W        W 4712   2.288   9.830  11.680  0.0816 -0.0464 -0.3923
 1194W        W 4713   7.521   8.227   3.639  0.3218 -0.0657 -0.4850
 1195W        W 4714   3.844   6.540   0.023 -0.0203  0.0511  0.1667
 1196W        W 4715   1.717   9.612   0.889 -0.1736 -0.0516  0.1355
 1197W        W 4716   4.145   0.403  11.976  0.0165 -0.1913  0.0255
 1198W        W 4717   7.277   7.404  11.951  0.3058  0.3070  0.1645
 1199W        W 4718   8.480   5.822   3.213  0.1296  0.2226  0.4144
 1200W        W 4719   0.198   6.884   2.455  0.0334  0.2481  0.1189
 1201W        W 4720   8.788   7.540  10.789  0.2724  0.0680 -0.3071
 1202W        W 4721   0.360   2.431   9.102  0.2500  0.0656  0.0117
 1203W        W 4722   7.613   5.706   2.096  0.4784 -0.1833 -0.3269
 1204W        W 4723   1.166   9.224   3.285 -0.0122 -0.0853  0.0255
 1205W        W 4724   1.455   6.234   3.986 -0.0847  0.1369  0.2044
 1206W        W 4725   2.559   0.140  11.338  0.1656  0.0905  0.0655
 1207W        W 4726   7.907   5.752   1.231  0.1927 -0.0388  0.2002
 1208W        W 4727   4.398   2.500   9.924  0.3707  0.0881 -0.4047
 1209W        W 4728   2.551   7.755   0.065 -0.2221  0.1300 -0.0903
 1210W        W 4729   9.624   6.756   2.673 -0.0038 -0.2151  0.1621
 1211W        W 4730   8.089   0.191   1.665  0.0478  0.2781  0.0559
 1212W        W 4731   3.840   7.172   3.560  0.0723  0.0192 -0.2094
 1213W        W 4732   1.635   3.403  10.858  0.0504  0.1288  0.0877
 1214W        W 4733   1.219   3.270   0.395 -0.0538 -0.1318  0.0549
 1215W        W 4734   2.872   0.520   2.495 -0.2593  0.1152  0.1610
 1216W        W 4735   6.765   1.478  10.446  0.3567  0.3941  0.0164
 1217W        W 4736   1.624   0.238   0.718 -0.0579  0.1282  0.0754
 1218W        W 4737   5.877   5.724   0.750  0.0360 -0.0408  0.0179
 1219W        W 4738   4.275   7.262   0.747  0.1159 -0.1403  0.0241
 1220W        W 4739   5.585   8.487   4.066 -0.3568 -0.0665 -0.0630
 1221W        W 4740   8.734   2.907  11.563 -0.0505 -0.0309  0.3902
 1222W        W 4741   4.270   6.577  11.711  0.0692 -0.3140 -0.0648
 1223W        W 4742   9.754   5.859  10.274 -0.0536 -0.2828 -0.1311
 1224W        W 4743   2.651   4.422   0.859  0.0973  0.0534 -0.1774
 1225W        W 4744   6.129   8.408   8.139 -0.0339  0.0682  0.0919
 1226W        W 4745   5.793   0.198   0.974  0.0733 -0.1429  0.0233
 1227W        W 4746   1.263   0.982   1.306  0.1923  0.0165 -0.1383
 1228W        W 4747   4.474   6.801  10.812 -0.1459 -0.0658  0.1781
 1229W        W 4748   8.646   0.214  10.234 -0.0814 -0.0917 -0.2373
 1230W        W 4749   9.185   5.358   4.866 -0.0697  0.0094 -0.0820
 1231W        W 4750   9.156   5.022  12.090 -0.2209 -0.0436  0.2653
 1232W        W 4751   4.686   3.200   4.566 -0.3684 -0.1060  0.0728
 1233W        W 4752   6.071   4.586   2.770  0.1066  0.1425 -0.1077
 1234W        W 4753   4.599   0.036   0.839 -0.2015 -0.2430  0.0201
 1235W        W 4754   5.498   7.575   9.296  0.2310 -0.0055  0.0928
 1236W        W 4755   7.391   9.696  10.356  0.0644  0.3469  0.0758
 1237W        W 4756   2.446   6.086   3.182  0.1192 -0.0668 -0.0029
 1238W        W 4757   5.080   4.869  11.476 -0.1112 -0.0701 -0.1199
 1239W        W 4758   1.567   1.426   2.597 -0.1151 -0.0812 -0.1596
 1240W        W 4759   4.799   6.064   3.448  0.0169 -0.5141 -0.0327
 1241W        W 4760   8.612   5.449   0.683  0.0307  0.0552  0.1571
 1242W        W 4761   1.897   8.475   9.453  0.1740 -0.0521  0.1235
 1243W        W 4762   1.148   5.034   0.012 -0.0082 -0.5382  0.1448
 1244W        W 4763   3.514   1.207   2.038  0.3225 -0.0487  0.1077
 1245W        W 4764   0.354   7.821   2.452 -0.1161  0.0891 -0.0254
 1246W        W 4765   2.546   4.888   2.420  0.0614  0.3953 -0.0511
 1247W        W 4766   9.543   1.065   1.564 -0.0074 -0.2505  0.3591
 1248W        W 4767   1.284   4.130   2.451 -0.0610 -0.0403  0.1757
 1249W        W 4768   2.479   8.959   0.577 -0.0333 -0.0462  0.0954
 1250W        W 4769   9.416   0.503   2.158  0.2019 -0.1455 -0.1321
 1251W        W 4770   4.623   4.311  10.944  0.1780 -0.1513  0.2187
 1252W        W 4771   8.909   4.568  12.002  0.0066 -0.2517  0.0354
 1253W        W 4772   4.195   7.542   3.325  0.3038 -0.1210 -0.2433
 1254W        W 4773   2.294   8.562  11.813  0.1866  0.1894 -0.1695
 1255W        W 4774   3.641   1.310   3.873 -0.0326  0.0418 -0.1464
 1256W        W 4775   9.500   9.344  11.995  0.3929  0.1336  0.2677
 1257W        W 4776   5.553   9.544   1.785 -0.0829 -0.2384  0.0206
 1258W        W 4777   1.749   7.171   2.568  0.1893  0.0826 -0.0139
 1259W        W 4778   8.782   7.886   2.682 -0.1313  0.2404 -0.1167
 1260W        W 4779   6.333   4.304   0.714  0.1864 -0.1540 -0.4882
 1261W        W 4780   6.829   5.710   3.463 -0.2975 -0.0319 -0.1292
 1262W        W 4781   6.842   9.538   8.773 -0.1199  0.1552  0.4534
 1263W        W 4782   9.577   7.045   9.132 -0.2383  0.0914  0.3452
 1264W        W 4783   0.025   3.291   1.175 -0.0072 -0.2478 -0.1754
 1265W        W 4784   1.218   9.138   4.231 -0.3742 -0.1899  0.2839
 1266W        W 4785   0.184   6.196   9.480 -0.0205  0.2240  0.1729
 1267W        W 4786   2.896   4.246  10.352  0.0184 -0.0122 -0.1236
 1268W        W 4787   2.833   5.337   0.412  0.0758 -0.2697 -0.0264
 1269W        W 4788   5.339   3.829   2.776 -0.1552  0.1967  0.0211
 1270W        W 4789   1.036   1.628  11.562 -0.1344  0.0957  0.0726
 1271W        W 4790   7.441   3.248   8.726  0.2765 -0.0146  0.0936
 1272W        W 4791   5.981   5.532  10.586  0.2067 -0.1642  0.3171
 1273W        W 4792   1.265   8.751   1.178 -0.0517 -0.0692  0.2142
 1274W        W 4793   0.595   4.763   2.557  0.1952 -0.0001 -0.0795
 1275W        W 4794   9.594   3.262   9.378  0.2569 -0.4238  0.0049
 1276W        W 4795   2.809   2.623   3.836  0.1151 -0.0821  0.0569
 1277W        W 4796   2.867   5.018   4.061  0.0621  0.0423  0.3729
 1278W        W 4797   0.620   8.740  11.396  0.1148 -0.3535 -0.2346
 1279W        W 4798   9.142   0.554   3.975  0.1165  0.0699  0.1953
 1280W        W 4799   9.777   2.727   9.982  0.5973 -0.4184  0.1511
 1281W        W 4800   3.716   4.576  10.462  0.0203 -0.3197  0.1619
 1282W        W 4801   2.495   3.976   3.938  0.1800 -0.2578 -0.4805
 1283W        W 4802   3.181   0.753   0.558 -0.0687 -0.0348  0.1572
 1284W        W 4803   9.705   6.030   4.285 -0.1292  0.3985  0.3186
 1285W        W 4804   7.760   8.563   0.866  0.2009  0.3668  0.2249
 1286W        W 4805   4.872   4.533   3.417  0.0536 -0.3529 -0.2216
 1287W        W 4806   8.222   5.421   3.505 -0.0732 -0.2808 -0.1861
 1288W        W 4807   3.519   6.625   0.398 -0.0659 -0.0646  0.0105
 1289W        W 4808   5.304   1.384   0.485  0.3697  0.0295  0.0570
 1290W        W 4809   6.005   2.736   0.034 -0.2397  0.2153 -0.1397
 1291W        W 4810   2.688   2.420   2.348 -0.2044  0.3894  0.0660
 1292W        W 4811   6.191   0.694   3.372  0.0521 -0.1994  0.0109
 1293W        W 4812   9.087   6.384   4.951  0.2200  0.0131  0.0938
 1294W        W 4813   6.192   3.863   0.915  0.0077  0.2251 -0.2816
 1295W        W 4814   0.957   6.477  11.561  0.2802 -0.0221  0.0869
 1296W        W 4815   2.948   7.229  11.381 -0.0570  0.1986  0.0279
 1297W        W 4816   0.015   6.538  11.476  0.3145 -0.1177  0.1311
 1298W        W 4817   9.627   2.865  11.167 -0.0838 -0.0492 -0.2023
 1299W        W 4818   0.015   9.259   0.218  0.1137  0.4367  0.2846
 1300W        W 4819   6.747   7.300   2.423 -0.1940 -0.0758  0.0885
 1301W        W 4820   6.066   6.323   2.787  0.0219  0.3537  0.0834
 1302W        W 4821   3.629   2.222   3.973  0.2232 -0.0883  0.0884
 1303W        W 4822   5.716   2.899  10.558  0.0444 -0.1924 -0.0037
 1304W        W 4823   8.511   8.385   3.559  0.4276 -0.0384  0.0013
 1305W        W 4824   6.920   1.000   2.909 -0.0585  0.0062 -0.1313
 1306W        W 4825   7.132   8.257   2.678 -0.1679 -0.2035 -0.1266
 1307W        W 4826   5.298   8.670  10.704 -0.2379 -0.0297  0.1031
 1308W        W 4827   3.240   6.762   4.557 -0.2962 -0.2444  0.0140
 1309W        W 4828   2.205   7.005  10.666 -0.1127 -0.0211 -0.2517
 1310W        W 4829   4.237   6.836  10.139 -0.0793 -0.0332  0.2555
 1311W        W 4830   1.427   4.300   2.924  0.2057  0.1835  0.1780
 1312W        W 4831   9.540   0.447  11.532  0.2134  0.2614 -0.0721
 1313W        W 4832   6.714   2.670   1.144 -0.0916  0.1343  0.0905
 1314W        W 4833   6.425   5.928   5.007  0.3450 -0.1155  0.3422
 1315W        W 4834   0.837   5.498   2.195 -0.3276 -0.3389  0.0907
 1316W        W 4835   0.763   2.158   3.307 -0.4050 -0.3768  0.0971
 1317W        W 4836   3.390   6.822   2.940 -0.0478 -0.1609 -0.1116
 1318W        W 4837   8.435   5.781   9.762  0.0964 -0.0212  0.0944
 1319W        W 4838   5.047   3.305   1.047 -0.1281 -0.1267  0.0822
 1320W        W 4839   4.594   0.023  11.639  0.0885  0.0172  0.4388
 1321W        W 4840   9.357   8.070   8.710  0.0429  0.0432 -0.1271
 1322W        W 4841   5.401   0.824   4.565 -0.2130 -0.0078  0.4509
 1323W        W 4842   2.780   7.466   3.510 -0.0290 -0.1949  0.0249
 1324W        W 4843   8.603   0.153   1.363 -0.2780  0.1253  0.1446
 1325W        W 4844   5.014   2.439   1.030 -0.2116 -0.3424 -0.0697
 1326W        W 4845   8.181   7.146  12.020 -0.0491  0.1445 -0.1331
 1327W        W 4846   3.614   0.136   9.332 -0.1072  0.0504  0.0863
 1328W        W 4847   1.912   0.072   1.771  0.3030  0.1266  0.0089
 1329W        W 4848   7.684   7.728  10.647 -0.2855 -0.2320  0.1102
 1330W        W 4849   4.948   7.284  10.520 -0.0200 -0.0320 -0.0076
 1331W        W 4850   9.381   5.129  10.410 -0.0465  0.0641  0.1502
 1332W        W 4851   7.719   9.793  11.817 -0.1309 -0.0073  0.0902
 1333W        W 4852   6.989   1.037  10.732  0.0780 -0.0334 -0.1339
 1334W        W 4853   5.397   4.109   2.353 -0.2825  0.2533 -0.1300
 1335W        W 4854   1.018   9.105  11.517 -0.2365 -0.1011  0.2600
 1336W        W 4855   9.161   1.581  10.778  0.2046  0.0952  0.1889
 1337W        W 4856   5.636   3.064   9.546 -0.0350 -0.1172  0.1761
 1338W        W 4857   6.804   7.029  10.244  0.2371 -0.2389 -0.1493
 1339W        W 4858   4.672   8.584  11.135 -0.0896 -0.1983  0.0318
 1340W        W 4859   6.604   1.495   4.143 -0.0150  0.0128  0.1916
 1341W        W 4860   6.293   5.193   0.126 -0.1223 -0.4037  0.0374
 1342W        W 4861   4.745   3.056   9.054  0.2270 -0.1058 -0.2039
 1343W        W 4862   1.840   4.779  10.584 -0.0159  0.2519 -0.1987
 1344W        W 4863   7.299   4.364   3.523 -0.0059  0.1679  0.0794
 1345W        W 4864   6.121   5.905   1.271 -0.2624  0.0818  0.2232
 1346W        W 4865   1.745   5.955   2.015 -0.0683  0.2862  0.1314
 1347W        W 4866   5.595   4.906   0.630  0.1634  0.1366 -0.1355
 1348W        W 4867   3.156   1.514   1.260  0.0174 -0.4850 -0.0412
 1349W        W 4868   2.528   3.325   3.683 -0.2029  0.2266 -0.3860
 1350W        W 4869   0.236   2.309   1.006 -0.0750 -0.0379  0.2568
 1351W        W 4870   2.639   3.055   3.250  0.3288 -0.2546 -0.0744
 1352W        W 4871   0.956   2.595  10.014 -0.0185  0.0970 -0.0741
 1353W        W 4872   7.144   3.632   8.937  0.2540 -0.1132  0.1716
 1354W        W 4873   2.267   1.756   2.911 -0.0227  0.0459 -0.0170
 1355W        W 4874   2.680   5.718   8.753  0.0021  0.2686  0.0039
 1356W        W 4875   9.823   7.059   1.489  0.1707 -0.1915  0.2273
 1357W        W 4876   5.132   1.185   4.244 -0.0147  0.3825 -0.0741
 1358W        W 4877   8.234   0.360   3.293  0.1185 -0.4853  0.0660
 1359W        W 4878   2.848   5.609   2.661 -0.1268  0.1093 -0.1822
 1360W        W 4879   9.256   6.568   0.309  0.0293 -0.1613  0.1233
 1361W        W 4880   5.193   1.894   1.705  0.0086 -0.1199  0.2817
 1362W        W 4881   8.277   1.692  11.189 -0.1727  0.4413 -0.0752
 1363W        W 4882   6.851   4.916   1.279 -0.0759  0.1359  0.0250
 1364W        W 4883   1.765   4.912  11.579  0.0227 -0.0707 -0.1413
 1365W        W 4884   7.573   7.761  11.739  0.0166 -0.2099 -0.0580
 1366W        W 4885   5.763   7.937  10.153  0.1928 -0.1958 -0.1886
 1367W        W 4886   3.451   6.301   8.406 -0.0081 -0.1593  0.1597
 1368W        W 4887   8.513   9.115   9.713 -0.1298 -0.0278 -0.0573
 1369W        W 4888   9.413   3.408   4.125 -0.2188 -0.1050  0.1154
 1370W        W 4889   4.248   5.305   8.361  0.0137 -0.0342  0.1266
 1371W        W 4890   6.005   0.283   2.830  0.3498 -0.1015  0.0299
 1372W        W 4891   2.787   0.067   2.986  0.1767 -0.0883 -0.0750
 1373W        W 4892   6.803   3.031  10.866 -0.2813  0.0909  0.0704
 1374W        W 4893   4.478   9.618   8.934  0.4057 -0.0193 -0.2457
 1375W        W 4894   7.451   0.913   8.990  0.1111 -0.2073  0.2279
 1376W        W 4895   8.706   6.514   9.436 -0.3357  0.0945 -0.1987
 1377W        W 4896   7.334   8.789   8.131 -0.0516 -0.0497 -0.1623
 1378W        W 4897   6.802   0.376   2.075 -0.1785  0.0249  0.2894
 1379W        W 4898   0.907   5.178   9.499 -0.2099 -0.0679 -0.0197
 1380W        W 4899   7.962   6.796   8.987  0.1496 -0.0921 -0.1942
 1381W        W 4900   5.061   1.247   2.295 -0.1896 -0.0219 -0.2382
 1382W        W 4901   8.367   4.413  10.782  0.1297  0.1419 -0.1868
 1383W        W 4902   4.764   3.755   1.406 -0.1689 -0.2314  0.0453
 1384W        W 4903   8.022   2.897  10.164  0.0687  0.2857 -0.1113
 1385W        W 4904   3.145   0.525  11.880  0.0425  0.0069  0.0349
 1386W        W 4905   9.615   1.677   2.105  0.0266 -0.2424 -0.1207
 1387W        W 4906   2.577   2.550   9.200  0.0155  0.0822  0.3005
 1388W        W 4907   3.990   4.620   0.044 -0.2812  0.2993  0.1527
 1389W        W 4908   2.424   6.044   4.823 -0.0076  0.0547 -0.2901
 1390W        W 4909   1.635   4.409   0.853  0.2792  0.0138 -0.1080
 1391W        W 4910   4.112   1.590   9.836 -0.0677  0.0049 -0.0640
 1392W        W 4911   3.051   2.662   1.082  0.0891  0.4457  0.0778
 1393W        W 4912   3.102   0.028   3.869 -0.1676  0.1643 -0.3378
 1394W        W 4913   8.208   9.699   0.378 -0.1586  0.1387  0.1784
 1395W        W 4914   6.739   8.148   1.425 -0.1689  0.1512  0.0171
 1396W        W 4915   9.015   8.018   2.146  0.2117 -0.1193 -0.1440
 1397W        W 4916   9.407   3.621  10.148  0.1480 -0.3097  0.2364
 1398W        W 4917   9.586   2.367  10.320  0.0207 -0.3235 -0.0697
 1399W        W 4918   2.383   7.893   8.657 -0.0002 -0.0124 -0.0795
 1400W        W 4919   4.992   7.735   9.240  0.1102  0.0640  0.0592
 1401W        W 4920   2.344   4.720  10.617 -0.1592  0.0837 -0.2520
 1402W        W 4921   3.561   1.447   1.535 -0.2186 -0.3983 -0.0637
 1403W        W 4922   5.783   2.193  11.476  0.0101  0.0183 -0.1805
 1404W        W 4923   8.207   8.662   9.811  0.2732 -0.2247  0.0924
 1405W        W 4924   7.121   1.075   1.304 -0.0082 -0.0465  0.0563
 1406W        W 4925   7.443   2.344   2.593 -0.2132 -0.0570 -0.3335
 1407W        W 4926   2.460   7.390   8.723 -0.0671 -0.0221 -0.1127
 1408W        W 4927   3.585   2.264   2.774 -0.3291 -0.2004 -0.0783
 1409W        W 4928   8.526   8.207   1.355 -0.1882  0.2040  0.2543
 1410W        W 4929   9.691   9.557   3.949  0.4678 -0.0056  0.1213
 1411W        W 4930   4.913   2.172   3.433  0.1328  0.0584 -0.2869
 1412W        W 4931   3.280   5.643  11.135 -0.3811  0.0710  0.1983
 1413W        W 4932   9.065   2.968   9.426  0.1900  0.2061 -0.0231
 1414W        W 4933   6.927   2.115   0.402 -0.0091  0.0320 -0.2333
 1415W        W 4934   4.816   2.866  10.578 -0.0120  0.3545  0.3384
 1416W        W 4935   3.239   6.203  11.298 -0.0984 -0.0626  0.0515
 1417W        W 4936   7.932   3.419   0.930 -0.0044 -0.0684  0.2862
 1418W        W 4937   6.371   1.892   3.909  0.1920 -0.0038  0.0359
 1419W        W 4938   7.926   6.055  11.060 -0.1187  0.0618 -0.0342
 1420W        W 4939   5.580   3.384  10.707 -0.0320 -0.2082  0.1373
 1421W        W 4940   0.780   0.070  10.794  0.1002  0.0474 -0.1641
 1422W        W 4941   8.075   7.745  10.928  0.0761 -0.2502 -0.1901
 1423W        W 4942   6.980   1.775  12.016  0.2859  0.2688 -0.3278
 1424W        W 4943   5.754   2.584   8.691 -0.1876  0.1719  0.1698
 1425W        W 4944   5.414   2.684   1.436 -0.2480 -0.2970  0.2401
 1426W        W 4945   7.014   0.863   9.276  0.2095  0.0113 -0.1782
 1427W        W 4946   5.060   2.592   0.478  0.0879 -0.1088 -0.0686
 1428W        W 4947   3.580   1.801  10.943 -0.1447 -0.1501 -0.0097
 1429W        W 4948   4.694   1.864  11.131 -0.1860  0.0244 -0.1205
 1430W        W 4949   9.583   8.253   2.791 -0.0609 -0.0202  0.1583
 1431W        W 4950   2.494   2.078   3.522  0.2086  0.0575 -0.0457
 1432W        W 4951   6.044   5.335   1.053  0.0871  0.2052 -0.0330
 1433W        W 4952   3.384   9.566   0.361 -0.2295  0.0389  0.2000
 1434W        W 4953   7.815   6.468  11.268  0.0306  0.1030  0.1487
 1435W        W 4954   6.072   2.336  10.824 -0.2087  0.0260 -0.0392
 1436W        W 4955   5.077   3.285   3.102  0.0015 -0.2148 -0.0832
 1437W        W 4956   6.129   5.795   3.822  0.3415  0.0468 -0.1922
 1438W        W 4957   0.045   1.070   2.776  0.1162 -0.1746 -0.2153
 1439W        W 4958   3.599   6.441   2.043 -0.1384  0.1192 -0.0339
 1440W        W 4959   0.420   1.890   3.681  0.0938  0.2860  0.0989
 1441W        W 4960   2.672   8.790  10.044 -0.0296 -0.0106  0.0913
 1442W        W 4961   7.462   1.715  10.625 -0.1065  0.1452  0.0728
 1443W        W 4962   3.241   7.921  10.255 -0.0573  0.0361  0.1351
 1444W        W 4963   9.668   5.425   8.352 -0.2080  0.1740 -0.1415
 1445W        W 4964   7.023   8.129   1.884 -0.2637 -0.3170 -0.1524
 1446W        W 4965   6.633   0.317   4.711 -0.1662  0.3051 -0.0556
 1447W        W 4966   9.359   9.050   0.653  0.0497 -0.0082  0.0787
 1448W        W 4967   3.118   4.780   2.226 -0.1740 -0.2192  0.2650
 1449W        W 4968   6.151   9.774  11.916 -0.3304 -0.0883 -0.0463
 1450W        W 4969   0.112   6.061  11.874 -0.3526  0.1904  0.0255
 1451W        W 4970   1.804   0.962   1.643  0.1878  0.0224 -0.3345
 1452W        W 4971   3.156   0.115   2.592 -0.4484 -0.1601 -0.0282
 1453W        W 4972   9.213   7.366   8.903 -0.0587  0.2120 -0.0406
 1454W        W 4973   3.917   5.824   9.232  0.0610 -0.1017  0.2920
 1455W        W 4974   4.473   5.208  10.670  0.1252 -0.0674  0.1175
 1456W        W 4975   7.649   8.111  10.142  0.0987 -0.1339 -0.0284
 1457W        W 4976   2.221   3.747  10.759  0.2628  0.0110 -0.0243
 1458W        W 4977   1.532   5.979   3.512 -0.1996  0.2809  0.4464
 1459W        W 4978   8.795   4.140   0.666  0.0966 -0.0925  0.0966
 1460W        W 4979   2.782   6.101   2.766  0.2977 -0.0219  0.2812
 1461W        W 4980   3.564   1.772  10.084 -0.1188 -0.3106  0.1912
 1462W        W 4981   0.148   1.934   0.604  0.2920  0.1726 -0.0022
 1463W        W 4982   2.098   3.208   3.403 -0.0182 -0.1031  0.0926
 1464W        W 4983   6.332   9.724   8.513  0.4217 -0.0156 -0.1242
 1465W        W 4984   7.528   7.372   3.100 -0.3003 -0.0173  0.1955
 1466W        W 4985   8.480   9.720   1.705  0.2915 -0.0552  0.3560
 1467W        W 4986   2.743   8.846   4.427 -0.1926 -0.1148 -0.2629
 1468W        W 4987   3.304   0.088  12.104 -0.1252 -0.1473 -0.1350
 1469W        W 4988   1.710   6.258   3.106 -0.0813  0.0068  0.0216
 1470W        W 4989   1.110   0.780   0.262  0.0033 -0.0717  0.2200
 1471W        W 4990   1.473   1.328  10.738  0.5714 -0.0187 -0.2777
 1472W        W 4991   1.614   9.060   2.455 -0.0434 -0.2287  0.0297
 1473W        W 4992   9.842   7.656   2.775  0.0583 -0.0894  0.1606
 1474W        W 4993   5.740   3.545   1.014 -0.3432  0.2582 -0.0125
 1475W        W 4994   1.894   0.246   1.212  0.1266 -0.1785  0.0132
 1476W        W 4995   0.087   0.573   2.846  0.2305 -0.0263 -0.0473
 1477W        W 4996   6.873   9.753  11.280 -0.0977  0.0857  0.1790
 1478W        W 4997   8.617   4.218  10.375  0.2055 -0.0236 -0.0423
 1479W        W 4998   0.706   5.264   2.655 -0.0727 -0.2960  0.1115
 1480W        W 4999   3.158   6.206   0.600 -0.0050 -0.3252 -0.0188
 1481W        W 5000   8.183   9.022  11.893 -0.3308  0.0467 -0.0188
 1482W        W 5001   8.874   3.393   1.770  0.1322 -0.2762 -0.1198
 1483W        W 5002   8.704   6.859   2.278  0.0802 -0.1018 -0.1393
 1484W        W 5003   3.788   8.373   3.959  0.0437 -0.0639  0.0624
 1485W        W 5004   2.123   9.109  10.044 -0.5038 -0.1403  0.1090
 1486W        W 5005   4.132   5.627   2.693 -0.1489 -0.0707  0.1207
 1487W        W 5006   0.791   2.686  10.932  0.4398  0.3485  0.0630
 1488W        W 5007   7.015   5.374  11.809  0.5296  0.3168 -0.2549
 1489W        W 5008   1.113   5.059  11.087 -0.0026  0.0371  0.0340
 1490W        W 5009   5.803   8.342   0.297  0.2041  0.2629  0.0845
 1491W        W 5010   3.724   3.637   1.816 -0.1102 -0.2966 -0.2511
 1492W        W 5011   7.708   8.096  11.146 -0.2529  0.0518 -0.0857
 1493W        W 5012   6.467   1.600   3.154 -0.0828  0.0296 -0.1373
 1494W        W 5013   7.115   4.001   2.005 -0.1899 -0.1960  0.0154
 1495W        W 5014   6.264   0.873   1.687  0.1481  0.1102 -0.2451
 1496W        W 5015   2.635   2.145  12.005  0.1161 -0.0744 -0.0096
 1497W        W 5016   4.962   8.605   1.588 -0.2847 -0.0881 -0.0293
 1498W        W 5017   9.569   5.513   8.888 -0.0426  0.1609  0.1511
 1499W        W 5018   0.307   8.908   3.601 -0.0052  0.0089  0.2730
 1500W        W 5019   4.386   1.644  11.566  0.1129 -0.0527 -0.1304
 1501W        W 5020   3.986   9.609   1.248 -0.1958  0.2087  0.0371
 1502W        W 5021   1.450   0.019   1.388  0.0950  0.2078 -0.2017
 1503W        W 5022   2.480   0.553  11.102  0.0664 -0.2042  0.2495
 1504W        W 5023   0.874   6.599  11.059 -0.3560 -0.2650  0.0204
 1505W        W 5024   4.602   4.108   1.684 -0.1031  0.0776 -0.1269
 1506W        W 5025   1.127   4.532  10.962 -0.2383 -0.0248  0.1544
 1507W        W 5026   4.255   3.724   1.577  0.0769  0.0287  0.1473
 1508W        W 5027   0.300   4.543   2.880 -0.1079  0.3740  0.2329
 1509W        W 5028   9.711   0.185  11.125  0.1848  0.1388 -0.2221
 1510W        W 5029   2.576   5.191   2.783 -0.2365 -0.2730 -0.0878
 1511W        W 5030   4.910   0.751   9.603  0.0318  0.2906 -0.1010
 1512W        W 5031   2.288   2.026   0.273  0.0127  0.1748 -0.0588
 1513W        W 5032   3.852   5.202   3.502  0.2436 -0.0223  0.0261
 1514W        W 5033   0.789   4.261  11.292  0.3539 -0.0763  0.1252
 1515W        W 5034   5.155   5.125   0.872  0.3130  0.0681  0.0083
 1516W        W 5035   2.465   3.747   8.734 -0.3613 -0.3929  0.1205
 1517W        W 5036   1.005   3.545  10.117 -0.0197 -0.1730 -0.1595
 1518W        W 5037   1.256   8.570   1.760 -0.1664  0.0317 -0.1656
 1519W        W 5038   6.401   2.268   1.208  0.4655  0.0016  0.2885
 1520W        W 5039   9.317   2.098  12.104 -0.1558 -0.0209 -0.2023
 1521W        W 5040   5.557   8.793   8.794  0.1972 -0.0023 -0.1508
 1522W        W 5041   2.234   4.678  10.021  0.1988  0.0907 -0.0853
 1523W        W 5042   5.158   9.335   1.572  0.0633  0.0149  0.2071
 1524W        W 5043   4.537   1.321   4.182  0.3271  0.0954  0.2850
 1525W        W 5044   3.187   1.252   5.265  0.0192  0.0308  0.0537
 1526W        W 5045   1.283   4.713   1.739 -0.0717 -0.0236  0.0321
 1527W        W 5046   0.190   5.399   2.585 -0.0184 -0.2131  0.0256
 1528W        W 5047   2.431   3.326   4.978 -0.4063 -0.2211 -0.2177
 1529W        W 5048   6.659   2.022  11.077  0.3341  0.2087  0.0065
 1530W        W 5049   5.573   3.686   3.779 -0.4182 -0.1857  0.1538
 1531W        W 5050   3.742   2.239   4.478  0.1226  0.2057  0.2364
 1532W        W 5051   7.309   0.750   3.225 -0.2452 -0.1802  0.1925
 1533W        W 5052   8.824   7.914   3.993  0.2265  0.1050  0.1710
 1534W        W 5053   4.053   5.802  10.136  0.0784 -0.0826  0.0347
 1535W        W 5054   9.630   9.010   4.048  0.0919 -0.3149 -0.0335
 1536W        W 5055   1.046   9.698  10.092  0.2448  0.0481 -0.3746
 1537W        W 5056   3.513   3.283   0.314  0.2408 -0.0386  0.0509
 1538W        W 5057   7.812   0.130   3.056 -0.0733  0.3653 -0.1322
 1539W        W 5058   1.434   9.254   9.121  0.2698 -0.2386 -0.1495
 1540W        W 5059   3.371   3.504   8.600 -0.1540 -0.1323  0.0916
 1541W        W 5060   0.017   2.652   3.261  0.0698  0.2207  0.1765
 1542W        W 5061   5.510   1.531   1.478  0.1177 -0.0406  0.1618
 1543W        W 5062   3.327   3.352   3.701  0.3096 -0.0356  0.2637
 1544W        W 5063   9.653   9.788   4.407  0.1872 -0.3179 -0.0594
 1545W        W 5064   5.428   3.581   9.466 -0.0110  0.1303 -0.2633
 1546W        W 5065   3.304   5.243   1.085  0.0860 -0.2511  0.2331
 1547W        W 5066   8.251   2.609   1.784 -0.2214 -0.1021  0.0787
 1548W        W 5067   9.827   3.395   0.264  0.0173  0.0153  0.2189
 1549W        W 5068   4.087   3.280   9.612 -0.1741 -0.1450  0.2223
 1550W        W 5069   0.216   0.184   4.066  0.0192  0.3200  0.0930
 1551W        W 5070   8.920   1.047   3.130 -0.0992  0.1065 -0.3296
 1552W        W 5071   0.107   5.708   8.777 -0.0580  0.2459 -0.1451
 1553W        W 5072   0.533   3.150   4.679  0.0156  0.2979  0.0088
 1554W        W 5073   3.830   2.379  12.073 -0.1313  0.0796 -0.1879
 1555W        W 5074   5.845   1.574   0.495  0.2841  0.0076  0.0720
 1556W        W 5075   1.866   4.100   3.139 -0.0368 -0.1407 -0.1676
 1557W        W 5076   6.850   9.822   3.128 -0.1279  0.0044 -0.1974
 1558W        W 5077   3.654   0.710   4.720  0.0003 -0.1144  0.0633
 1559W        W 5078   5.742   9.425   3.844  0.2293  0.2767  0.1149
 1560W        W 5079   3.751   9.518   3.132 -0.1118 -0.1037 -0.0263
 1561W        W 5080   8.743   0.665   1.155 -0.0047  0.0688 -0.2670
 1562W        W 5081   6.408   3.849  10.623  0.0313  0.1559  0.0202
 1563W        W 5082   8.789   9.160   0.494 -0.2856 -0.1265  0.2895
 1564W        W 5083   3.884   7.554   0.537  0.1631 -0.0083 -0.1197
 1565W        W 5084   6.362   2.768   1.707 -0.0248 -0.0624 -0.2170
 1566W        W 5085   5.925   9.054  11.864 -0.1157  0.0209 -0.1032
 1567W        W 5086   1.087   2.891   2.106  0.0021 -0.0125  0.2424
 1568W        W 5087   1.558   4.384   8.677 -0.4834  0.1993 -0.0913
 1569W        W 5088   9.214   8.210  11.522  0.2881  0.0816 -0.0971
 1570W        W 5089   7.256   1.037   3.649 -0.1039 -0.0509  0.1230
 1571W        W 5090   7.246   0.816  11.222 -0.2253 -0.0454  0.1805
 1572W        W 5091   0.768   1.553   3.480  0.0514  0.0949 -0.2075
 1573W        W 5092   4.247   0.194   3.873 -0.0401 -0.0946  0.2001
 1574W        W 5093   8.787   6.230   4.401 -0.3172  0.1753  0.0028
 1575W        W 5094   9.227   6.473   2.877  0.0111 -0.1466 -0.1557
 1576W        W 5095   0.318   8.941   3.061 -0.1485 -0.0160 -0.1035
 1577W        W 5096   9.231   1.080  10.608  0.1819 -0.1475 -0.2231
 1578W        W 5097   3.916   9.022   0.611  0.3766 -0.1896 -0.2721
 1579W        W 5098   8.954   3.247  10.140 -0.1667 -0.1066 -0.1421
 1580W        W 5099   0.555   6.736   3.864 -0.0872  0.0636  0.1561
 1581W        W 5100   9.759   2.287  11.385 -0.1237  0.2899 -0.1302
 1582W        W 5101   4.983   3.427  11.426 -0.1770 -0.0079  0.1630
 1583W        W 5102   9.186   7.815   9.185 -0.1079 -0.0962 -0.1213
 1584W        W 5103   4.772   9.577   9.444  0.2437 -0.0246 -0.0102
 1585W        W 5104   1.380   1.451   1.157 -0.0392 -0.1343 -0.1215
 1586W        W 5105   3.766   8.758  11.349  0.2998  0.2489  0.2072
 1587W        W 5106   6.928   7.762   4.314 -0.1520 -0.0928  0.3176
 1588W        W 5107   2.484   7.099   8.250 -0.0157 -0.2021 -0.1418
 1589W        W 5108   6.764   6.144   2.027  0.0240 -0.1874 -0.1238
 1590W        W 5109   5.327   8.325   1.987 -0.1726  0.0082 -0.1418
 1591W        W 5110   0.489   6.395   8.718  0.0016 -0.0795 -0.1993
 1592W        W 5111   9.421   0.694   0.656  0.1672 -0.2456 -0.2022
 1593W        W 5112   0.148   8.026  10.948 -0.0069 -0.1479 -0.0650
 1594W        W 5113   8.376   1.732   2.271  0.1776 -0.2312 -0.0021
 1595W        W 5114   5.280   3.714   3.283  0.2567  0.4239 -0.0564
 1596W        W 5115   3.027   9.182   2.147  0.3106  0.1362 -0.1777
 1597W        W 5116   5.856   9.696   3.012  0.1433 -0.3263  0.0528
 1598W        W 5117   1.089   6.608   3.778 -0.1206  0.0361 -0.1274
 1599W        W 5118   2.967   7.986  10.794 -0.0275 -0.0968  0.2635
 1600W        W 5119   9.564   2.065   9.146  0.0692  0.1424 -0.0176
 1601W        W 5120   8.952   9.797   1.737 -0.4159 -0.1021 -0.0449
 1602W        W 5121   0.703   6.476   1.114 -0.3754  0.0384 -0.1106
 1603W        W 5122   1.914   8.611   8.842 -0.2356  0.2063  0.1805
 1604W        W 5123   3.676   4.365  11.653 -0.0176  0.3451 -0.1801
 1605W        W 5124   7.830   8.931   3.787 -0.0204  0.0823  0.0991
 1606W        W 5125   9.172   6.268  10.290  0.0385 -0.1260 -0.3629
 1607W        W 5126   6.525   3.720   2.026 -0.0248  0.3312 -0.1030
 1608W        W 5127   6.288   8.983   9.722 -0.0632 -0.1677  0.0517
 1609W        W 5128   2.972   7.388   3.981 -0.1345  0.1539 -0.0255
 1610W        W 5129   2.012   3.769   0.001  0.1388  0.0890 -0.1037
 1611W        W 5130   2.956   8.512   4.746  0.0733  0.2177 -0.1873
 1612W        W 5131   3.511   3.155   4.159 -0.0292  0.1993 -0.0658
 1613W        W 5132   8.589   4.664  11.589 -0.3637  0.2727 -0.1439
 1614W        W 5133   6.040   1.458   1.426 -0.1612 -0.1439 -0.4111
 1615W        W 5134   5.132   7.385   8.449 -0.0101 -0.0178 -0.4716
 1616W        W 5135   9.622   2.204   0.986  0.1135 -0.2105  0.2701
 1617W        W 5136   7.331   2.780   4.295  0.0361  0.3044 -0.1388
 1618W        W 5137   2.683   9.579  11.103  0.0564 -0.5298 -0.1905
 1619W        W 5138   7.772   7.629   8.784  0.0772 -0.0602  0.2490
 1620W        W 5139   5.473   2.347   0.708 -0.1667  0.2157  0.0328
 1621W        W 5140   4.003   2.387   1.378  0.2960  0.2514  0.0068
 1622W        W 5141   7.504   4.873  10.767 -0.1014 -0.2635  0.1203
 1623W        W 5142   2.661   5.519   4.182  0.0875 -0.2353 -0.0278
 1624W        W 5143   3.243   8.407   9.805  0.3087 -0.2748  0.2364
 1625W        W 5144   7.534   2.682  10.151  0.0395 -0.1641 -0.1310
 1626W        W 5145   6.053   5.020   2.436  0.0715  0.1653  0.0483
 1627W        W 5146   7.421   5.682   4.638  0.3577  0.1268 -0.1650
 1628W        W 5147   2.673   4.377   2.624  0.1122 -0.1010 -0.0300
 1629W        W 5148   4.222   5.315   0.205 -0.1207  0.1287  0.0526
 1630W        W 5149   9.070   1.916   1.005  0.1553 -0.0347 -0.1620
 1631W        W 5150   1.994   2.718  10.777 -0.1220 -0.1720  0.0179
 1632W        W 5151   2.248   6.964   2.978  0.0339  0.1512  0.0443
 1633W        W 5152   9.660   5.203   0.704 -0.1668  0.1452 -0.0180
 1634W        W 5153   0.144   5.533   0.446 -0.1176  0.0240 -0.2406
 1635W        W 5154   2.549   5.140   3.260 -0.3183  0.1292  0.1049
 1636W        W 5155   0.320   7.104   1.076  0.2014 -0.1168  0.0846
 1637W        W 5156   9.078   4.316  11.567  0.4793 -0.0901 -0.2872
 1638W        W 5157   3.967   4.787   3.223  0.0551  0.0524 -0.0787
 1639W        W 5158   5.534   3.513   0.168  0.3435  0.3482 -0.2816
 1640W        W 5159   8.081   7.246   8.910  0.1737  0.0712 -0.0780
 1641W        W 5160   4.561   4.054   5.116 -0.0956 -0.0786 -0.0783
 1642W        W 5161   3.778   9.205   1.458 -0.1810 -0.2701  0.0475
 1643W        W 5162   4.346   7.269   1.732 -0.2734 -0.1034 -0.0132
 1644W        W 5163   1.025   2.611   2.550 -0.0797 -0.0388 -0.3141
 1645W        W 5164   8.627   7.105   4.838  0.2340  0.0818 -0.0111
 1646W        W 5165   1.051   5.692   3.349 -0.0982 -0.3082 -0.1567
 1647W        W 5166   8.370   5.234   1.771 -0.2038 -0.0117  0.0300
 1648W        W 5167   4.449   1.059   1.889 -0.1148 -0.1031  0.0556
 1649W        W 5168   6.924   1.626   0.555 -0.1112 -0.0162 -0.0784
 1650W        W 5169   3.537   1.771   0.733 -0.2981  0.1938 -0.0268
 1651W        W 5170   5.020   3.196  12.105  0.0140  0.0212 -0.0454
 1652W        W 5171   5.671   1.915   9.202 -0.1972  0.0273 -0.3821
 1653W        W 5172   1.365   1.394   2.113 -0.4548  0.2557  0.3454
 1654W        W 5173   4.750   8.749   2.862 -0.2948 -0.0160 -0.0351
 1655W        W 5174   2.573   9.248   1.843 -0.2544  0.2273 -0.1710
 1656W        W 5175   3.139   6.059  10.172 -0.1600  0.1204  0.0372
 1657W        W 5176   4.551   2.894  11.502 -0.5307 -0.2412  0.1225
 1658W        W 5177   1.388   2.128   4.361  0.0597 -0.0109  0.1306
 1659W        W 5178   5.299   4.099  12.101  0.2182 -0.0420  0.1942
 1660W        W 5179   9.538   3.861  11.017  0.1367  0.0176 -0.4200
 1661W        W 5180   1.634   2.522   0.604 -0.0659  0.1958 -0.0753
 1662W        W 5181   5.385   9.555   1.196  0.0626  0.2961 -0.0926
 1663W        W 5182   8.207   2.059   9.632  0.0618 -0.2850 -0.1827
 1664W        W 5183   2.855   6.795  12.099  0.0129  0.2815  0.1564
 1665W        W 5184   0.708   4.467   3.505 -0.0041  0.4010 -0.1236
 1666W        W 5185   4.456   1.948   0.156  0.1625 -0.1927 -0.1078
 1667W        W 5186   8.149   1.567  11.965  0.1965 -0.1002  0.0951
 1668W        W 5187   2.131   7.412  10.939  0.3695 -0.0798 -0.0459
 1669W        W 5188   0.261   4.963  11.691 -0.0549 -0.3211 -0.1402
 1670W        W 5189   0.495   8.456   4.004  0.1154 -0.1430 -0.1056
 1671W        W 5190   7.755   1.913   9.121  0.1776 -0.2358  0.0825
 1672W        W 5191   0.380   4.111   4.698  0.0222  0.2927 -0.4875
 1673W        W 5192   3.865   2.377  10.041 -0.0247 -0.0014  0.1383
 1674W        W 5193   2.301   0.549  11.596  0.1220 -0.1721 -0.1216
 1675W        W 5194   8.135   4.433   9.850 -0.2576 -0.0487 -0.0449
 1676W        W 5195   9.114   6.411  10.815 -0.1236 -0.0581  0.2803
 1677W        W 5196   4.310   6.896   1.326 -0.0937  0.0244 -0.0149
 1678W        W 5197   2.981   1.038  11.803 -0.1411  0.2894  0.1377
 1679W        W 5198   8.104   1.877   6.573  0.1122 -0.2637  0.4111
 1680W        W 5199   2.338   1.826   9.732 -0.3487 -0.0716  0.1015
 1681W        W 5200   7.356   5.644   9.110  0.0131 -0.0757  0.0047
 1682W        W 5201   2.686   2.275   0.820  0.1709  0.2826 -0.2195
 1683W        W 5202   8.092   0.348   8.591 -0.2207  0.1437  0.3341
 1684W        W 5203   5.607   4.085   3.475 -0.2979 -0.2056  0.1173
 1685W        W 5204   7.331   3.095  10.747 -0.4620 -0.0488  0.1446
 1686W        W 5205   0.962   4.468   8.700 -0.0884  0.2751  0.1942
 1687W        W 5206   7.328   7.030   1.696 -0.2054 -0.3375 -0.1025
 1688W        W 5207   8.447   8.428  10.251 -0.2144  0.0817 -0.1245
 1689W        W 5208   6.660   4.217  10.987  0.1845  0.0624 -0.3035
 1690W        W 5209   8.779   1.398   1.023 -0.2751 -0.1269 -0.0023
 1691W        W 5210   4.239   8.484  11.403  0.0919  0.3956 -0.2670
 1692W        W 5211   3.633   9.722  10.634  0.2185  0.2522 -0.2633
 1693W        W 5212   0.483   3.429   9.816 -0.0002  0.3893 -0.3698
 1694W        W 5213   9.356   1.193   2.838 -0.0474  0.0125 -0.3864
 1695W        W 5214   3.487   1.923   1.208  0.3045 -0.0137 -0.1481
 1696W        W 5215   2.779   4.850  11.303  0.1765  0.2081 -0.3636
 1697W        W 5216   0.717   8.595   2.393 -0.2482 -0.0399 -0.0070
 1698W        W 5217   3.181   9.676   9.839 -0.1953 -0.3150  0.1800
 1699W        W 5218   7.236   9.596   8.431 -0.0299 -0.1592 -0.0857
 1700W        W 5219   4.748   9.636   1.512  0.0163  0.2150  0.1507
 1701W        W 5220   2.923   7.179   9.522  0.0135 -0.3225 -0.0020
 1702W        W 5221   7.953   7.841   8.305  0.1014 -0.1870 -0.3053
 1703W        W 5222   5.282   8.727   2.849  0.2862  0.2572  0.0134
 1704W        W 5223   3.662   5.931   3.042  0.0423  0.0476  0.2059
 1705W        W 5224   4.206   4.824   3.676 -0.2293  0.0125  0.0398
 1706W        W 5225   4.928   0.123   0.381 -0.2796 -0.0790  0.1568
 1707W        W 5226   7.246   0.227   0.755  0.4340  0.0014 -0.2446
 1708W        W 5227   5.748   7.643   9.729 -0.0671 -0.0921 -0.1321
 1709W        W 5228   3.998   9.264   8.987 -0.0200 -0.0599  0.0569
 1710W        W 5229   0.861   1.234   0.320 -0.3360 -0.1247  0.0588
 1711W        W 5230   2.791   3.763   2.968 -0.1344  0.0274 -0.0638
 1712W        W 5231   9.372   2.031  10.685  0.4307 -0.2801 -0.0920
 1713W        W 5232   4.497   0.345   2.523 -0.0867  0.0150 -0.0891
 1714W        W 5233   8.303   3.834  10.646  0.0416 -0.1737  0.0320
 1715W        W 5234   9.680   4.723   2.962 -0.0441  0.0036 -0.1309
 1716W        W 5235   6.922   0.265   3.545  0.1752  0.1492 -0.0208
 1717W        W 5236   7.896   2.936   1.588 -0.1093  0.3109 -0.0742
 1718W        W 5237   5.477   3.173   1.304  0.0558  0.0630 -0.3471
 1719W        W 5238   2.979   1.769   0.798 -0.2925  0.0322 -0.1669
 1720W        W 5239   4.002   6.846   2.109 -0.0641 -0.2917  0.1842
 1721W        W 5240   3.717   6.717   3.337  0.1701  0.0559  0.2362
 1722W        W 5241   7.342   6.052   8.784  0.0863  0.0937 -0.3023
 1723W        W 5242   2.383   5.567  10.314  0.0284 -0.0738 -0.3687
 1724W        W 5243   3.247   3.592   2.021 -0.2819 -0.4310 -0.1964
 1725W        W 5244   2.855   7.079   8.682 -0.0454 -0.0150 -0.1090
 1726W        W 5245   4.860   0.467   8.758 -0.3016  0.2851  0.2096
 1727W        W 5246   0.632   0.484  11.654 -0.1572 -0.1060  0.0597
 1728W        W 5247   2.883   6.866   2.716  0.0712  0.0963  0.1029
 1729W        W 5248   3.521   8.515   2.501 -0.3181 -0.1028  0.2196
 1730W        W 5249   5.624   0.658   3.639 -0.0660  0.0121 -0.0037
 1731W        W 5250   8.329   9.221   2.228  0.0275  0.1545  0.3796
 1732W        W 5251   3.693   4.090   9.419  0.1248  0.0209  0.0884
 1733W        W 5252   5.146   7.521   2.101 -0.0866  0.1246  0.0590
 1734W        W 5253   3.133   9.556  11.341 -0.1818  0.2362  0.0940
 1735W        W 5254   7.122   0.311  11.226 -0.1576 -0.0709  0.1772
 1736W        W 5255   0.180   9.507   3.035  0.1080  0.0630  0.1258
 1737W        W 5256   8.415   3.586   0.168  0.1535 -0.0354  0.0738
 1738W        W 5257   6.252   4.947  10.777 -0.3586  0.0195 -0.0063
 1739W        W 5258   5.049   9.840   3.205 -0.0440  0.2170  0.0265
 1740W        W 5259   6.290   7.961   0.386  0.3158 -0.1307 -0.3146
 1741W        W 5260   1.901   3.116   1.151 -0.1137  0.3022  0.4357
 1742W        W 5261   8.296   5.584   4.011 -0.0443  0.0105 -0.0111
 1743W        W 5262   0.168   6.535  11.963 -0.3283  0.1436  0.0742
 1744W        W 5263   8.650   9.146   3.999  0.1367 -0.0131  0.0128
 1745W        W 5264   9.703   7.553  11.017  0.0831 -0.3674  0.2870
 1746W        W 5265   5.449   8.998   9.353 -0.2312 -0.3827 -0.2385
 1747W        W 5266   5.945   3.188  11.063 -0.1980 -0.1917  0.0308
 1748W        W 5267   1.979   0.761   1.216 -0.0448  0.1132  0.0610
 1749W        W 5268   8.461   8.617  11.126  0.1991 -0.1087 -0.1583
 1750W        W 5269   3.697   9.233   0.219 -0.0185  0.3617  0.2458
 1751W        W 5270   1.858   4.104  11.165 -0.0385 -0.0668  0.1588
 1752W        W 5271   8.575   1.872   1.060  0.0741  0.1229  0.0752
 1753W        W 5272   0.347   1.544   1.446  0.3817 -0.1234  0.1501
 1754W        W 5273   4.281   8.909   1.523  0.1081 -0.2043 -0.2026
 1755W        W 5274   6.408   6.243   0.471  0.0322 -0.0942 -0.0467
 1756W        W 5275   9.437   4.568   2.426  0.2945 -0.0889 -0.1094
 1757W        W 5276   1.983   4.124   4.076 -0.2396  0.1608 -0.0281
 1758W        W 5277   6.753   2.726  11.373  0.2303 -0.2218  0.0379
 1759W        W 5278   0.520   0.323   3.019  0.1189 -0.3468  0.0719
 1760W        W 5279   8.421   6.535  10.129 -0.1330 -0.2193 -0.1954
 1761W        W 5280   8.259   5.848   2.162 -0.3232  0.1006  0.3717
 1762W        W 5281   5.625   2.314  10.498  0.0646 -0.0234  0.0168
 1763W        W 5282   7.828   9.870   0.673 -0.1882 -0.3907  0.2413
 1764W        W 5283   9.500   9.514   3.068 -0.2287 -0.4442  0.2665
 1765W        W 5284   9.179   9.488   0.460 -0.1393  0.0517 -0.2415
 1766W        W 5285   8.304   1.329  10.887  0.0988  0.3789 -0.0770
 1767W        W 5286   8.092   3.483  11.032  0.1298  0.0728  0.0214
 1768W        W 5287   0.612   2.211  10.766 -0.3441 -0.1148 -0.0784
 1769W        W 5288   3.317   0.084   1.647  0.0135  0.2506 -0.2127
 1770W        W 5289   2.191   0.565   1.636 -0.0392  0.0112 -0.3028
 1771W        W 5290   3.414   3.921   2.459  0.2325 -0.0376 -0.1819
 1772W        W 5291   6.686   4.894   0.308  0.2871 -0.1569  0.1545
 1773W        W 5292   2.744   0.373   0.627  0.1932 -0.1797 -0.1499
 1774W        W 5293   8.796   3.424  11.474  0.1172 -0.1275  0.1779
 1775W        W 5294   3.506   2.761   5.307  0.2401 -0.0261 -0.3106
 1776W        W 5295   5.303   3.066   1.754 -0.0040 -0.1992  0.3009
 1777W        W 5296   2.503   7.784   0.603 -0.0418  0.0494 -0.1266
 1778W        W 5297   3.606   5.057  10.652  0.2778 -0.0467 -0.0182
 1779W        W 5298   3.494   7.328  11.343  0.1480 -0.2651  0.0960
 1780W        W 5299   8.055   1.108   2.932 -0.2424 -0.0756  0.3542
 1781W        W 5300   7.236   5.465   2.490  0.0747 -0.0049  0.3689
 1782W        W 5301   6.052   7.889  11.367 -0.2002  0.0742  0.3348
 1783W        W 5302   6.163   1.744   9.946  0.0632  0.2587  0.4209
 1784W        W 5303   6.215   2.952   3.876 -0.1443  0.2905  0.3282
 1785W        W 5304   5.715   4.363  11.866 -0.1079 -0.0696 -0.0368
 1786W        W 5305   2.039   3.015  10.296  0.0066  0.0004  0.1517
 1787W        W 5306   4.725   2.396   0.085 -0.0572 -0.0501 -0.0952
 1788W        W 5307   7.992   7.975   1.613  0.1178 -0.1279 -0.2119
 1789W        W 5308   2.435   8.690  11.308  0.2064 -0.2186  0.0162
 1790W        W 5309   6.690   3.297   0.468 -0.2874 -0.0654  0.0246
 1791W        W 5310   1.965   5.818  11.083  0.0334 -0.0684  0.0053
 1792W        W 5311   1.578   9.279   3.920 -0.1966  0.2325 -0.1487
 1793W        W 5312   8.577   0.476  11.435  0.2879  0.1730  0.3739
 1794W        W 5313   3.058   1.085   4.288  0.1909  0.1055 -0.1241
 1795W        W 5314   7.618   2.657  10.699 -0.0081  0.0095 -0.1991
 1796W        W 5315   1.320   4.697  10.452 -0.1502  0.2385 -0.0370
 1797W        W 5316   3.427   8.272  11.928  0.1464 -0.2985  0.0817
 1798W        W 5317   2.942   3.594  11.895  0.0408  0.2456  0.0602
 1799W        W 5318   6.612   6.761   2.652 -0.2557  0.1060  0.3256
 1800W        W 5319   1.209   0.236   0.404 -0.1964 -0.0708 -0.0955
 1801W        W 5320   1.560   4.937  11.012 -0.3463 -0.0560 -0.2166
 1802W        W 5321   9.391   4.035   9.815 -0.2067 -0.2687  0.3231
 1803W        W 5322   1.995   4.559   2.243  0.1100 -0.1219  0.0118
 1804W        W 5323   5.276   6.754   1.119  0.0317  0.3407 -0.1150
 1805W        W 5324   6.862   1.871   3.970 -0.1820 -0.3709 -0.2521
 1806W        W 5325   7.562   8.521   2.730  0.0109 -0.3126 -0.0823
 1807W        W 5326   0.081   7.003   0.637 -0.1804 -0.0755 -0.0443
 1808W        W 5327   7.288   8.254   9.360 -0.0371 -0.0672 -0.0056
 1809W        W 5328   2.751   7.797   3.119 -0.0441  0.1650 -0.0362
 1810W        W 5329   1.782   4.695   1.781  0.1466 -0.0643  0.4457
 1811W        W 5330   0.208   9.605  11.287 -0.1856 -0.1346 -0.1743
 1812W        W 5331   0.067   4.379   4.365 -0.2050  0.0007 -0.1237
 1813W        W 5332   3.683   3.764  11.044  0.0135 -0.1519 -0.0654
 1814W        W 5333   5.256   6.258  11.716 -0.1931 -0.0807 -0.2595
 1815W        W 5334   6.808   3.596  11.465  0.2299 -0.2195  0.0405
 1816W        W 5335   8.241   4.053  11.167 -0.0975 -0.0378  0.0292
 1817W        W 5336   0.443   4.818   9.395  0.3026  0.0447 -0.1402
 1818W        W 5337   2.822   7.356  12.057  0.0953  0.1844 -0.1032
 1819W        W 5338   3.354   9.658   3.512  0.3046  0.2843  0.1372
 1820W        W 5339   6.405   6.612   1.699  0.0380  0.0054  0.0847
 1821W        W 5340   4.123   0.760   0.310  0.0845  0.2394  0.0684
 1822W        W 5341   2.665   5.242  11.552 -0.2189 -0.2817 -0.0746
 1823W        W 5342   8.720   6.226   9.881 -0.0688  0.2867  0.2193
 1824W        W 5343   9.018   7.569  10.338  0.2765 -0.0193  0.0535
 1825W        W 5344   9.600   6.520   4.138  0.0144  0.1278  0.0378
 1826W        W 5345   3.844   6.458   1.149 -0.2856  0.0386 -0.0679
 1827W        W 5346   7.282   7.224  11.414  0.2231 -0.0124  0.1216
 1828W        W 5347   4.827   2.743   2.747 -0.0267  0.2266 -0.0179
 1829W        W 5348   5.500   6.780   0.601  0.1062 -0.0381  0.1918
 1830W        W 5349   8.604   1.028   2.775  0.3378 -0.0181  0.2366
 1831W        W 5350   5.396   3.212  11.185  0.0364 -0.0066  0.2934
 1832W        W 5351   9.600   5.800   0.332 -0.0792 -0.0508  0.0363
 1833W        W 5352   4.869   3.938   9.582 -0.1230 -0.1595 -0.1069
 1834W        W 5353   0.576   0.730   0.524 -0.1089 -0.1253 -0.0025
 1835W        W 5354   6.390   7.640   2.446 -0.2023 -0.2932  0.2677
 1836W        W 5355   6.189   6.442   0.045  0.0957  0.5621 -0.0562
 1837W        W 5356   1.910   5.606   2.641 -0.0260  0.0201 -0.0346
 1838W        W 5357   9.633   2.683   1.192 -0.0233  0.0678 -0.0568
 1839W        W 5358   7.784   4.721   9.707  0.3745  0.0907  0.3207
 1840W        W 5359   3.673   8.897   1.037 -0.2440  0.0822  0.2905
 1841W        W 5360   7.467   6.829   0.365  0.0601 -0.3389 -0.4801
 1842W        W 5361   4.448   7.350   1.173 -0.1892 -0.1100  0.4360
 1843W        W 5362   3.313   9.794   0.846  0.0788  0.0697 -0.1147
 1844W        W 5363   1.798   0.912  10.691  0.1380  0.2233 -0.0745
 1845W        W 5364   7.715   8.150   2.442  0.1927  0.0833 -0.1116
 1846W        W 5365   8.301   7.968   9.527 -0.2463  0.1852 -0.1745
 1847W        W 5366   4.196   0.720   2.292 -0.2643  0.1575 -0.1385
 1848W        W 5367   0.056   4.766  10.392  0.1599  0.0562  0.0583
 1849W        W 5368   4.258   7.651  10.093 -0.4780 -0.0144 -0.3332
 1850W        W 5369   2.818   6.116   1.934 -0.3374  0.3401  0.0648
 1851W        W 5370   0.693   3.322   0.424 -0.0758 -0.3702  0.2573
 1852W        W 5371   7.180   9.686   3.546 -0.2424 -0.0895 -0.2427
 1853W        W 5372   5.790   1.717   3.466 -0.0540  0.2036 -0.0999
 1854W        W 5373   0.902   0.423   0.765  0.2204  0.0580 -0.0704
 1855W        W 5374   7.780   2.009  11.860 -0.0274 -0.0579 -0.1926
 1856W        W 5375   1.221   4.021   8.544  0.3253 -0.1686  0.0668
 1857W        W 5376   5.405   2.404   9.022 -0.0618  0.1733 -0.0235
 1858W        W 5377   0.087   5.836   2.406 -0.0928 -0.4281  0.0442
 1859W        W 5378   8.628   0.405   9.592  0.2053 -0.0731 -0.2616
 1860W        W 5379   1.318   1.846   1.738 -0.2997 -0.1497  0.3685
 1861W        W 5380   4.296   0.709  10.516 -0.0477 -0.0243 -0.3804
 1862W        W 5381   4.133   5.784   3.589 -0.1628 -0.0025 -0.0731
 1863W        W 5382   4.314   5.226   3.331  0.0628  0.3916  0.1540
 1864W        W 5383   7.977   6.875   0.665  0.2008 -0.0738 -0.1780
 1865W        W 5384   5.743   3.633   3.278  0.2048 -0.1599  0.0934
 1866W        W 5385   1.670   7.990   3.862  0.1161  0.2316  0.1928
 1867W        W 5386   7.851   2.472   1.408  0.2158  0.1600  0.0714
 1868W        W 5387   4.887   2.331   4.745  0.0892 -0.1831 -0.1888
 1869W        W 5388   1.290   3.933   3.284  0.1620 -0.1838  0.0378
 1870W        W 5389   2.194   2.258   3.182 -0.1890 -0.1282  0.1366
 1871W        W 5390   6.577   1.246   1.437 -0.0261 -0.1318  0.3531
 1872W        W 5391   7.947   8.699   2.958 -0.1263  0.1236 -0.3399
 1873W        W 5392   2.619   9.866   3.450 -0.1631 -0.0582 -0.0139
 1874W        W 5393   5.566   6.700   1.979  0.0668 -0.1234  0.3569
 1875W        W 5394   4.458   4.701   1.515 -0.2882  0.0288 -0.0531
 1876W        W 5395   3.751   7.296   8.366  0.0263 -0.1702 -0.2311
 1877W        W 5396   6.284   7.473   3.674  0.0633  0.1455  0.1126
 1878W        W 5397   7.494   4.987   8.511 -0.0701 -0.1451 -0.0779
 1879W        W 5398   5.672   5.401   2.332  0.2137  0.0431 -0.1189
 1880W        W 5399   0.458   8.489   9.927 -0.1735 -0.0996  0.1167
 1881W        W 5400   9.406   9.416   3.571  0.0097 -0.2066  0.0372
 1882W        W 5401   3.715   9.388   0.919 -0.0338 -0.0512  0.1647
 1883W        W 5402   8.065   5.378   8.631 -0.0874  0.1234  0.1019
 1884W        W 5403   7.081   3.502   2.095  0.1805 -0.1656  0.0922
 1885W        W 5404   0.212   7.898   1.943  0.1742 -0.2978  0.1202
 1886W        W 5405   7.005   4.060   9.175  0.3760 -0.0197 -0.2115
 1887W        W 5406   1.607   4.276  10.362  0.1814  0.0617 -0.2843
 1888W        W 5407   6.071   1.182   0.145  0.0671 -0.0077  0.0345
 1889W        W 5408   2.839   7.010   3.711  0.2009  0.0297 -0.1804
 1890W        W 5409   9.757   1.654   4.026 -0.2120  0.1014  0.1297
 1891W        W 5410   4.160   5.062   4.379  0.3743 -0.0818  0.0266
 1892W        W 5411   8.271   8.573   1.655 -0.0954  0.2977  0.0274
 1893W        W 5412   9.594   4.133   0.993 -0.1754 -0.0395  0.3408
 1894W        W 5413   9.506   7.540   4.001 -0.0459  0.3787  0.0588
 1895W        W 5414   5.982   5.248   0.483  0.2591  0.0071  0.0094
 1896W        W 5415   8.405   3.421   2.054 -0.0078  0.1462  0.0599
 1897W        W 5416   0.139   8.753   9.711  0.0759 -0.1158  0.2821
 1898W        W 5417   2.894   2.435  10.439  0.0170  0.1693 -0.0549
 1899W        W 5418   7.142   3.384  11.107 -0.2744  0.0752 -0.4126
 1900W        W 5419   4.568   6.470   3.935 -0.0714 -0.1858 -0.2186
 1901W        W 5420   6.284   6.321   3.308 -0.0093 -0.0600  0.0262
 1902W        W 5421   3.215   7.386   2.131  0.0515 -0.1905  0.1743
 1903W        W 5422   2.138   4.922   0.325  0.0687  0.0822 -0.1622
 1904W        W 5423   7.803   1.641  10.972  0.0133 -0.1836 -0.0988
 1905W        W 5424   4.847   3.725  12.036  0.0493 -0.0559 -0.0789
 1906W        W 5425   4.452   4.860   0.237  0.1387 -0.0256  0.0221
 1907W        W 5426   2.357   4.251   9.622 -0.1026  0.2745 -0.2186
 1908W        W 5427   1.725   2.453   4.126 -0.1466  0.1134  0.1753
 1909W        W 5428   1.565   2.885   0.304 -0.1737  0.1162 -0.1916
 1910W        W 5429   6.871   4.362   0.656  0.1467  0.1040  0.0496
 1911W        W 5430   4.405   3.483   2.759 -0.0387 -0.2997 -0.0625
 1912W        W 5431   2.210   1.483   4.004  0.1317 -0.1093 -0.2798
 1913W        W 5432   8.281   0.606   1.462 -0.2485 -0.0227  0.0299
 1914W        W 5433   6.910   7.890  10.011 -0.3776 -0.1799  0.2487
 1915W        W 5434   5.110   1.071   9.930 -0.2619 -0.0604  0.0594
 1916W        W 5435   3.504   4.281   0.585 -0.1445 -0.2492  0.2505
 1917W        W 5436   2.483   6.292   9.781 -0.2049  0.0131 -0.2252
 1918W        W 5437   1.276   5.673   3.936  0.1249 -0.0380  0.3778
 1919W        W 5438   4.584   2.870   0.397 -0.0738  0.0414  0.1736
 1920W        W 5439   3.747   8.212  11.442  0.3040 -0.0120 -0.1698
 1921W        W 5440   2.017   7.813   0.325  0.0546 -0.1444  0.1054
 1922W        W 5441   5.607   5.803   3.767 -0.2777 -0.1338 -0.0837
 1923W        W 5442   5.670   5.960   1.702  0.0693 -0.0542 -0.0135
 1924W        W 5443   0.785   4.227   2.431 -0.2306 -0.1589  0.1861
 1925W        W 5444   8.065   8.401   3.931  0.0741  0.3739 -0.2173
 1926W        W 5445   8.505   1.608   9.590  0.2202  0.0064  0.2292
 1927W        W 5446   1.008   7.626   0.714  0.1129 -0.0855 -0.3314
 1928W        W 5447   6.894   2.939   9.519 -0.2879 -0.0497 -0.0986
 1929W        W 5448   2.691   8.721   1.737 -0.0244 -0.0418 -0.0598
 1930W        W 5449   7.520   4.637   3.960 -0.0504  0.1049 -0.3442
 1931W        W 5450   3.957   1.683  10.385 -0.3028  0.0118  0.0899
 1932W        W 5451   1.457   5.403  10.767  0.1133  0.0416  0.0666
 1933W        W 5452   7.771   4.876   9.257  0.0419 -0.3323  0.0390
 1934W        W 5453   6.019   6.164   8.987 -0.3798 -0.0868  0.2468
 1935W        W 5454   1.200   3.388  10.595  0.1304 -0.0855  0.0600
 1936W        W 5455   9.326   6.940   1.277  0.0609 -0.2331 -0.1962
 1937W        W 5456   7.231   8.115   0.286 -0.1701 -0.3215  0.2462
 1938W        W 5457   3.948   5.160   0.655 -0.0351  0.0250 -0.3559
 1939W        W 5458   0.398   1.036  10.985  0.1781  0.2002  0.1174
 1940W        W 5459   4.461   4.252   2.334 -0.2889 -0.3113 -0.1090
 1941W        W 5460   7.956   2.119   1.745 -0.1073 -0.1086  0.0116
 1942W        W 5461   1.979   2.872   1.698  0.0866  0.5245 -0.1397
 1943W        W 5462   4.373   0.119   0.400 -0.0033  0.0498 -0.3412
 1944W        W 5463   5.707   9.351  10.596  0.0147  0.2002  0.2666
 1945W        W 5464   7.065   0.286   0.298 -0.2535 -0.3586 -0.3369
 1946W        W 5465   5.709   3.900   9.073 -0.2595 -0.2033  0.2500
 1947W        W 5466   4.128   9.429  11.004 -0.0743  0.3649  0.1448
 1948W        W 5467   1.965   5.858   3.085 -0.0771  0.0243  0.0410
 1949W        W 5468   5.413   5.274   0.353  0.0170 -0.0191 -0.1141
 1950W        W 5469   9.533   5.872  11.930 -0.0058  0.2771 -0.0822
 1951W        W 5470   8.705   6.944   2.911  0.3089  0.0024  0.0028
 1952W        W 5471   2.229   8.616   3.630  0.0819 -0.4018  0.0830
 1953W        W 5472   8.693   9.761   7.735  0.0990  0.0177  0.0928
 1954W        W 5473   8.190   4.982   3.243 -0.0737 -0.1731  0.0120
 1955W        W 5474   5.148   7.690   0.704  0.2505 -0.4153  0.0876
 1956W        W 5475   9.832   6.001  11.056 -0.0349 -0.0979 -0.2666
 1957W        W 5476   7.604   3.506   9.823 -0.2255 -0.1281 -0.0706
 1958W        W 5477   1.306   0.896   1.933 -0.4446 -0.0043  0.1744
 1959W        W 5478   7.681   7.686   2.658 -0.3039 -0.0321  0.1333
 1960W        W 5479   5.446   4.272   0.962  0.0341  0.2095 -0.0813
 1961W        W 5480   7.879   6.408   0.877  0.0815  0.2433 -0.2209
 1962W        W 5481   7.291   9.508   2.488  0.3381 -0.1747 -0.2195
 1963W        W 5482   0.458   9.212  12.010 -0.0853  0.1882  0.0109
 1964W        W 5483   9.817   7.477   1.797 -0.2120  0.0203  0.1355
 1965W        W 5484   7.921   0.419  10.506 -0.0261  0.1732  0.0762
 1966W        W 5485   1.945   0.625   4.269  0.1300  0.3502 -0.2257
 1967W        W 5486   7.421   2.722   0.575  0.0386 -0.1190  0.0966
 1968W        W 5487   4.907   7.856   0.322  0.0551 -0.4215 -0.2194
 1969W        W 5488   8.336   4.449   3.286 -0.0650  0.1541  0.1879
 1970W        W 5489   1.700   4.641   3.178  0.3023  0.2935  0.1222
 1971W        W 5490   2.086   4.375   2.766 -0.3585 -0.0178  0.0927
 1972W        W 5491   3.227   7.159   9.093 -0.3327  0.5548 -0.0147
 1973W        W 5492   6.115   7.720  10.499  0.0468  0.0374 -0.0764
 1974W        W 5493   8.798   8.637   4.004  0.1892 -0.1563  0.0367
 1975W        W 5494   0.652   9.312   1.534 -0.0853  0.1422  0.0722
 1976W        W 5495   6.097   4.887   3.399 -0.2001 -0.0420  0.2794
 1977W        W 5496   5.252   9.288   3.583 -0.3148 -0.0568 -0.0682
 1978W        W 5497   6.384   0.173   3.273  0.1808 -0.1556  0.0803
 1979W        W 5498   8.097   7.511   3.570  0.0097 -0.0726 -0.0697
 1980W        W 5499   4.936   0.423   0.774  0.0666 -0.2525 -0.2602
 1981W        W 5500   2.587   2.030   4.491 -0.0705  0.2090 -0.1037
 1982W        W 5501   9.146   3.471  11.079  0.2357  0.2270  0.1498
 1983W        W 5502   5.491   7.739  10.560  0.0100 -0.1382  0.1562
 1984W        W 5503   0.456   8.354   2.995 -0.0124  0.0958 -0.1271
 1985W        W 5504   4.806   6.455  10.722 -0.1790  0.0201  0.1916
 1986W        W 5505   2.320   4.103   2.335 -0.0712  0.0930  0.1472
 1987W        W 5506   7.350   6.455   0.738 -0.0107  0.0372 -0.2377
 1988W        W 5507   0.034   8.294   9.629  0.1622 -0.2913 -0.2366
 1989W        W 5508   4.008   9.540   3.576 -0.3482  0.0083  0.3924
 1990W        W 5509   2.850   0.615  11.431 -0.0923  0.2351 -0.1921
 1991W        W 5510   8.661   4.318   4.748 -0.1584 -0.3017  0.1131
 1992W        W 5511   9.724   8.463  11.639 -0.0991  0.0546 -0.2189
 1993W        W 5512   0.458   0.233   0.444 -0.1671 -0.0366 -0.3767
 1994W        W 5513   8.162   0.978   8.317  0.1003 -0.0101  0.0051
 1995W        W 5514   2.146   1.119   9.935 -0.0368  0.2273 -0.0529
 1996W        W 5515   4.336   4.479  11.718  0.2059 -0.0019 -0.0996
 1997W        W 5516   2.287   6.085   8.950 -0.3403 -0.3469 -0.1194
 1998W        W 5517   3.999   4.138   3.182  0.0506  0.0008  0.0078
 1999W        W 5518   3.008   9.280   0.554  0.1742 -0.1897  0.1129
 2000W        W 5519   0.162   7.550   3.965  0.1349  0.2467  0.1227
 2001W        W 5520   4.836   3.581   8.785 -0.2426 -0.0141 -0.1373
 2002W        W 5521   0.791   5.855  10.465  0.2383  0.0155 -0.3408
 2003W        W 5522   4.536   4.357   8.856  0.1454 -0.1420 -0.0375
 2004W        W 5523   4.207   2.615  11.242 -0.0367 -0.1864  0.1378
 2005W        W 5524   9.634   3.302  11.338  0.2468  0.3202 -0.0375
 2006W        W 5525   2.122   1.106   0.767 -0.1063  0.1801  0.1753
 2007W        W 5526   7.544   8.139   3.092 -0.0172 -0.1908  0.2163
 2008W        W 5527   6.940   2.567   4.993 -0.0448  0.0003 -0.1191
 2009W        W 5528   9.487   1.750   0.311  0.1972  0.2009  0.0883
 2010W        W 5529   9.215   0.447  11.903  0.3659 -0.0064 -0.1658
 2011W        W 5530   5.936   3.947  11.654 -0.2092 -0.0627  0.4174
 2012W        W 5531   9.151   6.049   3.952  0.0153 -0.1368 -0.0240
 2013W        W 5532   3.921   4.132   0.338  0.3330 -0.1405 -0.3131
 2014W        W 5533   9.392   9.312   1.671 -0.0678  0.0670  0.0159
 2015W        W 5534   0.676   5.049   4.016 -0.0286  0.1350 -0.2434
 2016W        W 5535   1.151   1.441  12.087 -0.1538 -0.1927 -0.1707
 2017W        W 5536   4.105   2.932   2.228 -0.0128 -0.0645  0.0231
 2018W        W 5537   6.110   3.472   1.337  0.1384 -0.1163 -0.1885
 2019W        W 5538   9.144   5.527  12.068  0.1888 -0.0454  0.0992
 2020W        W 5539   6.189   0.168   9.431  0.3588 -0.0385  0.2926
 2021W        W 5540   6.784   7.518  11.316 -0.2411  0.3993 -0.1285
 2022W        W 5541   2.822   4.712   4.483 -0.2300 -0.1133  0.0391
 2023W        W 5542   6.706   5.280   1.642  0.3216  0.1969 -0.0970
 2024W        W 5543   9.581   4.034   2.756  0.0195 -0.1643  0.0366
 2025W        W 5544   2.701   3.831  11.523 -0.1024 -0.1330  0.0003
 2026W        W 5545   1.112   7.231   2.271 -0.0039 -0.0396  0.1406
 2027W        W 5546   5.034   9.612  10.415  0.1598 -0.1221 -0.2310
 2028W        W 5547   7.723   9.290   9.809  0.1604  0.2185  0.1712
 2029W        W 5548   8.084   0.448   0.614 -0.1157 -0.0024 -0.1303
 2030W        W 5549   2.521   4.729   3.027 -0.2355 -0.0010  0.0291
 2031W        W 5550   3.961   8.846   3.976 -0.1451  0.1877 -0.4166
 2032W        W 5551   9.282   1.447   1.740 -0.2313 -0.0540 -0.1483
 2033W        W 5552   2.894   7.077  10.063  0.1456 -0.4304  0.3341
 2034W        W 5553   1.684   3.426   4.574 -0.2537  0.0136  0.2251
 2035W        W 5554   5.916   9.497  11.522 -0.0846 -0.1478 -0.1308
 2036W        W 5555   5.700   4.917   9.163 -0.0748  0.1853  0.2225
 2037W        W 5556   1.022   6.038   1.023  0.1662  0.1031  0.1426
 2038W        W 5557   5.809   2.694  11.071  0.2050  0.1142  0.4424
 2039W        W 5558   2.930   3.155   3.952 -0.0670  0.1646  0.0026
 2040W        W 5559   2.876   1.127   3.243 -0.1214  0.2764  0.0700
 2041W        W 5560   5.410   9.398  10.208  0.5357  0.0646 -0.2806
 2042W        W 5561   6.958   8.811   2.014 -0.2393 -0.0375 -0.3527
 2043W        W 5562   6.593   0.508   9.424  0.0376 -0.2475  0.6957
 2044W        W 5563   0.965   2.149   2.321 -0.1003 -0.0342 -0.3604
 2045W        W 5564   1.765   4.307   3.584 -0.4990 -0.1732  0.0846
 2046W        W 5565   4.048   9.491   2.149 -0.2554 -0.1587  0.0184
 2047W        W 5566   4.694   7.646   1.526  0.3611  0.0387 -0.2783
 2048W        W 5567   0.034   8.136  10.500 -0.2288 -0.3568  0.2357
 2049W        W 5568   1.377   5.174   9.973  0.3870 -0.1828 -0.2729
 2050W        W 5569   0.105   9.761   2.278  0.1734 -0.0812  0.1875
 2051W        W 5570   3.837   0.128   1.548  0.0389 -0.2200  0.2604
 2052W        W 5571   5.377   3.589  11.833  0.1065  0.0881 -0.0942
 2053W        W 5572   1.396   7.275   1.906 -0.0343 -0.1184 -0.3706
 2054W        W 5573   7.333   0.543  11.706 -0.0185  0.1722 -0.2460
 2055W        W 5574   6.345   6.752   3.073  0.3184  0.1896  0.0782
 2056W        W 5575   3.563   4.588   3.178  0.2115  0.0067  0.1947
 2057W        W 5576   8.407   2.734   2.233  0.4030  0.4833  0.0225
 2058W        W 5577   6.894   3.705   3.795 -0.1269  0.2280  0.0965
 2059W        W 5578   1.190   4.268  11.755  0.2712  0.0677  0.1369
 2060W        W 5579   3.818   6.491   8.713  0.1438  0.4142 -0.0093
 2061W        W 5580   1.549   7.226  10.014  0.3142  0.1399  0.1430
 2062W        W 5581   4.061   5.054  10.908 -0.3893 -0.2517  0.0988
 2063W        W 5582   9.624   6.071  11.491  0.0301 -0.1444  0.1450
 2064W        W 5583   9.870   2.343   1.461  0.0760  0.2000 -0.4041
 2065W        W 5584   7.116   1.516   3.721 -0.1797  0.1639 -0.1121
 2066W        W 5585   0.037   4.241   1.393 -0.3389  0.1695 -0.0230
 2067W        W 5586   3.901   9.293   9.818  0.0503 -0.1109  0.3946
 2068W        W 5587   2.263   8.297   9.084 -0.1527  0.0492 -0.0588
 2069W        W 5588   3.029   4.137   3.877 -0.1258  0.0032 -0.0714
 2070W        W 5589   8.100   4.430  11.519 -0.2199  0.0805 -0.1741
 2071W        W 5590   5.402   8.722   4.702  0.3101 -0.0492 -0.0847
 2072W        W 5591   6.298   7.000   4.422 -0.1174  0.0692 -0.0385
 2073W        W 5592   5.083   0.661   0.277 -0.1067  0.0357 -0.2423
 2074W        W 5593   0.285   2.960  10.255  0.0956  0.1655 -0.1157
 2075W        W 5594   2.903   3.160   0.921 -0.1064  0.1691 -0.2382
 2076W        W 5595   5.584   2.749   2.083  0.0230 -0.2407 -0.0063
 2077W        W 5596   1.563   5.979  12.077  0.0140  0.0849 -0.2643
 2078W        W 5597   5.250   2.882  10.019  0.0924  0.0486  0.3197
 2079W        W 5598   1.766   0.559   1.976 -0.0624 -0.2949 -0.0380
 2080W        W 5599   9.632   7.641   9.147 -0.1875  0.0416  0.1394
 2081W        W 5600   1.790   2.417   3.557 -0.2120 -0.2373  0.0866
 2082W        W 5601   3.566   9.572   4.444 -0.1464 -0.1312  0.2275
 2083W        W 5602   7.593   9.430   9.341  0.2033 -0.1993  0.1075
 2084W        W 5603   4.151   3.672   0.535 -0.2968 -0.1636  0.3625
 2085W        W 5604   4.102   4.179   9.755 -0.3685 -0.0664 -0.1307
 2086W        W 5605   3.638   5.820  11.466 -0.0407  0.3894  0.0863
 2087W        W 5606   4.777   4.990   3.109 -0.2001 -0.1053 -0.1425
 2088W        W 5607   6.528   2.025  11.623  0.2797  0.0361 -0.0531
 2089W        W 5608   1.858   3.059   2.911  0.5175 -0.0019  0.1980
 2090W        W 5609   2.961   2.814   1.963 -0.1470  0.1758 -0.0740
 2091W        W 5610   8.736   9.721   0.568 -0.0903  0.0287  0.1136
 2092W        W 5611   7.615   2.614   0.043  0.0757 -0.0933 -0.0760
 2093W        W 5612   2.360   5.526  10.842 -0.1479 -0.1909  0.2971
 2094W        W 5613   3.263   8.848   1.356 -0.0491  0.1940  0.0078
 2095W        W 5614   6.888   1.247   3.333  0.1852  0.0545 -0.4321
 2096W        W 5615   2.282   0.992  10.995  0.1186  0.1529  0.0646
 2097W        W 5616   6.882   0.111   8.577 -0.1077 -0.1536  0.1096
 2098W        W 5617   2.892   3.629   3.882 -0.0435  0.1758  0.1207
 2099W        W 5618   3.159   6.700   8.731  0.0831  0.0538 -0.0328
 2100W        W 5619   8.364   9.128  11.042  0.1298  0.1270  0.0733
 2101W        W 5620   8.142   0.762   9.696 -0.0453 -0.1199  0.1355
 2102W        W 5621   5.107   3.549   3.746  0.1398 -0.3811  0.2544
 2103W        W 5622   0.399   8.294  11.360  0.2342 -0.0872  0.0062
 2104W        W 5623   8.515   9.359   3.551  0.2957  0.1164 -0.1031
 2105W        W 5624   4.666   6.836   9.815 -0.2293 -0.1945  0.0173
 2106W        W 5625   8.958   4.614   3.798  0.0249  0.0170  0.0562
 2107W        W 5626   1.851   2.582   1.103 -0.1918 -0.0591  0.1781
 2108W        W 5627   3.555   9.288   2.240 -0.0146 -0.0292 -0.0581
 2109W        W 5628   9.809   6.247   1.862 -0.1048 -0.0175  0.1199
 2110W        W 5629   2.145   6.829   2.061  0.0621 -0.2893 -0.0388
 2111W        W 5630   8.325   6.804   9.722  0.1789 -0.1528  0.2030
 2112W        W 5631   0.634   8.668   3.301  0.0527  0.0177 -0.0357
 2113W        W 5632   5.412   8.093   3.769  0.0049 -0.0107  0.2490
 2114W        W 5633   1.994   6.145   3.500  0.2441 -0.0072 -0.0745
 2115W        W 5634   5.338   3.327   4.097  0.0106 -0.0159 -0.2337
 2116W        W 5635   1.290   4.175   0.571  0.0325 -0.3889 -0.0073
 2117W        W 5636   9.850   6.744  10.135  0.1178  0.0531 -0.2192
 2118W        W 5637   3.679   0.890   1.191 -0.1081 -0.1017  0.0118
 2119W        W 5638   4.970   7.858   3.935  0.3609 -0.0719 -0.2094
 2120W        W 5639   9.033   1.577   0.190  0.1300  0.0762 -0.1322
 2121W        W 5640   5.825   5.181  10.920  0.3618  0.1758 -0.2960
 2122W        W 5641   5.488   9.402   4.540 -0.0574  0.2217 -0.1405
 2123W        W 5642   6.759   4.364   3.263 -0.2573 -0.1209  0.2574
 2124W        W 5643   0.912   3.563   3.294 -0.1923 -0.2067  0.0778
 2125W        W 5644   3.958   8.842   0.062 -0.1181  0.0410 -0.1933
 2126W        W 5645   4.274   2.808   3.784 -0.1517 -0.0992 -0.1167
 2127W        W 5646   2.333   7.742   3.473 -0.0423  0.0345  0.3242
 2128W        W 5647   3.494   1.553   4.443 -0.2040  0.1787 -0.0279
 2129W        W 5648   5.341   4.883  10.028 -0.1859 -0.2149  0.3550
 2130W        W 5649   9.294   2.595   2.702  0.1603 -0.2170 -0.3203
 2131W        W 5650   0.921   1.011  10.893 -0.0244  0.1934  0.1022
 2132W        W 5651   2.889   3.965   2.358 -0.0404 -0.1262  0.0989
 2133W        W 5652   9.759   6.791   1.022  0.0746 -0.1645  0.0461
 2134W        W 5653   6.793   4.957   3.629 -0.0370  0.2085  0.0210
 2135W        W 5654   3.363   5.257   0.564  0.1257 -0.1100 -0.0324
 2136W        W 5655   4.005   3.608   4.799  0.1788  0.1401 -0.0797
 2137W        W 5656   1.869   1.720   4.307 -0.1201  0.1400  0.2490
 2138W        W 5657   2.155   2.739   0.163 -0.0517  0.0653  0.1142
 2139W        W 5658   3.703   3.310  11.316 -0.3111  0.4094 -0.1614
 2140W        W 5659   4.772   6.114   1.552  0.2439  0.0021 -0.3276
 2141W        W 5660   0.901   5.841   9.850  0.1309 -0.3027 -0.2265
 2142W        W 5661   0.559   1.642   0.501 -0.2086 -0.3521  0.1395
 2143W        W 5662   2.704   6.934  10.503 -0.0244  0.1548 -0.0050
 2144W        W 5663   1.134   4.346   1.042 -0.1564  0.4972 -0.0109
 2145W        W 5664   5.650   5.337  11.956 -0.0755  0.2820  0.1669
 2146W        W 5665   2.816   8.432   1.283  0.0194  0.0857  0.2198
 2147W        W 5666   7.128   7.572   1.295  0.0774  0.1329 -0.1991
 2148W        W 5667   6.156   0.568   9.688 -0.1548  0.1798  0.0504
 2149W        W 5668   0.327   7.154   2.021  0.0167 -0.1493  0.1112
 2150W        W 5669   5.397   6.599   9.732 -0.0230  0.3437 -0.0745
 2151W        W 5670   8.798   0.240   3.605  0.1246  0.1513 -0.1470
 2152W        W 5671   7.763   3.753   1.207 -0.0061  0.1389 -0.2255
 2153W        W 5672   0.057   9.481  11.807  0.2958  0.0638 -0.0348
 2154W        W 5673   0.087   5.497  12.062  0.2809  0.2978  0.0274
 2155W        W 5674   5.887   7.382  10.218  0.1007  0.0938  0.1715
 2156W        W 5675   8.718   0.935   8.947 -0.1021 -0.0047  0.1858
 2157W        W 5676   7.416   6.618   4.468 -0.1207 -0.2711 -0.0095
 2158W        W 5677   0.400   0.932   9.550 -0.1135  0.1363 -0.3492
 2159W        W 5678   5.657   0.661   2.111 -0.1427 -0.1991  0.0217
 2160W        W 5679   9.605   2.482  10.822  0.0338 -0.1003  0.0856
 2161W        W 5680   6.835   0.585   3.915 -0.3538 -0.1278  0.1468
 2162W        W 5681   3.784   2.688   0.406 -0.0165  0.3651  0.0093
 2163W        W 5682   3.563   2.616  10.757  0.0477  0.1622  0.3976
 2164W        W 5683   3.332   1.100   4.747 -0.1024 -0.0267 -0.3137
 2165W        W 5684   8.210   9.374   9.973  0.1628 -0.0736  0.0218
 2166W        W 5685   8.594   0.723   3.664 -0.0874  0.2296  0.0451
 2167W        W 5686   5.377   5.523  11.624  0.1121  0.0507 -0.1511
 2168W        W 5687   6.986   1.329   9.103 -0.0688 -0.1379  0.0040
 2169W        W 5688   4.092   7.040   0.364 -0.0457  0.2073  0.0807
 2170W        W 5689   2.408   1.314   3.527  0.1348 -0.0291 -0.1756
 2171W        W 5690   9.646   7.499  10.018  0.2493  0.0258  0.2290
 2172W        W 5691   6.585   5.196   4.838 -0.1852 -0.2665  0.0339
 2173W        W 5692   3.951   2.860  10.895  0.0040 -0.1227 -0.1480
 2174W        W 5693   2.704   7.304   5.353  0.4292  0.0500 -0.1730
 2175W        W 5694   1.459   5.648  11.202  0.0159  0.1162 -0.1344
 2176W        W 5695   0.452   1.428   9.458  0.4797  0.1894  0.3486
 2177W        W 5696   6.267   6.980   2.394  0.1958 -0.1810  0.1219
 2178W        W 5697   0.514   1.090  10.521  0.0378 -0.1638  0.1234
 2179W        W 5698   4.639   7.436   9.425  0.1883  0.0616  0.1373
 2180W        W 5699   5.068   1.789   2.691 -0.1546 -0.1290  0.0556
 2181W        W 5700   7.603   5.943  11.406 -0.3281  0.1388 -0.0050
 2182W        W 5701   4.183   3.031  11.933 -0.3010 -0.3518 -0.2029
 2183W        W 5702   4.249   6.423   1.428 -0.1016 -0.0452  0.0585
 2184W        W 5703   2.351   0.013  10.722  0.0563 -0.0574 -0.2311
 2185W        W 5704   8.061   7.992  10.425  0.4996 -0.1367 -0.1683
 2186W        W 5705   0.784   1.751   1.548  0.2797 -0.0217 -0.3472
 2187W        W 5706   4.418   5.821   3.139 -0.1468 -0.0654  0.2980
 2188W        W 5707   7.962   8.910   1.915 -0.0587 -0.1158  0.2636
 2189W        W 5708   3.601   7.762   8.599  0.0588  0.1323 -0.3151
 2190W        W 5709   3.583   6.843  10.265  0.0739 -0.2151 -0.2793
 2191W        W 5710   8.151   4.743   8.987  0.0614 -0.1716  0.1696
 2192W        W 5711   6.413   2.219   1.959 -0.4216  0.0928 -0.0403
 2193W        W 5712   8.880   1.219   9.670  0.2842  0.1547  0.2442
 2194W        W 5713   3.117   1.217   1.608 -0.0661  0.1939  0.0901
 2195W        W 5714   6.490   5.800   8.691 -0.1005 -0.1739 -0.0754
 2196W        W 5715   2.206   4.226   5.046  0.0618 -0.0339 -0.3439
 2197W        W 5716   4.938   0.068  10.733  0.1523 -0.1396  0.0320
 2198W        W 5717   4.592   1.926   2.627 -0.1381  0.0383  0.3233
 2199W        W 5718   8.950   5.131   8.747 -0.0512 -0.1840 -0.0847
 2200W        W 5719   3.356   0.143   4.299 -0.1692 -0.2130 -0.0831
 2201W        W 5720   8.989   0.098   4.166  0.0018  0.3396 -0.1602
 2202W        W 5721   8.549   0.898   9.454 -0.0504  0.3201  0.0030
 2203W        W 5722   9.124   2.468   9.386  0.0264  0.0824  0.1425
 2204W        W 5723   3.229   0.621   4.433  0.0552  0.0100  0.0788
 2205W        W 5724   5.466   6.505  11.345 -0.0585 -0.0588 -0.1153
 2206W        W 5725   7.246   8.461   0.703 -0.2766  0.2226  0.0293
 2207W        W 5726   5.100   9.104   4.622  0.3353 -0.0707 -0.2048
 2208W        W 5727   8.212   6.782   3.299  0.1655 -0.1721 -0.2897
 2209W        W 5728   7.191   7.970  10.932  0.1976 -0.4141  0.0315
 2210W        W 5729   4.026   6.462   0.471  0.1515  0.2417  0.1179
 2211W        W 5730   4.567   4.819   0.887 -0.0246  0.0088  0.0157
 2212W        W 5731   0.726   7.893   9.193 -0.1459  0.0679  0.1498
 2213W        W 5732   7.575   9.601   3.261  0.0091  0.0782 -0.0042
 2214W        W 5733   8.657   6.693   0.564 -0.1845 -0.1002  0.2225
 2215W        W 5734   7.272   0.693   1.059 -0.4479  0.0980  0.0439
 2216W        W 5735   5.294   1.027   9.298  0.2209  0.3012  0.3010
 2217W        W 5736   9.076   3.058   2.740 -0.1224  0.0217 -0.2001
 2218W        W 5737   4.660   8.888  11.545 -0.2366 -0.0853 -0.1532
 2219W        W 5738   0.842   1.882  11.051  0.1657  0.0435 -0.2589
 2220W        W 5739   0.275   8.972   1.305  0.4965 -0.0049 -0.1951
 2221W        W 5740   2.452   7.032  11.841 -0.0121 -0.2635  0.0344
 2222W        W 5741   7.048   1.280   0.094  0.1391  0.1441  0.2239
 2223W        W 5742   4.059   4.580   0.519 -0.0077 -0.1433 -0.4718
 2224W        W 5743   1.073   9.418   0.789  0.0791  0.1431 -0.0194
 2225W        W 5744   1.238   7.473  11.244 -0.1923 -0.0445  0.0840
 2226W        W 5745   7.340   7.156  10.142  0.1926 -0.2011 -0.1690
 2227W        W 5746   1.049   3.357  11.638  0.1543 -0.0880  0.0268
 2228W        W 5747   4.529   2.113   2.182  0.1893 -0.0349  0.2585
 2229W        W 5748   6.174   1.840   1.759  0.1694  0.0255 -0.1111
 2230W        W 5749   4.423   0.694   2.869 -0.0304  0.2935 -0.0799
 2231W        W 5750   8.672   0.190   0.895 -0.0010 -0.0049 -0.3317
 2232W        W 5751   2.842   2.930   9.664  0.3623 -0.4860  0.2944
 2233W        W 5752   2.650   8.485   0.684  0.0463 -0.2372  0.1368
 2234W        W 5753   9.638   1.639  10.663 -0.1364 -0.2215 -0.0526
 2235W        W 5754   9.082   8.185   9.533 -0.1301 -0.1798 -0.3203
 2236W        W 5755   1.645   3.877  10.737 -0.3457 -0.0542  0.4103
 2237W        W 5756   3.736   6.069   0.798 -0.2190  0.1603  0.1564
 2238W        W 5757   8.698   2.683   8.597 -0.1090 -0.2556  0.0509
 2239W        W 5758   8.355   5.871   1.115 -0.0560 -0.1960 -0.1359
 2240W        W 5759   2.400   2.839   2.190 -0.0909  0.2079 -0.0462
 2241W        W 5760   5.816   2.979   1.620  0.4194 -0.3511 -0.2396
 2242W        W 5761   4.432   5.956   9.573 -0.0169  0.0159 -0.1455
 2243W        W 5762   6.514   3.305  11.135  0.1335 -0.0981  0.1397
 2244W        W 5763   1.652   9.481   2.146 -0.3255 -0.0448  0.1217
 2245W        W 5764   8.676   7.505  11.295 -0.0223  0.3547  0.1381
 2246W        W 5765   1.965   6.109   8.126  0.0720 -0.2415  0.0286
 2247W        W 5766   2.667   3.792  10.349  0.2587  0.0836  0.0490
 2248W        W 5767   6.523   7.540   4.220  0.4992 -0.2484 -0.0314
 2249W        W 5768   0.541   7.947  10.668 -0.1138  0.1205  0.0029
 2250W        W 5769   1.272   4.551   9.808  0.2210  0.3143  0.4191
 2251W        W 5770   4.124   7.598   8.572  0.1226 -0.0542 -0.0014
 2252W        W 5771   5.263   3.938   9.897 -0.1251  0.0846  0.0901
 2253W        W 5772   2.791   7.049   3.188  0.0101 -0.0943 -0.2483
 2254W        W 5773   8.399   9.850  11.363  0.0047 -0.0700 -0.1249
 2255W        W 5774   4.883   8.297   9.377 -0.3148  0.0932  0.0574
 2256W        W 5775   6.364   5.247   2.795  0.0053  0.0837 -0.1656
 2257W        W 5776   3.427   4.225  10.277  0.1120  0.1280 -0.1814
 2258W        W 5777   7.098   8.865   0.989  0.1324  0.0763 -0.0127
 2259W        W 5778   7.177   2.533   2.167 -0.0033  0.0643  0.0125
 2260W        W 5779   1.231   7.563   9.857  0.1620  0.0022 -0.2378
 2261W        W 5780   6.673   1.735   1.684  0.0918 -0.1545 -0.0489
 2262W        W 5781   7.963   3.809   8.808  0.3184  0.1182 -0.1729
 2263W        W 5782   9.877   9.247   1.728 -0.1657 -0.2894 -0.4012
 2264W        W 5783   5.346   5.312   9.553 -0.1657 -0.0200  0.0418
 2265W        W 5784   4.938   9.057   9.353  0.2122 -0.2289 -0.0098
 2266W        W 5785   7.187   3.565   1.291  0.0483 -0.1651  0.2704
 2267W        W 5786   1.598   7.547  10.877  0.1174 -0.2233  0.2670
 2268W        W 5787   2.432   6.495  11.805 -0.0917  0.1730 -0.2546
 2269W        W 5788   4.374   5.910  11.647  0.0426 -0.1089 -0.3551
 2270W        W 5789   1.514   4.555  11.330  0.0057  0.1795  0.1506
 2271W        W 5790   5.782   7.059   4.710 -0.0449  0.0330  0.0787
 2272W        W 5791   6.445   3.105   1.361  0.1229 -0.0795  0.1817
 2273W        W 5792   1.380   9.029  11.907  0.0281 -0.1396  0.0071
 2274W        W 5793   7.838   8.685  11.721 -0.1970 -0.2448  0.2918
 2275W        W 5794   7.621   3.354  11.162 -0.1320 -0.0731 -0.1676
 2276W        W 5795   2.502   1.949   1.682 -0.0225 -0.2128  0.0295
 2277W        W 5796   5.993   2.360   1.693 -0.1407 -0.0465  0.0244
 2278W        W 5797   3.416   6.097   9.513 -0.5101  0.1879 -0.2376
 2279W        W 5798   7.313   7.153   4.339  0.2481  0.1046  0.1571
 2280W        W 5799   4.625   0.554   2.067  0.0407 -0.4972 -0.1070
 2281W        W 5800   9.174   3.075  11.406 -0.2813  0.1219 -0.3855
 2282W        W 5801   6.005   6.386   1.476 -0.0145  0.1026  0.0991
 2283W        W 5802   4.151   3.630   3.178 -0.0473 -0.1024 -0.1514
 2284W        W 5803   9.043   1.823   2.488 -0.0704  0.1803  0.0161
 2285W        W 5804   5.042   2.374   1.529 -0.0839 -0.0274 -0.1554
 2286W        W 5805   6.333   2.950   2.468 -0.2558 -0.2103  0.0349
 2287W        W 5806   8.360   9.273   0.706 -0.3778  0.1066 -0.1137
 2288W        W 5807   8.805   7.719   0.643  0.0889  0.0566 -0.2786
 2289W        W 5808   5.936   5.318   3.730  0.2135 -0.1192  0.0639
 2290W        W 5809   4.396   0.372   3.348 -0.1364 -0.1043  0.0679
 2291W        W 5810   9.080   3.536  12.033 -0.4407 -0.2636  0.0306
 2292W        W 5811   9.175   8.505   1.933 -0.0649 -0.3750 -0.0590
 2293W        W 5812   3.212   9.580  10.312 -0.0134 -0.2138  0.1034
 2294W        W 5813   0.729   3.232   9.363  0.1521  0.3748  0.0822
 2295W        W 5814   2.264   8.529   1.544 -0.2829  0.3529 -0.0234
 2296W        W 5815   0.783   7.597   2.706 -0.0537  0.0396  0.0544
 2297W        W 5816   5.688   1.868  10.146 -0.0720  0.1502 -0.1801
 2298W        W 5817   2.915   2.455  11.570  0.2492  0.0790 -0.0699
 2299W        W 5818   2.500   6.893   0.296  0.1858  0.1011  0.0853
 2300W        W 5819   4.104   7.835   0.169  0.1373 -0.1622  0.0951
 2301W        W 5820   1.837   4.196   9.455 -0.1936 -0.1707  0.1424
 2302W        W 5821   2.119   4.871   2.662  0.0796  0.1881  0.2245
 2303W        W 5822   8.580   3.669   2.818  0.0361  0.0705 -0.2908
 2304W        W 5823   5.355   7.556  10.130  0.0118 -0.0334  0.0763
 2305W        W 5824   8.238   1.485   2.714 -0.1888 -0.0683 -0.0062
 2306W        W 5825   9.085   6.428   2.112  0.1308  0.3670  0.1539
 2307W        W 5826   5.861   6.200   3.580  0.0904  0.0842  0.1685
 2308W        W 5827   1.923   7.334  10.379 -0.0130  0.2069  0.2323
 2309W        W 5828   2.335   6.601   1.434 -0.0313 -0.1647  0.2201
 2310W        W 5829   3.661   5.212   4.438  0.0518  0.0156  0.2410
 2311W        W 5830   5.097   4.225  11.061 -0.0650 -0.0378  0.3054
 2312W        W 5831   4.094   1.246   0.394  0.1529  0.0215  0.3945
 2313W        W 5832   0.393   2.486   1.807  0.0539 -0.1289 -0.2903
 2314W        W 5833   6.381   6.471   9.085 -0.1675  0.0763  0.1436
 2315W        W 5834   8.914   6.655   3.257  0.1835 -0.1963  0.1103
 2316W        W 5835   0.519   8.914   1.899 -0.1246  0.0922 -0.0105
 2317W        W 5836   3.979   2.304   8.448  0.0238  0.0621  0.1998
 2318W        W 5837   8.482   7.610   4.864 -0.0669  0.1962  0.2173
 2319W        W 5838   9.696   3.745   1.442  0.2092 -0.1531 -0.0693
 2320W        W 5839   3.376   9.167  10.529  0.3308 -0.0468  0.2108
 2321W        W 5840   9.844   7.063   2.962 -0.0811  0.0605  0.0219
 2322W        W 5841   2.627   0.848   3.578  0.1909  0.1126  0.1017
 2323W        W 5842   6.890   4.531   9.154  0.1994 -0.0128 -0.0819
 2324W        W 5843   3.696   8.774   4.908  0.2007  0.1021  0.1514
 2325W        W 5844   9.255   6.386   1.239  0.0058  0.1857 -0.1358
 2326W        W 5845   7.863   3.635  10.573 -0.0726  0.3811  0.0451
 2327W        W 5846   6.963   7.395   9.938  0.1101 -0.0021  0.4007
 2328W        W 5847   2.695   7.742   2.083  0.0903  0.1474 -0.3118
 2329W        W 5848   3.396   8.958   2.670 -0.1314 -0.1999 -0.1139
 2330W        W 5849   8.665   5.583   9.377 -0.1534 -0.0797  0.1413
 2331W        W 5850   3.436   1.861   3.682 -0.0839 -0.3457  0.1200
 2332W        W 5851   7.754   7.095  11.169 -0.0865  0.1529  0.0252
 2333W        W 5852   9.658   7.849   9.588 -0.1389 -0.2385  0.1415
 2334W        W 5853   0.663   8.384   0.407  0.0191 -0.1478 -0.0941
 2335W        W 5854   6.182   3.280   1.746  0.0609  0.3573 -0.2266
 2336W        W 5855   7.345   1.974   0.896 -0.1399  0.2327 -0.0733
 2337W        W 5856   8.441   5.671   2.685 -0.0884 -0.2713 -0.1222
 2338W        W 5857   7.545   7.286   3.872 -0.0044 -0.0079  0.0821
 2339W        W 5858   5.546   5.926  12.028 -0.1998 -0.1366 -0.0444
 2340W        W 5859   0.796   8.905  11.911 -0.1315  0.0555 -0.0522
 2341W        W 5860   3.246   1.809  11.294 -0.1756  0.0293  0.3043
 2342W        W 5861   2.429   7.484  10.457  0.2731  0.4618 -0.2438
 2343W        W 5862   7.035   3.568   9.926 -0.1216  0.1841  0.1517
 2344W        W 5863   4.218   5.899   8.265 -0.0843  0.2119  0.0652
 2345W        W 5864   3.775   2.972   0.031  0.3221 -0.0870  0.2240
 2346W        W 5865   8.993   9.236   0.035 -0.1615 -0.1205 -0.0533
 2347W        W 5866   5.299   1.425  11.034  0.0017 -0.0542  0.0493
 2348W        W 5867   1.075   1.352  10.366  0.3393  0.0352  0.1868
 2349W        W 5868   8.339   7.552   8.022  0.0153  0.0996  0.0677
 2350W        W 5869   6.976   9.442  10.865 -0.2486 -0.4686  0.0023
 2351W        W 5870   4.156   9.858   3.188  0.2495 -0.0202 -0.2193
 2352W        W 5871   5.832   4.309   0.640  0.0667 -0.1760 -0.1960
 2353W        W 5872   3.155   2.868  10.494  0.1501 -0.0484 -0.0594
 2354W        W 5873   5.564   1.053   2.409 -0.0911 -0.2904 -0.0684
 2355W        W 5874   9.365   6.151   0.598 -0.1999 -0.0195  0.0732
 2356W        W 5875   3.533   2.287   3.284  0.0031  0.1737 -0.0504
 2357W        W 5876   8.090   3.431   1.521 -0.0454 -0.1420  0.0284
 2358W        W 5877   6.914   9.016  10.184 -0.3513  0.2424  0.1886
 2359W        W 5878   0.202   9.343  10.432  0.1588  0.4426 -0.0245
 2360W        W 5879   2.256   8.238  11.442 -0.0714 -0.2187 -0.3340
 2361W        W 5880   8.107   1.108   1.621 -0.2371  0.1709  0.1090
 2362W        W 5881   5.759   2.992   3.129  0.1100  0.1712 -0.0031
 2363W        W 5882   2.039   3.636   4.290  0.2132 -0.3399  0.2539
 2364W        W 5883   5.324   0.873   3.196 -0.1319 -0.0873 -0.1659
 2365W        W 5884   5.385   0.724   9.730  0.1306  0.3272  0.3639
 2366W        W 5885   9.207   2.960   1.039  0.2239 -0.0353  0.0065
 2367W        W 5886   5.101   0.702   2.350 -0.0417 -0.2591  0.2649
 2368W        W 5887   8.502   2.315   3.265  0.1079  0.1754  0.0959
 2369W        W 5888   4.110   5.588   0.863 -0.1438  0.1931  0.1893
 2370W        W 5889   1.421   7.371   3.916  0.1263 -0.0288  0.1153
 2371W        W 5890   9.485   1.954   6.120  0.3687  0.2940  0.0589
 2372W        W 5891   1.501   6.784   3.967  0.0354 -0.0246  0.1790
 2373W        W 5892   4.474   7.934   8.732 -0.1584  0.3013  0.0351
 2374W        W 5893   0.430   8.826   0.143  0.3402  0.1757 -0.0499
 2375W        W 5894   2.740   1.608   3.708  0.2267  0.0790 -0.0270
 2376W        W 5895   2.662   3.373   1.398 -0.2394  0.1549 -0.0321
 2377W        W 5896   5.690   3.495   1.636  0.3056 -0.4698 -0.0096
 2378W        W 5897   5.858   8.669   9.608 -0.0558  0.0505  0.1074
 2379W        W 5898   9.381   4.433  11.963  0.0901 -0.3371 -0.1246
 2380W        W 5899   2.901   0.786   9.679 -0.2304  0.0198 -0.0014
 2381W        W 5900   3.206   6.755   3.418  0.0815 -0.1939 -0.2549
 2382W        W 5901   9.611   9.546  10.350  0.1363  0.5014 -0.1216
 2383W        W 5902   2.205   1.347  11.899  0.0918  0.1344 -0.2678
 2384W        W 5903   0.239   2.479  11.050 -0.0108 -0.1643  0.2099
 2385W        W 5904   9.299   4.987   3.860 -0.3165  0.1247  0.0439
 2386W        W 5905   0.440   0.625  10.029 -0.0788 -0.1124  0.0095
 2387W        W 5906   4.466   4.812   2.019  0.0506  0.2653 -0.0241
 2388W        W 5907   9.833   2.250   9.909  0.0774 -0.1623 -0.0658
 2389W        W 5908   4.093   5.429   9.467 -0.0810 -0.0720  0.3761
 2390W        W 5909   3.743   6.420   3.921  0.0093 -0.0332  0.1823
 2391W        W 5910   2.119   2.371   1.547 -0.0975  0.0890  0.2822
 2392W        W 5911   7.471   3.516   0.233  0.1928  0.3191  0.0879
 2393W        W 5912   8.509   0.097   8.872  0.0146 -0.0651 -0.0869
 2394W        W 5913   0.284   7.560   0.880 -0.1614 -0.3562 -0.0238
 2395W        W 5914   0.858   8.178   2.744  0.0450  0.1801 -0.1932
 2396W        W 5915   1.716   6.169   9.243  0.1122  0.0604 -0.0472
 2397W        W 5916   2.301   5.653   4.584  0.1078 -0.4680 -0.0013
 2398W        W 5917   2.786   2.058   9.436  0.2067  0.0756 -0.2652
 2399W        W 5918   9.305   2.151   0.551 -0.1316  0.0133  0.2844
 2400W        W 5919   5.279   8.088   7.787  0.3636  0.2160 -0.2199
 2401W        W 5920   1.962   3.670  11.284 -0.0214  0.4618 -0.0155
 2402W        W 5921   3.294   3.154   2.207 -0.0255  0.1785 -0.0458
 2403W        W 5922   4.963   0.782  11.414  0.1003 -0.0079  0.1733
 2404W        W 5923   5.064   7.993   1.182 -0.1485 -0.2437  0.0415
 2405W        W 5924   2.935   4.860   0.839 -0.1369  0.1270 -0.0530
 2406W        W 5925   0.774   2.162   1.817 -0.0288 -0.2471 -0.4692
 2407W        W 5926   5.532   2.028   2.881 -0.0524 -0.1991 -0.2017
 2408W        W 5927   5.489   4.375  10.047 -0.0704 -0.3547  0.1408
 2409W        W 5928   9.544   5.438   2.371  0.0348  0.1059 -0.1677
 2410W        W 5929   0.383   4.639   4.937  0.1383  0.0719  0.0313
 2411W        W 5930   5.849   5.094   1.442  0.2048  0.1515 -0.3745
 2412W        W 5931   5.404   9.672   8.705 -0.1015 -0.3265  0.0918
 2413W        W 5932   7.633   1.184   3.237 -0.2234  0.0624  0.2637
 2414W        W 5933   9.217   1.140   0.392 -0.2037  0.1991  0.1468
 2415W        W 5934   7.467   5.696   3.765 -0.1230 -0.2402 -0.0176
 2416W        W 5935   2.002   8.962  11.396 -0.1277  0.4119 -0.0323
 2417W        W 5936   9.649   0.937   0.289 -0.1893 -0.1110  0.0894
 2418W        W 5937   4.065   1.698   0.662 -0.0662 -0.1271 -0.1563
 2419W        W 5938   5.528   4.524   0.245  0.0328  0.0282 -0.4312
 2420W        W 5939   5.836   4.213   4.539  0.0351  0.2463 -0.2190
 2421W        W 5940   2.777   9.737  10.350  0.0645  0.2213  0.1169
 2422W        W 5941   8.056   1.585   9.392 -0.2351  0.0958 -0.1383
 2423W        W 5942   0.370   2.174   0.166  0.1560 -0.1760  0.2759
 2424W        W 5943   8.663   0.809   1.712  0.3061  0.1414  0.1159
 2425W        W 5944   4.935   4.290  10.496 -0.0938  0.0251  0.1244
 2426W        W 5945   1.333   5.616   8.685  0.0669  0.0398  0.0172
 2427W        W 5946   5.607   0.977  10.889 -0.1831 -0.3848 -0.2717
 2428W        W 5947   2.320   6.710   0.834 -0.2447  0.0946 -0.0381
 2429W        W 5948   5.494   5.668   5.038  0.2400  0.2958  0.1736
 2430W        W 5949   7.495   6.185   1.171  0.1679 -0.0753 -0.0874
 2431W        W 5950   8.224   5.236  11.260  0.3370 -0.1649 -0.0305
 2432W        W 5951   4.623   0.967   2.401  0.0789  0.2337  0.2966
 2433W        W 5952   0.069   3.206   3.242 -0.1239 -0.1276  0.1941
 2434W        W 5953   9.709   6.798   0.117 -0.0415 -0.2436 -0.0021
 2435W        W 5954   7.619   1.487  11.948  0.0890 -0.1704 -0.0021
 2436W        W 5955   8.339   3.002  10.877 -0.1101 -0.1247  0.0367
 2437W        W 5956   7.072   8.018   9.003  0.1773  0.0590 -0.1503
 2438W        W 5957   7.859   1.491   0.346 -0.1327 -0.0690 -0.0387
 2439W        W 5958   3.070   2.492   9.920  0.1430 -0.2024 -0.0694
 2440W        W 5959   6.753   3.801   0.164 -0.2093  0.2076  0.0145
 2441W        W 5960   5.048   4.992   2.655 -0.0114  0.0873 -0.0044
 2442W        W 5961   0.294   9.173  11.537  0.2646 -0.1881  0.0049
 2443W        W 5962   9.591   5.461   9.968  0.3971 -0.4297  0.2527
 2444W        W 5963   5.711   5.965   2.566 -0.0292 -0.0087 -0.2103
 2445W        W 5964   0.746   7.151  11.016  0.0109  0.0443  0.0760
 2446W        W 5965   5.331   2.874   2.876  0.1565  0.2211  0.0506
 2447W        W 5966   5.830   4.822   3.814 -0.1335 -0.0892 -0.0970
 2448W        W 5967   1.050   8.697   4.098 -0.3063 -0.0522  0.2731
 2449W        W 5968   9.780   0.877  11.431 -0.1581 -0.0593  0.0198
 2450W        W 5969   1.443   1.878   2.287 -0.1888 -0.0606  0.2157
 2451W        W 5970   1.922   9.114   4.501 -0.0372 -0.3583  0.2465
 2452W        W 5971   4.842   4.904   9.640 -0.0071  0.2377  0.1670
 2453W        W 5972   3.228   3.018  10.054 -0.0942 -0.0850  0.0812
 2454W        W 5973   9.270   3.130   8.977 -0.2318 -0.2979 -0.1864
 2455W        W 5974   1.786   5.461   9.600  0.1577 -0.1959  0.0700
 2456W        W 5975   8.824   1.114  10.271 -0.0040 -0.2177 -0.1637
 2457W        W 5976   1.666   8.197   0.401 -0.1309 -0.0128 -0.3556
 2458W        W 5977   5.336   9.071  11.972 -0.0052 -0.0394 -0.1728
 2459W        W 5978   7.368   5.081   3.683  0.0565 -0.1878  0.0795
 2460W        W 5979   7.712   0.873   4.373 -0.0528 -0.1184 -0.0291
 2461W        W 5980   5.302   8.855   1.863 -0.0018 -0.3112 -0.3462
 2462W        W 5981   9.837   7.089  10.584 -0.0404  0.2793  0.0893
 2463W        W 5982   8.540   8.291   2.886  0.1169  0.0349 -0.0420
 2464W        W 5983   7.887   3.091   9.258 -0.2032  0.0306 -0.2442
 2465W        W 5984   7.210   1.355   2.606  0.2366 -0.0989  0.1118
 2466W        W 5985   2.704   7.804   4.120 -0.2442 -0.1092 -0.0329
 2467W        W 5986   0.430   1.165   3.650  0.1052  0.1160 -0.0753
 2468W        W 5987   7.129   5.435   0.554  0.1053  0.0314 -0.1162
 2469W        W 5988   6.693   0.527   8.824 -0.1197  0.0626 -0.1456
 2470W        W 5989   8.902   7.033   0.155 -0.0251  0.1282 -0.0866
 2471W        W 5990   8.416   1.280   8.660  0.1328 -0.0708  0.0981
 2472W        W 5991   1.131   9.061   2.669  0.1456  0.1032  0.2418
 2473W        W 5992   9.857   8.501  10.151 -0.0014  0.0799  0.0519
 2474W        W 5993   4.389   1.525   9.394 -0.1959 -0.1454 -0.3135
 2475W        W 5994   9.022   8.990  10.147 -0.1290 -0.4311 -0.0399
 2476W        W 5995   3.647   4.350   1.119 -0.1125  0.1666 -0.1892
 2477W        W 5996   3.221   5.235   2.703 -0.0419 -0.0922 -0.1315
 2478W        W 5997   4.006   5.746  11.955  0.2549  0.1564  0.0790
 2479W        W 5998   7.174   5.827   1.894 -0.2909  0.0133 -0.1415
 2480W        W 5999   0.840   5.471   8.847  0.1696 -0.1347 -0.2022
 2481W        W 6000   1.262   7.861   9.379 -0.0642  0.3673  0.5567
 2482W        W 6001   2.820   7.550   0.916 -0.0208  0.0256  0.0055
 2483W        W 6002   3.428   1.374  11.457 -0.1799 -0.1343 -0.0883
 2484W        W 6003   7.156   2.406  10.993 -0.1469  0.0670  0.2417
 2485W        W 6004   1.981   8.577   4.401 -0.2000 -0.3752  0.0489
 2486W        W 6005   4.754   5.401   2.837 -0.0034 -0.3501  0.1182
 2487W        W 6006   1.549   7.674   8.945  0.0448  0.1272 -0.2145
 2488W        W 6007   9.161   2.486   1.025 -0.1527  0.1982  0.1166
 2489W        W 6008   9.390   4.703  10.582  0.2320  0.2886 -0.2392
 2490W        W 6009   1.159   0.021   0.922  0.1753 -0.1332  0.1084
 2491W        W 6010   3.248   8.294   0.401 -0.1032  0.1129  0.1605
 2492W        W 6011   0.880   3.700   9.543  0.1576 -0.0646 -0.0403
 2493W        W 6012   1.075   8.095   4.716  0.2889  0.1895 -0.0750
 2494W        W 6013   8.002   8.577   0.050  0.3070 -0.1854  0.0814
 2495W        W 6014   2.608   2.499   0.382  0.2661  0.3479  0.1905
 2496W        W 6015   4.579   2.817   7.864 -0.1681  0.3279  0.1502
 2497W        W 6016   6.335   5.789   3.366 -0.2675 -0.3269  0.0326
 2498W        W 6017   6.110   3.404   2.326 -0.6344  0.1690 -0.0955
 2499W        W 6018   7.252   8.616   8.851 -0.3096 -0.0227  0.1074
 2500W        W 6019   2.733   3.748   0.249 -0.0907 -0.0414  0.3814
 2501W        W 6020   7.778   5.316   9.979  0.0366  0.1747  0.1292
 2502W        W 6021   0.769   7.549   1.650 -0.2894 -0.2735  0.0340
 2503W        W 6022   4.914   1.176  10.458 -0.3142 -0.0292 -0.2144
 2504W        W 6023   7.040   6.081   2.860  0.0215 -0.2085 -0.0926
 2505W        W 6024   0.564   3.774   0.689  0.1007 -0.2931  0.2241
 2506W        W 6025   7.249   2.705   2.954  0.0948  0.2657  0.0119
 2507W        W 6026   9.287   0.098   3.762  0.0010  0.1254  0.0434
 2508W        W 6027   0.258   1.914  11.275 -0.1343 -0.0618  0.1033
 2509W        W 6028   8.398   8.729   2.617  0.1801  0.0018  0.0757
 2510W        W 6029   9.178   7.423  11.207 -0.4698  0.0964  0.2017
 2511W        W 6030   3.208   3.411   9.128  0.0254 -0.2816 -0.1561
 2512W        W 6031   5.874   6.648   2.423  0.2904 -0.0387 -0.0331
 2513W        W 6032   0.822   0.061   9.475 -0.0846  0.0357  0.2435
 2514W        W 6033   8.114   5.740   0.322 -0.0936 -0.0878  0.2474
 2515W        W 6034   9.877   1.137   9.406  0.1790  0.2174  0.1027
 2516W        W 6035   3.733   8.610   8.849  0.0952 -0.0410 -0.0351
 2517W        W 6036   1.851   7.036   3.339 -0.1312  0.0010  0.2316
 2518W        W 6037   7.616   4.305   1.252  0.0563 -0.0044 -0.1703
 2519W        W 6038   9.685   6.380   4.707 -0.0208  0.2158  0.2844
 2520W        W 6039   0.817   6.964   1.111 -0.0106  0.1562  0.0454
 2521W        W 6040   6.367   1.164  10.477 -0.1127  0.0857  0.1313
 2522W        W 6041   2.397   4.872   3.673  0.0637  0.0149 -0.3052
 2523W        W 6042   5.884   2.672   0.541  0.1609  0.0373 -0.1645
 2524W        W 6043   1.176   5.131   3.960  0.0663  0.3971 -0.1848
 2525W        W 6044   0.255   3.847  10.641  0.0863 -0.0716  0.2088
 2526W        W 6045   6.840   4.245   3.704 -0.0778  0.4223 -0.1650
 2527W        W 6046   6.645   7.166   3.406  0.0185 -0.0556  0.1788
 2528W        W 6047   0.327   0.477   0.889  0.1452  0.0892 -0.0619
 2529W        W 6048   3.010   7.008  10.918 -0.0631  0.1461  0.1737
 2530W        W 6049   9.471   7.414   9.520 -0.1000  0.3038  0.1790
 2531W        W 6050   8.769   8.895   3.554 -0.0186 -0.0351  0.4441
 2532W        W 6051   0.479   7.584  10.368  0.2053  0.2927  0.3111
 2533W        W 6052   1.654   3.393   2.508  0.1115 -0.1397 -0.0350
 2534W        W 6053   0.366   7.562   4.447 -0.0989  0.1242  0.2008
 2535W        W 6054   0.391   4.135   2.109 -0.0965  0.1295 -0.0576
 2536W        W 6055   5.065   4.396   4.030  0.1110 -0.0859 -0.3120
 2537W        W 6056   7.482   1.560   1.213  0.3475 -0.1644  0.0732
 2538W        W 6057   2.658   2.128   3.026  0.1450  0.1383 -0.2586
 2539W        W 6058   3.400   0.277   9.742  0.1246  0.1568 -0.4607
 2540W        W 6059   2.186   2.334  12.000 -0.0922  0.2669  0.0995
 2541W        W 6060   0.629   6.567   0.030  0.0202 -0.0571  0.1345
 2542W        W 6061   7.694   9.480   2.782 -0.1750 -0.3167  0.0769
 2543W        W 6062   3.012   5.738  11.566 -0.0475 -0.1529  0.0621
 2544W        W 6063   6.912   1.712  11.427  0.1953  0.0478  0.1836
 2545W        W 6064   3.824   2.218   0.837  0.0511  0.1380  0.1997
 2546W        W 6065   6.115   7.259  11.447  0.1908  0.4733 -0.1258
 2547W        W 6066   4.668   1.654   3.174 -0.1030 -0.4083  0.3164
 2548W        W 6067   3.192   5.784   3.885 -0.0165 -0.1730  0.0990
 2549W        W 6068   7.242   0.574   1.539  0.3678 -0.2369 -0.0833
 2550W        W 6069   2.079   4.241  12.107  0.2018  0.0267  0.1643
 2551W        W 6070   5.793   8.204   1.211  0.0279  0.1294  0.2509
 2552W        W 6071   2.264   1.760   0.690  0.1896  0.1416  0.0246
 2553W        W 6072   1.575   9.041   1.918  0.3005 -0.0478  0.0950
 2554W        W 6073   2.536   6.860  11.010 -0.0505  0.1790  0.2469
 2555W        W 6074   6.118   4.005   9.384  0.0902  0.0407  0.1833
 2556W        W 6075   8.589   6.795   3.941 -0.0973 -0.0060 -0.2280
 2557W        W 6076   8.012   7.755  11.462  0.1977  0.2238  0.1005
 2558W        W 6077   3.179   6.504   9.999  0.0543  0.0834  0.0721
 2559W        W 6078   8.809   1.851  11.495  0.3905  0.0635 -0.3918
 2560W        W 6079   5.190   8.815   4.242 -0.2044 -0.2064 -0.0227
 2561W        W 6080   3.440   3.141  10.929 -0.0977 -0.2058 -0.1852
 2562W        W 6081   1.773   1.981  10.215 -0.0907  0.3414 -0.5666
 2563W        W 6082   4.921   4.565  10.098 -0.0600 -0.0513 -0.3367
 2564W        W 6083   1.356   6.992   3.488  0.4278  0.1974  0.2128
 2565W        W 6084   9.094   0.479  10.060 -0.0729  0.0995  0.0101
 2566W        W 6085   9.553   3.206   0.702  0.1181  0.2431  0.1528
 2567W        W 6086   1.913   6.265  10.754  0.0546 -0.2682 -0.2905
 2568W        W 6087   0.678   4.431   9.111  0.0821 -0.1118 -0.0458
 2569W        W 6088   8.092   0.299  11.603 -0.1106 -0.1331  0.1949
 2570W        W 6089   0.958   9.376   9.375  0.1305  0.1111  0.1767
 2571W        W 6090   6.488   7.302   1.978  0.0590  0.2055 -0.3228
 2572W        W 6091   7.867   2.201   2.991  0.1045  0.2051  0.1598
 2573W        W 6092   3.832   2.239  11.508  0.0911  0.0548 -0.2161
 2574W        W 6093   6.068   6.767  11.788 -0.0489 -0.1727  0.0317
 2575W        W 6094   9.711   6.642   9.413 -0.1843 -0.0495  0.1773
 2576W        W 6095   6.477   8.803  10.155  0.1304  0.1131 -0.1111
 2577W        W 6096   4.759   3.345  10.341  0.0134 -0.5028  0.0413
 2578W        W 6097   3.650   5.340   9.203 -0.1214 -0.0621  0.2410
 2579W        W 6098   9.748   3.760  11.578  0.1659 -0.0652 -0.2387
 2580W        W 6099   8.442   1.378  11.594  0.2153  0.0051 -0.0695
 2581W        W 6100   3.754   1.504   3.351 -0.1101  0.1601 -0.0555
 2582W        W 6101   3.234   8.483   1.684 -0.0411 -0.2946 -0.0951
 2583W        W 6102   1.534   0.838  12.047 -0.1715  0.0462 -0.0103
 2584W        W 6103   2.853   9.457   3.684 -0.0477 -0.0457 -0.2244
 2585W        W 6104   6.607   4.624   4.888  0.1659  0.3857  0.0146
 2586W        W 6105   8.437   3.355   1.110  0.1331  0.0747  0.1235
 2587W        W 6106   3.795   4.546   3.735  0.2062 -0.2188  0.1407
 2588W        W 6107   3.896   9.863   4.265  0.1778 -0.1408  0.1037
 2589W        W 6108   2.875   9.045   2.648  0.2091  0.4767 -0.3817
 2590W        W 6109   5.720   7.808   1.479 -0.0455 -0.1253 -0.0578
 2591W        W 6110   5.053   7.045  11.403  0.1105 -0.0907 -0.0490
 2592W        W 6111   8.098   1.148   3.588  0.2359  0.0196  0.1266
 2593W        W 6112   2.027   3.855   1.968 -0.3679 -0.0558  0.0319
 2594W        W 6113   7.791   3.766   2.633  0.2242 -0.2324  0.1705
 2595W        W 6114   5.960   7.428   9.338  0.1761 -0.3444  0.2535
 2596W        W 6115   0.600   9.611   9.828 -0.1591 -0.0537  0.1608
 2597W        W 6116   8.803   5.148   0.336  0.0513 -0.2226  0.0096
 2598W        W 6117   9.364   4.216   0.532 -0.1864  0.0045 -0.0027
 2599W        W 6118   6.555   1.606   9.181  0.2130 -0.2467 -0.0418
 2600W        W 6119   1.339   1.823   9.777 -0.1985 -0.0677  0.0720
 2601W        W 6120   7.530   7.360   9.128  0.1061 -0.3027  0.0458
 2602W        W 6121   1.216   4.760   3.217  0.0664  0.1649 -0.2719
 2603W        W 6122   1.323   3.468   3.509 -0.0224  0.0074 -0.1815
 2604W        W 6123   5.232   7.172   0.808  0.0157 -0.2320  0.0655
 2605W        W 6124   1.758   4.511   0.322  0.1789  0.2110  0.1505
 2606W        W 6125   6.557   6.112   1.002 -0.0570 -0.2862 -0.0307
 2607W        W 6126   0.325   3.022   2.053 -0.0783 -0.2573  0.1361
 2608W        W 6127   8.783   7.769   9.610 -0.3760  0.0656 -0.0839
 2609W        W 6128   5.131   0.695   4.152 -0.2976  0.2116 -0.1607
 2610W        W 6129   7.374   8.507   2.224 -0.2313 -0.3854 -0.2225
 2611W        W 6130   7.953   7.010   3.863 -0.2322 -0.0575  0.1941
 2612W        W 6131   8.196   3.362   2.887 -0.0401  0.0723 -0.0123
 2613W        W 6132   0.440   9.376   3.459 -0.4755  0.1910 -0.1710
 2614W        W 6133   0.671   0.159   9.970  0.0444 -0.3049 -0.0171
 2615W        W 6134   2.463   5.132   1.266  0.3554 -0.2000 -0.1663
 2616W        W 6135   1.958   6.256   1.359  0.0243  0.3098  0.1437
 2617W        W 6136   5.332   1.973   9.828 -0.2878  0.0673 -0.1206
 2618W        W 6137   1.788   1.500   3.123  0.1557 -0.0629  0.0241
 2619W        W 6138   8.142   8.371  11.380  0.0933 -0.1686  0.0365
 2620W        W 6139   3.921   0.693   2.685  0.0708 -0.0789  0.0783
 2621W        W 6140   0.419   4.629   2.108 -0.0466 -0.0406 -0.3113
 2622W        W 6141   7.457   2.219   0.476 -0.0619  0.0523 -0.2562
 2623W        W 6142   2.272   3.046  11.190  0.2025  0.1255 -0.2973
 2624W        W 6143   1.881   7.541   1.735 -0.0242 -0.0223 -0.2955
 2625W        W 6144   3.789   2.744   2.709 -0.1525 -0.1473  0.1602
 2626W        W 6145   3.297   7.761   2.668 -0.2458 -0.1506 -0.1219
 2627W        W 6146   8.334   0.216  10.649  0.1408  0.1100 -0.1295
 2628W        W 6147   2.044   1.511   0.267  0.1309 -0.1293  0.1812
 2629W        W 6148   8.904   1.823   8.351 -0.2051  0.0004  0.1848
 2630W        W 6149   3.261   8.696   4.393  0.0513  0.2916  0.0392
 2631W        W 6150   1.542   0.693  11.557 -0.0295  0.0840  0.2023
 2632W        W 6151   3.348   7.203   2.583 -0.1095  0.0976 -0.1135
 2633W        W 6152   9.269   4.273  11.038 -0.1443  0.2381  0.3558
 2634W        W 6153   6.978   4.462  11.309  0.0614 -0.0768  0.2803
 2635W        W 6154   4.971   8.175  10.823  0.3834  0.0409 -0.0062
 2636W        W 6155   3.826   1.134  12.117 -0.0298 -0.0683  0.1900
 2637W        W 6156   4.382   8.049   4.717  0.0285  0.2593 -0.0869
 2638W        W 6157   7.866   9.233  11.142  0.1034  0.1575  0.2566
 2639W        W 6158   9.826   3.925   0.326  0.0663 -0.0551 -0.1114
 2640W        W 6159   2.817   3.391   9.993 -0.1611 -0.2430 -0.1630
 2641W        W 6160   6.772   8.464   0.921 -0.1868 -0.1763  0.0460
 2642W        W 6161   4.684   3.822  11.170 -0.0349 -0.0449 -0.1068
 2643W        W 6162   9.647   9.170  11.529 -0.0746  0.1786  0.2276
 2644W        W 6163   4.473   8.275   0.387 -0.0679  0.1585  0.1069
 2645W        W 6164   9.144   7.658   3.668  0.2187  0.4645 -0.0151
 2646W        W 6165   0.776   3.299  10.884 -0.2272  0.3354 -0.1634
 2647W        W 6166   1.721   2.560   8.831 -0.1953  0.0030  0.0518
 2648W        W 6167   3.983   9.446  11.878 -0.2544 -0.0239 -0.1378
 2649W        W 6168   9.099   4.653   9.319 -0.1447 -0.0536  0.2496
 2650W        W 6169   4.283   1.946   1.381  0.5377  0.4578 -0.0516
 2651W        W 6170   3.674   9.744   2.400  0.0432  0.0468 -0.1080
 2652W        W 6171   2.918   2.964   1.495  0.0362 -0.0351 -0.2837
 2653W        W 6172   6.026   4.115   3.156 -0.1259 -0.0035  0.2147
 2654W        W 6173   5.285   5.607   4.134  0.0765  0.0824 -0.0002
 2655W        W 6174   3.767   9.353  10.249  0.0540 -0.2361  0.1952
 2656W        W 6175   8.842   4.998   0.851  0.0636  0.2801 -0.0111
 2657W        W 6176   9.724   7.981   2.336  0.1917 -0.1374 -0.3218
 2658W        W 6177   7.314   1.549   2.147 -0.0018 -0.0358 -0.1256
 2659W        W 6178   4.593   5.780  11.233 -0.0638  0.0575 -0.1559
 2660W        W 6179   3.347   6.288   8.900 -0.2096  0.0289 -0.0864
 2661W        W 6180   5.590   8.934   0.407  0.1367  0.1464 -0.0514
 2662W        W 6181   3.644   5.511   0.077 -0.3631 -0.2469  0.0290
 2663W        W 6182   0.724   1.663  10.604  0.1877 -0.2774 -0.1346
 2664W        W 6183   4.482   0.061  11.120  0.2759  0.0756 -0.1002
 2665W        W 6184   6.203   1.192   3.428  0.1018  0.0595  0.2535
 2666W        W 6185   3.530   1.887   9.132  0.1862  0.2184  0.2061
 2667W        W 6186   2.401   3.475  12.104 -0.2504 -0.0623 -0.2713
 2668W        W 6187   6.791   2.787   0.596  0.0538 -0.0381 -0.0541
 2669W        W 6188   3.243   4.699  11.193 -0.1627  0.0054  0.1054
 2670W        W 6189   4.952   9.764  12.012  0.2113  0.2933  0.0828
 2671W        W 6190   1.335   5.304   3.522 -0.1359 -0.0350  0.4259
 2672W        W 6191   9.741   5.637   2.872  0.1277  0.0409 -0.3004
 2673W        W 6192   8.139   4.200  10.310  0.1512  0.1367  0.0810
 2674W        W 6193   5.670   4.280   4.050  0.1086  0.0186  0.0008
 2675W        W 6194   4.829   6.366  10.172 -0.1233  0.1860 -0.2987
 2676W        W 6195   4.644   8.840  10.181  0.1313 -0.1071  0.0970
 2677W        W 6196   6.046   6.097  10.680  0.3372 -0.1629  0.3827
 2678W        W 6197   4.942   4.900   1.900  0.1289 -0.0585 -0.0745
 2679W        W 6198   9.203   9.033   3.227  0.0106 -0.0926  0.1494
 2680W        W 6199   5.244   9.257   4.099 -0.1966 -0.4200 -0.2547
 2681W        W 6200   3.306   0.277   0.487  0.0622  0.0344 -0.0109
 2682W        W 6201   6.763   6.209  11.384 -0.0349 -0.0267 -0.1759
 2683W        W 6202   3.108   5.150  10.375 -0.0205  0.4845  0.2656
 2684W        W 6203   1.104   5.652   1.663  0.1170  0.0879  0.0103
 2685W        W 6204   3.587   9.726  11.387 -0.3518 -0.0074 -0.4625
 2686W        W 6205   7.731   0.265   3.619 -0.3411  0.2836  0.0658
 2687W        W 6206   1.445   3.689   0.673  0.0946 -0.2086  0.2275
 2688W        W 6207   1.973   1.857  11.061 -0.1507  0.1762  0.1251
 2689W        W 6208   1.179   3.642   2.413  0.1599  0.0326  0.2552
 2690W        W 6209   2.022   8.591   0.139 -0.0359  0.1416  0.1317
 2691W        W 6210   8.508   4.078   9.928 -0.0107  0.1225  0.1176
 2692W        W 6211   2.151   9.066   0.244  0.1110  0.0856  0.0482
 2693W        W 6212   1.365   2.227   2.644  0.0705 -0.1579 -0.1151
 2694W        W 6213   1.677   6.471   0.208 -0.0983 -0.0383  0.2401
 2695W        W 6214   0.689   6.078  12.104  0.0987 -0.0136 -0.2299
 2696W        W 6215   2.687   7.919   1.369 -0.2023  0.0223 -0.0046
 2697W        W 6216   6.780   8.920   9.611  0.0617 -0.0331  0.0282
 2698W        W 6217   0.459   0.970  11.635 -0.1521  0.0721  0.1467
 2699W        W 6218   2.954   0.737   1.432  0.1235  0.1962  0.2352
 2700W        W 6219   9.426   4.842   0.357 -0.1040 -0.1189  0.0876
 2701W        W 6220   4.633   6.295  11.467 -0.1410 -0.0686 -0.1773
 2702W        W 6221   4.037   4.831  11.454 -0.1989 -0.0039 -0.1122
 2703W        W 6222   5.492   7.640   1.067  0.0675 -0.3822  0.0340
 2704W        W 6223   3.222   5.726   8.203  0.0381  0.2641  0.0145
 2705W        W 6224   1.113   8.735  11.177 -0.0282 -0.0701 -0.2110
 2706W        W 6225   1.301   9.820  12.097  0.1172 -0.0951  0.0933
 2707W        W 6226   7.834   1.935   0.675  0.3264 -0.1765 -0.2116
 2708W        W 6227   3.635   0.254   3.886  0.5367  0.0363  0.0038
 2709W        W 6228   2.445   9.130   2.778  0.0821 -0.3943 -0.0601
 2710W        W 6229   5.745   4.479  10.625  0.3414 -0.0729 -0.1264
 2711W        W 6230   9.315   5.936   8.913 -0.0609  0.0026  0.1364
 2712W        W 6231   0.337   6.692   8.244 -0.2178 -0.2987  0.2578
 2713W        W 6232   4.054   0.857  10.948 -0.1444 -0.1903  0.2650
 2714W        W 6233   2.968   9.565   3.201 -0.0743 -0.0710  0.1285
 2715W        W 6234   0.365   1.805   3.166 -0.2598  0.0838  0.0640
 2716W        W 6235   0.691   9.313   0.342 -0.2733 -0.0663 -0.1148
 2717W        W 6236   9.256   1.360   2.252 -0.2251 -0.4502 -0.0909
 2718W        W 6237   8.688   0.374   7.912 -0.0936  0.0204 -0.0800
 2719W        W 6238   7.674   6.400   9.171  0.0004  0.2884  0.1945
 2720W        W 6239   4.811   8.621   0.304 -0.0166  0.2435 -0.0562
 2721W        W 6240   7.266   1.277  10.373 -0.4187 -0.0489 -0.0450
 2722W        W 6241   3.823   0.349   0.440  0.0707  0.0406  0.1386
 2723W        W 6242   6.373   9.356   8.842  0.2141  0.0877  0.0934
 2724W        W 6243   2.744   5.388   9.655 -0.0300  0.0435 -0.1234
 2725W        W 6244   1.314   2.605   3.483 -0.1037 -0.3202  0.1205
 2726W        W 6245   6.887   6.260   0.523 -0.1154 -0.0277 -0.1176
 2727W        W 6246   1.585   5.395   5.253  0.1926 -0.0809 -0.0126
 2728W        W 6247   8.290   7.342   3.023  0.0053  0.0271 -0.0918
 2729W        W 6248   8.700   3.189   3.045  0.1353  0.1011 -0.2411
 2730W        W 6249   5.135   9.782   1.911  0.1908 -0.4603  0.0576
 2731W        W 6250   8.094   9.812   9.678 -0.3829  0.2668 -0.0009
 2732W        W 6251   2.251   8.672  10.301  0.1170 -0.0894 -0.0562
 2733W        W 6252   6.676   4.101  11.482 -0.1540 -0.1221 -0.0737
 2734W        W 6253   4.935   6.654   0.712 -0.0372 -0.0698  0.1695
 2735W        W 6254   7.304   9.326   0.336  0.0343 -0.0381  0.1676
 2736W        W 6255   0.324   2.913   1.031 -0.0418 -0.2674 -0.0144
 2737W        W 6256   0.050   8.582   3.288  0.1490  0.0994 -0.0153
 2738W        W 6257   4.040   1.189   2.131  0.1058  0.0591  0.1867
 2739W        W 6258   7.056   6.421  11.755  0.1518  0.3342  0.0455
 2740W        W 6259   1.400   0.569   2.325  0.1828  0.0002 -0.1974
 2741W        W 6260   2.754   4.729  10.365  0.1107  0.1930 -0.3464
 2742W        W 6261   0.406   3.595   3.760 -0.0577 -0.0493  0.0658
 2743W        W 6262   6.864   9.700   1.204 -0.0295 -0.1447 -0.0336
 2744W        W 6263   6.105   9.581   9.209 -0.1873  0.3340 -0.1388
 2745W        W 6264   2.914   9.167   1.437 -0.0851 -0.1387 -0.3772
 2746W        W 6265   3.236   0.520   3.862  0.1038  0.2756 -0.0570
 2747W        W 6266   4.910   6.556   0.180 -0.0721  0.2090 -0.3266
 2748W        W 6267   1.965   8.996   3.681 -0.0336  0.1768  0.0496
 2749W        W 6268   6.238   0.661  10.226  0.0436  0.0721  0.3121
 2750W        W 6269   1.931   5.003   3.479 -0.0028  0.2681  0.0323
 2751W        W 6270   7.949   0.846  10.166  0.0653 -0.0390 -0.3313
 2752W        W 6271   9.457   3.775   2.297 -0.0288  0.1697 -0.1481
 2753W        W 6272   1.833   6.799   8.546  0.0203 -0.0845  0.0134
 2754W        W 6273   6.432   6.579   4.147 -0.1992 -0.2793  0.2962
 2755W        W 6274   2.162   3.834  10.226 -0.0408  0.3448  0.0949
 2756W        W 6275   6.815   4.530   2.155  0.1325 -0.1145  0.1089
 2757W        W 6276   7.394   2.049   9.975 -0.1651  0.1544 -0.0144
 2758W        W 6277   6.769   8.725  10.554  0.0174  0.0532 -0.2009
 2759W        W 6278   0.655   5.584   4.113  0.0720  0.4120 -0.0184
 2760W        W 6279   3.900   4.579   1.579  0.0342 -0.0227  0.0425
 2761W        W 6280   1.869   8.545  11.159 -0.0661  0.2316 -0.1199
 2762W        W 6281   3.848   2.335   1.845 -0.1435  0.0465 -0.0148
 2763W        W 6282   8.116   9.395   9.419 -0.0197  0.3206 -0.0755
 2764W        W 6283   9.353   1.949   1.468 -0.2603  0.0097  0.1387
 2765W        W 6284   7.404   7.685  10.004 -0.0996  0.0563 -0.4209
 2766W        W 6285   4.557   7.900   9.199 -0.1632 -0.3718 -0.0023
 2767W        W 6286   1.815   1.714   9.830 -0.2647  0.0877  0.2265
 2768W        W 6287   7.703   4.858   8.041 -0.0912  0.0526  0.0606
 2769W        W 6288   5.012   7.944   1.828  0.2020 -0.0929  0.0677
 2770W        W 6289   9.260   6.928  11.275  0.1321 -0.1517 -0.0999
 2771W        W 6290   5.165   3.211   8.719  0.3188  0.3090  0.1560
 2772W        W 6291   3.713   8.551   0.642  0.2943 -0.0148 -0.1543
 2773W        W 6292   6.485   4.718   3.058  0.0597 -0.0657 -0.1343
 2774W        W 6293   8.165   4.952  11.674  0.0933 -0.0707 -0.1407
 2775W        W 6294   9.047   9.740   9.272  0.3140  0.2132 -0.0045
 2776W        W 6295   8.472   8.978  10.155 -0.1143  0.2907  0.1873
 2777W        W 6296   6.293   1.468   9.562  0.2761  0.4774  0.1235
 2778W        W 6297   1.345   6.856   4.461 -0.1253  0.2238  0.1407
 2779W        W 6298   3.899   3.175   4.529 -0.1431 -0.0783 -0.0274
 2780W        W 6299   9.848   9.356   3.449  0.0031  0.0140 -0.1987
 2781W        W 6300   7.977   4.841   8.512  0.3149  0.0141 -0.0701
 2782W        W 6301   9.765   4.439   4.888 -0.2409  0.1983 -0.2260
 2783W        W 6302   2.686   7.930  10.343  0.3207  0.1150  0.2308
 2784W        W 6303   4.076   6.485   2.451  0.1826  0.1947  0.1684
 2785W        W 6304   0.482   7.401   9.199 -0.3107 -0.0920 -0.2833
 2786W        W 6305   3.154   5.168   1.877 -0.2538  0.0482  0.0364
 2787W        W 6306   1.245   5.162   8.864  0.0204  0.4324  0.5441
 2788W        W 6307   7.726   0.515   1.449 -0.2305 -0.3795 -0.1650
 2789W        W 6308   1.541   1.826  11.241 -0.3056 -0.2420 -0.1633
 2790W        W 6309   4.098   8.119   1.986 -0.0656 -0.2240 -0.1430
 2791W        W 6310   8.494   6.712   0.065 -0.0007 -0.1492 -0.0467
 2792W        W 6311   7.513   4.783   0.695 -0.2218  0.1805 -0.1645
 2793W        W 6312   3.208   9.758   9.222 -0.1328 -0.0126  0.1171
 2794W        W 6313   8.046   1.538   3.312  0.1190  0.1835 -0.2219
 2795W        W 6314   4.993   2.885  11.227  0.0317  0.1014  0.0386
 2796W        W 6315   6.731   8.477   0.351 -0.0140  0.0447 -0.1009
 2797W        W 6316   3.461   6.348  10.419  0.1985  0.0203 -0.3483
 2798W        W 6317   2.487   5.963  11.900  0.2625 -0.0112 -0.0389
 2799W        W 6318   7.236   6.126   9.320 -0.0109  0.1848  0.1081
 2800W        W 6319   9.180   6.638   0.779  0.2151 -0.1133 -0.0670
 2801W        W 6320   1.835   0.429  11.858  0.0015 -0.1931  0.0402
 2802W        W 6321   8.621   4.299   0.236 -0.1178 -0.1164 -0.0473
 2803W        W 6322   4.463   6.961   4.142 -0.3720 -0.3025  0.0292
 2804W        W 6323   8.760   4.042  10.854 -0.2966 -0.1025  0.1989
 2805W        W 6324   0.594   2.108   9.424  0.0062  0.0961 -0.1623
 2806W        W 6325   8.691   9.047   4.582  0.2079 -0.0660 -0.0259
 2807W        W 6326   7.560   8.866   0.048  0.2445 -0.1420  0.1174
 2808W        W 6327   9.787   6.495  10.945  0.0810  0.0312 -0.0998
 2809W        W 6328   5.286   1.603   8.467 -0.3265 -0.1896 -0.1705
 2810W        W 6329   0.393   4.340   9.519 -0.2961  0.1136 -0.1627
 2811W        W 6330   7.192   5.858   4.206 -0.1888  0.1035  0.0092
 2812W        W 6331   8.489   6.558   8.924  0.1267 -0.0558 -0.1161
 2813W        W 6332   6.322   4.661   2.047 -0.0748 -0.0647  0.0294
 2814W        W 6333   6.678   5.050  11.002  0.1007 -0.3217 -0.0090
 2815W        W 6334   6.551   6.143   3.713  0.4248  0.0161  0.0671
 2816W        W 6335   7.922   3.909   1.612  0.3918  0.0893 -0.0975
 2817W        W 6336   5.021   6.775   3.075  0.2515  0.1680 -0.1049
 2818W        W 6337   0.924   6.116  11.084  0.2193 -0.1683 -0.1252
 2819W        W 6338   7.848   4.463   0.388  0.2158  0.2134 -0.1279
 2820W        W 6339   0.222   3.780   1.091 -0.0267 -0.0643  0.2381
 2821W        W 6340   3.201   7.502  10.939  0.0004  0.0241 -0.2109
 2822W        W 6341   2.035   3.081   2.459 -0.1162  0.1319  0.4514
 2823W        W 6342   1.648   5.944   5.234 -0.1291  0.4460 -0.0406
 2824W        W 6343   3.726   9.741   9.783 -0.0067 -0.1442 -0.1462
 2825W        W 6344   7.501   0.839  10.529 -0.0060 -0.1493 -0.0043
 2826W        W 6345   6.743   3.377   1.724  0.1026 -0.1932 -0.1101
 2827W        W 6346   1.327   2.905   3.877  0.1014  0.0005  0.0258
 2828W        W 6347   3.538   5.101   3.085  0.1248  0.3528  0.2267
 2829W        W 6348   0.898   6.027   8.688  0.1073  0.1481  0.1043
 2830W        W 6349   8.576   7.076   3.402 -0.0352 -0.2944  0.0295
 2831W        W 6350   1.534   5.981   1.543 -0.2873  0.0158 -0.2403
 2832W        W 6351   9.198   8.883   1.516 -0.0546  0.0003 -0.0501
 2833W        W 6352   6.156   9.472  10.759 -0.2168 -0.0557 -0.0103
 2834W        W 6353   8.131   7.466   1.891  0.0915 -0.0876 -0.1024
 2835W        W 6354   1.295   5.649   1.240 -0.0545 -0.1451 -0.4031
 2836W        W 6355   4.245   3.516   4.370 -0.2123 -0.1547  0.0854
 2837W        W 6356   5.209   2.398   3.758  0.0246 -0.0110  0.1563
 2838W        W 6357   2.040   6.705  11.550  0.1696 -0.2323 -0.1008
 2839W        W 6358   9.642   3.187  10.159  0.0439 -0.0724 -0.2081
 2840W        W 6359   0.585   3.207   1.305  0.0953 -0.2604  0.2142
 2841W        W 6360   3.656   5.476   2.728  0.0629  0.1186  0.1273
 2842W        W 6361   8.271   7.799   2.697  0.2835  0.2863 -0.1497
 2843W        W 6362   9.680   8.733   2.600  0.1082  0.1103  0.2875
 2844W        W 6363   0.611   2.965   9.887 -0.0432 -0.0540  0.2919
 2845W        W 6364   0.355   0.259  12.031  0.1506 -0.1480 -0.0065
 2846W        W 6365   0.780   5.898   3.009 -0.0322  0.1077  0.1883
 2847W        W 6366   4.577   5.644   8.570 -0.0380 -0.0809  0.1449
 2848W        W 6367   3.812   6.823   0.753  0.2379 -0.2442  0.1841
 2849W        W 6368   8.209   1.591   0.764 -0.0635  0.3791  0.0141
 2850W        W 6369   4.080   7.115  11.400 -0.3673 -0.2098  0.0490
 2851W        W 6370   0.630   0.715   3.652  0.0572  0.2114 -0.1190
 2852W        W 6371   2.669   1.505  10.329 -0.4238  0.0711 -0.0499
 2853W        W 6372   4.539   9.107   9.776  0.0686 -0.0032  0.0451
 2854W        W 6373   5.826   8.808   1.953 -0.0519 -0.0777 -0.0926
 2855W        W 6374   9.268   0.331   2.616  0.2005 -0.0034  0.0016
 2856W        W 6375   7.474   9.001   2.637  0.2959 -0.0036  0.1047
 2857W        W 6376   7.068   4.086  10.624 -0.2890 -0.3082  0.1032
 2858W        W 6377   8.357   6.501   0.844  0.2657  0.1842 -0.0136
 2859W        W 6378   3.645   3.456   2.305  0.0785  0.2224 -0.0643
 2860W        W 6379   7.868   4.422  11.081 -0.2036 -0.1835  0.0614
 2861W        W 6380   5.612   7.095   9.645 -0.1153 -0.0535 -0.0776
 2862W        W 6381   9.086   8.428   3.605  0.0991  0.1615  0.0749
 2863W        W 6382   0.090   4.897   2.513 -0.0232  0.0698 -0.0903
 2864W        W 6383   3.411   2.268  11.770  0.1671  0.0924 -0.0038
 2865W        W 6384   8.510   3.878   9.452 -0.3711  0.0789  0.2477
 2866W        W 6385   6.127   8.529   1.622 -0.0482 -0.3338 -0.0068
 2867W        W 6386   9.466   1.567   3.654 -0.1542  0.3428 -0.1103
 2868W        W 6387   8.871   6.765   1.137 -0.3458 -0.0549 -0.2343
 2869W        W 6388   9.790   7.502   0.566  0.1116  0.0007  0.2957
 2870W        W 6389   8.349   7.125   1.590  0.2359  0.1176  0.3593
 2871W        W 6390   7.572   8.113   1.943  0.2368  0.0490  0.4196
 2872W        W 6391   3.954   4.711   9.917  0.1328  0.1066 -0.1087
 2873W        W 6392   5.641   6.069   1.195  0.2126 -0.0319 -0.5608
 2874W        W 6393   7.059   5.443   3.851 -0.0661  0.0301 -0.1836
 2875W        W 6394   8.145   4.011   2.937  0.0092 -0.0533  0.1104
 2876W        W 6395   5.184   7.561   4.485  0.2429  0.0591 -0.0508
 2877W        W 6396   0.971   0.210   2.915 -0.2178  0.0569  0.2262
 2878W        W 6397   6.743   2.044   2.848 -0.4940  0.1554  0.3440
 2879W        W 6398   7.317   8.166   9.834  0.4258 -0.0547 -0.2645
 2880W        W 6399   0.845   5.939  11.651 -0.2541  0.2546  0.1690
 2881W        W 6400   5.903   1.392  11.326  0.1074  0.1983  0.1305
 2882W        W 6401   8.786   1.997   9.369 -0.3022  0.1189 -0.4786
 2883W        W 6402   5.924   3.208   4.930 -0.3944 -0.0723  0.3263
 2884W        W 6403   2.357   4.040  11.208  0.1269 -0.1093 -0.2635
 2885W        W 6404   9.316   3.050   9.851  0.1263  0.2410 -0.2138
 2886W        W 6405   1.897   0.070   3.578 -0.0295 -0.2430  0.0330
 2887W        W 6406   4.248   7.779   9.567 -0.0611  0.1496  0.3526
 2888W        W 6407   7.330   0.797   0.580 -0.0037  0.0401  0.1254
 2889W        W 6408   1.460   3.550  11.326  0.0096 -0.1709  0.2759
 2890W        W 6409   1.495   7.366   3.055  0.0087 -0.2431 -0.1871
 2891W        W 6410   8.332   2.878   2.917  0.0843  0.2067  0.0199
 2892W        W 6411   6.334   7.904   3.969 -0.0713 -0.1108 -0.0036
 2893W        W 6412   6.196   0.058   1.252  0.0400 -0.2709  0.2779
 2894W        W 6413   3.787   3.919   1.440  0.0597  0.1011  0.1925
 2895W        W 6414   2.574   3.028  10.691  0.1238 -0.0117  0.0057
 2896W        W 6415   1.385   8.505   9.396 -0.2252 -0.0304 -0.3073
 2897W        W 6416   3.863   5.540   2.277  0.1165  0.0522  0.2981
 2898W        W 6417   0.763   3.048  11.319 -0.0695  0.0993  0.0604
 2899W        W 6418   4.767   7.153   2.494 -0.0745  0.4568  0.1053
 2900W        W 6419   6.238   7.200  12.000 -0.1412  0.0570 -0.0904
 2901W        W 6420   7.561   9.812   9.719  0.0782 -0.2207  0.0328
 2902W        W 6421   6.485   5.686   4.561 -0.1011  0.0128 -0.2395
 2903W        W 6422   8.219   8.075   9.049 -0.0403  0.1975 -0.1077
 2904W        W 6423   1.142   7.036   0.714  0.0594 -0.1607 -0.0910
 2905W        W 6424   8.469   6.610   1.330  0.1146  0.3789  0.1141
 2906W        W 6425   6.613   5.759   2.940 -0.3113  0.3025  0.2072
 2907W        W 6426   1.903   3.355   1.963  0.2893 -0.0328  0.1917
 2908W        W 6427   3.827   6.752   1.653 -0.3252  0.0163  0.0093
 2909W        W 6428   8.002   3.853   9.356 -0.1829 -0.3337  0.4981
 2910W        W 6429   5.036   6.803   9.468 -0.2651  0.1728  0.0576
 2911W        W 6430   5.175   6.058   3.785  0.3089 -0.1132  0.1794
 2912W        W 6431   4.181   9.108  10.201 -0.2834  0.1411 -0.1935
 2913W        W 6432   2.891   6.546  11.042 -0.0795 -0.0146 -0.0732
 2914W        W 6433   6.772   8.378   2.366 -0.0718  0.3949  0.2517
 2915W        W 6434   3.737   8.634   1.497  0.1446  0.3079  0.0789
 2916W        W 6435   3.978   5.315  11.699  0.1610 -0.4614  0.0844
 2917W        W 6436   8.902   5.883   0.884  0.0332 -0.0339  0.0706
 2918W        W 6437   8.308   8.261   2.383  0.0295 -0.1605  0.2387
 2919W        W 6438   9.615   9.698   0.172 -0.1426  0.0198 -0.0805
 2920W        W 6439   0.164   3.227  11.773  0.4002  0.1778 -0.0308
 2921W        W 6440   7.422   9.013   4.380  0.2064 -0.1732 -0.0545
 2922W        W 6441   2.893   7.772  11.325 -0.3089  0.0203  0.1424
 2923W        W 6442   4.144   3.220   0.299 -0.2931 -0.2316 -0.0841
 2924W        W 6443   9.576   6.892  11.626  0.0484  0.2476  0.3489
 2925W        W 6444   4.606   3.338  11.763  0.1877 -0.0675 -0.1247
 2926W        W 6445   3.414   6.359   3.191 -0.0939 -0.2376 -0.1950
 2927W        W 6446   2.608   0.947   0.778 -0.4345  0.0800  0.1300
 2928W        W 6447   2.043   0.831  11.964 -0.3787 -0.0085 -0.1058
 2929W        W 6448   9.059   4.100   0.131 -0.0594  0.1577  0.3247
 2930W        W 6449   3.313   1.809   3.077 -0.0787 -0.0797  0.0333
 2931W        W 6450   5.105   4.083   3.578  0.0954 -0.1905  0.0612
 2932W        W 6451   0.383   6.527   9.181  0.0549 -0.0222 -0.0076
 2933W        W 6452   1.836   1.085   2.836  0.1844  0.0728 -0.1864
 2934W        W 6453   3.388   0.433   1.373 -0.0702  0.1841 -0.0391
 2935W        W 6454   0.242   3.234   0.674 -0.0822  0.0618 -0.1019
 2936W        W 6455   0.616   3.805  11.086  0.3528  0.4130 -0.1742
 2937W        W 6456   4.861   2.824   1.445 -0.0639  0.3328 -0.0950
 2938W        W 6457   2.846   7.474   2.520 -0.1768  0.2689  0.4870
 2939W        W 6458   3.751   2.894   9.316 -0.1816  0.1794 -0.1729
 2940W        W 6459   1.363   9.437  11.487 -0.0847  0.0656  0.0649
 2941W        W 6460   9.419   4.534   9.695  0.1786 -0.3414  0.2041
 2942W        W 6461   5.543   7.458   3.033 -0.1553 -0.2137 -0.0979
 2943W        W 6462   2.679   8.364  10.626 -0.2747  0.0304  0.2660
 2944W        W 6463   0.748   7.304  10.056  0.1770 -0.2292 -0.0998
 2945W        W 6464   0.068   2.443   9.478  0.1528 -0.1619  0.2771
 2946W        W 6465   8.541   4.776   2.966  0.1733 -0.3092 -0.1473
 2947W        W 6466   7.166   3.210   1.618 -0.1338  0.1216 -0.0648
 2948W        W 6467   6.613   7.116   3.966  0.0359  0.1872  0.0657
 2949W        W 6468   9.425   7.659   1.391  0.1517  0.0769 -0.0392
 2950W        W 6469   9.530   0.363   1.589 -0.0376  0.0963 -0.1612
 2951W        W 6470   5.612   1.275   1.056 -0.1886 -0.0776 -0.0410
 2952W        W 6471   8.439   8.762   2.136 -0.0372  0.3378  0.0744
 2953W        W 6472   9.076   5.504   1.526  0.2030 -0.2211  0.0119
 2954W        W 6473   3.290   7.451   0.080  0.0168  0.2401 -0.0688
 2955W        W 6474   6.805   1.925   0.959  0.1398  0.0320 -0.1686
 2956W        W 6475   8.283   9.747   0.945 -0.1241 -0.2701 -0.2290
 2957W        W 6476   9.187   3.706   2.805 -0.1023  0.4347  0.3433
 2958W        W 6477   1.848   0.296  10.397 -0.2440  0.2413  0.3009
 2959W        W 6478   7.040   2.341  10.190 -0.1274  0.2549  0.0690
 2960W        W 6479   2.358   3.114   9.862  0.2648 -0.1939  0.1904
 2961W        W 6480   6.852   8.671   8.309 -0.4229 -0.3389 -0.2577
 2962W        W 6481   4.631   4.715  10.642  0.3246  0.0444 -0.3523
 2963W        W 6482   7.648   6.958   4.867 -0.0594 -0.0154  0.0880
 2964W        W 6483   7.487   8.272  12.029 -0.0075 -0.1008  0.0724
 2965W        W 6484   5.993   2.576   4.128  0.3331  0.2930  0.3699
 2966W        W 6485   6.497   7.984  11.139 -0.0011  0.0593 -0.2177
 2967W        W 6486   3.490   8.346   3.055 -0.0958  0.0513  0.2680
 2968W        W 6487   8.219   7.010   2.152 -0.2949 -0.0095  0.1103
 2969W        W 6488   5.276   2.847   0.923 -0.2510  0.1281 -0.0644
 2970W        W 6489   2.184   4.548   3.344 -0.1334 -0.1812 -0.1846
 2971W        W 6490   2.365   3.931   0.520 -0.0364 -0.0000  0.0306
 2972W        W 6491   3.849   0.546   4.255  0.0624 -0.0166  0.1699
 2973W        W 6492   7.580   1.127  11.630 -0.3042  0.2627  0.1865
 2974W        W 6493   8.017   0.211   0.161  0.0768  0.0021 -0.2417
 2975W        W 6494   8.215   5.379   1.262  0.1366 -0.0702  0.1902
 2976W        W 6495   0.488   2.365   0.603  0.2056  0.0003  0.0660
 2977W        W 6496   5.375   2.803  10.881 -0.1039  0.0903  0.3960
 2978W        W 6497   6.777   7.935   2.593  0.0894  0.1462  0.4059
 2979W        W 6498   3.363   2.980   8.925 -0.1794  0.0197 -0.0677
 2980W        W 6499   9.067   7.346   1.166  0.0221 -0.0828  0.1328
 2981W        W 6500   1.042   4.328  10.252 -0.0876  0.2046  0.0059
 2982W        W 6501   4.710   8.384  10.242 -0.1106 -0.0587 -0.0305
 2983W        W 6502   8.119   2.564  10.850 -0.1213 -0.1047 -0.2236
 2984W        W 6503   5.180   9.071   8.926 -0.1807 -0.2309  0.0951
 2985W        W 6504   7.630   7.568  11.118  0.2099  0.0850 -0.1744
 2986W        W 6505   2.719   0.628  10.622 -0.2363  0.3058  0.2752
 2987W        W 6506   6.221   9.722   4.107  0.0013  0.1795  0.0038
 2988W        W 6507   2.577   0.794  11.968 -0.1115  0.1489 -0.1102
 2989W        W 6508   2.633   9.749   9.851  0.1622 -0.0993  0.0704
 2990W        W 6509   9.377   3.787   3.275  0.2393  0.1147 -0.1542
 2991W        W 6510   6.645   0.837   2.066 -0.0508 -0.1361  0.0776
 2992W        W 6511   5.291   6.762  11.776  0.0993  0.0086  0.1117
 2993W        W 6512   8.595   7.421   1.238  0.1041  0.0550 -0.3008
 2994W        W 6513   8.502   5.683   1.547  0.1019 -0.2845 -0.1993
 2995W        W 6514   5.468   3.252   3.446  0.2926 -0.0100  0.0254
 2996W        W 6515   7.975   2.442  10.410  0.3481 -0.0832  0.1915
 2997W        W 6516   8.363   5.780  11.139  0.2013 -0.1286  0.1555
 2998W        W 6517   9.037   5.936  10.632  0.2512  0.0714  0.0520
 2999W        W 6518   9.469   8.587   1.048  0.1789 -0.1153  0.1527
 3000W        W 6519   5.451   7.620   2.574  0.0153 -0.3173  0.0320
 3001W        W 6520   8.402   7.055   0.404 -0.3004  0.0866  0.1277
 3002W        W 6521   9.170   3.478   3.632  0.1261 -0.1138 -0.0892
 3003W        W 6522   2.104   5.131  11.995  0.0410  0.0458 -0.1491
 3004W        W 6523   8.216   1.041   0.524 -0.0480  0.4375  0.1826
 3005W        W 6524   9.623   4.400  10.132  0.0724  0.1323 -0.0510
 3006W        W 6525   1.470   7.786   0.068 -0.1615 -0.2059  0.1275
 3007W        W 6526   4.044   0.572  10.049  0.0303 -0.1086  0.4483
 3008W        W 6527   0.158   7.009  11.785  0.0692  0.1449  0.1419
 3009W        W 6528   0.411   3.502   3.017  0.0054 -0.2965  0.1240
 3010W        W 6529   1.501   3.464   9.705  0.1868 -0.4020  0.2463
 3011W        W 6530   0.118   0.620  11.759 -0.1491  0.0351  0.1040
 3012W        W 6531   9.314   3.260   2.082  0.0257  0.3330  0.2682
 3013W        W 6532   0.365   5.039   2.937  0.0808 -0.1040  0.2234
 3014W        W 6533   7.217   9.396  11.799  0.1659  0.2278 -0.3538
 3015W        W 6534   0.050   0.292   1.898 -0.3378  0.2263 -0.0358
 3016W        W 6535   8.315   4.605   2.535 -0.1177  0.0113  0.2879
 3017W        W 6536   8.790   8.108   0.295 -0.0261  0.0396 -0.0618
 3018W        W 6537   4.925   8.194   0.766  0.1790  0.1990 -0.1119
 3019W        W 6538   8.155   3.726   9.814 -0.0052 -0.1041 -0.0499
 3020W        W 6539   7.155   1.900   8.400 -0.0508 -0.0557 -0.1802
 3021W        W 6540   8.875   1.241   1.531 -0.1840  0.1349  0.3985
 3022W        W 6541   8.282   3.080   0.170  0.2911 -0.0983 -0.1189
 3023W        W 6542   7.240   7.968  10.445 -0.3092 -0.0995  0.0939
 3024W        W 6543   9.318   8.768  11.259 -0.1630 -0.1921 -0.1544
 3025W        W 6544   2.343   0.677   0.292 -0.2448 -0.4101  0.0651
 3026W        W 6545   7.386   3.383   4.435 -0.0427  0.1890 -0.0638
 3027W        W 6546   7.911   1.769   3.775 -0.0450 -0.0178  0.0703
 3028W        W 6547   7.615   1.738   8.670  0.0513 -0.0505  0.2391
 3029W        W 6548   0.348   7.677   1.391  0.2725 -0.0143  0.0827
 3030W        W 6549   3.091   4.521   3.158 -0.4186 -0.1688  0.1140
 3031W        W 6550   1.969   4.994   1.166 -0.0210  0.0825  0.1169
 3032W        W 6551   7.573   2.673   9.351 -0.1862 -0.1795 -0.0505
 3033W        W 6552   9.191   2.677   4.695 -0.1659 -0.1303  0.1136
 3034W        W 6553   6.857   5.794   9.254 -0.0933  0.1489  0.1267
 3035W        W 6554   2.652   2.263   5.162  0.1275 -0.4194 -0.0030
 3036W        W 6555   1.707   1.764   1.356 -0.0832  0.0342 -0.0542
 3037W        W 6556   3.938   4.117   3.889 -0.1054  0.0777  0.1742
 3038W        W 6557   2.381   8.253   1.101 -0.1422  0.1779 -0.4011
 3039W        W 6558   1.747   0.970   9.292 -0.0329 -0.0092  0.0851
 3040W        W 6559   3.800   6.231  11.744  0.1237 -0.1026  0.2178
 3041W        W 6560   6.099   7.116   9.656  0.1101  0.3069  0.1888
 3042W        W 6561   1.136   8.300   2.204  0.2001  0.1446  0.2042
 3043W        W 6562   7.853   8.242   9.435  0.3631 -0.0491 -0.2030
 3044W        W 6563   8.661   1.206   3.621 -0.1793  0.0937 -0.2211
 3045W        W 6564   0.198   1.652   0.207  0.0397 -0.0592  0.2129
 3046W        W 6565   5.968   4.792   0.981 -0.3016 -0.3056  0.1239
 3047W        W 6566   8.473   3.089   9.983  0.1268  0.1511  0.0386
 3048W        W 6567   2.374   6.021  10.754 -0.0093  0.3216 -0.1273
 3049W        W 6568   1.288   8.845   3.630  0.3546 -0.1827 -0.2794
 3050W        W 6569   2.967   3.013  11.798  0.0328  0.0594 -0.1627
 3051W        W 6570   5.551   4.854  11.797  0.1206 -0.0239  0.2153
 3052W        W 6571   2.700   0.706   4.516  0.0225 -0.2760 -0.0718
 3053W        W 6572   7.231   4.783  10.023 -0.1172 -0.0105 -0.1792
 3054W        W 6573   0.957   0.546   2.062  0.1449 -0.0535  0.0842
 3055W        W 6574   1.937   1.845   2.430 -0.2604 -0.2303 -0.0488
 3056W        W 6575   9.371   0.006   2.033 -0.0977 -0.0201  0.3172
 3057W        W 6576   8.900   7.015   4.347  0.1874  0.1630 -0.1462
 3058W        W 6577   2.682   0.522   3.236  0.2843 -0.1846  0.1003
 3059W        W 6578   1.340   4.751   0.680  0.1441 -0.1425 -0.1131
 3060W        W 6579   5.191   4.958  12.112  0.0072 -0.2927 -0.5161
 3061W        W 6580   9.604   6.014   3.164 -0.0274 -0.0822 -0.2855
 3062W        W 6581   8.453   6.380   3.050 -0.2303  0.2987  0.0858
 3063W        W 6582   7.270   6.838   5.335 -0.0158  0.1433  0.1509
 3064W        W 6583   3.658   1.224   0.849  0.1522 -0.0494  0.2800
 3065W        W 6584   2.639   8.227   2.854 -0.2551  0.1905  0.3702
 3066W        W 6585   6.204   8.873   4.164 -0.1473 -0.1394 -0.0437
 3067W        W 6586   3.225   8.144   1.335  0.0769  0.0293 -0.0299
 3068W        W 6587   5.549   5.716   9.730  0.4316 -0.1504 -0.1624
 3069W        W 6588   7.838   9.419  10.254  0.2733 -0.0461 -0.1142
 3070W        W 6589   0.922   3.360   3.796 -0.3329 -0.0608  0.1420
 3071W        W 6590   9.247   5.626  10.287 -0.1450 -0.2404  0.1744
 3072W        W 6591   3.086   9.232  11.770  0.3242  0.0448 -0.1681
 3073W        W 6592   1.394   2.590  10.735 -0.2549  0.2925  0.2112
 3074W        W 6593   6.426   8.171  10.298  0.1148  0.1887  0.1683
 3075W        W 6594   3.104   0.299   5.252 -0.2785  0.2383 -0.2259
 3076W        W 6595   5.028   6.073   2.384  0.2072 -0.0103  0.0608
 3077W        W 6596   3.806   9.782   0.107  0.1589  0.0443  0.3626
 3078W        W 6597   6.855   2.618   1.674  0.4143 -0.0385  0.2761
 3079W        W 6598   8.211   2.903  11.781 -0.0532 -0.4027  0.4228
 3080W        W 6599   9.551   3.052   3.689 -0.0868  0.1025 -0.4505
 3081W        W 6600   8.942   8.261  11.974  0.0824 -0.1977  0.1392
 3082W        W 6601   6.835   3.202   3.677 -0.0474  0.0418  0.1499
 3083W        W 6602   0.156   2.559  10.590  0.0369  0.0175  0.0045
 3084W        W 6603   3.338   8.515  11.306  0.3652 -0.1626 -0.0230
 3085W        W 6604   7.771   7.871   9.715  0.1967  0.2940  0.0202
 3086W        W 6605   1.078   2.542   1.512  0.0010  0.0958 -0.0263
 3087W        W 6606   6.140   0.174   9.977 -0.1862  0.1173  0.2242
 3088W        W 6607   3.158   5.158  11.353 -0.2173 -0.4933  0.2306
 3089W        W 6608   3.213   3.568   0.810  0.0134  0.0761  0.1567
 3090W        W 6609   5.942   3.260   3.583 -0.0346 -0.2101  0.1672
 3091W        W 6610   5.277   7.641   1.560 -0.0677 -0.1096  0.0370
 3092W        W 6611   0.368   2.958   2.908 -0.0900 -0.1698 -0.0414
 3093W        W 6612   0.613   6.999  11.910  0.0330 -0.0107  0.0202
 3094W        W 6613   4.350   4.883   9.721 -0.0524 -0.1197  0.0302
 3095W        W 6614   9.135   5.055   4.381  0.1386 -0.1250  0.4193
 3096W        W 6615   3.720   5.983  11.004  0.2107 -0.0057  0.0619
 3097W        W 6616   2.102   0.946   3.773  0.2326  0.2742  0.0079
 3098W        W 6617   6.258   5.486   2.380  0.0694  0.3582  0.1375
 3099W        W 6618   9.587   9.049   1.249 -0.0061  0.0012 -0.0370
 3100W        W 6619   6.288   2.449   2.503  0.2508  0.2746  0.2196
 3101W        W 6620   7.260   9.220   4.940  0.0911  0.1567  0.0811
 3102W        W 6621   7.290   0.446   8.857 -0.0380  0.0727  0.0072
 3103W        W 6622   2.504   0.638   4.008 -0.1370 -0.3303  0.0753
 3104W        W 6623   1.171   3.821   9.081  0.1225 -0.0216  0.2287
 3105W        W 6624   1.897   9.668  10.575 -0.2801 -0.0614 -0.1090
 3106W        W 6625   0.981   6.581   4.882  0.2368  0.0547 -0.0652
 3107W        W 6626   3.657   5.032  12.005 -0.0042 -0.0753 -0.1328
 3108W        W 6627   6.986   3.321   8.520 -0.0184  0.1352  0.1595
 3109W        W 6628   3.292   3.122   9.545  0.3056 -0.0912  0.4707
 3110W        W 6629   5.396   1.503  10.489 -0.2256  0.2422 -0.0440
 3111W        W 6630   1.868   8.458   3.935  0.0909 -0.1513 -0.2499
 3112W        W 6631   9.289   5.196  11.284  0.1742 -0.3591  0.0600
 3113W        W 6632   1.587   4.370  10.866 -0.0100 -0.4278  0.2291
 3114W        W 6633   9.077   6.156   3.202  0.3594 -0.1338  0.0766
 3115W        W 6634   4.347   8.188   0.876  0.0916  0.1658 -0.0978
 3116W        W 6635   1.506   9.051  10.108  0.0905  0.2463 -0.3490
 3117W        W 6636   4.702   7.538  11.995 -0.1709  0.2288  0.2320
 3118W        W 6637   5.169   8.593   9.050  0.0510  0.1007 -0.0354
 3119W        W 6638   0.204   4.345  10.592 -0.1349  0.2423 -0.0022
 3120W        W 6639   0.090   1.947   4.449 -0.1484  0.1297 -0.0363
 3121W        W 6640   5.978   3.832   4.098 -0.1707  0.3472  0.3801
 3122W        W 6641   0.346   6.091   2.776  0.1370 -0.1146 -0.1998
 3123W        W 6642   6.262   0.634   9.034 -0.1066 -0.0993  0.0810
 3124W        W 6643   2.381   4.354   8.710 -0.3465 -0.1615  0.1897
 3125W        W 6644   8.113   5.497   3.025  0.0859 -0.0615  0.1174
 3126W        W 6645   8.539   6.029   9.177 -0.1999  0.0010  0.1379
 3127W        W 6646   6.491   8.889   3.585  0.1689  0.0302  0.0472
 3128W        W 6647   0.951   4.670   9.415  0.1777  0.3122 -0.2651
 3129W        W 6648   0.320   9.379   0.701 -0.0232  0.1370  0.0661
 3130W        W 6649   2.229   8.206  10.478 -0.2075 -0.0256 -0.0097
 3131W        W 6650   5.655   8.844   3.372 -0.2386 -0.1977  0.0111
 3132W        W 6651   6.950   0.910  11.762  0.2130 -0.1306 -0.0358
 3133W        W 6652   7.667   7.444   2.100  0.0152 -0.0112  0.3609
 3134W        W 6653   8.216   5.334   9.623 -0.0515  0.0354  0.1013
 3135W        W 6654   9.749   9.710   1.609 -0.0029 -0.2391 -0.1461
 3136W        W 6655   8.699   0.720  11.802 -0.2846 -0.1069 -0.1374
 3137W        W 6656   5.469   4.069  11.565 -0.1765  0.0013  0.0660
 3138W        W 6657   3.848   7.703  11.426 -0.0368  0.2316 -0.2928
 3139W        W 6658   7.190   9.657   1.582 -0.0903 -0.0987 -0.2301
 3140W        W 6659   8.641   4.982   1.451  0.0201 -0.2469 -0.0685
 3141W        W 6660   4.323   3.367   3.611  0.0062 -0.0808  0.0919
 3142W        W 6661   9.546   9.783   2.486  0.0231 -0.0405  0.2935
 3143W        W 6662   9.069   3.074   3.993 -0.1693  0.1693 -0.1609
 3144W        W 6663   8.842   5.558  11.239  0.1307  0.0154  0.1119
 3145W        W 6664   8.599   3.210   2.574 -0.3045 -0.1342  0.2716
 3146W        W 6665   3.647   5.705   4.373 -0.0894  0.0059 -0.1920
 3147W        W 6666   0.209   3.020   3.740  0.0961  0.1159  0.1463
 3148W        W 6667   8.373   1.552   0.305  0.4466 -0.0984 -0.0740
 3149W        W 6668   5.787   3.804   0.575 -0.0279  0.1114  0.0383
 3150W        W 6669   8.711   1.457  10.631  0.0596 -0.0272  0.1998
 3151W        W 6670   1.445   7.981   1.242  0.1761 -0.2597 -0.0823
 3152W        W 6671   7.759   5.922   9.124 -0.0736 -0.0379 -0.0139
 3153W        W 6672   0.191   1.327   9.915 -0.1982 -0.0388 -0.1591
 3154W        W 6673   9.571   2.277   3.181  0.2856 -0.0064 -0.2325
 3155W        W 6674   6.665   1.834   9.650  0.0404 -0.0558  0.2429
 3156W        W 6675   1.018   0.895   4.480 -0.2476  0.2746  0.0861
 3157W        W 6676   0.926   7.763  10.180  0.0075 -0.1532 -0.0300
 3158W        W 6677   2.371   3.386  10.332  0.0528 -0.0814  0.0430
 3159W        W 6678   0.425   6.280   1.688  0.0544 -0.0047 -0.1676
 3160W        W 6679   1.171   9.395   2.273  0.1870 -0.2709 -0.2617
 3161W        W 6680   9.460   7.887  10.286 -0.1630  0.2605  0.0560
 3162W        W 6681   5.306   1.021   1.956 -0.0715 -0.3121  0.3200
 3163W        W 6682   6.575   0.401   0.404 -0.2104 -0.2976  0.2358
 3164W        W 6683   1.402   3.809  10.311 -0.0354  0.0174  0.0515
 3165W        W 6684   7.737   5.108  11.206 -0.1953  0.0376 -0.2637
 3166W        W 6685   1.977   7.770  10.563 -0.3089 -0.2032  0.0006
 3167W        W 6686   9.459   7.614   2.081  0.2059  0.1224 -0.0716
 3168W        W 6687   8.458   1.584   8.247  0.1167 -0.1706  0.3654
 3169W        W 6688   6.512   4.352  10.028 -0.1253 -0.2246 -0.1557
 3170W        W 6689   8.223   0.599   2.833 -0.2261 -0.0229  0.1143
 3171W        W 6690   2.036   5.512   2.071  0.0814  0.0084  0.0582
 3172W        W 6691   4.703   2.048  11.644  0.1768 -0.1035 -0.3188
 3173W        W 6692   8.603   3.870   2.317  0.1790  0.3710  0.0766
 3174W        W 6693   9.789   1.325   2.404 -0.1720 -0.1581  0.1854
 3175W        W 6694   7.289   2.431   1.236  0.1549  0.0447 -0.0668
 3176W        W 6695   1.940   8.073   3.420 -0.1903 -0.0697 -0.2209
 3177W        W 6696   8.202   2.497   3.846 -0.1410  0.0198 -0.1769
 3178W        W 6697   4.682   8.313   1.213 -0.1134 -0.0712 -0.0711
 3179W        W 6698   1.817   0.454   3.195 -0.0456 -0.0405  0.0492
 3180W        W 6699   0.536   5.877   3.448  0.4345 -0.2183 -0.0087
 3181W        W 6700   9.202   2.643   0.085 -0.1045 -0.2109 -0.0087
 3182W        W 6701   6.009   1.870  11.074 -0.0543 -0.1697  0.0376
 3183W        W 6702   6.442   0.337  12.001  0.1266  0.1426  0.1528
 3184W        W 6703   6.168   3.026  11.770 -0.3660 -0.0801  0.1647
 3185W        W 6704   0.251   7.850   9.337 -0.2710  0.1554  0.2478
 3186W        W 6705   9.344   6.167   1.676 -0.2143  0.0613 -0.4782
 3187W        W 6706   2.854   6.462   2.450 -0.0388  0.1000 -0.1069
 3188W        W 6707   6.732   4.738   1.732 -0.1248  0.1107 -0.1094
 3189W        W 6708   7.516   8.701   3.473 -0.3008  0.0308  0.0854
 3190W        W 6709   9.697   6.587   0.574 -0.0413  0.0386 -0.0780
 3191W        W 6710   2.256   0.294   4.467  0.0858  0.0881 -0.0448
 3192W        W 6711   2.909   3.184   2.827  0.0833  0.1193 -0.1270
 3193W        W 6712   2.023   2.570  11.523  0.0461 -0.5237  0.1528
 3194W        W 6713   9.077   8.029  10.670  0.0637 -0.2287 -0.4617
 3195W        W 6714   6.237   3.972  10.154  0.1239 -0.2155  0.3442
 3196W        W 6715   2.326   1.787  11.748 -0.1316 -0.0141 -0.0700
 3197W        W 6716   8.478   8.177   1.868 -0.0676 -0.1719  0.0348
 3198W        W 6717   0.225   1.580   2.696  0.1034  0.1030  0.0614
 3199W        W 6718   3.644   7.316   1.019 -0.1467  0.0846 -0.1370
 3200W        W 6719   4.970   9.360   3.206 -0.0287  0.0357 -0.1357
 3201W        W 6720   9.338   8.656  11.839  0.1178  0.1070 -0.0220
 3202W        W 6721   1.998   0.213  11.374 -0.0749 -0.0782 -0.1819
 3203W        W 6722   1.634   2.765  11.877  0.0735  0.0846  0.0659
 3204W        W 6723   1.601   6.871  11.836  0.0328  0.1102 -0.3918
 3205W        W 6724   5.852   4.669   8.710 -0.0083 -0.0266  0.4422
 3206W        W 6725   1.924   9.417   3.278  0.0218  0.4483 -0.0034
 3207W        W 6726   2.127   7.779   2.207 -0.1989 -0.1635  0.2251
 3208W        W 6727   7.079   2.766   3.558  0.2320 -0.1199  0.2929
 3209W        W 6728   3.314   5.992   1.751  0.1287 -0.0297  0.0742
 3210W        W 6729   2.136   7.412   9.900 -0.1028  0.2440 -0.1929
 3211W        W 6730   0.529   2.544   2.700 -0.2422  0.1328 -0.0472
 3212W        W 6731   1.402   2.132   0.451 -0.3689  0.0982 -0.1453
 3213W        W 6732   3.650   3.181   9.928 -0.2898  0.0076 -0.1060
 3214W        W 6733   4.689   5.055   3.574 -0.2372  0.3141 -0.2015
 3215W        W 6734   0.346   2.852   9.476 -0.1622  0.1062  0.0441
 3216W        W 6735   9.803   3.557   2.917 -0.1217  0.0374  0.3416
 3217W        W 6736   9.447   7.151  10.908 -0.1157  0.0481  0.0330
 3218W        W 6737   0.782   3.319   2.150 -0.0868 -0.0045  0.0646
 3219W        W 6738   7.284   9.603   0.992 -0.2903 -0.0376  0.0233
 3220W        W 6739   3.773   1.258  11.084  0.4025  0.2250 -0.0012
 3221W        W 6740   2.840   2.109   3.927  0.1410  0.0640 -0.2765
 3222W        W 6741   1.790   1.669   1.939  0.0935 -0.2699 -0.2841
 3223W        W 6742   1.970   7.983   0.863 -0.0245 -0.1307  0.2075
 3224W        W 6743   7.078   8.804   2.512  0.1272  0.2714  0.0270
 3225W        W 6744   8.011   6.365   9.782  0.3930  0.2893  0.0627
 3226W        W 6745   3.132   3.703   4.973  0.0623 -0.0775  0.2216
 3227W        W 6746   4.162   6.935   3.170  0.1622 -0.0030 -0.2333
 3228W        W 6747   9.369   8.226   9.930 -0.1222 -0.2397 -0.0427
 3229W        W 6748   3.773   5.769   1.554  0.1876 -0.1343  0.0838
 3230W        W 6749   6.611   6.705  11.915  0.0404 -0.0398 -0.2233
 3231W        W 6750   9.358   6.740  10.030  0.0332 -0.1000 -0.2274
 3232W        W 6751   4.239   8.412   1.453  0.1419  0.1615 -0.3130
 3233W        W 6752   1.481   4.801   3.649  0.2679  0.2817  0.0059
 3234W        W 6753   6.097   0.984   9.458 -0.0205  0.0469 -0.0367
 3235W        W 6754   0.319   6.590   0.826 -0.0391  0.0668 -0.1936
 3236W        W 6755   1.339   7.590   1.563 -0.2466 -0.1978  0.0936
 3237W        W 6756   0.011   7.049   3.945  0.3570 -0.2139 -0.2257
 3238W        W 6757   1.644   0.135   2.270  0.0522 -0.1296  0.2110
 3239W        W 6758   0.385   1.720   1.965  0.1323 -0.1996  0.0849
 3240W        W 6759   6.839   0.652   2.490  0.2069  0.1333 -0.1496
 3241W        W 6760   0.631   5.878   0.772  0.1855  0.0890 -0.1331
 3242W        W 6761   2.308   3.327   0.965  0.1946 -0.0121 -0.4729
 3243W        W 6762   3.960   1.070   3.545  0.0887 -0.0776  0.2297
 3244W        W 6763   7.376   8.067   1.451  0.0402 -0.0430 -0.0745
 3245W        W 6764   4.001   8.904  10.743  0.1221 -0.0061  0.2651
 3246W        W 6765   8.328   7.525  10.491 -0.0705  0.1260  0.0084
 3247W        W 6766   1.802   3.502  10.373 -0.1100  0.1286  0.1465
 3248W        W 6767   0.003   6.207   8.969  0.0895  0.0133  0.3024
 3249W        W 6768   9.205   1.533   0.684 -0.1869 -0.2013  0.1330
 3250W        W 6769   9.030   4.048   3.587  0.1107 -0.0636  0.0425
 3251W        W 6770   9.567   0.834  11.946  0.2794  0.3667 -0.0065
 3252W        W 6771   5.629   5.083  10.462 -0.2903 -0.0663 -0.3763
 3253W        W 6772   7.931   3.123   3.237  0.5924  0.0288 -0.1509
 3254W        W 6773   8.047   0.794   1.073 -0.1435 -0.0151  0.4240
 3255W        W 6774   9.549   8.852   3.576  0.0631  0.1742  0.1503
 3256W        W 6775   7.976   4.466   2.872  0.0307  0.0487 -0.1520
 3257W        W 6776   4.904   5.543   1.047  0.0025 -0.0869  0.0891
 3258W        W 6777   9.352   8.920   2.189 -0.0252 -0.0713  0.1409
 3259W        W 6778   5.701   3.164  11.570 -0.1260 -0.0298  0.0561
 3260W        W 6779   4.382   3.716   9.707  0.1119 -0.0619  0.1686
 3261W        W 6780   3.293   7.720   3.449 -0.0466 -0.2874 -0.0285
 3262W        W 6781   0.093   0.282   1.345  0.1658 -0.0234  0.0977
 3263W        W 6782   0.691   1.962  11.545  0.2521 -0.0152  0.1844
 3264W        W 6783   8.656   5.477   2.143 -0.1103 -0.1084 -0.0755
 3265W        W 6784   2.512   9.113   9.608 -0.0016  0.2236  0.0781
 3266W        W 6785   0.889   5.136  11.655 -0.2004 -0.0946  0.1900
 3267W        W 6786   6.429   1.754   1.260  0.1128 -0.2001  0.0851
 3268W        W 6787   9.780   0.161  10.605  0.0800  0.4558 -0.0608
 3269W        W 6788   7.613   0.416   0.408  0.1143  0.2266 -0.3888
 3270W        W 6789   8.261   4.733  11.167  0.2797  0.0409 -0.3999
 3271W        W 6790   2.695   4.234   4.579 -0.3044 -0.2998 -0.1086
 3272W        W 6791   0.309   4.618  12.095 -0.3291  0.3276  0.1162
 3273W        W 6792   0.972   4.878  10.113  0.1210  0.0483  0.1979
 3274W        W 6793   6.422   3.494  10.204 -0.2255  0.0200 -0.0124
 3275W        W 6794   2.607   1.173   3.975 -0.3876  0.1702  0.1824
 3276W        W 6795   5.417   6.344  10.286  0.0989 -0.0459  0.0220
 3277W        W 6796   9.631   0.399   0.060  0.4338 -0.2418 -0.0764
 3278W        W 6797   9.325   2.031  11.580 -0.2342 -0.0017  0.0043
 3279W        W 6798   8.792   6.050   2.813  0.2114  0.0209  0.2529
 3280W        W 6799   8.852   2.528  10.264 -0.1184 -0.1291 -0.0728
 3281W        W 6800   7.535   3.148   1.232  0.2472 -0.1515  0.0247
 3282W        W 6801   2.439   3.016   9.394  0.1791  0.2616 -0.2589
 3283W        W 6802   8.338   7.996   3.256 -0.0837  0.0282  0.1253
 3284W        W 6803   5.249   4.781   9.351 -0.0510  0.2785 -0.1296
 3285W        W 6804   6.865   0.150   1.642  0.3588 -0.0008  0.0411
 3286W        W 6805   4.992   6.600  11.291  0.1787 -0.0609 -0.2513
 3287W        W 6806   4.358   1.557   1.022  0.2176 -0.2055  0.1746
 3288W        W 6807   1.369   2.848   3.014 -0.0112  0.0207 -0.1102
 3289W        W 6808   0.457   7.097   4.199 -0.1086 -0.2732  0.1960
 3290W        W 6809   4.794   2.224   9.557  0.0511 -0.0148 -0.4174
 3291W        W 6810   7.427   2.658   8.899 -0.2549  0.0871  0.5104
 3292W        W 6811   5.619   7.877   3.325 -0.1521  0.0003 -0.2242
 3293W        W 6812   7.351   2.951   2.438 -0.3130  0.1386  0.0732
 3294W        W 6813   5.759   1.195   1.789 -0.3301 -0.1242 -0.2124
 3295W        W 6814   3.303   1.651   2.107 -0.2031 -0.2497 -0.1141
 3296W        W 6815   3.862   0.458  10.491  0.3231  0.1969  0.1127
 3297W        W 6816   8.094   4.399   1.988 -0.0713 -0.1936 -0.2971
 3298W        W 6817   4.697   6.829  10.338  0.3107 -0.3139  0.0430
 3299W        W 6818   0.474   9.488   2.581  0.2432 -0.2625  0.1705
 3300W        W 6819   8.156   3.523   8.314  0.3425 -0.1290 -0.1524
 3301W        W 6820   5.139   5.196  10.927 -0.1350  0.1965 -0.0184
 3302W        W 6821   9.169   6.146   0.008 -0.1272 -0.0646 -0.0479
 3303W        W 6822   7.307   8.903   3.902  0.4412 -0.1393  0.0796
 3304W        W 6823   3.479   4.783   9.523  0.3753 -0.2056  0.2079
 3305W        W 6824   4.919   6.598   2.569 -0.1588 -0.0721 -0.0091
 3306W        W 6825   4.836   3.172   3.554  0.0026 -0.0013 -0.2207
 3307W        W 6826   2.607   6.396   0.151  0.1390  0.1691  0.1525
 3308W        W 6827   5.551   4.315   8.532 -0.3415 -0.1545  0.0803
 3309W        W 6828   4.111   7.710   0.955  0.0607 -0.1347  0.0189
 3310W        W 6829   0.216   7.210  10.063  0.2149  0.0171 -0.0882
 3311W        W 6830   9.737   3.664   0.758  0.1227  0.1096  0.2551
 3312W        W 6831   1.178   6.359   4.427 -0.0296  0.2657  0.0597
 3313W        W 6832   8.458   2.795   3.366  0.3993  0.0397  0.1241
 3314W        W 6833   1.465   6.594  10.132 -0.1730 -0.0070  0.0754
 3315W        W 6834   4.460   8.590   2.453  0.2204  0.3257  0.0401
 3316W        W 6835   2.205   2.401   3.821 -0.2000 -0.0881 -0.2697
 3317W        W 6836   8.672   4.689   8.929  0.0016 -0.1095 -0.2604
 3318W        W 6837   0.289   8.589  10.923 -0.1838  0.3358  0.3044
 3319W        W 6838   7.822   4.331   8.817  0.0917 -0.1711 -0.2089
 3320W        W 6839   4.275   4.323   3.557 -0.2714 -0.0604  0.0415
 3321W        W 6840   7.322   7.075   9.657 -0.1785  0.0936  0.0207
 3322W        W 6841   8.264   9.724  10.334 -0.1086  0.1043 -0.0360
 3323W        W 6842   0.574   5.091  10.406 -0.1142 -0.0766  0.0951
 3324W        W 6843   7.290   5.040   9.158  0.0634 -0.1900 -0.0002
 3325W        W 6844   7.752   4.285   3.719 -0.4357  0.0345 -0.3635
 3326W        W 6845   4.061   1.505   3.726 -0.0933  0.1270 -0.1825
 3327W        W 6846   5.150   0.663  10.197 -0.1233  0.1162  0.0879
 3328W        W 6847   9.593   5.381   1.341 -0.2914  0.0460 -0.2002
 3329W        W 6848   6.549   2.379   0.722  0.0932  0.1956 -0.0029
 3330W        W 6849   1.347   5.237   0.515 -0.1860 -0.1294  0.0391
 3331W        W 6850   9.002   9.571   3.296  0.1762 -0.0142 -0.0362
 3332W        W 6851   8.701   9.539   2.518 -0.1037  0.1740  0.1062
 3333W        W 6852   7.967   4.625   1.000  0.2812  0.0059  0.1670
 3334W        W 6853   1.669   6.317  11.727  0.1149  0.2906 -0.0177
 3335W        W 6854   6.313   8.536  10.609  0.0795  0.0459 -0.0207
 3336W        W 6855   6.829   9.618   2.656  0.4434  0.0584 -0.1155
 3337W        W 6856   4.548   2.918   1.823 -0.0622 -0.0761  0.1523
 3338W        W 6857   9.789   2.326   0.303  0.1480  0.0087 -0.3083
 3339W        W 6858   7.414   9.185  10.190 -0.0104  0.0520  0.0635
 3340W        W 6859   4.509   9.545   1.137 -0.0147 -0.2307  0.1770
 3341W        W 6860   7.021   2.839   8.604 -0.0795  0.1359  0.0979
 3342W        W 6861   2.591   8.854   2.267 -0.2483  0.0342  0.0080
 3343W        W 6862   0.182   6.613  10.546 -0.3124 -0.1039  0.1320
 3344W        W 6863   4.500   4.149  10.441  0.3542 -0.1918 -0.2534
 3345W        W 6864   1.271   4.539   0.141 -0.1961  0.0747 -0.2530
 3346W        W 6865   1.506   0.314  11.264 -0.2222  0.3851 -0.5937
 3347W        W 6866   8.156   7.671   9.950  0.4548 -0.0669 -0.0115
 3348W        W 6867   7.460   7.893   8.019 -0.0500  0.1361  0.0236
 3349W        W 6868   3.455   3.462  11.943  0.3298  0.4982 -0.0944
 3350W        W 6869   3.370   8.979   0.683  0.1045 -0.1632  0.2947
 3351W        W 6870   6.624   0.286  11.002 -0.1207 -0.2822  0.0621
 3352W        W 6871   1.766   7.666   2.806 -0.1335 -0.5269  0.0870
 3353W        W 6872   2.508   2.415   4.194  0.2687  0.1497 -0.1224
 3354W        W 6873   4.756   2.657   3.690  0.1232  0.1191  0.0287
 3355W        W 6874   0.289   0.091  10.923  0.1905 -0.2311 -0.4123
 3356W        W 6875   8.809   8.535  11.499 -0.2218  0.1809  0.1267
 3357W        W 6876   8.728   0.760   0.207 -0.0929  0.1019  0.1604
 3358W        W 6877   2.131   1.768   3.439  0.5072 -0.2151  0.0700
 3359W        W 6878   1.789   3.626   3.344  0.3442 -0.3221 -0.1675
 3360W        W 6879   0.812   6.351  10.087  0.1217 -0.0836 -0.0909
 3361W        W 6880   7.866   4.080   0.861  0.2008  0.0576  0.0437
 3362W        W 6881   1.505   5.234   1.052  0.2199  0.0038 -0.0832
 3363W        W 6882   5.179   5.601   0.022  0.0781 -0.1711 -0.0624
 3364W        W 6883   6.700   0.691  10.576  0.0334  0.1995 -0.1868
 3365W        W 6884   5.884   6.129   0.391 -0.1359  0.0519  0.0744
 3366W        W 6885   4.811   1.740   9.583 -0.2100  0.2031 -0.1887
 3367W        W 6886   5.095   6.074  10.546  0.3696  0.0194 -0.3115
 3368W        W 6887   5.811   0.275   3.309  0.2330  0.1070 -0.3538
 3369W        W 6888   1.874   1.987   3.903 -0.0153 -0.1221 -0.1927
 3370W        W 6889   6.330   4.158   4.396  0.2083  0.0329  0.1289
 3371W        W 6890   1.577   5.522   1.696 -0.0072 -0.2128 -0.1503
 3372W        W 6891   1.941   5.536   4.262  0.1292  0.1317 -0.3870
 3373W        W 6892   9.538   7.248   2.485  0.0534 -0.0621 -0.0184
 3374W        W 6893   9.650   2.914   2.883  0.1749 -0.2076 -0.3018
 3375W        W 6894   6.370   3.767  11.092 -0.2545  0.0127 -0.0191
 3376W        W 6895   7.318   2.982  12.088 -0.2703  0.0564  0.2172
 3377W        W 6896   0.711   9.782   0.718 -0.4504 -0.3921  0.2465
 3378W        W 6897   5.562   7.940  11.495  0.1310  0.0127 -0.0947
 3379W        W 6898   5.285   7.065   4.859  0.0754  0.0947 -0.2224
 3380W        W 6899   4.274   1.358  11.126  0.1672  0.3136  0.0674
 3381W        W 6900   5.465   6.974   3.793  0.0956  0.0394 -0.1513
 3382W        W 6901   1.032   2.537   0.560  0.2785 -0.1146 -0.2258
 3383W        W 6902   2.978   5.649   2.028 -0.1662 -0.2312 -0.2623
 3384W        W 6903   0.158   9.236   3.920  0.0750  0.1414  0.2451
 3385W        W 6904   3.191   5.762   8.684 -0.0042  0.0553 -0.0308
 3386W        W 6905   6.051   3.759   1.953 -0.2258 -0.0208  0.1673
 3387W        W 6906   4.714   9.088   1.254  0.2019 -0.0649  0.3074
 3388W        W 6907   8.793   1.470  11.151 -0.1394  0.2954  0.3416
 3389W        W 6908   0.171   9.078   9.227 -0.0537  0.2277  0.1398
 3390W        W 6909   2.252   7.279   2.585  0.2036  0.0293 -0.1954
 3391W        W 6910   7.044   5.355   9.522 -0.1602  0.1403 -0.3192
 3392W        W 6911   0.955   8.870   0.270 -0.1025  0.2424 -0.1773
 3393W        W 6912   3.632   4.232   2.825  0.0003  0.0743 -0.0894
 3394W        W 6913   5.930   2.672   9.583  0.1555 -0.1282 -0.0910
 3395W        W 6914   4.630   0.902   4.398  0.0046 -0.1228  0.3034
 3396W        W 6915   0.292   1.675  11.723  0.1169  0.0769  0.0907
 3397W        W 6916   6.798   5.129   9.933  0.0852  0.5776  0.2684
 3398W        W 6917   3.897   1.641   1.148 -0.0372  0.4161  0.0596
 3399W        W 6918   6.019   4.390   0.184 -0.1246  0.3063 -0.1781
 3400W        W 6919   2.013   6.041   4.496  0.1969  0.0382  0.1743
 3401W        W 6920   9.071   4.498   0.808  0.3590  0.0111 -0.2792
 3402W        W 6921   1.706   0.581   3.741  0.2570  0.0884  0.1967
 3403W        W 6922   6.745   7.662   3.738 -0.0679 -0.1971  0.0538
 3404W        W 6923   5.838   8.569  11.975 -0.2972 -0.0636 -0.1246
 3405W        W 6924   4.960   2.323   2.029 -0.2705 -0.1370  0.1675
 3406W        W 6925   7.125   7.160   2.131  0.0783  0.1888  0.2083
 3407W        W 6926   5.249   8.513   1.098  0.0398  0.0411 -0.4437
 3408W        W 6927   0.721   4.218   0.540 -0.0213  0.0931  0.0013
 3409W        W 6928   0.254   4.385  10.065  0.2800  0.0449 -0.2110
 3410W        W 6929   7.193   1.725   9.549  0.0558  0.0968  0.0927
 3411W        W 6930   5.207   5.797   1.431 -0.1411 -0.1094 -0.0499
 3412W        W 6931   9.584   1.951  11.100 -0.0267 -0.1049 -0.0458
 3413W        W 6932   4.212   8.566   4.822 -0.0313 -0.0562  0.0254
 3414W        W 6933   0.964   9.641   2.637 -0.0931 -0.0769 -0.0912
 3415W        W 6934   7.699   7.384   9.759 -0.1599  0.0765 -0.1916
 3416W        W 6935   2.108   8.841  10.887 -0.2774  0.2146  0.1544
 3417W        W 6936   3.940   5.036   1.240 -0.2782 -0.2988  0.3620
 3418W        W 6937   6.310   3.822   5.245 -0.0430  0.4675  0.3205
 3419W        W 6938   8.969   4.306   9.771  0.1515 -0.0386 -0.0245
 3420W        W 6939   0.587   3.539  11.524 -0.3553  0.0955  0.0160
 3421W        W 6940   0.956   8.711   0.757 -0.0169 -0.0784 -0.3054
 3422W        W 6941   2.647   5.243  10.588  0.0600  0.0225  0.0077
 3423W        W 6942   1.773   2.338   0.148 -0.1110 -0.0242  0.4838
 3424W        W 6943   6.092   6.829  10.537 -0.2425  0.0002  0.0572
 3425W        W 6944   4.076   6.667   9.538  0.2524  0.1983 -0.2429
 3426W        W 6945   8.709   7.009  11.270 -0.1099  0.1425 -0.2503
 3427W        W 6946   5.052   7.264   9.098  0.1246 -0.2907  0.0539
 3428W        W 6947   0.076   3.119   9.794  0.0254  0.1510  0.0304
 3429W        W 6948   7.937   0.174   2.576 -0.1940  0.1463  0.0323
 3430W        W 6949   1.447   1.622  10.205 -0.0141  0.3512  0.1487
 3431W        W 6950   2.198   5.266   3.852 -0.0027 -0.0774  0.2005
 3432W        W 6951   0.848   4.220   3.949 -0.5648 -0.2184  0.2186
 3433W        W 6952   1.932   4.263   9.972 -0.0062 -0.0616  0.0296
 3434W        W 6953   5.431   5.846   4.569  0.0739 -0.0636  0.0356
 3435W        W 6954   6.910   2.452   2.599 -0.1163  0.0285 -0.2238
 3436W        W 6955   1.121   6.556   0.842 -0.1573  0.0641  0.0379
 3437W        W 6956   6.848   4.877   4.551  0.2452 -0.1095 -0.0764
 3438W        W 6957   8.924   7.080   1.566  0.0478  0.0460 -0.1416
 3439W        W 6958   7.894   2.016  10.114 -0.0970  0.2073 -0.2506
 3440W        W 6959   5.024   6.593   2.085 -0.0925 -0.0279 -0.0276
 3441W        W 6960   5.871   4.520   2.279 -0.0167 -0.0714 -0.1337
 3442W        W 6961   6.498   2.800   4.327  0.4016 -0.0812  0.3170
 3443W        W 6962   6.630   7.136  11.599 -0.0869 -0.2431 -0.0246
 3444W        W 6963   2.911   6.474   3.674 -0.1268  0.3993  0.3327
 3445W        W 6964   1.472   4.867   4.242  0.1554  0.2126 -0.0108
 3446W        W 6965   8.548   1.276   1.924 -0.0366 -0.1839 -0.1418
 3447W        W 6966   2.177   2.324   8.887  0.0689  0.0345  0.0281
 3448W        W 6967   4.881   8.708   9.772  0.0237 -0.1585  0.2547
 3449W        W 6968   0.910   0.890   1.657  0.3579 -0.1649  0.0553
 3450W        W 6969   9.039   7.431   4.123  0.0163 -0.3018  0.0176
 3451W        W 6970   1.042   1.739   0.362 -0.3346  0.1656  0.0014
 3452W        W 6971   8.148   0.561   4.211  0.1191  0.1778  0.0410
 3453W        W 6972   3.146   6.322   0.126 -0.4589  0.0594  0.0463
 3454W        W 6973   0.339   5.606   3.080  0.2935  0.0090  0.1363
 3455W        W 6974   2.137   2.646   2.708 -0.2129 -0.0448  0.2616
 3456W        W 6975   0.637   2.623   2.229 -0.0601  0.0014 -0.0331
 3457W        W 6976   6.783   6.161   8.855  0.0578 -0.1299 -0.1725
 3458W        W 6977   5.451   3.319   9.925 -0.3175  0.1462 -0.3278
 3459W        W 6978   4.132   2.357   4.934 -0.1941  0.3291 -0.0964
 3460W        W 6979   9.416   5.298   1.873 -0.2483 -0.1344  0.3086
 3461W        W 6980   4.580   3.215   2.249 -0.1170  0.0962 -0.1009
 3462W        W 6981   8.656   7.308   1.978  0.0663  0.1169 -0.1075
 3463W        W 6982   2.121   6.126  11.517  0.3568  0.1344 -0.2438
 3464W        W 6983   0.192   5.731   8.223  0.0890  0.1428  0.1427
 3465W        W 6984   4.516   0.573  11.631 -0.0840  0.2819  0.1882
 3466W        W 6985   1.216   8.799   2.217 -0.2018  0.2405 -0.1594
 3467W        W 6986   6.802   1.575   2.263  0.0910 -0.0393 -0.1412
 3468W        W 6987   7.340   4.477   9.631  0.1299  0.1863  0.0366
 3469W        W 6988   1.604   5.068   1.515 -0.1032  0.0429  0.1201
 3470W        W 6989   9.046   4.950  11.581  0.2969 -0.0047 -0.1208
 3471W        W 6990   5.034   5.334   9.957 -0.2225  0.3198 -0.1021
 3472W        W 6991   6.459   0.727  11.709 -0.2346 -0.3097  0.1960
 3473W        W 6992   1.092   4.714   2.727  0.1266 -0.2676 -0.0321
 3474W        W 6993   1.343   2.234   3.166 -0.1260  0.0717  0.0766
 3475W        W 6994   7.632   7.639   3.513  0.1310  0.2513  0.0430
 3476W        W 6995   4.356   2.419   1.773 -0.1380 -0.0859  0.2287
 3477W        W 6996   3.223   9.219   9.094  0.1567 -0.2355  0.0090
 3478W        W 6997   0.681   5.310  10.912  0.3587 -0.2249 -0.1466
 3479W        W 6998   4.441   2.917  10.920  0.0714 -0.4152 -0.1001
 3480W        W 6999   8.741   7.694   8.327 -0.1986  0.1104 -0.1846
 3481W        W 7000   4.452   2.650   8.998 -0.2546 -0.1642  0.1112
 3482W        W 7001   7.657   4.405  10.065  0.1636  0.2107  0.0446
 3483W        W 7002   9.172   9.329  10.594  0.0505 -0.0264  0.0924
 3484W        W 7003   7.278   7.436   2.464  0.0198 -0.2580  0.1858
 3485W        W 7004   7.188   4.988   1.608 -0.0801 -0.1329 -0.1442
 3486W        W 7005   8.554   4.424   1.558  0.0547 -0.1874 -0.0957
 3487W        W 7006   5.951   6.387  10.275 -0.4708  0.2511 -0.0285
 3488W        W 7007   1.080   7.747  10.734 -0.0944  0.0554 -0.0856
 3489W        W 7008   3.184   9.122   0.136 -0.0250 -0.1412  0.1020
 3490W        W 7009   0.397   3.606   2.090  0.0494 -0.0944 -0.0975
 3491W        W 7010   5.654   0.611   2.649  0.2669  0.1804 -0.0219
 3492W        W 7011   3.820   1.879   3.056 -0.1440 -0.2941 -0.1911
 3493W        W 7012   2.240   5.382   9.510 -0.1969  0.0484  0.0142
 3494W        W 7013   3.194   6.545   9.314  0.3504  0.1509  0.0253
 3495W        W 7014   0.463   2.153   2.210  0.0785  0.4043 -0.0758
 3496W        W 7015   7.505   0.008   2.361 -0.1082 -0.2300 -0.1652
 3497W        W 7016   9.868   7.617  10.473 -0.0985 -0.0108 -0.1060
 3498W        W 7017   6.495   1.950   2.384  0.1532  0.0385  0.3866
 3499W        W 7018   4.828   7.122   1.475  0.3016  0.3808 -0.2240
 3500W        W 7019   4.923   3.956  11.547  0.0689 -0.1141  0.1065
 3501W        W 7020   2.082   2.237   9.879 -0.0572  0.1049 -0.1922
 3502W        W 7021   0.565   1.183   0.910 -0.1987 -0.3168  0.0176
 3503W        W 7022   7.341   3.965   1.505  0.1385 -0.0068  0.3383
 3504W        W 7023   2.235   5.759   3.987  0.0568  0.0617 -0.2315
 3505W        W 7024   9.039   5.384  10.735  0.2251 -0.1210 -0.0574
 3506W        W 7025   7.042   3.456   0.809  0.1316  0.0868  0.0864
 3507W        W 7026   5.698   3.981   1.401  0.1583  0.0524  0.0712
 3508W        W 7027   5.183   2.213  11.829 -0.0788  0.1408  0.0290
 3509W        W 7028   6.010   7.061   1.865  0.3231  0.5562  0.0782
 3510W        W 7029   9.485   5.388   3.586 -0.1276 -0.0326 -0.0825
 3511W        W 7030   3.042   4.718   1.722  0.2787  0.1070 -0.2290
 3512W        W 7031   3.771   1.612   2.013 -0.0225 -0.2088  0.0970
 3513W        W 7032   5.310   5.967   3.281 -0.3014 -0.1529 -0.3338
 3514W        W 7033   3.352   9.487   1.467 -0.3723 -0.1580  0.1992
 3515W        W 7034   6.811   4.573   2.675  0.0829 -0.0490  0.3320
 3516W        W 7035   8.752   1.421   9.247  0.0480  0.1465  0.2281
 3517W        W 7036   7.095   1.762  10.237 -0.1840 -0.1429 -0.2792
 3518W        W 7037   7.809   5.118   2.948 -0.3522  0.1584  0.0440
 3519W        W 7038   6.418   3.149   3.320 -0.0310  0.1335  0.0023
 3520W        W 7039   8.432   2.152   0.159 -0.1409  0.0635  0.2910
 3521W        W 7040   5.225   1.685   4.240  0.2823 -0.2848  0.0702
 3522W        W 7041   4.659   1.965   0.624 -0.2135 -0.1173  0.3441
 3523W        W 7042   5.646   5.630   8.849 -0.0582  0.1205 -0.1833
 3524W        W 7043   6.407   3.315   9.377  0.1538  0.1096 -0.1349
 3525W        W 7044   8.995   5.006   3.028  0.1445  0.0431 -0.1947
 3526W        W 7045   3.998   0.546   1.319 -0.0388  0.2937 -0.3529
 3527W        W 7046   2.925   9.623   1.851  0.0524 -0.3379 -0.1117
 3528W        W 7047   2.385   8.053   1.751  0.1676 -0.1530  0.3114
 3529W        W 7048   1.136   5.164   2.460 -0.0225  0.0971  0.1400
 3530W        W 7049   6.051   4.669   1.552  0.1092  0.0047 -0.0094
 3531W        W 7050   2.043   6.764   2.560 -0.1847  0.1057  0.3495
 3532W        W 7051   7.359   7.721   9.501  0.3003 -0.0967 -0.0672
 3533W        W 7052   8.165   2.047   4.193  0.3744  0.2967  0.0652
 3534W        W 7053   5.183   0.828   3.652  0.0987 -0.2450  0.1333
 3535W        W 7054   8.164   2.424   0.973  0.0007 -0.1814  0.3250
 3536W        W 7055   7.804   9.283   2.302 -0.4567 -0.2939 -0.0343
 3537W        W 7056   0.182   2.579   2.356  0.0776  0.2387 -0.2454
 3538W        W 7057   6.232   3.562   0.426 -0.1720  0.0297 -0.1889
 3539W        W 7058   1.032   3.941   4.358 -0.2333  0.0236 -0.1841
 3540W        W 7059   5.092   5.317   4.813  0.1884  0.0331  0.3413
 3541W        W 7060   0.640   3.014   2.510  0.1431 -0.0534  0.1857
 3542W        W 7061   6.702   8.454   1.829 -0.0217 -0.2127 -0.2123
 3543W        W 7062   3.998   4.585   2.771 -0.0142  0.2315 -0.1290
 3544W        W 7063   4.096   7.735  10.615  0.0372 -0.0241 -0.0313
 3545W        W 7064   1.355   4.794   1.184  0.1163  0.2477  0.2487
 3546W        W 7065   6.647   2.988  10.407  0.0550 -0.5112 -0.0498
 3547W        W 7066   5.966   9.614   2.185 -0.1186 -0.0864 -0.0757
 3548W        W 7067   1.505   6.478   3.524  0.1712  0.1930  0.2750
 3549W        W 7068   4.928   2.380   9.088 -0.2661 -0.3636 -0.1094
 3550W        W 7069   8.887   8.962   1.967  0.0526  0.0305  0.1395
 3551W        W 7070   8.323   4.957   3.710 -0.0034 -0.1477 -0.0634
 3552W        W 7071   9.214   0.373  10.762  0.2068  0.1235 -0.0835
 3553W        W 7072   6.588   6.695   8.163  0.6277 -0.1296  0.1002
 3554W        W 7073   9.598   8.269   0.628 -0.1405 -0.0520 -0.1015
 3555W        W 7074   1.596   7.767   3.320  0.0756 -0.1317 -0.1476
 3556W        W 7075   9.735   7.051   9.732  0.0957  0.1472 -0.1926
 3557W        W 7076   0.856   2.215   1.264 -0.1032  0.0682 -0.1782
 3558W        W 7077   6.175   7.127   0.594 -0.0877  0.2636  0.0786
 3559W        W 7078   6.705   2.523  10.936  0.4756 -0.1392 -0.0376
 3560W        W 7079   7.181   6.608   9.456 -0.0830 -0.1569 -0.0341
 3561W        W 7080   2.174   2.303  11.071 -0.0474 -0.1246  0.2181
 3562W        W 7081   9.547   2.403   2.319 -0.0235  0.4842 -0.1525
 3563W        W 7082   2.688   8.361   2.307  0.1004  0.0933  0.3597
 3564W        W 7083   3.143   0.350   2.117  0.0220  0.0992  0.0399
 3565W        W 7084   6.140   1.959   9.450 -0.2800  0.2872  0.0871
 3566W        W 7085   1.329   2.425   2.179 -0.3234 -0.0955 -0.3002
 3567W        W 7086   4.383   3.025  10.401 -0.0719 -0.0796 -0.2746
 3568W        W 7087   5.085   8.764  11.306 -0.1222  0.1220  0.0654
 3569W        W 7088   6.360   8.820   1.919 -0.1913 -0.0871 -0.0819
 3570W        W 7089   1.333   8.074  10.233 -0.1104 -0.1961  0.0434
 3571W        W 7090   6.175   9.561   4.602 -0.0919  0.0314  0.2716
 3572W        W 7091   2.074   3.245  10.744  0.2549 -0.3569 -0.1893
 3573W        W 7092   2.516   2.016  10.179 -0.2333 -0.1730 -0.4576
 3574W        W 7093   5.855   8.094   4.746  0.0131 -0.0409 -0.0644
 3575W        W 7094   1.651   6.025   2.652  0.2356  0.1457  0.0081
 3576W        W 7095   4.748   2.707   9.436 -0.1146  0.1840 -0.1950
 3577W        W 7096   4.598   5.037   4.634 -0.3672  0.0319 -0.0004
 3578W        W 7097   6.037   1.005   2.227 -0.1293 -0.0401 -0.1201
 3579W        W 7098   3.998   3.834   2.556 -0.0139 -0.0330  0.0304
 3580W        W 7099   7.244   2.642   9.696  0.0771  0.0449 -0.1093
 3581W        W 7100   7.892   2.798   8.738 -0.2492  0.0139 -0.2643
 3582W        W 7101   8.790   6.460   2.517  0.3139 -0.1056  0.2688
 3583W        W 7102   4.764   7.024   3.762  0.2175 -0.2256 -0.1021
 3584W        W 7103   1.246   2.162  11.463 -0.2304 -0.1246  0.1924
 3585W        W 7104   8.758   5.710  10.238  0.0560 -0.1339  0.2294
 3586W        W 7105   1.914   6.933   4.365 -0.2883 -0.1346  0.3964
 3587W        W 7106   9.390   2.741   0.554 -0.1022  0.0648  0.0261
 3588W        W 7107   9.718   8.436   2.094 -0.1457  0.0000  0.1680
 3589W        W 7108   4.598   3.271   1.173 -0.1940 -0.0635  0.0965
 3590W        W 7109   0.619   2.779   3.277  0.4070 -0.0432  0.2791
 3591W        W 7110   9.273   0.120   0.368  0.1210  0.0862  0.2945
 3592W        W 7111   7.951   7.457   4.194  0.1709  0.0963  0.2022
 3593W        W 7112   9.396   3.874   4.312 -0.0841 -0.1600  0.2359
 3594W        W 7113   1.638   5.142  10.368 -0.1215  0.1044 -0.2441
 3595W        W 7114   5.247   0.149   9.732  0.1321 -0.1204 -0.0163
 3596W        W 7115   8.053   9.108   3.396  0.0430 -0.1612 -0.2207
 3597W        W 7116   7.423   5.696   9.632 -0.1497 -0.0248 -0.0220
 3598W        W 7117   5.506   7.308   0.353 -0.2884  0.4204 -0.0273
 3599W        W 7118   3.711   0.533  11.136 -0.0226  0.0322  0.0603
 3600W        W 7119   4.987   7.752   2.538 -0.1960  0.2661 -0.3005
 3601W        W 7120   5.205   2.848   9.081  0.1787  0.0021  0.1943
 3602W        W 7121   6.256   3.993   0.208 -0.2286 -0.1365  0.1519
 3603W        W 7122   6.183   6.845   1.054 -0.1927  0.0141 -0.0268
 3604W        W 7123   0.759   4.677   0.080 -0.2752 -0.1017 -0.1963
 3605W        W 7124   4.120   2.046   2.681 -0.2146 -0.1367  0.2984
 3606W        W 7125   4.156   2.599   0.685  0.2015  0.0716 -0.3656
 3607W        W 7126   3.580   8.155   3.519 -0.1749  0.1294  0.2527
 3608W        W 7127   2.886   7.191   0.489  0.3406  0.2475  0.0609
 3609W        W 7128   5.075   3.930   1.786  0.0578  0.0681  0.0605
 3610W        W 7129   8.970   4.677   0.356  0.4977 -0.0419 -0.1855
 3611W        W 7130   3.907   3.621   8.616  0.2063 -0.3315  0.1720
 3612W        W 7131   3.386   2.055   5.322  0.1175 -0.0322 -0.1115
 3613W        W 7132   3.291   1.257  10.950  0.1452 -0.0571 -0.1702
 3614W        W 7133   2.648   6.445   8.794 -0.0115  0.1191 -0.2900
 3615W        W 7134   3.250   2.792   8.477 -0.1865 -0.0642  0.2123
 3616W        W 7135   1.399   1.693   0.714  0.2826  0.2169 -0.4281
 3617W        W 7136   6.862   5.896   2.440 -0.0268 -0.0786  0.2155
 3618W        W 7137   0.197   6.351   2.307  0.0253  0.1132 -0.1614
 3619W        W 7138   3.759   0.150   3.414 -0.0442 -0.2153 -0.3475
 3620W        W 7139   7.141   0.305   9.895  0.2223 -0.0279 -0.0746
 3621W        W 7140   7.865   7.098   1.612 -0.3106  0.0179 -0.3349
 3622W        W 7141   9.878   8.938   2.112  0.2949  0.1140  0.0574
 3623W        W 7142   3.188   1.830   1.639  0.1717  0.1887 -0.1233
 3624W        W 7143   6.823   9.223   3.766  0.1423 -0.2285  0.1272
 3625W        W 7144   0.267   4.105   3.765  0.0915 -0.4432 -0.1036
 3626W        W 7145   4.370   8.272   9.526 -0.1131  0.2053  0.1763
 3627W        W 7146   7.078   0.194   2.549  0.1335 -0.1345 -0.3891
 3628W        W 7147   4.051   8.071  11.821  0.2454 -0.1175  0.1638
 3629W        W 7148   6.894   7.709   2.167  0.0533 -0.1991  0.3107
 3630W        W 7149   8.691   1.217   0.524 -0.0714  0.0246  0.1464
 3631W        W 7150   4.229   6.162   0.779 -0.0080 -0.0074 -0.0645
 3632W        W 7151   4.164   7.060  11.940  0.1501  0.3180  0.1392
 3633W        W 7152   5.274   4.024   9.175 -0.1557  0.1732 -0.5293
 3634W        W 7153   4.718   0.279   9.649  0.1996  0.0203 -0.0049
 3635W        W 7154   9.449   8.377  10.401  0.0692 -0.1639  0.0424
 3636W        W 7155   4.432   6.698   2.831 -0.1588  0.3262  0.2277
 3637W        W 7156   0.126   4.556  11.438 -0.2129  0.0726  0.0428
 3638W        W 7157   0.861   8.228   4.222 -0.3006 -0.1689  0.1736
 3639W        W 7158   5.602   7.389   3.570  0.1465  0.1971 -0.0999
 3640W        W 7159   5.092   1.548   9.132  0.0872  0.1061  0.2274
 3641W        W 7160   6.749   2.748   2.979  0.0534  0.1112 -0.2590
 3642W        W 7161   4.341   1.817   4.264 -0.3626 -0.2213 -0.0910
 3643W        W 7162   1.389   7.775   4.373  0.3143  0.2349 -0.4869
 3644W        W 7163   4.926   1.198   3.303  0.1399 -0.2151 -0.2023
 3645W        W 7164   1.024   9.505  10.674  0.2350 -0.1955 -0.0324
 3646W        W 7165   4.536   3.173   3.089 -0.2281  0.0266 -0.2214
 3647W        W 7166   2.952   9.401   9.480 -0.0300 -0.3011  0.1982
 3648W        W 7167   5.292   0.421   3.296 -0.1801  0.0889 -0.2230
 3649W        W 7168   6.568   2.313   9.531  0.0901  0.1822 -0.2803
 3650W        W 7169   7.444   7.008   3.463  0.2053 -0.1729  0.0175
 3651W        W 7170   5.027   2.410   9.959 -0.1142 -0.1597 -0.2032
 3652W        W 7171   6.223   7.337   1.057  0.1210  0.0025  0.0486
 3653W        W 7172   0.105   1.096  11.984 -0.1430 -0.0088  0.0194
 3654W        W 7173   1.392   9.661   0.501  0.0725 -0.0614  0.1493
 3655W        W 7174   8.207   3.166   4.220 -0.1444  0.1526  0.0731
 3656W        W 7175   5.632   3.077   8.634 -0.0961 -0.0411  0.3529
 3657W        W 7176   3.078   5.134   8.842 -0.2284 -0.3432 -0.0854
 3658W        W 7177   9.794   1.988   2.448  0.0270  0.1048  0.1933
 3659W        W 7178   1.569   2.731   2.540  0.0461  0.2553 -0.1676
 3660W        W 7179   3.422   5.516   4.759  0.1966 -0.0701  0.0818
 3661W        W 7180   5.877   5.117   9.814  0.2443 -0.1363  0.2924
 3662W        W 7181   5.469   5.811   0.424 -0.1269  0.2107  0.3861
 3663W        W 7182   3.159   1.290   0.601 -0.1783 -0.0970  0.1939
 3664W        W 7183   1.841   1.384   8.962 -0.2179  0.0239  0.1179
 3665W        W 7184   5.352   0.256   2.337  0.0557  0.0214  0.0533
 3666W        W 7185   1.407   5.224  11.439  0.2874  0.2962  0.0164
 3667W        W 7186   8.633   4.854  10.762  0.0167  0.2304 -0.3150
 3668W        W 7187   8.952   0.470   0.587 -0.3699 -0.1979  0.2391
 3669W        W 7188   7.808   5.433   9.390  0.3487  0.4755 -0.1733
 3670W        W 7189   7.279   1.747   9.045 -0.1394  0.2305 -0.2828
 3671W        W 7190   2.889   5.357   8.462 -0.1024  0.2509 -0.1950
 3672W        W 7191   9.202   4.579   8.874  0.2718  0.0086  0.2807
 3673W        W 7192   3.399   9.118  11.359  0.2125  0.0266 -0.0990
 3674W        W 7193   7.338   7.707   0.575 -0.1911 -0.2469  0.1714
 3675W        W 7194   5.345   7.198   1.340 -0.3053 -0.0707 -0.0708
 3676W        W 7195   6.963   0.091   9.066 -0.0611  0.0646 -0.1617
 3677W        W 7196   9.857   7.074  11.121  0.0006 -0.1209 -0.0096
 3678W        W 7197   2.118   2.698   9.767 -0.0692  0.0921  0.0891
 3679W        W 7198   6.235   2.751   0.996  0.3552  0.1855  0.0848
 3680W        W 7199   2.660   1.675   3.235 -0.1671  0.0980  0.1311
 3681W        W 7200   7.823   7.390  10.262  0.1903 -0.1156 -0.2995
 3682W        W 7201   3.110   2.873   3.509  0.0570  0.0442 -0.1665
 3683W        W 7202   6.482   2.613  11.768  0.1011 -0.0097 -0.0296
 3684W        W 7203   9.864   8.117   1.584 -0.0122  0.0311  0.0036
 3685W        W 7204   8.706   8.689   9.860  0.2143  0.1662  0.1447
 3686W        W 7205   9.701   4.976   1.626 -0.2004 -0.1775 -0.1063
 3687W        W 7206   9.692   6.336  10.381 -0.0176 -0.0640  0.4472
 3688W        W 7207   2.341   9.231  11.224  0.1705  0.0481 -0.0905
 3689W        W 7208   7.385   2.779   1.587 -0.2001 -0.0537 -0.0931
 3690W        W 7209   7.314   2.285   1.749  0.0767  0.0194  0.1738
 3691W        W 7210   8.613   2.572  10.860 -0.1070  0.1859 -0.0753
 3692W        W 7211   7.493   9.067   9.025 -0.0868  0.0280 -0.2007
 3693W        W 7212   2.767   2.902  10.142  0.4129 -0.0931  0.0154
 3694W        W 7213   5.319   5.304   1.313  0.1548 -0.1313  0.0113
 3695W        W 7214   3.644   6.140   0.261  0.0597 -0.5053  0.0894
 3696W        W 7215   8.579   4.305   3.662  0.1429  0.1796  0.1052
 3697W        W 7216   5.901   5.799   2.117 -0.1559 -0.0225  0.0002
 3698W        W 7217   3.849   3.724   9.865 -0.1474 -0.2046  0.0094
 3699W        W 7218   2.406   3.837   1.519 -0.0930  0.3048  0.1861
 3700W        W 7219   7.470   8.367  11.559 -0.3514 -0.0064  0.0911
 3701W        W 7220   9.392   4.610   1.672 -0.4451  0.1760  0.1168
 3702W        W 7221   4.810   3.988  10.082  0.1816 -0.0027 -0.3208
 3703W        W 7222   2.330   4.813   0.886  0.1294 -0.2134 -0.0895
 3704W        W 7223   5.415   7.555   4.038 -0.2959 -0.0235  0.0303
 3705W        W 7224   9.256   3.778  11.488 -0.5312 -0.2010  0.0468
 3706W        W 7225   5.874   1.952   2.521 -0.1294 -0.0373 -0.4462
 3707W        W 7226   4.995   5.240  11.787  0.1042 -0.2920  0.0232
 3708W        W 7227   1.408   6.928   9.599 -0.0793 -0.1601 -0.0201
 3709W        W 7228   4.055   0.836   0.847 -0.0657 -0.1602 -0.0132
 3710W        W 7229   9.594   0.739   3.675 -0.0940 -0.0182 -0.1961
 3711W        W 7230   5.482   7.224   8.855  0.0459  0.0420 -0.3463
 3712W        W 7231   1.248   7.060  10.943 -0.1458  0.1375  0.1290
 3713W        W 7232   0.034   5.588   4.298  0.0432  0.0901  0.3891
 3714W        W 7233   3.550   7.160   1.603 -0.0322  0.0780  0.1665
 3715W        W 7234   9.872   9.006   0.827  0.3928  0.0353 -0.2013
 3716W        W 7235   2.167   2.386   0.604 -0.1661  0.1088 -0.0177
 3717W        W 7236   6.399   2.758   9.295  0.2493  0.1937  0.0793
 3718W        W 7237   1.352   2.658   9.601 -0.1103  0.1924 -0.1283
 3719W        W 7238   5.851   9.346   9.605  0.0621  0.1809 -0.0366
 3720W        W 7239   0.013   1.056   3.430 -0.1482  0.0036  0.2773
 3721W        W 7240   1.310   0.756   3.418 -0.0169  0.1499 -0.1655
 3722W        W 7241   5.562   8.084  12.027  0.1104 -0.0982  0.0531
 3723W        W 7242   2.296   4.882  11.588  0.0930 -0.0840 -0.0352
 3724W        W 7243   7.966   5.544  10.833  0.1137  0.1258 -0.2826
 3725W        W 7244   0.351   7.536   0.372  0.0951 -0.2001 -0.1253
 3726W        W 7245   6.002   7.575   4.176  0.0785  0.1657  0.1921
 3727W        W 7246   4.238   9.493  10.504 -0.1180 -0.1407 -0.0767
 3728W        W 7247   5.929   4.683  11.057 -0.2066  0.0830 -0.1217
 3729W        W 7248   7.873   5.854   9.790 -0.2433  0.1337 -0.3818
 3730W        W 7249   3.998   5.437   8.858  0.0188 -0.1928  0.0616
 3731W        W 7250   1.296   6.066   9.999  0.1338 -0.2574  0.1556
 3732W        W 7251   0.585   8.994  10.484  0.4259  0.0071 -0.1245
 3733W        W 7252   5.946   1.062   8.274 -0.0496  0.1352 -0.2097
 3734W        W 7253   7.397   6.817   3.964 -0.2112  0.0948 -0.0369
 3735W        W 7254   1.808   1.291  10.240 -0.2618  0.0024 -0.0617
 3736W        W 7255   1.406   3.021  11.521  0.1773 -0.3016  0.1875
 3737W        W 7256   4.931   2.843   4.979  0.2094 -0.0605  0.1436
 3738W        W 7257   0.774   6.251   0.545  0.1329 -0.0441  0.3154
 3739W        W 7258   2.919   8.867   1.005 -0.4962 -0.0800  0.1728
 3740W        W 7259   7.524   3.121   1.943 -0.2654  0.1814  0.0921
 3741W        W 7260   1.319   9.236   0.238 -0.1405  0.2496 -0.2260
 3742W        W 7261   2.785   0.871   0.296 -0.1903  0.0871 -0.0200
 3743W        W 7262   9.174   1.476  10.180 -0.0594  0.2339  0.0349
 3744W        W 7263   2.990   6.177   4.068  0.0577  0.0551 -0.1200
 3745W        W 7264   6.653   3.224   9.874 -0.3147 -0.1896 -0.0423
 3746W        W 7265   7.135   1.630   4.291 -0.2704  0.0879 -0.3065
 3747W        W 7266   0.958   5.752   9.227 -0.1385  0.0993  0.0440
 3748W        W 7267   9.514   6.658   5.039 -0.1601 -0.0827  0.0440
 3749W        W 7268   9.747   0.356   0.621  0.1237 -0.0142  0.2675
 3750W        W 7269   3.075   0.016  11.669  0.0374 -0.2319  0.0371
 3751W        W 7270   0.989   2.546   3.050 -0.1671 -0.0001 -0.0171
 3752W        W 7271   3.225   5.173   9.835  0.1232  0.0512 -0.3553
 3753W        W 7272   2.441   7.009   3.997 -0.0556  0.0704 -0.3449
 3754W        W 7273   5.003   1.348   1.641 -0.2709  0.0483  0.4647
 3755W        W 7274   8.699   0.533   3.184  0.0592 -0.0326  0.0693
 3756W        W 7275   8.999   3.824   1.992  0.1227  0.0442  0.0850
 3757W        W 7276   3.193   2.793   3.016 -0.1121 -0.2707 -0.1600
 3758W        W 7277   7.181   5.151  11.037 -0.2331  0.1180  0.0085
 3759W        W 7278   1.101   6.466   9.695  0.0860 -0.2230 -0.0386
 3760W        W 7279   5.732   5.584   1.307 -0.1101  0.3023 -0.2750
 3761W        W 7280   9.334   1.728   8.686 -0.4040 -0.1223 -0.1827
 3762W        W 7281   0.671   3.255  10.356 -0.2513  0.1146  0.1447
 3763W        W 7282   4.155   1.907   1.855 -0.0535  0.1387 -0.1043
 3764W        W 7283   1.187   9.579   1.749  0.0490 -0.0392  0.0416
 3765W        W 7284   3.917   0.003  11.053 -0.0598 -0.0152  0.1384
 3766W        W 7285   7.062   3.785   4.404  0.1602 -0.0593  0.0650
 3767W        W 7286   5.332   0.697   8.738 -0.0730  0.1297  0.1696
 3768W        W 7287   5.688   3.488   4.409  0.1968 -0.0710  0.1011
 3769W        W 7288   2.594   1.519   9.349 -0.2023 -0.0121  0.1117
 3770W        W 7289   6.211   1.907   3.380 -0.6262  0.0325 -0.1126
 3771W        W 7290   9.578   0.423   1.073 -0.1458  0.1318  0.2251
 3772W        W 7291   5.383   0.442   1.043  0.1771  0.3581 -0.1249
 3773W        W 7292   3.281   3.507   2.946 -0.2634  0.0950  0.0976
 3774W        W 7293   4.773   8.863   8.191  0.4305  0.0262 -0.1508
 3775W        W 7294   2.965   6.687   0.441  0.0436 -0.0398 -0.0737
 3776W        W 7295   6.604   8.534   3.292  0.1843 -0.1130 -0.1855
 3777W        W 7296   2.369   6.372   2.360  0.2209 -0.2503 -0.3432
 3778W        W 7297   0.411   4.944   3.428  0.0320  0.1995  0.2333
 3779W        W 7298   5.825   6.925   0.193  0.0484  0.0856  0.2088
 3780W        W 7299   1.346   6.527   9.266 -0.2206 -0.0590  0.0971
 3781W        W 7300   3.106   3.901   8.300 -0.2511  0.1202 -0.0790
 3782W        W 7301   1.338   2.416   0.984  0.0045  0.1408  0.0860
 3783W        W 7302   4.898   1.622   0.263 -0.0252 -0.0420 -0.4104
 3784W        W 7303   3.672   6.423  11.278 -0.1984 -0.0107 -0.1542
 3785W        W 7304   8.912   0.021   2.289 -0.4440  0.0505 -0.4557
 3786W        W 7305   8.931   6.843   9.125  0.0236 -0.0076 -0.1047
 3787W        W 7306   6.419   3.426   3.789  0.1202  0.1241  0.2154
 3788W        W 7307   8.299   6.278   2.533 -0.3865 -0.0461 -0.2817
 3789W        W 7308   6.351   2.926   0.463  0.0364  0.1855  0.1066
 3790W        W 7309   2.806   3.953   9.844  0.2312  0.1713  0.0611
 3791W        W 7310   1.597   1.833   3.437  0.0948  0.2204  0.0335
 3792W        W 7311   8.199   0.338  10.046 -0.1494  0.2025 -0.0010
 3793W        W 7312   4.772   6.034   9.174  0.2442  0.3372 -0.0208
 3794W        W 7313   9.569   0.776   2.568 -0.1177  0.0028  0.0717
 3795W        W 7314   8.180   5.676   9.067  0.0907  0.0426 -0.0170
 3796W        W 7315   7.943   6.180   1.904 -0.1571 -0.0950  0.0302
 3797W        W 7316   8.747   3.178   0.217  0.2484  0.0793  0.2782
 3798W        W 7317   3.867   2.374   9.444 -0.1072  0.1884  0.2771
 3799W        W 7318   0.931   8.656  10.175 -0.0361  0.0688 -0.0058
 3800W        W 7319   0.817   3.842   2.086  0.3325  0.0750  0.3143
 3801W        W 7320   6.919   9.234   2.388  0.1551  0.1080  0.2085
 3802W        W 7321   4.440   0.642   1.507  0.1910 -0.1221 -0.0910
 3803W        W 7322   2.996   2.393   8.447  0.0887  0.2004  0.0257
 3804W        W 7323   5.964   9.304   3.361 -0.0131  0.0572  0.0785
 3805W        W 7324   6.362   1.874   0.511  0.0444  0.0275 -0.0691
 3806W        W 7325   1.559   0.695   0.502 -0.0584  0.1441 -0.0696
 3807W        W 7326   7.667   5.267   2.404 -0.4518  0.2017 -0.1432
 3808W        W 7327   6.374   1.776   8.706  0.0357  0.1152 -0.0686
 3809W        W 7328   6.962   1.994  10.654  0.1648 -0.0893  0.1876
 3810W        W 7329   0.224   5.372   1.502  0.0478 -0.0638  0.0857
 3811W        W 7330   6.512   7.993   1.991 -0.1321  0.3787  0.0363
 3812W        W 7331   0.984   4.703   4.184  0.0110  0.2287 -0.0041
 3813W        W 7332   2.031   5.693  12.000 -0.1930  0.1174  0.0398
 3814W        W 7333   8.701   3.361   3.673  0.1146 -0.1506 -0.0827
 3815W        W 7334   5.712   3.234   2.077 -0.1334 -0.0765  0.1608
 3816W        W 7335   8.965   9.494   9.723 -0.0721 -0.2296 -0.1626
 3817W        W 7336   2.796   0.388   3.710 -0.1259  0.1397  0.0364
 3818W        W 7337   2.516   0.987  11.482  0.0480 -0.0400  0.1631
 3819W        W 7338   9.310   3.684   9.140 -0.0777 -0.0315 -0.0391
 3820W        W 7339   7.129   6.632   2.133 -0.1840  0.2865 -0.3443
 3821W        W 7340   3.760   0.587   9.607  0.0243  0.0363 -0.2351
 3822W        W 7341   5.144   4.847  10.470 -0.1619  0.2337  0.0178
 3823W        W 7342   0.962   9.198   9.893 -0.0131 -0.0612 -0.0929
 3824W        W 7343   2.586   8.921  10.805 -0.2794 -0.4404  0.4452
 3825W        W 7344   4.328   7.212   2.256  0.0985 -0.1507 -0.2545
 3826W        W 7345   4.953   9.264  11.582 -0.1015  0.0858 -0.1789
 3827W        W 7346   6.248   1.994   2.861 -0.1528  0.1461 -0.0833
 3828W        W 7347   1.237   5.959   2.013 -0.1275 -0.0506  0.0244
 3829W        W 7348   0.347   8.291   3.552  0.0211 -0.0991 -0.0599
 3830W        W 7349   1.916   3.558   2.903 -0.1527 -0.0460 -0.0184
 3831W        W 7350   1.520   1.050   3.841 -0.0924 -0.2033  0.1427
 3832W        W 7351   6.636   6.737   1.264  0.1670 -0.0825 -0.0606
 3833W        W 7352   0.257   6.646   9.680 -0.3115 -0.3450  0.0068
 3834W        W 7353   8.958   1.217  11.560 -0.0563 -0.0010  0.0370
 3835W        W 7354   1.180   3.741   1.439 -0.2447  0.0591  0.1489
 3836W        W 7355   4.713   4.198  11.945 -0.2010  0.1450 -0.1616
 3837W        W 7356   5.369   0.327   4.944 -0.0228 -0.3784 -0.0364
 3838W        W 7357   5.749   6.840   1.384  0.0374 -0.0723 -0.5403
 3839W        W 7358   6.442   2.103   9.059 -0.1896 -0.0395 -0.2127
 3840W        W 7359   2.362   0.367   0.975  0.2352  0.0053 -0.3557
 3841W        W 7360   4.304   5.248  11.268 -0.1441 -0.0035 -0.0162
 3842W        W 7361   0.156   5.495   0.944 -0.1114 -0.1003 -0.1993
 3843W        W 7362   2.997   8.842   8.229 -0.0707  0.0776  0.1024
 3844W        W 7363   1.211   4.314   3.559  0.0027  0.2341  0.3095
 3845W        W 7364   5.441   2.128   3.384 -0.0217  0.2358  0.2844
 3846W        W 7365   7.779   0.430   9.031  0.2214 -0.1147  0.0630
 3847W        W 7366   0.772   8.836   1.385 -0.1929  0.1800  0.2391
 3848W        W 7367   6.616   9.492   9.288  0.0617  0.1243  0.1357
 3849W        W 7368   7.370   0.269   3.242 -0.3004  0.0457  0.1979
 3850W        W 7369   3.149   5.420   3.499  0.2248 -0.0127 -0.0375
 3851W        W 7370   1.791   4.124   2.439  0.0630  0.3326  0.0770
 3852W        W 7371   9.102   4.134   2.402 -0.1079  0.1674  0.0784
 3853W        W 7372   1.407   4.550   2.183 -0.1735 -0.0655  0.2403
 3854W        W 7373   4.417   0.946  11.334  0.1821 -0.1151 -0.0733
 3855W        W 7374   7.663   5.356   3.348  0.0258 -0.0633  0.1036
 3856W        W 7375   0.575   7.923   8.266 -0.0340 -0.3076  0.0233
 3857W        W 7376   6.379   7.286  10.551  0.4252 -0.1181 -0.1167
 3858W        W 7377   8.912   6.309   8.816 -0.0884 -0.0698 -0.0740
 3859W        W 7378   7.705   8.632  11.117  0.0726 -0.1568 -0.1006
 3860W        W 7379   2.830   6.061  11.034 -0.1806 -0.2805  0.1513
 3861W        W 7380   0.132   3.601  11.069  0.1030 -0.2706  0.2837
 3862W        W 7381   2.143   2.751   4.366  0.1324  0.4667  0.1726
 3863W        W 7382   6.348   9.769  11.368  0.3288  0.1458 -0.0614
 3864W        W 7383   9.387   6.452  11.292 -0.0685  0.1434  0.0169
 3865W        W 7384   6.356   6.028   2.370 -0.1120 -0.0383  0.3644
 3866W        W 7385   2.226   7.362   0.207 -0.0862  0.0822  0.2979
 3867W        W 7386   4.728   5.249   0.136  0.3291 -0.0824 -0.2018
 3868W        W 7387   2.529   6.713   3.449  0.0374 -0.0608 -0.0863
 3869W        W 7388   8.783   2.741   9.803 -0.2171  0.1810 -0.3072
 3870W        W 7389   6.497   5.497   9.920  0.0391 -0.1669 -0.0491
 3871W        W 7390   0.591   6.527   2.581  0.1641 -0.0520 -0.3583
 3872W        W 7391   0.072   8.768  11.345 -0.1030 -0.0085  0.1179
 3873W        W 7392   7.206   8.809   3.037 -0.0390 -0.3922 -0.2945
 3874W        W 7393   4.197   8.162  10.162 -0.0393 -0.1637  0.1695
 3875W        W 7394   0.084   9.396   4.395 -0.1144  0.2480 -0.2973
 3876W        W 7395   4.617   9.124   4.596  0.3343  0.0808  0.0680
 3877W        W 7396   0.856   6.788   4.234  0.1690  0.1104  0.0268
 3878W        W 7397   8.586   9.793   9.856  0.0067  0.1440  0.2400
 3879W        W 7398   0.075   5.317   2.120 -0.0400  0.1207  0.1841
 3880W        W 7399   3.048   2.953   4.409 -0.1610  0.0708 -0.1606
 3881W        W 7400   2.713   4.516   2.084 -0.0052  0.3397  0.1086
 3882W        W 7401   2.101   9.413   1.866 -0.1913  0.0523 -0.0730
 3883W        W 7402   5.828   0.775   3.058  0.0422  0.0344 -0.1536
 3884W        W 7403   4.101   6.149  11.290 -0.0075  0.2397 -0.2382
 3885W        W 7404   8.091   8.316  10.893 -0.1437 -0.0527  0.0197
 3886W        W 7405   5.334   3.681   8.819 -0.1628  0.1331  0.2524
 3887W        W 7406   4.858   3.318   5.031  0.0311 -0.2771 -0.0024
 3888W        W 7407   8.519   9.811   9.381  0.1857  0.1637  0.1570
 3889W        W 7408   9.320   7.643   0.815  0.0438  0.3559 -0.1141
 3890W        W 7409   3.217   2.254   2.430 -0.0255  0.2049  0.1746
 3891W        W 7410   3.009   4.069  11.992  0.0327  0.3629  0.2040
 3892W        W 7411   9.157   5.473   0.990  0.0945  0.4144  0.2407
 3893W        W 7412   9.226   0.750   8.991 -0.1968  0.1888 -0.0366
 3894W        W 7413   6.874   2.045   9.261 -0.2688  0.3968 -0.1577
 3895W        W 7414   9.575   6.867   4.602 -0.1554 -0.2965  0.0713
 3896W        W 7415   3.240   4.039   3.019  0.3997 -0.2487  0.0855
 3897W        W 7416   0.221   6.097  10.599 -0.1811  0.1083 -0.1098
 3898W        W 7417   7.777   0.652  11.959 -0.1511 -0.3096 -0.1266
 3899W        W 7418   4.340   9.017   2.734  0.2263 -0.2570 -0.2934
 3900W        W 7419   4.685   7.028  12.113 -0.3131 -0.1336 -0.1730
 3901W        W 7420   9.035   9.431   2.137 -0.2314  0.2357 -0.1397
 3902W        W 7421   0.502   1.652   4.123 -0.1366 -0.2836 -0.0909
 3903W        W 7422   5.822   3.453  10.246 -0.0094 -0.0410  0.0009
 3904W        W 7423   8.202   0.681   0.161 -0.1798 -0.2487  0.3455
 3905W        W 7424   2.895   1.308  11.359  0.5153  0.0800 -0.2237
 3906W        W 7425   5.529   2.599  11.823  0.0186 -0.3734 -0.0673
 3907W        W 7426   0.098   4.928   4.138 -0.0490 -0.5556  0.2349
 3908W        W 7427   1.290   5.713  11.722 -0.1872 -0.0398  0.2285
 3909W        W 7428   7.034   7.368   3.984 -0.0051  0.1010  0.1784
 3910W        W 7429   8.548   2.451   9.519 -0.0205 -0.2577 -0.0296
 3911W        W 7430   4.112   7.513   3.870  0.2227  0.2005 -0.0435
 3912W        W 7431   4.572   3.821   2.437 -0.3154  0.2054 -0.3084
 3913W        W 7432   2.901   1.985   2.095  0.0537 -0.0226 -0.0911
 3914W        W 7433   4.926   1.816   2.232  0.0825 -0.0180  0.1052
 3915W        W 7434   2.396   7.563   1.709  0.2000  0.2027 -0.1739
 3916W        W 7435   0.700   9.429  11.383 -0.1559 -0.0512 -0.1717
 3917W        W 7436   8.537   2.987   9.423 -0.2710 -0.0894  0.0348
 3918W        W 7437   8.984   1.055   2.017 -0.0754  0.1636  0.0934
 3919W        W 7438   1.683   3.225   0.715 -0.0422 -0.0187  0.0516
 3920W        W 7439   5.789   0.658  10.013  0.2133 -0.1757 -0.0441
 3921W        W 7440   0.405   4.687   0.484  0.0408  0.0612 -0.1346
 3922W        W 7441   7.510   9.287   1.510  0.1954 -0.1132 -0.2928
 3923W        W 7442   7.794   9.307   0.021  0.1461  0.0334  0.0421
 3924W        W 7443   6.254   7.584   8.946  0.0153  0.2179  0.1011
 3925W        W 7444   3.688   1.043   5.132  0.0890  0.1411  0.1719
 3926W        W 7445   3.616   0.534   0.038  0.2096  0.1278  0.2619
 3927W        W 7446   0.121   5.291   9.680  0.1938  0.2973 -0.1089
 3928W        W 7447   5.951   1.347  10.808  0.0802  0.1016 -0.3786
 3929W        W 7448   3.067   1.296   9.562  0.3511  0.0725 -0.2400
 3930W        W 7449   7.280   5.952  10.955 -0.2242 -0.0674 -0.0156
 3931W        W 7450   3.067   3.488  11.413  0.1454 -0.1339  0.2175
 3932W        W 7451   1.988   9.683   1.385  0.2411  0.5839 -0.0899
 3933W        W 7452   6.575   1.508   9.982  0.2127  0.0569  0.0382
 3934W        W 7453   6.671   8.482  10.963  0.0194  0.1630  0.0016
 3935W        W 7454   1.959   9.050   2.848  0.0531  0.0188 -0.0087
 3936W        W 7455   1.569   8.070  10.660 -0.0115  0.0203  0.1397
 3937W        W 7456   1.034   6.173   1.526  0.1441  0.0285  0.3679
 3938W        W 7457   3.794   4.966   3.970  0.2024 -0.1510  0.2039
 3939W        W 7458   2.200   0.108   9.880 -0.2828 -0.0978 -0.0304
 3940W        W 7459   5.890   9.162  11.072 -0.0201 -0.0198 -0.0652
 3941W        W 7460   2.813   6.714   9.647  0.1183  0.1042  0.0644
 3942W        W 7461   6.456   4.399   1.446 -0.0548 -0.2894 -0.0044
 3943W        W 7462   1.571   7.622   2.218 -0.2297 -0.3024 -0.1060
 3944W        W 7463   5.197   1.854  10.853  0.2328  0.0011 -0.0752
 3945W        W 7464   3.946   8.510   3.392 -0.2754 -0.2487  0.0717
 3946W        W 7465   4.141   6.369   1.973  0.3383 -0.1009  0.1892
 3947W        W 7466   0.127   0.047   2.766  0.0352 -0.2102  0.2984
 3948W        W 7467   0.753   7.637   9.617  0.2074 -0.0909 -0.1219
 3949W        W 7468   6.308   8.123   2.616 -0.0765  0.1173  0.0072
 3950W        W 7469   8.274   7.839   3.938 -0.0333 -0.2833  0.0464
 3951W        W 7470   7.440   4.547   9.116 -0.1028  0.0368  0.2772
 3952W        W 7471   2.394   3.794   0.984 -0.0062 -0.1013 -0.0925
 3953W        W 7472   3.629   0.792   3.869  0.4275 -0.2710  0.0450
 3954W        W 7473   7.216   1.511   3.100  0.1731  0.1431 -0.1229
 3955W        W 7474   5.505   0.259  10.152 -0.2356 -0.1462  0.0315
 3956W        W 7475   3.094   1.577   4.742  0.0516  0.1719  0.2379
 3957W        W 7476   0.419   5.374   9.087  0.0952 -0.3574 -0.2067
 3958W        W 7477   4.880   1.979   1.079 -0.2995 -0.0166  0.0527
 3959W        W 7478   2.024   0.560   9.732 -0.3432 -0.1125  0.0085
 3960W        W 7479   3.749   6.941  11.082  0.0676  0.0387 -0.2290
 3961W        W 7480   5.236   8.666   0.618 -0.4224  0.0530  0.0853
 3962W        W 7481   6.327   8.489   8.989 -0.4348 -0.1508 -0.1749
 3963W        W 7482   9.137   8.154   0.806 -0.2036 -0.0143 -0.1443
 3964W        W 7483   5.736   6.477   3.095  0.0926 -0.0393 -0.3023
 3965W        W 7484   3.810   2.716   8.826 -0.1181 -0.0651  0.1853
 3966W        W 7485   7.850   3.195  12.052 -0.0021  0.1795 -0.0191
 3967W        W 7486   0.830   5.422   3.680 -0.1735  0.0374  0.1020
 3968W        W 7487   8.253   8.784  10.662  0.0481  0.1515  0.2414
 3969W        W 7488   6.795   9.623   4.062  0.0898 -0.0477  0.3098
 3970W        W 7489   8.804   9.483  10.227  0.1864  0.0972  0.0217
 3971W        W 7490   6.330   2.390  11.250 -0.0160  0.1823  0.2090
 3972W        W 7491   9.793   8.318   4.318  0.0125  0.1642 -0.2931
 3973W        W 7492   5.015   5.521   0.521 -0.2037  0.3035  0.0883
 3974W        W 7493   3.125   9.065   3.553  0.0147 -0.4162  0.0577
 3975W        W 7494   3.540   4.831   1.873 -0.1094  0.0902  0.1326
 3976W        W 7495   8.355   1.894   9.101 -0.2421  0.1166  0.0255
 3977W        W 7496   5.965   4.253   1.874  0.0126  0.0247 -0.0762
 3978W        W 7497   7.472   0.976  10.028 -0.3409 -0.2353  0.0205
 3979W        W 7498   0.692   7.484   2.166 -0.2522 -0.0904 -0.0547
 3980W        W 7499   0.657   7.216   0.640 -0.1773 -0.0150 -0.1439
 3981W        W 7500   4.742   7.859   9.721  0.2971 -0.0239 -0.0502
 3982W        W 7501   6.670   4.323  10.489  0.1320 -0.1396 -0.0985
 3983W        W 7502   7.682   1.849   9.580  0.2776 -0.1409  0.0881
 3984W        W 7503   0.339   6.185   1.166  0.0050  0.2176 -0.0236
 3985W        W 7504   2.304   9.835   5.338 -0.0305 -0.0208 -0.1237
 3986W        W 7505   6.585   3.844   9.281 -0.1369  0.1531 -0.1950
 3987W        W 7506   0.342   8.045   4.279 -0.1555 -0.1329 -0.0875
 3988W        W 7507   1.366   5.711   0.759 -0.2664 -0.0298  0.3448
 3989W        W 7508   0.289   6.709   3.406 -0.0896  0.2592  0.0321
 3990W        W 7509   3.647   3.737  10.333  0.1403  0.1436 -0.0645
 3991W        W 7510   3.900   0.511   8.822  0.2994 -0.2868 -0.0322
 3992W        W 7511   5.674   7.472  11.095  0.3454  0.2422  0.1562
 3993W        W 7512   4.460   2.116   3.013  0.1103  0.0535  0.0020
 3994W        W 7513   3.022   2.582   8.906 -0.0655  0.1338  0.2144
 3995W        W 7514   3.403   6.450   0.963 -0.3144 -0.1260 -0.0090
 3996W        W 7515   0.771   7.531  12.088  0.2322  0.0906 -0.0004
 3997W        W 7516   3.363   3.097   0.756 -0.0699 -0.2512  0.0041
 3998W        W 7517   1.625   7.185   0.787 -0.0067  0.0639 -0.1481
 3999W        W 7518   8.049   3.399  10.159 -0.1061 -0.0708  0.2779
 4000W        W 7519   7.024   2.374   3.234  0.2280 -0.4319  0.1145
 4001W        W 7520   6.767   6.285  12.095  0.1115  0.2948 -0.1879
 4002W        W 7521   9.376   7.798   2.645  0.0702 -0.0198  0.3376
 4003W        W 7522   5.414   2.185   4.314 -0.0222 -0.2555 -0.5166
 4004W        W 7523   7.562   0.115   1.744 -0.2971 -0.0549  0.1586
 4005W        W 7524   1.836   6.358   2.290 -0.1725  0.0025 -0.2052
 4006W        W 7525   5.824   5.129   4.211  0.0461 -0.0196 -0.2508
 4007W        W 7526   8.638   3.944  11.998  0.2131 -0.2101 -0.2212
 4008W        W 7527   9.846   8.543   4.819 -0.0663  0.3163 -0.0429
 4009W        W 7528   4.284   5.969   1.633 -0.0173  0.0329  0.0991
 4010W        W 7529   5.115   4.083   1.285 -0.2684  0.0276  0.1963
 4011W        W 7530   4.251   7.214   9.732  0.0675 -0.1195 -0.1150
 4012W        W 7531   6.756   7.540  10.829  0.0211 -0.0159  0.1327
 4013W        W 7532   7.442   1.255   4.134  0.1677 -0.0085 -0.0007
 4014W        W 7533   2.703   0.248  11.813  0.0723 -0.1865 -0.0873
 4015W        W 7534   4.219   8.410   4.274  0.1005 -0.0161  0.1419
 4016W        W 7535   2.425   1.285   2.974  0.0733 -0.1112 -0.1223
 4017W        W 7536   4.236   4.335   1.879  0.0396 -0.2329 -0.1620
 4018W        W 7537   9.698   7.347   1.040  0.1016 -0.1015  0.0861
 4019W        W 7538   9.843   9.494  10.854 -0.0926 -0.1993 -0.3324
 4020W        W 7539   8.405   5.421  11.718  0.1400 -0.0725 -0.2108
 4021W        W 7540   7.632   4.716   3.170 -0.0612  0.2105  0.1967
 4022W        W 7541   5.850   7.801   3.772  0.3146 -0.1302 -0.0160
 4023W        W 7542   8.243   0.804  11.000  0.1839 -0.0311  0.0929
 4024W        W 7543   1.009   6.410   2.001 -0.2457 -0.1223  0.0109
 4025W        W 7544   2.098   0.206   4.032 -0.2282  0.2882  0.1492
 4026W        W 7545   0.637   1.738   2.439  0.1368  0.0772 -0.1529
 4027W        W 7546   8.189   3.552   3.912 -0.2669  0.2887 -0.0987
 4028W        W 7547   0.722   7.528   3.856  0.2746 -0.0463  0.0236
 4029W        W 7548   1.271   1.965   1.211 -0.3839  0.0705 -0.1543
 4030W        W 7549   4.573   6.406   4.497  0.1324  0.0136 -0.0107
 4031W        W 7550   2.120   7.101   1.086 -0.0761 -0.0732  0.1339
 4032W        W 7551   6.296   6.894   7.710  0.1305  0.0123  0.2949
 4033W        W 7552   7.211   2.455   8.325  0.3665 -0.0990 -0.0532
 4034W        W 7553   7.783   1.698   2.960  0.0021  0.1036 -0.1847
 4035W        W 7554   2.423   2.692   0.955  0.1494 -0.3003 -0.1620
 4036W        W 7555   4.360   2.498   2.715 -0.2203 -0.0497  0.1800
 4037W        W 7556   4.314   8.454  12.025  0.3923  0.2695 -0.0933
 4038W        W 7557   2.703   3.163   2.321  0.3172 -0.2668 -0.3515
 4039W        W 7558   7.723   6.433  10.280 -0.0139 -0.1203 -0.2413
 4040W        W 7559   5.581   5.467   1.822  0.0904  0.3331 -0.1124
 4041W        W 7560   2.969   9.703   1.251 -0.2357 -0.0184 -0.3108
 4042W        W 7561   2.042   3.565   0.613  0.0001  0.0905 -0.0176
 4043W        W 7562   3.030   9.629   4.331  0.0263  0.2060 -0.1224
 4044W        W 7563   3.466   2.775  11.764  0.3593  0.0429  0.3542
 4045W        W 7564   0.438   7.843   2.941  0.4277  0.0218 -0.0066
 4046W        W 7565   8.645   6.111  10.891 -0.3062  0.1724  0.1276
 4047W        W 7566   0.963   7.267  10.571 -0.2298 -0.0968 -0.0045
 4048W        W 7567   3.673   5.585   1.077 -0.1233 -0.1927 -0.0812
 4049W        W 7568   9.100   0.310   1.354 -0.3076  0.0866 -0.0870
 4050W        W 7569   5.417   9.642   2.405 -0.0364 -0.0102  0.1713
 4051W        W 7570   5.369   0.314   0.529 -0.5036  0.2394 -0.0858
 4052W        W 7571   6.943   3.519   9.396  0.1791  0.2228  0.2192
 4053W        W 7572   5.408   5.794   2.151 -0.2899 -0.1712 -0.2337
 4054W        W 7573   3.167   1.495   3.474 -0.0102 -0.0703 -0.1937
 4055W        W 7574   6.371   7.643  11.773 -0.1251 -0.3243 -0.3483
 4056W        W 7575   0.290   3.421   1.638 -0.2237 -0.0112 -0.0234
 4057W        W 7576   7.687   9.154  11.624  0.0505 -0.0254 -0.2512
 4058W        W 7577   3.641   9.626   1.871 -0.1442  0.0625  0.3064
 4059W        W 7578   5.582   1.560   8.863 -0.1264  0.3166  0.1510
 4060W        W 7579   8.282   2.098   0.642 -0.1064 -0.0090 -0.1021
 4061W        W 7580   3.961   1.755  11.232 -0.3222  0.0313  0.3748
 4062W        W 7581   5.538   1.337  11.664 -0.3169  0.2697 -0.1295
 4063W        W 7582   2.133   9.330   4.102  0.0747  0.3246  0.2247
 4064W        W 7583   1.226   3.161  11.075  0.1196 -0.0359  0.2183
 4065W        W 7584   4.141   8.966   3.455  0.1411 -0.2447 -0.2733
 4066W        W 7585   6.322   9.423   1.156 -0.0017  0.0622  0.3189
 4067W        W 7586   6.587   6.627   0.777 -0.0536  0.0450  0.0337
 4068W        W 7587   8.608   3.853   1.656  0.0268  0.0423  0.0661
 4069W        W 7588   0.602   6.607   2.094  0.3000  0.1014 -0.1622
 4070W        W 7589   7.221   4.409  11.761 -0.0664 -0.0565  0.2181
 4071W        W 7590   0.036   3.769   2.494  0.1238 -0.0644  0.0919
 4072W        W 7591   0.531   5.396   8.472  0.2351  0.1764  0.3393
 4073W        W 7592   9.697   7.227   3.485 -0.0658  0.2346  0.0665
 4074W        W 7593   9.201   1.746   9.294  0.0166  0.1322 -0.0480
 4075W        W 7594   8.071   4.150   2.430 -0.1218 -0.0809 -0.0088
 4076W        W 7595   6.147   7.064   8.190  0.0501  0.0309 -0.0626
 4077W        W 7596   4.586   1.601   1.871  0.1942  0.1610 -0.2086
 4078W        W 7597   7.296   3.352   3.490 -0.1180  0.0883 -0.0219
 4079W        W 7598   1.564   0.259   4.241  0.2326 -0.0665  0.0415
 4080W        W 7599   9.639   4.672  10.981 -0.0413  0.1325 -0.0336
 4081W        W 7600   5.559   2.432  10.000  0.0749 -0.1610  0.1463
 4082W        W 7601   1.520   9.382  10.580 -0.0324  0.1384 -0.0784
 4083W        W 7602   5.199   7.641   3.559 -0.0078 -0.1567  0.1160
 4084W        W 7603   7.642   7.603   1.637  0.0874  0.0102 -0.1076
 4085W        W 7604   1.111   0.072   2.285  0.0636  0.1461 -0.2051
 4086W        W 7605   1.839   8.148  12.027  0.1887 -0.1753  0.3669
 4087W        W 7606   7.549   6.331  11.748  0.1476 -0.4377  0.0374
 4088W        W 7607   3.171   5.686   9.721 -0.1035  0.1276 -0.1902
 4089W        W 7608   4.951   5.706   9.540  0.1706 -0.0441  0.1070
 4090W        W 7609   5.855   1.741  11.704 -0.0105 -0.3360  0.0823
 4091W        W 7610   3.015   8.546   2.636 -0.0447 -0.0283  0.0740
 4092W        W 7611   7.023   2.988   2.041 -0.0755 -0.4816  0.1010
 4093W        W 7612   0.514   5.575  11.775  0.1995  0.5304  0.0771
 4094W        W 7613   9.841   0.379   2.391  0.0581 -0.4519 -0.0389
 4095W        W 7614   5.875   9.326   0.574  0.2911  0.2712  0.0597
 4096W        W 7615   1.084   9.747  11.129 -0.0077  0.1292 -0.2543
 4097W        W 7616   6.256   6.466  10.979  0.1779 -0.4975  0.0482
 4098W        W 7617   9.097   6.816   2.559  0.0290 -0.1420 -0.2601
 4099W        W 7618   6.527   9.171   8.421 -0.3183 -0.1857 -0.1322
 4100W        W 7619   0.098   0.876   2.244  0.0425 -0.1502  0.0303
 4101W        W 7620   5.399   0.430  10.604  0.1094  0.0230  0.0034
 4102W        W 7621   8.275   2.018  11.677  0.1596 -0.1957 -0.1150
 4103W        W 7622   2.864   6.441   1.517 -0.3075  0.1841 -0.3717
 4104W        W 7623   1.986   3.200   0.156  0.0455 -0.0395  0.1222
 4105W        W 7624   1.803   5.481   3.450 -0.0136  0.0794 -0.2311
 4106W        W 7625   8.826   2.729   1.499  0.3080  0.0422  0.1534
 4107W        W 7626   4.500   5.892   1.109 -0.2628  0.0362 -0.0674
 4108W        W 7627   5.262   6.914   0.144  0.3393 -0.3060  0.2771
 4109W        W 7628   7.534   3.424   2.341 -0.0995  0.1050 -0.0137
 4110W        W 7629   3.649   4.827   0.340 -0.2321  0.3034 -0.2856
 4111W        W 7630   9.628   7.197   4.954 -0.3211  0.2971 -0.3963
 4112W        W 7631   4.412   7.927  11.526 -0.3737  0.0697 -0.1242
 4113W        W 7632   7.708   9.304   4.696  0.2840 -0.1054  0.0793
 4114W        W 7633   3.995   4.096  11.987 -0.0921 -0.2002  0.0055
 4115W        W 7634   8.129   9.367  11.580  0.1300  0.4625  0.2271
 4116W        W 7635   1.617   8.827   4.209 -0.0449  0.0147 -0.2165
 4117W        W 7636   4.291   6.232   9.169  0.0492 -0.3490 -0.1059
 4118W        W 7637   8.767   1.396   2.353 -0.0107 -0.1896 -0.3832
 4119W        W 7638   3.356   3.885   1.562 -0.2167 -0.2171  0.2296
 4120W        W 7639   4.327   9.052   2.239  0.1305 -0.0387 -0.0817
 4121W        W 7640   7.152   4.639   0.361 -0.0069 -0.0283  0.0595
 4122W        W 7641   1.337   0.247   3.252  0.1287  0.1766 -0.1756
 4123W        W 7642   8.071   4.381   1.394  0.0596  0.0499 -0.3684
 4124W        W 7643   3.201   8.679   8.989  0.1116 -0.0466  0.0214
 4125W        W 7644   4.775   8.622  10.659  0.2560 -0.1502 -0.2794
 4126W        W 7645   6.023   4.565  11.497 -0.1420  0.2238 -0.5744
 4127W        W 7646   5.283   8.604   9.527 -0.0113  0.3375  0.3187
 4128W        W 7647   5.490   4.554  11.406  0.0014 -0.4164 -0.1893
 4129W        W 7648   4.326   3.834   3.698  0.1456 -0.1974 -0.2964
 4130W        W 7649   5.937   3.781  10.787 -0.1638  0.1564 -0.3777
 4131W        W 7650   9.138   8.978   9.632 -0.1478 -0.2379 -0.4057
 4132W        W 7651   0.124   1.206   4.012 -0.0318 -0.1993 -0.1262
 4133W        W 7652   7.652   2.399   0.926 -0.0098 -0.0042 -0.2216
 4134W        W 7653   7.447   5.485  11.592 -0.1792  0.2813  0.1352
 4135W        W 7654   4.622   4.384   3.886  0.1788 -0.1626 -0.0659
 4136W        W 7655   6.093   9.273   1.833  0.0534 -0.0822  0.0134
 4137W        W 7656   5.081   5.147   4.254  0.0427 -0.0831  0.0516
 4138W        W 7657   7.173   8.479   1.276 -0.0836 -0.3083 -0.0409
 4139W        W 7658   2.450   4.550  11.139 -0.0912 -0.2495  0.0979
 4140W        W 7659   8.079   5.321   2.157 -0.1274 -0.0615  0.1131
 4141W        W 7660   6.166   0.503  11.322 -0.1728 -0.2923  0.0723
 4142W        W 7661   7.097   9.664   9.969  0.0316 -0.3376 -0.0546
 4143W        W 7662   8.744   7.995  11.604  0.2969  0.1293 -0.2738
 4144W        W 7663   9.735   1.402   0.490 -0.2601  0.0319 -0.2505
 4145W        W 7664   8.337   5.150   4.262  0.1826  0.1473 -0.4413
 4146W        W 7665   0.315   1.869   9.786  0.0276  0.1075 -0.2324
 4147W        W 7666   4.128   3.069   9.038  0.0636  0.0498 -0.1371
 4148W        W 7667   1.305   7.451   1.109  0.2806  0.0081 -0.2099
 4149W        W 7668   5.526   3.306   9.064  0.1074 -0.2197 -0.1842
 4150W        W 7669   8.795   5.134   4.061  0.6051 -0.2559  0.3249
 4151W        W 7670   4.777   3.926   3.887 -0.3274 -0.0326 -0.0519
 4152W        W 7671   2.073   9.173   1.038 -0.3573 -0.1269  0.2572
 4153W        W 7672   3.746   8.438  10.938  0.2022  0.0013  0.0331
 4154W        W 7673   7.583   8.259  10.689  0.1125 -0.1439  0.0003
 4155W        W 7674   3.928   9.242  11.376 -0.0607  0.1692  0.1265
 4156W        W 7675   2.035   6.431  10.094 -0.1875 -0.0993  0.1447
 4157W        W 7676   8.047   9.038   9.026 -0.0729 -0.4402  0.1123
 4158W        W 7677   9.876   4.215  11.039 -0.2785  0.0549 -0.1817
 4159W        W 7678   7.736   2.570   8.295  0.3194  0.4998 -0.2922
 4160W        W 7679   8.446   3.267   0.610 -0.0431  0.1340  0.2145
 4161W        W 7680   0.506   7.111  10.546  0.1474 -0.1599 -0.4780
 4162W        W 7681   3.980   1.077   3.031  0.1314  0.1117 -0.0841
 4163W        W 7682   3.672   8.956   9.216 -0.3206 -0.0115 -0.1773
 4164W        W 7683   5.406   4.081  10.635 -0.1213  0.1733 -0.1156
 4165W        W 7684   6.679   8.838   4.038  0.1809  0.1363  0.0991
 4166W        W 7685   1.102   2.226   9.502 -0.0010  0.2683  0.0795
 4167W        W 7686   7.043   7.473  10.434 -0.0350  0.1551 -0.0180
 4168W        W 7687   3.459   5.588   1.994  0.0368  0.0938  0.2071
 4169W        W 7688   0.026   6.800   8.887  0.1945  0.2624  0.4226
 4170W        W 7689   7.499   4.566   0.020  0.3254 -0.0793  0.0222
 4171W        W 7690   6.254   4.966   3.864 -0.0018  0.0997 -0.0515
 4172W        W 7691   9.320   8.410   2.393 -0.2108 -0.0741  0.2917
 4173W        W 7692   1.538   8.331   3.464 -0.1871  0.3253  0.2039
 4174W        W 7693   2.660   5.318   1.853  0.2663  0.1427 -0.3495
 4175W        W 7694   3.136   2.334   0.606 -0.3433  0.1289  0.0149
 4176W        W 7695   1.866   2.545   9.345  0.1347 -0.2152 -0.3114
 4177W        W 7696   9.823   1.841   1.615  0.0657 -0.2015  0.1060
 4178W        W 7697   7.322   1.202   9.515  0.1289 -0.1942  0.0605
 4179W        W 7698   0.405   8.944   2.528 -0.0759  0.0149 -0.0497
 4180W        W 7699   2.859   6.999   4.293 -0.0651  0.1979 -0.0211
 4181W        W 7700   1.090   7.799   2.225 -0.1254 -0.2584  0.3941
 4182W        W 7701   2.098   9.070   2.366  0.2056 -0.0506  0.0447
 4183W        W 7702   5.590   2.437   0.210  0.2333  0.0243  0.0594
 4184W        W 7703   6.020   2.119   0.783  0.0511  0.0644 -0.0119
 4185W        W 7704   3.005   4.469   0.425  0.2088  0.0330  0.0051
 4186W        W 7705   5.269   0.599  11.031 -0.1749  0.0654 -0.2238
 4187W        W 7706   8.472   9.038   1.700 -0.0421 -0.1291  0.0845
 4188W        W 7707   6.068   6.637   0.566 -0.0692  0.0617  0.1183
 4189W        W 7708   3.191   0.937   0.105 -0.0615 -0.2408 -0.2572
 4190W        W 7709   4.297   2.060   0.918  0.0465  0.1787  0.0212
 4191W        W 7710   0.485   5.837  10.926  0.2180  0.0317 -0.1198
 4192W        W 7711   8.748   6.104   7.681  0.1256 -0.0095 -0.1078
 4193W        W 7712   7.888   6.468   7.963  0.0168 -0.0319 -0.2808
 4194W        W 7713   6.651   0.336  11.498  0.0052 -0.1450  0.0617
 4195W        W 7714   0.660   4.203  10.710 -0.2057 -0.0083 -0.2697
 4196W        W 7715   7.231   7.844   3.830  0.1570  0.0724 -0.1720
 4197W        W 7716   1.003   1.864  10.190 -0.0824  0.1152  0.0513
 4198W        W 7717   7.467   1.456  11.304  0.0486  0.1498  0.0673
 4199W        W 7718   8.763   5.967   2.319  0.1049  0.0813  0.0959
 4200W        W 7719   6.289   7.963   4.539  0.2321 -0.2399 -0.2463
 4201W        W 7720   5.380   1.027  11.342  0.0871 -0.1998  0.2551
 4202W        W 7721   4.704   1.867   9.081 -0.0380 -0.0898  0.3806
 4203W        W 7722   2.154   5.278   1.647 -0.0275 -0.2282  0.1309
 4204W        W 7723   5.511   1.581   2.510 -0.0472 -0.0655 -0.0580
 4205W        W 7724   3.037   2.364   0.050  0.0134  0.1022 -0.1863
 4206W        W 7725   3.222   3.758   0.293  0.1790  0.2908  0.0869
 4207W        W 7726   5.399   2.618  11.348  0.0627 -0.0476  0.0488
 4208W        W 7727   3.546   4.925   9.035  0.0036 -0.1075  0.2744
 4209W        W 7728   6.696   2.156   3.585 -0.1661 -0.2213 -0.0360
 4210W        W 7729   6.506   0.927   3.768 -0.0829  0.4381 -0.6380
 4211W        W 7730   2.287   9.622  10.292 -0.0827 -0.3186 -0.0200
 4212W        W 7731   0.772   2.855   3.871 -0.0834  0.1722  0.2351
 4213W        W 7732   2.602   1.004   2.316  0.0484  0.1257 -0.0457
 4214W        W 7733   8.279   5.094   2.662  0.0789 -0.0662  0.0485
 4215W        W 7734   2.368   7.261  11.362 -0.2237 -0.2822 -0.0986
 4216W        W 7735   7.449   6.874   9.154  0.1738  0.0262  0.0163
 4217W        W 7736   9.651   4.919   2.151 -0.0275 -0.0832  0.2335
 4218W        W 7737   6.995   0.460   2.944  0.0013 -0.0097  0.2233
 4219W        W 7738   8.102   5.389  10.320  0.1895 -0.0909 -0.3817
 4220W        W 7739   1.400   6.333   1.229 -0.2575  0.0261 -0.0858
 4221W        W 7740   5.721   4.184  11.124  0.0581  0.2989  0.1369
 4222W        W 7741   5.212   6.757  10.465  0.1154  0.1324 -0.3218
 4223W        W 7742   3.369   1.653   9.661  0.1797 -0.0570 -0.1913
 4224W        W 7743   3.701   5.528  10.901  0.1917  0.1536  0.0282
 4225W        W 7744   7.550   5.373  10.568  0.1327 -0.0779 -0.0071
 4226W        W 7745   7.884   1.351  10.277 -0.3008  0.1219 -0.1434
 4227W        W 7746   4.874   4.380   9.250  0.0880 -0.1391 -0.1155
 4228W        W 7747   5.547   9.036   9.856  0.0358 -0.0367  0.1323
 4229W        W 7748   0.129   8.524   0.825  0.3362  0.2423 -0.0821
 4230W        W 7749   7.688   5.299   1.508  0.0537  0.1005 -0.1052
 4231W        W 7750   4.043   0.157   2.191  0.2370 -0.0928 -0.3004
 4232W        W 7751   3.616   4.209  10.796 -0.3137 -0.1557  0.0645
 4233W        W 7752   9.366   4.146   1.442  0.1859 -0.0737 -0.0790
 4234W        W 7753   5.973   8.749  10.113 -0.1621  0.0499 -0.1724
 4235W        W 7754   4.973   8.098  11.323 -0.1347 -0.0800  0.1017
 4236W        W 7755   5.294   5.745   0.938  0.0466 -0.0302  0.1078
 4237W        W 7756   4.451   4.911   2.657 -0.0515 -0.0123  0.0957
 4238W        W 7757   4.770   3.020   8.256  0.1745  0.1193  0.0331
 4239W        W 7758   9.027   5.322   3.471  0.0677  0.0709 -0.3106
 4240W        W 7759   5.512   5.355  10.078 -0.2491 -0.1711  0.1483
 4241W        W 7760   3.676   2.778  11.296 -0.3689  0.2242 -0.0665
 4242W        W 7761   2.392   3.179   2.779  0.2139  0.0642 -0.0274
 4243W        W 7762   3.664   2.112   2.271 -0.2363  0.2128 -0.3011
 4244W        W 7763   3.744   2.880  10.338  0.4751 -0.0814  0.2263
 4245W        W 7764   1.847   6.766  10.426  0.1816 -0.2197 -0.3974
 4246W        W 7765   0.206   9.076  10.957  0.0553  0.2043 -0.1128
 4247W        W 7766   4.099   2.439   2.257 -0.0770 -0.1606  0.1759
 4248W        W 7767   6.669   1.982  10.146 -0.0846  0.1111 -0.1083
 4249W        W 7768   0.981   8.348   1.407 -0.0536  0.0564 -0.4056
 4250W        W 7769   7.066   8.610   9.933 -0.0531  0.2342  0.3334
 4251W        W 7770   7.319   4.512  10.468  0.1071  0.0573 -0.0474
 4252W        W 7771   0.568   6.315   3.614 -0.2071 -0.0606 -0.2689
 4253W        W 7772   1.278   5.716  10.334 -0.4435  0.0343 -0.1749
 4254W        W 7773   7.500   9.571   1.998 -0.1822 -0.0599 -0.0125
 4255W        W 7774   5.344   5.725   2.854  0.2270  0.3280 -0.0208
 4256W        W 7775   2.507   0.374   8.846  0.2148  0.1076 -0.1665
 4257W        W 7776   6.274   4.249  11.855  0.1706  0.0576 -0.0786
 4258W        W 7777   1.973   6.713   3.692 -0.0522  0.1439 -0.2083
 4259W        W 7778   6.814   5.987  10.197 -0.1529  0.0573  0.2643
 4260W        W 7779   6.091   8.913   8.259 -0.3507  0.1012 -0.1148
 4261W        W 7780   9.672   1.483   7.970 -0.1080 -0.0723  0.1002
 4262W        W 7781   9.819   1.920  12.022  0.0314  0.0841 -0.0946
 4263W        W 7782   4.012   3.852  10.654  0.1241 -0.3514  0.0060
 4264W        W 7783   9.171   0.659   1.760  0.0832 -0.0182  0.4524
 4265W        W 7784   4.125   6.641  11.141  0.0573  0.0807 -0.0151
 4266W        W 7785   6.399   9.350   0.647  0.0992 -0.3394  0.0362
 4267W        W 7786   3.474   0.993  11.806  0.2301 -0.1773 -0.2543
 4268W        W 7787   8.771   2.706   2.643  0.0524  0.1150  0.1865
 4269W        W 7788   0.889   5.349   9.981  0.0190  0.1128 -0.0002
 4270W        W 7789   6.824   5.091   2.076 -0.2489 -0.0282 -0.0992
 4271W        W 7790   1.962   2.069  11.548 -0.0409 -0.0706  0.1824
 4272W        W 7791   6.249   0.590   1.288 -0.0401  0.0213 -0.0085
 4273W        W 7792   1.712   6.815   9.197 -0.1957 -0.1839  0.1203
 4274W        W 7793   5.731   9.760   4.247 -0.0892 -0.0856  0.2326
 4275W        W 7794   3.449   1.093   3.409 -0.0444  0.1603  0.2219
 4276W        W 7795   9.632   4.261   3.198 -0.0093 -0.0241  0.0804
 4277W        W 7796   0.986   3.798   0.391  0.0827  0.2063 -0.2715
 4278W        W 7797   0.334   9.330   2.113 -0.1294 -0.0081  0.3550
 4279W        W 7798   5.718   8.658   0.830  0.1739  0.1031  0.1832
 4280W        W 7799   2.463   2.524  10.219 -0.1558  0.0364 -0.0827
 4281W        W 7800   6.715   5.738   4.045 -0.0487 -0.1375  0.1195
 4282W        W 7801   6.082   7.806   1.101  0.2807  0.0423  0.0134
 4283W        W 7802   2.529   4.362   0.242  0.0737  0.1156 -0.2627
 4284W        W 7803   6.085   7.161   5.152  0.0509  0.1557 -0.1479
 4285W        W 7804   9.117   7.026   4.822 -0.2095 -0.1028 -0.1911
 4286W        W 7805   8.069   3.055   3.744  0.1061 -0.0455 -0.2667
 4287W        W 7806   0.608   4.846   4.557 -0.1086  0.1233  0.2822
 4288W        W 7807   6.645   7.637   1.184  0.1695  0.1930  0.2335
 4289W        W 7808   9.727   6.534   1.449  0.1669 -0.2512  0.0859
 4290W        W 7809   7.088   4.886   2.416 -0.3375  0.0641 -0.0902
 4291W        W 7810   4.233   1.174   2.595  0.2941 -0.0759 -0.1017
 4292W        W 7811   4.698   4.515   2.853  0.2460 -0.1171 -0.0081
 4293W        W 7812   4.038   2.362   3.038  0.2257  0.3638 -0.1854
 4294W        W 7813   0.171   3.507  10.132 -0.0309  0.2780 -0.0813
 4295W        W 7814   5.907   2.251   3.221  0.1314  0.0476  0.2462
 4296W        W 7815   1.529   8.322   0.885  0.1278 -0.0339 -0.1849
 4297W        W 7816   3.138   5.161  10.876 -0.2442  0.0343 -0.0130
 4298W        W 7817   3.291   4.809   4.088 -0.0705 -0.4002 -0.3321
 4299W        W 7818   9.674   2.904   2.372 -0.2731 -0.1196 -0.0911
 4300W        W 7819   2.150   6.208   9.468 -0.2615  0.1286  0.1737
 4301W        W 7820   8.217   0.707   1.989 -0.2930 -0.3824 -0.0411
 4302W        W 7821   2.070   0.115   9.391 -0.1035 -0.1200  0.0253
 4303W        W 7822   4.365   7.668  11.148  0.2624  0.0778 -0.2009
 4304W        W 7823   3.092   0.715   3.434 -0.2298 -0.0961  0.2011
 4305W        W 7824   0.651   7.556   8.711  0.1886  0.0790 -0.0765
 4306W        W 7825   3.573   2.195   0.398 -0.0986  0.2136  0.1111
 4307W        W 7826   9.407   8.976   0.162 -0.2353 -0.2184 -0.1285
 4308W        W 7827   8.067   6.309  12.048 -0.2075  0.0863 -0.3027
 4309W        W 7828   9.676   1.289  10.316 -0.1754 -0.0619 -0.1337
 4310W        W 7829   9.087   3.016  11.901 -0.1688  0.3057 -0.1974
 4311W        W 7830   5.113   2.138  11.318  0.1139  0.0316 -0.1481
 4312W        W 7831   6.245   3.722   8.966  0.0373  0.2400  0.0042
 4313W        W 7832   2.512   0.882   8.662 -0.1812  0.0760  0.0413
 4314W        W 7833   8.935   7.776  12.047  0.0228 -0.2273  0.1527
 4315W        W 7834   3.393   0.901   2.973 -0.2258  0.0942  0.1066
 4316W        W 7835   1.862   9.272  11.024 -0.1645  0.4693 -0.2799
 4317W        W 7836   0.259   9.513   1.229 -0.2093  0.0746 -0.1876
 4318W        W 7837   8.236   9.755  11.877 -0.1765  0.0865 -0.3171
 4319W        W 7838   8.307   8.858   3.764  0.0346  0.0114  0.1315
 4320W        W 7839   1.898   4.937   9.676 -0.0442  0.0378 -0.0207
 4321W        W 7840   7.948   1.015  10.691 -0.1371  0.3769 -0.1587
 4322W        W 7841   6.158   8.969   1.331  0.1304  0.0756  0.2025
 4323W        W 7842   8.036   7.640  11.967  0.0380  0.2546  0.3020
 4324W        W 7843   9.397   5.817   1.228  0.3131  0.0728 -0.0884
 4325W        W 7844   2.233   3.905   2.808 -0.0798 -0.0326  0.2264
 4326W        W 7845   3.052   9.820  10.791 -0.1529 -0.0838 -0.0314
 4327W        W 7846   9.862   3.198   4.552 -0.2517 -0.0011  0.0727
 4328W        W 7847   7.369   2.153  12.080  0.3646 -0.1071 -0.2877
 4329W        W 7848   8.653   6.595   4.707 -0.1388  0.0418  0.0575
 4330W        W 7849   8.585   8.738   0.728  0.2394  0.1313  0.1220
 4331W        W 7850   9.011   7.625   1.680 -0.1345  0.0784  0.0515
 4332W        W 7851   4.627   1.351   9.849 -0.2120 -0.1593 -0.0384
 4333W        W 7852   9.121   7.469   0.285 -0.2151 -0.1367 -0.0391
 4334W        W 7853   8.828   8.727   3.057  0.2650  0.0018  0.0907
 4335W        W 7854   3.981   9.612   9.409  0.0663  0.3102 -0.2274
 4336W        W 7855   5.018   1.245  11.651 -0.1069 -0.0073 -0.1227
 4337W        W 7856   5.825   5.396   9.346  0.1104  0.1163 -0.0761
 4338W        W 7857   7.682   2.066   8.251 -0.2265 -0.3076 -0.3038
 4339W        W 7858   1.219   7.043   2.766 -0.0235 -0.3666  0.2836
 4340W        W 7859   2.610   1.354  10.932  0.2396  0.0332 -0.0650
 4341W        W 7860   9.163   5.488   3.987 -0.0446 -0.2490 -0.0243
 4342W        W 7861   1.133   7.763  11.598 -0.1155  0.3256  0.3811
 4343W        W 7862   2.622   6.532   4.080 -0.0623 -0.2995  0.1740
 4344W        W 7863   8.302   1.219   9.178  0.1125  0.1179  0.1092
 4345W        W 7864   4.745   7.309   9.946  0.0537 -0.2374  0.1353
 4346W        W 7865   8.879   6.459   1.569 -0.2161  0.1756  0.0858
 4347W        W 7866   1.579   3.043   3.406  0.0067  0.2048 -0.2351
 4348W        W 7867   5.548   6.347   8.911 -0.1998  0.0113 -0.1946
 4349W        W 7868   2.790   6.672   8.355 -0.2929 -0.0641 -0.1349
 4350W        W 7869   8.947   9.026   0.996 -0.1108 -0.2112  0.2367
 4351W        W 7870   5.340   2.543   2.459  0.0255  0.4181  0.1618
 4352W        W 7871   6.715   8.252   4.212 -0.0752 -0.0649  0.0856
 4353W        W 7872   1.773   8.490   1.644  0.1952 -0.2182 -0.1227
 4354W        W 7873   5.172   7.006   2.226  0.1785  0.2455 -0.0701
 4355W        W 7874   6.665   4.865   8.806  0.0812 -0.2854 -0.1985
 4356W        W 7875   6.676   7.160   0.950  0.0781  0.0330  0.1196
 4357W        W 7876   8.376   7.836   1.014  0.0786 -0.0749  0.1314
 4358W        W 7877   2.326   8.190   0.023 -0.0704  0.1153 -0.2251
 4359W        W 7878   6.929   1.119   4.053  0.0823 -0.0660  0.3640
 4360W        W 7879   0.991   5.789   4.362 -0.2185  0.2904  0.2290
 4361W        W 7880   1.175   6.518   0.304  0.2358 -0.3273  0.0360
 4362W        W 7881   1.086   7.481   9.113 -0.1645  0.1365  0.0136
 4363W        W 7882   0.181   0.043   0.811 -0.0780  0.3620 -0.0417
 4364W        W 7883   6.269   4.648   9.011  0.2730  0.4131  0.0766
 4365W        W 7884   7.114   8.791   4.727  0.1712  0.4469  0.3377
 4366W        W 7885   5.969   9.368   8.539 -0.1713  0.3905 -0.1516
 4367W        W 7886   4.482   9.400  11.755  0.1299  0.2141 -0.1906
 4368W        W 7887   4.036   5.138   2.783  0.1674  0.0240 -0.1653
 4369W        W 7888   2.312   5.701   3.448  0.2209 -0.1247  0.1948
 4370W        W 7889   9.522   1.627   2.654 -0.3468 -0.0260  0.3246
 4371W        W 7890   5.788   6.284  11.771  0.1837  0.2158  0.1401
 4372W        W 7891   8.257   6.406   0.357 -0.0009  0.0394  0.1394
 4373W        W 7892   2.212   8.889   8.485  0.1364 -0.1807  0.0649
 4374W        W 7893   0.707   2.533   9.555 -0.1639 -0.0397  0.1024
 4375W        W 7894   3.228   7.471   8.661 -0.4797  0.1400  0.0019
 4376W        W 7895   8.869   8.049   3.323 -0.1033  0.3576  0.0611
 4377W        W 7896   2.777   8.956   9.153 -0.1296 -0.1134 -0.2282
 4378W        W 7897   5.020   7.343   0.234 -0.2749  0.0545 -0.0464
 4379W        W 7898   3.576   4.120   2.006  0.0026  0.0321  0.0856
 4380W        W 7899   0.500   6.282  11.581  0.1783 -0.1254 -0.0260
 4381W        W 7900   0.519   9.492  10.845 -0.2563  0.1937 -0.0208
 4382W        W 7901   2.349   7.788   4.896 -0.1745  0.0722 -0.1203
 4383W        W 7902   7.938   5.342  11.922  0.2360  0.2440  0.0648
 4384W        W 7903   7.932   8.913   9.477  0.2189 -0.0396 -0.0081
 4385W        W 7904   7.807   3.619   3.141  0.2448 -0.0755  0.0339
 4386W        W 7905   4.866   7.660  11.446 -0.3297  0.2155  0.0961
 4387W        W 7906   9.480   3.372  11.819 -0.0492  0.1044 -0.0555
 4388W        W 7907   4.978   8.720  11.940 -0.1947  0.0969  0.0112
 4389W        W 7908   1.758   7.640   9.614 -0.2541  0.2026 -0.1375
 4390W        W 7909   7.998   7.808   2.260  0.0552 -0.1907  0.0444
 4391W        W 7910   2.285   2.265   2.090 -0.0329 -0.3721  0.4656
 4392W        W 7911   8.454   2.573   0.545  0.0015 -0.0089  0.0229
 4393W        W 7912   3.946   3.908   0.953  0.2813 -0.2794  0.3842
 4394W        W 7913   1.645   8.179   2.968 -0.1803 -0.0880  0.0398
 4395W        W 7914   7.961   5.648   1.688 -0.4428 -0.3172  0.1364
 4396W        W 7915   5.063   8.867   3.297  0.0682 -0.0197 -0.0831
 4397W        W 7916   2.733   5.152   9.225  0.2601 -0.1019  0.1388
 4398W        W 7917   5.893   9.529   1.354 -0.1520  0.0946  0.1563
 4399W        W 7918   4.205   6.130   3.923  0.2317  0.5630 -0.1195
 4400W        W 7919   3.957   8.194  10.558 -0.0717 -0.1045 -0.2609
 4401W        W 7920   3.686   4.691  10.978  0.0356  0.0485 -0.1828
 4402W        W 7921   1.047   3.097   4.283  0.0938 -0.2559  0.2577
 4403W        W 7922   7.614   0.445   9.973  0.0280 -0.0262 -0.0842
 4404W        W 7923   1.021   3.872   0.901  0.0293  0.2176 -0.1754
 4405W        W 7924   1.549   5.904  10.756  0.2227 -0.0423 -0.1397
 4406W        W 7925   4.990   4.366   0.225  0.3598  0.0580  0.0422
 4407W        W 7926   3.952   2.698  11.721  0.2017  0.2347 -0.0468
 4408W        W 7927   1.061   8.057   9.800 -0.0633  0.0261  0.1614
 4409W        W 7928   7.460   6.444   2.484  0.1623 -0.1828 -0.1364
 4410W        W 7929   8.548   8.040  10.709 -0.0975  0.1143  0.0027
 4411W        W 7930   4.292   2.887   1.223  0.1772 -0.0204 -0.0398
 4412W        W 7931   4.734   2.865   0.959 -0.1116 -0.2167  0.0208
 4413W        W 7932   5.343   0.206   8.910 -0.1137  0.0248 -0.0631
 4414W        W 7933   7.233   7.298   0.876 -0.1742  0.1792 -0.3759
 4415W        W 7934   6.786   4.313   4.539 -0.1816 -0.0832 -0.1443
 4416W        W 7935   6.622   3.109   0.891 -0.0873  0.0592 -0.3786
 4417W        W 7936   7.701   4.576   1.727 -0.2233 -0.2813  0.0976
 4418W        W 7937   5.530   1.365   3.147 -0.2182  0.4471 -0.0789
 4419W        W 7938   4.423   1.580  10.269 -0.4141 -0.0947  0.1389
 4420W        W 7939   6.462   4.215   2.921  0.0749 -0.0589  0.4474
 4421W        W 7940   6.977   5.695   8.711 -0.2128  0.1046  0.2835
 4422W        W 7941   2.519   9.785   3.972  0.1838  0.2035  0.0955
 4423W        W 7942   1.737   5.815  11.560 -0.4008  0.0621 -0.0760
 4424W        W 7943   1.959   9.558   0.324  0.0318 -0.0020  0.1373
 4425W        W 7944   4.463   3.564   5.141  0.3254 -0.0587 -0.1522
 4426W        W 7945   3.070   8.666   2.121  0.2108 -0.1320 -0.2284
 4427W        W 7946   6.575   1.895   4.386 -0.0098  0.2187 -0.2495
 4428W        W 7947   7.599   3.538   9.194 -0.2553  0.0427 -0.1834
 4429W        W 7948   8.959   3.838  10.059 -0.0069  0.1517  0.1832
 4430W        W 7949   6.149   6.285   9.552 -0.3842 -0.0750  0.0607
 4431W        W 7950   6.409   5.782   8.169  0.0325  0.3743 -0.0768
 4432W        W 7951   6.011   8.021   9.063  0.2368 -0.0740  0.2113
 4433W        W 7952   4.124   3.413   2.322 -0.0076 -0.0940  0.0105
 4434W        W 7953   1.118   1.789   3.275 -0.2409  0.1562  0.2033
 4435W        W 7954   5.314   7.874  11.043 -0.1226 -0.1194 -0.0823
 4436W        W 7955   7.283   5.266  10.094 -0.1845 -0.0869 -0.1438
 4437W        W 7956   6.226   2.775  10.667 -0.0425  0.2075 -0.0936
 4438W        W 7957   7.396   3.428  11.872 -0.1339  0.0256  0.3444
 4439W        W 7958   4.185   1.610   2.316 -0.1015 -0.0409  0.0699
 4440W        W 7959   6.691   8.654   1.386 -0.0876 -0.2241 -0.2702
 4441W        W 7960   3.458   5.401  11.695  0.1010 -0.2538  0.2219
 4442W        W 7961   2.170   5.895   2.338  0.1569 -0.1915 -0.0400
 4443W        W 7962   5.837   7.349   1.392 -0.1035 -0.2064 -0.0764
 4444W        W 7963   2.072   8.164   2.617  0.1273 -0.1076  0.0872
 4445W        W 7964   6.950   7.990   9.514  0.3202  0.0668 -0.2462
 4446W        W 7965   4.107   8.409   7.896 -0.0578  0.0739  0.0610
 4447W        W 7966   4.943   0.261  11.317  0.0922  0.0995 -0.0070
 4448W        W 7967   1.933   1.567  11.542  0.1022 -0.0988 -0.2677
 4449W        W 7968   6.494   0.930   9.749 -0.1625 -0.1037  0.0787
 4450W        W 7969   8.548   5.412  10.836  0.1126 -0.0029  0.0486
 4451W        W 7970   9.740   7.877   1.032 -0.0587  0.1086 -0.1663
 4452W        W 7971   0.595   0.114   2.541  0.0725 -0.0137  0.1176
 4453W        W 7972   5.141   7.278   2.800 -0.2656 -0.0999 -0.0356
 4454W        W 7973   2.707   4.725   1.342 -0.1903  0.3275 -0.1758
 4455W        W 7974   5.713   5.913  10.270 -0.2294 -0.0101  0.0176
 4456W        W 7975   1.057   3.829  11.504 -0.1891 -0.3294 -0.1488
 4457W        W 7976   7.965   9.093   2.734  0.2565  0.0305 -0.0998
 4458W        W 7977   8.883   2.278   2.814  0.2274 -0.2385 -0.2200
 4459W        W 7978   4.365   2.023   9.747  0.0514 -0.1772  0.1865
 4460W        W 7979   7.370   9.861   2.863 -0.0017  0.0563  0.1163
 4461W        W 7980   6.181   1.084   1.044  0.0447 -0.2031 -0.0585
 4462W        W 7981   3.200   1.264   2.455  0.0577  0.2261  0.0881
 4463W        W 7982   2.076   6.254   2.755 -0.0006  0.1311  0.1932
 4464W        W 7983   9.722   7.804   4.435  0.0324 -0.2898 -0.1091
 4465W        W 7984   3.610   3.557   1.122  0.1844 -0.5270  0.0329
 4466W        W 7985   2.057   8.751   0.654 -0.1961 -0.1749 -0.0788
 4467W        W 7986   2.812   0.283   4.268 -0.1848  0.3236 -0.0732
 4468W        W 7987   9.492   2.320   4.146 -0.1352 -0.0684  0.1479
 4469W        W 7988   4.275   4.773   8.763  0.0058  0.1830 -0.3834
 4470W        W 7989   2.084   7.706   9.109  0.1250 -0.0680 -0.1934
 4471W        W 7990   4.990   1.015  10.910  0.2507  0.1081 -0.3379
 4472W        W 7991   0.942   8.715  10.700 -0.0888 -0.1671 -0.0278
 4473W        W 7992   0.096   1.532   3.585  0.1956  0.0734 -0.0545
 4474W        W 7993   3.922   6.131   4.371  0.1624 -0.2274  0.2428
 4475W        W 7994   4.264   4.162   0.722 -0.0528  0.0793 -0.1175
 4476W        W 7995   7.219   7.594   8.836 -0.1494 -0.1858  0.1574
 4477W        W 7996   5.264   3.914   4.093  0.2882 -0.0348  0.0911
 4478W        W 7997   7.540   2.425   3.318 -0.1396  0.2360  0.0233
 4479W        W 7998   7.028   9.061  12.103  0.0119 -0.1702 -0.1315
 4480W        W 7999   2.687   3.046  11.371 -0.1509 -0.0643  0.1568
 4481W        W 8000   4.545   9.305  11.295 -0.4049 -0.1589 -0.0492
 4482W        W 8001   8.025   2.464   9.175  0.1597  0.1909 -0.0336
 4483W        W 8002   5.484   0.831   0.708  0.2715  0.0070  0.2426
 4484W        W 8003   5.340   0.126   0.075  0.0229 -0.1743  0.2500
 4485W        W 8004   7.320   9.536   8.914 -0.5180  0.2752  0.0313
 4486W        W 8005   3.912   3.920  11.546 -0.0342 -0.1546 -0.2294
 4487W        W 8006   6.148   8.301   3.090  0.1752  0.0979  0.0621
 4488W        W 8007   9.617   7.939  11.424 -0.3388  0.1153  0.1017
 4489W        W 8008   3.782   6.006   2.017 -0.3978 -0.1695  0.1588
 4490W        W 8009   3.625   5.295   1.601  0.1678  0.0858  0.2433
 4491W        W 8010   3.396   9.233   9.977 -0.2811  0.0763 -0.0390
 4492W        W 8011   0.036   0.431  10.155  0.2133  0.1979 -0.2078
 4493W        W 8012   1.101   0.406  10.968  0.2068  0.0536  0.1599
 4494W        W 8013   2.355   2.842   3.612  0.0371  0.1349 -0.1380
 4495W        W 8014   8.567   2.387   8.984 -0.0426  0.1624  0.1860
 4496W        W 8015   7.580   9.001   1.117  0.2138  0.0272 -0.0690
 4497W        W 8016   7.275   0.698   4.179  0.2146 -0.1352  0.1106
 4498W        W 8017   2.974   0.170   8.833 -0.1714 -0.0827 -0.2620
 4499W        W 8018   6.692   0.875   1.082  0.3687  0.2174  0.0562
 4500W        W 8019   5.338   5.089   2.117  0.4793  0.0794 -0.1707
 4501W        W 8020   2.637   6.061  10.243  0.0924  0.0534 -0.0574
 4502W        W 8021   5.132   8.537   8.021 -0.0652  0.0391  0.1681
 4503W        W 8022   3.738   5.950   2.504  0.2294  0.1545  0.0709
 4504W        W 8023   3.685   7.447   8.936  0.0043  0.1236  0.0263
 4505W        W 8024   0.758   9.591   2.124  0.1110 -0.0992  0.0791
 4506W        W 8025   8.243   7.260  11.406  0.0973  0.0921  0.3368
 4507W        W 8026   4.307   7.284   8.963  0.0756  0.0816 -0.1722
 4508W        W 8027   8.870   1.273   8.537  0.0237 -0.1777  0.0612
 4509W        W 8028   6.688   1.680   8.320 -0.0608 -0.0224  0.0764
 4510W        W 8029   1.738   1.055   2.187  0.0710  0.0106 -0.0672
 4511W        W 8030   4.450   5.202   8.807 -0.3561 -0.2403  0.1040
 4512W        W 8031   3.704   2.111  10.493  0.1461  0.1833  0.0566
 4513W        W 8032   3.605   6.028   9.980 -0.0963  0.0858 -0.0156
 4514W        W 8033   8.200   6.514   9.314  0.0597  0.0473 -0.1298
 4515W        W 8034   8.934   1.965   1.905  0.0979  0.0948 -0.0453
 4516W        W 8035   6.881   2.859   4.028  0.3371 -0.1696 -0.5156
 4517W        W 8036   2.226   0.884   2.047  0.1635  0.2270 -0.0560
 4518W        W 8037   7.262   6.083   5.127  0.1473  0.0396  0.4597
 4519W        W 8038   7.342   7.254  10.826 -0.1272  0.2198 -0.0033
 4520W        W 8039   8.465   3.112   1.655  0.0618 -0.3050  0.2593
 4521W        W 8040   4.796   0.244   4.218 -0.1901 -0.2318 -0.1968
 4522W        W 8041   0.298   1.310   3.091  0.1145 -0.2486  0.1016
 4523W        W 8042   5.991   1.132   2.741 -0.0890  0.0895  0.0629
 4524W        W 8043   2.196   0.416   2.188  0.0536 -0.0380  0.0091
 4525W        W 8044   4.893   3.328   1.644 -0.1440  0.2548  0.5707
 4526W        W 8045   3.275   2.774   3.963  0.0495 -0.1177 -0.3156
 4527W        W 8046   7.539   9.364  10.763  0.0326 -0.0456 -0.0893
 4528W        W 8047   6.685   3.604   1.166  0.0960  0.2022  0.0739
 4529W        W 8048   8.898   4.547   3.267  0.2294  0.1684  0.1559
 4530W        W 8049   4.599   6.926   0.475 -0.0187  0.3103  0.1951
 4531W        W 8050   2.995   5.131   3.116 -0.0992 -0.0133  0.2173
 4532W        W 8051   7.393   2.215   9.323 -0.0883 -0.2780 -0.0982
 4533W        W 8052   1.812   8.522  11.640  0.0598  0.2136 -0.1922
 4534W        W 8053   8.123   6.847  10.449  0.3763  0.1490  0.0047
 4535W        W 8054   1.346   7.008  10.409  0.1101  0.0934 -0.0239
 4536W        W 8055   0.014   8.624   3.850 -0.1350  0.0949 -0.3734
 4537W        W 8056   4.824   3.892   8.061  0.2902 -0.0539 -0.0089
 4538W        W 8057   8.387   1.780  10.465 -0.0206 -0.1135 -0.4189
 4539W        W 8058   3.141   6.742  10.467 -0.0072  0.3593 -0.0730
 4540W        W 8059   7.674   2.278  10.990  0.1428 -0.3814 -0.2347
 4541W        W 8060   7.819   1.978  11.334  0.3203 -0.0689  0.2438
 4542W        W 8061   3.071   9.303  10.886  0.0956  0.0310 -0.3506
 4543W        W 8062   9.102   5.804   0.349 -0.1961  0.0354  0.2189
 4544W        W 8063   3.945   1.335  11.598  0.1614  0.1086  0.3741
 4545W        W 8064   3.309   5.644   2.455  0.0492  0.2788 -0.1419
 4546W        W 8065   7.587   4.225   2.773  0.1324 -0.2112  0.1710
 4547W        W 8066   7.521   3.750   0.770  0.0430  0.1920  0.1317
 4548W        W 8067   2.164   2.809   4.996 -0.1195  0.0738  0.0464
 4549W        W 8068   6.149   2.496   8.116 -0.1760 -0.0690 -0.2390
 4550W        W 8069   9.553   8.098  10.870  0.0673  0.1079  0.1786
 4551W        W 8070   1.688   6.795   2.915 -0.1962  0.0635 -0.0494
 4552W        W 8071   9.408   8.537   4.007  0.1217  0.1067  0.2925
 4553W        W 8072   4.891   1.057   0.481 -0.0026 -0.1099  0.1864
 4554W        W 8073   4.758   0.273   3.669 -0.2533  0.3282 -0.1985
 4555W        W 8074   0.874   3.352   0.876 -0.2596  0.2857 -0.0425
 4556W        W 8075   1.654   6.459   4.387  0.1478 -0.2678  0.0252
 4557W        W 8076   7.262   6.171  10.311 -0.1272 -0.0805 -0.3058
 4558W        W 8077   4.173   3.654  11.226 -0.0657 -0.0242  0.2283
 4559W        W 8078   4.793   6.390   9.684  0.0095  0.0050 -0.1283
 4560W        W 8079   4.248   9.505   4.499  0.0999 -0.1310  0.0583
 4561W        W 8080   5.368   8.461   3.411  0.1816 -0.4767  0.4982
 4562W        W 8081   0.652   6.166   9.600 -0.1161 -0.3306  0.2417
 4563W        W 8082   4.937   6.913  10.887  0.4980  0.3274 -0.3459
 4564W        W 8083   7.091   6.947   1.195 -0.0845 -0.0022 -0.5195
 4565W        W 8084   4.668   7.015   8.763 -0.0863 -0.1149 -0.1350
 4566W        W 8085   5.026   3.616   4.471 -0.0792  0.0148  0.1033
 4567W        W 8086   0.619   0.579  10.924  0.0879  0.2072 -0.1029
 4568W        W 8087   6.826   8.545   9.217  0.2472  0.5319  0.2539
 4569W        W 8088   9.298   6.028   2.769 -0.2000  0.0305 -0.1441
 4570W        W 8089   2.248   4.724   1.541 -0.0586  0.0939 -0.0791
 4571W        W 8090   6.421   0.313   1.672  0.2990 -0.3257  0.0331
 4572W        W 8091   3.671   8.130   1.663  0.0209  0.0315 -0.2601
 4573W        W 8092   5.283   5.875   9.140 -0.0971 -0.1071  0.1455
 4574W        W 8093   3.109   1.731  10.409 -0.1211  0.1436 -0.3299
 4575W        W 8094   3.239   1.703   0.301 -0.2165 -0.0305 -0.0186
 4576W        W 8095   0.871   5.079   0.444  0.2301  0.1934  0.1950
 4577W        W 8096   0.854   2.205   0.257 -0.0449  0.1281 -0.0699
 4578W        W 8097   8.521   0.646   0.745 -0.0039  0.0001 -0.2732
 4579W        W 8098   9.724   1.743  11.583  0.0712 -0.0746  0.0791
 4580W        W 8099   2.940   6.087   9.031  0.1531  0.0113 -0.5418
 4581W        W 8100   0.303   5.605  10.470 -0.1344  0.0630 -0.1514
 4582W        W 8101   0.486   5.008   9.835 -0.0166 -0.4261  0.1605
 4583W        W 8102   4.086   4.532   1.026  0.1545 -0.1435 -0.0350
 4584W        W 8103   8.166   1.340   7.955  0.1849  0.0974  0.1670
 4585W        W 8104   2.270   7.844  10.129  0.2130 -0.2150  0.0989
 4586W        W 8105   6.835   2.933   0.031 -0.0577 -0.2168  0.0110
 4587W        W 8106   5.676   2.249   9.556  0.1922  0.1829  0.0738
 4588W        W 8107   2.912   9.797   0.514 -0.1550 -0.0066 -0.0239
 4589W        W 8108   8.767   3.008   2.090 -0.2958 -0.1467  0.3003
 4590W        W 8109   8.461   6.978   0.931 -0.1909  0.2779  0.2348
 4591W        W 8110   7.063   3.872   3.290  0.1903 -0.2089 -0.1098
 4592W        W 8111   8.410   8.541  11.745 -0.1359 -0.1681 -0.0479
 4593W        W 8112   7.237   2.202   8.794  0.1275  0.1773  0.1362
 4594W        W 8113   4.768   5.689  10.762 -0.2226  0.0540  0.0864
 4595W        W 8114   6.350   7.760   2.946 -0.0411  0.0852 -0.1030
 4596W        W 8115   3.399   4.538  12.049  0.1790 -0.1205 -0.1563
 4597W        W 8116   2.628   1.435   2.517 -0.3592 -0.4338 -0.1555
 4598W        W 8117   5.726   8.696  10.900 -0.2099 -0.1244  0.1986
 4599W        W 8118   9.695   9.024   3.024  0.0070  0.0153 -0.0146
 4600W        W 8119   0.388   9.070  10.059  0.2658 -0.0449  0.0979
 4601W        W 8120   3.512   3.276  10.431  0.0292 -0.2479  0.1339
 4602W        W 8121   0.037   5.730   9.253  0.3662 -0.1064  0.3027
 4603W        W 8122   3.156   7.189   1.304  0.0167 -0.0441 -0.0440
 4604W        W 8123   9.710   8.753   0.433 -0.0725 -0.1519 -0.3731
 4605W        W 8124   7.985   6.720  11.738 -0.3466 -0.2033 -0.3121
 4606W        W 8125   2.878   3.008   9.151  0.0008 -0.0497 -0.0334
 4607W        W 8126   2.626   5.914   2.321  0.0183 -0.0414  0.0968
 4608W        W 8127   0.057   5.726   3.453  0.0385  0.2124 -0.0107
 4609W        W 8128   4.153   7.566  11.842  0.0576 -0.2114 -0.0150
 4610W        W 8129   1.784   8.578   2.719 -0.2750 -0.1376  0.1296
 4611W        W 8130   0.626   0.875   0.009 -0.0969  0.1386  0.0151
 4612W        W 8131   7.088   3.147   3.143 -0.0797 -0.0058  0.2632
 4613W        W 8132   0.624   2.930  11.795 -0.1581 -0.3537 -0.0720
 4614W        W 8133   8.710   5.795   4.222  0.0259  0.0422  0.1567
 4615W        W 8134   1.470   5.576   2.288 -0.1706  0.2098  0.0741
 4616W        W 8135   0.201   5.325   3.822  0.0074 -0.0875  0.2784
 4617W        W 8136   2.557   9.087   3.731  0.2408  0.1121 -0.4917
 4618W        W 8137   6.373   9.270  11.665 -0.2418  0.0027  0.2963
 4619W        W 8138   5.217   6.159   1.819 -0.0595  0.1746  0.1204
 4620W        W 8139   4.044   8.015  11.078 -0.2700  0.0793 -0.1281
 4621W        W 8140   7.020   6.413   1.106 -0.1657  0.0448  0.2321
 4622W        W 8141   9.745   1.810  10.158 -0.3506  0.1120  0.1399
 4623W        W 8142   7.540   5.592  11.080 -0.0355 -0.2428  0.0436
 4624W        W 8143   2.624   8.359   3.904 -0.0626 -0.2411 -0.3482
 4625W        W 8144   4.923   4.507   1.536 -0.1931 -0.1850 -0.2175
 4626W        W 8145   6.377   7.051  11.052 -0.1568  0.1161  0.0999
 4627W        W 8146   6.577   8.743  11.369 -0.1500 -0.1915  0.0903
 4628W        W 8147   9.250   2.473   1.523 -0.2300  0.1253  0.0485
 4629W        W 8148   1.064   6.134   2.476 -0.1544  0.1777 -0.0447
 4630W        W 8149   8.921   5.139   1.803  0.0050 -0.0111 -0.2100
 4631W        W 8150   8.222   6.438   3.742 -0.3631  0.2886 -0.1933
 4632W        W 8151   3.502   0.303   2.981 -0.1449  0.1991  0.0225
 4633W        W 8152   5.883   5.682  11.505  0.2397  0.1366  0.3489
 4634W        W 8153   4.566   9.472   2.104  0.4873 -0.1191  0.1047
 4635W        W 8154   2.897   8.048   9.835  0.1734  0.0350  0.0543
 4636W        W 8155   6.332   8.434   0.080 -0.2288  0.3665 -0.0840
 4637W        W 8156   6.366   1.411   1.980 -0.0515 -0.0492  0.0203
 4638W        W 8157   6.949   6.370   2.475  0.1426 -0.1842 -0.0302
 4639W        W 8158   9.002   2.162   8.893 -0.1143 -0.0326  0.1726
 4640W        W 8159   2.455   0.896   9.541  0.1418  0.0666  0.1172
 4641W        W 8160   7.115   7.441   3.511 -0.0264 -0.0403 -0.2495
 4642W        W 8161   2.364   7.734   9.548  0.5658 -0.4363  0.1396
 4643W        W 8162   6.363   4.814   9.834  0.0268  0.1317 -0.2085
 4644W        W 8163   5.905   4.040   2.357  0.3802 -0.1459 -0.1221
 4645W        W 8164   3.203   2.375   3.679  0.5207  0.0615 -0.2392
 4646W        W 8165   8.949   8.454  10.244  0.0442 -0.1918  0.4822
 4647W        W 8166   7.008   4.321   1.631 -0.1895  0.4088 -0.0740
 4648W        W 8167   6.895   2.129   1.432 -0.0751 -0.1589  0.2157
 4649W        W 8168   2.780   1.971   0.366 -0.2210 -0.1370  0.0700
 4650W        W 8169   9.804   4.453   0.206 -0.0090  0.2005  0.0900
 4651W        W 8170   0.762   2.719   0.160  0.0634 -0.0496 -0.1433
 4652W        W 8171   8.114   6.213   8.950  0.0000  0.0416 -0.0518
 4653W        W 8172   3.577   8.624   2.055 -0.0287  0.2281  0.2299
 4654W        W 8173   5.919   0.704   0.939  0.1419 -0.2845 -0.3115
 4655W        W 8174   5.592   0.723   8.276 -0.0549  0.1713 -0.2617
 4656W        W 8175   2.710   1.216   1.178 -0.5215 -0.1637  0.0950
 4657W        W 8176   0.761   6.735   0.560 -0.2695  0.0816 -0.1550
 4658W        W 8177   7.209   4.307   2.461 -0.2286  0.0291 -0.0012
 4659W        W 8178   9.384   4.456   3.596  0.1657 -0.0294  0.1382
 4660W        W 8179   0.584   6.789  11.457  0.2319 -0.0541  0.2616
 4661W        W 8180   6.117   2.240   0.264 -0.1020  0.2979  0.1194
 4662W        W 8181   3.738   3.118   1.952 -0.2547 -0.0010  0.0353
 4663W        W 8182   3.099   2.126   9.083 -0.2713 -0.0130  0.0353
 4664W        W 8183   6.641   5.431  11.432  0.3071  0.1764 -0.0078
 4665W        W 8184   1.515   9.028   0.858  0.1258 -0.1938 -0.0979
 4666W        W 8185   8.598   5.020  12.010 -0.0466 -0.2205 -0.3744
 4667W        W 8186   2.618   4.807   0.422  0.1023 -0.0138  0.1756
 4668W        W 8187   2.475   9.498   0.564 -0.0210  0.0406  0.1306
 4669W        W 8188   8.824   9.818   4.652 -0.0267  0.0887 -0.1165
 4670W        W 8189   4.576   0.458  10.148  0.0818  0.0871 -0.1747
 4671W        W 8190   4.676   7.284  11.107  0.1889 -0.0360 -0.0683
 4672W        W 8191   9.595   8.314   3.585  0.0681  0.0281 -0.0491
 4673W        W 8192   3.630   5.640   3.469 -0.0352 -0.0431 -0.3412
 4674W        W 8193   9.610   2.867  11.724 -0.0729  0.0650 -0.3943
 4675W        W 8194   5.816   1.677   9.642  0.2637 -0.0438 -0.1976
 4676W        W 8195   0.728   9.080  11.034  0.0494 -0.3449  0.0905
 4677W        W 8196   6.794   7.960   0.572 -0.2136  0.1330  0.0976
 4678W        W 8197   0.722   1.329  11.860 -0.0832  0.0831 -0.0189
 4679W        W 8198   5.604   4.059   9.546 -0.1028  0.3941 -0.0324
 4680W        W 8199   5.784   8.505   9.140  0.0554  0.0040 -0.0481
 4681W        W 8200   4.094   7.745   9.060 -0.1225 -0.1273 -0.2876
 4682W        W 8201   7.046   0.849   9.770  0.1775  0.1158 -0.1900
 4683W        W 8202   6.627   3.163  11.655  0.0676 -0.1182 -0.1927
 4684W        W 8203   4.741   3.908   9.125 -0.0875 -0.2222  0.1600
 4685W        W 8204   9.411   5.711  11.098 -0.1447 -0.0072 -0.1038
 4686W        W 8205   4.534   6.237   2.596  0.0583  0.0260 -0.2641
 4687W        W 8206   5.123   6.233   1.169  0.2533 -0.2444  0.2433
 4688W        W 8207   8.618   7.093  11.854 -0.0050  0.1074  0.1505
 4689W        W 8208   0.792   7.835  11.138  0.1678 -0.3979  0.1472
 4690W        W 8209   9.846   3.905   1.983 -0.0129  0.0929  0.0680
 4691W        W 8210   6.344   9.280  10.193 -0.1600  0.2677 -0.3355
 4692W        W 8211   7.445   5.078   9.632 -0.1566 -0.0464 -0.2813
 4693W        W 8212   8.788   3.063  11.087  0.0292  0.3230  0.4711
 4694W        W 8213   4.367   7.767   0.588 -0.1186  0.2483  0.2212
 4695W        W 8214   8.609   5.327   3.065  0.0334  0.0385 -0.0817
 4696W        W 8215   1.014   2.305  10.464 -0.0075 -0.1495 -0.3593
 4697W        W 8216   3.187   4.344   2.611  0.0176 -0.2217  0.0942
 4698W        W 8217   1.509   0.557   1.470  0.0388 -0.1859  0.3629
 4699W        W 8218   1.398   6.193   0.689  0.0981 -0.0117 -0.1509
 4700W        W 8219   8.663   2.328  11.312 -0.0717  0.2312 -0.1196
 4701W        W 8220   0.092   4.335   2.458 -0.0267 -0.1030  0.0679
 4702W        W 8221   4.364   0.100   1.836 -0.1261 -0.1810 -0.3885
 4703W        W 8222   3.176   2.909  11.373  0.1207 -0.1396  0.0781
 4704W        W 8223   1.414   0.932  11.122 -0.0922  0.2852  0.0404
 4705W        W 8224   2.541   2.580  11.224 -0.4245  0.2853  0.2371
 4706W        W 8225   2.872   7.981   3.608  0.0877 -0.0424 -0.3417
 4707W        W 8226   1.086   3.703  10.955  0.1461 -0.5029  0.2905
 4708W        W 8227   8.203   0.916  11.544  0.1229  0.0138 -0.0207
 4709W        W 8228   6.102   3.437  11.482 -0.1578 -0.2838  0.0979
 4710W        W 8229   8.787   0.409   2.700  0.1126  0.3043  0.4034
 4711W        W 8230   3.695   1.926   1.654 -0.0575 -0.0712 -0.0808
 4712W        W 8231   7.737   5.435   0.446 -0.1362  0.3853  0.1684
 4713W        W 8232   4.762   1.990  10.090 -0.0720  0.1724 -0.0023
 4714W        W 8233   0.102   5.486  10.997 -0.0827 -0.1012 -0.2242
 4715W        W 8234   4.166   9.177   1.073 -0.1601  0.1965  0.2215
 4716W        W 8235   0.691   3.977   3.494  0.1401 -0.0437 -0.1477
 4717W        W 8236   7.001   6.990   3.646  0.0077 -0.1741  0.0322
 4718W        W 8237   7.082   9.622   9.454 -0.0347  0.1515  0.0997
 4719W        W 8238   3.835   8.240   9.718 -0.3559 -0.1415 -0.2909
 4720W        W 8239   4.258   2.802   9.430  0.1364 -0.1219  0.1150
 4721W        W 8240   2.802   8.967   5.179 -0.1063 -0.3534 -0.1898
 4722W        W 8241   6.520   8.096   9.216  0.2187  0.3408 -0.1069
 4723W        W 8242   1.716   8.799   3.300 -0.1080  0.0274 -0.0839
 4724W        W 8243   4.049   1.071   9.635 -0.0999 -0.1045 -0.0612
 4725W        W 8244   1.996   0.657   0.691  0.1642  0.0954 -0.0513
 4726W        W 8245   1.355   4.086   5.478  0.0426 -0.2413  0.2750
 4727W        W 8246   3.900   0.997   1.659  0.1981 -0.1651  0.0407
 4728W        W 8247   4.188   6.019  10.542  0.0376 -0.0481  0.0478
 4729W        W 8248   9.449   8.589   9.512  0.0930 -0.0514  0.1776
 4730W        W 8249   4.539   6.816  11.338  0.0986 -0.1086 -0.2185
 4731W        W 8250   3.557   4.958  10.168 -0.3152  0.0452  0.0789
 4732W        W 8251   8.442   7.970  12.052  0.2050 -0.2634 -0.0138
 4733W        W 8252   5.136   0.544   2.797  0.0145 -0.1750  0.2512
 4734W        W 8253   8.105   4.963   9.996 -0.2220 -0.3344 -0.0832
 4735W        W 8254   8.629   0.325   1.880  0.0750 -0.2013  0.0974
 4736W        W 8255   7.336   8.627   1.728  0.2682  0.0055  0.0546
 4737W        W 8256   2.047   4.472  11.471 -0.0240 -0.0525  0.3031
 4738W        W 8257   6.379   5.521  11.000 -0.0429 -0.1363 -0.0312
 4739W        W 8258   6.135   7.616   1.734 -0.1583 -0.0036  0.3696
 4740W        W 8259   7.177   3.380   2.679 -0.2860  0.0581  0.0010
 4741W        W 8260   6.093   6.199   4.231 -0.1137 -0.2307  0.1551
 4742W        W 8261   6.449   7.262   2.872 -0.2264 -0.3511  0.1952
 4743W        W 8262   2.443   4.247  10.214 -0.0824  0.3027  0.0258
 4744W        W 8263   7.495   6.795  11.539 -0.4015 -0.1330  0.0006
 4745W        W 8264   3.786   7.677   3.548  0.3435 -0.2067 -0.0237
 4746W        W 8265   7.612   7.138   8.715 -0.0393  0.0047  0.0163
 4747W        W 8266   5.239   8.176  10.382 -0.0134  0.1946 -0.0607
 4748W        W 8267   0.150   7.504   3.222  0.1342  0.3016  0.0284
 4749W        W 8268   8.420   8.703   4.310 -0.1842 -0.0737  0.0828
 4750W        W 8269   7.084   5.783  11.371 -0.1345 -0.8274 -0.3355
 4751W        W 8270   6.167   6.941   3.824  0.1594 -0.0620  0.3105
 4752W        W 8271   2.138   2.142  10.547 -0.2939  0.2657  0.1857
 4753W        W 8272   2.170   3.599   3.767  0.0612  0.0149 -0.3254
 4754W        W 8273   2.023   7.308   2.116  0.1072 -0.2750  0.1415
 4755W        W 8274   4.348   6.673   0.093 -0.0979 -0.0406 -0.0071
 4756W        W 8275   5.414   0.620   1.556  0.3243 -0.2236  0.0226
 4757W        W 8276   5.667   0.531  12.106 -0.2369 -0.1148  0.1418
 4758W        W 8277   8.365   8.774   3.211  0.5227 -0.0050 -0.4833
 4759W        W 8278   9.207   7.727  11.629 -0.0916  0.4732  0.2621
 4760W        W 8279   3.065   4.231   1.929 -0.0676  0.0467 -0.2583
 4761W        W 8280   3.467   8.747   0.184 -0.3137  0.0306  0.1767
 4762W        W 8281   1.973   8.614   1.131 -0.2150 -0.2483  0.1055
 4763W        W 8282   6.547   6.255   2.809 -0.3129 -0.1085  0.2791
 4764W        W 8283   2.780   6.715  11.489 -0.2236 -0.0542  0.1449
 4765W        W 8284   2.421   1.186   0.281  0.1091  0.1833  0.0388
 4766W        W 8285   3.256   4.681  10.612 -0.1935 -0.0452  0.2802
 4767W        W 8286   0.644   1.318   1.806 -0.2886  0.5632  0.1897
 4768W        W 8287   7.444   1.244   0.356  0.0727  0.0357  0.2135
 4769W        W 8288   8.509   2.266  10.491  0.1216  0.2057 -0.0461
 4770W        W 8289   7.059   8.147  11.794 -0.3612 -0.2408 -0.2388
 4771W        W 8290   2.787   8.910  11.992 -0.0001  0.0438  0.1525
 4772W        W 8291   9.221   4.589   2.873  0.1125 -0.3154 -0.0476
 4773W        W 8292   6.328   5.858  11.410 -0.2832 -0.1414  0.1259
 4774W        W 8293   8.871   2.689   3.111 -0.4625 -0.0210 -0.3366
 4775W        W 8294   7.848   5.897   0.742 -0.0089 -0.0903  0.1838
 4776W        W 8295   0.969   1.474   0.803 -0.1022 -0.2136 -0.1903
 4777W        W 8296   2.983   2.464   4.283  0.0158  0.2730  0.0860
 4778W        W 8297   4.200   0.911  11.880 -0.2856  0.0050  0.2486
 4779W        W 8298   3.116   4.482   1.165 -0.0331 -0.0262 -0.1097
 4780W        W 8299   6.997   3.335  10.436 -0.1499 -0.0274 -0.0645
 4781W        W 8300   2.499   0.741   1.229 -0.0496 -0.2580  0.0131
 4782W        W 8301   7.477   3.867   3.544  0.0745 -0.1598 -0.1518
 4783W        W 8302   0.625   9.495  10.319 -0.0587 -0.1498 -0.3090
 4784W        W 8303   1.925   7.642   3.647  0.0400 -0.0766  0.1246
 4785W        W 8304   0.934   2.920   1.103 -0.3837  0.1845 -0.2273
 4786W        W 8305   7.711   0.453   0.943  0.0948 -0.0314  0.0400
 4787W        W 8306   3.269   9.721   2.174  0.3605  0.0854  0.0282
 4788W        W 8307   2.993   6.917   2.227  0.0922  0.2057 -0.1517
 4789W        W 8308   0.086   6.124   7.959  0.3442 -0.1699  0.1487
 4790W        W 8309   5.603   6.160   4.178 -0.2678  0.1520  0.1695
 4791W        W 8310   3.731   1.259  10.059  0.0557  0.0539 -0.0505
 4792W        W 8311   2.212   2.132   0.998  0.1707 -0.0672 -0.0369
 4793W        W 8312   7.907   0.768   2.491 -0.1752 -0.2647 -0.1328
 4794W        W 8313   7.323   7.914   2.333 -0.1727 -0.1218 -0.1197
 4795W        W 8314   3.701   5.883  10.496 -0.3024 -0.2594  0.1763
 4796W        W 8315   9.480   5.037   2.687 -0.1174  0.0081  0.1345
 4797W        W 8316   3.868   6.345  10.772  0.1370 -0.0960 -0.0064
 4798W        W 8317   0.342   5.843  11.398 -0.1169 -0.4572 -0.1182
 4799W        W 8318   8.150   5.431   0.778  0.0468 -0.0032 -0.0251
 4800W        W 8319   6.482   1.480   0.150  0.0402  0.3078  0.1082
 4801W        W 8320   3.256   3.626  10.845  0.1922 -0.2588  0.0583
 4802W        W 8321   4.964   2.646  11.639  0.0002  0.4171  0.1672
 4803W        W 8322   6.767   3.625  10.839 -0.2557  0.1188 -0.3662
 4804W        W 8323   0.676   0.189  11.285  0.3665  0.3674 -0.2808
 4805W        W 8324   9.161   4.849  10.979  0.2651  0.0852 -0.1022
 4806W        W 8325   6.188   5.579   1.700  0.0807 -0.0188  0.3342
 4807W        W 8326   7.954   1.297   4.058 -0.0283  0.0274  0.0464
 4808W        W 8327   1.146   5.953   0.314  0.1934 -0.1935 -0.0715
 4809W        W 8328   5.062   4.851   3.872  0.3923 -0.1656 -0.0040
 4810W        W 8329   0.781   5.595  11.303 -0.0274  0.0011 -0.2366
 4811W        W 8330   2.971   2.808   0.579 -0.1229 -0.1049  0.0003
 4812W        W 8331   9.590   5.697   0.804 -0.3168 -0.0395 -0.2571
 4813W        W 8332   4.197   8.631   0.515 -0.2509  0.0839  0.4313
 4814W        W 8333   1.064   3.443   5.045 -0.2574 -0.1881 -0.1711
 4815W        W 8334   1.785   6.521   9.614 -0.1436  0.0914 -0.0367
 4816W        W 8335   2.297   4.983   2.018  0.2359  0.2037 -0.4550
 4817W        W 8336   6.287   0.696   2.530  0.1363  0.0579  0.3810
 4818W        W 8337   1.249   4.026   1.951 -0.0286  0.0248  0.1552
 4819W        W 8338   1.262   4.426   9.113 -0.1006 -0.0268 -0.1984
 4820W        W 8339   7.057   5.055  10.495 -0.1570 -0.0013  0.2316
 4821W        W 8340   9.194   8.586   0.627  0.2126  0.0627  0.1727
 4822W        W 8341   6.296   1.355   0.599 -0.0769  0.0846 -0.0886
 4823W        W 8342   2.584   7.333   1.311 -0.2807 -0.0370  0.2575
 4824W        W 8343   4.588   5.464   9.807 -0.3438 -0.0037  0.0997
 4825W        W 8344   1.910   7.167   3.890 -0.1270 -0.1563 -0.0951
 4826W        W 8345   5.471   4.792  10.950  0.2366 -0.2667  0.1304
 4827W        W 8346   7.745   8.543   1.381 -0.0650 -0.0864  0.1201
 4828W        W 8347   8.832   1.683   8.851  0.1999  0.4343  0.0339
 4829W        W 8348   1.032   6.854  10.022  0.1329 -0.1194 -0.0300
 4830W        W 8349   8.449   6.499  11.743 -0.3664 -0.1995 -0.0981
 4831W        W 8350   2.528   4.192  10.756  0.1757 -0.2732  0.0568
 4832W        W 8351   9.427   3.882   3.808 -0.2605 -0.2392 -0.0091
 4833W        W 8352   4.353   4.049   4.192 -0.0669  0.1131 -0.0380
 4834W        W 8353   3.413   7.954   9.786  0.1138  0.2320  0.0470
 4835W        W 8354   5.701   6.020   9.338 -0.4939  0.0373 -0.0409
 4836W        W 8355   1.647   1.000   0.929  0.3706  0.0913 -0.0576
 4837W        W 8356   1.446   8.018   2.528 -0.0330 -0.3680 -0.0788
 4838W        W 8357   1.938   0.070   2.717  0.2111 -0.1291 -0.0954
 4839W        W 8358   6.178   4.751   0.486 -0.3626 -0.4572  0.2202
 4840W        W 8359   6.456   6.824   0.270 -0.1319 -0.4617 -0.1415
 4841W        W 8360   3.946   5.111   1.949  0.1405  0.0876  0.1838
 4842W        W 8361   8.338   2.804   1.257 -0.1386 -0.2354 -0.5529
 4843W        W 8362   7.356   3.721  11.457 -0.2827 -0.1650  0.1685
 4844W        W 8363   8.662   1.532  10.083  0.0634  0.0707  0.1547
 4845W        W 8364   2.856   4.873   3.504 -0.0601  0.4301 -0.3257
 4846W        W 8365   6.012   1.520  10.346  0.0155  0.0313  0.0808
 4847W        W 8366   9.656   2.420  11.923 -0.1258  0.0482 -0.2716
 4848W        W 8367   7.132   6.510   8.959 -0.2344 -0.4803  0.0413
 4849W        W 8368   9.699   7.405  11.583 -0.0350  0.1039  0.0002
 4850W        W 8369   1.263   5.539   9.650 -0.2838 -0.3425 -0.0346
 4851W        W 8370   7.208   9.216   9.730 -0.2223 -0.1021  0.2568
 4852W        W 8371   0.234   3.416   9.303  0.2543  0.0378 -0.1740
 4853W        W 8372   0.777   7.435   1.096  0.0760  0.4106 -0.2158
 4854W        W 8373   5.655   9.735   9.250 -0.2348 -0.3414 -0.2491
 4855W        W 8374   1.003   7.203   9.555  0.2365 -0.1116  0.0077
 4856W        W 8375   9.674   5.741   3.886  0.2923  0.1142 -0.1762
 4857W        W 8376   3.466   6.075   1.261  0.0158  0.1922  0.0464
 4858W        W 8377   5.263   3.087  10.482  0.2681 -0.0521 -0.0019
 4859W        W 8378   3.886   1.476   9.429  0.2054 -0.0338 -0.0083
 4860W        W 8379   1.916   0.391   0.291 -0.1089  0.1028 -0.0474
 4861W        W 8380   5.602   7.145   2.541  0.0962  0.0472 -0.0453
 4862W        W 8381   0.361   9.038   4.682  0.1032 -0.1716  0.0143
 4863W        W 8382   1.604   3.753   2.181  0.1289  0.1104  0.0305
 4864W        W 8383   9.302   5.802   3.483 -0.2089  0.0098  0.0253
 4865W        W 8384   5.778   5.469   2.793 -0.1354  0.1119  0.1778
 4866W        W 8385   5.649   4.254   2.803  0.0112 -0.1235 -0.2003
 4867W        W 8386   4.874   6.586   1.446 -0.0314  0.0054  0.3335
 4868W        W 8387   0.384   5.308  11.382  0.1617  0.0458 -0.0850
 4869W        W 8388   1.132   3.982   9.908  0.1168  0.2103 -0.0247
 4870W        W 8389   0.305   6.255  10.095  0.2495  0.2271 -0.0447
 4871W        W 8390   9.117   8.370   9.012 -0.0217 -0.1803  0.2765
 4872W        W 8391   2.054   6.817  12.101 -0.1560 -0.2061  0.0332
 4873W        W 8392   0.124   6.717   4.334  0.0979 -0.2397  0.2385
 4874W        W 8393   8.597   9.091   9.204  0.0423  0.1007  0.3858
 4875W        W 8394   4.984   4.739  11.007 -0.0537  0.0294  0.0902
 4876W        W 8395   8.741   9.514  11.112 -0.1299  0.1415 -0.4008
 4877W        W 8396   5.363   5.213   8.955 -0.2886  0.1090 -0.1078
 4878W        W 8397   5.004   2.541   4.197 -0.1342 -0.1743 -0.3215
 4879W        W 8398   9.637   0.204   3.035 -0.0206  0.0791 -0.0975
 4880W        W 8399   4.201   7.520   4.790 -0.0750  0.3130 -0.1387
 4881W        W 8400   8.464   1.061   1.037  0.0703 -0.2328  0.0743
 4882W        W 8401   3.941   6.111   9.609  0.1448 -0.0643 -0.1964
 4883W        W 8402   6.109   9.712   0.798 -0.1332 -0.1331  0.2841
 4884W        W 8403   6.890   2.284  11.992  0.1343  0.0832 -0.2595
 4885W        W 8404   9.340   3.111   4.488 -0.2342  0.1192 -0.3165
 4886W        W 8405   1.924   1.901  11.998  0.1803  0.0388 -0.1688
 4887W        W 8406   8.305   2.433   2.650 -0.2179  0.0008  0.1110
 4888W        W 8407   4.773   1.121   3.797  0.1740 -0.1385  0.1114
 4889W        W 8408   6.969   4.672  10.821 -0.0061  0.2801 -0.0404
 4890W        W 8409   0.643   8.453   1.053  0.0106 -0.1352 -0.0688
 4891W        W 8410   8.694   0.180  10.974  0.0832  0.0408 -0.0349
 4892W        W 8411   2.658   5.014  12.080 -0.0566 -0.0670  0.2180
 4893W        W 8412   6.107   1.771   0.037  0.0271  0.0562 -0.0475
 4894W        W 8413   3.528   6.983   2.098 -0.0358 -0.1439 -0.2087
 4895W        W 8414   0.475   0.719   2.493  0.0692  0.0859 -0.4262
 4896W        W 8415   3.587   3.303   3.260  0.1686 -0.4055 -0.1210
 4897W        W 8416   6.339   6.049   1.770 -0.2628 -0.0947  0.1824
 4898W        W 8417   6.578   6.740  10.625  0.3114 -0.0374 -0.3636
 4899W        W 8418   9.672   5.493   5.136  0.2775  0.1307  0.1686
 4900W        W 8419   3.270   7.845   1.829  0.0144  0.0502  0.0252
 4901W        W 8420   3.421   7.482   9.512 -0.2006  0.1606  0.2048
 4902W        W 8421   6.541   1.140  10.965 -0.0738 -0.0619 -0.1053
 4903W        W 8422   2.662   0.655   9.187 -0.2609 -0.1725 -0.1354
 4904W        W 8423   2.612   7.909   9.103  0.0666  0.2254  0.1627
 4905W        W 8424   7.525   0.013  10.923 -0.0777 -0.1168 -0.0011
 4906W        W 8425   0.612   7.956   0.851 -0.1739  0.0914  0.3918
 4907W        W 8426   6.376   6.289  11.729  0.2069  0.2612  0.0107
 4908W        W 8427   4.513   1.025   0.844  0.1948  0.5804  0.0471
 4909W        W 8428   0.098   0.006   9.260  0.0423 -0.1377  0.1646
 4910W        W 8429   2.213   4.040   9.114 -0.1731  0.0429 -0.2615
 4911W        W 8430   5.051   2.805   2.136  0.0984 -0.0361  0.0892
 4912W        W 8431   9.081   9.703  12.055 -0.2374  0.0463  0.2572
 4913W        W 8432   3.772   7.218   3.072  0.1719  0.0287  0.0939
 4914W        W 8433   4.399   3.840  11.600 -0.0078 -0.0222  0.0533
 4915W        W 8434   1.170   3.194   2.481  0.1353  0.0537 -0.1186
 4916W        W 8435   7.117   0.569  10.800 -0.1411 -0.3235  0.0988
 4917W        W 8436   7.411   8.569  10.260 -0.1037 -0.0935  0.1618
 4918W        W 8437   1.026   5.955   5.326 -0.0314 -0.1183  0.1087
 4919W        W 8438   7.474   8.919   0.577  0.2095 -0.1078 -0.2678
 4920W        W 8439   5.742   6.537   9.405  0.0350  0.0333 -0.1758
 4921W        W 8440   7.250   5.221   1.034 -0.3106 -0.4026 -0.0412
 4922W        W 8441   6.133   0.156  10.888 -0.2235 -0.3945  0.1486
 4923W        W 8442   9.025   6.030   9.278  0.3496  0.1847 -0.1146
 4924W        W 8443   2.431   2.244  11.543 -0.1971  0.0868 -0.0839
 4925W        W 8444   2.651   7.627  11.704 -0.1538  0.1756 -0.2214
 4926W        W 8445   8.911   3.620   3.253  0.0300  0.1075 -0.0436
 4927W        W 8446   5.989   2.641  11.567  0.0281 -0.0042  0.0020
 4928W        W 8447   0.014   7.275   0.093 -0.0752 -0.1543  0.1913
 4929W        W 8448   2.752   5.786   0.627 -0.0598  0.1631 -0.3225
 4930W        W 8449   5.371   8.580   0.104 -0.2232  0.2509 -0.0340
 4931W        W 8450   5.073   3.578   0.296 -0.1065 -0.0546 -0.0430
 4932W        W 8451   2.617   5.106  10.100 -0.0049  0.2035 -0.0237
 4933W        W 8452   4.010   3.745   9.292 -0.1011  0.2841  0.0479
 4934W        W 8453   8.500   4.774   0.505 -0.1855  0.5069 -0.0460
 4935W        W 8454   5.728   6.843   9.017 -0.0808  0.0537  0.4096
 4936W        W 8455   4.435   1.296   3.486 -0.1884 -0.1822 -0.0369
 4937W        W 8456   7.554   7.223   1.342 -0.0391 -0.0693  0.3536
 4938W        W 8457   6.718   7.687   1.677  0.1420  0.0082 -0.1562
 4939W        W 8458   5.658   1.619   4.009  0.3016 -0.1664 -0.1887
 4940W        W 8459   0.756   3.487   2.604  0.1882 -0.3115 -0.1105
 4941W        W 8460   5.870   5.746  11.030 -0.0045  0.2827  0.2536
 4942W        W 8461   3.862   1.940   5.062 -0.2299  0.0571 -0.1567
 4943W        W 8462   0.044   2.049  10.769  0.0636 -0.0752  0.0777
 4944W        W 8463   1.165   6.224  11.909 -0.2179  0.0325 -0.1918
 4945W        W 8464   8.368   1.046   3.983  0.0807 -0.1792  0.0917
 4946W        W 8465   1.328   4.725  11.819  0.0693  0.3767  0.0491
 4947W        W 8466   3.477   4.826   2.684 -0.1410 -0.0880  0.2554
 4948W        W 8467   8.205   3.597   2.444  0.1105 -0.1272 -0.1876
 4949W        W 8468   2.742   5.591   3.136  0.4147  0.0326 -0.1198
 4950W        W 8469   8.646   2.887   0.883 -0.3793 -0.0157  0.0041
 4951W        W 8470   9.445   0.259   9.267 -0.0422  0.1581 -0.2939
 4952W        W 8471   9.854   4.142   9.657 -0.3135  0.2066  0.1067
 4953W        W 8472   6.020   8.976   9.245  0.2941 -0.1469 -0.1120
 4954W        W 8473   9.074   5.242   9.959  0.0871 -0.0921 -0.1388
 4955W        W 8474   0.688   2.336  11.914 -0.0866 -0.0218 -0.2572
 4956W        W 8475   3.696   0.167  11.744 -0.0357  0.0828  0.0386
 4957W        W 8476   9.221   0.691   0.208  0.3750 -0.1208  0.2301
 4958W        W 8477   4.364   9.759   2.547 -0.1570  0.4953  0.0396
 4959W        W 8478   4.474   1.817   3.642 -0.0874 -0.2923  0.0370
 4960W        W 8479   1.159   6.937   9.114 -0.0660 -0.0670  0.1882
 4961W        W 8480   0.444   0.242   3.603  0.0864  0.1438 -0.2080
 4962W        W 8481   1.505   3.970   1.116  0.2810  0.0388  0.1390
 4963W        W 8482   4.964   5.474  11.301  0.1406 -0.0929  0.1689
 4964W        W 8483   6.806   1.532   2.818 -0.0449 -0.1050 -0.0298
 4965W        W 8484   7.429   9.518  11.345 -0.0761  0.0287 -0.0556
 4966W        W 8485   8.874   8.890  11.090 -0.1169  0.0332  0.2449
 4967W        W 8486   4.834   3.782  10.580 -0.0810 -0.0675  0.0342
 4968W        W 8487   1.726   7.082  10.814  0.3717 -0.1213  0.0233
 4969W        W 8488   9.018   2.398  10.750 -0.2206  0.3088  0.1084
 4970W        W 8489   2.712   7.448  10.959  0.1850 -0.0518  0.2736
 4971W        W 8490   4.514   9.023   0.644 -0.0498  0.2016  0.1121
 4972W        W 8491   7.254   6.326   1.636 -0.1991  0.2495  0.4220
 4973W        W 8492   2.383   1.436  11.378  0.0703  0.0744 -0.3255
 4974W        W 8493   1.307   1.397   3.520 -0.1061 -0.0883 -0.2790
 4975W        W 8494   2.492   7.114   9.704  0.0325  0.1112  0.1575
 4976W        W 8495   0.922   7.944   0.257 -0.0424 -0.2687 -0.0580
 4977W        W 8496   8.855   0.218   0.138  0.0909 -0.0184  0.0377
 4978W        W 8497   6.905   4.781  12.004 -0.2371 -0.0351 -0.1739
 4979W        W 8498   7.715   1.207   8.693 -0.0034  0.3228  0.0281
 4980W        W 8499   1.211   3.043  12.046  0.0949 -0.0048 -0.1058
 4981W        W 8500   8.785   8.482   2.320  0.2520 -0.1482  0.0149
 4982W        W 8501   9.380   5.986   9.968  0.0392 -0.1685  0.2504
 4983W        W 8502   9.086   2.295   3.393 -0.0421 -0.1167 -0.0239
 4984W        W 8503   3.677   3.026   3.729  0.0525 -0.1446 -0.0231
 4985W        W 8504   4.947   6.526   3.582  0.2510  0.1670 -0.1488
 4986W        W 8505   2.183   4.329   1.823 -0.1601  0.1194 -0.1780
 4987W        W 8506   2.445   5.446   2.334 -0.1581 -0.1153  0.2137
 4988W        W 8507   0.031   2.103   3.906 -0.0615 -0.3097  0.0571
 4989W        W 8508   8.858   1.907  10.386  0.0006 -0.1086 -0.1214
 4990W        W 8509   7.426   6.193   2.084  0.0778 -0.1420  0.1739
 4991W        W 8510   6.823   6.208   3.327  0.1746  0.0658 -0.1611
 4992W        W 8511   6.815   9.257   3.303  0.0372 -0.1770 -0.1097
 4993W        W 8512   7.540   3.989  11.896  0.0383 -0.1691 -0.0033
 4994W        W 8513   6.438   8.251  11.584 -0.2806 -0.0899 -0.0614
 4995W        W 8514   4.583   8.128   1.683 -0.1179 -0.1097 -0.3349
 4996W        W 8515   4.944   8.114   8.926 -0.1220 -0.2811  0.1307
 4997W        W 8516   0.716   7.062   2.524  0.2421  0.1912  0.3356
 4998W        W 8517   6.483   9.788   2.078  0.1137 -0.1235 -0.3067
 4999W        W 8518   8.388   3.696  11.671  0.0605 -0.0132 -0.1136
 5000W        W 8519   2.156   8.872   1.914 -0.0299 -0.4295  0.0046
 5001W        W 8520   8.969   8.666   0.185  0.0080  0.1392  0.2077
 5002W        W 8521   7.156   9.333   2.924 -0.2836 -0.0436 -0.2113
 5003W        W 8522   8.377   9.189   0.215 -0.0123 -0.0623 -0.3354
 5004W        W 8523   2.887   5.206   1.446 -0.2110  0.1487  0.0811
 5005W        W 8524   6.978   9.179   9.160 -0.0882 -0.1487 -0.1671
 5006W        W 8525   2.830   0.236   1.637 -0.0130 -0.0834  0.1502
 5007W        W 8526   5.290   7.835   9.682 -0.0146 -0.1811  0.1683
 5008W        W 8527   4.687   9.024   1.869 -0.0342  0.0460  0.2666
 5009W        W 8528   4.382   7.412   0.226 -0.2216  0.1305  0.0051
 5010W        W 8529   8.102   2.240   2.183 -0.0694 -0.0498  0.1128
 5011W        W 8530   9.093   9.587  11.501 -0.0948  0.0692 -0.1704
 5012W        W 8531   3.094   3.508   2.499  0.4370  0.0049  0.0081
 5013W        W 8532   1.521   7.321   9.307 -0.2609 -0.1570  0.2263
 5014W        W 8533   4.921   4.936   9.049  0.2998 -0.1269  0.0903
 5015W        W 8534   4.132   5.830   0.334 -0.3990 -0.4334  0.0869
 5016W        W 8535   5.608   1.770   4.528  0.2148  0.1767  0.1206
 5017W        W 8536   1.185   7.118   4.857  0.2601 -0.0162 -0.0097
 5018W        W 8537   0.832   6.141   4.704  0.2010 -0.0217  0.0549
 5019W        W 8538   8.192   9.251  10.547 -0.2127 -0.0492 -0.0044
 5020W        W 8539   4.903   4.989   1.396 -0.0877 -0.1937 -0.0400
 5021W        W 8540   7.102   2.961   0.957 -0.5010 -0.1073  0.3402
 5022W        W 8541   0.864   4.347   1.909 -0.0531 -0.0765 -0.7033
 5023W        W 8542   5.181   9.517   0.273 -0.0266 -0.1768  0.3029
 5024W        W 8543   1.613   2.980  10.588  0.0043  0.1626 -0.0854
 5025W        W 8544   3.457   0.261  10.825  0.1590 -0.0312 -0.0212
 5026W        W 8545   6.606   3.906   0.637  0.1212  0.2024  0.0905
 5027W        W 8546   5.921   6.874  11.120  0.1241 -0.2271 -0.0792
 5028W        W 8547   4.333   4.167   2.800 -0.2071  0.0509  0.2504
 5029W        W 8548   3.017   8.239   3.161 -0.0449  0.2618 -0.1964
 5030W        W 8549   9.529   4.777  11.550 -0.0220 -0.2435 -0.0855
 5031W        W 8550   3.451   9.499  11.939 -0.2812 -0.3682  0.1583
 5032W        W 8551   1.884   0.697  11.135 -0.2136 -0.1624 -0.1162
 5033W        W 8552   6.129   1.316  11.796 -0.1904 -0.0664  0.3072
 5034W        W 8553   9.593   7.117   8.625 -0.2137  0.0992 -0.0581
 5035W        W 8554   9.597   0.789   3.161  0.1362 -0.0312  0.0548
 5036W        W 8555   5.454   4.835   1.178 -0.0785  0.1373  0.2560
 5037W        W 8556   8.723   5.058   9.255  0.1220  0.2473  0.2417
 5038W        W 8557   7.854   3.090  10.659 -0.0373 -0.0415 -0.0129
 5039W        W 8558   0.848   6.865   3.377  0.4901  0.1190  0.0345
 5040W        W 8559   0.984   9.591   1.269  0.1141 -0.0886 -0.0790
 5041W        W 8560   8.214   3.909   2.023 -0.3111 -0.1337  0.2477
 5042W        W 8561   5.851   4.756  10.182  0.0841 -0.1993  0.1454
 5043W        W 8562   0.469   4.571   4.000  0.0673  0.2375 -0.3738
 5044W        W 8563   4.933   5.490   9.047  0.1283 -0.0603 -0.1443
 5045W        W 8564   1.088   0.775   3.899  0.4847  0.0602 -0.1255
 5046W        W 8565   8.659   5.739   3.670  0.0388  0.1055 -0.0764
 5047W        W 8566   8.366   7.900   0.438  0.3013 -0.0570 -0.1346
 5048W        W 8567   6.039   8.015  12.045 -0.3482  0.3254  0.3871
 5049W        W 8568   4.430   8.330   9.066 -0.1537  0.0667  0.0275
 5050W        W 8569   0.636   2.892   0.628 -0.1003 -0.1347 -0.0403
 5051W        W 8570   2.730   6.810   9.117 -0.1473 -0.1429 -0.2349
 5052W        W 8571   2.641   1.157   9.968 -0.4224  0.0365  0.1263
 5053W        W 8572   1.512   9.617   3.510  0.0656  0.1331  0.1049
 5054W        W 8573   8.848   3.698   0.406 -0.1846  0.1526 -0.2027
 5055W        W 8574   1.370   6.906   5.305  0.4079 -0.1464 -0.2362
 5056W        W 8575   5.133   2.705  12.111 -0.2441  0.3995  0.2078
 5057W        W 8576   6.216   8.710   2.670 -0.0957 -0.2025  0.2562
 5058W        W 8577   4.308   8.153   2.658  0.2151 -0.2467 -0.0770
 5059W        W 8578   3.850   1.952   9.685  0.1468  0.2533 -0.1208
 5060W        W 8579   5.925   4.428   9.294 -0.0980  0.2070 -0.0575
 5061W        W 8580   7.929   1.535  11.504 -0.0596 -0.0600 -0.1664
 5062W        W 8581   8.164   8.510   1.209  0.2191 -0.1614  0.2958
 5063W        W 8582   3.264   6.073  10.802 -0.1667 -0.1102  0.2278
 5064W        W 8583   1.799   8.017  11.515  0.3684  0.3842  0.1561
 5065W        W 8584   4.197   9.313   3.128  0.0037  0.3293  0.1383
 5066W        W 8585   6.709   9.112   2.825  0.3715 -0.1040  0.1096
 5067W        W 8586   0.003   2.671   0.717  0.0682  0.2364  0.0648
 5068W        W 8587   9.841   3.814   4.056  0.0074  0.0876  0.3264
 5069W        W 8588   9.347   4.906   3.342  0.0825 -0.3299 -0.2213
 5070W        W 8589   0.256   5.937   0.221  0.1095 -0.3283 -0.0333
 5071W        W 8590   9.120   2.108  11.101  0.2117  0.1209 -0.3141
 5072W        W 8591   7.576   3.244  10.280 -0.4331 -0.0719 -0.0427
 5073W        W 8592   6.620   5.623   2.071 -0.2025  0.0214  0.2872
 5074W        W 8593   5.729   3.924  10.261  0.0928  0.2223 -0.3530
 5075W        W 8594   7.867   5.394   3.831  0.1359 -0.1374  0.1346
 5076W        W 8595   5.908   6.221  11.268  0.2400  0.2065 -0.0286
 5077W        W 8596   1.155   2.006  12.021  0.1079 -0.0134  0.0975
 5078W        W 8597   6.055   6.222   0.825  0.2929 -0.0124 -0.2881
 5079W        W 8598   6.169   5.620   9.050 -0.0203 -0.2754 -0.1051
 5080W        W 8599   6.183   3.290  10.615 -0.1254  0.1019  0.0188
 5081W        W 8600   7.788   0.681  11.429  0.0598 -0.1466 -0.0460
 5082W        W 8601   0.001   5.269   3.188  0.2540 -0.1080 -0.0211
 5083W        W 8602   9.131   0.138   9.644 -0.2072  0.0403 -0.0340
 5084W        W 8603   7.617   6.408  10.833  0.1920 -0.2130 -0.1034
 5085W        W 8604   0.154   6.694   4.973  0.1282 -0.0622 -0.1922
 5086W        W 8605   5.813   2.391   2.707  0.3133 -0.4044  0.2381
 5087W        W 8606   7.718   9.375   3.674  0.4113  0.2380 -0.2316
 5088W        W 8607   5.582   8.157   8.721 -0.2155 -0.1993 -0.2572
 5089W        W 8608   2.749   9.148   3.156 -0.1026 -0.1980 -0.0148
 5090W        W 8609   1.328   2.920   0.760  0.1108 -0.3946  0.3147
 5091W        W 8610   4.534   8.006  12.005  0.1274 -0.0451  0.0047
 5092W        W 8611   4.117   8.675   9.907 -0.1244  0.0311 -0.0805
 5093W        W 8612   6.071   8.816  11.427  0.0607 -0.0535 -0.0652
 5094W        W 8613   9.296   1.414   8.273 -0.0707 -0.0439 -0.0465
 5095W        W 8614   3.556   7.843   0.277 -0.0832  0.1535  0.2714
 5096W        W 8615   3.665   5.943   3.932  0.0754  0.3247  0.5078
 5097W        W 8616   2.295   6.490  10.554  0.3117  0.1807 -0.4141
 5098W        W 8617   2.952   8.787   3.999 -0.1467  0.0041  0.2106
 5099W        W 8618   3.358   6.218   3.727  0.1881  0.3095  0.2510
 5100W        W 8619   4.886   7.391   4.018 -0.1782  0.0085 -0.0865
 5101W        W 8620   2.156   9.358  11.993  0.0746 -0.0194  0.0308
 5102W        W 8621   6.262   7.890   3.411 -0.0421  0.1201 -0.2537
 5103W        W 8622   1.960   7.239   9.005 -0.2055  0.1746 -0.3637
 5104W        W 8623   9.746   6.338   9.861  0.0186  0.0783 -0.0993
 5105W        W 8624   0.996   1.768   4.180 -0.0072 -0.0192  0.1721
 5106W        W 8625   0.440   7.133   1.583  0.0640  0.3313  0.1141
 5107W        W 8626   0.349   7.352   2.703 -0.0915 -0.0525  0.3991
 5108W        W 8627   0.107   0.583   3.373 -0.2029 -0.2995  0.0358
 5109W        W 8628   5.641   8.626   1.512 -0.1614 -0.0992 -0.0020
 5110W        W 8629   2.500   4.366  11.626  0.0646  0.1192  0.1328
 5111W        W 8630   0.454   0.887   4.165  0.1232  0.5746 -0.1343
 5112W        W 8631   0.140   6.676   1.922  0.0643  0.1460 -0.2082
 5113W        W 8632   7.478   0.309  10.452  0.0250  0.1360 -0.4702
 5114W        W 8633   5.959   6.665   9.831 -0.0492  0.0253 -0.0187
 5115W        W 8634   7.857   7.972   1.107  0.2137 -0.2733 -0.0317
 5116W        W 8635   2.290   3.641   3.245 -0.1741  0.0601 -0.1958
 5117W        W 8636   6.659   8.288   9.865  0.2892  0.0922 -0.1023
 5118W        W 8637   9.285   1.391   1.203 -0.4594  0.0038 -0.0753
 5119W        W 8638   3.086   4.347   9.472  0.2530 -0.3549 -0.3862
 5120W        W 8639   7.630   0.074   8.660 -0.2116  0.0974  0.1289
 5121W        W 8640   6.516   9.372  11.133  0.0978 -0.1197  0.3091
 5122W        W 8641   6.731   0.753  11.266 -0.1214  0.0121  0.0509
 5123W        W 8642   5.913   7.204  10.758 -0.0582 -0.0738 -0.0431
 5124W        W 8643   8.957   3.271   0.763  0.1457 -0.2411  0.2564
 5125W        W 8644   2.353   6.208   1.048  0.0409  0.0631  0.1745
 5126W        W 8645   5.553   2.259  11.012  0.1678 -0.2657 -0.0949
 5127W        W 8646   5.553   2.541   3.145 -0.0214 -0.0502 -0.0716
 5128W        W 8647   7.666   0.499  10.950  0.1814  0.2596 -0.1274
 5129W        W 8648   0.161   2.908   1.512  0.2094  0.3263  0.3365
 5130W        W 8649   1.920   4.635   4.955 -0.0344 -0.2848  0.1052
 5131W        W 8650   8.586   1.860   2.705 -0.1903  0.2487  0.2590
 5132W        W 8651   0.811   7.059   1.932 -0.0300 -0.3522 -0.0773
 5133W        W 8652   5.355   8.201   1.500  0.2195 -0.2834 -0.0966
 5134W        W 8653   5.809   5.672   4.201  0.1643 -0.2101 -0.1182
 5135W        W 8654   5.797   2.526   1.147 -0.0383  0.0782 -0.1823
 5136W        W 8655   6.664   6.680   4.599  0.0825  0.0095  0.2962
 5137W        W 8656   2.227   4.956   8.993  0.1616  0.0272 -0.1542
 5138W        W 8657   6.654   9.716   3.588  0.3206  0.0981 -0.0611
 5139W        W 8658   6.930   6.276  10.669  0.1770  0.2261 -0.1571
 5140W        W 8659   1.967   3.211   9.416  0.2479 -0.0881  0.0715
 5141W        W 8660   3.783   1.767   4.093  0.1165 -0.1123 -0.0645
 5142W        W 8661   5.922   7.507   0.693  0.1340  0.1981 -0.0300
 5143W        W 8662   9.771   5.851   4.757  0.0100  0.0078 -0.2479
 5144W        W 8663   7.582   2.118   2.144 -0.0827  0.0299 -0.0049
 5145W        W 8664   7.789   7.024   4.388 -0.0128  0.2129  0.0997
 5146W        W 8665   2.297   7.473   3.923  0.0245 -0.0636 -0.1788
 5147W        W 8666   4.531   6.709   2.295  0.2171 -0.0930  0.1648
 5148W        W 8667   8.537   4.180  11.604  0.2179 -0.2787  0.1444
 5149W        W 8668   2.198   4.055   3.555  0.1297 -0.1801 -0.0587
 5150W        W 8669   4.533   7.583   2.745  0.0450  0.0783  0.1204
 5151W        W 8670   2.977   1.468   2.895 -0.1553  0.0162  0.1134
 5152W        W 8671   3.409   9.086   1.785  0.3365  0.0321 -0.0479
 5153W        W 8672   4.469   1.133   3.032  0.0057  0.1564  0.3044
 5154W        W 8673   6.990   8.789   3.542 -0.2905  0.0516  0.2492
 5155W        W 8674   0.177   2.840  11.434  0.0245  0.1256  0.1022
 5156W        W 8675   9.157   9.021   3.830  0.2820 -0.2579  0.0632
 5157W        W 8676   0.992   2.799   9.258 -0.1248 -0.3979  0.0224
 5158W        W 8677   7.525   6.881   0.895  0.0339  0.1322 -0.1144
 5159W        W 8678   6.973   8.398  11.362  0.2066  0.0133 -0.0095
 5160W        W 8679   2.370   7.412   4.434  0.2403  0.0558  0.1737
 5161W        W 8680   4.402   3.328  10.012  0.1697 -0.1331 -0.3266
 5162W        W 8681   1.107   5.223  10.416 -0.2159  0.5150 -0.1572
 5163W        W 8682   4.083   2.954   9.981  0.1062 -0.1443 -0.2489
 5164W        W 8683   8.736   0.084  11.729  0.0090  0.0392 -0.3792
 5165W        W 8684   4.309   2.976   2.728  0.3086  0.1240 -0.2354
 5166W        W 8685   8.564   3.996   3.187  0.0076 -0.2135 -0.0061
 5167W        W 8686   8.023   2.628   3.423  0.2463 -0.0195  0.1005
 5168W        W 8687   1.317   3.707   4.743  0.1695  0.1186 -0.1463
 5169W        W 8688   7.996   8.530   3.425  0.3401 -0.2958  0.1809
 5170W        W 8689   1.720   9.751   3.997 -0.0891  0.0272  0.1181
 5171W        W 8690   6.971   5.906   1.183  0.1853  0.1529  0.0517
 5172W        W 8691   1.457   1.198  11.637  0.1701  0.0386  0.0847
 5173W        W 8692   2.078   8.141   9.729  0.1407  0.0495  0.5364
 5174W        W 8693   9.680   6.733   8.308  0.0148 -0.0403 -0.0394
 5175W        W 8694   2.031   4.306   8.325 -0.2248  0.1700 -0.3431
 5176W        W 8695   3.267   5.580   3.076 -0.0098  0.0271  0.0410
 5177W        W 8696   3.787   5.466   3.968 -0.2161  0.0004  0.0920
 5178W        W 8697   7.141   4.276  10.090 -0.0693 -0.0520 -0.1303
 5179W        W 8698   7.653   8.881  10.663 -0.0345 -0.1227 -0.0321
 5180W        W 8699   5.159   7.381  11.039 -0.2588  0.0106 -0.1145
 5181W        W 8700   3.374   5.908  11.966 -0.1169 -0.1365 -0.1461
 5182W        W 8701   4.390   4.571  10.152 -0.0121 -0.2593  0.3211
 5183W        W 8702   7.078   5.611   2.931 -0.1851  0.1697  0.0582
 5184W        W 8703   4.371   6.299  10.037  0.1607  0.3153  0.1340
 5185W        W 8704   2.876   5.207   2.311 -0.3986  0.0585 -0.1648
 5186W        W 8705   9.281   9.283   9.278 -0.1673 -0.1576 -0.0004
 5187W        W 8706   9.715   9.502   0.630 -0.3389 -0.0257  0.0263
 5188W        W 8707   5.248   3.922   8.340 -0.1580 -0.0975  0.0579
 5189W        W 8708   8.678   4.898   4.595 -0.2550  0.0900  0.1112
 5190W        W 8709   6.861   8.950  10.999  0.0489 -0.1486 -0.1008
 5191W        W 8710   1.142   9.121  10.392  0.3542 -0.2654 -0.0735
 5192W        W 8711   0.920   1.100   3.367 -0.0605  0.3897  0.2040
 5193W        W 8712   1.401   0.593  10.645  0.0710  0.2798  0.1349
 5194W        W 8713   1.016   9.076   1.846  0.0806 -0.0883 -0.0396
 5195W        W 8714   7.978   8.457  10.412  0.2267 -0.1023  0.0447
 5196W        W 8715   9.502   7.579  12.081 -0.0299 -0.1731 -0.0224
 5197W        W 8716   7.739   4.726  11.655  0.3464 -0.2846  0.0506
 5198W        W 8717   4.505   6.190  10.965 -0.4361 -0.1363 -0.1895
 5199W        W 8718   2.793   7.004   1.007 -0.1231  0.0106  0.2589
 5200W        W 8719   5.353   8.139   2.430  0.1074  0.1642  0.1629
 5201W        W 8720   0.631   1.751   1.052  0.0340 -0.0390  0.0933
 5202W        W 8721   1.937   9.834  12.024 -0.1431  0.3190 -0.1316
 5203W        W 8722   0.796   4.862   1.775 -0.0051 -0.1035  0.0089
 5204W        W 8723   5.240   1.975  10.399  0.2112  0.1656  0.3862
 5205W        W 8724   8.267   6.074   4.156 -0.0255 -0.2157 -0.0531
 5206W        W 8725   7.411   5.653   1.172 -0.2009 -0.2556 -0.0693
 5207W        W 8726   8.886   9.305   1.456 -0.2221  0.0545  0.0089
 5208W        W 8727   7.165   8.995  10.639 -0.2449  0.1826  0.0587
 5209W        W 8728   3.470   0.507   9.027  0.0406 -0.2142 -0.2103
 5210W        W 8729   0.380   1.219   0.309  0.3019  0.0847 -0.0467
 5211W        W 8730   3.975   4.264  11.186 -0.2768  0.1596 -0.0211
 5212W        W 8731   1.649   5.500   0.228  0.1902 -0.1736  0.1781
 5213W        W 8732   2.624   7.271   2.111  0.1647  0.3418  0.1115
 5214W        W 8733   8.808   9.023   2.450  0.0049  0.1542 -0.1208
 5215W        W 8734   9.730   4.350   3.917 -0.0589  0.0180 -0.1473
 5216W        W 8735   6.033   0.944  11.140 -0.0769  0.1018  0.3401
 5217W        W 8736   4.269   4.929  11.904 -0.0668 -0.2045 -0.0475
 5218W        W 8737   0.006   3.959  10.228  0.2395  0.0179  0.2913
 5219W        W 8738   7.118   3.822   0.481  0.1965  0.0899  0.3135
 5220W        W 8739   6.747   3.510   3.275 -0.2218 -0.1166  0.0730
 5221W        W 8740   8.419   9.792   2.172 -0.2695  0.2510 -0.0511
 5222W        W 8741   4.280   2.126  11.286  0.1861  0.2985 -0.0003
 5223W        W 8742   1.902   7.527  11.335  0.3088  0.2840  0.3002
 5224W        W 8743   2.876   3.764   1.674  0.0841 -0.1289  0.0272
 5225W        W 8744   5.550   4.876   2.592  0.0362  0.0652  0.1534
 5226W        W 8745   7.581   6.967   2.400 -0.0568 -0.0494  0.3988
 5227W        W 8746   6.451   1.643  10.813  0.1021  0.0254  0.2534
 5228W        W 8747   2.534   4.208   3.088 -0.2323  0.1011  0.1088
 5229W        W 8748   2.620   9.267   0.977  0.2181  0.0586 -0.0436
 5230W        W 8749   9.512   3.920  11.983 -0.0193 -0.2478 -0.3238
 5231W        W 8750   0.297   0.549  11.308 -0.1022  0.0008 -0.1202
 5232W        W 8751   6.361   8.096   8.711 -0.3297  0.1034  0.0292
 5233W        W 8752   7.701   2.895  11.617  0.1862  0.0902  0.1186
 5234W        W 8753   3.918   4.520   9.428  0.0130 -0.0341 -0.2835
 5235W        W 8754   8.718   2.441   1.875  0.1058  0.1969 -0.0845
 5236W        W 8755   9.229   3.824  10.595  0.0414 -0.2296 -0.0304
 5237W        W 8756   6.270   8.072   1.540 -0.3604 -0.1971 -0.1560
 5238W        W 8757   5.497   3.361   2.824 -0.2178 -0.1762  0.2097
 5239W        W 8758   5.778   3.924   0.028 -0.1265  0.0589  0.0646
 5240W        W 8759   6.818   8.575  11.885  0.0342 -0.0903 -0.3506
 5241W        W 8760   8.372   1.232  10.338 -0.2951 -0.0074  0.1007
 5242W        W 8761   0.530   0.794   1.987 -0.1966  0.3153  0.1945
 5243W        W 8762   1.016   6.543   8.755 -0.1572 -0.0992 -0.0446
 5244W        W 8763   7.973   8.048   0.172  0.0025 -0.0228  0.1320
 5245W        W 8764   4.161   9.336   0.264 -0.3079 -0.2178 -0.0112
 5246W        W 8765   8.689   5.018  11.222 -0.0795 -0.0133 -0.0652
 5247W        W 8766   3.122   4.951   0.253 -0.2905  0.3271  0.2190
 5248W        W 8767   6.786   9.286   4.786 -0.2685 -0.1110 -0.0636
 5249W        W 8768   4.659   6.011  10.417  0.2563  0.1036  0.1038
 5250W        W 8769   5.256   1.377   3.752  0.0183 -0.4606  0.0820
 5251W        W 8770   7.959   3.724  12.001  0.0141 -0.0641 -0.1637
 5252W        W 8771   8.732   1.761   0.553 -0.0648 -0.1648  0.1295
 5253W        W 8772   0.129   4.515   3.465 -0.0776 -0.1483 -0.1117
 5254W        W 8773   1.491   5.635   3.018 -0.2018 -0.3203 -0.2885
 5255W        W 8774   1.508   9.693   2.601  0.1107  0.0218 -0.2392
 5256W        W 8775   2.854   3.831   1.169  0.0207 -0.0124  0.0821
 5257W        W 8776   1.015   0.279  10.294  0.0689 -0.1891  0.0413
 5258W        W 8777   4.211   3.299   1.880 -0.2500 -0.1468 -0.1726
 5259W        W 8778   1.246   2.671  11.262  0.2055  0.1333  0.1919
 5260W        W 8779   4.019   2.302   8.972  0.0649 -0.2547  0.2917
 5261W        W 8780   4.956   4.070   0.846 -0.1975  0.0635 -0.0430
 5262W        W 8781   2.690   3.558   0.708  0.0744  0.1085 -0.0893
 5263W        W 8782   7.833   6.083   2.395 -0.0316  0.2624  0.0038
 5264W        W 8783   1.924   7.959  11.051 -0.0033  0.6156  0.1604
 5265W        W 8784   2.161   7.778  11.823 -0.5600  0.1566 -0.1342
 5266W        W 8785   9.810   1.927   2.955  0.1360  0.0461  0.0876
 5267W        W 8786   2.430   8.731   1.054 -0.1751  0.0964  0.1185
 5268W        W 8787   3.821   3.150   1.432 -0.0409  0.1100 -0.1228
 5269W        W 8788   7.119   7.101   8.892 -0.0026  0.3123  0.1491
 5270W        W 8789   7.358   4.331  10.946  0.1243 -0.1452 -0.0257
 5271W        W 8790   7.697   6.685   9.527  0.0606 -0.1825  0.0339
 5272W        W 8791   9.768   1.417   1.272  0.2041  0.4141 -0.1123
 5273W        W 8792   0.669   2.994   1.713 -0.0552  0.1813  0.2660
 5274W        W 8793   8.920   0.621  11.060  0.1603 -0.2024  0.2518
 5275W        W 8794   6.368   4.339   2.414  0.0311  0.5446 -0.0661
 5276W        W 8795   5.810   0.540  10.991 -0.1260 -0.0379  0.1222
 5277W        W 8796   8.588   0.871   2.295  0.0109 -0.0934 -0.2192
 5278W        W 8797   8.908   2.748   0.464  0.0412 -0.2070  0.0642
 5279W        W 8798   6.080   1.613   0.936  0.4092  0.0844 -0.0702
 5280W        W 8799   5.290   1.029   1.367  0.1120  0.0029  0.0307
 5281W        W 8800   8.642   7.507  10.035  0.1952 -0.0477  0.2121
 5282W        W 8801   9.244   0.093  10.362 -0.0296 -0.4445  0.1894
 5283W        W 8802   7.136   6.921  11.940  0.0053 -0.1517 -0.0591
 5284W        W 8803   8.860   3.364   9.077  0.0052 -0.3601  0.2830
 5285W        W 8804   4.788   5.300   2.172 -0.0663 -0.0116 -0.2517
 5286W        W 8805   1.594   2.279  11.780  0.0322  0.2348  0.0102
 5287W        W 8806   3.035   2.557   9.427 -0.0934 -0.0979 -0.0487
 5288W        W 8807   8.706   9.436  11.758 -0.1582  0.0243 -0.0289
 5289W        W 8808   8.478   3.629  10.170 -0.2405 -0.0131  0.0974
 5290W        W 8809   6.155   7.908   9.522 -0.1219 -0.0160 -0.1180
 5291W        W 8810   3.914   1.773   4.633 -0.1109 -0.2660 -0.0226
 5292W        W 8811   1.503   5.661   9.174 -0.0659  0.1900 -0.2774
 5293W        W 8812   7.655   8.599   9.785  0.2764 -0.1007  0.1242
 5294W        W 8813   7.097   2.684  11.757 -0.4051 -0.2675 -0.1819
 5295W        W 8814   1.927   0.986   4.669  0.0158  0.0725 -0.0223
 5296W        W 8815   3.897   2.000   3.556 -0.0107  0.3295 -0.2960
 5297W        W 8816   8.464   7.689   1.637 -0.0967 -0.1555  0.2258
 5298W        W 8817   7.102   8.596   4.259  0.1316  0.0800  0.0640
 5299W        W 8818   4.091   1.242  10.623  0.0296  0.0158 -0.0591
 5300W        W 8819   3.528   8.452   9.364  0.4808  0.0201 -0.0167
 5301W        W 8820   0.905   9.737   3.569 -0.1870 -0.2436  0.0090
 5302W        W 8821   7.900   1.180  11.175 -0.0382  0.0724 -0.2472
 5303W        W 8822   0.675   4.004  11.760  0.0618 -0.2179  0.4053
 5304W        W 8823   7.907   8.165  11.782  0.3733 -0.3436  0.5420
 5305W        W 8824   1.911   6.662  11.015 -0.1155  0.3052 -0.0670
 5306W        W 8825   9.323   6.471   9.138  0.3033  0.3166 -0.3021
 5307W        W 8826   2.836   4.577  12.031  0.2689 -0.2942  0.3132
 5308W        W 8827   5.402   9.083  10.989  0.1738 -0.0692 -0.1291
 5309W        W 8828   8.947   7.240   0.665  0.0993  0.0479 -0.3836
 5310W        W 8829   0.148   0.650   3.904  0.1163 -0.1262 -0.3149
 5311W        W 8830   3.335   3.230   1.709 -0.1602 -0.2883  0.0801
 5312W        W 8831   2.641   6.559   1.974  0.3089 -0.1270  0.2005
 5313W        W 8832   1.332   2.212  10.110 -0.0336  0.1083 -0.0346
 5314W        W 8833   0.936   9.572   4.577 -0.0002  0.0413  0.0838
 5315W        W 8834   1.471   0.300   2.747  0.0673  0.1114 -0.1092
 5316W        W 8835   3.980   3.347  10.849 -0.0801 -0.0592 -0.0494
 5317W        W 8836   2.372   9.770   2.770  0.3938 -0.1924 -0.0217
 5318W        W 8837   2.896   4.011   0.720  0.1140 -0.0820 -0.1322
 5319W        W 8838   3.316   5.590  10.553 -0.0389  0.1431  0.1401
 5320W        W 8839   5.160   0.531   9.249  0.1123  0.1112  0.1223
 5321W        W 8840   6.091   2.262   9.839  0.2076 -0.1236 -0.1030
 5322W        W 8841   2.530   2.947   4.113  0.4646  0.0333 -0.0882
 5323W        W 8842   4.450   9.228   3.719 -0.3930  0.0204  0.0127
 5324W        W 8843   8.689   4.202   4.148 -0.0605 -0.2153  0.3054
 5325W        W 8844   2.163   6.280   1.872  0.1562 -0.0928  0.0608
 5326W        W 8845   1.889   2.873   3.810  0.1706 -0.0835  0.1399
 5327W        W 8846   4.027   6.063   7.749 -0.0501  0.1824 -0.0924
 5328W        W 8847   1.747   8.560   2.146 -0.0638 -0.0097 -0.4986
 5329W        W 8848   6.916   6.698   1.699 -0.0086  0.1541 -0.0081
 5330W        W 8849   9.003   6.610  11.921  0.0358  0.1362 -0.2719
 5331W        W 8850   0.437   1.014   1.507 -0.1629  0.1543 -0.1887
 5332W        W 8851   2.049   5.330   3.078 -0.0559  0.0822  0.2592
 5333W        W 8852   8.109   9.533   3.079 -0.2374 -0.2163 -0.1552
 5334W        W 8853   1.971   5.491   1.184  0.1754 -0.2159  0.1552
 5335W        W 8854   4.639   0.660   3.969 -0.0559 -0.1185 -0.0671
 5336W        W 8855   5.703   0.183   1.938  0.1986  0.2153 -0.0118
 5337W        W 8856   4.407   4.752  11.156  0.1026 -0.2694  0.2638
 5338W        W 8857   8.023   3.062   2.526  0.0574 -0.1731 -0.2555
 5339W        W 8858   6.019   7.421   2.215  0.2603  0.1970  0.0731
 5340W        W 8859   5.151   4.391   9.698  0.0837  0.0661 -0.1028
 5341W        W 8860   5.052   8.262   9.842  0.0701 -0.1970  0.0733
 5342W        W 8861   7.092   6.893   2.614  0.2683 -0.3153 -0.0778
 5343W        W 8862   8.711   3.681   0.910 -0.0429  0.1310 -0.0291
 5344W        W 8863   4.697   2.866  12.005 -0.2128 -0.3092 -0.1416
 5345W        W 8864   4.500   4.708   9.260  0.3440  0.0775 -0.0655
 5346W        W 8865   4.171   0.278  11.428 -0.1626  0.0789 -0.0407
 5347W        W 8866   4.664   5.637   1.479 -0.0444 -0.0504 -0.0131
 5348W        W 8867   6.762   6.330   9.366 -0.0645  0.2761 -0.3281
 5349W        W 8868   2.379   5.738   2.785 -0.0901  0.1281 -0.0135
 5350W        W 8869   8.994   0.931   0.799 -0.0394 -0.2636 -0.1166
 5351W        W 8870   0.552   8.515   9.279 -0.0383 -0.0851  0.1214
 5352W        W 8871   2.203   8.359   2.120 -0.0469  0.0403 -0.1967
 5353W        W 8872   2.139   9.798   2.228  0.1068 -0.2167 -0.0015
 5354W        W 8873   1.056   5.639   2.665  0.2904  0.3744 -0.1162
 5355W        W 8874   7.718   2.260   8.728  0.1489 -0.3960 -0.0212
 5356W        W 8875   0.117   1.841   1.127  0.1342 -0.1741  0.2832
 5357W        W 8876   5.688   9.804   0.541  0.1100  0.2172 -0.1517
 5358W        W 8877   5.389   6.921  11.014 -0.3397 -0.1799  0.2082
 5359W        W 8878   0.409   4.416   1.664 -0.1941  0.1636 -0.1701
 5360W        W 8879   8.708   4.974   3.455 -0.1280 -0.0582 -0.0369
 5361W        W 8880   5.296   9.870  11.499 -0.1293 -0.1294 -0.0903
 5362W        W 8881   5.284   6.429  10.877  0.1468  0.2341 -0.1082
 5363W        W 8882   5.270   3.152   2.388 -0.0047  0.1081 -0.0598
 5364W        W 8883   5.288   3.638   1.405  0.2812 -0.0111  0.1255
 5365W        W 8884   6.637   8.573   2.816  0.0272 -0.0590 -0.0388
 5366W        W 8885   4.478   8.978   0.123 -0.1796  0.2549  0.0663
 5367W        W 8886   2.708   9.294   4.165 -0.1312 -0.0675  0.0035
 5368W        W 8887   1.025   5.665  10.865 -0.2990 -0.1551  0.1494
 5369W        W 8888   9.616   1.534   9.099 -0.1951  0.0784 -0.2155
 5370W        W 8889   3.573   0.550   0.865 -0.5141  0.2531 -0.4880
 5371W        W 8890   4.992   6.009  11.038 -0.1548 -0.0267 -0.1395
 5372W        W 8891   6.718   1.132   0.473 -0.3628  0.1568 -0.0511
 5373W        W 8892   4.464   9.033  10.681  0.2787  0.0250 -0.1955
 5374W        W 8893   1.831   7.590   4.167  0.1594  0.0386  0.0450
 5375W        W 8894   1.391   7.561  10.395  0.3233 -0.1048 -0.1760
 5376W        W 8895   0.857   4.624   1.356 -0.0078  0.3422  0.1379
 5377W        W 8896   7.088   8.361   3.786 -0.3391  0.0787 -0.0862
 5378W        W 8897   4.787   2.777   8.678 -0.0203  0.2396  0.1653
 5379W        W 8898   0.463   3.172   4.149  0.1643  0.0772  0.0761
 5380W        W 8899   5.470   2.272   1.842 -0.1035  0.1061  0.0894
 5381W        W 8900   5.090   2.375  10.847  0.4948  0.0183  0.0933
 5382W        W 8901   3.236   3.875   9.380 -0.2100 -0.2559  0.0808
 5383W        W 8902   3.724   1.125   2.540  0.2064  0.4659 -0.3599
 5384W        W 8903   7.488   5.476   0.052 -0.2388 -0.2202 -0.1216
 5385W        W 8904   8.170   1.202   2.291 -0.2089 -0.1721 -0.4402
 5386W        W 8905   3.095   4.748   9.171  0.1497  0.1867  0.0887
 5387W        W 8906   1.464   0.818   4.237 -0.2349 -0.1981  0.0726
 5388W        W 8907   8.732   8.582   1.655 -0.1118  0.2777  0.0276
 5389W        W 8908   3.006   8.350  10.229 -0.1835  0.0568 -0.1302
 5390W        W 8909   9.182   2.977   1.658 -0.2411  0.3576  0.5366
 5391W        W 8910   2.188   5.831   9.918  0.2932  0.0068  0.1348
 5392W        W 8911   0.757   4.348   4.472  0.1140 -0.0015  0.4878
 5393W        W 8912   7.460   2.224  10.505  0.1042  0.0721  0.1439
 5394W        W 8913   9.679   6.227   1.021 -0.2258  0.0951  0.0364
 5395W        W 8914   2.491   7.427   2.989 -0.0030  0.2028 -0.0728
 5396W        W 8915   9.266   1.999  10.123 -0.2072  0.2712  0.1925
 5397W        W 8916   3.101   7.426   2.982  0.0638  0.1988 -0.0221
 5398W        W 8917   4.359   5.544   1.974 -0.0551 -0.2716 -0.0271
 5399W        W 8918   5.434   6.456   1.526 -0.0677 -0.3421 -0.0768
 5400W        W 8919   4.678   0.209   3.001  0.0860  0.2615  0.1558
 5401W        W 8920   5.979   5.536  10.039  0.0601 -0.1201 -0.1584
 5402W        W 8921   4.539   6.717   3.411 -0.1000 -0.4292  0.2583
 5403W        W 8922   1.559   7.624  11.707  0.0306 -0.4098  0.0698
 5404W        W 8923   7.527   8.079   0.803 -0.0287  0.0692 -0.0302
 5405W        W 8924   4.638   4.436   0.651 -0.0100  0.0721 -0.1363
 5406W        W 8925   9.791   9.062  10.037  0.1995 -0.1022 -0.2337
 5407W        W 8926   3.281   9.215   3.091 -0.0648 -0.0822  0.0472
 5408W        W 8927   0.453   4.164   3.093 -0.1590  0.2025 -0.0923
 5409W        W 8928   3.305   0.734   2.495 -0.0310  0.2509 -0.1470
 5410W        W 8929   7.923   6.582   2.295 -0.2067 -0.0916  0.2254
 5411W        W 8930   0.776   4.458   9.831 -0.1524  0.2047 -0.0687
 5412W        W 8931   4.906   5.923   2.881  0.4023 -0.1375 -0.0470
 5413W        W 8932   9.653   7.783   3.583 -0.2484 -0.0081 -0.0159
 5414W        W 8933   8.496   2.029  10.037  0.0385 -0.0118 -0.3188
 5415W        W 8934   7.247   8.803   9.386 -0.2491  0.0608 -0.1742
 5416W        W 8935   1.582   3.825   2.777 -0.0769 -0.0995  0.1677
 5417W        W 8936   8.848   2.205   1.442 -0.0866  0.0043  0.3021
 5418W        W 8937   4.243   5.207   2.354 -0.2501 -0.1132 -0.0168
 5419W        W 8938   6.228   5.121  10.319 -0.1335  0.2567 -0.1549
 5420W        W 8939   7.702   5.939   0.228 -0.2658 -0.1254  0.0644
 5421W        W 8940   1.592   4.732   9.283 -0.2124  0.0250  0.1054
 5422W        W 8941   6.613   4.555  11.655 -0.0206 -0.2674 -0.1095
 5423W        W 8942   6.206   9.297   3.815  0.1945 -0.3877  0.1441
 5424W        W 8943   4.159   0.119   9.687  0.2202  0.1399 -0.3069
 5425W        W 8944   3.183   1.506   4.036 -0.0536  0.1498 -0.4949
 5426W        W 8945   4.401   0.071   9.265  0.0119 -0.0408  0.1258
 5427W        W 8946   2.484   9.424   2.367 -0.4744  0.0044  0.2581
 5428W        W 8947   5.949   7.626   0.226 -0.3254  0.0625 -0.0514
 5429W        W 8948   6.263   0.644  10.804  0.1157 -0.2755 -0.1302
 5430W        W 8949   7.877   9.504   8.896  0.0868  0.4918  0.1719
 5431W        W 8950   9.112   8.374  11.087 -0.0667 -0.3352  0.1571
 5432W        W 8951   4.379   9.581   9.845 -0.1106 -0.0292  0.0097
 5433W        W 8952   4.062   4.730   2.283  0.1249 -0.1474  0.0245
 5434W        W 8953   2.682   8.058   4.686 -0.2367 -0.1361 -0.0615
 5435W        W 8954   0.251   4.986  10.810 -0.1664 -0.2430 -0.0506
 5436W        W 8955   7.086   5.733  10.513  0.0060  0.1661  0.3416
 5437W        W 8956   8.944   4.825  10.319 -0.0571 -0.0406 -0.0850
 5438W        W 8957   5.671   1.823  10.687 -0.0976 -0.4908 -0.0113
 5439W        W 8958   7.865   6.520   2.785  0.0589  0.0800  0.1350
 5440W        W 8959   0.270   6.439   0.362 -0.3259 -0.0709  0.1571
 5441W        W 8960   9.407   2.767   3.295 -0.1486 -0.1664 -0.0894
 5442W        W 8961   0.157   8.085  11.748 -0.3182  0.0590 -0.2703
 5443W        W 8962   6.506   8.928   9.215  0.0039  0.1699  0.1574
 5444W        W 8963   3.865   3.597   0.069 -0.0538 -0.0381  0.2074
 5445W        W 8964   7.317   0.285   8.329  0.2837 -0.0228 -0.1806
 5446W        W 8965   6.903   0.617   0.729  0.0355  0.2367 -0.0319
 5447W        W 8966   9.152   1.585  11.837  0.1192 -0.0295 -0.1655
 5448W        W 8967   2.712   3.940   9.301 -0.3080  0.2055  0.0568
 5449W        W 8968   5.170   2.116   0.235  0.1902 -0.1815  0.0553
 5450W        W 8969   6.168   4.881   9.408 -0.0274  0.0640 -0.0280
 5451W        W 8970   8.041   3.691   4.377 -0.2385 -0.0500  0.2142
 5452W        W 8971   0.312   6.685   1.357 -0.1261  0.1990 -0.2914
 5453W        W 8972   0.288   7.627   9.788 -0.3096  0.4012 -0.0847
 5454W        W 8973   6.563   3.949   3.415 -0.4047 -0.0332 -0.1827
 5455W        W 8974   1.758   5.784   3.884  0.0748  0.0967 -0.0416
 5456W        W 8975   4.594   2.593   3.181  0.0137  0.1193  0.2258
 5457W        W 8976   6.557   9.092   1.544  0.0112 -0.1669  0.1704
 5458W        W 8977   6.346   3.228   0.083 -0.3844  0.1337 -0.0537
 5459W        W 8978   3.318   0.279  11.349  0.1177 -0.0585 -0.0572
 5460W        W 8979   2.618   6.267  11.427  0.0771  0.1489 -0.0472
 5461W        W 8980   3.648   0.067   1.110  0.0914 -0.0016 -0.0228
 5462W        W 8981   1.802   5.395   0.673  0.0106  0.2861 -0.3503
 5463W        W 8982   5.061   0.695   8.303  0.0679 -0.2249 -0.1392
 5464W        W 8983   1.279   7.505   2.637  0.2698 -0.0794  0.0802
 5465W        W 8984   6.993   9.259  11.372 -0.2392 -0.2272 -0.3577
 5466W        W 8985   3.431   6.298   4.343 -0.0759  0.1929  0.6012
 5467W        W 8986   0.617   2.581  10.400 -0.0110 -0.1426 -0.0955
 5468W        W 8987   2.695   5.347   3.693 -0.0682 -0.0394 -0.1749
 5469W        W 8988   8.017   3.877   3.483 -0.1012  0.0097 -0.1607
 5470W        W 8989   3.991   0.568   3.702 -0.1366  0.1960 -0.0968
 5471W        W 8990   0.273   3.343  10.639  0.2277 -0.2420  0.5536
 5472W        W 8991   3.231   2.046   4.332  0.1595  0.0431 -0.0112
 5473W        W 8992   2.156   5.142  10.525 -0.2395 -0.0645 -0.0186
 5474W        W 8993   3.018   2.103   1.162  0.0592  0.0745 -0.3330
 5475W        W 8994   0.116   0.968   0.711 -0.0671  0.0895  0.1302
 5476W        W 8995   5.549   7.279   1.829  0.1238 -0.0230 -0.0097
 5477W        W 8996   0.731   3.410  12.013  0.1394  0.0302  0.2977
 5478W        W 8997   6.351   4.715  12.043 -0.0317 -0.0182  0.0403
 5479W        W 8998   6.578   9.745  10.671 -0.2931 -0.0164 -0.3199
 5480W        W 8999   3.791   9.801   0.634  0.1518  0.2543  0.1328
 5481W        W 9000   2.451   5.756   1.917 -0.1411 -0.1808 -0.0001
 5482W        W 9001   7.948   3.380  11.576  0.0361  0.0610 -0.3462
 5483W        W 9002   3.600   0.778  10.077 -0.3403  0.3336 -0.2311
 5484W        W 9003   2.724   8.118   0.349 -0.1327  0.0445  0.0840
 5485W        W 9004   3.234   6.768  11.315  0.2199  0.1467  0.1548
 5486W        W 9005   5.591   4.475   1.519 -0.1920 -0.1317  0.1386
 5487W        W 9006   6.694   6.863   2.106 -0.0620  0.0507 -0.0834
 5488W        W 9007   4.597   6.379   1.040 -0.2035  0.1763 -0.0897
 5489W        W 9008   5.683   1.845   1.839  0.1345 -0.0654 -0.0991
 5490W        W 9009   2.031   7.489   0.730  0.4021  0.0346  0.1145
 5491W        W 9010   9.002   7.044   3.815  0.0790  0.1371  0.1470
 5492W        W 9011   7.556   1.797   2.497 -0.0504  0.3377  0.1715
 5493W        W 9012   8.660   9.069   8.666  0.1498 -0.0976 -0.0709
 5494W        W 9013   9.141   5.088   2.269 -0.2998  0.1316  0.0393
 5495W        W 9014   4.368   6.432  10.478 -0.5550 -0.2461 -0.1655
 5496W        W 9015   6.678   5.357  10.405 -0.1521 -0.0473 -0.0441
 5497W        W 9016   2.887   0.383   0.156 -0.3266 -0.6621  0.1329
 5498W        W 9017   2.465   0.461   2.776 -0.1495  0.0848  0.1814
 5499W        W 9018   1.255   8.364  10.895 -0.4243  0.0245 -0.3937
 5500W        W 9019   3.976   3.326   3.974 -0.0688  0.0852 -0.0807
 5501W        W 9020   8.193   4.115   4.014  0.1116 -0.1659 -0.0925
 5502W        W 9021   5.897   8.081   0.749  0.2309 -0.2011  0.3481
 5503W        W 9022   2.535   3.328  11.683 -0.4101  0.1403  0.0160
 5504W        W 9023   3.479   7.304  10.179 -0.2838 -0.0960 -0.1779
 5505W        W 9024   8.088   8.864   0.871 -0.0812  0.3312  0.2234
 5506W        W 9025   8.382   1.176   9.825  0.2117  0.0364  0.0083
 5507W        W 9026   4.266   6.708   0.866 -0.0561  0.1841 -0.0889
 5508W        W 9027   2.056   2.153   4.377  0.0827 -0.1920 -0.0751
 5509W        W 9028   5.329   9.533  11.852  0.0489  0.0813  0.1435
 5510W        W 9029   7.774   2.377   9.767  0.0692 -0.1192  0.1648
 5511W        W 9030   8.453   7.562  11.733 -0.2719  0.1344  0.0720
 5512W        W 9031   1.567   7.498   5.398  0.2760  0.3406  0.3516
 5513W        W 9032   2.577   1.855   1.151  0.1084 -0.2810  0.0047
 5514W        W 9033   5.915   8.345  11.544 -0.2343  0.0314  0.0214
 5515W        W 9034   3.328   7.238   3.418 -0.1179 -0.1451 -0.3038
 5516W        W 9035   7.275   2.004   2.922  0.0791 -0.1499 -0.2254
 5517W        W 9036   7.814   0.409   2.081 -0.2019  0.2307 -0.2838
 5518W        W 9037   9.279   2.629   3.733  0.0929  0.0403  0.1730
 5519W        W 9038   7.096   0.671  10.267 -0.0192 -0.1298  0.2007
 5520W        W 9039   4.710   9.497  10.760  0.1941  0.1215 -0.5523
 5521W        W 9040   3.649   2.813   3.254 -0.0686  0.1239 -0.3305
 5522W        W 9041   6.124   9.805   1.750 -0.1423 -0.2379  0.0606
 5523W        W 9042   2.825   1.117   9.065  0.0107  0.1733  0.4835
 5524W        W 9043   8.504   3.504   8.630 -0.1149  0.1291 -0.1508
 5525W        W 9044   1.100   2.882  10.455  0.3119 -0.2420  0.1595
 5526W        W 9045   3.370   7.900  11.244 -0.3057  0.0024  0.2368
 5527W        W 9046   3.638   9.169   3.544 -0.0948 -0.4937  0.1051
 5528W        W 9047   2.123   1.441   9.592  0.1618 -0.1282  0.1768
 5529W        W 9048   4.682   9.339  10.238  0.0100 -0.0404  0.1087
 5530W        W 9049   6.756   4.040   4.138  0.0605 -0.2223  0.0982
 5531W        W 9050   1.362   0.032  10.739 -0.0447 -0.2799  0.3035
 5532W        W 9051   5.132   8.714  10.231 -0.1547 -0.0602 -0.3798
 5533W        W 9052   3.226   6.107   2.245 -0.0250 -0.0560  0.0943
 5534W        W 9053   2.645   8.184  11.735  0.0206  0.1314 -0.1853
 5535W        W 9054   4.622   0.922  10.125  0.0048 -0.1226 -0.1061
 5536W        W 9055   1.204   1.492  11.085  0.2389  0.2346 -0.0181
 5537W        W 9056   5.612   1.329  10.079 -0.2697 -0.0479 -0.0427
 5538W        W 9057   4.679   8.359  11.665 -0.2239 -0.0348  0.1343
 5539W        W 9058   7.144   5.455   1.512  0.1607 -0.0021  0.1744
 5540W        W 9059   1.051   6.534   2.901  0.2320 -0.0662 -0.0752
 5541W        W 9060   5.413   4.513   2.081 -0.0850 -0.0530  0.0409
 5542W        W 9061   1.657   4.668   2.592  0.1027  0.1365  0.1399
 5543W        W 9062   0.258   3.709  11.895  0.2618  0.0694 -0.1221
 5544W        W 9063   8.583   3.263  11.871 -0.1919 -0.0441 -0.0684
 5545W        W 9064   8.663   6.188   3.458  0.2078 -0.0938  0.3099
 5546W        W 9065   5.742   1.141   3.641  0.2758 -0.0843 -0.0221
 5547W        W 9066   4.259   2.624   0.172  0.0467 -0.0064  0.2195
 5548W        W 9067   6.385   3.815   2.544 -0.0791  0.0159 -0.1051
 5549W        W 9068   1.985   5.754   9.190 -0.1659  0.0461  0.2592
 5550W        W 9069   8.702   8.556  10.725 -0.1204  0.1353 -0.1680
 5551W        W 9070   4.226   9.552   0.724  0.0694  0.1633  0.1587
 5552W        W 9071   7.875   9.742  10.634  0.2901 -0.2066 -0.1365
 5553W        W 9072   0.537   5.113   2.170  0.4475  0.0160  0.0727
 5554W        W 9073   9.130   9.718   2.797 -0.4296 -0.1416  0.2712
 5555W        W 9074   6.885   4.955  11.478 -0.0137  0.0724 -0.0661
 5556W        W 9075   1.276   6.028   9.494 -0.1978  0.0345 -0.1689
 5557W        W 9076   2.396   9.496   3.174  0.0444  0.1382  0.1246
 5558W        W 9077   1.377   8.345   4.372  0.0365  0.1662 -0.2465
 5559W        W 9078   6.450   0.090   8.957  0.0049  0.1349  0.2413
 5560W        W 9079   7.943   9.788   2.066 -0.1686  0.2373  0.2266
 5561W        W 9080   7.879   6.314   3.275 -0.3741  0.1529 -0.2356
 5562W        W 9081   8.897   8.625   9.387  0.0482  0.0907 -0.2509
 5563W        W 9082   1.128   6.740  11.948 -0.1273  0.1780  0.0797
 5564W        W 9083   9.870   5.263  10.328  0.0974  0.2402  0.1102
 5565W        W 9084   0.683   6.275  10.648 -0.0311  0.0577 -0.1508
 5566W        W 9085   8.658   6.202   3.935  0.0577 -0.2880  0.0241
 5567W        W 9086   5.959   8.042   8.394  0.0200 -0.3875 -0.5033
 5568W        W 9087   6.432   5.772  10.507 -0.0614 -0.0415  0.3199
 5569W        W 9088   8.068   9.878   9.165  0.1865 -0.2156 -0.2400
 5570W        W 9089   1.437   6.477  10.856 -0.0698 -0.0540  0.0382
 5571W        W 9090   3.603   9.529   9.047  0.0620  0.0269  0.0661
 5572W        W 9091   3.253   4.476   3.619  0.0276 -0.2551 -0.1273
 5573W        W 9092   2.750   8.701   3.484  0.0896 -0.2431 -0.1882
 5574W        W 9093   5.871   8.355  10.419 -0.1689 -0.2200  0.0342
 5575W        W 9094   6.238   5.022  11.325  0.4161  0.2714 -0.3435
 5576W        W 9095   1.491   1.684   3.997 -0.0909 -0.2612  0.2202
 5577W        W 9096   2.147   1.671   1.506 -0.3055  0.1051 -0.0451
 5578W        W 9097   7.963   2.474  11.682 -0.1415 -0.0150  0.0618
 5579W        W 9098   5.068   9.118  10.589 -0.1059  0.0791  0.2649
 5580W        W 9099   2.402   9.249   4.574 -0.0761  0.1215 -0.0835
 5581W        W 9100   6.763   5.384   2.501  0.0354  0.2827  0.0117
 5582W        W 9101   9.587   4.945   9.983  0.0019  0.1597  0.0414
 5583W        W 9102   9.143   8.761   2.664  0.0703  0.0084  0.0594
 5584W        W 9103   0.912   7.696   4.361  0.2581 -0.5013  0.1266
 5585W        W 9104   6.753   1.334   9.516 -0.2386 -0.3669  0.1350
 5586W        W 9105   1.418   3.377   2.973 -0.0038  0.0805 -0.0347
 5587W        W 9106   2.427   0.694  10.028  0.0090  0.0024  0.0940
 5588W        W 9107   8.123   2.603   0.083 -0.0954 -0.1077 -0.0466
 5589W        W 9108   4.700   5.914   3.934  0.1728 -0.4907  0.2656
 5590W        W 9109   3.775   7.848  10.221  0.0383  0.3045  0.2598
 5591W        W 9110   0.029   0.745   1.689 -0.4298 -0.0474  0.0113
 5592W        W 9111   2.401   6.226   3.735  0.0922  0.3221  0.2591
 5593W        W 9112   2.349   5.106  11.123  0.4101 -0.2269 -0.2006
 5594W        W 9113   3.527   9.363   9.498  0.2606 -0.1976 -0.1269
 5595W        W 9114   6.339   0.357   0.838 -0.2679 -0.2914 -0.0452
 5596W        W 9115   8.129   5.023  10.725 -0.0056 -0.2998  0.2094
 5597W        W 9116   2.644   1.495   0.626  0.2911  0.1317 -0.2111
 5598W        W 9117   4.604   7.809   1.082  0.0741 -0.3921  0.2945
 5599W        W 9118   2.839   1.463   2.066 -0.3010 -0.3148 -0.1996
 5600W        W 9119   2.217   7.105   1.605 -0.1016 -0.2435  0.0973
 5601W        W 9120   3.099   1.326  10.074  0.2562 -0.1585  0.3506
 5602W        W 9121   5.243   9.547   2.835  0.2795  0.0946 -0.0484
 5603W        W 9122   8.792   6.321   0.952  0.0781 -0.1437 -0.0889
 5604W        W 9123   7.030   2.544   9.239 -0.2295 -0.0535 -0.0197
 5605W        W 9124   0.292   5.615   4.936  0.0413 -0.0790 -0.2374
 5606W        W 9125   7.441   2.948   8.302  0.1089 -0.1567  0.1296
 5607W        W 9126   3.298   0.778  10.729 -0.1479  0.3412  0.0037
 5608W        W 9127   0.713   3.613   4.181 -0.3792  0.1352  0.3111
 5609W        W 9128   5.044   5.569   2.497 -0.3875  0.1357  0.2249
 5610W        W 9129   7.288   9.396   4.053 -0.1634  0.0587 -0.1734
 5611W        W 9130   9.709   4.851  11.999  0.3240  0.3038 -0.2478
 5612W        W 9131   4.091   4.937  10.422 -0.0330  0.0010 -0.0471
 5613W        W 9132   1.657   2.313  11.181 -0.0117 -0.0787  0.1118
 5614W        W 9133   1.718   3.404   3.822 -0.3123 -0.1612  0.0571
 5615W        W 9134   7.584   3.522   1.659  0.0050  0.0976  0.0575
 5616W        W 9135   3.656   8.722  10.404  0.3096  0.0381 -0.3539
 5617W        W 9136   4.551   6.187   8.686  0.0626  0.0403 -0.2170
 5618W        W 9137   5.223   6.351   9.292  0.1057  0.1231 -0.0884
 5619W        W 9138   4.271   3.808  10.193  0.3499 -0.1878  0.3173
 5620W        W 9139   3.156   4.221  10.799  0.0187 -0.4948 -0.0372
 5621W        W 9140   3.379   6.607   2.473 -0.0574 -0.3076 -0.0461
 5622W        W 9141   0.311   4.047  11.430  0.0315  0.2268 -0.2359
 5623W        W 9142   2.162   3.275   4.548  0.0827  0.1201  0.1983
 5624W        W 9143   7.717   1.198   2.060  0.3199  0.0173 -0.2264
 5625W        W 9144   6.270   0.870   0.517  0.2894 -0.2628 -0.1233
 5626W        W 9145   7.122   3.160   0.372  0.1868 -0.0348 -0.0651
 5627W        W 9146   6.187   2.233  11.856  0.1124 -0.0905  0.0726
 5628W        W 9147   1.331   8.345   3.899 -0.5299  0.1030  0.0452
 5629W        W 9148   3.002   7.913   8.764  0.0478  0.1008 -0.0326
 5630W        W 9149   5.856   0.227   3.847  0.0997  0.0778  0.0878
 5631W        W 9150   1.385   0.149   3.759 -0.1225  0.4587  0.1912
 5632W        W 9151   4.144   1.953  10.780  0.0098 -0.1433  0.1161
 5633W        W 9152   1.679   9.777   3.087 -0.3392  0.1414  0.0279
 5634W        W 9153   9.153   0.683   2.957 -0.1139  0.0403 -0.2255
 5635W        W 9154   9.619   9.061   9.598 -0.2130  0.0181  0.1448
 5636W        W 9155   8.382   8.532   9.376 -0.1134 -0.3426  0.1543
 5637W        W 9156   2.931   1.368   0.083 -0.0765  0.0459  0.0515
 5638W        W 9157   5.735   9.819   9.806  0.2087 -0.2500 -0.0750
 5639W        W 9158   4.822   6.566   8.518 -0.2764  0.3117  0.0662
 5640W        W 9159   6.700   5.852  11.810 -0.1655 -0.1149  0.2508
 5641W        W 9160   2.593   3.575   2.573  0.0620  0.0794 -0.0395
 5642W        W 9161   2.734   6.966   1.629  0.0043  0.1046 -0.1497
 5643W        W 9162   5.339   8.801   3.748 -0.1880 -0.2583  0.0636
 5644W        W 9163   0.962   1.136  11.390 -0.1208  0.0744  0.0020
 5645W        W 9164   7.974   7.237  10.765  0.2886 -0.0698  0.1910
 5646W        W 9165   7.995   1.889   7.897 -0.0852  0.5190 -0.2350
 5647W        W 9166   6.050   9.014  10.533 -0.4395 -0.1617 -0.4206
 5648W        W 9167   7.862   6.532   4.155 -0.1100 -0.0555  0.0616
 5649W        W 9168   6.980   7.653   0.239 -0.2659 -0.4242 -0.1176
 5650W        W 9169   8.067   2.132   3.495  0.1360  0.0819  0.1636
 5651W        W 9170   4.110   0.207   0.862 -0.0531  0.1542  0.0018
 5652W        W 9171   2.337   2.205   2.623 -0.3212 -0.0847  0.1385
 5653W        W 9172   0.199   4.188   0.709  0.0138 -0.0942  0.0107
 5654W        W 9173   0.037   8.080   3.171  0.1117 -0.1508  0.1841
 5655W        W 9174   7.714   4.178   3.242 -0.1308  0.2431  0.0211
 5656W        W 9175   4.173   8.411   8.589  0.0496 -0.1191  0.1857
 5657W        W 9176   0.899   5.235   4.396 -0.1877 -0.1720  0.0088
 5658W        W 9177   5.789   0.326   9.029 -0.1206 -0.3218  0.1380
 5659W        W 9178   4.780   4.438  11.397 -0.2486 -0.1573 -0.1007
 5660W        W 9179   9.151   0.093   0.884 -0.1200 -0.4173 -0.3082
 5661W        W 9180   4.100   5.050   9.136  0.1589  0.1600 -0.0693
 5662W        W 9181   5.925   1.483   2.251  0.0047 -0.0806 -0.0756
 5663W        W 9182   4.165   7.770   2.327  0.0859 -0.0328  0.0532
 5664W        W 9183   6.125   2.063  10.404 -0.1823  0.2894  0.1718
 5665W        W 9184   5.120   6.934  10.036  0.0609  0.1364  0.5638
 5666W        W 9185   3.494   2.578   0.841 -0.2765 -0.0523  0.0693
 5667W        W 9186   6.822   6.270   4.236 -0.3078 -0.1028 -0.2798
 5668W        W 9187   0.759   3.711  10.588 -0.3917 -0.0803 -0.3296
 5669W        W 9188   2.520   1.680   0.082 -0.0954  0.1339 -0.0804
 5670W        W 9189   4.684   1.444   2.701 -0.1401  0.2068 -0.1539
 5671W        W 9190   1.182   5.205   2.939 -0.1339 -0.4414 -0.0704
 5672W        W 9191   9.037   7.271   3.258  0.0718 -0.1034 -0.0591
 5673W        W 9192   3.122   4.985  11.834  0.2278  0.1104 -0.1311
 5674W        W 9193   1.821   8.535   5.003  0.1207 -0.0138  0.0938
 5675W        W 9194   6.679   3.438   8.959  0.2965  0.3527  0.0150
 5676W        W 9195   4.862   1.539   0.789  0.4144 -0.4170 -0.0146
 5677W        W 9196   6.143   2.706   3.388 -0.1942 -0.5627 -0.0712
 5678W        W 9197   9.599   0.709  10.468  0.0175  0.0734 -0.0062
 5679W        W 9198   8.788   3.650  10.519 -0.1460  0.0605 -0.0975
 5680W        W 9199   9.570   9.619  11.292  0.1281 -0.1391  0.0586
 5681W        W 9200   0.000   9.230   2.603  0.1298 -0.0386 -0.2182
 5682W        W 9201   9.352   2.077   2.725 -0.1760 -0.1076 -0.1258
 5683W        W 9202   9.306   2.776  10.338  0.0334 -0.0953  0.4253
 5684W        W 9203   0.183   6.996   9.320 -0.2488 -0.0209 -0.3464
 5685W        W 9204   6.865   4.116   9.668 -0.1207 -0.0070 -0.0443
 5686W        W 9205   4.116   7.039   8.048 -0.3364  0.1238  0.0456
 5687W        W 9206   4.141   4.485  10.761 -0.0642  0.3955 -0.0703
 5688W        W 9207   6.033   7.174   8.661 -0.1009 -0.0665  0.1769
 5689W        W 9208   0.290   9.851  10.389  0.1664 -0.0805  0.0058
 5690W        W 9209   3.376   5.000   3.614 -0.0092  0.1738 -0.0878
 5691W        W 9210   2.097   6.534   3.207  0.1564 -0.1419  0.0877
 5692W        W 9211   3.601   2.628   2.260  0.0678  0.1597 -0.4178
 5693W        W 9212   2.296   0.867   3.191  0.1405  0.0970  0.1056
 5694W        W 9213   7.934   1.605   2.135 -0.1382  0.1707 -0.0936
 5695W        W 9214   5.753   6.561   0.992  0.1320  0.1925  0.1941
 5696W        W 9215   4.993   6.034   0.317  0.2304 -0.3105  0.0856
 5697W        W 9216   4.591   8.137   2.236  0.0626 -0.0357 -0.2518
 5698W        W 9217   4.656   9.572   2.947  0.0148 -0.2037 -0.0986
 5699W        W 9218   3.166   0.864   9.249  0.4759  0.1540  0.1880
 5700W        W 9219   7.692   6.112   3.697 -0.0751  0.0801  0.0279
 5701W        W 9220   4.151   9.079   9.467  0.3529  0.1596  0.0860
 5702W        W 9221   4.303   7.156   3.584 -0.1004  0.1436  0.0403
 5703W        W 9222   2.237   0.559  10.661 -0.0944 -0.2505  0.3165
 5704W        W 9223   4.712   2.121   3.924  0.1358 -0.2237  0.0133
 5705W        W 9224   8.112   2.958   0.858  0.2326  0.0719 -0.2898
 5706W        W 9225   6.517   6.355   9.911  0.4877  0.2157 -0.2300
 5707W        W 9226   0.473   0.883   3.201  0.1166  0.0393  0.0175
 5708W        W 9227   3.100   0.367  10.464 -0.1304 -0.1158  0.1209
 5709W        W 9228   1.336   6.950   1.159  0.0739  0.1701  0.1425
 5710W        W 9229   0.554   0.043   1.159 -0.2771 -0.0650 -0.2231
 5711W        W 9230   2.930   7.654   9.461  0.1912 -0.2644  0.0763
 5712W        W 9231   9.310   4.931   0.923 -0.4022 -0.0073  0.0412
 5713W        W 9232   2.243   7.894   3.020  0.0620 -0.2585 -0.0307
 5714W        W 9233   9.250   4.259   4.059 -0.1292  0.2606 -0.3347
 5715W        W 9234   9.778   2.661   1.901 -0.1018  0.1721 -0.1926
 5716W        W 9235   3.165   3.808  10.382  0.0719  0.1894 -0.0414
 5717W        W 9236   5.765   3.006   0.925 -0.1098  0.0375 -0.0187
 5718W        W 9237   9.636   1.373  11.082  0.4073  0.0449 -0.0164
 5719W        W 9238   7.332   1.846  11.620  0.0832  0.0711 -0.3125
 5720W        W 9239   4.149   1.416   1.664 -0.0308  0.0678  0.1158
 5721W        W 9240   6.039   4.388   8.305  0.0783  0.0809 -0.3810
 5722W        W 9241   5.852   0.482   0.473  0.0641  0.2976  0.1783
 5723W        W 9242   8.818   4.256   9.148 -0.0375  0.0212  0.0492
 5724W        W 9243   6.853   7.703  11.845  0.1733 -0.1612 -0.2635
 5725W        W 9244   1.867   0.265  10.883 -0.0822 -0.2774 -0.0596
 5726W        W 9245   8.723   4.428  11.149 -0.0489 -0.0341  0.2886
 5727W        W 9246   7.645   4.804   2.607 -0.0793  0.2838  0.0923
 5728W        W 9247   1.817   8.996  10.499  0.0060 -0.0224  0.0526
 5729W        W 9248   3.787   8.044   2.653 -0.0922 -0.0757  0.2594
 5730W        W 9249   5.146   1.731   3.203  0.2406 -0.1441 -0.2575
 5731W        W 9250   4.881   0.832   1.728 -0.2444 -0.0739  0.2353
 5732W        W 9251   6.050   9.069   2.304 -0.1768 -0.0468 -0.1815
 5733W        W 9252   7.118   0.384   9.421  0.1902  0.0135  0.1401
 5734W        W 9253   5.620   3.620   2.363 -0.0383  0.0028  0.0763
 5735W        W 9254   7.773   6.400   0.360  0.1972 -0.0941 -0.2067
 5736W        W 9255   2.841   9.615   2.634  0.0244 -0.2659 -0.3657
 5737W        W 9256   3.851   0.826  11.507 -0.2531 -0.0524 -0.0627
 5738W        W 9257   2.836   7.671   8.287  0.0680  0.2398  0.4654
 5739W        W 9258   4.880   3.226   2.666  0.2313 -0.1496 -0.2472
 5740W        W 9259   4.904   9.646   9.908 -0.3897 -0.4849 -0.0674
 5741W        W 9260   8.662   8.915  11.943 -0.2009  0.1075 -0.3405
 5742W        W 9261   7.740   3.300   4.084  0.1120  0.0966  0.1477
 5743W        W 9262   1.513   1.342   1.647 -0.1137 -0.3153  0.1846
 5744W        W 9263   6.148   0.493   2.077 -0.3975 -0.0175  0.1994
 5745W        W 9264   3.522   2.765   1.727 -0.0040 -0.0891  0.3541
 5746W        W 9265   9.040   7.505   2.314  0.0292 -0.0206  0.2711
 5747W        W 9266   6.520   4.220   1.884 -0.0238 -0.0233  0.0479
 5748W        W 9267   6.365   1.149  11.445 -0.0347  0.1401  0.0028
 5749W        W 9268   9.636   8.783   1.729 -0.1231  0.1359 -0.0792
 5750W        W 9269   8.150   6.016  10.189 -0.0670 -0.2223 -0.0821
 5751W        W 9270   4.134   4.566   4.153 -0.2032 -0.2187  0.0437
 5752W        W 9271   2.310   7.898   4.394 -0.0011 -0.0688 -0.0312
 5753W        W 9272   0.765   9.239   2.957  0.0525 -0.5902 -0.2581
 5754W        W 9273   4.881   3.739   2.839 -0.1997  0.0156 -0.0722
 5755W        W 9274   9.589   4.256  11.463  0.0692 -0.3418  0.1651
 5756W        W 9275   1.686   8.964   1.364 -0.4686 -0.3028 -0.0211
 5757W        W 9276   1.392   2.137   3.798 -0.0795  0.5191 -0.4467
 5758W        W 9277   9.245   9.176   8.636 -0.1013 -0.0602  0.1309
 5759W        W 9278   3.305   6.957   9.765  0.0602 -0.2286  0.1208
 5760W        W 9279   4.253   1.236   8.547  0.1067 -0.2884 -0.1683
 5761W        W 9280   7.640   1.046   1.379  0.1641  0.0988  0.1163
 5762W        W 9281   6.555   0.998   0.037  0.0757  0.0283  0.4855
 5763W        W 9282   5.151   2.356   2.897 -0.0917  0.1101 -0.1530
 5764W        W 9283   8.243   7.208  10.104 -0.0348  0.0600 -0.0233
 5765W        W 9284   7.372   6.620  10.012  0.0887 -0.1092 -0.0458
 5766W        W 9285   1.094   8.360   3.121 -0.1692 -0.0229 -0.1087
 5767W        W 9286   4.467   0.505   1.000 -0.1371 -0.1898  0.0611
 5768W        W 9287   2.554   3.481   4.206  0.2585  0.3614  0.1626
 5769W        W 9288   0.644   6.088   2.108  0.2934 -0.1679 -0.1874
 5770W        W 9289   5.691   1.501  12.109  0.2387 -0.1938 -0.1276
 5771W        W 9290   8.865   7.680   8.818 -0.2165  0.1897 -0.1005
 5772W        W 9291   4.483   5.178   1.664 -0.0218 -0.3528 -0.2229
 5773W        W 9292   8.510   7.349   3.878 -0.0470  0.3391 -0.1295
 5774W        W 9293   1.759   4.888   8.756  0.0852  0.2146  0.1922
 5775W        W 9294   3.704   7.932   2.183  0.2380  0.2642 -0.1772
 5776W        W 9295   3.146   8.763   3.095  0.2504 -0.2563  0.0186
 5777W        W 9296   7.714   7.241  11.676 -0.2058  0.2103 -0.4544
 5778W        W 9297   9.619   5.270   4.095  0.0202 -0.0987 -0.0789
 5779W        W 9298   2.305   1.661  10.739 -0.1462  0.1305 -0.0640
 5780W        W 9299   0.351   5.905   3.872  0.0735  0.0132  0.0611
 5781W        W 9300   0.627   4.197   1.008 -0.1314 -0.0333 -0.1787
 5782W        W 9301   4.597   4.949   4.140 -0.0283 -0.0449  0.1160
 5783W        W 9302   7.930   5.567  11.480 -0.1473  0.1248  0.1153
 5784W        W 9303   7.936   9.768  11.178  0.3506  0.1902  0.3811
 5785W        W 9304   2.012   4.217  10.669 -0.2891 -0.0660 -0.0831
 5786W        W 9305   5.343   8.437  11.693 -0.0763  0.1301 -0.3449
 5787W        W 9306   3.291   6.513  11.763 -0.0427  0.2720 -0.1018
 5788W        W 9307   1.327   3.352   1.136 -0.2041  0.2068  0.2499
 5789W        W 9308   6.600   7.221   9.481  0.0461 -0.1960 -0.2915
 5790W        W 9309   4.801   8.491   3.442 -0.0486  0.0867 -0.1630
 5791W        W 9310   0.103   3.834   3.292  0.0463 -0.1849  0.2651
 5792W        W 9311   4.503   5.555  10.306 -0.2081  0.0914 -0.0027
 5793W        W 9312   0.512   6.792  10.173 -0.1038 -0.0142  0.0313
 5794W        W 9313   8.414   0.030   2.818  0.0010 -0.0249  0.0425
 5795W        W 9314   4.002   1.349   4.241 -0.0329 -0.1636  0.3197
 5796W        W 9315   9.133   8.944   4.314  0.1918  0.0706  0.1375
 5797W        W 9316   6.798   7.241   0.016 -0.1297 -0.3150 -0.0153
 5798W        W 9317   8.331   0.448   9.204 -0.0382  0.0436  0.1157
 5799W        W 9318   3.069   8.736  10.570 -0.1358 -0.1481 -0.1178
 5800W        W 9319   1.691   5.953   9.733 -0.4596 -0.1237 -0.0881
 5801W        W 9320   9.713   5.684   1.916  0.0639 -0.0095  0.0822
 5802W        W 9321   8.247   0.822   8.831 -0.3318  0.2327  0.0632
 5803W        W 9322   7.881   8.922  10.208 -0.3304 -0.1073 -0.3148
 5804W        W 9323   4.428   5.690   9.093 -0.0903 -0.1635  0.1569
 5805W        W 9324   3.273   8.508   0.850  0.1172 -0.0791 -0.3165
 5806W        W 9325   1.901   5.584  10.612 -0.3179  0.0184  0.2946
 5807W        W 9326   7.223   1.010   4.549 -0.0958  0.0854 -0.3287
 5808W        W 9327   3.127   8.128  11.603 -0.3257  0.0477  0.0391
 5809W        W 9328   4.905   2.108   8.566 -0.0962 -0.0356 -0.0813
 5810W        W 9329   4.746   1.328  11.204 -0.1318 -0.0678  0.1738
 5811W        W 9330   9.873   5.002   1.132 -0.1619 -0.1014 -0.0552
 5812W        W 9331   6.300   1.948   8.249 -0.0054 -0.0759 -0.0650
 5813W        W 9332   3.559   7.158   0.503 -0.0240 -0.1437  0.1564
 5814W        W 9333   1.131   8.636  11.685  0.2083 -0.2926 -0.2572
 5815W        W 9334   2.093   3.643   2.447  0.0089  0.0569  0.0746
 5816W        W 9335   7.362   0.955  12.040 -0.0319  0.1614 -0.0894
 5817W        W 9336   5.681   8.462   3.034 -0.1154  0.0035 -0.2217
 5818W        W 9337   1.418   8.377  11.409 -0.0361  0.1800  0.2069
 5819W        W 9338   2.144   0.037   4.879 -0.0289 -0.2597 -0.3242
 5820W        W 9339   5.138   3.012   4.465  0.0491 -0.0578 -0.2465
 5821W        W 9340   1.845   4.817   0.722  0.0580 -0.0424  0.0692
 5822W        W 9341   2.032   2.715   3.275 -0.0573  0.3819  0.1179
 5823W        W 9342   3.516   6.899   3.837 -0.1060  0.2122  0.0208
 5824W        W 9343   5.951   5.032   2.950  0.2353  0.2231  0.1366
 5825W        W 9344   3.512   4.832  11.546 -0.1815  0.1316  0.1304
 5826W        W 9345   0.491   3.875   2.637 -0.1158  0.0453 -0.0167
 5827W        W 9346   7.950   8.948   0.349 -0.0203 -0.0336 -0.3281
 5828W        W 9347   7.061   3.937  11.132 -0.1951 -0.4722  0.1243
 5829W        W 9348   2.832   6.319  10.598  0.2619  0.0350  0.0557
 5830W        W 9349   9.060   9.080  11.623 -0.1107  0.0824  0.5135
 5831W        W 9350   2.655   2.689   2.811 -0.2590  0.0424  0.2319
 5832W        W 9351   6.053   6.561   8.068  0.0285 -0.0024 -0.3388
 5833W        W 9352   5.563   8.285   8.205  0.4211  0.1767  0.0389
 5834W        W 9353   7.389   3.771   2.934 -0.1117  0.1484 -0.1534
 5835W        W 9354   7.659   3.964   0.338 -0.1231 -0.0787  0.1433
 5836W        W 9355   9.836   8.900  11.932  0.1566 -0.2101  0.0945
 5837W        W 9356   8.561   7.536   0.169  0.1690 -0.0113  0.0026
 5838W        W 9357   6.362   0.330   3.831  0.0287 -0.1872 -0.0526
 5839W        W 9358   5.876   7.108   4.158  0.0295  0.1197 -0.2028
 5840W        W 9359   3.558   5.462  10.115 -0.1651  0.0272  0.1331
 5841W        W 9360   4.677   3.990   0.437 -0.2346  0.0427  0.0395
 5842W        W 9361   1.444   8.671  10.478 -0.0072 -0.1610 -0.0043
 5843W        W 9362   1.835   8.197  10.177  0.0590 -0.0513  0.2792
 5844W        W 9363   0.564   4.050  10.270  0.2164  0.1436  0.1000
 5845W        W 9364   1.165   5.169   1.424  0.0606 -0.0575  0.1965
 5846W        W 9365   1.734   1.243   4.225 -0.2291 -0.1040 -0.2468
 5847W        W 9366   6.989   2.237   9.689  0.1220  0.2446 -0.0791
 5848W        W 9367   6.424   0.277  10.438 -0.2847  0.0249  0.0533
 5849W        W 9368   4.718   5.477   4.135 -0.2142  0.3025 -0.0087
 5850W        W 9369   5.330   1.480   9.578  0.0097 -0.1650  0.2736
 5851W        W 9370   2.975   1.988   3.441  0.2094 -0.0333  0.0249
 5852W        W 9371   6.183   8.928   8.802  0.1912  0.3050 -0.0541
 5853W        W 9372   4.146   2.184   3.947 -0.0166  0.0854  0.0655
 5854W        W 9373   9.709   6.193   3.666 -0.1672  0.2097 -0.0215
 5855W        W 9374   2.771   1.588   1.527 -0.0223  0.0033  0.0287
 5856W        W 9375   0.730   9.801   0.155 -0.0240  0.1815 -0.1323
 5857W        W 9376   2.931   6.006   1.213 -0.1539 -0.0432  0.1367
 5858W        W 9377   1.144   7.004  11.445  0.2479 -0.0086 -0.0540
 5859W        W 9378   3.401   3.787  11.509 -0.3449 -0.1073 -0.0717
 5860W        W 9379   9.527   9.041  10.423  0.0583 -0.1294 -0.2576
 5861W        W 9380   5.471   2.864   0.455  0.2677 -0.1171  0.0005
 5862W        W 9381   7.950   2.004   0.204  0.0923 -0.2180 -0.0611
 5863W        W 9382   3.940   8.955   1.884 -0.0410  0.0937 -0.3293
 5864W        W 9383   5.743   5.200  11.418 -0.1436  0.1334 -0.0825
 5865W        W 9384   6.868   7.244   4.523 -0.1757 -0.1018  0.1165
 5866W        W 9385   0.552   9.095   9.603 -0.2249  0.1601  0.0775
 5867W        W 9386   0.216   1.586  10.442  0.2597 -0.1181  0.0636
 5868W        W 9387   1.921   8.024   1.375 -0.2852 -0.0849 -0.0902
 5869W        W 9388   7.523   3.242   0.720 -0.2024 -0.0016 -0.0220
 5870W        W 9389   7.714   4.920   2.066 -0.0265 -0.1392 -0.1343
 5871W        W 9390   6.790   3.860   1.577  0.1364  0.1830  0.2555
 5872W        W 9391   4.535   2.613   2.254 -0.0035  0.2362 -0.0208
 5873W        W 9392   5.692   9.288   8.997 -0.0466  0.1683  0.0171
 5874W        W 9393   8.696   6.181  10.396  0.1492 -0.0717  0.0280
 5875W        W 9394   7.033   2.387   0.821 -0.2189  0.0371  0.1289
 5876W        W 9395   3.246   8.921   9.487  0.1015  0.1163 -0.1427
 5877W        W 9396   2.039   7.444   3.138  0.1589 -0.1849  0.0322
 5878W        W 9397   9.285   6.349   3.585 -0.3463 -0.1830 -0.3003
 5879W        W 9398   8.165   6.036   9.446  0.0535 -0.1611 -0.1556
 5880W        W 9399   3.634   9.614   3.939 -0.0526 -0.1428 -0.0524
 5881W        W 9400   3.061   1.079   3.777  0.0032  0.5046 -0.1710
 5882W        W 9401   7.462   0.267  12.099 -0.1710  0.2514  0.1073
 5883W        W 9402   3.908   6.318  10.239  0.0980 -0.0893  0.2529
 5884W        W 9403   6.737   9.678  11.760 -0.3459  0.0341 -0.0478
 5885W        W 9404   6.469   4.533   3.611  0.0463 -0.3234  0.2088
 5886W        W 9405   2.800   5.785  10.596 -0.0587  0.3721  0.1486
 5887W        W 9406   6.723   0.783   1.594 -0.0019 -0.1651  0.0697
 5888W        W 9407   3.009   0.320   1.038 -0.1836  0.1089 -0.2615
 5889W        W 9408   5.462   7.019   3.115  0.1273 -0.1093 -0.2790
 5890W        W 9409   1.597   1.494   9.423  0.0053 -0.2058  0.1117
 5891W        W 9410   2.250   0.159   3.152  0.1660  0.3685 -0.2340
 5892W        W 9411   7.974   7.118   9.393  0.3208  0.1850 -0.1484
 5893W        W 9412   3.657   8.844   9.794  0.1676  0.2040  0.0390
 5894W        W 9413   4.439   8.882   4.137  0.3327 -0.2787  0.0355
 5895W        W 9414   3.210   7.651   1.275  0.2959 -0.1294  0.1100
 5896W        W 9415   1.634   0.116   4.719 -0.4695  0.0274 -0.1243
 5897W        W 9416   5.037   7.217   3.367 -0.1083 -0.0860  0.2714
 5898W        W 9417   9.088   7.291   2.744  0.1618  0.4201  0.1382
 5899W        W 9418   0.271   7.473  10.900  0.1104  0.0896 -0.0241
 5900W        W 9419   3.450   8.046   0.916  0.5769 -0.0078  0.2575
 5901W        W 9420   1.835   1.921   0.478 -0.4041  0.2891  0.0317
 5902W        W 9421   9.316   6.948   2.995  0.1182  0.1446 -0.1721
 5903W        W 9422   2.456   7.245   0.724 -0.0035  0.0857 -0.0555
 5904W        W 9423   2.850   8.626  11.576 -0.0207 -0.1398 -0.3174
 5905W        W 9424   2.802   9.171  11.369 -0.0679  0.1268  0.0555
 5906W        W 9425   3.164   0.208   3.392  0.2963  0.1204 -0.1951
 5907W        W 9426   1.960   2.518  10.297 -0.0511  0.0442  0.1481
 5908W        W 9427   8.037   6.039   2.900  0.1748  0.1537  0.2179
 5909W        W 9428   9.702   3.541  10.544 -0.1099 -0.2907  0.2698
 5910W        W 9429   7.050   1.179   0.840  0.1231 -0.0361  0.2145
 5911W        W 9430   5.730   4.966   0.160  0.2284  0.1413 -0.2544
 5912W        W 9431   9.365   3.652   1.761 -0.0867  0.2231 -0.1492
 5913W        W 9432   2.281   0.182   0.474 -0.3846  0.1602 -0.0193
 5914W        W 9433   6.930   6.689   0.235 -0.0143  0.0829  0.1730
 5915W        W 9434   9.350   3.630   0.317 -0.0655 -0.0799  0.0716
 5916W        W 9435   1.670   2.916  11.057  0.2569 -0.1523 -0.0949
 5917W        W 9436   2.634   9.517  11.719  0.2822  0.1602  0.1485
 5918W        W 9437   3.771   6.894   2.608  0.3117  0.1015  0.0511
 5919W        W 9438   5.863   8.208   1.850  0.4470 -0.1016 -0.0198
 5920W        W 9439   8.065   1.085  11.975 -0.3572 -0.0964 -0.0730
 5921W        W 9440   4.606   6.295   3.062  0.0023  0.1046  0.1706
 5922W        W 9441   2.252   8.254   0.515  0.2464 -0.1126  0.0898
 5923W        W 9442   0.493   9.695  11.758  0.0784 -0.1513 -0.1919
 5924W        W 9443   0.250   3.315   2.577  0.0836 -0.0325 -0.1570
 5925W        W 9444   7.451   2.821  11.138 -0.2312 -0.0440  0.1849
 5926W        W 9445   9.183   6.219  11.671  0.0318 -0.0659  0.0472
 5927W        W 9446   0.380   2.065  10.335 -0.0093 -0.2975  0.1501
 5928W        W 9447   8.692   9.251  10.691  0.2970  0.3306 -0.1207
 5929W        W 9448   5.691   0.814   9.123  0.0003 -0.5181 -0.0813
 5930W        W 9449   2.638   7.544  10.002  0.2010 -0.0600  0.1158
 5931W        W 9450   4.836   9.342   0.833  0.0122 -0.1561  0.0122
 5932W        W 9451   2.470   3.526  11.190  0.1345  0.0253  0.0707
 5933W        W 9452   5.728   7.124   0.954 -0.0408 -0.0281 -0.2011
 5934W        W 9453   6.686   2.527   8.889  0.0508  0.2246 -0.1868
 5935W        W 9454   3.478   4.431   9.127  0.0864  0.3253 -0.0713
 5936W        W 9455   2.477   9.494   1.413 -0.3650 -0.2746  0.1819
 5937W        W 9456   4.364   0.818   3.549 -0.1328 -0.2368  0.0908
 5938W        W 9457   1.676   6.159  10.292  0.4930  0.2493  0.1646
 5939W        W 9458   7.680   7.190   0.063  0.0628 -0.0490 -0.0505
 5940W        W 9459   1.078   3.835   3.771 -0.1001 -0.0270 -0.0144
 5941W        W 9460   0.713   5.336   3.218 -0.2878 -0.0024  0.0532
 5942W        W 9461   2.358   1.374   1.954 -0.1065  0.1760  0.0110
 5943W        W 9462   3.126   8.146   9.319 -0.1749  0.2351 -0.3184
 5944W        W 9463   6.211   7.826   9.984  0.0497  0.3200 -0.0502
 5945W        W 9464   4.251   8.465  10.886 -0.1554  0.3526 -0.0174
 5946W        W 9465   8.648   4.243   2.738  0.1765 -0.1022  0.0104
 5947W        W 9466   8.840   6.802   9.884  0.1412 -0.0732 -0.2782
 5948W        W 9467   9.231   1.606  11.298  0.1061 -0.0052  0.1871
 5949W        W 9468   4.037   2.517  10.504  0.0953 -0.1874  0.1039
 5950W        W 9469   6.936   0.756   0.223 -0.0308 -0.1160 -0.0697
 5951W        W 9470   0.027   4.230   9.134 -0.1785  0.0800 -0.0647
 5952W        W 9471   7.815   2.737   2.923  0.0820 -0.1286  0.2172
 5953W        W 9472   5.671   1.094   9.687  0.0394  0.0135  0.0108
 5954W        W 9473   7.069   8.000   0.995  0.0092  0.5250  0.4848
 5955W        W 9474   1.604   6.832   2.157  0.3488 -0.1812 -0.2404
 5956W        W 9475   6.831   3.768   2.809 -0.1771  0.0852  0.1687
 5957W        W 9476   3.954   8.538   2.873 -0.0783  0.3714  0.4609
 5958W        W 9477   8.863   3.226   1.305 -0.0077  0.1679 -0.0604
 5959W        W 9478   5.276   8.184   0.395  0.2947 -0.1087 -0.2973
 5960W        W 9479   5.666   3.624  11.315  0.1055 -0.1398  0.2268
 5961W        W 9480   7.484   7.696   4.252 -0.0884  0.1814  0.0212
 5962W        W 9481   8.628   4.348   2.130  0.2852 -0.1523  0.1295
 5963W        W 9482   1.865   8.674   9.989 -0.1514 -0.0566  0.0679
 5964W        W 9483   5.158   1.351   2.798 -0.0491 -0.0884  0.2219
 5965W        W 9484   0.798   7.415  11.538  0.0564 -0.0905 -0.0766
 5966W        W 9485   5.160   5.054   3.436  0.0149  0.2794  0.1067
 5967W        W 9486   7.693   0.417   4.069  0.1172 -0.2238 -0.0477
 5968W        W 9487   9.173   3.474   9.659  0.1169 -0.2495 -0.0450
 5969W        W 9488   5.459   9.446  11.317  0.0500  0.2105 -0.1148
 5970W        W 9489   8.339   7.435   0.707  0.2234 -0.1126  0.1008
 5971W        W 9490   4.754   7.502   8.766 -0.0169 -0.2665 -0.2089
 5972W        W 9491   6.091   1.487   3.778  0.0559 -0.0174  0.1564
 5973W        W 9492   8.077   6.120  11.570  0.0631  0.2084 -0.1751
 5974W        W 9493   7.270   3.821  10.251 -0.1066 -0.2255  0.1857
 5975W        W 9494   1.694   7.137   1.485  0.2487 -0.1850  0.0013
 5976W        W 9495   3.551   4.361   9.824 -0.2300 -0.0358  0.3093
 5977W        W 9496   3.440   2.369   1.426  0.0733  0.0228  0.0866
 5978W        W 9497   6.712   9.363   9.837  0.3999  0.2933  0.1735
 5979W        W 9498   3.022   0.257   4.738  0.1614  0.1194  0.3091
 5980W        W 9499   1.018   4.676  11.424 -0.3874  0.3119  0.0621
 5981W        W 9500   4.540   5.737   0.608  0.1890  0.0394  0.1080
 5982W        W 9501   3.033   2.663  10.953 -0.0603  0.1635  0.1581
 5983W        W 9502   8.679   0.976  10.706 -0.2677 -0.0087 -0.3210
 5984W        W 9503   0.642   4.549  11.703  0.1406 -0.2969 -0.0413
 5985W        W 9504   0.043   1.300   1.763  0.1360 -0.0368 -0.2312
 5986W        W 9505   9.579   6.499   2.261 -0.1635 -0.2399 -0.3038
 5987W        W 9506   4.766   5.964   9.933  0.0662 -0.0087 -0.0118
 5988W        W 9507   2.319   4.651  12.022  0.1474  0.1422  0.1167
 5989W        W 9508   3.097   2.031  10.043  0.1468 -0.0180  0.1900
 5990W        W 9509   6.611   3.271   2.865  0.0960  0.1063  0.0269
 5991W        W 9510   3.721   8.963   3.095  0.3347 -0.1080 -0.0213
 5992W        W 9511   6.652   1.421  11.783 -0.2246 -0.2511  0.0147
 5993W        W 9512   6.592   2.685   3.620 -0.2568 -0.1629  0.0558
 5994W        W 9513   7.908   0.911   9.291  0.1853 -0.2237 -0.2146
 5995W        W 9514   5.623   2.001   0.388 -0.0862  0.2937  0.2096
 5996W        W 9515   9.120   7.042   2.062 -0.5817 -0.1467  0.0866
 5997W        W 9516   5.881   6.828   3.447  0.1850  0.1557 -0.0080
 5998W        W 9517   4.177   6.190   0.005 -0.1228  0.2514 -0.1025
 5999W        W 9518   2.659   0.523   2.016  0.0556 -0.3334 -0.2237
 6000W        W 9519   7.285   3.850   9.544 -0.0968 -0.1346 -0.0825
 6001W        W 9520   1.687   0.062   9.738  0.0647  0.0883  0.0993
 6002W        W 9521   5.052   3.423   9.175 -0.1879  0.1794  0.0277
 6003W        W 9522   5.927   5.601   0.154  0.0480  0.2080  0.1047
 6004W        W 9523   3.374   8.321  10.599 -0.2452  0.0683  0.0682
 6005W        W 9524   1.690   2.073   0.926 -0.2300  0.0757  0.0217
 6006W        W 9525   2.695   2.922   0.070  0.1145  0.0155 -0.2421
 6007W        W 9526   3.387   0.748   1.764  0.0311 -0.1552  0.3128
 6008W        W 9527   0.324   2.068   2.714  0.0229  0.3758  0.0492
 6009W        W 9528   6.410   6.321  10.468 -0.1849 -0.0716  0.1904
 6010W        W 9529   9.041   8.277   2.779  0.0027  0.2714 -0.2078
 6011W        W 9530   6.670   8.143   3.631 -0.0275  0.0809  0.2042
 6012W        W 9531   5.791   6.190   9.821  0.2362  0.2507  0.1638
 6013W        W 9532   7.060   0.050  10.801 -0.0709  0.0400  0.1738
 6014W        W 9533   7.207   8.834  11.652  0.0150  0.0589  0.2635
 6015W        W 9534   6.018   0.170   0.161 -0.0936  0.1301  0.0520
 6016W        W 9535   0.843   6.691   1.572  0.2407  0.1523 -0.3055
 6017W        W 9536   9.554   4.593   1.179  0.0255  0.3507 -0.2604
 6018W        W 9537   3.919   7.059   4.085  0.0356  0.5270 -0.0110
 6019W        W 9538   7.079   3.930   0.962  0.1348  0.1506 -0.0991
 6020W        W 9539   7.010   1.550  10.909  0.0747 -0.1024 -0.0227
 6021W        W 9540   9.216   3.562   8.670 -0.1292 -0.6637  0.2887
 6022W        W 9541   1.771   7.532   1.164  0.1374  0.0005 -0.1889
 6023W        W 9542   1.111   3.169   9.819 -0.0879  0.2006  0.0281
 6024W        W 9543   7.888   4.540  10.594  0.3021  0.0115 -0.0383
 6025W        W 9544   5.962   7.442   2.727  0.1697 -0.0643  0.1954
 6026W        W 9545   5.086   5.572   3.713  0.2560  0.0302 -0.4801
 6027W        W 9546   6.487   0.494   7.841 -0.1296  0.2445 -0.1679
 6028W        W 9547   0.182   6.170   3.236  0.4713 -0.1005 -0.1585
 6029W        W 9548   5.280   5.262   2.978 -0.3398  0.2031 -0.0661
 6030W        W 9549   3.270   5.779   0.359 -0.0077 -0.1062  0.0533
 6031W        W 9550   2.872   3.435   9.504 -0.2461 -0.0809  0.0258
 6032W        W 9551   0.012   2.223   1.998 -0.0510 -0.2302  0.0698
 6033W        W 9552   1.223   6.075   2.937 -0.0677 -0.0207 -0.0637
 6034W        W 9553   7.563   0.983   2.798 -0.1254  0.0582  0.1686
 6035W        W 9554   4.122   1.164   1.218  0.0735 -0.1246 -0.0673
 6036W        W 9555   7.020   2.236  11.437 -0.0903  0.1004 -0.1061
 6037W        W 9556   9.048   7.198  11.650  0.2939 -0.1579  0.1876
 6038W        W 9557   7.941   7.677   9.280 -0.2153  0.1041  0.0341
 6039W        W 9558   6.198   4.159  11.293 -0.1011  0.0023  0.0472
 6040W        W 9559   5.266   3.516   1.994  0.2140  0.1255 -0.0873
 6041W        W 9560   8.594   4.969   9.802 -0.1416  0.3003  0.0380
 6042W        W 9561   6.062   3.275   9.796  0.1487 -0.2005  0.0004
 6043W        W 9562   9.046   5.250   9.481  0.0148 -0.0917 -0.0382
 6044W        W 9563   8.316   9.636  10.872  0.0561  0.0239 -0.2900
 6045W        W 9564   7.100   8.388   3.222  0.4094 -0.2119  0.0702
 6046W        W 9565   4.544   5.786   0.058 -0.0849  0.0969  0.1270
 6047W        W 9566   0.513   0.419   1.589  0.1648 -0.0951  0.0868
 6048W        W 9567   1.240   1.256   2.972 -0.0382 -0.2131  0.0144
 6049W        W 9568   4.985   1.088   0.995 -0.0990 -0.0443 -0.0264
 6050W        W 9569   5.202   2.886   3.835  0.0173 -0.1235  0.0026
 6051W        W 9570   1.524   7.127   8.851  0.0500 -0.2531  0.1321
 6052W        W 9571   0.237   8.445   2.503 -0.1579  0.3110 -0.2100
 6053W        W 9572   8.535   7.759   2.167  0.0878  0.0368 -0.0281
 6054W        W 9573   3.818   3.623   3.596  0.0229 -0.3854 -0.1804
 6055W        W 9574   9.381   8.543   3.164  0.3731  0.1419 -0.4070
 6056W        W 9575   1.950   6.229   4.008  0.1157 -0.0138  0.2489
 6057W        W 9576   3.016   1.828  11.950 -0.0372  0.0646 -0.0958
 6058W        W 9577   5.151   1.562   1.197  0.1294 -0.0316 -0.0461
 6059W        W 9578   9.584   9.462   2.125  0.1872  0.1701  0.0711
 6060W        W 9579   2.181   9.521   9.792 -0.1381 -0.1129  0.3891
 6061W        W 9580   8.967   3.511   2.397 -0.1909 -0.3022 -0.5562
 6062W        W 9581   0.414   5.347   4.501  0.0341 -0.1732 -0.3120
 6063W        W 9582   1.531   6.362   1.869  0.3960  0.0298  0.1641
 6064W        W 9583   3.304   7.752   9.104  0.0747  0.0273 -0.0448
 6065W        W 9584   6.835   0.732   4.415 -0.0261 -0.1169  0.1884
 6066W        W 9585   9.682   7.739   4.934  0.0024 -0.0328 -0.4699
 6067W        W 9586   1.541   3.616   5.262 -0.0904  0.1846  0.4062
 6068W        W 9587   3.088   5.437  12.081  0.2588  0.1729 -0.3166
 6069W        W 9588   1.634   3.990   9.071  0.0183 -0.1533 -0.0083
 6070W        W 9589   5.882   2.003   1.333 -0.2400  0.1127 -0.0001
 6071W        W 9590   1.482   6.531   2.598  0.2464 -0.1560 -0.0983
 6072W        W 9591   1.028   3.786   2.862 -0.0056  0.2694  0.0695
 6073W        W 9592   7.160   1.382  11.695 -0.1498 -0.1175  0.0388
 6074W        W 9593   7.545   5.011   0.255 -0.0044  0.2452 -0.0021
 6075W        W 9594   9.208   7.734   9.793 -0.1544  0.1081  0.2224
 6076W        W 9595   4.169   6.722   3.710  0.0352 -0.0978  0.0406
 6077W        W 9596   0.913   1.947   3.725 -0.0335 -0.1508  0.0757
 6078W        W 9597   4.527   8.052  10.582 -0.0920  0.1752  0.4265
 6079W        W 9598   4.396   8.548   3.190  0.1345  0.2374 -0.2029
 6080W        W 9599   9.568   6.103   9.394 -0.2426  0.3107  0.1232
 6081W        W 9600   8.364   2.258   1.440  0.0558  0.0216  0.2046
 6082W        W 9601   3.826   8.556  11.772  0.0196  0.1213 -0.2842
 6083W        W 9602   1.003   0.348   1.341 -0.2678 -0.1763  0.2264
 6084W        W 9603   5.275   3.598  10.333  0.0315  0.2127  0.2413
 6085W        W 9604   5.985   6.320   2.017  0.0943  0.0028  0.1009
 6086W        W 9605   0.674   1.744   0.012  0.1469  0.0087  0.0232
 6087W        W 9606   7.417   4.305   0.704 -0.2980 -0.0931 -0.0876
 6088W        W 9607   9.228   5.561   8.571  0.4045 -0.1930  0.0746
 6089W        W 9608   1.907   4.791   3.938 -0.1303 -0.1146 -0.1054
 6090W        W 9609   9.587   9.128  10.970 -0.1987  0.1077 -0.1890
 6091W        W 9610   1.340   8.114  11.845 -0.0656 -0.0614  0.1216
 6092W        W 9611   5.407   4.549   3.608 -0.2362 -0.3166  0.0216
 6093W        W 9612   6.617   0.491   9.955 -0.2370 -0.2859 -0.1063
 6094W        W 9613   0.138   1.332  11.418 -0.2237 -0.1166  0.0731
 6095W        W 9614   2.333   8.810   4.115 -0.1628  0.3990  0.1544
 6096W        W 9615   0.309   5.113   0.707 -0.5205 -0.1150  0.2883
 6097W        W 9616   0.695   5.346   1.691 -0.1492 -0.3520 -0.3344
 6098W        W 9617   5.693   2.839   9.101 -0.1099  0.0493 -0.1045
 6099W        W 9618   4.555   9.818  10.317 -0.1056  0.2246 -0.1258
 6100W        W 9619   0.679   3.680   1.229 -0.1168  0.4297  0.1037
 6101W        W 9620   3.203   7.617  11.670 -0.0754 -0.4094 -0.4157
 6102W        W 9621   3.357   6.543  10.893 -0.0955 -0.1529  0.0606
 6103W        W 9622   8.014   8.206   2.873 -0.2411  0.0402 -0.4178
 6104W        W 9623   4.550   6.246   0.439 -0.0625 -0.0618 -0.1893
 6105W        W 9624   7.968   5.657   2.579  0.0540  0.0554  0.2070
 6106W        W 9625   0.901   8.210  11.466  0.1235  0.0919 -0.2390
 6107W        W 9626   9.269   5.036   1.414  0.1903 -0.0076 -0.3739
 6108W        W 9627   6.132   5.946  12.006  0.1915 -0.1577 -0.1597
 6109W        W 9628   3.694   7.747   1.304 -0.2094  0.0927  0.3188
 6110W        W 9629   1.735   8.033   1.977  0.1488  0.1526 -0.2116
 6111W        W 9630   6.668   5.373   8.896  0.0167  0.0852  0.1881
 6112W        W 9631   2.349   6.408  11.028 -0.1531 -0.3933 -0.3311
 6113W        W 9632   4.512   2.473   1.217 -0.0627  0.1357 -0.0009
 6114W        W 9633   4.904   9.410   8.731 -0.1902  0.0640  0.0683
 6115W        W 9634   2.963   8.777   0.409 -0.0893  0.1941 -0.0778
 6116W        W 9635   2.653   9.263   0.202  0.2542  0.1648  0.1794
 6117W        W 9636   0.887   1.273   1.344  0.4665 -0.0100  0.2105
 6118W        W 9637   3.731   5.214  11.261 -0.0084  0.0082 -0.0524
 6119W        W 9638   4.339   8.558   1.923  0.2799 -0.2098 -0.0733
 6120W        W 9639   9.394   8.733  10.006 -0.1832 -0.1153  0.2523
 6121W        W 9640   3.907   2.320  10.999 -0.1609 -0.0851 -0.0086
 6122W        W 9641   8.568   9.805   3.297  0.0248  0.2599 -0.3729
 6123W        W 9642   1.634   7.140  11.416  0.0649  0.1827 -0.2058
 6124W        W 9643   2.979   1.724  10.900 -0.0747  0.2043  0.0757
 6125W        W 9644   4.644   7.604   3.583  0.0883 -0.0025  0.0196
 6126W        W 9645   8.046   9.846   4.133  0.3454 -0.2850 -0.1325
 6127W        W 9646   2.302   9.032   1.468 -0.0218 -0.1515 -0.1451
 6128W        W 9647   4.521   3.324  11.212 -0.2170  0.2116 -0.3492
 6129W        W 9648   6.820   4.208  11.994  0.3665  0.0466  0.1722
 6130W        W 9649   0.118   6.088   0.687  0.1676  0.1552 -0.0538
 6131W        W 9650   4.827   8.881   3.755  0.1415  0.0671 -0.0016
 6132W        W 9651   7.054   1.318   9.924 -0.1626 -0.1975  0.1700
 6133W        W 9652   4.796   8.694   0.811  0.0579 -0.1877 -0.3035
 6134W        W 9653   3.180   4.413  11.628 -0.0804  0.0073  0.1197
 6135W        W 9654   6.534   5.415   9.396  0.0908  0.1277 -0.0221
 6136W        W 9655   8.641   2.717   0.033 -0.1876  0.0507  0.0724
 6137W        W 9656   6.908   1.244   1.889  0.1584  0.2666  0.0586
 6138W        W 9657   6.417   0.878   8.497 -0.0326 -0.2927 -0.1292
 6139W        W 9658   4.562   8.081   3.674 -0.2549 -0.0209 -0.2158
 6140W        W 9659   9.192   5.674  11.555 -0.1770  0.4043  0.1945
 6141W        W 9660   3.578   4.850   0.898  0.2059 -0.1451 -0.0273
 6142W        W 9661   1.010   0.706   3.039  0.2886  0.3142 -0.0984
 6143W        W 9662   8.608   6.739   1.820 -0.2229 -0.2018  0.1773
 6144W        W 9663   6.098   3.216   4.306  0.0415 -0.0253 -0.2648
 6145W        W 9664   9.042   6.582   4.009 -0.0991  0.0208 -0.1787
 6146W        W 9665   5.236   9.474   9.214 -0.0126  0.5073 -0.0551
 6147W        W 9666   1.354   2.467   9.106  0.0904 -0.0385 -0.4997
 6148W        W 9667   9.367   7.154  10.396  0.2549 -0.0502 -0.1412
 6149W        W 9668   6.507   0.551   2.964  0.2044 -0.1146 -0.1861
 6150W        W 9669   5.866   1.097   0.635 -0.1240  0.2251 -0.2700
 6151W        W 9670   2.892   3.400  10.528  0.1210  0.1936 -0.0425
 6152W        W 9671   6.235   8.361   2.181  0.2343  0.0383 -0.0729
 6153W        W 9672   5.202   1.886   3.759 -0.1026 -0.1545 -0.1416
 6154W        W 9673   1.536   8.941  11.466 -0.3193  0.2297  0.0784
 6155W        W 9674   0.930   9.874   4.953 -0.0078  0.1646  0.3100
 6156W        W 9675   1.674   4.986   0.186 -0.0423 -0.0874 -0.1469
 6157W        W 9676   1.128   7.464   3.411  0.0297  0.0671 -0.3841
 6158W        W 9677   9.254   0.978  10.043 -0.0370 -0.0033 -0.0552
 6159W        W 9678   6.444   6.490   2.273 -0.0238 -0.0214  0.0539
 6160W        W 9679   7.023   5.283   3.357 -0.0842  0.2938 -0.1085
 6161W        W 9680   9.112   4.136   2.987 -0.1873 -0.2422  0.1834
 6162W        W 9681   0.053   4.163  11.873 -0.3186  0.6805  0.1316
 6163W        W 9682   4.363   8.531   3.756 -0.0989 -0.1865  0.0260
 6164W        W 9683   5.966   2.362   9.118 -0.2187  0.2666  0.0392
 6165W        W 9684   3.377   4.866   1.412 -0.0101 -0.0061  0.3944
 6166W        W 9685   4.042   7.654   2.875 -0.1395 -0.2614  0.2614
 6167W        W 9686   5.404   8.098   9.220 -0.0129  0.0600 -0.1480
 6168W        W 9687   1.927   1.029   0.345  0.2064  0.0622  0.0888
 6169W        W 9688   7.407   1.355   1.688 -0.4548  0.1924 -0.0011
 6170W        W 9689   1.713   1.295  12.044 -0.3283  0.0227 -0.0247
 6171W        W 9690   0.981   1.989   0.782 -0.1663  0.1604  0.1508
 6172W        W 9691   3.799   1.806   0.059 -0.1120  0.1926 -0.1811
 6173W        W 9692   5.244   3.089   8.157  0.0022  0.0734 -0.0904
 6174W        W 9693   7.253   0.025  11.669  0.2242  0.1624 -0.1602
 6175W        W 9694   5.929   0.862   4.580  0.1631 -0.0486 -0.0819
 6176W        W 9695   5.280   3.721   0.903  0.0176 -0.3861  0.1659
 6177W        W 9696   7.779   0.007  10.138 -0.1040 -0.0387  0.1065
 6178W        W 9697   1.982   3.734   9.427 -0.0215 -0.0156 -0.1285
 6179W        W 9698   1.396   9.389   1.214 -0.0474 -0.1471  0.1309
 6180W        W 9699   0.284   8.141   1.193  0.0085  0.4308  0.1206
 6181W        W 9700   2.959   5.561  10.157 -0.0648 -0.2040  0.2556
 6182W        W 9701   5.760   2.868   2.577 -0.2945  0.1049  0.0057
 6183W        W 9702   0.133   0.631   0.281  0.0634 -0.0208 -0.2732
 6184W        W 9703   5.182   1.973   9.330 -0.0008  0.0744 -0.1472
 6185W        W 9704   6.784   6.583  11.040  0.1905  0.0030  0.0101
 6186W        W 9705   7.182   7.736   4.723 -0.0148  0.1397  0.3450
 6187W        W 9706   3.927   8.045   4.539  0.1459  0.0210 -0.1042
 6188W        W 9707   5.046   7.676   3.107  0.3498 -0.2565 -0.2906
 6189W        W 9708   2.141   5.232   9.998 -0.2808 -0.0632 -0.0453
 6190W        W 9709   7.475   1.237  10.847 -0.0498 -0.3359 -0.1415
 6191W        W 9710   5.550   7.158  11.948  0.3687 -0.1238  0.2813
 6192W        W 9711   4.631   2.466  10.364  0.1668 -0.2191 -0.2162
 6193W        W 9712   1.099   9.530   3.940 -0.5037  0.1161 -0.0102
 6194W        W 9713   3.966   7.303   1.384  0.1119  0.1462 -0.3609
 6195W        W 9714   7.765   5.182   0.971 -0.4140 -0.0462  0.0082
 6196W        W 9715   2.192   8.010   3.859 -0.0282  0.1784  0.1605
 6197W        W 9716   0.694   0.743   1.120 -0.3512 -0.2586  0.1462
 6198W        W 9717   3.279   6.189   2.763 -0.1850 -0.4468 -0.0400
 6199W        W 9718   3.589   1.020   4.312  0.0214  0.0033  0.2434
 6200W        W 9719   3.983   5.531   3.143 -0.2547  0.4211  0.1951
 6201W        W 9720   8.880   2.240   9.826  0.3745  0.0444 -0.2242
 6202W        W 9721   7.955   1.366   1.161  0.0220 -0.1425  0.0933
 6203W        W 9722   7.641   1.350   3.702 -0.0653  0.1097 -0.0510
 6204W        W 9723   6.247   8.505   1.081 -0.0076 -0.2385 -0.0993
 6205W        W 9724   9.510   6.104  10.746 -0.0493 -0.2301  0.1750
 6206W        W 9725   2.145   6.463   4.378 -0.0292  0.0285  0.2883
 6207W        W 9726   6.082   2.782   2.101 -0.2961 -0.1680  0.1129
 6208W        W 9727   0.608   5.765   2.508  0.4862 -0.2281  0.0208
 6209W        W 9728   0.403   8.595  11.790  0.1201 -0.0131 -0.1516
 6210W        W 9729   3.421   3.129   2.679 -0.0486 -0.1095 -0.0659
 6211W        W 9730   9.130   6.067  11.158 -0.1134  0.0257  0.0210
 6212W        W 9731   5.124   6.772   8.970 -0.2535 -0.0275 -0.0635
 6213W        W 9732   4.984   0.128   1.211 -0.1934  0.2683 -0.1625
 6214W        W 9733   0.124   0.162  11.568 -0.3632  0.4027  0.2300
 6215W        W 9734   2.290   0.309  12.086 -0.0172 -0.2483 -0.2839
 6216W        W 9735   5.263   7.738   8.788  0.1551  0.0472  0.0896
 6217W        W 9736   5.014   4.612   1.061 -0.0029  0.1571 -0.0543
 6218W        W 9737   4.896   6.034   0.790 -0.1694  0.0738 -0.1839
 6219W        W 9738   7.770   1.358   2.544 -0.0070 -0.1769 -0.1284
 6220W        W 9739   8.421   7.610   9.122  0.2497  0.0382  0.1039
 6221W        W 9740   7.638   9.731   0.217 -0.0039 -0.0932  0.2072
 6222W        W 9741   1.852   1.308  11.010  0.0081  0.4686  0.0421
 6223W        W 9742   6.127   3.775   3.542 -0.0051 -0.1272 -0.1941
 6224W        W 9743   6.035   0.457  11.779  0.0598 -0.1042 -0.2600
 6225W        W 9744   9.053   0.918   2.509  0.0883 -0.0060 -0.0129
 6226W        W 9745   4.464   1.555   0.471  0.0282  0.1055 -0.3777
 6227W        W 9746   2.437   5.755  11.333 -0.0828  0.2126 -0.4569
 6228W        W 9747   8.206   7.207   5.199  0.2212  0.2031  0.0188
 6229W        W 9748   1.552   4.340   4.059 -0.0247 -0.2515  0.3266
 6230W        W 9749   9.460   2.052   3.652 -0.0409  0.0559 -0.0621
 6231W        W 9750   2.221   6.594   8.164  0.0722  0.1371  0.1102
 6232W        W 9751   0.443   8.515   1.492 -0.0716  0.0470 -0.3016
 6233W        W 9752   7.496   0.726   9.536 -0.0117  0.1122  0.2832
 6234W        W 9753   8.711   6.085  11.385  0.0461  0.0053  0.0806
 6235W        W 9754   6.571   6.005  10.944 -0.4182 -0.1643  0.0935
 6236W        W 9755   4.630   6.263   2.073 -0.1331  0.0244 -0.0297
 6237W        W 9756   0.846   8.389  12.041 -0.2683 -0.0497 -0.3319
 6238W        W 9757   3.950   4.163  10.246 -0.1064  0.0335  0.1136
 6239W        W 9758   4.472   1.085   0.143  0.1304 -0.0626 -0.0822
 6240W        W 9759   5.746   9.153   1.069 -0.0511 -0.0735 -0.0209
 6241W        W 9760   1.144   2.232  10.969 -0.1431 -0.0439  0.2024
 6242W        W 9761   8.219   4.832   9.486  0.3985 -0.0016 -0.0317
 6243W        W 9762   1.474   1.746  11.742  0.2122 -0.0467  0.1783
 6244W        W 9763   1.374   4.318   1.504  0.1172  0.3225  0.2089
 6245W        W 9764   8.990   4.043   4.502  0.1501 -0.3633 -0.0546
 6246W        W 9765   0.899   4.805  10.665 -0.0074 -0.1614  0.1028
 6247W        W 9766   5.907   3.394  11.964 -0.1229 -0.0653 -0.5166
 6248W        W 9767   1.560   5.940   4.421 -0.0237 -0.2447  0.1530
 6249W        W 9768   5.719   1.343   9.292  0.1362 -0.0932  0.1954
 6250W        W 9769   2.903   8.077   0.882  0.0785  0.2237  0.1704
 6251W        W 9770   0.179   5.041   0.184 -0.2714  0.1932  0.0999
 6252W        W 9771   6.408   6.696   9.565 -0.3088  0.1153 -0.1933
 6253W        W 9772   5.407   5.586  10.505 -0.0859 -0.3102  0.1121
 6254W        W 9773   8.884   7.364   9.257 -0.0807  0.1206  0.0537
 6255W        W 9774   1.804   1.717  10.622  0.0453  0.0115  0.0364
 6256W        W 9775   6.330   8.795  11.835 -0.6380  0.1139  0.2395
 6257W        W 9776   9.226   2.874  10.887  0.1840  0.0574  0.0017
 6258W        W 9777   1.861   1.498   0.767 -0.2984  0.1359  0.1259
 6259W        W 9778   4.374   4.365   0.137  0.1482 -0.0604  0.0657
 6260W        W 9779   8.060   3.027   2.038  0.0947 -0.1004  0.3585
 6261W        W 9780   0.956   4.174   9.459  0.0005 -0.1724 -0.1136
 6262W        W 9781   0.206   2.710   4.173 -0.1199  0.1548 -0.1889
 6263W        W 9782   0.222   2.209  11.735  0.0661  0.3182  0.1419
 6264W        W 9783   6.223   5.508  11.835  0.0515  0.1102  0.4979
 6265W        W 9784   5.451   6.321   2.283 -0.4084 -0.1776  0.1458
 6266W        W 9785   2.177   9.737   0.914  0.0694  0.0615 -0.2069
 6267W        W 9786   6.458   6.668  11.435 -0.0462  0.1149  0.1705
 6268W        W 9787   0.605   1.495  11.315 -0.0554  0.0328  0.0511
 6269W        W 9788   3.376   7.555   0.711 -0.0534 -0.1611  0.1853
 6270W        W 9789   6.483   2.365   3.195 -0.1548 -0.1598  0.0988
 6271W        W 9790   7.050   5.155   8.643 -0.1969 -0.1707 -0.0266
 6272W        W 9791   6.404   6.008   9.239  0.3178  0.0237  0.1073
 6273W        W 9792   8.353   4.997   0.981 -0.1312 -0.1320 -0.1569
 6274W        W 9793   5.744   3.068   3.980 -0.0660 -0.1512 -0.1566
 6275W        W 9794   1.180   8.310   0.456  0.0054 -0.1827 -0.3347
 6276W        W 9795   1.836   5.167   9.182 -0.0564 -0.0750  0.3991
 6277W        W 9796   3.301   2.235   1.873 -0.2266  0.1422  0.1513
 6278W        W 9797   0.067   8.781   4.367 -0.0528  0.1975 -0.2303
 6279W        W 9798   6.346   1.640  11.392  0.1355 -0.0764  0.1459
 6280W        W 9799   7.793   3.899  10.133 -0.0670  0.0957  0.3261
 6281W        W 9800   5.144   1.575  10.080  0.0076  0.0257  0.0767
 6282W        W 9801   0.782   4.656   0.820  0.0770 -0.2854 -0.0548
 6283W        W 9802   8.947   0.019   8.130 -0.2222  0.3289  0.0006
 6284W        W 9803   3.805   7.565   9.836 -0.1609 -0.1207 -0.0596
 6285W        W 9804   4.711   2.030  10.669  0.0751  0.2772 -0.1684
 6286W        W 9805   9.434   9.750  10.774 -0.3423 -0.1999  0.0610
 6287W        W 9806   2.118   6.483   0.373  0.1015 -0.2544 -0.1436
 6288W        W 9807   1.064   8.009   1.783 -0.0019 -0.3100 -0.3222
 6289W        W 9808   6.692   6.283   1.460  0.0290 -0.1008  0.0945
 6290W        W 9809   1.285   4.344   4.471 -0.1736 -0.1439 -0.4108
 6291W        W 9810   3.693   6.835  11.600  0.3489 -0.2232  0.0412
 6292W        W 9811   8.881   6.690  10.340  0.0041 -0.0363 -0.2399
 6293W        W 9812   0.613   4.580  10.360  0.2271 -0.1859 -0.0704
 6294W        W 9813   6.567   9.633   1.591  0.1206  0.2407 -0.1784
 6295W        W 9814   5.271   4.078   0.499  0.0369  0.0700 -0.0116
 6296W        W 9815   3.245   8.738  11.836 -0.1530 -0.2820  0.0106
 6297W        W 9816   4.370   0.670   9.699  0.0486  0.3824 -0.1022
 6298W        W 9817   8.317   5.825  10.572 -0.0840 -0.0122 -0.0008
 6299W        W 9818   5.462   5.970  11.352  0.0100 -0.0021 -0.2230
 6300W        W 9819   5.891   0.373  10.426 -0.2324  0.2518  0.0953
 6301W        W 9820   8.191   6.835  11.015  0.4199  0.0647  0.4390
 6302W        W 9821   4.186   3.851   2.068  0.1407 -0.0857 -0.2363
 6303W        W 9822   4.685   1.594   1.352  0.4194 -0.0281  0.2529
 6304W        W 9823   9.515   0.718  11.077 -0.0998  0.0483  0.5059
 6305W        W 9824   5.970   9.745  10.361 -0.2315  0.1665 -0.0992
 6306W        W 9825   7.812   4.865   3.593 -0.1269 -0.1351 -0.2519
 6307W        W 9826   7.870   0.027   1.264 -0.3215  0.0967 -0.3275
 6308W        W 9827   6.908   5.550  10.924  0.0200 -0.1104  0.1801
 6309W        W 9828   2.687   1.050   1.790  0.2848  0.1165 -0.0879
 6310W        W 9829   5.531   3.043  12.042  0.0198 -0.1515  0.3354
 6311W        W 9830   6.884   7.062  11.022  0.3361 -0.0159  0.0754
 6312W        W 9831   1.705   6.228  11.203  0.1844 -0.0010  0.1350
 6313W        W 9832   4.980   7.462   1.162 -0.2265 -0.0403  0.3010
 6314W        W 9833   3.701   3.759   3.073 -0.0851 -0.0802 -0.3091
 6315W        W 9834   9.598   5.584  10.661  0.1778 -0.2197  0.2991
 6316W        W 9835   5.113   7.854  11.796 -0.1071 -0.4120  0.0554
 6317W        W 9836   9.814   3.340   2.154 -0.0349  0.0666 -0.0632
 6318W        W 9837   2.921   3.403   3.385  0.1437 -0.1172  0.3279
 6319W        W 9838   6.761   3.920  10.086  0.1130 -0.1524  0.2461
 6320W        W 9839   2.066   3.994  11.640 -0.1375  0.1671  0.2048
 6321W        W 9840   7.504   1.668   8.032 -0.1823 -0.0237 -0.4695
 6322W        W 9841   2.545   2.595   1.780  0.4556 -0.0247  0.0041
 6323W        W 9842   0.750   9.132   3.830  0.2375 -0.0183  0.0158
 6324W        W 9843   4.591   9.009   3.295 -0.2007 -0.5277  0.3752
 6325W        W 9844   9.818   5.557  11.424  0.3406 -0.5150  0.1489
 6326W        W 9845   2.702   2.538   4.728  0.1100  0.1296 -0.0299
 6327W        W 9846   9.095   0.678   3.488  0.0522 -0.2052  0.0898
 6328W        W 9847   2.938   9.623  12.075 -0.2167 -0.0485 -0.2833
 6329W        W 9848   6.051   8.822   0.297 -0.0256 -0.1855 -0.4931
 6330W        W 9849   8.303   3.908   1.240 -0.0961  0.0886  0.1808
 6331W        W 9850   4.468   5.261   1.159 -0.0199 -0.1376 -0.1890
 6332W        W 9851   2.866   4.254  11.267 -0.0487 -0.2272  0.0662
 6333W        W 9852   0.921   4.201   0.092 -0.1135  0.0286  0.1350
 6334W        W 9853   6.900   3.932   8.570 -0.1159  0.0889  0.2018
 6335W        W 9854   8.380   2.780  10.456 -0.2033  0.0915  0.2250
 6336W        W 9855   5.991   8.828   3.737  0.0505 -0.1302 -0.1236
 6337W        W 9856   4.482   2.537   4.107 -0.1101 -0.0385  0.0437
 6338W        W 9857   7.612   4.068  10.558 -0.0598 -0.0671  0.0640
 6339W        W 9858   6.264   3.932   1.490  0.1843 -0.1190  0.1587
 6340W        W 9859   9.562   0.747   9.353  0.1615  0.0517  0.1346
 6341W        W 9860   2.870   5.403   0.990  0.1218 -0.2389 -0.1572
 6342W        W 9861   2.173   9.702  11.118  0.0446  0.3943  0.1708
 6343W        W 9862   6.328   8.955  10.985 -0.2772  0.1082  0.1089
 6344W        W 9863   9.526   1.311  12.108 -0.1704 -0.0170  0.1015
 6345W        W 9864   9.318   9.204   2.576  0.1868 -0.0495  0.3207
 6346W        W 9865   2.527   6.894   2.397 -0.0605 -0.0787 -0.2095
 6347W        W 9866   5.337   2.624   9.562 -0.0561  0.0330 -0.0123
 6348W        W 9867   1.598   9.865  11.647 -0.1624 -0.2037  0.0805
 6349W        W 9868   8.667   0.943   5.818 -0.1051 -0.0063  0.1583
 6350W        W 9869   8.190   3.303   9.601  0.0233  0.0970 -0.2634
 6351W        W 9870   9.310   7.925   3.163 -0.3631 -0.0858 -0.1757
 6352W        W 9871   4.972   4.735   4.427 -0.0607  0.2565  0.0116
 6353W        W 9872   6.970   6.633   3.098 -0.2014 -0.1488 -0.2293
 6354W        W 9873   6.555   4.390   0.272 -0.0627 -0.4052 -0.1502
 6355W        W 9874   5.923   9.785   8.784 -0.0745 -0.0248 -0.2552
 6356W        W 9875   4.572   5.746   2.530 -0.2336  0.3528  0.0471
 6357W        W 9876   2.822   5.702   1.532 -0.2092 -0.0438 -0.3001
 6358W        W 9877   9.035   7.883  11.099 -0.1236  0.2805 -0.2587
 6359W        W 9878   9.208   0.904   1.228 -0.0667 -0.0680  0.0273
 6360W        W 9879   4.897   9.639  11.238 -0.0089  0.1374  0.2563
 6361W        W 9880   2.439   3.119   1.791  0.1635  0.0759 -0.1151
 6362W        W 9881   5.749   2.660   3.662  0.2429  0.1661  0.2111
 6363W        W 9882   0.100   8.392   0.048  0.0497  0.1922 -0.1471
 6364W        W 9883   2.460   1.861  11.142  0.0205  0.0820 -0.1662
 6365W        W 9884   5.855   7.938   2.897 -0.0028 -0.0023  0.3062
 6366W        W 9885   3.403   8.181   8.886  0.0327  0.0724  0.0800
 6367W        W 9886   5.429   7.223  10.646 -0.0101 -0.0586  0.0881
 6368W        W 9887   2.012   3.576   8.950 -0.0105  0.0147  0.0715
 6369W        W 9888   1.855   2.026   2.858 -0.0803 -0.0379 -0.0025
 6370W        W 9889   2.388   1.072  10.461  0.2178 -0.3610 -0.1835
 6371W        W 9890   9.069   3.729   1.365  0.1007 -0.3077 -0.1766
 6372W        W 9891   7.535   4.269  11.418 -0.2010 -0.0227 -0.1569
 6373W        W 9892   1.101   3.784  11.973  0.1086  0.0035 -0.3848
 6374W        W 9893   6.662   0.330   1.193 -0.0468 -0.1253  0.0586
 6375W        W 9894   1.375   0.232   1.858  0.0354 -0.0831  0.0095
 6376W        W 9895   1.238   8.481   2.615  0.5150  0.1971  0.1128
 6377W        W 9896   3.226   7.851   3.930 -0.1447 -0.0934  0.2039
 6378W        W 9897   8.281   3.490   9.171 -0.1694 -0.0385  0.0206
 6379W        W 9898   1.859   2.329   2.511  0.0489  0.0584  0.1513
 6380W        W 9899   2.490   2.789   5.463  0.0113 -0.3927 -0.0539
 6381W        W 9900   2.891   3.288   1.896  0.3026 -0.3526 -0.0629
 6382W        W 9901   1.627   3.545   0.227 -0.0549 -0.1413 -0.1954
 6383W        W 9902   7.274   5.912   0.738 -0.0617 -0.1447 -0.0424
 6384W        W 9903   0.642   7.934  11.760 -0.0271 -0.2657 -0.1754
 6385W        W 9904   2.788   1.659   4.294 -0.0097  0.2402 -0.0011
 6386W        W 9905   2.631   8.704   2.972  0.1174  0.5701  0.2736
 6387W        W 9906   7.658   7.478   4.666  0.1952 -0.0581  0.0413
 6388W        W 9907   9.157   6.335   9.602 -0.3881  0.1747  0.0261
 6389W        W 9908   4.540   0.600   0.536 -0.0988  0.0364  0.0440
 6390W        W 9909   4.542   0.628  10.966 -0.2200  0.0444  0.0169
 6391W        W 9910   7.960   4.832   0.016 -0.0434  0.1135  0.0435
 6392W        W 9911   6.249   5.396   4.215 -0.0421  0.1054 -0.0519
 6393W        W 9912   8.237   2.177  11.112 -0.1215 -0.3804 -0.5203
 6394W        W 9913   3.778   1.684   2.537 -0.0587 -0.0486  0.1640
 6395W        W 9914   1.170   5.139   1.964 -0.1287 -0.1469  0.1126
 6396W        W 9915   2.880   6.251  11.842 -0.2480 -0.1640 -0.0896
 6397W        W 9916   3.274   0.936  11.315  0.1438  0.2499 -0.2620
 6398W        W 9917   5.944   0.943  10.525  0.1388  0.1273  0.4570
 6399W        W 9918   0.383   5.708   1.902  0.2901  0.0978 -0.1128
 6400W        W 9919   4.895   8.530   2.069  0.0503  0.1672 -0.2194
 6401W        W 9920   6.592   1.492   3.653 -0.1532  0.0397  0.0326
 6402W        W 9921   3.133   3.441   1.296  0.3566 -0.2108  0.2801
 6403W        W 9922   5.554   0.917   4.061 -0.1143  0.0705  0.0945
 6404W        W 9923   8.065   1.939   1.148 -0.3222  0.1461  0.0391
 6405W        W 9924   8.944   9.273   2.907 -0.0966  0.1109 -0.1699
 6406W        W 9925   2.469   9.732   0.104  0.2638  0.0018 -0.0715
 6407W        W 9926   8.593   7.368   2.467 -0.1208 -0.1021  0.0636
 6408W        W 9927   9.340   7.597  10.689  0.0455 -0.0344 -0.1504
 6409W        W 9928   1.077   1.518   2.502  0.0858  0.1308  0.1039
 6410W        W 9929   8.761   5.782   8.840  0.0851 -0.0908 -0.0572
 6411W        W 9930   2.440   9.031  11.686 -0.0906 -0.1021  0.1657
 6412W        W 9931   4.912   4.132   2.549 -0.0794  0.0987  0.2265
 6413W        W 9932   3.910   9.363   2.639 -0.0740 -0.1487 -0.0261
 6414W        W 9933   6.572   4.642   0.992  0.1261  0.5240  0.1629
 6415W        W 9934   2.734   1.253   4.613  0.1513  0.2130  0.1060
 6416W        W 9935   1.555   2.930   9.203 -0.0180 -0.0786  0.2795
 6417W        W 9936   7.597   7.671   0.131 -0.0594  0.0535 -0.4268
 6418W        W 9937   5.310   0.858  11.800  0.0203 -0.3656  0.1375
 6419W        W 9938   9.685   1.491   3.169 -0.0712 -0.2319 -0.1158
 6420W        W 9939   8.247   2.451   9.937  0.2510 -0.0083  0.0417
 6421W        W 9940   7.277   3.117  11.501 -0.2242 -0.0628  0.1183
 6422W        W 9941   8.721   8.162   9.207 -0.1740 -0.1935  0.3029
 6423W        W 9942   9.595   1.699   0.918  0.0661 -0.1236  0.1784
 6424W        W 9943   6.981   6.792   4.229 -0.3408 -0.1094  0.1013
 6425W        W 9944   8.438   6.017   0.623 -0.3811  0.0526 -0.0008
 6426W        W 9945   5.376   8.401  11.216 -0.2867 -0.0705  0.2167
 6427W        W 9946   3.334   1.478   8.741 -0.4094 -0.1499  0.0218
 6428W        W 9947   6.615   7.175   8.908  0.2122 -0.0167 -0.1188
 6429W        W 9948   8.448   6.935   9.232 -0.3581  0.2807  0.0228
 6430W        W 9949   4.201   4.168   1.349 -0.0809 -0.1606  0.0788
 6431W        W 9950   4.602   5.615   3.561  0.3801 -0.0721 -0.5792
 6432W        W 9951   5.743   4.569   3.189  0.0659  0.0145  0.1915
 6433W        W 9952   1.059   5.533   0.016  0.1644 -0.0121  0.2929
 6434W        W 9953   9.360   7.901   0.360 -0.0258  0.2482 -0.1514
 6435W        W 9954   2.186   1.600  10.135 -0.0964 -0.1246 -0.0445
 6436W        W 9955   5.820   0.926  11.622  0.3202 -0.0156 -0.2045
 6437W        W 9956   4.505   9.694   4.072  0.0261 -0.3313 -0.0863
 6438W        W 9957   6.513   3.098   2.060 -0.1940  0.1183 -0.0031
 6439W        W 9958   7.537   0.045   9.211  0.1992  0.1157  0.0179
 6440W        W 9959   4.016   2.680   4.551 -0.0108 -0.0996 -0.0567
 6441W        W 9960   6.441   4.616  11.096 -0.1925 -0.0635  0.2063
 6442W        W 9961   3.599   6.865   1.205  0.0401  0.0356 -0.1278
 6443W        W 9962   0.729   2.172   9.915 -0.1122 -0.0900 -0.0397
 6444W        W 9963   1.765   2.187   1.991 -0.0745 -0.2173 -0.2101
 6445W        W 9964   1.934   8.941  11.932 -0.0469  0.3179  0.3145
 6446W        W 9965   4.833   4.115   4.407 -0.3426 -0.2153  0.2563
 6447W        W 9966   5.647   7.032  11.475 -0.1533 -0.0487  0.0840
 6448W        W 9967   5.924   8.293   3.598  0.1846  0.1481 -0.1512
 6449W        W 9968   2.620   0.124   2.360 -0.2441  0.0114 -0.0276
 6450W        W 9969   4.479   5.417  11.784 -0.3045  0.0013 -0.3128
 6451W        W 9970   0.349   6.296  11.114  0.2084  0.0342  0.2690
 6452W        W 9971   7.895   8.199   8.716  0.1866  0.4713  0.0078
 6453W        W 9972   5.847   7.887   2.398 -0.2027 -0.0181  0.4871
 6454W        W 9973   3.743   5.138   9.701  0.1311 -0.1926  0.1736
 6455W        W 9974   7.756   6.607   3.637  0.0965  0.0547 -0.1829
 6456W        W 9975   4.746   1.647  11.958  0.2241 -0.0536  0.1363
 6457W        W 9976   5.364   9.727   3.920  0.3582 -0.2250  0.1317
 6458W        W 9977   0.666   8.111   2.210  0.0584 -0.0671  0.1591
 6459W        W 9978   9.488   1.225  11.636  0.1755 -0.0262 -0.0038
 6460W        W 9979   1.507   8.550  12.036  0.1869 -0.2347  0.2540
 6461W        W 9980   1.184   9.642   3.080 -0.0146 -0.1982  0.3934
 6462W        W 9981   0.822   1.605   2.925 -0.3076 -0.0195  0.1313
 6463W        W 9982   3.990   3.464  11.716 -0.0406  0.3370 -0.0850
 6464W        W 9983   9.754   4.979   3.609  0.0288  0.0754 -0.1140
 6465W        W 9984   7.499   6.197   9.765 -0.1336 -0.0937 -0.0943
 6466W        W 9985   6.058   5.416   3.261  0.3948 -0.0595 -0.0086
 6467W        W 9986   6.375   6.813  10.086  0.1263  0.1475  0.1160
 6468W        W 9987   7.569   5.637   2.830 -0.3532 -0.1193 -0.1413
 6469W        W 9988   2.407   3.561   2.077  0.2398  0.1726  0.2055
 6470W        W 9989   4.637   2.461   0.674  0.0436 -0.2120  0.0641
 6471W        W 9990   1.565   6.721   0.695  0.0827  0.0563  0.0758
 6472W        W 9991   0.530   3.218   3.432 -0.1336  0.1502  0.3751
 6473W        W 9992   7.032   9.735   0.501  0.3128  0.1942  0.0493
 6474W        W 9993   6.482   5.159   3.329 -0.0317 -0.1541 -0.0796
 6475W        W 9994   2.117   5.984  10.362 -0.0435  0.0717  0.1142
 6476W        W 9995   8.111   6.628   1.787 -0.0962 -0.0337 -0.0364
 6477W        W 9996   8.108   6.368  10.680  0.1148 -0.2901  0.0441
 6478W        W 9997   8.919   8.138   1.635  0.0655  0.2661 -0.1054
 6479W        W 9998   2.739   4.424   4.119  0.0454 -0.0638 -0.0645
 6480W        W 9999   6.528   2.411  10.335  0.0333 -0.1529  0.2700
 6481W        W10000   3.046   7.927  12.096 -0.0822  0.0232  0.1664
 6482W        W10001   4.126   0.573   9.274 -0.0063  0.1062 -0.2790
 6483W        W10002   6.679   0.045   9.641  0.1199 -0.3455  0.4048
 6484W        W10003   2.311   7.689   1.096 -0.1124 -0.0159 -0.0160
 6485W        W10004   8.085   4.646   4.044  0.3653 -0.2606  0.1174
 6486W        W10005   6.245   7.550  10.993  0.0766  0.0474  0.1171
 6487W        W10006   8.385   1.499   1.406 -0.1820 -0.2200 -0.1105
 6488W        W10007   3.241   7.044  11.771  0.0140  0.1258  0.1087
 6489W        W10008   0.471   8.863   0.627  0.0424 -0.0206  0.1364
 6490W        W10009   2.168   5.503   0.312  0.0774  0.0737  0.3735
 6491W        W10010   6.997   5.440   4.495 -0.2050 -0.2165 -0.0357
 6492W        W10011   9.607   8.505   8.740  0.1902 -0.0386  0.0004
 6493W        W10012   1.417   6.608  11.364 -0.2781  0.3735  0.1956
 6494W        W10013   2.552   8.339  10.104 -0.2668  0.1308  0.3125
 6495W        W10014   6.681   3.432   2.383 -0.2063  0.0581  0.1601
 6496W        W10015   1.293   6.106  11.431 -0.0178  0.0213  0.2560
 6497W        W10016   4.795   0.064   2.212 -0.1573 -0.2388 -0.2577
 6498W        W10017   1.041   6.246   3.400 -0.1976  0.1684 -0.0860
 6499W        W10018   2.285   2.198   9.389  0.1498 -0.4195  0.0975
 6500W        W10019   1.938   0.803  10.248 -0.3204  0.0303 -0.2087
 6501W        W10020   1.028   8.203   0.910 -0.0327  0.2404 -0.0255
 6502W        W10021   6.145   4.223  10.793 -0.2407 -0.0295 -0.2814
 6503W        W10022   5.068   7.207  11.847  0.3199 -0.1444 -0.0940
 6504W        W10023   8.526   6.322   2.094 -0.0053 -0.1296  0.0256
 6505W        W10024   6.987   6.773  11.461 -0.0786 -0.2605 -0.1352
 6506W        W10025   2.847   2.240  11.100 -0.0127 -0.1801  0.0351
 6507W        W10026   0.956   7.858   1.262  0.1561 -0.5972 -0.3202
 6508W        W10027   4.473   3.853   1.063  0.3123  0.1537  0.1951
 6509W        W10028   7.385   3.185   9.466 -0.1351 -0.2145  0.1769
 6510W        W10029   3.422   4.208  11.232 -0.2796  0.2059  0.3611
 6511W        W10030   9.652   3.234   1.703  0.0894 -0.2131  0.2906
 6512W        W10031   3.177   5.825   4.359  0.0759  0.0683 -0.3140
 6513W        W10032   1.937   6.308   0.837  0.1074 -0.1088  0.0497
 6514W        W10033   8.952   4.476  10.689 -0.0127 -0.0165 -0.3540
 6515W        W10034   4.197   0.928   4.036 -0.0241  0.1681  0.0289
 6516W        W10035   3.032   7.410  10.465  0.1244 -0.2322  0.0686
 6517W        W10036   5.872   3.180   0.457 -0.2728 -0.1135 -0.1172
 6518W        W10037   1.067   0.502  11.444  0.0542  0.3648  0.0001
 6519W        W10038   0.909   6.714  10.551  0.1587 -0.0268 -0.2462
 6520W        W10039   5.495   9.816  10.524 -0.0984  0.1982  0.1599
 6521W        W10040   5.346   7.505  11.498 -0.0997 -0.0368  0.2491
 6522W        W10041   5.428   8.114   0.851 -0.0334 -0.2303  0.3751
 6523W        W10042   1.426   8.729   0.421 -0.0186 -0.1514  0.3028
 6524W        W10043   8.880   1.702   1.467  0.1715 -0.1801  0.1219
 6525W        W10044   8.400   0.555   8.262  0.1210 -0.2313 -0.0721
 6526W        W10045   4.117   3.093  11.421  0.1469  0.0960  0.1073
 6527W        W10046   8.894   6.225   0.451  0.0802  0.0423  0.0323
 6528W        W10047   9.050   2.371   2.326 -0.0107  0.1360  0.0973
 6529W        W10048   8.508   4.439   9.532 -0.3461  0.3876 -0.3712
 6530W        W10049   3.547   4.539   2.291  0.2457 -0.0393 -0.0877
 6531W        W10050   7.937   7.807   0.651 -0.0957  0.1967  0.0952
 6532W        W10051   7.119   5.866   0.222 -0.1302 -0.0052 -0.2437
 6533W        W10052   7.052   7.185   3.052  0.1349 -0.0964  0.2878
 6534W        W10053   8.868   2.311   8.228  0.1825 -0.0522 -0.0609
 6535W        W10054   7.688   8.650   8.547 -0.1923  0.0336 -0.0479
 6536W        W10055   5.188   4.533   2.581 -0.1332  0.0443 -0.1613
 6537W        W10056   5.678   2.180   3.854 -0.3508 -0.0212  0.3450
 6538W        W10057   6.433   5.413   3.738 -0.1818  0.0438 -0.0970
 6539W        W10058   7.059   9.083   1.506 -0.1349  0.3495 -0.2079
 6540W        W10059   9.293   3.131   0.245  0.1144 -0.3046  0.0286
 6541W        W10060   4.886   9.565   3.781 -0.0675 -0.1170  0.2439
 6542W        W10061   6.947   0.222  10.325 -0.1383  0.2042  0.2855
 6543W        W10062   8.297   4.323   0.635  0.2940 -0.1880  0.0212
 6544W        W10063   7.078   3.044   9.064 -0.0527 -0.0270  0.2132
 6545W        W10064   9.684   9.792   1.080  0.2650  0.0643 -0.1339
 6546W        W10065   8.375   6.014   8.102 -0.2893 -0.2577  0.2899
 6547W        W10066   2.988   0.660   8.790 -0.5842 -0.0808  0.1819
 6548W        W10067   9.091   2.611   4.210 -0.2533  0.2305  0.1148
 6549W        W10068   9.439   2.144   1.904 -0.1217  0.1434  0.1025
 6550W        W10069   6.710   5.370   1.077  0.1580 -0.2703 -0.0600
 6551W        W10070   1.594   5.207   2.640 -0.0013 -0.0049 -0.2712
 6552W        W10071   0.952   4.275   3.005  0.2007 -0.0552 -0.3005
 6553W        W10072   8.522   8.877   1.214 -0.1716 -0.0732  0.3966
 6554W        W10073   2.737   5.850   3.776 -0.1472  0.1399 -0.1331
 6555W        W10074   6.929   0.431  11.974 -0.0520 -0.0746 -0.1653
 6556W        W10075   1.662   3.935   4.435  0.0856 -0.0849  0.2732
 6557W        W10076   2.493   2.507  10.704  0.2550 -0.1202 -0.2739
 6558W        W10077   8.064   4.901   1.359 -0.0145  0.1487 -0.1313
 6559W        W10078   4.962   3.526   9.882 -0.0817 -0.1430 -0.2831
 6560W        W10079   6.606   5.754   1.454 -0.0055 -0.0388 -0.1560
 6561W        W10080   5.672   6.894  10.176  0.0829  0.1380  0.0612
 6562W        W10081   5.606   1.746   0.966  0.2722 -0.3965 -0.2597
 6563W        W10082   3.815   6.150   3.490  0.0778  0.0130 -0.3644
 6564W        W10083   6.549   2.508   0.211  0.1716  0.1377  0.1176
 6565W        W10084   6.551   5.244   0.589 -0.1116 -0.2648  0.0265
 6566W        W10085   6.249   9.583   9.711 -0.1895 -0.0940 -0.2368
 6567W        W10086   4.740   4.745  11.998  0.0964  0.1089 -0.3239
 6568W        W10087   0.755   1.074   2.783 -0.0323 -0.3131 -0.3905
 6569W        W10088   7.609   3.214   2.845  0.0178  0.2050  0.0199
 6570W        W10089   4.907   0.554  10.648  0.0592  0.2204 -0.1931
 6571W        W10090   7.444   6.746   3.036  0.0244  0.2111  0.0207
 6572W        W10091   9.412   8.441   0.137 -0.4125 -0.2118 -0.2690
 6573W        W10092   9.424   0.013  11.749  0.2102 -0.3774  0.0371
 6574W        W10093   5.266   6.254   2.813 -0.0944 -0.1397 -0.3175
 6575W        W10094   2.519   5.252   4.580  0.1543  0.1218  0.0485
 6576W        W10095   3.306   5.369   4.117  0.2115  0.1533  0.0735
 6577W        W10096   6.787   0.751   3.329  0.0051 -0.0290  0.2478
 6578W        W10097   5.651   5.062   3.329  0.1890  0.2663 -0.0279
 6579W        W10098   5.657   9.877  11.786 -0.1011 -0.3938 -0.1186
 6580W        W10099   1.070   7.192   1.484  0.0835  0.2885  0.1256
 6581W        W10100   8.062   7.547   1.347  0.0666  0.1748  0.1219
 6582W        W10101   7.154   9.740   0.033 -0.2161  0.1001  0.4688
 6583W        W10102   3.288   8.213   2.139 -0.2122  0.0186 -0.1272
 6584W        W10103   4.559   5.215   9.355  0.2429 -0.0334 -0.1253
 6585W        W10104   2.272   1.140   1.480  0.1727  0.2933  0.1458
 6586W        W10105   3.720   6.411   2.805 -0.1222  0.0600 -0.2054
 6587W        W10106   5.641   9.136   1.545 -0.0453 -0.1382 -0.1625
 6588W        W10107   5.003   0.048   2.668 -0.0394 -0.2613  0.1705
 6589W        W10108   5.562   8.835  11.560 -0.1755 -0.1777 -0.0746
 6590W        W10109   0.157   0.923  10.258 -0.2808 -0.0085  0.2800
 6591W        W10110   0.048   7.499   2.293 -0.2644 -0.0375 -0.0598
 6592W        W10111   2.392   5.300   0.793 -0.1177  0.0192 -0.0637
 6593W        W10112   6.642   7.644   9.670  0.1869 -0.0517 -0.3122
 6594W        W10113   8.059   7.334   2.505  0.0518 -0.2343 -0.2657
 6595W        W10114   3.754   5.626   0.525  0.1650 -0.0016 -0.1280
 6596W        W10115   3.635   3.795   0.615 -0.0190  0.0428  0.1753
 6597W        W10116   3.841   8.918   2.373  0.0802  0.1700 -0.2415
 6598W        W10117   4.595   4.988  11.535  0.0048 -0.0575 -0.1113
 6599W        W10118   9.551   8.033  11.937  0.1497  0.3020 -0.0020
 6600W        W10119   0.248   2.656  11.886  0.3704 -0.1065  0.1171
 6601W        W10120   2.509   6.098   1.543  0.0083  0.3723  0.1269
 6602W        W10121   6.904   9.355   0.804 -0.4895 -0.0497 -0.1937
 6603W        W10122   6.455   8.110   0.881 -0.1324  0.0974  0.1594
 6604W        W10123   5.610   2.084  12.035 -0.0907  0.0599  0.1764
 6605W        W10124   3.457   2.632   9.648  0.0075  0.2892 -0.0780
 6606W        W10125   9.246   9.678   1.313 -0.0200  0.0597 -0.4707
 6607W        W10126   4.814   8.922   2.360 -0.2614  0.0895 -0.0881
 6608W        W10127   1.799   6.717   1.686 -0.3473  0.2943  0.0231
 6609W        W10128   1.834   1.294   1.282  0.3303  0.0876  0.1383
 6610W        W10129   2.084   1.390   2.349  0.0217 -0.1443  0.3167
 6611W        W10130   7.610   6.867  10.567  0.1018 -0.1892  0.0900
 6612W        W10131   8.674   7.119  10.348  0.0863 -0.0424  0.5047
 6613W        W10132   6.762   7.632   3.182 -0.1277  0.1613 -0.1430
 6614W        W10133   8.065   8.834  11.339 -0.0702 -0.0682 -0.1379
 6615W        W10134   1.537   9.254   2.995  0.1048 -0.3639  0.4524
 6616W        W10135   4.088   0.541   1.829  0.0504  0.0834 -0.1662
 6617W        W10136   7.911   3.520   2.011 -0.0910 -0.1373  0.0712
 6618W        W10137   1.304   2.308   4.801 -0.1401  0.1864 -0.0388
 6619W        W10138   4.814   7.698  10.826  0.0423 -0.1599  0.2011
 6620W        W10139   1.320   6.903   8.425  0.1791  0.2661 -0.0624
 6621W        W10140   1.426   2.681  10.090  0.1207 -0.1773 -0.1953
 6622W        W10141   4.621   5.049  10.234  0.0900 -0.0488 -0.0789
 6623W        W10142   8.427   7.544   4.319 -0.1715 -0.1279 -0.4007
 6624W        W10143   9.870   2.882   9.135  0.1435 -0.0614  0.2951
 6625W        W10144   7.050   4.476   1.147  0.2770 -0.0670  0.1680
 6626W        W10145   3.325   4.169   8.704  0.4029  0.1485 -0.0399
 6627W        W10146   1.327   0.409  11.909  0.2589 -0.3407 -0.3029
 6628W        W10147   6.071   4.519   4.083 -0.0307 -0.0223 -0.2010
 6629W        W10148   0.794   3.551   1.697 -0.0611  0.0517 -0.0455
 6630W        W10149   7.479   0.469   2.751 -0.3186  0.0710  0.0049
 6631W        W10150   3.296   4.025   1.033 -0.1261  0.4279  0.1245
 6632W        W10151   0.278   4.931   1.776  0.3426  0.0464 -0.0052
 6633W        W10152   0.234   1.511  10.938  0.0109 -0.1386  0.3594
 6634W        W10153   3.170   8.396   3.722 -0.3259 -0.2148 -0.1035
 6635W        W10154   1.469   0.000  10.237  0.4819  0.0602 -0.1313
 6636W        W10155   6.686   9.438   0.164  0.0885  0.0106  0.1903
 6637W        W10156   2.767   8.418   9.031  0.1993 -0.0540 -0.0538
 6638W        W10157   6.149   9.788   3.589  0.2404  0.3084  0.1284
 6639W        W10158   3.836   8.310   0.137 -0.3565  0.0992  0.0202
 6640W        W10159   4.846   5.798   1.991  0.2642  0.2626 -0.1872
 6641W        W10160   0.565   5.022   1.306  0.5503 -0.0664 -0.1516
 6642W        W10161   8.977   9.555   3.786 -0.0662  0.0567 -0.1503
 6643W        W10162   1.919   1.090  11.460  0.1803  0.3380  0.0356
 6644W        W10163   5.467   6.250   0.739 -0.2853  0.2087  0.0399
 6645W        W10164   9.319   7.112  12.033 -0.1445 -0.2815 -0.0385
 6646W        W10165   4.539   1.209  11.727 -0.3897  0.2912  0.1346
 6647W        W10166   1.982   9.467   2.617  0.0192 -0.2647  0.2630
 6648W        W10167   3.063   0.516   3.000 -0.4580  0.1437  0.3283
 6649W        W10168   0.647   0.501   9.545  0.3097 -0.1958 -0.1243
 6650W        W10169   6.200   7.613   8.317  0.0380  0.1149  0.0334
 6651W        W10170   3.395   6.541   1.471  0.0301 -0.2127 -0.1013
 6652W        W10171   6.907   3.352   4.203 -0.0626  0.1067  0.2084
 6653W        W10172   9.152   0.171   3.301  0.0344  0.2071 -0.2317
 6654W        W10173   3.717   0.763   2.147 -0.1208  0.0899  0.2597
 6655W        W10174   9.659   9.847   3.479  0.0735  0.1565 -0.1182
 6656W        W10175   6.405   9.840   0.336  0.4275 -0.0409  0.0101
 6657W        W10176   0.365   2.349   3.136 -0.0017  0.2310 -0.0153
 6658W        W10177   7.015   7.368   9.335  0.0073 -0.1356 -0.0789
 6659W        W10178   3.607   6.817   9.390 -0.1671  0.0409  0.3017
 6660W        W10179   9.515   1.119   0.856 -0.0433  0.0781  0.0350
 6661W        W10180   1.600   5.109   3.155  0.2010 -0.2345  0.2735
 6662W        W10181   8.847   9.532   1.048 -0.2494 -0.2447 -0.0181
 6663W        W10182   1.225   4.143  10.687 -0.2301 -0.1406 -0.0643
 6664W        W10183   2.829   1.701   9.805 -0.2058 -0.2048 -0.1247
 6665W        W10184   1.265   6.855   1.795 -0.1345 -0.1172 -0.1485
 6666W        W10185   2.385   7.740  11.237  0.0017 -0.4330 -0.0748
 6667W        W10186   4.967   5.824  11.668  0.0354 -0.2099  0.0126
 6668W        W10187   6.343   7.114   1.508  0.0783  0.3387 -0.0662
 6669W        W10188   2.807   8.626   9.550  0.1877  0.3474 -0.3808
 6670W        W10189   1.082   6.707   2.405 -0.0102  0.2302 -0.0207
 6671W        W10190   4.790   0.644   3.246  0.0224 -0.1534 -0.0009
 6672W        W10191   2.903   9.190  10.430 -0.1792  0.2115  0.1331
 6673W        W10192   8.876   3.158   8.657  0.3818  0.2317  0.0044
 6674W        W10193   2.141   5.322  11.553  0.1457 -0.0101 -0.0189
 6675W        W10194   7.469   1.779   0.235  0.1664 -0.1448  0.2569
 6676W        W10195   8.046   7.448   0.298  0.1012 -0.1196 -0.1698
 6677W        W10196   4.690   2.041   1.654  0.0053 -0.2939  0.0366
 6678W        W10197   6.423   1.105   2.990  0.0314 -0.1595  0.2324
 6679W        W10198   7.463   4.808   1.199 -0.0012  0.1384  0.5282
 6680W        W10199   3.002   7.703   0.441 -0.0046 -0.3301 -0.3208
 6681W        W10200   4.187   8.794   8.875 -0.1141 -0.0837  0.2030
 6682W        W10201   5.725   6.546  10.784 -0.0927 -0.2447  0.2604
 6683W        W10202   0.920   4.925   3.597  0.1504  0.0980  0.3353
 6684W        W10203   4.416   4.677   3.211 -0.0207  0.2369 -0.0468
 6685W        W10204   6.393   7.342  10.003  0.0206 -0.4421  0.2045
 6686W        W10205   9.016   4.793   9.802 -0.1266 -0.1558 -0.0553
 6687W        W10206   6.264   1.551   2.608  0.0000 -0.1693  0.0620
 6688W        W10207   3.967   4.272   2.313  0.0438  0.0544  0.0371
 6689W        W10208   4.712   2.458  11.239  0.0070  0.0418 -0.1598
 6690W        W10209   6.068   1.104  10.006  0.1397 -0.1033 -0.1296
 6691W        W10210   4.047   1.896   9.208 -0.0053 -0.1991 -0.0590
 6692W        W10211   2.632   6.305   0.608 -0.2172  0.4099 -0.2327
 6693W        W10212   4.218   7.213   2.753  0.0541  0.2192 -0.3825
 6694W        W10213   8.696   2.323  11.866 -0.0997  0.0861  0.0361
 6695W        W10214   9.725   2.935   0.105  0.0704  0.2174 -0.2652
 6696W        W10215   8.640   7.710   3.580  0.3959  0.3492  0.3472
 6697W        W10216   3.113   2.305   2.912 -0.1857 -0.2413  0.2852
 6698W        W10217   2.227   0.467   3.628 -0.2854 -0.3010  0.1735
 6699W        W10218   5.682   0.343   9.542  0.0443 -0.1502  0.1445
 6700W        W10219   2.427   3.586   9.724  0.4606 -0.3520 -0.0738
 6701W        W10220   2.341   6.914   8.832 -0.0549  0.2175 -0.1525
 6702W        W10221   7.014   5.661   9.884 -0.0733 -0.0630 -0.3915
 6703W        W10222   7.216   4.150   0.164 -0.2714 -0.2959  0.1131
 6704W        W10223   8.797   4.107   1.189  0.1751  0.3801 -0.1099
 6705ION    NA+10224   0.769   7.510   4.873  0.1862 -0.3582 -0.1635
 6706ION    NA+10225   5.358   3.388   4.798  0.0611  0.0159 -0.0228
 6707ION    NA+10226   7.988   4.923   0.610 -0.1944  0.3180 -0.2135
 6708ION    NA+10227   2.074   8.414   3.087 -0.1103  0.0008  0.1139
 6709ION    NA+10228   8.394   1.853   1.747 -0.2160  0.2392  0.1165
 6710ION    NA+10229   3.955   7.211  10.231 -0.1216 -0.1763 -0.1507
 6711ION    NA+10230   3.762   0.932   9.248 -0.0482 -0.0503  0.0132
 6712ION    NA+10231   0.130   8.013   0.653 -0.2926 -0.2318 -0.0125
 6713ION    NA+10232   4.966   9.860   8.580 -0.0182  0.1106  0.1388
 6714ION    NA+10233   8.686   5.434   1.185  0.0249  0.3722 -0.0934
 6715ION    NA+10234   5.114   1.198   0.043  0.1190  0.2083  0.1448
 6716ION    NA+10235   3.934   3.469   8.172  0.2945  0.0593 -0.3069
 6717ION    NA+10236   5.707   9.222   8.107  0.1877 -0.0191 -0.1554
 6718ION    NA+10237   9.134   5.606   2.073 -0.0589 -0.0109 -0.2653
 6719ION    NA+10238   2.448   0.864   5.282  0.1945  0.0500 -0.5118
 6720ION    NA+10239   4.783   7.358   0.700  0.2385  0.0019  0.2836
 6721ION    NA+10240   4.184   5.533   1.471  0.0777 -0.0497 -0.1222
 6722ION    NA+10241   3.500   0.074   8.800 -0.0453  0.3486 -0.4018
 6723ION    NA+10242   8.346   0.693  10.484  0.1544 -0.0038 -0.1161
 6724ION    NA+10243   6.815   5.124   2.913 -0.2892  0.1333  0.1670
 6725ION    NA+10244   7.199   1.831   1.655 -0.1762 -0.1108 -0.2084
 6726ION    NA+10245   1.722   1.935   4.720  0.0690  0.0647  0.2949
 6727ION    NA+10246   8.392   3.187  11.354 -0.2681 -0.1168 -0.3389
 6728ION    NA+10247   7.946   8.052   3.542  0.1282  0.1664  0.0993
 6729ION    NA+10248   0.886   0.131   1.780 -0.1664 -0.1076 -0.1872
 6730ION    NA+10249   7.584   5.946   1.630  0.2839  0.2164 -0.0108
 6731ION    NA+10250   3.458   3.414   4.702  0.0124 -0.0266  0.0368
 6732ION    NA+10251   3.022   0.769  10.238 -0.3572 -0.2141 -0.0964
 6733ION    NA+10252   2.538   5.558   5.022 -0.1489  0.0046 -0.0177
 6734ION    NA+10253   7.298   5.837   3.315 -0.1686  0.1153  0.1824
 6735ION    NA+10254   2.499   8.679   0.209 -0.1300  0.3685  0.0800
 6736ION    NA+10255   0.575   8.081   9.670  0.0630  0.0480 -0.2229
 6737ION    NA+10256   1.400   1.236   0.447 -0.2699  0.1050 -0.0673
 6738ION    NA+10257   2.707   4.820   8.821  0.2875  0.2229 -0.1139
 6739ION    NA+10258   9.467   4.343   4.507  0.0586 -0.0433  0.0956
 6740ION    NA+10259   8.308   5.669   4.483 -0.1313  0.1955 -0.0721
 6741ION    NA+10260   3.796   8.556   4.441  0.3426 -0.0739 -0.0793
 6742ION    NA+10261   6.679   8.206   8.324  0.3098  0.1609  0.0454
 6743ION    NA+10262   7.900   4.309  11.988 -0.2445 -0.0422 -0.0307
 6744ION    NA+10263   3.628   9.301  10.932 -0.1425  0.0034  0.6610
 6745ION    NA+10264   3.078   5.957   3.396  0.4791  0.4015  0.0566
 6746ION    NA+10265   4.584   4.330   9.773 -0.2514  0.0200  0.1921
 6747ION    NA+10266   5.825   9.375   2.618  0.2230 -0.1148  0.0211
 6748ION    NA+10267   9.326   5.071   9.106  0.0038  0.2849  0.2559
 6749ION    NA+10268   8.026   6.829   1.244  0.0603  0.2052 -0.0765
 6750ION    NA+10269   0.584   5.086  12.043 -0.0623  0.1113  0.0797
 6751ION    NA+10270   9.391   3.259   3.117 -0.0983  0.0499 -0.0127
 6752ION    NA+10271   8.378   4.476   8.574 -0.0392  0.0050  0.2284
 6753ION    NA+10272   5.440   5.528   3.348  0.1375  0.2773  0.0412
 6754ION    NA+10273   8.774   5.236   2.617 -0.0598 -0.0148  0.0285
 6755ION    NA+10274   4.127   6.592   4.178 -0.0821 -0.2850  0.3454
 6756ION    NA+10275   9.220   7.715   8.448 -0.2583 -0.0784  0.1405
 6757ION    NA+10276   2.923   6.146   8.506 -0.1217  0.0147 -0.2069
 6758ION    NA+10277   0.003   5.807   9.779  0.0727 -0.0178 -0.0549
 6759ION    NA+10278   0.355   2.056   1.516 -0.0188  0.2326  0.0962
 6760ION    NA+10279   9.405   5.645   9.485  0.1875 -0.0808 -0.1761
 6761ION    NA+10280   4.282   8.043   8.245  0.0204  0.1683  0.4663
 6762ION    NA+10281   7.782   5.792   4.123  0.0628 -0.2159  0.0769
 6763ION    NA+10282   6.693   5.516   0.174 -0.1260 -0.1633  0.0301
 6764ION    NA+10283   1.500   0.784   2.897  0.1350  0.1552 -0.3381
 6765ION    NA+10284   9.229   3.277  10.602  0.0714  0.0232  0.0719
 6766ION    NA+10285   6.092   5.784   9.606 -0.2789  0.1734 -0.0193
 6767ION    NA+10286   1.729   8.926   9.315  0.1710 -0.0756  0.3249
 6768ION    NA+10287   0.466   1.297   2.265  0.0575 -0.0493 -0.0612
 6769ION    NA+10288   5.949   6.650   4.469  0.2707 -0.0067 -0.1002
 6770ION    NA+10289   0.009   3.308   4.089  0.1102 -0.1686  0.1874
 6771ION    NA+10290   7.803   0.703   3.089  0.4000 -0.0803 -0.3183
 6772ION    NA+10291   9.629   6.608   3.237  0.0363 -0.2947 -0.1003
 6773ION    NA+10292   9.435   4.141   1.989 -0.0282 -0.0530 -0.2597
 6774ION    NA+10293   7.272   6.345   0.077  0.0010  0.2740  0.3539
 6775ION    NA+10294   7.760   9.349   0.599 -0.0303 -0.2242 -0.1135
 6776ION    CL-10295   2.141   4.628   9.373 -0.1348  0.0828  0.2533
 6777ION    CL-10296   5.469   5.261   3.830  0.0602  0.2520 -0.3130
 6778ION    CL-10297   6.552   4.951   2.446 -0.1574  0.0607 -0.2990
 6779ION    CL-10298   2.926   5.642   9.299  0.1232 -0.0593 -0.1237
 6780ION    CL-10299   2.016   7.028   0.532 -0.2302  0.1762 -0.2877
 6781ION    CL-10300   0.003   7.956  10.065  0.0001 -0.1058 -0.0402
 6782ION    CL-10301   7.304   8.153   4.267  0.4860  0.1279  0.1532
 6783ION    CL-10302   3.445   8.843  10.896 -0.1274  0.1423 -0.0363
 6784ION    CL-10303   7.944   7.715   3.082 -0.1772  0.2402 -0.0595
 6785ION    CL-10304   3.316   2.143   9.584  0.1187  0.0659  0.0366
 6786ION    CL-10305   6.965   8.949   0.535  0.1198 -0.3093  0.0239
 6787ION    CL-10306   6.921   2.127   2.001  0.1206  0.2951  0.0539
 6788ION    CL-10307   2.071   2.974   0.686 -0.3724 -0.0696 -0.2887
 6789ION    CL-10308   3.472   8.813   3.937 -0.0266 -0.2637  0.0999
 6790ION    CL-10309   9.846   2.426   2.796  0.0026 -0.1815 -0.0336
 6791ION    CL-10310   7.365   3.602   4.005 -0.0645  0.0018  0.1060
 6792ION    CL-10311   8.856   4.743   2.577 -0.0711 -0.2564  0.0111
 6793ION    CL-10312   0.562   9.443   4.147  0.2568  0.0988  0.3137
 6794ION    CL-10313   9.502   6.853   3.710  0.1494 -0.0121  0.0674
 6795ION    CL-10314   4.709   3.663   1.971 -0.2294  0.0719  0.2771
 6796ION    CL-10315   6.585   4.552   4.131  0.3653  0.0578 -0.2062
 6797ION    CL-10316   8.526   1.384   3.159  0.1041 -0.4580  0.2151
 6798ION    CL-10317   6.924   1.851   3.275  0.0614 -0.1171 -0.3876
 6799ION    CL-10318   8.945   7.980  10.096 -0.0441 -0.0142  0.1532
 6800ION    CL-10319   1.006   0.920   0.725 -0.0083 -0.0356 -0.0954
 6801ION    CL-10320   4.902   0.911   9.025  0.0969  0.2430  0.4901
 6802ION    CL-10321   7.610   2.037   1.339  0.0489  0.0975 -0.1928
 6803ION    CL-10322   6.268   9.619   2.664  0.0868  0.4223  0.1552
 6804ION    CL-10323   9.122   5.585   2.603  0.0199 -0.1514  0.4053
 6805ION    CL-10324   8.574   5.186  10.262  0.3346 -0.2879  0.1899
 6806ION    CL-10325   4.043   8.580   9.280  0.0901  0.0273 -0.1139
 6807ION    CL-10326   8.923   5.968   1.378  0.2599  0.1685  0.2094
 6808ION    CL-10327   7.315   5.121   2.894  0.1589 -0.0988 -0.1519
 6809ION    CL-10328   4.855   0.025   9.077 -0.1283 -0.3639  0.0019
 6810ION    CL-10329   3.773   2.719   4.071 -0.1484  0.0235  0.1852
 6811ION    CL-10330   4.971   5.570   3.240 -0.2150  0.1939 -0.0080
 6812ION    CL-10331   4.940   4.810   5.031  0.2279 -0.1606 -0.0568
 6813ION    CL-10332   9.598   5.164  10.870  0.1901 -0.1869  0.1120
 6814ION    CL-10333   9.755   6.191   2.700 -0.3709  0.5661  0.0678
 6815ION    CL-10334   7.915   3.904  11.525  0.0197  0.2743  0.1505
 6816ION    CL-10335   5.602   8.798  10.369 -0.1753  0.1119 -0.2002
 6817ION    CL-10336   7.582   6.720  12.015  0.1929 -0.3992  0.0456
 6818ION    CL-10337   5.857   9.271  10.147 -0.3942  0.1223 -0.0908
 6819ION    CL-10338   4.343   4.183   9.323  0.1894  0.1247 -0.0367
 6820ION    CL-10339   6.324   5.661   0.869 -0.1843 -0.1082  0.0150
 6821ION    CL-10340   9.727   3.509   3.598 -0.0639  0.0335  0.0374
 6822ION    CL-10341   9.844   4.451   1.943 -0.0144  0.0355 -0.2911
 6823ION    CL-10342   7.045   6.860   0.690  0.1744 -0.2599  0.1096
 6824ION    CL-10343   7.527   6.132   2.946 -0.1631  0.1062 -0.0452
 6825ION    CL-10344   3.559   1.385  10.523 -0.2657  0.0260 -0.1203
 6826ION    CL-10345   9.548   5.105   9.540 -0.2226  0.1562 -0.1356
 6827ION    CL-10346   9.010   3.021   3.464 -0.2043  0.0515 -0.4267
 6828ION    CL-10347   8.543   4.527   1.063  0.2820 -0.1142 -0.1354
 6829ION    CL-10348   1.573   8.077   9.719  0.0117 -0.2247  0.1161
 6830ION    CL-10349   6.198   6.965   9.125 -0.1509  0.1870  0.0781
 6831ION    CL-10350   0.773   6.752   9.427 -0.2214 -0.1009  0.0710
 6832ION    CL-10351   0.668   1.103   9.982 -0.0525 -0.0170  0.0717
 6833ION    CL-10352   9.722   2.981  10.645 -0.0637 -0.0472 -0.0442
 6834ION    CL-10353   8.331   4.577  12.023  0.0651  0.2547 -0.1040
 6835ION    CL-10354   2.958   0.324   9.995  0.1153  0.0065  0.1247
 6836ION    CL-10355   3.284   2.877   0.138  0.1024  0.0945  0.0561
 6837ION    CL-10356   7.927   6.296   1.408  0.4712  0.0133  0.0421
 6838ION    CL-10357   3.750   3.655   4.289  0.1109  0.2132 -0.2478
 6839ION    CL-10358   2.275   9.534   3.659 -0.1808 -0.0387  0.0515
 6840ION    CL-10359   7.239   5.933  11.862  0.2769 -0.2392  0.2370
 6841ION    CL-10360   7.085   2.689  10.555 -0.2021  0.0126 -0.0517
 6842ION    CL-10361   9.128   5.527   9.076  0.2364  0.1369 -0.0981
 6843ION    CL-10362   8.628   3.559  10.996 -0.4840 -0.0047  0.0837
 6844ION    CL-10363   9.461   3.329   2.580 -0.1509 -0.0591  0.0582
 6845ION    CL-10364   6.336   5.021   1.323 -0.0745  0.1647  0.1190
 6846ION    CL-10365   3.798   7.014   9.831  0.0748 -0.3183 -0.0611
   9.87851   9.87851  12.11768
