Protein in INSANE! Membrane UpperLeaflet>POPC=1.0 LowerLeaflet>POPC=1.0
12676
    1AU     AUC    1   5.745   5.860   6.010
    1AU     AUC    2   6.008   5.859   5.854
    1AU     AUC    3   5.992   5.845   6.168
    1AU     AUC    4   5.496   5.866   5.844
    1AU     AUC    5   5.483   5.884   6.162
    1AU     AUC    6   5.599   6.120   6.006
    1AU     AUC    7   5.911   6.110   5.999
    1AU     AUC    8   5.581   5.616   6.019
    1AU     AUC    9   5.879   5.593   6.027
    1AU     AUC   10   5.739   5.707   6.268
    1AU     AUC   11   5.758   6.018   6.268
    1AU     AUC   12   5.743   5.700   5.749
    1AU     AUC   13   5.743   6.000   5.748
    1AU     AUC   14   6.262   5.852   5.698
    1AU     AUC   15   6.262   5.863   5.997
    1AU     AUC   16   6.247   5.848   6.317
    1AU     AUC   17   5.239   5.857   5.688
    1AU     AUC   18   5.227   5.888   5.993
    1AU     AUC   19   5.231   5.914   6.319
    1AU     AUC   20   5.458   6.386   6.005
    1AU     AUC   21   5.767   6.381   6.005
    1AU     AUC   22   6.061   6.370   6.005
    1AU     AUC   23   5.397   5.369   6.023
    1AU     AUC   24   5.706   5.340   6.011
    1AU     AUC   25   6.025   5.331   6.029
    1AU     AUC   26   5.737   5.556   6.518
    1AU     AUC   27   5.758   5.863   6.538
    1AU     AUC   28   5.765   6.171   6.527
    1AU     AUC   29   5.748   5.524   5.513
    1AU     AUC   30   5.763   5.838   5.486
    1AU     AUC   31   5.747   6.147   5.485
    1AU     AUC   32   6.002   5.697   6.431
    1AU     AUC   33   6.018   5.999   6.433
    1AU     AUC   34   6.022   5.688   5.596
    1AU     AUC   35   6.025   5.994   5.585
    1AU     AUC   36   5.476   5.742   6.435
    1AU     AUC   37   5.494   6.045   6.436
    1AU     AUC   38   5.502   5.698   5.577
    1AU     AUC   39   5.494   6.007   5.582
    1AU     AUC   40   6.166   6.118   5.837
    1AU     AUC   41   6.180   6.093   6.163
    1AU     AUC   42   5.334   6.125   5.851
    1AU     AUC   43   5.342   6.151   6.172
    1AU     AUC   44   6.159   5.584   5.870
    1AU     AUC   45   6.134   5.566   6.172
    1AU     AUC   46   5.320   5.612   5.851
    1AU     AUC   47   5.317   5.639   6.194
    1AU     AUC   48   5.604   6.283   6.278
    1AU     AUC   49   5.921   6.282   6.252
    1AU     AUC   50   5.546   5.453   6.264
    1AU     AUC   51   5.865   5.434   6.278
    1AU     AUC   52   5.595   6.274   5.743
    1AU     AUC   53   5.912   6.259   5.734
    1AU     AUC   54   5.568   5.453   5.747
    1AU     AUC   55   5.897   5.436   5.770
    1AU    AUSL   56   6.261   5.732   6.703
    1AU    AUSL   57   6.014   5.371   6.626
    1AU     AUL   58   6.169   5.302   6.984
    1AU       S   59   6.369   5.090   6.608
    1AU     LIG   60   6.172   4.777   6.871
    1AU     LIG   61   6.355   4.529   7.210
    1AU     LIG   62   6.581   4.202   7.461
    1AU     LIG   63   6.694   3.963   7.855
    1AU     LIG   64   6.715   3.822   8.315
    1AU     LIG   65   6.911   3.611   8.689
    1AU       S   66   6.325   5.670   6.785
    1AU     LIG   67   6.588   5.526   7.139
    1AU     LIG   68   6.659   5.421   7.611
    1AU     LIG   69   6.942   5.419   8.016
    1AU     LIG   70   7.293   5.464   8.359
    1AU     LIG   71   7.635   5.608   8.673
    1AU     LIG   72   7.897   5.569   9.067
    1AU    AUSL   73   5.860   5.696   6.826
    1AU    AUSL   74   5.665   6.061   6.791
    1AU     AUL   75   5.818   6.022   7.204
    1AU       S   76   5.903   5.663   6.968
    1AU     LIG   77   5.878   5.506   7.376
    1AU     LIG   78   6.124   5.279   7.737
    1AU     LIG   79   6.200   5.042   8.168
    1AU     LIG   80   6.218   4.819   8.610
    1AU     LIG   81   6.377   4.692   9.049
    1AU     LIG   82   6.504   4.797   9.498
    1AU       S   83   5.413   5.820   7.154
    1AU     LIG   84   5.270   5.724   7.600
    1AU     LIG   85   5.072   5.637   8.026
    1AU     LIG   86   4.997   5.737   8.482
    1AU     LIG   87   5.062   6.034   8.862
    1AU     LIG   88   4.960   6.292   9.250
    1AU     LIG   89   4.706   6.480   9.609
    1AU    AUSL   90   6.066   6.093   6.788
    1AU    AUSL   91   6.383   6.062   6.493
    1AU     AUL   92   6.477   6.008   6.997
    1AU       S   93   6.091   6.188   6.886
    1AU     LIG   94   6.241   6.361   7.281
    1AU     LIG   95   6.384   6.454   7.748
    1AU     LIG   96   6.479   6.654   8.193
    1AU     LIG   97   6.547   6.822   8.668
    1AU     LIG   98   6.666   6.887   9.149
    1AU     LIG   99   6.632   6.816   9.628
    1AU       S  100   6.628   6.079   6.548
    1AU     LIG  101   6.964   6.091   6.855
    1AU     LIG  102   7.210   6.324   7.201
    1AU     LIG  103   7.478   6.624   7.477
    1AU     LIG  104   7.744   6.757   7.869
    1AU     LIG  105   8.166   6.821   8.130
    1AU     LIG  106   8.576   6.950   8.372
    1AU    AUSL  107   6.294   5.883   5.385
    1AU    AUSL  108   6.063   6.274   5.339
    1AU     AUL  109   6.422   6.225   4.966
    1AU       S  110   6.339   5.909   5.238
    1AU     LIG  111   6.606   5.794   4.822
    1AU     LIG  112   6.631   5.577   4.424
    1AU     LIG  113   6.794   5.491   3.985
    1AU     LIG  114   7.195   5.538   3.707
    1AU     LIG  115   7.597   5.644   3.448
    1AU     LIG  116   7.731   5.686   2.991
    1AU       S  117   6.055   6.326   5.172
    1AU     LIG  118   6.305   6.698   5.069
    1AU     LIG  119   6.674   6.724   4.773
    1AU     LIG  120   6.981   6.887   4.421
    1AU     LIG  121   7.201   7.047   4.018
    1AU     LIG  122   7.344   7.402   3.713
    1AU     LIG  123   7.474   7.868   3.640
    1AU    AUSL  124   6.039   5.572   5.218
    1AU    AUSL  125   6.374   5.513   5.533
    1AU     AUL  126   6.460   5.500   5.187
    1AU       S  127   6.450   5.082   5.379
    1AU     LIG  128   6.568   4.903   4.969
    1AU     LIG  129   6.793   4.542   4.764
    1AU     LIG  130   7.047   4.300   4.437
    1AU     LIG  131   7.446   4.334   4.155
    1AU     LIG  132   7.798   4.438   3.846
    1AU     LIG  133   8.178   4.290   3.607
    1AU       S  134   6.132   5.774   4.962
    1AU     LIG  135   6.231   5.378   4.750
    1AU     LIG  136   6.301   5.201   4.310
    1AU     LIG  137   6.390   5.175   3.833
    1AU     LIG  138   6.402   5.160   3.337
    1AU     LIG  139   6.386   5.062   2.844
    1AU     LIG  140   6.602   5.017   2.399
    1AU    AUSL  141   5.884   5.918   5.392
    1AU    AUSL  142   5.636   5.664   5.183
    1AU     AUL  143   5.833   5.437   5.082
    1AU       S  144   5.593   5.758   4.850
    1AU     LIG  145   5.491   5.390   4.603
    1AU     LIG  146   5.256   5.213   4.209
    1AU     LIG  147   5.092   4.971   3.805
    1AU     LIG  148   4.996   4.805   3.348
    1AU     LIG  149   4.834   4.902   2.897
    1AU     LIG  150   4.692   5.135   2.486
    1AU       S  151   6.038   5.884   5.009
    1AU     LIG  152   6.151   5.823   4.486
    1AU     LIG  153   6.286   5.656   4.048
    1AU     LIG  154   6.451   5.629   3.597
    1AU     LIG  155   6.520   5.806   3.164
    1AU     LIG  156   6.723   6.166   2.919
    1AU     LIG  157   6.858   6.375   2.521
    1AU    AUSL  158   5.283   5.949   6.725
    1AU    AUSL  159   5.432   6.351   6.637
    1AU     AUL  160   5.511   6.271   6.959
    1AU       S  161   5.200   5.961   7.129
    1AU     LIG  162   4.954   5.577   7.222
    1AU     LIG  163   4.794   5.415   7.649
    1AU     LIG  164   4.600   5.388   8.106
    1AU     LIG  165   4.279   5.320   8.484
    1AU     LIG  166   4.040   5.442   8.899
    1AU     LIG  167   3.717   5.677   9.194
    1AU       S  168   5.064   6.363   6.852
    1AU     LIG  169   5.069   6.613   7.250
    1AU     LIG  170   4.966   6.928   7.588
    1AU     LIG  171   4.833   6.985   8.037
    1AU     LIG  172   4.744   7.213   8.443
    1AU     LIG  173   4.574   7.592   8.680
    1AU     LIG  174   4.338   8.015   8.702
    1AU    AUSL  175   5.570   5.729   6.546
    1AU    AUSL  176   5.034   5.719   6.498
    1AU     AUL  177   5.149   5.708   6.750
    1AU       S  178   4.865   5.344   6.766
    1AU     LIG  179   4.510   5.136   6.569
    1AU     LIG  180   4.117   4.880   6.596
    1AU     LIG  181   3.906   4.607   6.934
    1AU     LIG  182   3.730   4.334   7.292
    1AU     LIG  183   3.521   4.127   7.659
    1AU     LIG  184   3.214   4.221   8.021
    1AU       S  185   5.454   5.677   7.086
    1AU     LIG  186   5.390   5.309   7.323
    1AU     LIG  187   5.256   5.215   7.767
    1AU     LIG  188   5.047   5.136   8.191
    1AU     LIG  189   4.889   4.898   8.580
    1AU     LIG  190   4.830   4.743   9.032
    1AU     LIG  191   4.745   4.893   9.464
    1AU    AUSL  192   5.360   5.822   5.432
    1AU    AUSL  193   5.482   5.386   5.433
    1AU     AUL  194   5.314   5.508   5.144
    1AU       S  195   5.370   5.844   4.813
    1AU     LIG  196   5.060   5.648   4.490
    1AU     LIG  197   4.855   5.499   4.060
    1AU     LIG  198   4.623   5.209   3.742
    1AU     LIG  199   4.245   5.091   3.456
    1AU     LIG  200   3.974   5.199   3.078
    1AU     LIG  201   3.820   5.530   2.772
    1AU       S  202   5.042   5.123   5.314
    1AU     LIG  203   4.786   4.746   5.307
    1AU     LIG  204   4.434   4.536   5.095
    1AU     LIG  205   4.188   4.315   4.745
    1AU     LIG  206   4.218   4.132   4.286
    1AU     LIG  207   4.309   3.831   3.904
    1AU     LIG  208   4.171   3.472   3.616
    1AU    AUSL  209   5.586   6.097   5.183
    1AU    AUSL  210   5.112   6.145   5.465
    1AU     AUL  211   5.175   5.972   5.200
    1AU       S  212   5.001   6.406   5.243
    1AU     LIG  213   4.644   6.630   4.993
    1AU     LIG  214   4.510   6.692   4.525
    1AU     LIG  215   4.456   6.859   4.073
    1AU     LIG  216   4.138   7.019   3.761
    1AU     LIG  217   3.688   7.151   3.732
    1AU     LIG  218   3.451   7.518   3.578
    1AU       S  219   5.588   6.013   4.955
    1AU     LIG  220   5.627   5.902   4.398
    1AU     LIG  221   5.335   5.726   4.059
    1AU     LIG  222   5.076   5.860   3.671
    1AU     LIG  223   5.087   6.112   3.242
    1AU     LIG  224   5.116   6.243   2.765
    1AU     LIG  225   4.949   6.269   2.304
    1AU    AUSL  226   6.370   6.457   5.942
    1AU    AUSL  227   6.397   6.212   5.601
    1AU     AUL  228   6.523   6.671   5.752
    1AU       S  229   6.539   6.333   5.398
    1AU     LIG  230   6.897   6.340   5.081
    1AU     LIG  231   7.145   6.482   4.695
    1AU     LIG  232   7.456   6.639   4.359
    1AU     LIG  233   7.905   6.572   4.173
    1AU     LIG  234   8.283   6.791   3.984
    1AU     LIG  235   8.460   7.044   3.605
    1AU       S  236   6.819   6.329   5.886
    1AU     LIG  237   7.282   6.430   6.060
    1AU     LIG  238   7.797   6.493   6.033
    1AU     LIG  239   8.299   6.583   6.009
    1AU     LIG  240   8.731   6.871   6.010
    1AU     LIG  241   9.009   7.299   5.997
    1AU     LIG  242   9.220   7.708   6.170
    1AU    AUSL  243   6.591   5.899   5.771
    1AU    AUSL  244   6.566   5.733   6.208
    1AU     AUL  245   6.853   5.671   5.980
    1AU       S  246   6.806   6.103   5.814
    1AU     LIG  247   7.272   5.974   5.839
    1AU     LIG  248   7.775   6.039   5.787
    1AU     LIG  249   8.268   6.130   5.719
    1AU     LIG  250   8.760   6.077   5.664
    1AU     LIG  251   9.203   6.284   5.646
    1AU     LIG  252   9.552   6.615   5.492
    1AU       S  253   6.864   5.260   6.229
    1AU     LIG  254   7.290   5.068   6.224
    1AU     LIG  255   7.710   4.839   6.230
    1AU     LIG  256   8.096   4.584   6.251
    1AU     LIG  257   8.509   4.410   6.217
    1AU     LIG  258   8.871   4.333   6.474
    1AU     LIG  259   9.192   4.405   6.820
    1AU    AUSL  260   6.377   6.073   6.087
    1AU    AUSL  261   6.266   6.423   6.336
    1AU     AUL  262   6.515   6.451   6.219
    1AU       S  263   6.492   6.212   6.586
    1AU     LIG  264   6.939   6.482   6.528
    1AU     LIG  265   7.153   6.740   6.898
    1AU     LIG  266   7.352   7.079   7.204
    1AU     LIG  267   7.562   7.540   7.261
    1AU     LIG  268   7.834   7.954   7.333
    1AU     LIG  269   8.074   8.353   7.485
    1AU       S  270   6.817   6.135   6.105
    1AU     LIG  271   7.143   6.015   6.348
    1AU     LIG  272   7.623   6.067   6.282
    1AU     LIG  273   8.121   6.109   6.206
    1AU     LIG  274   8.616   6.183   6.144
    1AU     LIG  275   9.098   6.319   6.156
    1AU     LIG  276   9.453   6.568   6.395
    1AU    AUSL  277   5.105   6.424   6.077
    1AU    AUSL  278   5.137   6.170   6.418
    1AU     AUL  279   5.104   6.614   6.350
    1AU       S  280   4.922   6.241   6.626
    1AU     LIG  281   4.646   6.318   7.077
    1AU     LIG  282   4.609   6.548   7.524
    1AU     LIG  283   4.393   6.723   7.942
    1AU     LIG  284   4.037   6.807   8.288
    1AU     LIG  285   3.604   7.005   8.435
    1AU     LIG  286   3.213   7.281   8.549
    1AU       S  287   4.736   6.463   6.129
    1AU     LIG  288   4.586   6.898   6.203
    1AU     LIG  289   4.312   7.319   6.114
    1AU     LIG  290   3.951   7.662   6.103
    1AU     LIG  291   3.525   7.905   6.030
    1AU     LIG  292   3.101   8.144   6.120
    1AU     LIG  293   2.694   8.161   6.417
    1AU    AUSL  294   5.163   6.085   5.856
    1AU    AUSL  295   5.264   6.492   5.704
    1AU     AUL  296   4.985   6.413   5.721
    1AU       S  297   4.604   6.378   5.983
    1AU     LIG  298   4.541   6.646   5.555
    1AU     LIG  299   4.137   6.905   5.346
    1AU     LIG  300   3.617   6.956   5.304
    1AU     LIG  301   3.088   6.918   5.251
    1AU     LIG  302   2.593   6.749   5.203
    1AU     LIG  303   2.120   6.899   5.097
    1AU       S  304   5.086   6.666   5.333
    1AU     LIG  305   4.950   7.031   5.072
    1AU     LIG  306   4.863   7.410   4.818
    1AU     LIG  307   4.524   7.706   4.814
    1AU     LIG  308   4.440   8.103   4.585
    1AU     LIG  309   4.260   8.481   4.380
    1AU     LIG  310   3.862   8.738   4.307
    1AU    AUSL  311   4.887   6.015   6.153
    1AU    AUSL  312   4.929   5.753   5.820
    1AU     AUL  313   4.769   6.015   5.758
    1AU       S  314   4.591   5.571   5.965
    1AU     LIG  315   4.226   5.465   6.280
    1AU     LIG  316   3.752   5.332   6.365
    1AU     LIG  317   3.308   5.153   6.261
    1AU     LIG  318   2.908   5.021   5.958
    1AU     LIG  319   2.414   5.021   5.895
    1AU     LIG  320   2.010   4.921   5.646
    1AU       S  321   4.690   6.083   6.230
    1AU     LIG  322   4.445   6.393   6.526
    1AU     LIG  323   4.016   6.611   6.623
    1AU     LIG  324   3.529   6.697   6.690
    1AU     LIG  325   3.042   6.789   6.678
    1AU     LIG  326   2.626   7.033   6.738
    1AU     LIG  327   2.185   6.888   6.815
    1AU    AUSL  328   6.432   5.364   6.071
    1AU    AUSL  329   6.198   5.610   6.332
    1AU     AUL  330   6.619   5.592   6.428
    1AU       S  331   6.599   5.095   6.066
    1AU     LIG  332   6.867   4.756   6.193
    1AU     LIG  333   7.283   4.550   6.128
    1AU     LIG  334   7.699   4.360   5.995
    1AU     LIG  335   8.136   4.149   5.962
    1AU     LIG  336   8.478   3.890   6.179
    1AU     LIG  337   8.858   3.814   6.498
    1AU       S  338   6.408   5.229   6.589
    1AU     LIG  339   6.674   4.887   6.921
    1AU     LIG  340   6.884   4.547   7.207
    1AU     LIG  341   7.103   4.253   7.528
    1AU     LIG  342   7.472   4.192   7.838
    1AU     LIG  343   7.820   4.268   8.175
    1AU     LIG  344   8.256   4.256   8.402
    1AU    AUSL  345   6.274   5.687   5.886
    1AU    AUSL  346   6.204   5.210   5.769
    1AU     AUL  347   6.561   5.425   5.709
    1AU       S  348   6.588   5.249   6.120
    1AU     LIG  349   7.000   5.079   5.788
    1AU     LIG  350   7.481   4.871   5.769
    1AU     LIG  351   7.979   4.726   5.770
    1AU     LIG  352   8.423   4.499   5.705
    1AU     LIG  353   8.839   4.425   5.487
    1AU     LIG  354   9.210   4.700   5.533
    1AU       S  355   6.468   4.978   5.572
    1AU     LIG  356   6.357   4.575   5.316
    1AU     LIG  357   6.569   4.187   5.080
    1AU     LIG  358   6.815   3.801   4.864
    1AU     LIG  359   7.056   3.343   4.837
    1AU     LIG  360   7.486   3.111   4.761
    1AU     LIG  361   7.974   3.117   4.653
    1AU    AUSL  362   5.042   5.384   6.005
    1AU    AUSL  363   5.115   5.524   5.554
    1AU     AUL  364   4.828   5.581   5.553
    1AU       S  365   5.036   5.173   5.563
    1AU     LIG  366   4.562   5.144   5.535
    1AU     LIG  367   4.234   5.009   5.255
    1AU     LIG  368   3.988   4.760   4.958
    1AU     LIG  369   3.718   4.529   4.672
    1AU     LIG  370   3.483   4.555   4.274
    1AU     LIG  371   3.169   4.603   3.924
    1AU       S  372   4.753   5.347   5.941
    1AU     LIG  373   4.454   5.065   6.055
    1AU     LIG  374   4.022   5.002   6.091
    1AU     LIG  375   3.652   4.782   6.270
    1AU     LIG  376   3.178   4.646   6.201
    1AU     LIG  377   2.749   4.421   6.087
    1AU     LIG  378   2.498   4.031   5.950
    1AU    AUSL  379   5.196   5.753   6.135
    1AU    AUSL  380   5.268   5.407   6.373
    1AU     AUL  381   4.908   5.517   6.330
    1AU       S  382   5.029   5.240   6.671
    1AU     LIG  383   4.921   4.984   6.308
    1AU     LIG  384   4.546   4.656   6.369
    1AU     LIG  385   4.191   4.355   6.584
    1AU     LIG  386   3.898   4.070   6.884
    1AU     LIG  387   3.676   3.768   7.221
    1AU     LIG  388   3.564   3.295   7.367
    1AU       S  389   4.635   5.636   5.990
    1AU     LIG  390   4.177   5.405   5.776
    1AU     LIG  391   3.693   5.348   5.847
    1AU     LIG  392   3.201   5.454   5.882
    1AU     LIG  393   2.868   5.411   6.264
    1AU     LIG  394   2.383   5.358   6.318
    1AU     LIG  395   1.949   5.250   6.509
    1AU    AUSL  396   5.789   6.524   6.543
    1AU    AUSL  397   5.468   6.328   6.235
    1AU     AUL  398   5.498   6.640   6.611
    1AU       S  399   5.116   6.451   6.774
    1AU     LIG  400   5.013   6.880   6.803
    1AU     LIG  401   4.898   7.203   7.142
    1AU     LIG  402   4.715   7.580   7.388
    1AU     LIG  403   4.641   8.068   7.398
    1AU     LIG  404   4.341   8.428   7.488
    1AU     LIG  405   3.909   8.556   7.631
    1AU       S  406   5.866   6.934   6.528
    1AU     LIG  407   5.960   7.288   6.808
    1AU     LIG  408   6.063   7.692   7.014
    1AU     LIG  409   6.133   7.920   7.429
    1AU     LIG  410   6.080   8.174   7.835
    1AU     LIG  411   5.913   8.512   8.132
    1AU     LIG  412   5.848   8.971   8.240
    1AU    AUSL  413   5.540   6.714   6.171
    1AU    AUSL  414   5.989   6.691   5.786
    1AU     AUL  415   5.626   6.944   5.929
    1AU       S  416   5.739   6.982   6.370
    1AU     LIG  417   5.734   7.438   6.372
    1AU     LIG  418   5.671   7.815   6.658
    1AU     LIG  419   5.492   8.242   6.810
    1AU     LIG  420   5.375   8.711   6.903
    1AU     LIG  421   5.336   9.199   7.031
    1AU     LIG  422   5.168   9.647   7.096
    1AU       S  423   6.051   6.992   5.726
    1AU     LIG  424   6.379   7.130   5.469
    1AU     LIG  425   6.446   7.602   5.319
    1AU     LIG  426   6.685   8.061   5.318
    1AU     LIG  427   6.817   8.545   5.252
    1AU     LIG  428   6.887   9.030   5.218
    1AU     LIG  429   6.787   9.497   5.165
    1AU    AUSL  430   5.928   6.549   6.160
    1AU    AUSL  431   5.951   6.178   6.419
    1AU     AUL  432   6.103   6.544   6.573
    1AU       S  433   6.507   6.360   6.711
    1AU     LIG  434   6.722   6.488   7.086
    1AU     LIG  435   6.975   6.743   7.415
    1AU     LIG  436   7.196   6.884   7.835
    1AU     LIG  437   7.253   7.095   8.279
    1AU     LIG  438   7.286   7.492   8.568
    1AU     LIG  439   7.432   7.843   8.875
    1AU       S  440   6.013   6.860   6.232
    1AU     LIG  441   6.232   7.271   6.371
    1AU     LIG  442   6.391   7.708   6.587
    1AU     LIG  443   6.687   8.137   6.659
    1AU     LIG  444   6.850   8.624   6.704
    1AU     LIG  445   6.701   9.081   6.663
    1AU     LIG  446   6.819   9.542   6.749
    1AU    AUSL  447   5.700   5.303   6.374
    1AU    AUSL  448   6.105   5.209   6.253
    1AU     AUL  449   5.885   5.102   6.628
    1AU       S  450   5.700   4.704   6.506
    1AU     LIG  451   5.755   4.318   6.702
    1AU     LIG  452   5.483   3.983   6.856
    1AU     LIG  453   5.316   3.560   6.919
    1AU     LIG  454   5.315   3.222   7.250
    1AU     LIG  455   5.381   3.051   7.698
    1AU     LIG  456   5.507   2.754   8.052
    1AU       S  457   6.249   4.994   6.366
    1AU     LIG  458   6.473   4.608   6.498
    1AU     LIG  459   6.628   4.306   6.833
    1AU     LIG  460   6.914   4.014   7.104
    1AU     LIG  461   7.233   3.681   7.295
    1AU     LIG  462   7.528   3.272   7.348
    1AU     LIG  463   7.925   2.993   7.384
    1AU    AUSL  464   5.410   5.110   6.148
    1AU    AUSL  465   5.499   5.380   6.722
    1AU     AUL  466   5.424   5.085   6.497
    1AU       S  467   5.512   4.649   6.376
    1AU     LIG  468   5.278   4.290   6.473
    1AU     LIG  469   5.148   3.839   6.493
    1AU     LIG  470   4.999   3.398   6.527
    1AU     LIG  471   4.746   2.999   6.537
    1AU     LIG  472   4.604   2.631   6.785
    1AU     LIG  473   4.662   2.205   6.931
    1AU       S  474   5.191   5.256   6.854
    1AU     LIG  475   4.894   4.806   6.808
    1AU     LIG  476   4.469   4.632   6.912
    1AU     LIG  477   4.247   4.299   7.183
    1AU     LIG  478   4.051   3.987   7.501
    1AU     LIG  479   4.001   3.690   7.879
    1AU     LIG  480   4.041   3.628   8.353
    1AU    AUSL  481   5.802   4.970   6.140
    1AU    AUSL  482   5.518   5.055   5.760
    1AU     AUL  483   5.342   4.864   6.011
    1AU       S  484   5.582   4.726   5.629
    1AU     LIG  485   5.205   4.547   5.573
    1AU     LIG  486   5.122   4.068   5.509
    1AU     LIG  487   5.065   3.573   5.485
    1AU     LIG  488   4.841   3.124   5.450
    1AU     LIG  489   4.634   2.712   5.270
    1AU     LIG  490   4.541   2.253   5.178
    1AU       S  491   5.764   4.819   6.237
    1AU     LIG  492   5.809   4.337   6.153
    1AU     LIG  493   5.650   3.926   6.361
    1AU     LIG  494   5.676   3.467   6.536
    1AU     LIG  495   5.942   3.027   6.543
    1AU     LIG  496   6.099   2.587   6.705
    1AU     LIG  497   6.244   2.221   6.966
    1AU    AUSL  498   5.756   6.510   5.464
    1AU    AUSL  499   6.044   6.290   5.770
    1AU     AUL  500   6.135   6.591   5.518
    1AU       S  501   5.826   6.869   5.318
    1AU     LIG  502   6.072   7.159   5.066
    1AU     LIG  503   6.145   7.573   4.875
    1AU     LIG  504   6.080   7.803   4.458
    1AU     LIG  505   6.005   8.117   4.103
    1AU     LIG  506   6.000   8.559   3.921
    1AU     LIG  507   6.063   8.906   3.596
    1AU       S  508   6.494   6.299   5.483
    1AU     LIG  509   6.744   6.761   5.314
    1AU     LIG  510   7.092   6.889   5.014
    1AU     LIG  511   7.358   7.130   4.701
    1AU     LIG  512   7.597   7.557   4.649
    1AU     LIG  513   7.806   7.982   4.532
    1AU     LIG  514   7.831   8.418   4.318
    1AU    AUSL  515   5.639   6.480   5.856
    1AU    AUSL  516   5.513   6.204   5.562
    1AU     AUL  517   5.484   6.672   5.578
    1AU       S  518   5.867   6.969   5.548
    1AU     LIG  519   5.951   7.443   5.470
    1AU     LIG  520   5.950   7.888   5.253
    1AU     LIG  521   5.788   8.349   5.116
    1AU     LIG  522   5.471   8.739   5.004
    1AU     LIG  523   5.404   9.218   4.850
    1AU     LIG  524   4.968   9.400   4.750
    1AU       S  525   5.315   6.473   5.192
    1AU     LIG  526   5.116   6.638   4.779
    1AU     LIG  527   4.952   6.911   4.392
    1AU     LIG  528   4.920   7.021   3.910
    1AU     LIG  529   4.901   7.382   3.590
    1AU     LIG  530   4.582   7.696   3.436
    1AU     LIG  531   4.261   7.923   3.153
    1AU    AUSL  532   5.821   5.165   5.493
    1AU    AUSL  533   5.403   5.434   5.833
    1AU     AUL  534   5.483   5.132   5.436
    1AU       S  535   5.065   5.060   5.667
    1AU     LIG  536   4.781   4.767   5.820
    1AU     LIG  537   4.343   4.660   5.619
    1AU     LIG  538   4.008   4.404   5.338
    1AU     LIG  539   3.739   4.129   5.029
    1AU     LIG  540   3.457   3.705   4.939
    1AU     LIG  541   3.231   3.312   4.719
    1AU       S  542   5.752   4.761   5.441
    1AU     LIG  543   5.838   4.410   5.231
    1AU     LIG  544   5.524   4.084   5.169
    1AU     LIG  545   5.388   3.648   5.082
    1AU     LIG  546   5.351   3.319   4.740
    1AU     LIG  547   5.340   3.145   4.287
    1AU     LIG  548   5.445   2.846   3.935
    1AU    AUSL  549   5.828   5.283   5.906
    1AU    AUSL  550   5.963   5.521   5.601
    1AU     AUL  551   6.028   5.022   5.695
    1AU       S  552   5.702   4.720   5.750
    1AU     LIG  553   5.614   4.233   5.677
    1AU     LIG  554   5.551   3.769   5.576
    1AU     LIG  555   5.681   3.339   5.416
    1AU     LIG  556   6.031   2.989   5.436
    1AU     LIG  557   6.286   2.607   5.314
    1AU     LIG  558   6.498   2.224   5.118
    1AU       S  559   6.223   5.120   5.285
    1AU     LIG  560   6.048   4.859   5.009
    1AU     LIG  561   6.260   4.491   4.794
    1AU     LIG  562   6.528   4.157   4.552
    1AU     LIG  563   6.732   3.949   4.176
    1AU     LIG  564   6.931   3.745   3.802
    1AU     LIG  565   7.219   3.584   3.477
    2POPC   NC3  566   1.389   2.512   7.945
    2POPC   PO4  567   1.125   3.081   8.152
    2POPC   GL1  568   1.209   2.962   7.729
    2POPC   GL2  569   0.883   2.811   7.677
    2POPC   C1A  570   1.253   2.702   7.329
    2POPC   D2A  571   1.496   2.704   6.958
    2POPC   C3A  572   1.360   2.755   6.557
    2POPC   C4A  573   1.657   2.976   6.308
    2POPC   C1B  574   0.905   3.064   7.286
    2POPC   C2B  575   1.005   3.056   6.849
    2POPC   C3B  576   0.858   2.870   6.466
    2POPC   C4B  577   1.120   2.765   6.097
    3POPC   NC3  578   2.748   1.961   8.106
    3POPC   PO4  579   3.221   2.324   7.723
    3POPC   GL1  580   3.008   1.921   7.590
    3POPC   GL2  581   2.683   1.754   7.647
    3POPC   C1A  582   3.061   1.896   7.170
    3POPC   D2A  583   3.181   1.982   6.775
    3POPC   C3A  584   2.994   1.878   6.472
    3POPC   C4A  585   3.036   1.975   6.093
    3POPC   C1B  586   2.569   1.948   7.270
    3POPC   C2B  587   2.611   2.104   6.841
    3POPC   C3B  588   2.511   2.048   6.418
    3POPC   C4B  589   2.600   2.232   6.001
    4POPC   NC3  590   8.557   5.230   8.198
    4POPC   PO4  591   9.052   5.472   8.267
    4POPC   GL1  592   8.936   5.288   7.829
    4POPC   GL2  593   8.943   4.926   7.705
    4POPC   C1A  594   8.967   5.292   7.334
    4POPC   D2A  595   9.202   5.173   6.919
    4POPC   C3A  596   9.074   5.240   6.457
    4POPC   C4A  597   8.814   5.280   6.063
    4POPC   C1B  598   8.981   4.786   7.221
    4POPC   C2B  599   8.874   4.811   6.750
    4POPC   C3B  600   8.842   4.811   6.302
    4POPC   C4B  601   8.922   4.550   5.963
    5POPC   NC3  602   1.393   0.512   8.127
    5POPC   PO4  603   0.824   0.808   7.989
    5POPC   GL1  604   0.970   0.414   7.757
    5POPC   GL2  605   1.234   0.154   7.801
    5POPC   C1A  606   0.904   0.281   7.325
    5POPC   D2A  607   0.838   0.480   6.924
    5POPC   C3A  608   0.849   0.172   6.600
    5POPC   C4A  609   0.861  11.485   6.225
    5POPC   C1B  610   1.414   0.384   7.430
    5POPC   C2B  611   1.349   0.523   6.976
    5POPC   C3B  612   1.214   0.516   6.530
    5POPC   C4B  613   1.287   0.257   6.174
    6POPC   NC3  614   7.980   2.521   7.975
    6POPC   PO4  615   7.603   3.081   7.995
    6POPC   GL1  616   7.521   2.773   7.653
    6POPC   GL2  617   7.177   2.649   7.720
    6POPC   C1A  618   7.510   2.741   7.178
    6POPC   D2A  619   7.359   2.860   6.739
    6POPC   C3A  620   7.581   2.786   6.329
    6POPC   C4A  621   7.627   2.899   5.866
    6POPC   C1B  622   7.182   2.394   7.367
    6POPC   C2B  623   7.181   2.397   6.912
    6POPC   C3B  624   7.098   2.496   6.464
    6POPC   C4B  625   7.268   2.478   6.047
    7POPC   NC3  626   2.126   5.678   8.157
    7POPC   PO4  627   1.653   6.094   8.069
    7POPC   GL1  628   1.647   5.927   7.670
    7POPC   GL2  629   1.998   5.924   7.653
    7POPC   C1A  630   1.640   6.106   7.249
    7POPC   D2A  631   1.835   6.031   6.865
    7POPC   C3A  632   1.680   6.053   6.452
    7POPC   C4A  633   1.741   5.681   6.231
    7POPC   C1B  634   1.892   5.666   7.291
    7POPC   C2B  635   2.062   5.581   6.884
    7POPC   C3B  636   2.140   5.806   6.499
    7POPC   C4B  637   2.204   5.761   6.041
    8POPC   NC3  638   0.381   5.453   8.187
    8POPC   PO4  639   0.035   4.862   8.142
    8POPC   GL1  640   0.195   4.999   7.813
    8POPC   GL2  641   0.532   5.055   7.869
    8POPC   C1A  642   0.086   4.815   7.394
    8POPC   D2A  643   0.165   4.606   6.990
    8POPC   C3A  644   0.015   4.783   6.603
    8POPC   C4A  645   0.208   4.852   6.235
    8POPC   C1B  646   0.501   5.157   7.447
    8POPC   C2B  647   0.459   5.021   7.027
    8POPC   C3B  648   0.439   5.148   6.564
    8POPC   C4B  649   0.633   5.131   6.144
    9POPC   NC3  650  11.176   5.291   8.137
    9POPC   PO4  651  11.005   4.752   8.410
    9POPC   GL1  652  11.084   4.859   7.873
    9POPC   GL2  653  11.241   5.147   7.674
    9POPC   C1A  654  11.023   4.835   7.378
    9POPC   D2A  655  11.033   5.109   6.983
    9POPC   C3A  656  10.975   4.946   6.574
    9POPC   C4A  657  11.099   4.833   6.172
    9POPC   C1B  658  11.412   5.286   7.293
    9POPC   C2B  659   0.028   5.225   6.856
    9POPC   C3B  660  11.410   5.261   6.380
    9POPC   C4B  661  11.185   5.298   5.947
   10POPC   NC3  662  11.354   8.107   7.988
   10POPC   PO4  663  10.667   8.342   8.086
   10POPC   GL1  664  10.959   8.329   7.703
   10POPC   GL2  665  11.316   8.415   7.586
   10POPC   C1A  666  10.824   8.408   7.278
   10POPC   D2A  667  10.904   8.508   6.852
   10POPC   C3A  668  11.046   8.183   6.614
   10POPC   C4A  669  10.988   8.043   6.207
   10POPC   C1B  670  11.277   8.117   7.248
   10POPC   C2B  671  11.488   8.083   6.848
   10POPC   C3B  672  11.474   7.985   6.438
   10POPC   C4B  673  11.402   8.315   6.167
   11POPC   NC3  674   3.529   2.424   8.058
   11POPC   PO4  675   4.183   2.531   8.309
   11POPC   GL1  676   3.955   2.525   7.825
   11POPC   GL2  677   3.616   2.755   7.677
   11POPC   C1A  678   3.842   2.429   7.381
   11POPC   D2A  679   3.647   2.677   7.093
   11POPC   C3A  680   3.763   2.533   6.702
   11POPC   C4A  681   3.759   2.810   6.379
   11POPC   C1B  682   3.236   2.861   7.356
   11POPC   C2B  683   3.106   2.947   6.908
   11POPC   C3B  684   3.208   2.847   6.458
   11POPC   C4B  685   3.422   3.179   6.204
   12POPC   NC3  686   4.802   7.988   8.035
   12POPC   PO4  687   5.167   7.583   7.961
   12POPC   GL1  688   5.088   7.876   7.590
   12POPC   GL2  689   5.114   8.222   7.692
   12POPC   C1A  690   5.028   7.870   7.102
   12POPC   D2A  691   5.142   7.882   6.650
   12POPC   C3A  692   4.796   7.968   6.352
   12POPC   C4A  693   4.424   8.105   6.101
   12POPC   C1B  694   5.182   8.323   7.244
   12POPC   C2B  695   4.993   8.364   6.816
   12POPC   C3B  696   5.181   8.320   6.379
   12POPC   C4B  697   5.255   7.950   6.106
   13POPC   NC3  698   8.457   0.939   7.997
   13POPC   PO4  699   7.757   1.067   8.145
   13POPC   GL1  700   7.998   1.094   7.764
   13POPC   GL2  701   7.825   1.345   7.546
   13POPC   C1A  702   8.062   0.907   7.354
   13POPC   D2A  703   7.926   1.036   6.913
   13POPC   C3A  704   8.239   0.966   6.580
   13POPC   C4A  705   8.288   1.099   6.161
   13POPC   C1B  706   8.170   1.400   7.218
   13POPC   C2B  707   8.219   1.451   6.769
   13POPC   C3B  708   7.925   1.356   6.426
   13POPC   C4B  709   7.799   1.668   6.100
   14POPC   NC3  710   1.124   9.574   8.113
   14POPC   PO4  711   0.861  10.187   8.134
   14POPC   GL1  712   1.038   9.939   7.763
   14POPC   GL2  713   1.409   9.867   7.779
   14POPC   C1A  714   0.885   9.952   7.344
   14POPC   D2A  715   1.141   9.951   6.974
   14POPC   C3A  716   1.099   9.667   6.614
   14POPC   C4A  717   1.147   9.877   6.236
   14POPC   C1B  718   1.332   9.680   7.384
   14POPC   C2B  719   1.498   9.556   6.985
   14POPC   C3B  720   1.611   9.641   6.586
   14POPC   C4B  721   1.477   9.497   6.195
   15POPC   NC3  722   1.272  10.560   8.194
   15POPC   PO4  723   0.730  10.700   7.846
   15POPC   GL1  724   0.974  10.433   7.661
   15POPC   GL2  725   1.342  10.393   7.703
   15POPC   C1A  726   1.073  10.415   7.249
   15POPC   D2A  727   1.341  10.474   6.926
   15POPC   C3A  728   1.146  10.290   6.566
   15POPC   C4A  729   0.920  10.332   6.192
   15POPC   C1B  730   1.525  10.174   7.326
   15POPC   C2B  731   1.631  10.049   6.882
   15POPC   C3B  732   1.616  10.126   6.412
   15POPC   C4B  733   1.411  10.368   6.089
   16POPC   NC3  734   3.601   9.372   8.269
   16POPC   PO4  735   3.064   9.215   7.985
   16POPC   GL1  736   3.436   9.466   7.776
   16POPC   GL2  737   3.652   9.783   7.813
   16POPC   C1A  738   3.451   9.572   7.329
   16POPC   D2A  739   3.338   9.749   6.913
   16POPC   C3A  740   3.306   9.573   6.461
   16POPC   C4A  741   3.195   9.533   6.018
   16POPC   C1B  742   3.716  10.006   7.373
   16POPC   C2B  743   3.826   9.967   6.900
   16POPC   C3B  744   3.795   9.738   6.469
   16POPC   C4B  745   3.663   9.738   6.009
   17POPC   NC3  746  10.460   1.273   8.355
   17POPC   PO4  747  10.357   1.786   7.981
   17POPC   GL1  748  10.284   1.491   7.669
   17POPC   GL2  749  10.388   1.150   7.739
   17POPC   C1A  750  10.535   1.383   7.279
   17POPC   D2A  751  10.687   1.236   6.879
   17POPC   C3A  752  10.641   1.570   6.616
   17POPC   C4A  753  10.526   1.582   6.210
   17POPC   C1B  754  10.093   1.130   7.363
   17POPC   C2B  755  10.217   1.056   6.954
   17POPC   C3B  756  10.245   1.222   6.539
   17POPC   C4B  757  10.242   1.062   6.099
   18POPC   NC3  758   3.821  11.329   8.164
   18POPC   PO4  759   3.281   0.050   7.845
   18POPC   GL1  760   3.638  11.396   7.681
   18POPC   GL2  761   3.565  11.053   7.687
   18POPC   C1A  762   3.776  11.339   7.275
   18POPC   D2A  763   3.724  11.027   6.962
   18POPC   C3A  764   3.693  11.166   6.577
   18POPC   C4A  765   3.740  11.497   6.291
   18POPC   C1B  766   3.299  11.072   7.293
   18POPC   C2B  767   3.232  10.925   6.853
   18POPC   C3B  768   3.278  10.959   6.398
   18POPC   C4B  769   3.596  11.001   6.075
   19POPC   NC3  770  11.337   6.278   8.112
   19POPC   PO4  771  11.237   6.934   7.972
   19POPC   GL1  772  11.276   6.716   7.624
   19POPC   GL2  773  11.297   6.357   7.616
   19POPC   C1A  774  11.207   6.817   7.199
   19POPC   D2A  775  11.103   7.012   6.790
   19POPC   C3A  776  11.192   6.816   6.323
   19POPC   C4A  777  10.872   6.960   5.943
   19POPC   C1B  778  11.257   6.318   7.194
   19POPC   C2B  779  11.040   6.501   6.838
   19POPC   C3B  780  11.061   6.314   6.451
   19POPC   C4B  781  11.479   6.192   6.276
   20POPC   NC3  782  10.373   0.280   8.441
   20POPC   PO4  783  10.896   0.147   8.080
   20POPC   GL1  784  10.656   0.284   7.709
   20POPC   GL2  785  10.284   0.349   7.734
   20POPC   C1A  786  10.514   0.218   7.260
   20POPC   D2A  787  10.489  11.491   6.874
   20POPC   C3A  788  10.556   0.264   6.542
   20POPC   C4A  789  10.694   0.195   6.120
   20POPC   C1B  790  10.333   0.670   7.375
   20POPC   C2B  791  10.467   0.619   6.924
   20POPC   C3B  792  10.257   0.697   6.521
   20POPC   C4B  793  10.225   0.422   6.192
   21POPC   NC3  794   6.944   1.130   7.985
   21POPC   PO4  795   6.253   1.174   8.067
   21POPC   GL1  796   6.502   0.974   7.706
   21POPC   GL2  797   6.284   0.743   7.511
   21POPC   C1A  798   6.856   1.050   7.369
   21POPC   D2A  799   6.809   1.211   6.967
   21POPC   C3A  800   6.562   0.956   6.707
   21POPC   C4A  801   6.535   1.183   6.343
   21POPC   C1B  802   6.351   1.071   7.192
   21POPC   C2B  803   6.305   1.435   6.904
   21POPC   C3B  804   6.358   1.658   6.495
   21POPC   C4B  805   6.212   1.491   6.103
   22POPC   NC3  806   8.926  11.016   7.973
   22POPC   PO4  807   9.317  10.496   7.905
   22POPC   GL1  808   9.169  10.816   7.579
   22POPC   GL2  809   9.074  11.224   7.560
   22POPC   C1A  810   8.951  10.879   7.195
   22POPC   D2A  811   8.659  10.781   6.858
   22POPC   C3A  812   8.665  10.998   6.488
   22POPC   C4A  813   8.998  10.972   6.253
   22POPC   C1B  814   8.676  11.267   7.341
   22POPC   C2B  815   8.789  11.301   6.905
   22POPC   C3B  816   8.689   0.019   6.523
   22POPC   C4B  817   8.739  11.436   6.079
   23POPC   NC3  818   0.463   1.062   7.842
   23POPC   PO4  819   0.795   1.608   7.985
   23POPC   GL1  820   0.630   1.489   7.620
   23POPC   GL2  821   0.248   1.503   7.672
   23POPC   C1A  822   0.586   1.565   7.195
   23POPC   D2A  823   0.488   1.320   6.841
   23POPC   C3A  824   0.468   1.596   6.498
   23POPC   C4A  825   0.274   1.533   6.097
   23POPC   C1B  826   0.135   1.277   7.284
   23POPC   C2B  827  11.468   1.095   6.930
   23POPC   C3B  828   0.077   1.238   6.521
   23POPC   C4B  829   0.456   1.074   6.319
   24POPC   NC3  830   4.230   8.597   8.205
   24POPC   PO4  831   4.045   9.220   8.179
   24POPC   GL1  832   4.064   9.029   7.790
   24POPC   GL2  833   4.365   8.863   7.752
   24POPC   C1A  834   4.048   8.947   7.329
   24POPC   D2A  835   4.165   8.611   7.027
   24POPC   C3A  836   4.128   8.700   6.560
   24POPC   C4A  837   4.085   8.511   6.147
   24POPC   C1B  838   4.544   8.879   7.303
   24POPC   C2B  839   4.425   9.012   6.855
   24POPC   C3B  840   4.536   8.960   6.401
   24POPC   C4B  841   4.694   9.151   6.036
   25POPC   NC3  842   3.535   1.348   8.183
   25POPC   PO4  843   3.213   0.697   8.061
   25POPC   GL1  844   3.253   0.880   7.655
   25POPC   GL2  845   3.520   1.121   7.574
   25POPC   C1A  846   3.147   1.026   7.243
   25POPC   D2A  847   3.342   1.089   6.839
   25POPC   C3A  848   3.143   1.101   6.431
   25POPC   C4A  849   3.159   1.471   6.133
   25POPC   C1B  850   3.829   1.377   7.294
   25POPC   C2B  851   4.007   1.505   6.875
   25POPC   C3B  852   3.898   1.458   6.442
   25POPC   C4B  853   3.609   1.185   6.325
   26POPC   NC3  854   5.641   9.720   8.256
   26POPC   PO4  855   6.082  10.167   8.243
   26POPC   GL1  856   6.086   9.864   7.848
   26POPC   GL2  857   5.783   9.656   7.760
   26POPC   C1A  858   6.007   9.902   7.357
   26POPC   D2A  859   6.179   9.794   6.929
   26POPC   C3A  860   5.974   9.874   6.524
   26POPC   C4A  861   6.012   9.886   6.065
   26POPC   C1B  862   5.634   9.539   7.331
   26POPC   C2B  863   5.644   9.637   6.877
   26POPC   C3B  864   5.528   9.518   6.441
   26POPC   C4B  865   5.714   9.473   6.006
   27POPC   NC3  866  11.073  10.456   8.059
   27POPC   PO4  867  10.753   9.925   7.793
   27POPC   GL1  868  11.142  10.111   7.627
   27POPC   GL2  869  11.406  10.384   7.690
   27POPC   C1A  870  11.174  10.070   7.200
   27POPC   D2A  871  10.909  10.132   6.849
   27POPC   C3A  872  11.179  10.327   6.570
   27POPC   C4A  873  11.255  10.154   6.176
   27POPC   C1B  874  11.176  10.568   7.344
   27POPC   C2B  875  11.018  10.657   6.950
   27POPC   C3B  876  11.096  10.859   6.566
   27POPC   C4B  877  11.290  10.685   6.221
   28POPC   NC3  878   5.451   0.127   7.942
   28POPC   PO4  879   5.009   0.582   8.253
   28POPC   GL1  880   5.209   0.542   7.794
   28POPC   GL2  881   5.133   0.271   7.563
   28POPC   C1A  882   5.368   0.615   7.305
   28POPC   D2A  883   5.096   0.365   7.010
   28POPC   C3A  884   5.149   0.367   6.570
   28POPC   C4A  885   5.266   0.663   6.286
   28POPC   C1B  886   4.880   0.649   7.412
   28POPC   C2B  887   4.643   0.686   7.045
   28POPC   C3B  888   4.745   0.704   6.601
   28POPC   C4B  889   4.793   0.981   6.257
   29POPC   NC3  890   8.710   2.616   8.053
   29POPC   PO4  891   8.228   2.917   8.006
   29POPC   GL1  892   8.539   2.891   7.634
   29POPC   GL2  893   8.781   2.588   7.538
   29POPC   C1A  894   8.845   3.048   7.313
   29POPC   D2A  895   8.971   3.338   6.965
   29POPC   C3A  896   8.990   3.177   6.532
   29POPC   C4A  897   8.692   3.025   6.176
   29POPC   C1B  898   9.102   2.620   7.181
   29POPC   C2B  899   9.020   2.655   6.735
   29POPC   C3B  900   9.064   2.707   6.302
   29POPC   C4B  901   9.048   2.576   5.869
   30POPC   NC3  902   7.379  10.616   8.233
   30POPC   PO4  903   7.711  10.787   7.695
   30POPC   GL1  904   7.354  10.568   7.589
   30POPC   GL2  905   7.402  10.261   7.789
   30POPC   C1A  906   7.281  10.412   7.174
   30POPC   D2A  907   6.999  10.436   6.836
   30POPC   C3A  908   7.146  10.630   6.475
   30POPC   C4A  909   7.496  10.651   6.214
   30POPC   C1B  910   7.675  10.164   7.436
   30POPC   C2B  911   7.613  10.067   7.008
   30POPC   C3B  912   7.510  10.251   6.606
   30POPC   C4B  913   7.472  10.129   6.172
   31POPC   NC3  914  10.304   4.509   7.611
   31POPC   PO4  915  10.224   4.024   7.955
   31POPC   GL1  916  10.064   4.068   7.531
   31POPC   GL2  917   9.738   4.149   7.545
   31POPC   C1A  918  10.068   4.230   7.066
   31POPC   D2A  919  10.184   4.618   6.782
   31POPC   C3A  920  10.070   4.581   6.340
   31POPC   C4A  921   9.780   4.255   6.206
   31POPC   C1B  922   9.553   4.067   7.132
   31POPC   C2B  923   9.320   3.896   6.768
   31POPC   C3B  924   9.318   4.123   6.394
   31POPC   C4B  925   9.320   4.587   6.342
   32POPC   NC3  926   0.366   2.045   8.003
   32POPC   PO4  927   0.964   2.361   7.923
   32POPC   GL1  928   0.793   2.020   7.636
   32POPC   GL2  929   0.454   1.948   7.531
   32POPC   C1A  930   0.770   2.138   7.209
   32POPC   D2A  931   0.483   1.990   6.901
   32POPC   C3A  932   0.719   2.061   6.558
   32POPC   C4A  933   0.836   1.919   6.167
   32POPC   C1B  934   0.139   1.818   7.278
   32POPC   C2B  935   0.085   1.629   6.885
   32POPC   C3B  936  11.487   1.781   6.468
   32POPC   C4B  937   0.310   2.034   6.256
   33POPC   NC3  938   9.455   5.664   8.273
   33POPC   PO4  939   9.918   6.063   8.146
   33POPC   GL1  940  10.006   5.840   7.742
   33POPC   GL2  941  10.161   6.094   7.584
   33POPC   C1A  942   9.916   5.724   7.301
   33POPC   D2A  943   9.840   5.830   6.857
   33POPC   C3A  944   9.748   5.603   6.485
   33POPC   C4A  945   9.872   5.672   6.072
   33POPC   C1B  946   9.982   6.224   7.170
   33POPC   C2B  947   9.818   6.330   6.732
   33POPC   C3B  948   9.711   6.101   6.346
   33POPC   C4B  949   9.447   5.939   6.019
   34POPC   NC3  950   5.064   1.069   8.189
   34POPC   PO4  951   5.652   0.704   8.131
   34POPC   GL1  952   5.422   0.986   7.776
   34POPC   GL2  953   5.151   1.251   7.723
   34POPC   C1A  954   5.394   1.107   7.311
   34POPC   D2A  955   5.094   0.935   6.990
   34POPC   C3A  956   5.186   1.065   6.582
   34POPC   C4A  957   5.253   1.183   6.135
   34POPC   C1B  958   4.898   1.277   7.325
   34POPC   C2B  959   4.779   1.368   6.881
   34POPC   C3B  960   4.896   1.456   6.436
   34POPC   C4B  961   5.023   1.656   6.035
   35POPC   NC3  962   7.758   9.239   8.103
   35POPC   PO4  963   8.455   9.259   8.065
   35POPC   GL1  964   8.336   9.172   7.644
   35POPC   GL2  965   8.026   9.127   7.685
   35POPC   C1A  966   8.219   8.846   7.299
   35POPC   D2A  967   8.104   8.717   6.833
   35POPC   C3A  968   8.359   8.674   6.400
   35POPC   C4A  969   8.345   8.758   5.932
   35POPC   C1B  970   7.844   9.186   7.276
   35POPC   C2B  971   8.001   9.217   6.856
   35POPC   C3B  972   8.011   9.052   6.410
   35POPC   C4B  973   7.868   8.996   5.950
   36POPC   NC3  974   8.920  10.396   8.123
   36POPC   PO4  975   8.465  11.005   8.025
   36POPC   GL1  976   8.617  10.679   7.665
   36POPC   GL2  977   8.879  10.383   7.620
   36POPC   C1A  978   8.573  10.470   7.237
   36POPC   D2A  979   8.601  10.267   6.828
   36POPC   C3A  980   8.384  10.540   6.483
   36POPC   C4A  981   8.561  10.697   6.076
   36POPC   C1B  982   9.110  10.391   7.216
   36POPC   C2B  983   9.141  10.627   6.806
   36POPC   C3B  984   8.899  10.504   6.445
   36POPC   C4B  985   8.986  10.125   6.249
   37POPC   NC3  986   7.149   8.844   7.953
   37POPC   PO4  987   7.832   8.647   8.185
   37POPC   GL1  988   7.779   8.680   7.744
   37POPC   GL2  989   7.575   8.913   7.694
   37POPC   C1A  990   7.731   8.675   7.267
   37POPC   D2A  991   7.603   8.909   6.898
   37POPC   C3A  992   7.374   8.713   6.581
   37POPC   C4A  993   7.668   8.660   6.278
   37POPC   C1B  994   7.340   9.018   7.324
   37POPC   C2B  995   7.142   9.115   6.925
   37POPC   C3B  996   7.165   9.170   6.481
   37POPC   C4B  997   7.387   9.069   6.122
   38POPC   NC3  998   0.568  11.043   8.090
   38POPC   PO4  999   1.125  10.980   8.482
   38POPC   GL1 1000   1.169  10.987   7.941
   38POPC   GL2 1001   0.934  11.213   7.758
   38POPC   C1A 1002   1.259  10.861   7.454
   38POPC   D2A 1003   1.240  11.043   7.001
   38POPC   C3A 1004   1.208  10.830   6.582
   38POPC   C4A 1005   0.959  10.865   6.211
   38POPC   C1B 1006   1.206  11.366   7.401
   38POPC   C2B 1007   1.454   0.024   7.058
   38POPC   C3B 1008   1.350   0.031   6.641
   38POPC   C4B 1009   1.300  11.262   6.311
   39POPC   NC3 1010   9.358   8.522   8.086
   39POPC   PO4 1011   9.305   7.845   8.129
   39POPC   GL1 1012   9.555   8.043   7.748
   39POPC   GL2 1013   9.740   8.358   7.751
   39POPC   C1A 1014   9.694   8.023   7.278
   39POPC   D2A 1015   9.858   7.770   6.905
   39POPC   C3A 1016   9.675   7.797   6.453
   39POPC   C4A 1017   9.694   7.808   6.002
   39POPC   C1B 1018   9.688   8.528   7.352
   39POPC   C2B 1019   9.528   8.448   6.935
   39POPC   C3B 1020   9.698   8.463   6.515
   39POPC   C4B 1021   9.553   8.260   6.151
   40POPC   NC3 1022   1.141   1.282   8.004
   40POPC   PO4 1023   1.712   0.858   8.113
   40POPC   GL1 1024   1.515   0.883   7.740
   40POPC   GL2 1025   1.579   1.213   7.667
   40POPC   C1A 1026   1.615   0.849   7.289
   40POPC   D2A 1027   1.752   0.822   6.843
   40POPC   C3A 1028   1.408   0.977   6.566
   40POPC   C4A 1029   1.027   0.969   6.295
   40POPC   C1B 1030   1.372   1.337   7.295
   40POPC   C2B 1031   1.303   1.384   6.848
   40POPC   C3B 1032   0.934   1.379   6.577
   40POPC   C4B 1033   0.800   1.411   6.147
   41POPC   NC3 1034   7.990   3.310   8.036
   41POPC   PO4 1035   8.286   3.810   7.954
   41POPC   GL1 1036   8.332   3.416   7.686
   41POPC   GL2 1037   7.997   3.468   7.536
   41POPC   C1A 1038   8.387   3.262   7.265
   41POPC   D2A 1039   8.465   3.541   6.909
   41POPC   C3A 1040   8.531   3.410   6.497
   41POPC   C4A 1041   8.313   3.362   6.120
   41POPC   C1B 1042   7.947   3.423   7.067
   41POPC   C2B 1043   8.042   3.292   6.623
   41POPC   C3B 1044   7.814   3.247   6.223
   41POPC   C4B 1045   7.475   3.386   5.944
   42POPC   NC3 1046  11.141   9.776   8.021
   42POPC   PO4 1047  10.821   9.219   7.857
   42POPC   GL1 1048  10.995   9.526   7.570
   42POPC   GL2 1049  11.355   9.639   7.569
   42POPC   C1A 1050  10.800   9.653   7.181
   42POPC   D2A 1051  10.617   9.474   6.795
   42POPC   C3A 1052  10.663   9.776   6.477
   42POPC   C4A 1053  10.897   9.792   6.070
   42POPC   C1B 1054  11.340   9.599   7.130
   42POPC   C2B 1055  11.099   9.630   6.762
   42POPC   C3B 1056  11.015   9.406   6.399
   42POPC   C4B 1057  11.346   9.511   6.103
   43POPC   NC3 1058  11.002   7.209   8.254
   43POPC   PO4 1059  11.098   7.741   7.852
   43POPC   GL1 1060  11.180   7.295   7.615
   43POPC   GL2 1061  10.919   7.077   7.544
   43POPC   C1A 1062  11.475   7.232   7.256
   43POPC   D2A 1063   0.109   6.955   6.907
   43POPC   C3A 1064  11.498   7.171   6.514
   43POPC   C4A 1065  11.342   7.532   6.275
   43POPC   C1B 1066  10.969   7.423   7.203
   43POPC   C2B 1067  11.037   7.757   6.913
   43POPC   C3B 1068  10.881   7.669   6.514
   43POPC   C4B 1069  10.931   7.245   6.366
   44POPC   NC3 1070   1.520   8.048   8.184
   44POPC   PO4 1071   0.869   8.113   8.256
   44POPC   GL1 1072   1.140   8.190   7.839
   44POPC   GL2 1073   1.119   8.553   7.701
   44POPC   C1A 1074   1.393   8.159   7.423
   44POPC   D2A 1075   1.511   8.331   6.986
   44POPC   C3A 1076   1.596   8.211   6.572
   44POPC   C4A 1077   1.363   8.109   6.200
   44POPC   C1B 1078   0.946   8.393   7.322
   44POPC   C2B 1079   1.052   8.137   7.023
   44POPC   C3B 1080   1.080   8.209   6.629
   44POPC   C4B 1081   0.877   8.285   6.248
   45POPC   NC3 1082   3.318   3.401   8.072
   45POPC   PO4 1083   2.676   3.240   8.070
   45POPC   GL1 1084   2.655   3.184   7.653
   45POPC   GL2 1085   2.440   3.470   7.622
   45POPC   C1A 1086   2.859   3.268   7.237
   45POPC   D2A 1087   2.760   3.360   6.787
   45POPC   C3A 1088   2.942   3.380   6.365
   45POPC   C4A 1089   2.962   3.838   6.177
   45POPC   C1B 1090   2.315   3.260   7.264
   45POPC   C2B 1091   2.124   3.486   6.955
   45POPC   C3B 1092   2.339   3.623   6.627
   45POPC   C4B 1093   2.413   3.284   6.384
   46POPC   NC3 1094  10.767   8.854   8.125
   46POPC   PO4 1095  11.322   9.367   8.187
   46POPC   GL1 1096  11.331   9.159   7.765
   46POPC   GL2 1097  11.182   8.844   7.819
   46POPC   C1A 1098  11.486   9.154   7.336
   46POPC   D2A 1099  11.254   9.127   6.920
   46POPC   C3A 1100  11.464   9.145   6.507
   46POPC   C4A 1101  11.221   8.986   6.172
   46POPC   C1B 1102  11.101   8.822   7.366
   46POPC   C2B 1103  11.369   8.618   7.036
   46POPC   C3B 1104  11.330   8.627   6.568
   46POPC   C4B 1105  10.956   8.558   6.275
   47POPC   NC3 1106   0.636   3.000   8.103
   47POPC   PO4 1107   0.182   2.451   8.117
   47POPC   GL1 1108   0.362   2.694   7.794
   47POPC   GL2 1109   0.513   2.437   7.671
   47POPC   C1A 1110   0.464   2.827   7.355
   47POPC   D2A 1111   0.508   3.001   6.951
   47POPC   C3A 1112   0.216   2.977   6.627
   47POPC   C4A 1113   0.400   2.946   6.219
   47POPC   C1B 1114   0.304   2.346   7.282
   47POPC   C2B 1115   0.337   2.511   6.891
   47POPC   C3B 1116   0.353   2.494   6.477
   47POPC   C4B 1117   0.680   2.444   6.216
   48POPC   NC3 1118   5.413   0.397   8.377
   48POPC   PO4 1119   5.957   0.226   7.947
   48POPC   GL1 1120   5.692   0.365   7.612
   48POPC   GL2 1121   5.765   0.626   7.625
   48POPC   C1A 1122   5.540   0.153   7.236
   48POPC   D2A 1123   5.621   0.379   6.867
   48POPC   C3A 1124   5.620   0.162   6.511
   48POPC   C4A 1125   5.393  11.428   6.229
   48POPC   C1B 1126   6.001   0.407   7.248
   48POPC   C2B 1127   6.201   0.616   6.973
   48POPC   C3B 1128   6.086   0.721   6.605
   48POPC   C4B 1129   5.887   0.495   6.226
   49POPC   NC3 1130  10.638   4.897   8.198
   49POPC   PO4 1131  10.768   5.536   8.123
   49POPC   GL1 1132  10.731   5.249   7.747
   49POPC   GL2 1133  10.443   5.025   7.742
   49POPC   C1A 1134  10.620   5.111   7.280
   49POPC   D2A 1135  10.503   5.052   6.850
   49POPC   C3A 1136  10.456   4.930   6.437
   49POPC   C4A 1137  10.669   5.089   6.125
   49POPC   C1B 1138  10.235   5.355   7.476
   49POPC   C2B 1139  10.198   5.426   6.996
   49POPC   C3B 1140  10.199   5.365   6.521
   49POPC   C4B 1141   9.885   5.167   6.206
   50POPC   NC3 1142   8.094  10.703   7.940
   50POPC   PO4 1143   8.520  10.252   7.968
   50POPC   GL1 1144   8.353  10.196   7.586
   50POPC   GL2 1145   8.112  10.488   7.483
   50POPC   C1A 1146   8.177  10.095   7.186
   50POPC   D2A 1147   8.044  10.245   6.799
   50POPC   C3A 1148   8.261  10.021   6.553
   50POPC   C4A 1149   8.473  10.110   6.214
   50POPC   C1B 1150   7.799  10.548   7.128
   50POPC   C2B 1151   7.552  10.719   6.829
   50POPC   C3B 1152   7.865  10.682   6.547
   50POPC   C4B 1153   7.947  10.328   6.285
   51POPC   NC3 1154   9.910   1.706   8.038
   51POPC   PO4 1155   9.282   1.577   8.293
   51POPC   GL1 1156   9.431   1.884   7.856
   51POPC   GL2 1157   9.730   2.125   7.750
   51POPC   C1A 1158   9.436   1.942   7.363
   51POPC   D2A 1159   9.698   1.881   6.956
   51POPC   C3A 1160   9.517   1.951   6.536
   51POPC   C4A 1161   9.328   1.796   6.146
   51POPC   C1B 1162   9.835   2.255   7.305
   51POPC   C2B 1163   9.522   2.378   6.969
   51POPC   C3B 1164   9.501   2.469   6.516
   51POPC   C4B 1165   9.829   2.263   6.241
   52POPC   NC3 1166  10.475   2.222   8.169
   52POPC   PO4 1167  10.774   1.652   8.353
   52POPC   GL1 1168  10.814   2.000   7.865
   52POPC   GL2 1169  10.447   2.101   7.633
   52POPC   C1A 1170  10.838   2.130   7.364
   52POPC   D2A 1171  10.601   1.911   7.001
   52POPC   C3A 1172  10.559   2.081   6.544
   52POPC   C4A 1173  10.569   2.090   6.075
   52POPC   C1B 1174  10.158   1.847   7.338
   52POPC   C2B 1175  10.130   1.564   6.979
   52POPC   C3B 1176  10.138   1.737   6.571
   52POPC   C4B 1177  10.121   1.861   6.142
   53POPC   NC3 1178   2.853   5.797   8.325
   53POPC   PO4 1179   3.255   6.189   8.193
   53POPC   GL1 1180   2.905   6.001   7.848
   53POPC   GL2 1181   2.610   5.701   7.755
   53POPC   C1A 1182   2.896   5.903   7.397
   53POPC   D2A 1183   2.941   6.046   6.980
   53POPC   C3A 1184   3.038   5.764   6.624
   53POPC   C4A 1185   3.094   5.874   6.174
   53POPC   C1B 1186   2.447   5.668   7.258
   53POPC   C2B 1187   2.566   5.585   6.767
   53POPC   C3B 1188   2.612   5.822   6.344
   53POPC   C4B 1189   2.463   6.190   6.207
   54POPC   NC3 1190   8.947   9.269   8.114
   54POPC   PO4 1191   8.957   9.948   8.232
   54POPC   GL1 1192   8.820   9.874   7.753
   54POPC   GL2 1193   8.762   9.516   7.709
   54POPC   C1A 1194   8.760   9.977   7.292
   54POPC   D2A 1195   8.971   9.868   6.862
   54POPC   C3A 1196   8.716   9.734   6.475
   54POPC   C4A 1197   8.688   9.632   5.993
   54POPC   C1B 1198   9.066   9.549   7.352
   54POPC   C2B 1199   9.174   9.315   6.978
   54POPC   C3B 1200   9.157   9.341   6.535
   54POPC   C4B 1201   9.144   9.635   6.195
   55POPC   NC3 1202   9.710   0.221   7.968
   55POPC   PO4 1203   9.189  11.385   8.066
   55POPC   GL1 1204   9.260   0.175   7.720
   55POPC   GL2 1205   9.421   0.518   7.640
   55POPC   C1A 1206   9.492   0.107   7.324
   55POPC   D2A 1207   9.482   0.343   6.946
   55POPC   C3A 1208   9.339   0.128   6.581
   55POPC   C4A 1209   9.310   0.326   6.185
   55POPC   C1B 1210   9.813   0.527   7.340
   55POPC   C2B 1211   9.890   0.657   6.878
   55POPC   C3B 1212   9.741   0.472   6.472
   55POPC   C4B 1213   9.769   0.488   6.011
   56POPC   NC3 1214   0.228   8.209   8.372
   56POPC   PO4 1215   0.286   7.825   7.872
   56POPC   GL1 1216   0.288   8.190   7.657
   56POPC   GL2 1217   0.632   8.277   7.701
   56POPC   C1A 1218   0.311   8.156   7.224
   56POPC   D2A 1219   0.575   8.178   6.878
   56POPC   C3A 1220   0.401   8.274   6.507
   56POPC   C4A 1221   0.364   8.085   6.135
   56POPC   C1B 1222   0.738   7.918   7.371
   56POPC   C2B 1223   0.778   7.712   6.916
   56POPC   C3B 1224   0.736   7.853   6.456
   56POPC   C4B 1225   0.760   7.867   5.937
   57POPC   NC3 1226   0.569   4.096   7.960
   57POPC   PO4 1227   0.395   3.411   8.103
   57POPC   GL1 1228   0.477   3.586   7.729
   57POPC   GL2 1229   0.617   3.268   7.639
   57POPC   C1A 1230   0.434   3.795   7.336
   57POPC   D2A 1231   0.667   3.854   6.939
   57POPC   C3A 1232   0.492   3.847   6.552
   57POPC   C4A 1233   0.644   3.715   6.132
   57POPC   C1B 1234   0.275   3.305   7.324
   57POPC   C2B 1235   0.330   3.472   6.908
   57POPC   C3B 1236   0.563   3.348   6.529
   57POPC   C4B 1237   0.217   3.448   6.229
   58POPC   NC3 1238   5.172  10.953   8.154
   58POPC   PO4 1239   4.974   0.053   7.997
   58POPC   GL1 1240   4.843  11.348   7.630
   58POPC   GL2 1241   4.959  11.050   7.693
   58POPC   C1A 1242   5.097  11.366   7.254
   58POPC   D2A 1243   5.282  11.391   6.840
   58POPC   C3A 1244   4.921  11.417   6.553
   58POPC   C4A 1245   4.900  11.493   6.125
   58POPC   C1B 1246   5.105  10.858   7.313
   58POPC   C2B 1247   5.211  10.800   6.884
   58POPC   C3B 1248   5.204  11.009   6.483
   58POPC   C4B 1249   5.191  10.987   6.027
   59POPC   NC3 1250   2.933   0.281   8.083
   59POPC   PO4 1251   2.460   0.812   7.951
   59POPC   GL1 1252   2.773   0.633   7.700
   59POPC   GL2 1253   2.572   0.336   7.691
   59POPC   C1A 1254   3.001   0.536   7.329
   59POPC   D2A 1255   2.913   0.304   6.959
   59POPC   C3A 1256   2.943   0.449   6.546
   59POPC   C4A 1257   2.881   0.248   6.162
   59POPC   C1B 1258   2.477   0.436   7.250
   59POPC   C2B 1259   2.289   0.701   6.910
   59POPC   C3B 1260   2.197   0.755   6.473
   59POPC   C4B 1261   2.492   0.719   6.067
   60POPC   NC3 1262   8.975   1.250   8.149
   60POPC   PO4 1263   8.328   1.363   8.083
   60POPC   GL1 1264   8.661   1.342   7.724
   60POPC   GL2 1265   8.886   1.073   7.663
   60POPC   C1A 1266   8.679   1.325   7.250
   60POPC   D2A 1267   8.884   1.268   6.827
   60POPC   C3A 1268   8.628   1.380   6.468
   60POPC   C4A 1269   8.678   1.341   5.973
   60POPC   C1B 1270   9.136   1.102   7.262
   60POPC   C2B 1271   9.204   0.820   6.934
   60POPC   C3B 1272   9.245   1.008   6.569
   60POPC   C4B 1273   9.089   1.306   6.269
   61POPC   NC3 1274   2.330  10.409   7.946
   61POPC   PO4 1275   1.726  10.689   8.131
   61POPC   GL1 1276   1.853  10.520   7.732
   61POPC   GL2 1277   1.865  10.138   7.744
   61POPC   C1A 1278   1.756  10.650   7.316
   61POPC   D2A 1279   1.696  10.850   6.929
   61POPC   C3A 1280   1.930  10.725   6.581
   61POPC   C4A 1281   1.810  10.671   6.188
   61POPC   C1B 1282   2.061  10.232   7.344
   61POPC   C2B 1283   1.998  10.380   6.938
   61POPC   C3B 1284   2.118  10.208   6.515
   61POPC   C4B 1285   2.014  10.240   6.060
   62POPC   NC3 1286   0.326   4.556   8.330
   62POPC   PO4 1287   0.068   4.100   8.032
   62POPC   GL1 1288   0.089   4.419   7.749
   62POPC   GL2 1289   0.373   4.538   7.781
   62POPC   C1A 1290   0.252   4.274   7.354
   62POPC   D2A 1291   0.216   4.074   6.966
   62POPC   C3A 1292   0.163   4.265   6.582
   62POPC   C4A 1293   0.224   4.045   6.186
   62POPC   C1B 1294   0.576   4.651   7.409
   62POPC   C2B 1295   0.671   4.503   6.989
   62POPC   C3B 1296   0.517   4.633   6.605
   62POPC   C4B 1297   0.534   4.448   6.201
   63POPC   NC3 1298   1.170   8.860   8.109
   63POPC   PO4 1299   1.565   9.477   8.119
   63POPC   GL1 1300   1.397   9.294   7.730
   63POPC   GL2 1301   1.068   9.112   7.683
   63POPC   C1A 1302   1.354   9.175   7.284
   63POPC   D2A 1303   1.103   9.226   6.928
   63POPC   C3A 1304   1.341   9.174   6.588
   63POPC   C4A 1305   1.221   9.079   6.191
   63POPC   C1B 1306   0.939   8.894   7.306
   63POPC   C2B 1307   1.165   8.706   6.939
   63POPC   C3B 1308   1.103   8.698   6.500
   63POPC   C4B 1309   0.799   8.771   6.157
   64POPC   NC3 1310   9.809  10.854   8.105
   64POPC   PO4 1311  10.121   0.040   8.135
   64POPC   GL1 1312   9.947  11.250   7.820
   64POPC   GL2 1313   9.579  11.243   7.724
   64POPC   C1A 1314   9.931  11.014   7.424
   64POPC   D2A 1315   9.867  11.218   6.997
   64POPC   C3A 1316   9.927  11.081   6.573
   64POPC   C4A 1317   9.847  10.836   6.220
   64POPC   C1B 1318   9.455  11.091   7.276
   64POPC   C2B 1319   9.317  11.134   6.842
   64POPC   C3B 1320   9.437  11.152   6.395
   64POPC   C4B 1321   9.239  11.344   5.995
   65POPC   NC3 1322   0.738   7.703   8.017
   65POPC   PO4 1323   1.405   7.667   7.944
   65POPC   GL1 1324   1.110   7.565   7.688
   65POPC   GL2 1325   1.131   7.225   7.833
   65POPC   C1A 1326   1.177   7.681   7.267
   65POPC   D2A 1327   1.434   7.815   6.949
   65POPC   C3A 1328   1.235   7.727   6.594
   65POPC   C4A 1329   1.129   7.638   6.211
   65POPC   C1B 1330   1.200   7.171   7.374
   65POPC   C2B 1331   0.970   7.115   6.956
   65POPC   C3B 1332   1.012   7.200   6.497
   65POPC   C4B 1333   1.454   7.261   6.339
   66POPC   NC3 1334   8.893   0.253   8.142
   66POPC   PO4 1335   9.172   0.826   8.091
   66POPC   GL1 1336   8.902   0.576   7.739
   66POPC   GL2 1337   8.700   0.247   7.675
   66POPC   C1A 1338   8.844   0.688   7.292
   66POPC   D2A 1339   8.659   0.822   6.872
   66POPC   C3A 1340   8.732   0.903   6.381
   66POPC   C4A 1341   8.625   0.812   5.904
   66POPC   C1B 1342   8.959   0.187   7.313
   66POPC   C2B 1343   8.879   0.326   6.917
   66POPC   C3B 1344   8.991   0.510   6.567
   66POPC   C4B 1345   8.776   0.430   6.209
   67POPC   NC3 1346   4.285   2.992   8.273
   67POPC   PO4 1347   3.669   3.124   8.106
   67POPC   GL1 1348   4.025   3.053   7.794
   67POPC   GL2 1349   4.342   2.825   7.725
   67POPC   C1A 1350   4.006   2.940   7.352
   67POPC   D2A 1351   4.142   2.764   6.952
   67POPC   C3A 1352   4.234   2.913   6.522
   67POPC   C4A 1353   4.407   3.072   6.128
   67POPC   C1B 1354   4.338   2.477   7.352
   67POPC   C2B 1355   4.155   2.266   6.948
   67POPC   C3B 1356   4.224   2.396   6.520
   67POPC   C4B 1357   4.564   2.564   6.270
   68POPC   NC3 1358   9.945   9.329   8.155
   68POPC   PO4 1359   9.791   8.719   8.097
   68POPC   GL1 1360   9.725   8.916   7.713
   68POPC   GL2 1361   9.350   8.913   7.679
   68POPC   C1A 1362   9.964   8.995   7.329
   68POPC   D2A 1363   9.913   8.770   6.912
   68POPC   C3A 1364   9.884   8.940   6.448
   68POPC   C4A 1365  10.001   9.170   6.020
   68POPC   C1B 1366   9.396   8.903   7.204
   68POPC   C2B 1367   9.446   8.939   6.737
   68POPC   C3B 1368   9.386   8.852   6.354
   68POPC   C4B 1369   9.165   8.463   6.401
   69POPC   NC3 1370  11.466   3.644   8.130
   69POPC   PO4 1371  10.791   3.474   7.956
   69POPC   GL1 1372  10.814   3.567   7.549
   69POPC   GL2 1373  11.132   3.443   7.543
   69POPC   C1A 1374  10.905   3.763   7.173
   69POPC   D2A 1375  10.933   3.640   6.748
   69POPC   C3A 1376  10.743   3.877   6.426
   69POPC   C4A 1377  10.977   3.728   6.053
   69POPC   C1B 1378  11.261   3.137   7.261
   69POPC   C2B 1379  11.329   3.255   6.836
   69POPC   C3B 1380  11.255   3.247   6.380
   69POPC   C4B 1381  10.998   2.955   6.140
   70POPC   NC3 1382   1.212   5.955   7.950
   70POPC   PO4 1383   0.849   5.442   8.112
   70POPC   GL1 1384   0.982   5.575   7.698
   70POPC   GL2 1385   1.330   5.513   7.709
   70POPC   C1A 1386   0.856   5.460   7.260
   70POPC   D2A 1387   0.649   5.486   6.868
   70POPC   C3A 1388   0.903   5.388   6.482
   70POPC   C4A 1389   1.055   5.449   6.047
   70POPC   C1B 1390   1.284   5.738   7.298
   70POPC   C2B 1391   1.201   5.579   6.872
   70POPC   C3B 1392   1.259   5.743   6.447
   70POPC   C4B 1393   1.335   5.905   6.047
   71POPC   NC3 1394   9.842   6.556   8.045
   71POPC   PO4 1395  10.483   6.393   7.877
   71POPC   GL1 1396  10.581   6.366   7.528
   71POPC   GL2 1397  10.847   6.499   7.479
   71POPC   C1A 1398  10.500   6.288   7.144
   71POPC   D2A 1399  10.571   6.334   6.737
   71POPC   C3A 1400  10.257   6.562   6.552
   71POPC   C4A 1401   9.972   6.536   6.251
   71POPC   C1B 1402  10.708   6.753   7.198
   71POPC   C2B 1403  10.628   6.823   6.810
   71POPC   C3B 1404  10.708   6.726   6.392
   71POPC   C4B 1405  10.404   6.763   6.073
   72POPC   NC3 1406   2.868   1.017   8.028
   72POPC   PO4 1407   3.064   1.599   8.077
   72POPC   GL1 1408   3.006   1.357   7.675
   72POPC   GL2 1409   2.681   1.176   7.605
   72POPC   C1A 1410   2.869   1.438   7.233
   72POPC   D2A 1411   2.744   1.628   6.883
   72POPC   C3A 1412   2.780   1.426   6.533
   72POPC   C4A 1413   2.655   1.614   6.193
   72POPC   C1B 1414   2.621   0.946   7.253
   72POPC   C2B 1415   2.835   0.825   6.887
   72POPC   C3B 1416   2.685   0.910   6.495
   72POPC   C4B 1417   2.391   1.185   6.302
   73POPC   NC3 1418   9.697   7.606   8.067
   73POPC   PO4 1419   9.684   6.983   7.991
   73POPC   GL1 1420   9.610   7.328   7.637
   73POPC   GL2 1421   9.822   7.639   7.572
   73POPC   C1A 1422   9.491   7.484   7.191
   73POPC   D2A 1423   9.523   7.394   6.718
   73POPC   C3A 1424   9.339   7.090   6.383
   73POPC   C4A 1425   9.328   6.853   5.960
   73POPC   C1B 1426   9.979   7.350   7.237
   73POPC   C2B 1427  10.042   7.304   6.783
   73POPC   C3B 1428   9.862   7.202   6.369
   73POPC   C4B 1429   9.853   6.965   5.984
   74POPC   NC3 1430  10.674   3.905   8.079
   74POPC   PO4 1431  10.670   4.572   7.875
   74POPC   GL1 1432  10.761   4.361   7.500
   74POPC   GL2 1433  10.643   4.057   7.601
   74POPC   C1A 1434  10.784   4.283   7.094
   74POPC   D2A 1435  10.687   4.580   6.807
   74POPC   C3A 1436  10.633   4.465   6.419
   74POPC   C4A 1437  10.653   4.609   6.002
   74POPC   C1B 1438  10.446   3.927   7.256
   74POPC   C2B 1439  10.488   3.928   6.861
   74POPC   C3B 1440  10.265   4.139   6.585
   74POPC   C4B 1441  10.316   4.149   6.187
   75POPC   NC3 1442   4.910  10.352   8.167
   75POPC   PO4 1443   5.491  10.033   7.966
   75POPC   GL1 1444   5.293  10.282   7.650
   75POPC   GL2 1445   5.058  10.550   7.723
   75POPC   C1A 1446   5.186  10.242   7.195
   75POPC   D2A 1447   5.064  10.245   6.744
   75POPC   C3A 1448   4.978   9.926   6.381
   75POPC   C4A 1449   4.944   9.917   5.873
   75POPC   C1B 1450   4.756  10.484   7.358
   75POPC   C2B 1451   4.687  10.634   6.902
   75POPC   C3B 1452   4.881  10.610   6.451
   75POPC   C4B 1453   5.081  10.355   6.105
   76POPC   NC3 1454   7.648   8.249   8.012
   76POPC   PO4 1455   7.068   8.402   7.871
   76POPC   GL1 1456   7.272   8.542   7.526
   76POPC   GL2 1457   7.503   8.307   7.525
   76POPC   C1A 1458   7.255   8.555   7.074
   76POPC   D2A 1459   7.203   8.236   6.754
   76POPC   C3A 1460   7.081   8.331   6.354
   76POPC   C4A 1461   7.084   8.645   6.049
   76POPC   C1B 1462   7.345   8.040   7.214
   76POPC   C2B 1463   7.526   7.854   6.832
   76POPC   C3B 1464   7.408   7.901   6.374
   76POPC   C4B 1465   7.502   7.785   5.915
   77POPC   NC3 1466   2.443  11.237   8.494
   77POPC   PO4 1467   3.058  11.389   8.311
   77POPC   GL1 1468   2.776  11.386   7.830
   77POPC   GL2 1469   2.538  11.119   7.807
   77POPC   C1A 1470   2.789   0.004   7.367
   77POPC   D2A 1471   2.906  11.306   6.952
   77POPC   C3A 1472   2.713  11.473   6.560
   77POPC   C4A 1473   2.455  11.433   6.183
   77POPC   C1B 1474   2.717  11.001   7.382
   77POPC   C2B 1475   2.690  10.861   6.959
   77POPC   C3B 1476   2.792  10.973   6.534
   77POPC   C4B 1477   2.624  10.927   6.111
   78POPC   NC3 1478   7.805   0.624   8.023
   78POPC   PO4 1479   8.489   0.495   8.108
   78POPC   GL1 1480   8.269   0.550   7.740
   78POPC   GL2 1481   8.118   0.266   7.774
   78POPC   C1A 1482   8.380   0.492   7.328
   78POPC   D2A 1483   8.202   0.591   6.951
   78POPC   C3A 1484   8.423   0.475   6.584
   78POPC   C4A 1485   8.232   0.575   6.207
   78POPC   C1B 1486   7.870   0.390   7.404
   78POPC   C2B 1487   7.859   0.211   7.005
   78POPC   C3B 1488   7.852   0.427   6.595
   78POPC   C4B 1489   7.725   0.154   6.280
   79POPC   NC3 1490   2.029   0.510   8.013
   79POPC   PO4 1491   2.449   0.063   8.180
   79POPC   GL1 1492   2.162   0.029   7.804
   79POPC   GL2 1493   1.901   0.239   7.596
   79POPC   C1A 1494   2.245  11.448   7.372
   79POPC   D2A 1495   2.425  11.482   6.975
   79POPC   C3A 1496   2.185   0.089   6.592
   79POPC   C4A 1497   2.156   0.342   6.208
   79POPC   C1B 1498   1.896   0.381   7.158
   79POPC   C2B 1499   1.761   0.325   6.730
   79POPC   C3B 1500   1.703   0.580   6.362
   79POPC   C4B 1501   1.709   0.434   5.956
   80POPC   NC3 1502  10.817   3.376   8.394
   80POPC   PO4 1503  10.167   3.334   8.256
   80POPC   GL1 1504  10.336   3.347   7.761
   80POPC   GL2 1505  10.326   3.634   7.638
   80POPC   C1A 1506  10.635   3.084   7.454
   80POPC   D2A 1507  10.804   3.266   7.082
   80POPC   C3A 1508  10.815   3.117   6.656
   80POPC   C4A 1509  10.734   3.378   6.324
   80POPC   C1B 1510  10.327   3.431   7.236
   80POPC   C2B 1511  10.239   3.487   6.807
   80POPC   C3B 1512  10.282   3.646   6.386
   80POPC   C4B 1513  10.485   3.713   5.993
   81POPC   NC3 1514  10.812   6.724   7.933
   81POPC   PO4 1515  10.603   7.357   8.114
   81POPC   GL1 1516  10.452   7.175   7.727
   81POPC   GL2 1517  10.115   7.281   7.778
   81POPC   C1A 1518  10.493   7.204   7.246
   81POPC   D2A 1519  10.661   7.317   6.820
   81POPC   C3A 1520  10.423   7.157   6.477
   81POPC   C4A 1521  10.508   7.287   6.105
   81POPC   C1B 1522  10.323   7.619   7.493
   81POPC   C2B 1523  10.350   7.650   7.026
   81POPC   C3B 1524  10.360   7.672   6.572
   81POPC   C4B 1525  10.114   7.600   6.186
   82POPC   NC3 1526   0.551   9.925   7.915
   82POPC   PO4 1527   0.797   9.237   8.095
   82POPC   GL1 1528   0.706   9.471   7.735
   82POPC   GL2 1529   0.330   9.496   7.729
   82POPC   C1A 1530   0.861   9.448   7.313
   82POPC   D2A 1531   0.699   9.685   6.930
   82POPC   C3A 1532   0.549   9.559   6.514
   82POPC   C4A 1533   0.840   9.451   6.191
   82POPC   C1B 1534   0.349   9.582   7.303
   82POPC   C2B 1535   0.240   9.902   7.011
   82POPC   C3B 1536   0.005   9.928   6.650
   82POPC   C4B 1537   0.185   9.877   6.250
   83POPC   NC3 1538   3.324   1.965   7.981
   83POPC   PO4 1539   3.911   1.637   8.244
   83POPC   GL1 1540   3.642   1.605   7.753
   83POPC   GL2 1541   3.528   1.945   7.517
   83POPC   C1A 1542   3.351   1.525   7.367
   83POPC   D2A 1543   3.491   1.625   6.986
   83POPC   C3A 1544   3.383   1.554   6.589
   83POPC   C4A 1545   3.510   1.832   6.260
   83POPC   C1B 1546   3.463   2.201   7.134
   83POPC   C2B 1547   3.277   2.461   6.816
   83POPC   C3B 1548   3.393   2.332   6.403
   83POPC   C4B 1549   3.800   2.315   6.225
   84POPC   NC3 1550   6.658  10.711   7.979
   84POPC   PO4 1551   7.077  10.255   8.189
   84POPC   GL1 1552   6.874  10.293   7.757
   84POPC   GL2 1553   6.476  10.288   7.722
   84POPC   C1A 1554   6.801  10.500   7.346
   84POPC   D2A 1555   6.523  10.573   6.988
   84POPC   C3A 1556   6.577  10.472   6.543
   84POPC   C4A 1557   6.683  10.818   6.328
   84POPC   C1B 1558   6.457  10.135   7.275
   84POPC   C2B 1559   6.616  10.059   6.836
   84POPC   C3B 1560   6.486   9.965   6.385
   84POPC   C4B 1561   6.501   9.965   5.906
   85POPC   NC3 1562   9.703   2.681   7.967
   85POPC   PO4 1563   9.107   2.448   7.917
   85POPC   GL1 1564   9.265   2.787   7.650
   85POPC   GL2 1565   9.474   2.538   7.522
   85POPC   C1A 1566   9.350   3.068   7.260
   85POPC   D2A 1567   9.451   2.888   6.844
   85POPC   C3A 1568   9.493   3.002   6.418
   85POPC   C4A 1569   9.493   2.770   6.052
   85POPC   C1B 1570   9.730   2.754   7.238
   85POPC   C2B 1571   9.968   2.643   6.883
   85POPC   C3B 1572   9.955   2.711   6.448
   85POPC   C4B 1573   9.958   2.982   6.114
   86POPC   NC3 1574   0.215   9.157   8.090
   86POPC   PO4 1575   0.010   8.552   8.141
   86POPC   GL1 1576   0.238   8.720   7.743
   86POPC   GL2 1577   0.615   8.830   7.791
   86POPC   C1A 1578   0.471   8.618   7.332
   86POPC   D2A 1579   0.660   8.679   6.908
   86POPC   C3A 1580   0.351   8.775   6.582
   86POPC   C4A 1581   0.277   8.643   6.144
   86POPC   C1B 1582   0.493   9.106   7.440
   86POPC   C2B 1583   0.572   9.179   6.985
   86POPC   C3B 1584   0.758   9.095   6.566
   86POPC   C4B 1585   0.446   9.129   6.217
   87POPC   NC3 1586   6.242   2.415   8.154
   87POPC   PO4 1587   6.833   2.394   8.020
   87POPC   GL1 1588   6.761   2.251   7.617
   87POPC   GL2 1589   6.506   2.487   7.567
   87POPC   C1A 1590   6.727   2.260   7.149
   87POPC   D2A 1591   6.653   2.466   6.748
   87POPC   C3A 1592   6.580   2.338   6.331
   87POPC   C4A 1593   6.784   2.620   6.024
   87POPC   C1B 1594   6.429   2.700   7.150
   87POPC   C2B 1595   6.458   2.940   6.746
   87POPC   C3B 1596   6.376   2.806   6.319
   87POPC   C4B 1597   6.138   2.924   5.949
   88POPC   NC3 1598   5.862  10.306   7.864
   88POPC   PO4 1599   5.363  10.544   8.292
   88POPC   GL1 1600   5.538  10.712   7.827
   88POPC   GL2 1601   5.852  10.861   7.636
   88POPC   C1A 1602   5.549  10.605   7.325
   88POPC   D2A 1603   5.579  10.405   6.884
   88POPC   C3A 1604   5.394  10.541   6.461
   88POPC   C4A 1605   5.512  10.599   5.989
   88POPC   C1B 1606   6.110  10.565   7.321
   88POPC   C2B 1607   6.095  10.312   6.945
   88POPC   C3B 1608   6.004  10.443   6.554
   88POPC   C4B 1609   5.750  10.257   6.268
   89POPC   NC3 1610   1.133   1.918   7.993
   89POPC   PO4 1611   1.582   2.329   8.332
   89POPC   GL1 1612   1.589   2.078   7.849
   89POPC   GL2 1613   1.281   2.190   7.582
   89POPC   C1A 1614   1.653   1.990   7.376
   89POPC   D2A 1615   1.364   2.194   7.068
   89POPC   C3A 1616   1.473   2.210   6.634
   89POPC   C4A 1617   1.148   2.314   6.342
   89POPC   C1B 1618   1.155   1.808   7.340
   89POPC   C2B 1619   0.994   1.785   6.919
   89POPC   C3B 1620   1.188   1.813   6.525
   89POPC   C4B 1621   1.291   1.531   6.213
   90POPC   NC3 1622   6.109   0.730   8.010
   90POPC   PO4 1623   6.861   0.653   7.977
   90POPC   GL1 1624   6.763   0.540   7.575
   90POPC   GL2 1625   6.901   0.243   7.458
   90POPC   C1A 1626   6.690   0.637   7.143
   90POPC   D2A 1627   6.625   0.428   6.781
   90POPC   C3A 1628   6.859   0.586   6.466
   90POPC   C4A 1629   6.732   0.800   6.073
   90POPC   C1B 1630   6.483   0.183   7.269
   90POPC   C2B 1631   6.366  11.485   6.889
   90POPC   C3B 1632   6.197   0.215   6.561
   90POPC   C4B 1633   6.402   0.481   6.288
   91POPC   NC3 1634   4.219   2.066   8.314
   91POPC   PO4 1635   3.776   2.047   7.933
   91POPC   GL1 1636   4.030   2.010   7.588
   91POPC   GL2 1637   4.135   1.684   7.557
   91POPC   C1A 1638   3.878   1.908   7.162
   91POPC   D2A 1639   3.736   1.999   6.716
   91POPC   C3A 1640   4.065   1.928   6.400
   91POPC   C4A 1641   4.281   2.170   6.050
   91POPC   C1B 1642   4.378   1.848   7.205
   91POPC   C2B 1643   4.418   1.790   6.759
   91POPC   C3B 1644   4.567   1.833   6.325
   91POPC   C4B 1645   4.543   1.753   5.873
   92POPC   NC3 1646   7.545  11.167   7.891
   92POPC   PO4 1647   6.828  11.173   7.961
   92POPC   GL1 1648   6.959  10.941   7.579
   92POPC   GL2 1649   7.263  11.142   7.477
   92POPC   C1A 1650   7.061  10.872   7.108
   92POPC   D2A 1651   7.242  11.120   6.794
   92POPC   C3A 1652   7.059  11.146   6.415
   92POPC   C4A 1653   7.072  10.874   6.005
   92POPC   C1B 1654   7.601  11.146   7.161
   92POPC   C2B 1655   7.794  11.191   6.769
   92POPC   C3B 1656   7.613  11.130   6.374
   92POPC   C4B 1657   7.361  11.311   6.044
   93POPC   NC3 1658   0.485  10.483   8.165
   93POPC   PO4 1659   0.096   9.930   7.924
   93POPC   GL1 1660   0.227  10.033   7.520
   93POPC   GL2 1661   0.441  10.329   7.609
   93POPC   C1A 1662   0.112  10.350   7.204
   93POPC   D2A 1663   0.170  10.591   6.824
   93POPC   C3A 1664   0.234  10.350   6.475
   93POPC   C4A 1665   0.612  10.068   6.509
   93POPC   C1B 1666   0.561  10.601   7.248
   93POPC   C2B 1667   0.822  10.737   6.925
   93POPC   C3B 1668   0.693  10.599   6.559
   93POPC   C4B 1669   0.521  10.628   6.161
   94POPC   NC3 1670   4.561   0.555   8.101
   94POPC   PO4 1671   4.038   0.156   7.894
   94POPC   GL1 1672   4.287   0.355   7.572
   94POPC   GL2 1673   4.618   0.306   7.668
   94POPC   C1A 1674   4.174   0.439   7.113
   94POPC   D2A 1675   3.855   0.314   6.746
   94POPC   C3A 1676   4.001   0.451   6.307
   94POPC   C4A 1677   4.365   0.715   6.163
   94POPC   C1B 1678   4.664   0.183   7.245
   94POPC   C2B 1679   4.596   0.232   6.803
   94POPC   C3B 1680   4.489   0.209   6.371
   94POPC   C4B 1681   4.412  11.364   6.073
   95POPC   NC3 1682   7.108   2.032   7.950
   95POPC   PO4 1683   7.764   2.103   8.126
   95POPC   GL1 1684   7.563   2.143   7.672
   95POPC   GL2 1685   7.411   1.817   7.543
   95POPC   C1A 1686   7.583   2.143   7.180
   95POPC   D2A 1687   7.423   1.953   6.777
   95POPC   C3A 1688   7.506   2.137   6.374
   95POPC   C4A 1689   7.454   2.013   5.952
   95POPC   C1B 1690   7.106   1.916   7.179
   95POPC   C2B 1691   6.916   2.002   6.718
   95POPC   C3B 1692   6.999   2.040   6.247
   95POPC   C4B 1693   6.735   2.127   5.885
   96POPC   NC3 1694  11.257   4.468   8.147
   96POPC   PO4 1695  11.060   3.777   8.340
   96POPC   GL1 1696  11.125   3.870   7.836
   96POPC   GL2 1697  11.135   4.177   7.755
   96POPC   C1A 1698  11.354   3.893   7.374
   96POPC   D2A 1699  11.220   4.075   6.911
   96POPC   C3A 1700  11.249   3.974   6.433
   96POPC   C4A 1701  10.951   4.213   6.127
   96POPC   C1B 1702  11.253   4.391   7.351
   96POPC   C2B 1703  11.170   4.598   6.952
   96POPC   C3B 1704  11.135   4.454   6.542
   96POPC   C4B 1705  11.408   4.440   6.178
   97POPC   NC3 1706   8.028   1.714   8.093
   97POPC   PO4 1707   8.531   2.194   8.059
   97POPC   GL1 1708   8.529   1.845   7.763
   97POPC   GL2 1709   8.247   1.628   7.661
   97POPC   C1A 1710   8.526   1.820   7.309
   97POPC   D2A 1711   8.265   1.933   6.957
   97POPC   C3A 1712   8.426   1.892   6.524
   97POPC   C4A 1713   8.292   1.636   6.211
   97POPC   C1B 1714   7.944   1.830   7.407
   97POPC   C2B 1715   7.799   1.690   7.006
   97POPC   C3B 1716   7.891   1.833   6.583
   97POPC   C4B 1717   8.051   2.091   6.236
   98POPC   NC3 1718  11.039   5.883   8.264
   98POPC   PO4 1719   0.101   6.012   7.841
   98POPC   GL1 1720  11.312   5.848   7.574
   98POPC   GL2 1721  11.130   5.637   7.764
   98POPC   C1A 1722  11.336   5.778   7.135
   98POPC   D2A 1723  11.178   5.564   6.768
   98POPC   C3A 1724  11.212   5.756   6.376
   98POPC   C4A 1725  11.015   5.988   6.042
   98POPC   C1B 1726  10.945   5.505   7.356
   98POPC   C2B 1727  10.712   5.527   6.964
   98POPC   C3B 1728  10.732   5.398   6.542
   98POPC   C4B 1729  10.785   5.567   6.148
   99POPC   NC3 1730   1.508   6.489   8.271
   99POPC   PO4 1731   0.907   6.317   8.000
   99POPC   GL1 1732   1.176   6.389   7.683
   99POPC   GL2 1733   1.248   6.726   7.760
   99POPC   C1A 1734   1.156   6.246   7.260
   99POPC   D2A 1735   1.305   6.094   6.843
   99POPC   C3A 1736   1.176   6.262   6.431
   99POPC   C4A 1737   1.477   6.392   6.117
   99POPC   C1B 1738   0.991   6.720   7.338
   99POPC   C2B 1739   1.148   6.620   6.898
   99POPC   C3B 1740   1.293   6.765   6.473
   99POPC   C4B 1741   1.073   6.701   6.093
  100POPC   NC3 1742   1.363   4.390   8.053
  100POPC   PO4 1743   0.724   4.609   8.120
  100POPC   GL1 1744   0.917   4.419   7.698
  100POPC   GL2 1745   1.260   4.186   7.603
  100POPC   C1A 1746   0.843   4.151   7.329
  100POPC   D2A 1747   1.105   4.074   6.955
  100POPC   C3A 1748   0.860   4.217   6.585
  100POPC   C4A 1749   0.987   4.141   6.162
  100POPC   C1B 1750   1.298   4.449   7.262
  100POPC   C2B 1751   1.210   4.549   6.834
  100POPC   C3B 1752   1.331   4.365   6.458
  100POPC   C4B 1753   1.396   4.538   6.079
  101POPC   NC3 1754   7.209   9.830   8.110
  101POPC   PO4 1755   7.320   9.275   7.939
  101POPC   GL1 1756   7.562   9.426   7.624
  101POPC   GL2 1757   7.483   9.751   7.669
  101POPC   C1A 1758   7.449   9.500   7.157
  101POPC   D2A 1759   7.546   9.431   6.724
  101POPC   C3A 1760   7.303   9.671   6.414
  101POPC   C4A 1761   7.071   9.491   6.082
  101POPC   C1B 1762   7.215   9.929   7.328
  101POPC   C2B 1763   7.141   9.944   6.849
  101POPC   C3B 1764   7.001  10.111   6.416
  101POPC   C4B 1765   7.021   9.978   5.958
  102POPC   NC3 1766   2.121   8.573   7.991
  102POPC   PO4 1767   1.490   8.517   8.108
  102POPC   GL1 1768   1.650   8.532   7.725
  102POPC   GL2 1769   1.731   8.885   7.756
  102POPC   C1A 1770   1.506   8.691   7.329
  102POPC   D2A 1771   1.657   8.911   6.926
  102POPC   C3A 1772   1.641   8.723   6.487
  102POPC   C4A 1773   1.764   8.447   6.115
  102POPC   C1B 1774   2.004   8.794   7.399
  102POPC   C2B 1775   2.168   8.881   7.030
  102POPC   C3B 1776   2.130   8.871   6.635
  102POPC   C4B 1777   2.122   8.813   6.224
  103POPC   NC3 1778   2.974   6.509   8.074
  103POPC   PO4 1779   2.455   6.004   8.140
  103POPC   GL1 1780   2.446   6.172   7.679
  103POPC   GL2 1781   2.638   6.451   7.667
  103POPC   C1A 1782   2.493   6.170   7.219
  103POPC   D2A 1783   2.476   6.075   6.768
  103POPC   C3A 1784   2.864   6.231   6.516
  103POPC   C4A 1785   2.948   6.388   6.099
  103POPC   C1B 1786   2.578   6.668   7.258
  103POPC   C2B 1787   2.604   6.544   6.836
  103POPC   C3B 1788   2.613   6.646   6.400
  103POPC   C4B 1789   2.830   6.901   6.093
  104POPC   NC3 1790   7.699   1.403   8.455
  104POPC   PO4 1791   7.170   1.558   7.966
  104POPC   GL1 1792   7.295   1.304   7.599
  104POPC   GL2 1793   7.466   0.987   7.726
  104POPC   C1A 1794   7.345   1.450   7.142
  104POPC   D2A 1795   7.479   1.439   6.682
  104POPC   C3A 1796   7.308   1.614   6.256
  104POPC   C4A 1797   7.442   1.502   5.790
  104POPC   C1B 1798   7.553   0.987   7.280
  104POPC   C2B 1799   7.256   0.978   6.938
  104POPC   C3B 1800   7.104   1.066   6.531
  104POPC   C4B 1801   7.478   1.132   6.266
  105POPC   NC3 1802   3.721  10.273   8.022
  105POPC   PO4 1803   3.262   9.839   8.159
  105POPC   GL1 1804   3.254  10.107   7.794
  105POPC   GL2 1805   3.248  10.491   7.813
  105POPC   C1A 1806   3.204  10.047   7.351
  105POPC   D2A 1807   3.353  10.252   6.971
  105POPC   C3A 1808   3.221  10.103   6.562
  105POPC   C4A 1809   3.511  10.151   6.255
  105POPC   C1B 1810   3.503  10.506   7.416
  105POPC   C2B 1811   3.772  10.525   7.039
  105POPC   C3B 1812   3.604  10.593   6.604
  105POPC   C4B 1813   3.842  10.565   6.213
  106POPC   NC3 1814   0.629   6.724   7.974
  106POPC   PO4 1815   0.253   6.318   8.326
  106POPC   GL1 1816   0.211   6.509   7.847
  106POPC   GL2 1817   0.476   6.336   7.651
  106POPC   C1A 1818   0.182   6.629   7.352
  106POPC   D2A 1819   0.175   6.426   6.922
  106POPC   C3A 1820   0.242   6.638   6.515
  106POPC   C4A 1821   0.250   6.598   6.066
  106POPC   C1B 1822   0.617   6.387   7.220
  106POPC   C2B 1823   0.616   6.726   6.914
  106POPC   C3B 1824   0.788   6.679   6.524
  106POPC   C4B 1825   0.685   6.366   6.240
  107POPC   NC3 1826   5.847  10.562   8.327
  107POPC   PO4 1827   5.615  11.205   8.090
  107POPC   GL1 1828   5.441  11.200   7.665
  107POPC   GL2 1829   5.725  11.365   7.600
  107POPC   C1A 1830   5.551  11.111   7.219
  107POPC   D2A 1831   5.898  10.921   7.028
  107POPC   C3A 1832   5.718  10.857   6.673
  107POPC   C4A 1833   5.662  10.983   6.270
  107POPC   C1B 1834   6.014  11.383   7.291
  107POPC   C2B 1835   5.860  11.420   6.906
  107POPC   C3B 1836   5.975  11.268   6.557
  107POPC   C4B 1837   5.940  11.437   6.198
  108POPC   NC3 1838   9.965   3.646   7.986
  108POPC   PO4 1839   9.892   3.059   7.818
  108POPC   GL1 1840   9.899   3.295   7.490
  108POPC   GL2 1841   9.813   3.627   7.481
  108POPC   C1A 1842   9.841   3.252   7.084
  108POPC   D2A 1843   9.887   3.124   6.719
  108POPC   C3A 1844   9.827   3.409   6.384
  108POPC   C4A 1845   9.636   3.381   5.983
  108POPC   C1B 1846   9.456   3.563   7.175
  108POPC   C2B 1847   9.430   3.397   6.743
  108POPC   C3B 1848   9.303   3.583   6.331
  108POPC   C4B 1849   9.464   3.860   5.988
  109POPC   NC3 1850   2.039   4.597   8.065
  109POPC   PO4 1851   2.025   3.995   8.153
  109POPC   GL1 1852   1.784   4.155   7.793
  109POPC   GL2 1853   2.108   4.179   7.652
  109POPC   C1A 1854   1.713   4.140   7.315
  109POPC   D2A 1855   1.604   4.196   6.856
  109POPC   C3A 1856   1.832   4.416   6.492
  109POPC   C4A 1857   1.901   4.750   6.155
  109POPC   C1B 1858   2.180   3.897   7.287
  109POPC   C2B 1859   2.097   4.008   6.859
  109POPC   C3B 1860   2.267   4.125   6.432
  109POPC   C4B 1861   2.000   4.163   6.062
  110POPC   NC3 1862  10.173   8.431   8.064
  110POPC   PO4 1863  10.356   9.109   8.211
  110POPC   GL1 1864  10.259   8.872   7.796
  110POPC   GL2 1865  10.558   8.665   7.713
  110POPC   C1A 1866  10.188   8.552   7.405
  110POPC   D2A 1867  10.411   8.551   6.984
  110POPC   C3A 1868  10.247   8.594   6.555
  110POPC   C4A 1869  10.278   8.759   6.122
  110POPC   C1B 1870  10.570   8.882   7.354
  110POPC   C2B 1871  10.744   9.004   6.995
  110POPC   C3B 1872  10.684   8.888   6.594
  110POPC   C4B 1873  10.714   9.016   6.204
  111POPC   NC3 1874   0.460   0.563   8.145
  111POPC   PO4 1875   0.301  11.415   8.119
  111POPC   GL1 1876   0.504   0.068   7.719
  111POPC   GL2 1877   0.476   0.443   7.604
  111POPC   C1A 1878   0.448   0.017   7.260
  111POPC   D2A 1879   0.380   0.264   6.869
  111POPC   C3A 1880   0.369   0.056   6.434
  111POPC   C4A 1881   0.456   0.138   5.966
  111POPC   C1B 1882   0.319   0.763   7.258
  111POPC   C2B 1883   0.368   0.808   6.802
  111POPC   C3B 1884   0.572   0.585   6.495
  111POPC   C4B 1885   0.834   0.513   6.161
  112POPC   NC3 1886  10.614   9.568   8.064
  112POPC   PO4 1887   9.944   9.787   8.228
  112POPC   GL1 1888  10.209   9.773   7.824
  112POPC   GL2 1889  10.362   9.422   7.671
  112POPC   C1A 1890  10.250   9.815   7.359
  112POPC   D2A 1891  10.030   9.638   7.003
  112POPC   C3A 1892  10.175   9.642   6.596
  112POPC   C4A 1893   9.980   9.665   6.178
  112POPC   C1B 1894  10.369   9.329   7.235
  112POPC   C2B 1895  10.225   9.151   6.851
  112POPC   C3B 1896  10.310   9.198   6.427
  112POPC   C4B 1897  10.464   9.480   6.117
  113POPC   NC3 1898   9.564  10.005   8.394
  113POPC   PO4 1899   9.285   9.578   7.990
  113POPC   GL1 1900   9.671   9.674   7.793
  113POPC   GL2 1901   9.861   9.419   7.665
  113POPC   C1A 1902   9.699   9.820   7.356
  113POPC   D2A 1903   9.506   9.727   6.953
  113POPC   C3A 1904   9.733   9.900   6.593
  113POPC   C4A 1905   9.535   9.942   6.193
  113POPC   C1B 1906   9.559   9.338   7.384
  113POPC   C2B 1907   9.710   9.260   6.993
  113POPC   C3B 1908   9.730   9.391   6.606
  113POPC   C4B 1909   9.568   9.334   6.231
  114POPC   NC3 1910  10.199  10.296   8.134
  114POPC   PO4 1911  10.851  10.120   8.289
  114POPC   GL1 1912  10.631  10.399   7.840
  114POPC   GL2 1913  10.346  10.258   7.654
  114POPC   C1A 1914  10.715  10.371   7.328
  114POPC   D2A 1915  10.502  10.461   6.931
  114POPC   C3A 1916  10.683  10.563   6.540
  114POPC   C4A 1917  10.756  10.232   6.295
  114POPC   C1B 1918  10.266  10.622   7.371
  114POPC   C2B 1919  10.062  10.722   6.968
  114POPC   C3B 1920  10.176  10.611   6.534
  114POPC   C4B 1921  10.355  10.461   6.097
  115POPC   NC3 1922  10.667   7.846   8.021
  115POPC   PO4 1923   9.991   7.980   8.027
  115POPC   GL1 1924  10.143   8.069   7.644
  115POPC   GL2 1925  10.476   8.152   7.646
  115POPC   C1A 1926  10.204   8.084   7.217
  115POPC   D2A 1927  10.001   8.262   6.903
  115POPC   C3A 1928  10.073   8.092   6.521
  115POPC   C4A 1929  10.077   8.287   6.150
  115POPC   C1B 1930  10.698   7.921   7.304
  115POPC   C2B 1931  10.613   8.067   6.878
  115POPC   C3B 1932  10.563   8.192   6.458
  115POPC   C4B 1933  10.513   7.898   6.126
  116POPC   NC3 1934  11.482   7.479   7.941
  116POPC   PO4 1935   0.633   7.185   7.969
  116POPC   GL1 1936   0.388   7.371   7.652
  116POPC   GL2 1937   0.185   7.047   7.675
  116POPC   C1A 1938   0.323   7.610   7.235
  116POPC   D2A 1939   0.061   7.574   6.837
  116POPC   C3A 1940   0.317   7.577   6.446
  116POPC   C4A 1941   0.663   7.433   6.164
  116POPC   C1B 1942   0.476   7.060   7.281
  116POPC   C2B 1943   0.495   7.275   6.872
  116POPC   C3B 1944   0.495   7.086   6.490
  116POPC   C4B 1945   0.651   6.944   6.091
  117POPC   NC3 1946   8.502   9.811   8.137
  117POPC   PO4 1947   7.850   9.633   8.310
  117POPC   GL1 1948   8.087   9.596   7.877
  117POPC   GL2 1949   7.982   9.883   7.739
  117POPC   C1A 1950   8.358   9.657   7.444
  117POPC   D2A 1951   8.464   9.700   6.953
  117POPC   C3A 1952   8.255   9.519   6.542
  117POPC   C4A 1953   8.193   9.697   6.170
  117POPC   C1B 1954   7.875   9.703   7.330
  117POPC   C2B 1955   7.951   9.728   6.892
  117POPC   C3B 1956   7.796   9.819   6.477
  117POPC   C4B 1957   7.746   9.440   6.222
  118POPC   NC3 1958   3.594   0.382   7.932
  118POPC   PO4 1959   3.801   1.031   7.977
  118POPC   GL1 1960   3.811   0.705   7.616
  118POPC   GL2 1961   3.791   0.350   7.467
  118POPC   C1A 1962   3.555   0.723   7.223
  118POPC   D2A 1963   3.353   0.562   6.854
  118POPC   C3A 1964   3.573   0.722   6.510
  118POPC   C4A 1965   3.622   0.757   6.045
  118POPC   C1B 1966   3.423   0.216   7.237
  118POPC   C2B 1967   3.391  11.440   6.906
  118POPC   C3B 1968   3.240  11.494   6.503
  118POPC   C4B 1969   3.370   0.352   6.251
  119POPC   NC3 1970  11.253   2.319   8.205
  119POPC   PO4 1971  10.705   2.640   8.221
  119POPC   GL1 1972  10.912   2.511   7.830
  119POPC   GL2 1973  11.268   2.664   7.840
  119POPC   C1A 1974  10.991   2.679   7.412
  119POPC   D2A 1975  10.839   2.755   7.026
  119POPC   C3A 1976  10.912   2.413   6.769
  119POPC   C4A 1977  10.924   2.407   6.312
  119POPC   C1B 1978  11.487   2.709   7.459
  119POPC   C2B 1979  11.381   2.697   7.019
  119POPC   C3B 1980  11.216   2.792   6.633
  119POPC   C4B 1981  11.424   2.722   6.287
  120POPC   NC3 1982   8.072  11.409   8.155
  120POPC   PO4 1983   7.755  10.891   8.210
  120POPC   GL1 1984   8.031  11.152   7.735
  120POPC   GL2 1985   7.833  11.389   7.542
  120POPC   C1A 1986   8.116  11.019   7.254
  120POPC   D2A 1987   8.301  11.123   6.843
  120POPC   C3A 1988   8.159  11.069   6.389
  120POPC   C4A 1989   8.005  10.802   6.053
  120POPC   C1B 1990   8.226   0.005   7.364
  120POPC   C2B 1991   8.388   0.112   6.975
  120POPC   C3B 1992   8.163   0.039   6.600
  120POPC   C4B 1993   8.248   0.057   6.193
  121POPC   NC3 1994   5.999   1.554   8.108
  121POPC   PO4 1995   5.335   1.570   8.094
  121POPC   GL1 1996   5.673   1.416   7.744
  121POPC   GL2 1997   5.911   1.105   7.700
  121POPC   C1A 1998   5.911   1.435   7.336
  121POPC   D2A 1999   5.777   1.345   6.929
  121POPC   C3A 2000   5.963   1.330   6.521
  121POPC   C4A 2001   5.743   1.309   6.102
  121POPC   C1B 2002   5.860   0.924   7.245
  121POPC   C2B 2003   5.596   0.880   6.869
  121POPC   C3B 2004   5.669   0.933   6.430
  121POPC   C4B 2005   6.097   0.968   6.169
  122POPC   NC3 2006  10.729   1.509   7.920
  122POPC   PO4 2007  11.339   1.876   8.103
  122POPC   GL1 2008  11.348   2.141   7.729
  122POPC   GL2 2009  11.222   1.833   7.572
  122POPC   C1A 2010  11.310   2.260   7.287
  122POPC   D2A 2011  11.485   2.133   6.907
  122POPC   C3A 2012  11.380   2.298   6.561
  122POPC   C4A 2013  11.373   2.235   6.145
  122POPC   C1B 2014  11.137   1.794   7.118
  122POPC   C2B 2015  11.037   1.930   6.698
  122POPC   C3B 2016  10.997   1.846   6.261
  122POPC   C4B 2017  10.903   1.656   5.844
  123POPC   NC3 2018   1.292   3.500   8.058
  123POPC   PO4 2019   1.035   4.070   8.038
  123POPC   GL1 2020   0.972   3.755   7.705
  123POPC   GL2 2021   1.318   3.638   7.565
  123POPC   C1A 2022   0.892   3.574   7.298
  123POPC   D2A 2023   1.134   3.554   6.920
  123POPC   C3A 2024   0.994   3.707   6.534
  123POPC   C4A 2025   1.143   3.658   6.122
  123POPC   C1B 2026   1.369   3.261   7.273
  123POPC   C2B 2027   1.493   3.199   6.804
  123POPC   C3B 2028   1.244   3.243   6.408
  123POPC   C4B 2029   1.319   3.198   5.918
  124POPC   NC3 2030   9.288  10.031   7.880
  124POPC   PO4 2031   9.764  10.411   8.269
  124POPC   GL1 2032   9.837  10.481   7.773
  124POPC   GL2 2033   9.842  10.148   7.733
  124POPC   C1A 2034   9.626  10.583   7.326
  124POPC   D2A 2035   9.568  10.237   6.985
  124POPC   C3A 2036   9.391  10.271   6.560
  124POPC   C4A 2037   9.381  10.633   6.315
  124POPC   C1B 2038   9.979  10.231   7.292
  124POPC   C2B 2039  10.128  10.119   6.883
  124POPC   C3B 2040  10.224  10.114   6.448
  124POPC   C4B 2041   9.885  10.307   6.235
  125POPC   NC3 2042  11.022   0.606   7.972
  125POPC   PO4 2043   0.120   0.875   8.069
  125POPC   GL1 2044  11.497   0.546   7.736
  125POPC   GL2 2045  11.299   0.221   7.742
  125POPC   C1A 2046   0.043   0.346   7.304
  125POPC   D2A 2047  11.423   0.561   6.925
  125POPC   C3A 2048   0.061   0.488   6.513
  125POPC   C4A 2049  11.481   0.247   6.167
  125POPC   C1B 2050  11.037   0.302   7.363
  125POPC   C2B 2051  10.932   0.283   6.934
  125POPC   C3B 2052  11.073   0.290   6.520
  125POPC   C4B 2053  11.064   0.540   6.194
  126POPC   NC3 2054   0.505   6.045   8.066
  126POPC   PO4 2055  11.450   5.639   8.247
  126POPC   GL1 2056   0.134   5.503   7.758
  126POPC   GL2 2057   0.482   5.644   7.739
  126POPC   C1A 2058   0.306   5.602   7.290
  126POPC   D2A 2059   0.326   5.904   6.979
  126POPC   C3A 2060   0.189   5.678   6.624
  126POPC   C4A 2061   0.389   5.589   6.254
  126POPC   C1B 2062   0.712   5.922   7.432
  126POPC   C2B 2063   0.842   5.941   7.004
  126POPC   C3B 2064   0.757   5.901   6.565
  126POPC   C4B 2065   0.819   5.881   6.132
  127POPC   NC3 2066  10.377   5.987   8.061
  127POPC   PO4 2067  10.900   6.354   8.245
  127POPC   GL1 2068  10.889   6.082   7.819
  127POPC   GL2 2069  10.641   5.788   7.699
  127POPC   C1A 2070  10.893   6.011   7.343
  127POPC   D2A 2071  10.945   6.003   6.898
  127POPC   C3A 2072  10.735   5.911   6.530
  127POPC   C4A 2073  10.574   6.232   6.237
  127POPC   C1B 2074  10.439   5.788   7.304
  127POPC   C2B 2075  10.344   5.895   6.888
  127POPC   C3B 2076  10.189   6.038   6.526
  127POPC   C4B 2077  10.326   5.784   6.257
  128POPC   NC3 2078   2.070   6.318   7.985
  128POPC   PO4 2079   1.748   6.848   8.105
  128POPC   GL1 2080   1.760   6.741   7.651
  128POPC   GL2 2081   1.686   6.424   7.663
  128POPC   C1A 2082   1.605   6.621   7.192
  128POPC   D2A 2083   1.640   6.486   6.735
  128POPC   C3A 2084   1.813   6.769   6.405
  128POPC   C4A 2085   2.231   6.951   6.311
  128POPC   C1B 2086   2.046   6.384   7.367
  128POPC   C2B 2087   2.126   6.418   6.967
  128POPC   C3B 2088   2.155   6.414   6.542
  128POPC   C4B 2089   1.988   6.354   6.135
  129POPC   NC3 2090  10.348   2.960   8.050
  129POPC   PO4 2091  10.028   2.358   8.092
  129POPC   GL1 2092  10.284   2.542   7.799
  129POPC   GL2 2093  10.048   2.622   7.592
  129POPC   C1A 2094  10.509   2.548   7.394
  129POPC   D2A 2095  10.434   2.411   6.963
  129POPC   C3A 2096  10.483   2.620   6.540
  129POPC   C4A 2097  10.292   2.525   6.120
  129POPC   C1B 2098  10.198   2.923   7.268
  129POPC   C2B 2099  10.376   2.993   6.899
  129POPC   C3B 2100  10.320   3.110   6.467
  129POPC   C4B 2101  10.485   3.000   6.093
  130POPC   NC3 2102   4.353  10.514   7.935
  130POPC   PO4 2103   3.721  10.721   8.052
  130POPC   GL1 2104   3.922  10.677   7.699
  130POPC   GL2 2105   3.985  10.369   7.593
  130POPC   C1A 2106   4.010  10.893   7.366
  130POPC   D2A 2107   4.226  10.940   7.002
  130POPC   C3A 2108   4.096  10.749   6.657
  130POPC   C4A 2109   4.362  10.633   6.315
  130POPC   C1B 2110   4.242  10.451   7.246
  130POPC   C2B 2111   4.240  10.299   6.842
  130POPC   C3B 2112   4.569  10.243   6.568
  130POPC   C4B 2113   4.598  10.187   6.147
  131POPC   NC3 2114   0.986   4.993   8.106
  131POPC   PO4 2115   1.620   4.776   8.026
  131POPC   GL1 2116   1.251   4.807   7.656
  131POPC   GL2 2117   0.996   5.085   7.623
  131POPC   C1A 2118   0.991   4.839   7.205
  131POPC   D2A 2119   0.893   4.968   6.785
  131POPC   C3A 2120   0.969   4.733   6.415
  131POPC   C4A 2121   1.119   4.964   6.122
  131POPC   C1B 2122   1.307   5.216   7.301
  131POPC   C2B 2123   1.402   5.019   6.909
  131POPC   C3B 2124   1.482   4.881   6.490
  131POPC   C4B 2125   1.479   5.265   6.282
  132POPC   NC3 2126   5.330   2.020   8.045
  132POPC   PO4 2127   5.973   2.039   8.131
  132POPC   GL1 2128   5.935   1.873   7.689
  132POPC   GL2 2129   5.589   1.904   7.623
  132POPC   C1A 2130   5.877   1.917   7.201
  132POPC   D2A 2131   5.931   1.803   6.754
  132POPC   C3A 2132   6.121   2.120   6.480
  132POPC   C4A 2133   6.021   2.458   6.201
  132POPC   C1B 2134   5.406   1.608   7.333
  132POPC   C2B 2135   5.283   1.445   6.915
  132POPC   C3B 2136   5.475   1.512   6.490
  132POPC   C4B 2137   5.805   1.787   6.237
  133POPC   NC3 2138  11.498  11.242   7.810
  133POPC   PO4 2139   0.192  10.850   8.304
  133POPC   GL1 2140   0.231  10.788   7.777
  133POPC   GL2 2141   0.435  11.052   7.603
  133POPC   C1A 2142   0.098  10.863   7.280
  133POPC   D2A 2143  11.483  11.056   6.841
  133POPC   C3A 2144   0.182  10.930   6.403
  133POPC   C4A 2145   0.150  10.804   5.890
  133POPC   C1B 2146   0.766  11.092   7.301
  133POPC   C2B 2147   0.791  11.280   6.915
  133POPC   C3B 2148   0.653  11.122   6.524
  133POPC   C4B 2149   0.530  11.136   6.075
  134POPC   NC3 2150   2.284   3.617   8.101
  134POPC   PO4 2151   1.679   3.268   8.003
  134POPC   GL1 2152   1.906   3.311   7.615
  134POPC   GL2 2153   1.945   3.666   7.673
  134POPC   C1A 2154   1.837   3.103   7.188
  134POPC   D2A 2155   1.980   3.008   6.770
  134POPC   C3A 2156   1.912   3.361   6.500
  134POPC   C4A 2157   1.631   3.503   6.173
  134POPC   C1B 2158   1.731   3.627   7.254
  134POPC   C2B 2159   1.646   3.689   6.818
  134POPC   C3B 2160   1.824   3.871   6.450
  134POPC   C4B 2161   2.162   3.695   6.167
  135POPC   NC3 2162   1.620   2.881   8.235
  135POPC   PO4 2163   2.205   2.467   8.041
  135POPC   GL1 2164   1.882   2.481   7.773
  135POPC   GL2 2165   1.763   2.825   7.726
  135POPC   C1A 2166   1.715   2.482   7.358
  135POPC   D2A 2167   1.851   2.331   6.966
  135POPC   C3A 2168   1.833   2.557   6.576
  135POPC   C4A 2169   1.611   2.471   6.184
  135POPC   C1B 2170   2.130   2.763   7.408
  135POPC   C2B 2171   2.323   2.493   7.053
  135POPC   C3B 2172   2.343   2.512   6.601
  135POPC   C4B 2173   2.171   2.830   6.304
  136POPC   NC3 2174   2.763   8.878   8.038
  136POPC   PO4 2175   2.490   8.423   7.778
  136POPC   GL1 2176   2.443   8.892   7.623
  136POPC   GL2 2177   2.750   9.109   7.573
  136POPC   C1A 2178   2.366   9.243   7.289
  136POPC   D2A 2179   2.532   9.216   6.857
  136POPC   C3A 2180   2.543   9.090   6.420
  136POPC   C4A 2181   2.569   8.882   5.985
  136POPC   C1B 2182   2.658   8.815   7.185
  136POPC   C2B 2183   2.557   8.625   6.758
  136POPC   C3B 2184   2.819   8.668   6.385
  136POPC   C4B 2185   3.052   9.067   6.250
  137POPC   NC3 2186   2.004   2.063   8.177
  137POPC   PO4 2187   1.497   1.594   8.010
  137POPC   GL1 2188   1.827   1.655   7.714
  137POPC   GL2 2189   2.073   1.928   7.704
  137POPC   C1A 2190   1.861   1.550   7.288
  137POPC   D2A 2191   1.626   1.768   6.927
  137POPC   C3A 2192   1.691   1.681   6.503
  137POPC   C4A 2193   1.762   1.957   6.139
  137POPC   C1B 2194   2.124   2.147   7.365
  137POPC   C2B 2195   2.140   1.910   6.963
  137POPC   C3B 2196   2.024   2.076   6.557
  137POPC   C4B 2197   2.114   2.332   6.178
  138POPC   NC3 2198   1.770  11.109   8.362
  138POPC   PO4 2199   1.688   0.185   8.051
  138POPC   GL1 2200   1.652  11.300   7.794
  138POPC   GL2 2201   1.940  11.059   7.830
  138POPC   C1A 2202   1.710  11.175   7.355
  138POPC   D2A 2203   1.930  11.318   6.980
  138POPC   C3A 2204   1.774  11.232   6.580
  138POPC   C4A 2205   1.753   0.019   6.256
  138POPC   C1B 2206   2.181  10.938   7.463
  138POPC   C2B 2207   2.194  10.869   7.022
  138POPC   C3B 2208   2.300  11.089   6.647
  138POPC   C4B 2209   2.137  11.059   6.238
  139POPC   NC3 2210   4.500  11.478   8.060
  139POPC   PO4 2211   4.718  10.774   8.072
  139POPC   GL1 2212   4.453  10.980   7.741
  139POPC   GL2 2213   4.131  11.156   7.788
  139POPC   C1A 2214   4.602  10.970   7.331
  139POPC   D2A 2215   4.669  11.229   6.984
  139POPC   C3A 2216   4.544  11.043   6.609
  139POPC   C4A 2217   4.727  11.029   6.251
  139POPC   C1B 2218   4.286  11.352   7.388
  139POPC   C2B 2219   4.186  11.450   6.972
  139POPC   C3B 2220   4.161  11.370   6.554
  139POPC   C4B 2221   4.068  11.046   6.253
  140POPC   NC3 2222   9.467   1.184   8.078
  140POPC   PO4 2223  10.062   1.279   8.131
  140POPC   GL1 2224   9.780   1.329   7.707
  140POPC   GL2 2225   9.518   1.052   7.602
  140POPC   C1A 2226   9.669   1.471   7.270
  140POPC   D2A 2227   9.360   1.462   6.899
  140POPC   C3A 2228   9.523   1.447   6.476
  140POPC   C4A 2229   9.891   1.432   6.236
  140POPC   C1B 2230   9.629   0.975   7.184
  140POPC   C2B 2231   9.754   1.146   6.801
  140POPC   C3B 2232   9.783   0.968   6.392
  140POPC   C4B 2233   9.430   0.836   6.146
  141POPC   NC3 2234   2.866  10.051   8.285
  141POPC   PO4 2235   2.722  10.674   8.055
  141POPC   GL1 2236   2.735  10.584   7.663
  141POPC   GL2 2237   2.786  10.242   7.621
  141POPC   C1A 2238   2.468  10.535   7.307
  141POPC   D2A 2239   2.492  10.375   6.914
  141POPC   C3A 2240   2.448  10.600   6.557
  141POPC   C4A 2241   2.489  10.420   6.171
  141POPC   C1B 2242   2.967  10.489   7.220
  141POPC   C2B 2243   2.965  10.508   6.744
  141POPC   C3B 2244   2.981  10.542   6.316
  141POPC   C4B 2245   2.950  10.179   6.116
  142POPC   NC3 2246   6.936   0.171   7.960
  142POPC   PO4 2247   7.683   0.128   7.997
  142POPC   GL1 2248   7.392   0.150   7.649
  142POPC   GL2 2249   7.298   0.487   7.733
  142POPC   C1A 2250   7.324   0.090   7.185
  142POPC   D2A 2251   7.447   0.082   6.724
  142POPC   C3A 2252   7.208   0.187   6.352
  142POPC   C4A 2253   7.398   0.292   5.907
  142POPC   C1B 2254   7.198   0.622   7.322
  142POPC   C2B 2255   7.145   0.484   6.896
  142POPC   C3B 2256   7.381   0.627   6.542
  142POPC   C4B 2257   7.223   0.707   6.150
  143POPC   NC3 2258   2.959   9.636   7.862
  143POPC   PO4 2259   2.430   9.979   8.105
  143POPC   GL1 2260   2.344   9.919   7.673
  143POPC   GL2 2261   2.503   9.600   7.609
  143POPC   C1A 2262   2.526   9.996   7.260
  143POPC   D2A 2263   2.868  10.041   6.955
  143POPC   C3A 2264   2.673  10.075   6.531
  143POPC   C4A 2265   2.416   9.905   6.158
  143POPC   C1B 2266   2.798   9.555   7.220
  143POPC   C2B 2267   2.875   9.579   6.761
  143POPC   C3B 2268   2.787   9.597   6.339
  143POPC   C4B 2269   2.709   9.351   6.004
  144POPC   NC3 2270   1.660   7.296   8.016
  144POPC   PO4 2271   1.930   7.827   8.353
  144POPC   GL1 2272   1.878   7.843   7.865
  144POPC   GL2 2273   2.025   8.137   7.744
  144POPC   C1A 2274   1.773   7.811   7.376
  144POPC   D2A 2275   1.914   7.943   6.915
  144POPC   C3A 2276   1.749   7.738   6.495
  144POPC   C4A 2277   1.772   7.859   6.038
  144POPC   C1B 2278   1.900   8.305   7.325
  144POPC   C2B 2279   1.984   8.446   6.884
  144POPC   C3B 2280   2.136   8.357   6.470
  144POPC   C4B 2281   2.214   8.128   6.074
  145POPC   NC3 2282   2.590   2.766   8.020
  145POPC   PO4 2283   3.091   2.307   8.228
  145POPC   GL1 2284   2.747   2.348   7.761
  145POPC   GL2 2285   2.476   2.457   7.589
  145POPC   C1A 2286   2.843   2.371   7.233
  145POPC   D2A 2287   2.790   2.570   6.837
  145POPC   C3A 2288   2.887   2.384   6.464
  145POPC   C4A 2289   3.031   2.485   6.070
  145POPC   C1B 2290   2.622   2.822   7.287
  145POPC   C2B 2291   2.484   2.956   6.840
  145POPC   C3B 2292   2.683   2.866   6.388
  145POPC   C4B 2293   2.521   3.029   5.943
  146POPC   NC3 2294  11.206   1.495   8.332
  146POPC   PO4 2295  10.794   1.037   8.092
  146POPC   GL1 2296  10.991   1.125   7.668
  146POPC   GL2 2297  11.367   1.108   7.688
  146POPC   C1A 2298  11.082   1.287   7.216
  146POPC   D2A 2299  11.145   1.440   6.747
  146POPC   C3A 2300  10.988   1.294   6.375
  146POPC   C4A 2301  10.681   0.973   6.417
  146POPC   C1B 2302  11.271   0.813   7.351
  146POPC   C2B 2303  10.988   0.813   6.985
  146POPC   C3B 2304  11.166   0.859   6.577
  146POPC   C4B 2305  11.433   0.880   6.205
  147POPC   NC3 2306   1.906   1.288   8.060
  147POPC   PO4 2307   2.334   1.734   8.111
  147POPC   GL1 2308   2.278   1.449   7.715
  147POPC   GL2 2309   2.122   1.113   7.637
  147POPC   C1A 2310   2.369   1.467   7.259
  147POPC   D2A 2311   2.389   1.266   6.829
  147POPC   C3A 2312   2.208   1.592   6.508
  147POPC   C4A 2313   1.949   1.492   6.101
  147POPC   C1B 2314   2.060   1.076   7.194
  147POPC   C2B 2315   1.883   1.314   6.841
  147POPC   C3B 2316   1.873   1.153   6.451
  147POPC   C4B 2317   1.584   1.113   6.107
  148POPC   NC3 2318  11.479  11.241   8.420
  148POPC   PO4 2319  11.246  10.867   7.912
  148POPC   GL1 2320  11.140  11.056   7.516
  148POPC   GL2 2321  10.940  11.336   7.663
  148POPC   C1A 2322  11.327  11.382   7.215
  148POPC   D2A 2323  11.420   0.064   6.807
  148POPC   C3A 2324  11.339  11.326   6.417
  148POPC   C4A 2325   0.053  11.275   6.013
  148POPC   C1B 2326  10.817  11.322   7.244
  148POPC   C2B 2327  10.987  11.282   6.849
  148POPC   C3B 2328  10.828  11.340   6.485
  148POPC   C4B 2329  10.909  11.124   6.173
  149POPC   NC3 2330   5.178   8.846   8.105
  149POPC   PO4 2331   4.647   8.426   8.098
  149POPC   GL1 2332   4.837   8.655   7.718
  149POPC   GL2 2333   4.851   9.031   7.734
  149POPC   C1A 2334   5.054   8.801   7.319
  149POPC   D2A 2335   4.917   8.949   6.913
  149POPC   C3A 2336   4.996   8.785   6.522
  149POPC   C4A 2337   4.693   8.472   6.367
  149POPC   C1B 2338   4.862   9.283   7.337
  149POPC   C2B 2339   4.731   9.417   6.924
  149POPC   C3B 2340   4.861   9.356   6.496
  149POPC   C4B 2341   5.094   9.484   6.111
  150POPC   NC3 2342   4.377   9.521   8.081
  150POPC   PO4 2343   4.497  10.104   8.059
  150POPC   GL1 2344   4.172   9.911   7.748
  150POPC   GL2 2345   4.082   9.539   7.670
  150POPC   C1A 2346   4.215   9.905   7.277
  150POPC   D2A 2347   4.520   9.878   6.928
  150POPC   C3A 2348   4.303   9.832   6.520
  150POPC   C4A 2349   4.084  10.102   6.240
  150POPC   C1B 2350   4.334   9.384   7.309
  150POPC   C2B 2351   4.202   9.473   6.884
  150POPC   C3B 2352   4.205   9.342   6.448
  150POPC   C4B 2353   4.119   9.540   6.056
  151POPC   NC3 2354   8.959   2.015   8.028
  151POPC   PO4 2355   9.202   1.442   7.797
  151POPC   GL1 2356   8.992   1.722   7.574
  151POPC   GL2 2357   8.971   2.096   7.540
  151POPC   C1A 2358   9.014   1.713   7.169
  151POPC   D2A 2359   8.762   1.749   6.866
  151POPC   C3A 2360   9.011   1.717   6.546
  151POPC   C4A 2361   8.811   1.776   6.177
  151POPC   C1B 2362   8.844   2.192   7.134
  151POPC   C2B 2363   9.110   2.150   6.783
  151POPC   C3B 2364   9.081   2.201   6.336
  151POPC   C4B 2365   8.687   2.322   6.146
  152POPC   NC3 2366  10.559  11.313   8.035
  152POPC   PO4 2367  10.260  10.757   8.035
  152POPC   GL1 2368  10.402  11.013   7.650
  152POPC   GL2 2369  10.387  11.362   7.585
  152POPC   C1A 2370  10.364  11.091   7.184
  152POPC   D2A 2371  10.607  10.956   6.906
  152POPC   C3A 2372  10.433  11.053   6.587
  152POPC   C4A 2373  10.434  10.937   6.207
  152POPC   C1B 2374  10.037   0.029   7.389
  152POPC   C2B 2375  10.032   0.199   6.997
  152POPC   C3B 2376  10.055   0.084   6.575
  152POPC   C4B 2377  10.273  11.412   6.242
  153POPC   NC3 2378   2.019   9.530   8.184
  153POPC   PO4 2379   2.326   8.984   8.097
  153POPC   GL1 2380   2.089   9.258   7.733
  153POPC   GL2 2381   1.873   9.587   7.705
  153POPC   C1A 2382   1.849   9.259   7.313
  153POPC   D2A 2383   1.966   9.344   6.884
  153POPC   C3A 2384   1.851   9.229   6.445
  153POPC   C4A 2385   2.178   9.317   6.162
  153POPC   C1B 2386   1.851   9.772   7.303
  153POPC   C2B 2387   2.117   9.860   6.953
  153POPC   C3B 2388   2.182   9.678   6.556
  153POPC   C4B 2389   1.929   9.752   6.203
  154POPC   NC3 2390   6.070  11.281   7.943
  154POPC   PO4 2391   6.192  10.660   7.958
  154POPC   GL1 2392   6.379  10.923   7.603
  154POPC   GL2 2393   6.502  11.283   7.594
  154POPC   C1A 2394   6.406  11.039   7.170
  154POPC   D2A 2395   6.649  11.051   6.798
  154POPC   C3A 2396   6.281  10.880   6.628
  154POPC   C4A 2397   6.139  10.846   6.214
  154POPC   C1B 2398   6.833  11.308   7.233
  154POPC   C2B 2399   6.923   0.017   6.835
  154POPC   C3B 2400   6.707   0.055   6.441
  154POPC   C4B 2401   6.421  11.264   6.283
  155POPC   NC3 2402   8.295   8.833   8.156
  155POPC   PO4 2403   8.970   8.787   8.141
  155POPC   GL1 2404   8.790   8.951   7.765
  155POPC   GL2 2405   8.565   8.705   7.662
  155POPC   C1A 2406   8.758   9.110   7.346
  155POPC   D2A 2407   8.613   8.865   6.996
  155POPC   C3A 2408   8.474   9.091   6.670
  155POPC   C4A 2409   8.685   9.241   6.309
  155POPC   C1B 2410   8.965   8.641   7.387
  155POPC   C2B 2411   9.061   8.647   6.926
  155POPC   C3B 2412   8.926   8.875   6.569
  155POPC   C4B 2413   8.812   8.762   6.136
  156POPC   NC3 2414   4.116   1.356   7.941
  156POPC   PO4 2415   4.642   0.996   7.983
  156POPC   GL1 2416   4.482   1.174   7.625
  156POPC   GL2 2417   4.414   0.854   7.484
  156POPC   C1A 2418   4.366   1.324   7.228
  156POPC   D2A 2419   4.357   1.076   6.868
  156POPC   C3A 2420   4.392   1.324   6.541
  156POPC   C4A 2421   4.434   1.349   6.150
  156POPC   C1B 2422   4.046   0.923   7.248
  156POPC   C2B 2423   3.846   1.006   6.864
  156POPC   C3B 2424   4.037   0.952   6.468
  156POPC   C4B 2425   4.022   1.078   6.037
  157POPC   NC3 2426   0.890   8.159   4.007
  157POPC   PO4 2427   1.439   7.781   3.940
  157POPC   GL1 2428   1.402   7.971   4.315
  157POPC   GL2 2429   1.255   8.287   4.342
  157POPC   C1A 2430   1.276   7.816   4.707
  157POPC   D2A 2431   1.194   7.529   5.032
  157POPC   C3A 2432   1.266   7.824   5.365
  157POPC   C4A 2433   1.333   7.760   5.781
  157POPC   C1B 2434   0.962   8.230   4.690
  157POPC   C2B 2435   0.878   7.968   5.031
  157POPC   C3B 2436   0.849   8.114   5.445
  157POPC   C4B 2437   1.091   8.202   5.782
  158POPC   NC3 2438   3.641   1.764   4.074
  158POPC   PO4 2439   4.213   2.119   3.828
  158POPC   GL1 2440   3.852   2.199   4.254
  158POPC   GL2 2441   3.570   1.993   4.515
  158POPC   C1A 2442   3.894   2.260   4.739
  158POPC   D2A 2443   3.551   2.084   5.037
  158POPC   C3A 2444   3.592   2.168   5.483
  158POPC   C4A 2445   3.445   2.226   5.892
  158POPC   C1B 2446   3.502   1.610   4.707
  158POPC   C2B 2447   3.589   1.415   5.106
  158POPC   C3B 2448   3.715   1.658   5.451
  158POPC   C4B 2449   3.349   1.766   5.731
  159POPC   NC3 2450   0.738   5.674   3.943
  159POPC   PO4 2451   0.908   6.291   3.922
  159POPC   GL1 2452   0.594   6.153   4.226
  159POPC   GL2 2453   0.385   5.872   4.227
  159POPC   C1A 2454   0.630   5.967   4.661
  159POPC   D2A 2455   0.773   5.840   5.091
  159POPC   C3A 2456   0.508   5.785   5.447
  159POPC   C4A 2457   0.612   5.550   5.804
  159POPC   C1B 2458   0.327   5.573   4.616
  159POPC   C2B 2459   0.173   5.704   5.046
  159POPC   C3B 2460   0.032   5.567   5.484
  159POPC   C4B 2461  11.479   5.737   5.924
  160POPC   NC3 2462   1.997   4.639   4.143
  160POPC   PO4 2463   1.650   4.206   3.870
  160POPC   GL1 2464   1.558   4.075   4.256
  160POPC   GL2 2465   1.890   3.976   4.335
  160POPC   C1A 2466   1.483   4.225   4.653
  160POPC   D2A 2467   1.758   4.411   4.935
  160POPC   C3A 2468   1.676   4.302   5.352
  160POPC   C4A 2469   1.753   4.463   5.742
  160POPC   C1B 2470   2.173   3.974   4.714
  160POPC   C2B 2471   2.242   3.840   5.171
  160POPC   C3B 2472   2.139   4.091   5.564
  160POPC   C4B 2473   2.278   4.499   5.807
  161POPC   NC3 2474   0.532   1.555   4.153
  161POPC   PO4 2475   0.516   1.026   3.771
  161POPC   GL1 2476   0.418   1.015   4.284
  161POPC   GL2 2477   0.298   1.306   4.509
  161POPC   C1A 2478   0.137   0.880   4.700
  161POPC   D2A 2479   0.198   1.176   5.043
  161POPC   C3A 2480   0.400   1.058   5.418
  161POPC   C4A 2481   0.225   1.074   5.841
  161POPC   C1B 2482   0.565   1.498   4.833
  161POPC   C2B 2483   0.554   1.536   5.284
  161POPC   C3B 2484   0.574   1.425   5.703
  161POPC   C4B 2485   0.717   0.977   5.863
  162POPC   NC3 2486   2.220   1.425   4.155
  162POPC   PO4 2487   2.596   0.835   3.910
  162POPC   GL1 2488   2.375   0.932   4.306
  162POPC   GL2 2489   2.004   0.992   4.332
  162POPC   C1A 2490   2.345   0.859   4.763
  162POPC   D2A 2491   2.079   0.877   5.156
  162POPC   C3A 2492   2.243   1.000   5.546
  162POPC   C4A 2493   2.065   0.995   5.982
  162POPC   C1B 2494   1.935   1.193   4.749
  162POPC   C2B 2495   1.843   1.327   5.179
  162POPC   C3B 2496   1.848   1.341   5.614
  162POPC   C4B 2497   1.545   1.603   5.788
  163POPC   NC3 2498   1.181   3.285   3.859
  163POPC   PO4 2499   0.760   3.768   3.746
  163POPC   GL1 2500   0.835   3.546   4.229
  163POPC   GL2 2501   0.977   3.214   4.306
  163POPC   C1A 2502   0.981   3.464   4.743
  163POPC   D2A 2503   1.009   3.556   5.229
  163POPC   C3A 2504   0.904   3.464   5.691
  163POPC   C4A 2505   0.839   3.225   6.096
  163POPC   C1B 2506   1.432   3.228   4.529
  163POPC   C2B 2507   1.492   3.362   4.981
  163POPC   C3B 2508   1.469   3.319   5.423
  163POPC   C4B 2509   1.374   3.670   5.683
  164POPC   NC3 2510   9.628   7.523   3.827
  164POPC   PO4 2511   9.831   7.000   4.020
  164POPC   GL1 2512   9.734   7.287   4.342
  164POPC   GL2 2513   9.965   7.525   4.358
  164POPC   C1A 2514   9.636   7.280   4.798
  164POPC   D2A 2515   9.359   7.520   5.113
  164POPC   C3A 2516   9.386   7.356   5.556
  164POPC   C4A 2517   9.522   7.341   5.981
  164POPC   C1B 2518  10.167   7.380   4.756
  164POPC   C2B 2519  10.117   7.070   5.095
  164POPC   C3B 2520   9.845   7.109   5.451
  164POPC   C4B 2521   9.933   7.476   5.703
  165POPC   NC3 2522  11.229   3.068   3.958
  165POPC   PO4 2523  10.892   2.444   3.983
  165POPC   GL1 2524  11.027   2.518   4.361
  165POPC   GL2 2525  11.328   2.719   4.344
  165POPC   C1A 2526  11.140   2.459   4.772
  165POPC   D2A 2527  10.889   2.579   5.099
  165POPC   C3A 2528  11.105   2.464   5.433
  165POPC   C4A 2529  11.234   2.623   5.825
  165POPC   C1B 2530  11.496   2.862   4.762
  165POPC   C2B 2531  11.296   2.913   5.162
  165POPC   C3B 2532  11.278   3.081   5.553
  165POPC   C4B 2533  11.497   3.052   5.929
  166POPC   NC3 2534  11.130   8.793   3.721
  166POPC   PO4 2535  10.932   9.105   4.321
  166POPC   GL1 2536  11.031   8.719   4.475
  166POPC   GL2 2537  11.224   8.642   4.214
  166POPC   C1A 2538  11.172   8.683   4.908
  166POPC   D2A 2539  11.227   9.059   5.161
  166POPC   C3A 2540  10.912   9.067   5.456
  166POPC   C4A 2541  10.886   8.780   5.802
  166POPC   C1B 2542  11.417   8.391   4.567
  166POPC   C2B 2543   0.014   8.309   5.027
  166POPC   C3B 2544  11.495   8.618   5.373
  166POPC   C4B 2545  11.379   8.687   5.797
  167POPC   NC3 2546   8.844   5.467   3.896
  167POPC   PO4 2547   8.549   6.008   3.958
  167POPC   GL1 2548   8.729   5.736   4.317
  167POPC   GL2 2549   9.083   5.656   4.313
  167POPC   C1A 2550   8.784   5.598   4.756
  167POPC   D2A 2551   8.698   5.388   5.174
  167POPC   C3A 2552   8.734   5.541   5.604
  167POPC   C4A 2553   8.473   5.712   5.958
  167POPC   C1B 2554   9.278   5.775   4.715
  167POPC   C2B 2555   9.116   5.721   5.155
  167POPC   C3B 2556   9.196   5.762   5.608
  167POPC   C4B 2557   8.978   5.770   6.024
  168POPC   NC3 2558   8.336   3.550   4.045
  168POPC   PO4 2559   8.060   3.972   4.251
  168POPC   GL1 2560   8.163   3.595   4.539
  168POPC   GL2 2561   8.443   3.345   4.501
  168POPC   C1A 2562   8.277   3.436   4.968
  168POPC   D2A 2563   8.558   3.547   5.304
  168POPC   C3A 2564   8.355   3.654   5.709
  168POPC   C4A 2565   7.945   3.669   5.941
  168POPC   C1B 2566   8.507   2.994   4.813
  168POPC   C2B 2567   8.506   3.014   5.285
  168POPC   C3B 2568   8.235   3.112   5.672
  168POPC   C4B 2569   8.132   2.874   6.067
  169POPC   NC3 2570   8.976   9.044   4.079
  169POPC   PO4 2571   8.438   9.186   3.706
  169POPC   GL1 2572   8.530   8.858   4.185
  169POPC   GL2 2573   8.769   8.628   4.297
  169POPC   C1A 2574   8.578   8.910   4.675
  169POPC   D2A 2575   8.702   8.678   5.044
  169POPC   C3A 2576   8.623   8.736   5.483
  169POPC   C4A 2577   8.693   9.095   5.742
  169POPC   C1B 2578   9.055   8.689   4.678
  169POPC   C2B 2579   9.188   8.601   5.118
  169POPC   C3B 2580   9.135   8.824   5.516
  169POPC   C4B 2581   9.257   8.667   5.914
  170POPC   NC3 2582  10.500   1.326   3.867
  170POPC   PO4 2583   9.975   0.805   3.919
  170POPC   GL1 2584  10.044   1.226   4.129
  170POPC   GL2 2585  10.330   1.131   4.316
  170POPC   C1A 2586  10.038   1.504   4.516
  170POPC   D2A 2587  10.145   1.352   4.914
  170POPC   C3A 2588  10.151   1.495   5.324
  170POPC   C4A 2589  10.010   1.419   5.746
  170POPC   C1B 2590  10.569   1.176   4.707
  170POPC   C2B 2591  10.501   1.098   5.170
  170POPC   C3B 2592  10.467   1.215   5.609
  170POPC   C4B 2593  10.712   1.202   5.949
  171POPC   NC3 2594   8.204   8.776   3.830
  171POPC   PO4 2595   8.515   9.347   4.184
  171POPC   GL1 2596   8.187   9.159   4.413
  171POPC   GL2 2597   8.035   8.890   4.286
  171POPC   C1A 2598   8.122   9.101   4.824
  171POPC   D2A 2599   8.346   9.021   5.170
  171POPC   C3A 2600   8.191   9.090   5.565
  171POPC   C4A 2601   8.294   9.252   5.999
  171POPC   C1B 2602   8.163   8.615   4.658
  171POPC   C2B 2603   8.224   8.540   5.111
  171POPC   C3B 2604   8.224   8.408   5.548
  171POPC   C4B 2605   7.954   8.446   5.919
  172POPC   NC3 2606   6.585   0.383   3.667
  172POPC   PO4 2607   7.120   0.630   3.868
  172POPC   GL1 2608   6.914   0.321   4.146
  172POPC   GL2 2609   6.559   0.365   4.184
  172POPC   C1A 2610   6.844   0.244   4.608
  172POPC   D2A 2611   6.873   0.397   5.071
  172POPC   C3A 2612   6.753   0.330   5.532
  172POPC   C4A 2613   6.867   0.325   5.997
  172POPC   C1B 2614   6.334   0.407   4.564
  172POPC   C2B 2615   6.344   0.485   5.010
  172POPC   C3B 2616   6.256   0.404   5.459
  172POPC   C4B 2617   6.246   0.632   5.830
  173POPC   NC3 2618   3.446   8.303   3.549
  173POPC   PO4 2619   2.978   8.102   3.910
  173POPC   GL1 2620   2.998   8.308   4.340
  173POPC   GL2 2621   3.346   8.201   4.372
  173POPC   C1A 2622   3.142   8.356   4.807
  173POPC   D2A 2623   3.343   8.153   5.213
  173POPC   C3A 2624   3.388   8.284   5.669
  173POPC   C4A 2625   3.566   8.421   6.074
  173POPC   C1B 2626   3.431   7.924   4.743
  173POPC   C2B 2627   3.677   7.760   5.109
  173POPC   C3B 2628   3.742   7.845   5.554
  173POPC   C4B 2629   3.977   8.108   5.836
  174POPC   NC3 2630   9.528   9.771   3.920
  174POPC   PO4 2631  10.011   9.323   3.996
  174POPC   GL1 2632   9.932   9.650   4.252
  174POPC   GL2 2633   9.629   9.484   4.352
  174POPC   C1A 2634   9.883   9.815   4.672
  174POPC   D2A 2635   9.852  10.025   5.069
  174POPC   C3A 2636   9.630   9.978   5.450
  174POPC   C4A 2637   9.858  10.012   5.812
  174POPC   C1B 2638   9.604   9.412   4.802
  174POPC   C2B 2639   9.921   9.460   5.145
  174POPC   C3B 2640   9.900   9.495   5.608
  174POPC   C4B 2641   9.505   9.600   5.805
  175POPC   NC3 2642   9.051   0.284   3.962
  175POPC   PO4 2643   8.566   0.670   3.764
  175POPC   GL1 2644   8.758   0.485   4.281
  175POPC   GL2 2645   8.720   0.116   4.316
  175POPC   C1A 2646   8.863   0.645   4.732
  175POPC   D2A 2647   8.675   0.751   5.155
  175POPC   C3A 2648   8.957   0.670   5.492
  175POPC   C4A 2649   9.398   0.693   5.660
  175POPC   C1B 2650   8.783  11.496   4.735
  175POPC   C2B 2651   8.858   0.232   5.095
  175POPC   C3B 2652   8.629   0.275   5.446
  175POPC   C4B 2653   8.465   0.326   5.826
  176POPC   NC3 2654   8.118   9.445   3.916
  176POPC   PO4 2655   7.732   8.908   3.844
  176POPC   GL1 2656   7.721   9.286   4.198
  176POPC   GL2 2657   7.969   9.603   4.348
  176POPC   C1A 2658   7.707   9.343   4.666
  176POPC   D2A 2659   7.722   9.280   5.089
  176POPC   C3A 2660   7.738   9.623   5.375
  176POPC   C4A 2661   7.966   9.531   5.734
  176POPC   C1B 2662   8.141   9.634   4.756
  176POPC   C2B 2663   8.191   9.494   5.175
  176POPC   C3B 2664   8.461   9.525   5.514
  176POPC   C4B 2665   8.362   9.895   5.731
  177POPC   NC3 2666   2.924   0.407   3.900
  177POPC   PO4 2667   2.425   0.041   3.779
  177POPC   GL1 2668   2.556   0.232   4.223
  177POPC   GL2 2669   2.727   0.552   4.343
  177POPC   C1A 2670   2.438   0.329   4.673
  177POPC   D2A 2671   2.227   0.417   5.035
  177POPC   C3A 2672   2.493   0.486   5.382
  177POPC   C4A 2673   2.536   0.278   5.793
  177POPC   C1B 2674   2.870   0.649   4.782
  177POPC   C2B 2675   2.988   0.624   5.240
  177POPC   C3B 2676   2.870   0.731   5.679
  177POPC   C4B 2677   3.032   0.722   6.115
  178POPC   NC3 2678   2.113  11.231   3.934
  178POPC   PO4 2679   1.545  10.970   3.642
  178POPC   GL1 2680   1.619  11.133   4.146
  178POPC   GL2 2681   1.897  11.013   4.351
  178POPC   C1A 2682   1.586  11.296   4.612
  178POPC   D2A 2683   1.899  11.154   4.967
  178POPC   C3A 2684   1.767  11.256   5.422
  178POPC   C4A 2685   1.842  11.075   5.835
  178POPC   C1B 2686   2.277  11.241   4.555
  178POPC   C2B 2687   2.385  11.391   4.945
  178POPC   C3B 2688   2.423  11.105   5.264
  178POPC   C4B 2689   2.366  11.157   5.716
  179POPC   NC3 2690  10.678   8.778   4.095
  179POPC   PO4 2691  10.064   8.513   3.939
  179POPC   GL1 2692  10.136   8.886   4.242
  179POPC   GL2 2693  10.354   8.799   4.482
  179POPC   C1A 2694   9.980   9.083   4.662
  179POPC   D2A 2695  10.167   8.955   5.080
  179POPC   C3A 2696  10.021   8.939   5.519
  179POPC   C4A 2697  10.108   8.494   5.680
  179POPC   C1B 2698  10.641   8.764   4.796
  179POPC   C2B 2699  10.723   8.699   5.171
  179POPC   C3B 2700  10.492   8.765   5.500
  179POPC   C4B 2701  10.455   9.105   5.773
  180POPC   NC3 2702   2.325  10.259   4.040
  180POPC   PO4 2703   2.988  10.035   3.833
  180POPC   GL1 2704   2.826  10.082   4.253
  180POPC   GL2 2705   2.642  10.375   4.399
  180POPC   C1A 2706   2.846  10.003   4.685
  180POPC   D2A 2707   3.045  10.172   5.057
  180POPC   C3A 2708   2.844  10.151   5.462
  180POPC   C4A 2709   2.450  10.169   5.720
  180POPC   C1B 2710   2.799  10.510   4.746
  180POPC   C2B 2711   2.565  10.409   5.095
  180POPC   C3B 2712   2.505  10.602   5.466
  180POPC   C4B 2713   2.816  10.554   5.799
  181POPC   NC3 2714  11.229   4.322   4.032
  181POPC   PO4 2715  11.194   4.981   3.786
  181POPC   GL1 2716  11.256   4.767   4.300
  181POPC   GL2 2717  11.044   4.491   4.471
  181POPC   C1A 2718  11.483   4.604   4.670
  181POPC   D2A 2719  11.204   4.458   5.014
  181POPC   C3A 2720  11.370   4.493   5.425
  181POPC   C4A 2721  11.099   4.499   5.759
  181POPC   C1B 2722  11.233   4.126   4.644
  181POPC   C2B 2723  11.384   3.939   5.035
  181POPC   C3B 2724  11.237   3.993   5.448
  181POPC   C4B 2725  11.339   4.033   5.858
  182POPC   NC3 2726   2.785  11.010   3.566
  182POPC   PO4 2727   2.994  10.543   4.089
  182POPC   GL1 2728   2.824  10.899   4.381
  182POPC   GL2 2729   2.685  11.209   4.212
  182POPC   C1A 2730   2.765  11.046   4.808
  182POPC   D2A 2731   2.866  10.804   5.161
  182POPC   C3A 2732   2.849  10.991   5.537
  182POPC   C4A 2733   3.103  10.962   5.924
  182POPC   C1B 2734   2.804  11.494   4.571
  182POPC   C2B 2735   2.833   0.159   4.998
  182POPC   C3B 2736   2.725  11.496   5.411
  182POPC   C4B 2737   2.819  11.368   5.852
  183POPC   NC3 2738   9.019   8.211   3.962
  183POPC   PO4 2739   8.445   8.381   3.935
  183POPC   GL1 2740   8.657   8.143   4.327
  183POPC   GL2 2741   8.982   7.931   4.378
  183POPC   C1A 2742   8.797   8.252   4.766
  183POPC   D2A 2743   8.597   8.196   5.187
  183POPC   C3A 2744   8.727   8.237   5.611
  183POPC   C4A 2745   8.563   8.307   6.036
  183POPC   C1B 2746   9.197   7.931   4.788
  183POPC   C2B 2747   9.071   7.947   5.225
  183POPC   C3B 2748   9.100   7.792   5.655
  183POPC   C4B 2749   8.750   7.791   5.965
  184POPC   NC3 2750   1.196  10.290   3.887
  184POPC   PO4 2751   1.696  10.614   4.023
  184POPC   GL1 2752   1.500  10.346   4.313
  184POPC   GL2 2753   1.229  10.559   4.294
  184POPC   C1A 2754   1.584  10.150   4.730
  184POPC   D2A 2755   1.641  10.329   5.149
  184POPC   C3A 2756   1.554  10.082   5.510
  184POPC   C4A 2757   1.550   9.907   5.910
  184POPC   C1B 2758   1.133  10.372   4.661
  184POPC   C2B 2759   1.139  10.557   5.044
  184POPC   C3B 2760   1.221  10.468   5.432
  184POPC   C4B 2761   1.067  10.617   5.783
  185POPC   NC3 2762   4.561   8.953   3.862
  185POPC   PO4 2763   4.025   9.195   3.793
  185POPC   GL1 2764   4.092   9.193   4.253
  185POPC   GL2 2765   4.335   8.991   4.363
  185POPC   C1A 2766   4.074   9.241   4.750
  185POPC   D2A 2767   4.193   9.384   5.212
  185POPC   C3A 2768   4.048   9.242   5.634
  185POPC   C4A 2769   4.165   9.024   6.037
  185POPC   C1B 2770   4.557   9.076   4.760
  185POPC   C2B 2771   4.551   8.952   5.177
  185POPC   C3B 2772   4.486   8.975   5.606
  185POPC   C4B 2773   4.521   8.653   5.928
  186POPC   NC3 2774  11.139   9.406   4.044
  186POPC   PO4 2775  10.722  10.026   3.990
  186POPC   GL1 2776  10.900   9.979   4.417
  186POPC   GL2 2777  11.140   9.725   4.441
  186POPC   C1A 2778  10.797   9.709   4.819
  186POPC   D2A 2779  10.903   9.555   5.239
  186POPC   C3A 2780  11.052   9.849   5.527
  186POPC   C4A 2781  11.424   9.905   5.759
  186POPC   C1B 2782  11.275   9.490   4.821
  186POPC   C2B 2783  11.451   9.562   5.237
  186POPC   C3B 2784  11.271   9.406   5.598
  186POPC   C4B 2785  10.927   9.327   5.879
  187POPC   NC3 2786   2.349   5.993   3.716
  187POPC   PO4 2787   3.019   6.159   3.820
  187POPC   GL1 2788   2.720   6.090   4.158
  187POPC   GL2 2789   2.499   5.788   4.178
  187POPC   C1A 2790   2.900   5.962   4.571
  187POPC   D2A 2791   3.145   5.993   4.978
  187POPC   C3A 2792   2.923   5.921   5.394
  187POPC   C4A 2793   2.741   6.009   5.819
  187POPC   C1B 2794   2.420   5.796   4.635
  187POPC   C2B 2795   2.287   5.881   5.076
  187POPC   C3B 2796   2.419   5.752   5.492
  187POPC   C4B 2797   2.606   5.510   5.844
  188POPC   NC3 2798  11.397   8.042   3.989
  188POPC   PO4 2799  10.716   8.262   3.852
  188POPC   GL1 2800  10.950   8.220   4.230
  188POPC   GL2 2801  11.029   7.899   4.349
  188POPC   C1A 2802  10.923   8.265   4.679
  188POPC   D2A 2803  10.778   8.191   5.067
  188POPC   C3A 2804  11.045   8.372   5.364
  188POPC   C4A 2805  11.060   8.293   5.781
  188POPC   C1B 2806  11.333   7.912   4.674
  188POPC   C2B 2807  11.204   7.886   5.072
  188POPC   C3B 2808  11.345   7.974   5.457
  188POPC   C4B 2809  11.338   7.873   5.885
  189POPC   NC3 2810   1.682   9.744   4.053
  189POPC   PO4 2811   1.097   9.866   3.738
  189POPC   GL1 2812   1.199   9.863   4.199
  189POPC   GL2 2813   1.278   9.539   4.276
  189POPC   C1A 2814   1.126   9.857   4.658
  189POPC   D2A 2815   1.211  10.029   5.076
  189POPC   C3A 2816   0.926   9.966   5.412
  189POPC   C4A 2817   1.098  10.098   5.777
  189POPC   C1B 2818   1.545   9.538   4.660
  189POPC   C2B 2819   1.466   9.416   5.079
  189POPC   C3B 2820   1.428   9.588   5.482
  189POPC   C4B 2821   1.129   9.592   5.801
  190POPC   NC3 2822   1.263   7.336   3.883
  190POPC   PO4 2823   1.548   6.820   3.695
  190POPC   GL1 2824   1.468   6.946   4.139
  190POPC   GL2 2825   1.153   6.847   4.286
  190POPC   C1A 2826   1.489   7.060   4.611
  190POPC   D2A 2827   1.643   7.148   5.049
  190POPC   C3A 2828   1.448   7.330   5.449
  190POPC   C4A 2829   1.645   7.366   5.867
  190POPC   C1B 2830   0.974   6.997   4.697
  190POPC   C2B 2831   0.824   7.043   5.137
  190POPC   C3B 2832   0.903   6.984   5.600
  190POPC   C4B 2833   1.115   7.201   5.943
  191POPC   NC3 2834   9.842   5.525   3.914
  191POPC   PO4 2835   9.267   5.294   3.965
  191POPC   GL1 2836   9.531   5.406   4.380
  191POPC   GL2 2837   9.778   5.688   4.401
  191POPC   C1A 2838   9.670   5.463   4.855
  191POPC   D2A 2839   9.613   5.689   5.269
  191POPC   C3A 2840   9.623   5.477   5.679
  191POPC   C4A 2841   9.407   5.434   6.099
  191POPC   C1B 2842   9.862   5.945   4.794
  191POPC   C2B 2843   9.895   6.113   5.214
  191POPC   C3B 2844   9.699   6.112   5.611
  191POPC   C4B 2845   9.604   6.408   5.943
  192POPC   NC3 2846   2.769   2.224   3.909
  192POPC   PO4 2847   3.376   2.141   4.095
  192POPC   GL1 2848   3.139   1.808   4.245
  192POPC   GL2 2849   2.853   2.033   4.363
  192POPC   C1A 2850   3.017   1.651   4.650
  192POPC   D2A 2851   2.993   1.988   4.923
  192POPC   C3A 2852   3.058   1.923   5.330
  192POPC   C4A 2853   2.999   2.194   5.644
  192POPC   C1B 2854   2.565   1.864   4.684
  192POPC   C2B 2855   2.519   1.825   5.112
  192POPC   C3B 2856   2.536   1.945   5.547
  192POPC   C4B 2857   2.834   1.669   5.735
  193POPC   NC3 2858   2.126   2.129   3.899
  193POPC   PO4 2859   1.781   1.542   4.093
  193POPC   GL1 2860   1.839   1.972   4.306
  193POPC   GL2 2861   2.190   1.985   4.386
  193POPC   C1A 2862   1.933   2.266   4.688
  193POPC   D2A 2863   2.225   2.215   5.013
  193POPC   C3A 2864   2.137   2.304   5.431
  193POPC   C4A 2865   1.815   2.300   5.743
  193POPC   C1B 2866   2.080   1.744   4.783
  193POPC   C2B 2867   1.970   1.830   5.228
  193POPC   C3B 2868   2.006   1.832   5.673
  193POPC   C4B 2869   2.259   1.872   6.015
  194POPC   NC3 2870   8.186   1.919   3.864
  194POPC   PO4 2871   7.674   2.363   3.845
  194POPC   GL1 2872   7.934   2.237   4.231
  194POPC   GL2 2873   8.081   1.910   4.350
  194POPC   C1A 2874   8.074   2.286   4.686
  194POPC   D2A 2875   7.988   2.163   5.125
  194POPC   C3A 2876   8.127   2.430   5.466
  194POPC   C4A 2877   8.260   2.412   5.885
  194POPC   C1B 2878   8.129   1.773   4.802
  194POPC   C2B 2879   8.105   1.526   5.181
  194POPC   C3B 2880   7.849   1.648   5.514
  194POPC   C4B 2881   7.918   2.026   5.732
  195POPC   NC3 2882   1.002   1.124   3.712
  195POPC   PO4 2883   0.908   1.735   3.949
  195POPC   GL1 2884   1.004   1.350   4.194
  195POPC   GL2 2885   1.349   1.249   4.161
  195POPC   C1A 2886   1.016   1.251   4.645
  195POPC   D2A 2887   1.039   1.492   5.055
  195POPC   C3A 2888   0.973   1.253   5.438
  195POPC   C4A 2889   1.175   1.197   5.829
  195POPC   C1B 2890   1.485   1.023   4.540
  195POPC   C2B 2891   1.417   1.109   4.969
  195POPC   C3B 2892   1.439   1.039   5.397
  195POPC   C4B 2893   1.685   0.863   5.680
  196POPC   NC3 2894  11.015  10.371   4.065
  196POPC   PO4 2895  10.954  10.923   3.770
  196POPC   GL1 2896  10.965  10.847   4.222
  196POPC   GL2 2897  11.351  10.720   4.236
  196POPC   C1A 2898  10.867  10.675   4.649
  196POPC   D2A 2899  10.792  10.822   5.073
  196POPC   C3A 2900  10.878  10.658   5.499
  196POPC   C4A 2901  10.837  10.657   6.006
  196POPC   C1B 2902  11.340  10.482   4.624
  196POPC   C2B 2903  11.097  10.343   4.983
  196POPC   C3B 2904  11.232  10.298   5.385
  196POPC   C4B 2905  11.267  10.462   5.772
  197POPC   NC3 2906   7.239   1.031   4.058
  197POPC   PO4 2907   7.794   1.502   3.882
  197POPC   GL1 2908   7.661   1.266   4.244
  197POPC   GL2 2909   7.393   1.415   4.396
  197POPC   C1A 2910   7.543   0.999   4.638
  197POPC   D2A 2911   7.185   1.029   4.917
  197POPC   C3A 2912   7.293   0.985   5.350
  197POPC   C4A 2913   7.399   1.010   5.785
  197POPC   C1B 2914   7.300   1.512   4.824
  197POPC   C2B 2915   7.231   1.501   5.287
  197POPC   C3B 2916   6.969   1.283   5.616
  197POPC   C4B 2917   7.002   1.231   6.052
  198POPC   NC3 2918   9.707   8.979   3.969
  198POPC   PO4 2919   9.197   8.630   4.041
  198POPC   GL1 2920   9.459   8.721   4.345
  198POPC   GL2 2921   9.765   8.561   4.347
  198POPC   C1A 2922   9.515   8.895   4.724
  198POPC   D2A 2923   9.312   9.081   5.062
  198POPC   C3A 2924   9.565   9.151   5.378
  198POPC   C4A 2925   9.553   9.090   5.789
  198POPC   C1B 2926   9.950   8.580   4.754
  198POPC   C2B 2927   9.732   8.677   5.137
  198POPC   C3B 2928   9.612   8.649   5.550
  198POPC   C4B 2929   9.769   8.691   6.007
  199POPC   NC3 2930   8.834  10.581   4.063
  199POPC   PO4 2931   9.073   9.920   3.946
  199POPC   GL1 2932   9.177  10.249   4.258
  199POPC   GL2 2933   8.833  10.194   4.392
  199POPC   C1A 2934   9.118  10.460   4.700
  199POPC   D2A 2935   8.919  10.198   5.053
  199POPC   C3A 2936   9.053  10.363   5.464
  199POPC   C4A 2937   9.068  10.592   5.890
  199POPC   C1B 2938   8.558   9.962   4.681
  199POPC   C2B 2939   8.468   9.923   5.126
  199POPC   C3B 2940   8.529  10.254   5.416
  199POPC   C4B 2941   8.719  10.256   5.818
  200POPC   NC3 2942   1.498   8.904   3.830
  200POPC   PO4 2943   0.908   8.627   3.974
  200POPC   GL1 2944   1.219   8.787   4.305
  200POPC   GL2 2945   1.077   9.083   4.374
  200POPC   C1A 2946   1.326   8.617   4.761
  200POPC   D2A 2947   1.233   8.387   5.181
  200POPC   C3A 2948   1.070   8.645   5.556
  200POPC   C4A 2949   1.281   8.623   5.988
  200POPC   C1B 2950   1.126   9.113   4.824
  200POPC   C2B 2951   1.339   8.939   5.215
  200POPC   C3B 2952   1.322   9.095   5.650
  200POPC   C4B 2953   0.918   9.125   5.807
  201POPC   NC3 2954   9.653   4.100   3.783
  201POPC   PO4 2955   9.752   3.438   3.919
  201POPC   GL1 2956   9.784   3.639   4.321
  201POPC   GL2 2957   9.441   3.761   4.390
  201POPC   C1A 2958   9.743   3.750   4.789
  201POPC   D2A 2959   9.542   3.857   5.183
  201POPC   C3A 2960   9.768   3.979   5.578
  201POPC   C4A 2961   9.971   3.828   5.984
  201POPC   C1B 2962   9.390   3.365   4.669
  201POPC   C2B 2963   9.464   3.249   5.094
  201POPC   C3B 2964   9.474   3.449   5.492
  201POPC   C4B 2965   9.159   3.568   5.729
  202POPC   NC3 2966   5.899   1.060   3.933
  202POPC   PO4 2967   5.402   1.553   3.893
  202POPC   GL1 2968   5.469   1.527   4.299
  202POPC   GL2 2969   5.554   1.189   4.292
  202POPC   C1A 2970   5.651   1.421   4.714
  202POPC   D2A 2971   5.469   1.368   5.088
  202POPC   C3A 2972   5.770   1.478   5.365
  202POPC   C4A 2973   5.958   1.663   5.717
  202POPC   C1B 2974   5.453   0.949   4.695
  202POPC   C2B 2975   5.497   0.829   5.118
  202POPC   C3B 2976   5.495   1.057   5.508
  202POPC   C4B 2977   5.955   1.120   5.688
  203POPC   NC3 2978   9.557   2.690   3.849
  203POPC   PO4 2979  10.154   2.532   3.789
  203POPC   GL1 2980   9.959   2.484   4.210
  203POPC   GL2 2981   9.658   2.688   4.350
  203POPC   C1A 2982  10.012   2.503   4.665
  203POPC   D2A 2983   9.880   2.277   5.023
  203POPC   C3A 2984   9.924   2.522   5.388
  203POPC   C4A 2985   9.877   2.559   5.827
  203POPC   C1B 2986   9.550   2.804   4.783
  203POPC   C2B 2987   9.425   2.552   5.138
  203POPC   C3B 2988   9.455   2.644   5.548
  203POPC   C4B 2989   9.718   3.010   5.647
  204POPC   NC3 2990  11.370   5.215   4.136
  204POPC   PO4 2991  10.783   4.818   4.164
  204POPC   GL1 2992  10.779   4.914   4.523
  204POPC   GL2 2993  10.938   5.241   4.452
  204POPC   C1A 2994  10.749   4.731   4.940
  204POPC   D2A 2995  10.988   4.800   5.311
  204POPC   C3A 2996  10.883   4.964   5.671
  204POPC   C4A 2997  10.718   5.347   5.699
  204POPC   C1B 2998  11.190   5.011   4.782
  204POPC   C2B 2999  11.477   4.919   5.102
  204POPC   C3B 3000  11.417   5.049   5.497
  204POPC   C4B 3001  11.455   4.828   5.817
  205POPC   NC3 3002  10.226   3.638   3.860
  205POPC   PO4 3003  10.806   4.072   3.932
  205POPC   GL1 3004  10.647   3.703   4.271
  205POPC   GL2 3005  10.338   3.477   4.311
  205POPC   C1A 3006  10.623   3.429   4.711
  205POPC   D2A 3007  10.564   3.607   5.125
  205POPC   C3A 3008  10.523   3.326   5.487
  205POPC   C4A 3009  10.801   3.303   5.824
  205POPC   C1B 3010  10.249   3.795   4.647
  205POPC   C2B 3011  10.125   3.887   5.103
  205POPC   C3B 3012  10.235   3.751   5.543
  205POPC   C4B 3013  10.153   3.367   5.849
  206POPC   NC3 3014   3.715   1.058   3.755
  206POPC   PO4 3015   3.380   1.573   3.736
  206POPC   GL1 3016   3.428   1.322   4.223
  206POPC   GL2 3017   3.575   0.982   4.227
  206POPC   C1A 3018   3.716   1.163   4.671
  206POPC   D2A 3019   3.814   0.922   5.108
  206POPC   C3A 3020   3.721   1.112   5.548
  206POPC   C4A 3021   3.659   1.416   5.899
  206POPC   C1B 3022   3.377   0.794   4.588
  206POPC   C2B 3023   3.311   0.962   4.998
  206POPC   C3B 3024   3.228   1.118   5.402
  206POPC   C4B 3025   3.279   1.068   5.840
  207POPC   NC3 3026   5.781   9.757   3.900
  207POPC   PO4 3027   5.649   9.172   4.065
  207POPC   GL1 3028   5.631   9.463   4.438
  207POPC   GL2 3029   5.611   9.814   4.393
  207POPC   C1A 3030   5.771   9.583   4.887
  207POPC   D2A 3031   5.735   9.483   5.361
  207POPC   C3A 3032   6.117   9.558   5.681
  207POPC   C4A 3033   6.336   9.501   6.120
  207POPC   C1B 3034   5.315   9.770   4.756
  207POPC   C2B 3035   5.224   9.574   5.206
  207POPC   C3B 3036   5.349   9.659   5.671
  207POPC   C4B 3037   5.429   9.888   6.103
  208POPC   NC3 3038   0.489  11.420   3.992
  208POPC   PO4 3039   0.765  10.800   3.870
  208POPC   GL1 3040   0.648  11.018   4.247
  208POPC   GL2 3041   0.274  11.069   4.311
  208POPC   C1A 3042   0.672  11.123   4.673
  208POPC   D2A 3043   0.752  11.247   5.101
  208POPC   C3A 3044   0.896  10.919   5.362
  208POPC   C4A 3045   0.617  10.826   5.685
  208POPC   C1B 3046   0.240  10.825   4.719
  208POPC   C2B 3047   0.376  10.859   5.190
  208POPC   C3B 3048   0.292  11.191   5.538
  208POPC   C4B 3049   0.101   0.118   5.605
  209POPC   NC3 3050   3.205  10.426   3.675
  209POPC   PO4 3051   3.651   9.925   3.967
  209POPC   GL1 3052   3.664   9.849   4.374
  209POPC   GL2 3053   3.708   9.518   4.373
  209POPC   C1A 3054   3.333   9.833   4.691
  209POPC   D2A 3055   3.268   9.689   5.101
  209POPC   C3A 3056   3.476   9.794   5.493
  209POPC   C4A 3057   3.284  10.013   5.795
  209POPC   C1B 3058   3.572   9.393   4.799
  209POPC   C2B 3059   3.668   9.380   5.253
  209POPC   C3B 3060   3.545   9.331   5.701
  209POPC   C4B 3061   3.674   9.254   6.155
  210POPC   NC3 3062   0.205   8.041   3.399
  210POPC   PO4 3063   0.303   7.836   4.068
  210POPC   GL1 3064   0.246   8.044   4.390
  210POPC   GL2 3065   0.553   8.191   4.374
  210POPC   C1A 3066   0.384   7.919   4.789
  210POPC   D2A 3067   0.237   7.773   5.148
  210POPC   C3A 3068   0.362   7.975   5.525
  210POPC   C4A 3069   0.147   8.278   5.728
  210POPC   C1B 3070   0.420   8.414   4.710
  210POPC   C2B 3071   0.530   8.335   5.081
  210POPC   C3B 3072   0.510   8.503   5.431
  210POPC   C4B 3073   0.631   8.402   5.829
  211POPC   NC3 3074   7.818  10.399   3.898
  211POPC   PO4 3075   8.447  10.734   3.830
  211POPC   GL1 3076   8.207  10.572   4.221
  211POPC   GL2 3077   8.173  10.197   4.224
  211POPC   C1A 3078   8.121  10.687   4.691
  211POPC   D2A 3079   7.905  10.763   5.114
  211POPC   C3A 3080   8.143  10.613   5.484
  211POPC   C4A 3081   8.232  10.381   5.851
  211POPC   C1B 3082   8.072  10.157   4.647
  211POPC   C2B 3083   8.133  10.295   5.067
  211POPC   C3B 3084   7.978  10.115   5.466
  211POPC   C4B 3085   7.893   9.993   5.911
  212POPC   NC3 3086   1.640   5.425   4.023
  212POPC   PO4 3087   1.863   6.024   3.792
  212POPC   GL1 3088   1.764   5.940   4.205
  212POPC   GL2 3089   1.992   5.749   4.339
  212POPC   C1A 3090   1.602   5.988   4.606
  212POPC   D2A 3091   1.646   5.987   5.037
  212POPC   C3A 3092   1.903   6.053   5.375
  212POPC   C4A 3093   1.782   5.953   5.807
  212POPC   C1B 3094   1.929   5.631   4.761
  212POPC   C2B 3095   1.942   5.537   5.195
  212POPC   C3B 3096   1.997   5.508   5.640
  212POPC   C4B 3097   1.957   5.273   6.010
  213POPC   NC3 3098   5.624  11.275   3.550
  213POPC   PO4 3099   6.167   0.197   3.808
  213POPC   GL1 3100   6.100   0.064   4.229
  213POPC   GL2 3101   5.837  11.322   4.224
  213POPC   C1A 3102   5.999   0.032   4.690
  213POPC   D2A 3103   6.079  11.219   5.027
  213POPC   C3A 3104   6.072  11.407   5.414
  213POPC   C4A 3105   6.136  11.225   5.804
  213POPC   C1B 3106   5.774  11.074   4.603
  213POPC   C2B 3107   5.624  10.946   5.023
  213POPC   C3B 3108   5.690  11.082   5.425
  213POPC   C4B 3109   5.637  11.213   5.829
  214POPC   NC3 3110   0.245   4.950   3.768
  214POPC   PO4 3111   0.835   4.555   3.881
  214POPC   GL1 3112   0.735   4.810   4.256
  214POPC   GL2 3113   0.396   4.905   4.284
  214POPC   C1A 3114   0.777   4.966   4.682
  214POPC   D2A 3115   0.772   4.811   5.105
  214POPC   C3A 3116   0.396   4.703   5.363
  214POPC   C4A 3117   0.464   4.797   5.798
  214POPC   C1B 3118   0.262   5.050   4.679
  214POPC   C2B 3119   0.452   5.244   5.040
  214POPC   C3B 3120   0.413   5.210   5.485
  214POPC   C4B 3121   0.198   5.263   5.900
  215POPC   NC3 3122   5.662   0.192   3.905
  215POPC   PO4 3123   5.463   0.855   3.915
  215POPC   GL1 3124   5.655   0.670   4.299
  215POPC   GL2 3125   5.689   0.318   4.377
  215POPC   C1A 3126   5.834   0.600   4.753
  215POPC   D2A 3127   5.846   0.390   5.149
  215POPC   C3A 3128   5.787   0.636   5.542
  215POPC   C4A 3129   5.615   0.821   5.936
  215POPC   C1B 3130   5.488   0.018   4.633
  215POPC   C2B 3131   5.616  11.442   5.059
  215POPC   C3B 3132   5.600   0.099   5.480
  215POPC   C4B 3133   5.899   0.214   5.792
  216POPC   NC3 3134   2.925   7.615   4.003
  216POPC   PO4 3135   2.328   7.956   4.005
  216POPC   GL1 3136   2.639   7.944   4.297
  216POPC   GL2 3137   2.415   7.963   4.546
  216POPC   C1A 3138   2.907   7.918   4.688
  216POPC   D2A 3139   2.845   8.079   5.137
  216POPC   C3A 3140   2.959   8.014   5.594
  216POPC   C4A 3141   2.686   7.876   5.960
  216POPC   C1B 3142   2.589   8.329   4.752
  216POPC   C2B 3143   2.442   8.382   5.188
  216POPC   C3B 3144   2.497   8.224   5.592
  216POPC   C4B 3145   2.646   8.384   5.975
  217POPC   NC3 3146   1.818   6.503   3.896
  217POPC   PO4 3147   2.424   6.409   3.861
  217POPC   GL1 3148   2.195   6.216   4.207
  217POPC   GL2 3149   2.028   6.500   4.355
  217POPC   C1A 3150   2.062   6.143   4.691
  217POPC   D2A 3151   2.216   6.401   5.035
  217POPC   C3A 3152   2.122   6.544   5.459
  217POPC   C4A 3153   1.757   6.439   5.694
  217POPC   C1B 3154   1.801   6.583   4.759
  217POPC   C2B 3155   1.692   6.564   5.193
  217POPC   C3B 3156   1.747   6.906   5.504
  217POPC   C4B 3157   2.013   6.858   5.869
  218POPC   NC3 3158   0.408   3.412   3.882
  218POPC   PO4 3159   0.014   3.962   3.976
  218POPC   GL1 3160   0.361   3.799   4.273
  218POPC   GL2 3161   0.379   3.468   4.375
  218POPC   C1A 3162   0.623   3.825   4.649
  218POPC   D2A 3163   0.391   3.781   5.035
  218POPC   C3A 3164   0.505   3.654   5.437
  218POPC   C4A 3165   0.282   3.761   5.783
  218POPC   C1B 3166   0.492   3.303   4.712
  218POPC   C2B 3167   0.584   3.272   5.105
  218POPC   C3B 3168   0.302   3.174   5.436
  218POPC   C4B 3169   0.433   3.273   5.811
  219POPC   NC3 3170  10.290   7.053   4.042
  219POPC   PO4 3171  10.931   7.358   3.963
  219POPC   GL1 3172  10.814   7.126   4.286
  219POPC   GL2 3173  10.539   7.316   4.397
  219POPC   C1A 3174  10.855   7.036   4.708
  219POPC   D2A 3175  10.715   6.900   5.115
  219POPC   C3A 3176  10.647   7.131   5.491
  219POPC   C4A 3177  10.272   7.100   5.715
  219POPC   C1B 3178  10.640   7.689   4.643
  219POPC   C2B 3179  10.460   7.779   5.045
  219POPC   C3B 3180  10.311   7.499   5.334
  219POPC   C4B 3181  10.471   7.582   5.709
  220POPC   NC3 3182  10.521   4.527   3.935
  220POPC   PO4 3183  10.050   4.042   4.003
  220POPC   GL1 3184  10.213   4.363   4.313
  220POPC   GL2 3185  10.539   4.456   4.434
  220POPC   C1A 3186  10.198   4.291   4.755
  220POPC   D2A 3187  10.443   4.301   5.080
  220POPC   C3A 3188  10.183   4.269   5.433
  220POPC   C4A 3189  10.082   4.400   5.826
  220POPC   C1B 3190  10.694   4.092   4.644
  220POPC   C2B 3191  10.882   4.020   5.047
  220POPC   C3B 3192  10.821   4.288   5.406
  220POPC   C4B 3193  10.563   4.193   5.757
  221POPC   NC3 3194   4.997   8.165   3.853
  221POPC   PO4 3195   4.761   7.660   4.147
  221POPC   GL1 3196   4.933   7.919   4.476
  221POPC   GL2 3197   4.913   8.243   4.356
  221POPC   C1A 3198   4.849   8.094   4.895
  221POPC   D2A 3199   4.548   8.246   5.197
  221POPC   C3A 3200   4.538   8.042   5.604
  221POPC   C4A 3201   4.761   7.749   5.881
  221POPC   C1B 3202   5.196   8.400   4.669
  221POPC   C2B 3203   5.297   8.229   5.094
  221POPC   C3B 3204   5.025   8.178   5.473
  221POPC   C4B 3205   4.887   8.269   5.918
  222POPC   NC3 3206   1.187   4.249   3.922
  222POPC   PO4 3207   1.278   3.679   4.074
  222POPC   GL1 3208   1.062   3.990   4.396
  222POPC   GL2 3209   1.066   4.383   4.382
  222POPC   C1A 3210   1.074   3.977   4.872
  222POPC   D2A 3211   1.327   3.945   5.258
  222POPC   C3A 3212   1.267   4.185   5.674
  222POPC   C4A 3213   1.502   4.035   6.061
  222POPC   C1B 3214   1.052   4.496   4.793
  222POPC   C2B 3215   1.126   4.405   5.202
  222POPC   C3B 3216   0.857   4.520   5.518
  222POPC   C4B 3217   0.920   4.571   5.904
  223POPC   NC3 3218   2.549   8.363   3.987
  223POPC   PO4 3219   2.740   9.073   3.947
  223POPC   GL1 3220   2.759   8.787   4.307
  223POPC   GL2 3221   2.454   8.690   4.408
  223POPC   C1A 3222   2.830   8.784   4.782
  223POPC   D2A 3223   2.907   8.591   5.180
  223POPC   C3A 3224   2.786   8.670   5.576
  223POPC   C4A 3225   3.085   8.636   5.943
  223POPC   C1B 3226   2.504   9.121   4.621
  223POPC   C2B 3227   2.532   9.231   5.072
  223POPC   C3B 3228   2.647   9.177   5.519
  223POPC   C4B 3229   3.060   9.100   5.727
  224POPC   NC3 3230  10.169   0.387   3.958
  224POPC   PO4 3231  10.688   0.154   4.181
  224POPC   GL1 3232  10.326   0.271   4.441
  224POPC   GL2 3233  10.194   0.630   4.421
  224POPC   C1A 3234  10.203   0.294   4.866
  224POPC   D2A 3235  10.358   0.492   5.235
  224POPC   C3A 3236  10.456   0.238   5.593
  224POPC   C4A 3237  10.084   0.127   5.800
  224POPC   C1B 3238  10.537   0.671   4.742
  224POPC   C2B 3239  10.814   0.692   5.110
  224POPC   C3B 3240  10.665   0.763   5.537
  224POPC   C4B 3241  10.617   0.697   5.999
  225POPC   NC3 3242   2.238   3.011   4.031
  225POPC   PO4 3243   1.630   3.185   3.787
  225POPC   GL1 3244   1.763   2.934   4.213
  225POPC   GL2 3245   1.941   2.592   4.193
  225POPC   C1A 3246   1.646   2.722   4.627
  225POPC   D2A 3247   1.561   2.856   5.048
  225POPC   C3A 3248   1.774   2.724   5.428
  225POPC   C4A 3249   1.708   2.849   5.835
  225POPC   C1B 3250   2.156   2.707   4.590
  225POPC   C2B 3251   2.063   2.700   5.010
  225POPC   C3B 3252   2.302   2.802   5.384
  225POPC   C4B 3253   2.190   2.674   5.802
  226POPC   NC3 3254   6.872   7.931   3.949
  226POPC   PO4 3255   6.989   8.466   3.828
  226POPC   GL1 3256   7.049   8.396   4.296
  226POPC   GL2 3257   7.360   8.247   4.393
  226POPC   C1A 3258   7.091   8.463   4.788
  226POPC   D2A 3259   7.324   8.455   5.213
  226POPC   C3A 3260   7.124   8.336   5.621
  226POPC   C4A 3261   7.029   8.016   5.950
  226POPC   C1B 3262   7.600   8.375   4.780
  226POPC   C2B 3263   7.798   8.276   5.184
  226POPC   C3B 3264   7.629   8.220   5.598
  226POPC   C4B 3265   7.468   8.275   6.027
  227POPC   NC3 3266   1.336   0.256   4.080
  227POPC   PO4 3267   1.079   0.832   4.041
  227POPC   GL1 3268   1.145   0.640   4.420
  227POPC   GL2 3269   0.974   0.334   4.486
  227POPC   C1A 3270   1.083   0.729   4.847
  227POPC   D2A 3271   0.825   0.826   5.186
  227POPC   C3A 3272   1.032   0.696   5.558
  227POPC   C4A 3273   1.271   0.702   5.939
  227POPC   C1B 3274   1.377   0.318   4.761
  227POPC   C2B 3275   1.256   0.336   5.195
  227POPC   C3B 3276   1.405   0.295   5.587
  227POPC   C4B 3277   1.470  11.421   5.834
  228POPC   NC3 3278  10.863   7.817   3.890
  228POPC   PO4 3279  11.467   7.718   3.659
  228POPC   GL1 3280  11.363   7.560   4.167
  228POPC   GL2 3281  11.332   7.219   4.243
  228POPC   C1A 3282  11.104   7.471   4.621
  228POPC   D2A 3283  10.857   7.419   5.060
  228POPC   C3A 3284  10.992   7.575   5.497
  228POPC   C4A 3285  10.904   7.599   5.974
  228POPC   C1B 3286  11.383   7.042   4.659
  228POPC   C2B 3287  11.228   6.898   5.044
  228POPC   C3B 3288  11.156   7.078   5.452
  228POPC   C4B 3289  11.253   7.267   5.859
  229POPC   NC3 3290   4.283   2.569   3.886
  229POPC   PO4 3291   3.879   3.006   4.083
  229POPC   GL1 3292   3.972   2.680   4.403
  229POPC   GL2 3293   4.279   2.430   4.379
  229POPC   C1A 3294   3.838   2.751   4.835
  229POPC   D2A 3295   3.622   2.608   5.219
  229POPC   C3A 3296   3.824   2.632   5.644
  229POPC   C4A 3297   4.116   2.658   6.030
  229POPC   C1B 3298   4.317   2.541   4.809
  229POPC   C2B 3299   4.131   2.560   5.216
  229POPC   C3B 3300   4.310   2.454   5.601
  229POPC   C4B 3301   4.610   2.733   5.792
  230POPC   NC3 3302   4.804   9.872   4.081
  230POPC   PO4 3303   5.439  10.063   3.961
  230POPC   GL1 3304   5.368  10.284   4.335
  230POPC   GL2 3305   5.270  10.653   4.304
  230POPC   C1A 3306   5.213  10.300   4.737
  230POPC   D2A 3307   5.042  10.486   5.099
  230POPC   C3A 3308   5.111  10.168   5.395
  230POPC   C4A 3309   5.379  10.185   5.712
  230POPC   C1B 3310   4.903  10.729   4.591
  230POPC   C2B 3311   4.792  10.936   5.003
  230POPC   C3B 3312   4.738  10.774   5.411
  230POPC   C4B 3313   5.114  10.636   5.639
  231POPC   NC3 3314  10.509   2.695   4.030
  231POPC   PO4 3315  10.745   3.324   3.941
  231POPC   GL1 3316  10.828   3.011   4.276
  231POPC   GL2 3317  10.521   2.997   4.447
  231POPC   C1A 3318  10.973   2.961   4.712
  231POPC   D2A 3319  10.814   3.108   5.122
  231POPC   C3A 3320  10.805   2.877   5.528
  231POPC   C4A 3321  10.725   2.592   5.870
  231POPC   C1B 3322  10.563   2.606   4.683
  231POPC   C2B 3323  10.404   2.367   5.046
  231POPC   C3B 3324  10.422   2.513   5.468
  231POPC   C4B 3325  10.251   2.878   5.670
  232POPC   NC3 3326   7.248  10.834   4.007
  232POPC   PO4 3327   6.930  11.450   3.780
  232POPC   GL1 3328   6.992  11.273   4.246
  232POPC   GL2 3329   7.317  11.111   4.417
  232POPC   C1A 3330   6.929  11.238   4.734
  232POPC   D2A 3331   6.998  11.419   5.171
  232POPC   C3A 3332   7.034  11.190   5.578
  232POPC   C4A 3333   6.844  11.322   5.989
  232POPC   C1B 3334   7.374  10.916   4.836
  232POPC   C2B 3335   7.452  11.196   5.168
  232POPC   C3B 3336   7.541  11.349   5.563
  232POPC   C4B 3337   7.547  10.927   5.785
  233POPC   NC3 3338   1.694   3.721   3.886
  233POPC   PO4 3339   2.287   3.473   4.107
  233POPC   GL1 3340   1.859   3.448   4.290
  233POPC   GL2 3341   2.035   3.515   4.569
  233POPC   C1A 3342   1.580   3.705   4.624
  233POPC   D2A 3343   1.740   3.901   4.975
  233POPC   C3A 3344   1.794   3.692   5.351
  233POPC   C4A 3345   1.865   3.708   5.774
  233POPC   C1B 3346   1.916   3.151   4.752
  233POPC   C2B 3347   1.941   3.175   5.185
  233POPC   C3B 3348   1.996   3.199   5.594
  233POPC   C4B 3349   2.041   3.226   6.015
  234POPC   NC3 3350   8.989   1.883   3.871
  234POPC   PO4 3351   8.428   2.325   3.992
  234POPC   GL1 3352   8.801   2.188   4.231
  234POPC   GL2 3353   8.719   1.858   4.292
  234POPC   C1A 3354   9.020   2.104   4.664
  234POPC   D2A 3355   8.986   2.301   5.068
  234POPC   C3A 3356   9.035   2.022   5.403
  234POPC   C4A 3357   8.986   2.071   5.818
  234POPC   C1B 3358   8.527   2.023   4.643
  234POPC   C2B 3359   8.561   1.867   5.063
  234POPC   C3B 3360   8.328   1.936   5.431
  234POPC   C4B 3361   8.464   1.951   5.847
  235POPC   NC3 3362   9.676   0.347   3.635
  235POPC   PO4 3363   9.266   0.704   4.026
  235POPC   GL1 3364   9.391   0.403   4.308
  235POPC   GL2 3365   9.727   0.463   4.212
  235POPC   C1A 3366   9.245   0.295   4.713
  235POPC   D2A 3367   9.254   0.575   5.064
  235POPC   C3A 3368   9.299   0.300   5.367
  235POPC   C4A 3369   9.503   0.187   5.720
  235POPC   C1B 3370   9.752   0.491   4.665
  235POPC   C2B 3371   9.728   0.339   5.083
  235POPC   C3B 3372   9.858   0.495   5.486
  235POPC   C4B 3373  10.197   0.649   5.738
  236POPC   NC3 3374   8.832   0.946   4.018
  236POPC   PO4 3375   8.533   1.610   3.843
  236POPC   GL1 3376   8.608   1.366   4.219
  236POPC   GL2 3377   8.973   1.397   4.268
  236POPC   C1A 3378   8.558   1.488   4.668
  236POPC   D2A 3379   8.596   1.335   5.108
  236POPC   C3A 3380   8.708   1.606   5.495
  236POPC   C4A 3381   9.086   1.575   5.752
  236POPC   C1B 3382   8.952   1.155   4.651
  236POPC   C2B 3383   9.093   1.077   5.065
  236POPC   C3B 3384   8.944   1.164   5.466
  236POPC   C4B 3385   9.074   1.038   5.851
  237POPC   NC3 3386   0.264   7.384   3.896
  237POPC   PO4 3387   0.886   7.040   3.905
  237POPC   GL1 3388   0.653   7.129   4.328
  237POPC   GL2 3389   0.320   7.262   4.372
  237POPC   C1A 3390   0.607   7.353   4.783
  237POPC   D2A 3391   0.352   7.251   5.181
  237POPC   C3A 3392   0.471   7.257   5.657
  237POPC   C4A 3393   0.202   7.146   6.045
  237POPC   C1B 3394   0.113   7.484   4.702
  237POPC   C2B 3395  11.374   7.405   5.091
  237POPC   C3B 3396   0.029   7.502   5.525
  237POPC   C4B 3397   0.267   7.638   5.918
  238POPC   NC3 3398   5.517   1.983   3.982
  238POPC   PO4 3399   5.903   2.397   4.085
  238POPC   GL1 3400   5.850   2.053   4.361
  238POPC   GL2 3401   5.940   1.730   4.236
  238POPC   C1A 3402   5.541   1.909   4.685
  238POPC   D2A 3403   5.343   1.865   5.114
  238POPC   C3A 3404   5.580   1.939   5.494
  238POPC   C4A 3405   5.820   2.147   5.836
  238POPC   C1B 3406   6.044   1.753   4.723
  238POPC   C2B 3407   6.021   1.905   5.180
  238POPC   C3B 3408   6.260   2.056   5.554
  238POPC   C4B 3409   6.274   1.986   6.017
  239POPC   NC3 3410   0.696   6.660   4.106
  239POPC   PO4 3411   0.117   6.923   3.953
  239POPC   GL1 3412   0.227   6.754   4.318
  239POPC   GL2 3413   0.143   6.402   4.247
  239POPC   C1A 3414   0.367   6.898   4.731
  239POPC   D2A 3415   0.415   6.737   5.119
  239POPC   C3A 3416   0.343   6.785   5.545
  239POPC   C4A 3417   0.655   6.567   5.769
  239POPC   C1B 3418   0.374   6.391   4.656
  239POPC   C2B 3419   0.453   6.224   5.080
  239POPC   C3B 3420   0.318   6.275   5.496
  239POPC   C4B 3421   0.387   6.084   5.910
  240POPC   NC3 3422  10.333   9.658   3.902
  240POPC   PO4 3423  10.830   9.139   3.797
  240POPC   GL1 3424  10.496   9.260   4.161
  240POPC   GL2 3425  10.666   9.557   4.271
  240POPC   C1A 3426  10.424   9.315   4.646
  240POPC   D2A 3427  10.598   9.206   5.047
  240POPC   C3A 3428  10.390   9.405   5.369
  240POPC   C4A 3429  10.603   9.659   5.656
  240POPC   C1B 3430  10.383   9.823   4.539
  240POPC   C2B 3431  10.304   9.792   4.997
  240POPC   C3B 3432  10.203   9.898   5.454
  240POPC   C4B 3433  10.347   9.975   5.946
  241POPC   NC3 3434   4.835  11.172   3.811
  241POPC   PO4 3435   5.501  10.953   3.847
  241POPC   GL1 3436   5.347  11.169   4.228
  241POPC   GL2 3437   5.003  11.238   4.284
  241POPC   C1A 3438   5.258  11.072   4.681
  241POPC   D2A 3439   5.117  11.340   5.008
  241POPC   C3A 3440   5.163  11.134   5.397
  241POPC   C4A 3441   5.193  11.421   5.726
  241POPC   C1B 3442   4.740  11.304   4.653
  241POPC   C2B 3443   4.589  11.429   5.066
  241POPC   C3B 3444   4.546  11.284   5.472
  241POPC   C4B 3445   4.783  11.130   5.768
  242POPC   NC3 3446  11.283   5.993   3.541
  242POPC   PO4 3447  10.978   5.626   4.034
  242POPC   GL1 3448  11.123   5.723   4.427
  242POPC   GL2 3449  11.433   5.684   4.304
  242POPC   C1A 3450  11.200   5.531   4.844
  242POPC   D2A 3451  11.056   5.358   5.275
  242POPC   C3A 3452  11.048   5.707   5.597
  242POPC   C4A 3453  10.898   6.127   5.552
  242POPC   C1B 3454   0.025   6.004   4.603
  242POPC   C2B 3455  11.255   6.058   4.932
  242POPC   C3B 3456  11.370   6.047   5.364
  242POPC   C4B 3457  11.384   6.229   5.782
  243POPC   NC3 3458   8.087  11.123   3.832
  243POPC   PO4 3459   7.681  10.777   4.174
  243POPC   GL1 3460   7.971  11.056   4.349
  243POPC   GL2 3461   8.361  11.070   4.266
  243POPC   C1A 3462   7.834  11.129   4.764
  243POPC   D2A 3463   7.945  11.284   5.153
  243POPC   C3A 3464   7.980  11.081   5.551
  243POPC   C4A 3465   7.878  11.288   5.955
  243POPC   C1B 3466   8.337  11.196   4.702
  243POPC   C2B 3467   8.407  11.024   5.112
  243POPC   C3B 3468   8.510  11.232   5.479
  243POPC   C4B 3469   8.363  11.146   5.901
  244POPC   NC3 3470   2.297   9.000   4.026
  244POPC   PO4 3471   1.712   9.316   3.836
  244POPC   GL1 3472   1.625   9.166   4.284
  244POPC   GL2 3473   1.795   8.878   4.268
  244POPC   C1A 3474   1.619   9.033   4.768
  244POPC   D2A 3475   1.811   8.743   5.124
  244POPC   C3A 3476   1.685   8.726   5.600
  244POPC   C4A 3477   1.688   8.963   6.009
  244POPC   C1B 3478   2.008   8.758   4.625
  244POPC   C2B 3479   2.299   8.781   4.928
  244POPC   C3B 3480   2.278   8.840   5.369
  244POPC   C4B 3481   2.145   9.050   5.737
  245POPC   NC3 3482   4.316   0.527   3.840
  245POPC   PO4 3483   4.124  11.381   3.879
  245POPC   GL1 3484   4.134   0.194   4.242
  245POPC   GL2 3485   4.214   0.523   4.357
  245POPC   C1A 3486   4.332   0.178   4.686
  245POPC   D2A 3487   4.124   0.258   5.076
  245POPC   C3A 3488   4.365   0.271   5.444
  245POPC   C4A 3489   4.305   0.298   5.883
  245POPC   C1B 3490   4.332   0.712   4.790
  245POPC   C2B 3491   4.561   0.702   5.199
  245POPC   C3B 3492   4.509   0.727   5.657
  245POPC   C4B 3493   4.031   0.686   5.721
  246POPC   NC3 3494   8.736   9.604   3.871
  246POPC   PO4 3495   9.353   9.294   3.946
  246POPC   GL1 3496   9.116   9.453   4.336
  246POPC   GL2 3497   8.858   9.689   4.352
  246POPC   C1A 3498   8.944   9.280   4.755
  246POPC   D2A 3499   8.835   9.164   5.221
  246POPC   C3A 3500   9.100   9.344   5.576
  246POPC   C4A 3501   9.115   9.165   6.023
  246POPC   C1B 3502   9.056   9.801   4.730
  246POPC   C2B 3503   8.914   9.667   5.142
  246POPC   C3B 3504   8.865   9.850   5.535
  246POPC   C4B 3505   9.186  10.001   5.805
  247POPC   NC3 3506   2.281   0.466   3.880
  247POPC   PO4 3507   1.774   0.111   4.033
  247POPC   GL1 3508   2.064   0.128   4.296
  247POPC   GL2 3509   2.092   0.483   4.352
  247POPC   C1A 3510   1.961   0.128   4.709
  247POPC   D2A 3511   1.791   0.136   5.083
  247POPC   C3A 3512   2.163   0.063   5.400
  247POPC   C4A 3513   2.043   0.042   5.823
  247POPC   C1B 3514   1.840   0.652   4.701
  247POPC   C2B 3515   1.638   0.646   5.094
  247POPC   C3B 3516   1.862   0.473   5.438
  247POPC   C4B 3517   2.133   0.554   5.737
  248POPC   NC3 3518  10.478   6.137   3.718
  248POPC   PO4 3519  10.633   6.740   3.965
  248POPC   GL1 3520  10.558   6.678   4.339
  248POPC   GL2 3521  10.413   6.353   4.237
  248POPC   C1A 3522  10.398   6.797   4.723
  248POPC   D2A 3523  10.245   6.543   5.047
  248POPC   C3A 3524  10.332   6.695   5.418
  248POPC   C4A 3525  10.039   6.580   5.724
  248POPC   C1B 3526  10.467   6.268   4.676
  248POPC   C2B 3527  10.361   6.015   5.014
  248POPC   C3B 3528  10.345   6.171   5.438
  248POPC   C4B 3529  10.505   6.372   5.770
  249POPC   NC3 3530   0.462   1.965   3.694
  249POPC   PO4 3531   0.150   2.379   4.057
  249POPC   GL1 3532   0.252   2.024   4.260
  249POPC   GL2 3533   0.596   2.071   4.183
  249POPC   C1A 3534   0.181   1.809   4.661
  249POPC   D2A 3535   0.343   1.929   5.050
  249POPC   C3A 3536   0.172   1.866   5.423
  249POPC   C4A 3537   0.001   2.219   5.631
  249POPC   C1B 3538   0.617   2.084   4.637
  249POPC   C2B 3539   0.639   2.331   5.023
  249POPC   C3B 3540   0.483   2.292   5.467
  249POPC   C4B 3541   0.491   1.952   5.795
  250POPC   NC3 3542   0.500   8.878   3.882
  250POPC   PO4 3543  11.441   8.453   3.783
  250POPC   GL1 3544   0.222   8.556   4.190
  250POPC   GL2 3545   0.556   8.696   4.329
  250POPC   C1A 3546   0.158   8.843   4.595
  250POPC   D2A 3547   0.325   8.822   5.039
  250POPC   C3A 3548   0.188   9.113   5.400
  250POPC   C4A 3549   0.081   9.130   5.858
  250POPC   C1B 3550   0.829   8.715   4.648
  250POPC   C2B 3551   0.866   8.732   5.065
  250POPC   C3B 3552   0.703   8.984   5.365
  250POPC   C4B 3553   0.490   8.886   5.750
  251POPC   NC3 3554  11.258  11.253   3.661
  251POPC   PO4 3555  10.837   0.179   3.655
  251POPC   GL1 3556  11.152   0.026   4.091
  251POPC   GL2 3557  11.302  11.228   4.173
  251POPC   C1A 3558  11.178   0.023   4.591
  251POPC   D2A 3559  11.038  11.277   4.994
  251POPC   C3A 3560  11.192  11.356   5.433
  251POPC   C4A 3561  11.120  11.483   5.886
  251POPC   C1B 3562  11.255  11.024   4.608
  251POPC   C2B 3563  11.309  10.816   5.011
  251POPC   C3B 3564  11.391  10.835   5.429
  251POPC   C4B 3565  11.179  10.978   5.783
  252POPC   NC3 3566   4.194   0.991   4.194
  252POPC   PO4 3567   4.687   1.306   3.779
  252POPC   GL1 3568   4.670   1.221   4.199
  252POPC   GL2 3569   4.419   1.427   4.315
  252POPC   C1A 3570   4.682   1.163   4.668
  252POPC   D2A 3571   4.558   1.190   5.091
  252POPC   C3A 3572   4.631   1.400   5.464
  252POPC   C4A 3573   4.806   1.248   5.829
  252POPC   C1B 3574   4.210   1.355   4.744
  252POPC   C2B 3575   4.090   1.347   5.178
  252POPC   C3B 3576   4.219   1.128   5.520
  252POPC   C4B 3577   4.142   1.475   5.752
  253POPC   NC3 3578   5.568  10.499   3.908
  253POPC   PO4 3579   6.069  10.104   3.904
  253POPC   GL1 3580   5.879  10.245   4.297
  253POPC   GL2 3581   5.910  10.607   4.294
  253POPC   C1A 3582   5.755  10.112   4.759
  253POPC   D2A 3583   5.552   9.959   5.173
  253POPC   C3A 3584   5.799   9.957   5.541
  253POPC   C4A 3585   5.887  10.282   5.785
  253POPC   C1B 3586   5.632  10.591   4.654
  253POPC   C2B 3587   5.563  10.454   5.088
  253POPC   C3B 3588   5.605  10.589   5.486
  253POPC   C4B 3589   5.941  10.774   5.750
  254POPC   NC3 3590   1.868  10.612   3.593
  254POPC   PO4 3591   2.452  10.880   3.862
  254POPC   GL1 3592   2.339  10.775   4.290
  254POPC   GL2 3593   2.080  10.527   4.405
  254POPC   C1A 3594   2.343  10.766   4.760
  254POPC   D2A 3595   2.061  10.619   5.066
  254POPC   C3A 3596   2.039  10.830   5.443
  254POPC   C4A 3597   2.198  10.694   5.860
  254POPC   C1B 3598   2.245  10.220   4.741
  254POPC   C2B 3599   2.171  10.100   5.191
  254POPC   C3B 3600   2.010  10.339   5.521
  254POPC   C4B 3601   1.671  10.561   5.691
  255POPC   NC3 3602   9.738  11.090   3.749
  255POPC   PO4 3603   9.349   0.048   3.730
  255POPC   GL1 3604   9.622  11.464   4.142
  255POPC   GL2 3605   9.651  11.117   4.261
  255POPC   C1A 3606   9.636  11.459   4.664
  255POPC   D2A 3607   9.461  11.366   5.152
  255POPC   C3A 3608   9.690  11.255   5.577
  255POPC   C4A 3609   9.741  11.402   6.083
  255POPC   C1B 3610   9.634  10.892   4.670
  255POPC   C2B 3611   9.390  10.831   5.064
  255POPC   C3B 3612   9.246  10.942   5.484
  255POPC   C4B 3613   9.470  10.906   5.886
  256POPC   NC3 3614   9.117   4.840   3.979
  256POPC   PO4 3615   8.575   5.108   3.810
  256POPC   GL1 3616   8.702   5.188   4.292
  256POPC   GL2 3617   9.050   5.153   4.400
  256POPC   C1A 3618   8.708   5.077   4.770
  256POPC   D2A 3619   8.787   4.861   5.203
  256POPC   C3A 3620   8.742   4.944   5.663
  256POPC   C4A 3621   8.434   4.910   6.013
  256POPC   C1B 3622   9.184   5.283   4.814
  256POPC   C2B 3623   9.171   5.218   5.260
  256POPC   C3B 3624   9.160   5.245   5.683
  256POPC   C4B 3625   9.234   4.958   6.005
  257POPC   NC3 3626   2.702   3.647   4.073
  257POPC   PO4 3627   2.993   3.060   4.004
  257POPC   GL1 3628   2.690   3.229   4.331
  257POPC   GL2 3629   2.383   3.140   4.495
  257POPC   C1A 3630   2.704   3.448   4.742
  257POPC   D2A 3631   2.924   3.371   5.125
  257POPC   C3A 3632   2.859   3.570   5.524
  257POPC   C4A 3633   3.124   3.457   5.874
  257POPC   C1B 3634   2.409   3.075   4.939
  257POPC   C2B 3635   2.438   3.307   5.315
  257POPC   C3B 3636   2.348   3.576   5.658
  257POPC   C4B 3637   2.615   3.526   5.991
  258POPC   NC3 3638   4.165  10.638   4.011
  258POPC   PO4 3639   4.373  10.007   4.120
  258POPC   GL1 3640   4.097  10.143   4.450
  258POPC   GL2 3641   3.831  10.325   4.294
  258POPC   C1A 3642   4.206  10.171   4.915
  258POPC   D2A 3643   4.605  10.196   5.187
  258POPC   C3A 3644   4.670  10.307   5.631
  258POPC   C4A 3645   4.703  10.645   5.930
  258POPC   C1B 3646   3.946  10.596   4.685
  258POPC   C2B 3647   3.885  10.512   5.130
  258POPC   C3B 3648   4.126  10.309   5.446
  258POPC   C4B 3649   4.235  10.440   5.866
  259POPC   NC3 3650   5.061   0.637   3.945
  259POPC   PO4 3651   5.257   0.013   3.737
  259POPC   GL1 3652   5.215   0.206   4.187
  259POPC   GL2 3653   4.856   0.246   4.310
  259POPC   C1A 3654   5.266   0.475   4.580
  259POPC   D2A 3655   5.327   0.354   5.021
  259POPC   C3A 3656   5.291   0.511   5.468
  259POPC   C4A 3657   5.396   0.353   5.904
  259POPC   C1B 3658   4.830   0.300   4.784
  259POPC   C2B 3659   4.872   0.308   5.250
  259POPC   C3B 3660   4.830   0.299   5.701
  259POPC   C4B 3661   4.819   0.487   6.111
  260POPC   NC3 3662   1.873   7.973   4.006
  260POPC   PO4 3663   2.106   8.584   3.990
  260POPC   GL1 3664   2.112   8.318   4.337
  260POPC   GL2 3665   1.769   8.331   4.411
  260POPC   C1A 3666   2.082   8.294   4.807
  260POPC   D2A 3667   1.761   8.225   5.121
  260POPC   C3A 3668   2.005   8.347   5.464
  260POPC   C4A 3669   2.179   8.558   5.800
  260POPC   C1B 3670   1.780   7.917   4.664
  260POPC   C2B 3671   1.693   7.696   5.073
  260POPC   C3B 3672   1.761   7.847   5.503
  260POPC   C4B 3673   1.577   8.221   5.696
  261POPC   NC3 3674   8.756   2.706   4.078
  261POPC   PO4 3675   9.315   2.977   4.103
  261POPC   GL1 3676   9.145   2.834   4.477
  261POPC   GL2 3677   9.125   2.529   4.414
  261POPC   C1A 3678   9.032   2.842   4.925
  261POPC   D2A 3679   8.970   2.742   5.369
  261POPC   C3A 3680   9.181   3.034   5.676
  261POPC   C4A 3681   9.172   3.169   6.060
  261POPC   C1B 3682   8.708   2.511   4.685
  261POPC   C2B 3683   8.481   2.369   5.075
  261POPC   C3B 3684   8.639   2.363   5.518
  261POPC   C4B 3685   8.602   2.765   5.748
  262POPC   NC3 3686   3.214  10.934   4.070
  262POPC   PO4 3687   3.222   0.055   3.928
  262POPC   GL1 3688   3.240  11.380   4.333
  262POPC   GL2 3689   3.553  11.214   4.351
  262POPC   C1A 3690   3.231  11.314   4.787
  262POPC   D2A 3691   3.249  11.126   5.188
  262POPC   C3A 3692   3.227  11.360   5.556
  262POPC   C4A 3693   3.325  11.420   5.992
  262POPC   C1B 3694   3.683  11.038   4.736
  262POPC   C2B 3695   3.731  10.989   5.160
  262POPC   C3B 3696   3.641  11.044   5.555
  262POPC   C4B 3697   3.821  10.700   5.723
  263POPC   NC3 3698  11.264   2.164   3.955
  263POPC   PO4 3699   0.148   1.646   3.921
  263POPC   GL1 3700  11.296   1.751   4.273
  263POPC   GL2 3701  10.947   1.974   4.282
  263POPC   C1A 3702  11.197   1.924   4.715
  263POPC   D2A 3703  11.330   2.095   5.105
  263POPC   C3A 3704  11.169   1.861   5.462
  263POPC   C4A 3705  11.395   1.802   5.885
  263POPC   C1B 3706  10.735   2.133   4.670
  263POPC   C2B 3707  10.820   2.070   5.102
  263POPC   C3B 3708  10.709   2.101   5.520
  263POPC   C4B 3709  10.999   2.162   5.837
  264POPC   NC3 3710   4.467   1.717   3.772
  264POPC   PO4 3711   3.921   1.357   4.048
  264POPC   GL1 3712   3.974   1.666   4.430
  264POPC   GL2 3713   4.242   1.898   4.301
  264POPC   C1A 3714   3.937   1.757   4.900
  264POPC   D2A 3715   4.049   2.067   5.190
  264POPC   C3A 3716   4.161   1.958   5.576
  264POPC   C4A 3717   3.868   1.893   5.910
  264POPC   C1B 3718   4.349   1.989   4.735
  264POPC   C2B 3719   4.453   1.743   5.121
  264POPC   C3B 3720   4.773   1.887   5.446
  264POPC   C4B 3721   4.738   2.219   5.791
  265POPC   NC3 3722   1.131   6.660   3.750
  265POPC   PO4 3723   1.484   6.449   4.200
  265POPC   GL1 3724   1.302   6.411   4.546
  265POPC   GL2 3725   0.973   6.399   4.458
  265POPC   C1A 3726   1.304   6.665   4.886
  265POPC   D2A 3727   1.275   6.863   5.260
  265POPC   C3A 3728   1.302   6.653   5.639
  265POPC   C4A 3729   1.526   6.877   5.984
  265POPC   C1B 3730   0.818   6.533   4.847
  265POPC   C2B 3731   0.851   6.541   5.278
  265POPC   C3B 3732   0.835   6.188   5.496
  265POPC   C4B 3733   1.035   6.252   5.873
  266POPC   NC3 3734   1.378   6.101   3.931
  266POPC   PO4 3735   1.178   5.463   3.924
  266POPC   GL1 3736   1.291   5.689   4.289
  266POPC   GL2 3737   1.047   5.917   4.292
  266POPC   C1A 3738   1.396   5.539   4.709
  266POPC   D2A 3739   1.250   5.678   5.127
  266POPC   C3A 3740   1.531   5.659   5.446
  266POPC   C4A 3741   1.511   5.481   5.820
  266POPC   C1B 3742   1.119   5.975   4.726
  266POPC   C2B 3743   1.195   6.215   5.087
  266POPC   C3B 3744   1.349   6.124   5.492
  266POPC   C4B 3745   1.067   5.757   5.638
  267POPC   NC3 3746   7.231   2.211   3.917
  267POPC   PO4 3747   7.078   1.595   3.609
  267POPC   GL1 3748   7.218   1.721   4.043
  267POPC   GL2 3749   7.557   1.871   4.157
  267POPC   C1A 3750   7.144   1.901   4.506
  267POPC   D2A 3751   7.175   1.973   4.991
  267POPC   C3A 3752   6.888   1.931   5.349
  267POPC   C4A 3753   7.039   1.771   5.748
  267POPC   C1B 3754   7.647   1.909   4.619
  267POPC   C2B 3755   7.650   1.790   5.066
  267POPC   C3B 3756   7.442   1.941   5.449
  267POPC   C4B 3757   7.166   2.259   5.608
  268POPC   NC3 3758  10.298   8.242   3.642
  268POPC   PO4 3759  10.048   7.716   3.883
  268POPC   GL1 3760  10.362   7.814   4.215
  268POPC   GL2 3761  10.428   8.174   4.274
  268POPC   C1A 3762  10.173   7.887   4.652
  268POPC   D2A 3763   9.952   8.109   4.978
  268POPC   C3A 3764  10.100   7.990   5.377
  268POPC   C4A 3765  10.144   7.952   5.789
  268POPC   C1B 3766  10.401   8.329   4.711
  268POPC   C2B 3767  10.311   8.411   5.159
  268POPC   C3B 3768  10.542   8.243   5.536
  268POPC   C4B 3769  10.578   8.380   5.965
  269POPC   NC3 3770   2.878   9.517   3.819
  269POPC   PO4 3771   2.277   9.812   3.882
  269POPC   GL1 3772   2.536   9.668   4.239
  269POPC   GL2 3773   2.795   9.438   4.324
  269POPC   C1A 3774   2.497   9.626   4.702
  269POPC   D2A 3775   2.752   9.701   5.084
  269POPC   C3A 3776   2.492   9.743   5.415
  269POPC   C4A 3777   2.334   9.522   5.735
  269POPC   C1B 3778   2.971   9.349   4.750
  269POPC   C2B 3779   3.043   9.249   5.199
  269POPC   C3B 3780   3.005   9.570   5.533
  269POPC   C4B 3781   2.793   9.805   5.831
  270POPC   NC3 3782   3.848  11.037   3.727
  270POPC   PO4 3783   4.508  10.852   3.775
  270POPC   GL1 3784   4.528  10.990   4.216
  270POPC   GL2 3785   4.495  11.339   4.223
  270POPC   C1A 3786   4.411  10.877   4.652
  270POPC   D2A 3787   4.370  10.646   5.041
  270POPC   C3A 3788   4.201  10.853   5.392
  270POPC   C4A 3789   4.296  10.944   5.811
  270POPC   C1B 3790   4.113  11.257   4.519
  270POPC   C2B 3791   4.141  11.214   4.973
  270POPC   C3B 3792   4.044  11.349   5.400
  270POPC   C4B 3793   3.949  11.339   5.843
  271POPC   NC3 3794   2.839   6.585   3.874
  271POPC   PO4 3795   2.924   7.154   3.961
  271POPC   GL1 3796   2.855   6.825   4.343
  271POPC   GL2 3797   2.551   6.622   4.305
  271POPC   C1A 3798   2.904   6.609   4.801
  271POPC   D2A 3799   3.022   6.421   5.248
  271POPC   C3A 3800   2.839   6.599   5.637
  271POPC   C4A 3801   2.456   6.596   5.897
  271POPC   C1B 3802   2.528   6.310   4.595
  271POPC   C2B 3803   2.670   6.181   4.986
  271POPC   C3B 3804   2.537   6.254   5.409
  271POPC   C4B 3805   2.248   6.157   5.742
  272POPC   NC3 3806   6.921   3.095   4.106
  272POPC   PO4 3807   6.784   2.418   3.969
  272POPC   GL1 3808   7.062   2.569   4.327
  272POPC   GL2 3809   7.434   2.502   4.291
  272POPC   C1A 3810   7.083   2.775   4.768
  272POPC   D2A 3811   7.304   2.828   5.194
  272POPC   C3A 3812   7.126   2.782   5.640
  272POPC   C4A 3813   7.155   2.975   6.083
  272POPC   C1B 3814   7.388   2.351   4.711
  272POPC   C2B 3815   7.497   2.347   5.151
  272POPC   C3B 3816   7.621   2.460   5.578
  272POPC   C4B 3817   7.769   2.435   6.005
  273POPC   NC3 3818   1.940   9.766   3.579
  273POPC   PO4 3819   1.918  10.099   4.184
  273POPC   GL1 3820   2.062   9.756   4.393
  273POPC   GL2 3821   2.078   9.438   4.183
  273POPC   C1A 3822   2.005   9.747   4.809
  273POPC   D2A 3823   1.735   9.827   5.097
  273POPC   C3A 3824   1.945   9.672   5.393
  273POPC   C4A 3825   2.016   9.887   5.719
  273POPC   C1B 3826   2.028   9.281   4.594
  273POPC   C2B 3827   2.012   9.237   5.042
  273POPC   C3B 3828   1.780   9.191   5.416
  273POPC   C4B 3829   1.794   9.423   5.814
  274POPC   NC3 3830   7.261   8.847   3.859
  274POPC   PO4 3831   7.055   9.421   4.118
  274POPC   GL1 3832   7.287   9.135   4.435
  274POPC   GL2 3833   7.408   8.785   4.340
  274POPC   C1A 3834   7.302   9.005   4.894
  274POPC   D2A 3835   7.381   8.938   5.342
  274POPC   C3A 3836   7.100   9.105   5.693
  274POPC   C4A 3837   6.802   9.071   6.081
  274POPC   C1B 3838   7.701   8.845   4.635
  274POPC   C2B 3839   7.785   8.780   5.047
  274POPC   C3B 3840   7.827   8.722   5.476
  274POPC   C4B 3841   7.498   8.700   5.768
  275POPC   NC3 3842   2.741   1.269   3.727
  275POPC   PO4 3843   2.457   1.806   4.012
  275POPC   GL1 3844   2.690   1.540   4.289
  275POPC   GL2 3845   2.816   1.224   4.221
  275POPC   C1A 3846   2.558   1.362   4.701
  275POPC   D2A 3847   2.336   1.304   5.062
  275POPC   C3A 3848   2.314   1.498   5.435
  275POPC   C4A 3849   2.365   1.405   5.837
  275POPC   C1B 3850   2.996   1.133   4.625
  275POPC   C2B 3851   2.814   1.095   5.071
  275POPC   C3B 3852   2.731   1.201   5.522
  275POPC   C4B 3853   2.788   1.153   5.989
  276POPC   NC3 3854   3.427   2.911   4.111
  276POPC   PO4 3855   3.185   2.397   3.665
  276POPC   GL1 3856   3.093   2.531   4.190
  276POPC   GL2 3857   3.441   2.519   4.442
  276POPC   C1A 3858   3.005   2.442   4.680
  276POPC   D2A 3859   3.153   2.412   5.161
  276POPC   C3A 3860   3.237   2.648   5.575
  276POPC   C4A 3861   3.467   2.713   5.991
  276POPC   C1B 3862   3.329   2.804   4.826
  276POPC   C2B 3863   3.351   3.063   5.221
  276POPC   C3B 3864   3.468   3.104   5.668
  276POPC   C4B 3865   3.857   3.085   5.942
  277POPC   NC3 3866   8.992  10.922   3.458
  277POPC   PO4 3867   9.210  10.842   4.104
  277POPC   GL1 3868   8.926  11.107   4.329
  277POPC   GL2 3869   9.172  11.400   4.354
  277POPC   C1A 3870   8.763  10.925   4.728
  277POPC   D2A 3871   8.882  10.700   5.113
  277POPC   C3A 3872   8.687  10.742   5.517
  277POPC   C4A 3873   8.847  11.031   5.792
  277POPC   C1B 3874   9.194  11.196   4.756
  277POPC   C2B 3875   8.943  11.209   5.148
  277POPC   C3B 3876   9.010  11.421   5.526
  277POPC   C4B 3877   9.002   0.274   5.792
  278POPC   NC3 3878   6.311   2.589   4.022
  278POPC   PO4 3879   6.493   3.203   4.137
  278POPC   GL1 3880   6.603   2.807   4.422
  278POPC   GL2 3881   6.557   2.427   4.436
  278POPC   C1A 3882   6.587   2.701   4.884
  278POPC   D2A 3883   6.784   2.892   5.243
  278POPC   C3A 3884   6.571   2.930   5.649
  278POPC   C4A 3885   6.651   3.131   6.049
  278POPC   C1B 3886   6.872   2.300   4.731
  278POPC   C2B 3887   6.979   2.422   5.153
  278POPC   C3B 3888   6.719   2.462   5.522
  278POPC   C4B 3889   6.351   2.476   5.819
  279POPC   NC3 3890   0.490   2.649   3.861
  279POPC   PO4 3891   0.146   3.093   4.155
  279POPC   GL1 3892   0.529   2.915   4.341
  279POPC   GL2 3893   0.502   2.535   4.385
  279POPC   C1A 3894   0.600   2.805   4.793
  279POPC   D2A 3895   0.559   2.780   5.225
  279POPC   C3A 3896   0.775   2.997   5.518
  279POPC   C4A 3897   0.686   2.776   5.835
  279POPC   C1B 3898   0.201   2.379   4.725
  279POPC   C2B 3899   0.117   2.507   5.153
  279POPC   C3B 3900   0.166   2.702   5.558
  279POPC   C4B 3901   0.256   2.517   5.955
  280POPC   NC3 3902  11.055   3.684   3.871
  280POPC   PO4 3903   0.006   3.289   3.665
  280POPC   GL1 3904  11.423   3.518   4.154
  280POPC   GL2 3905  11.125   3.424   4.305
  280POPC   C1A 3906   0.012   3.631   4.637
  280POPC   D2A 3907   0.067   3.363   5.008
  280POPC   C3A 3908   0.006   3.573   5.389
  280POPC   C4A 3909  11.348   3.514   5.812
  280POPC   C1B 3910  11.023   3.686   4.611
  280POPC   C2B 3911  11.084   3.527   4.999
  280POPC   C3B 3912  11.008   3.505   5.401
  280POPC   C4B 3913  10.772   3.784   5.579
  281POPC   NC3 3914   3.319  10.206   4.125
  281POPC   PO4 3915   3.716  10.772   4.089
  281POPC   GL1 3916   3.438  10.664   4.419
  281POPC   GL2 3917   3.369  10.360   4.589
  281POPC   C1A 3918   3.221  10.807   4.761
  281POPC   D2A 3919   3.366  10.608   5.107
  281POPC   C3A 3920   3.262  10.693   5.521
  281POPC   C4A 3921   3.366  10.525   5.941
  281POPC   C1B 3922   3.691  10.175   4.774
  281POPC   C2B 3923   3.541  10.127   5.121
  281POPC   C3B 3924   3.584  10.301   5.491
  281POPC   C4B 3925   3.794  10.191   5.832
  282POPC   NC3 3926   3.694   0.058   3.970
  282POPC   PO4 3927   3.912   0.701   3.957
  282POPC   GL1 3928   3.694   0.478   4.286
  282POPC   GL2 3929   3.354   0.394   4.263
  282POPC   C1A 3930   3.794   0.221   4.655
  282POPC   D2A 3931   3.668  11.477   5.026
  282POPC   C3A 3932   3.634   0.152   5.449
  282POPC   C4A 3933   3.723   0.294   5.868
  282POPC   C1B 3934   3.273   0.310   4.697
  282POPC   C2B 3935   3.503   0.490   5.057
  282POPC   C3B 3936   3.455   0.645   5.498
  282POPC   C4B 3937   3.207   0.362   5.760
  283POPC   NC3 3938   4.056   9.645   3.958
  283POPC   PO4 3939   4.764   9.371   3.988
  283POPC   GL1 3940   4.534   9.472   4.390
  283POPC   GL2 3941   4.216   9.642   4.437
  283POPC   C1A 3942   4.492   9.587   4.852
  283POPC   D2A 3943   4.707   9.452   5.247
  283POPC   C3A 3944   4.525   9.490   5.686
  283POPC   C4A 3945   4.600   9.647   6.142
  283POPC   C1B 3946   3.960   9.737   4.782
  283POPC   C2B 3947   3.923   9.831   5.197
  283POPC   C3B 3948   3.991   9.758   5.599
  283POPC   C4B 3949   4.324   9.944   5.804
  284POPC   NC3 3950  10.366  10.322   3.876
  284POPC   PO4 3951  10.032  10.834   4.000
  284POPC   GL1 3952  10.340  10.646   4.300
  284POPC   GL2 3953  10.545  10.359   4.359
  284POPC   C1A 3954  10.365  10.726   4.727
  284POPC   D2A 3955  10.397  10.503   5.093
  284POPC   C3A 3956  10.334  10.785   5.359
  284POPC   C4A 3957  10.453  10.805   5.726
  284POPC   C1B 3958  10.644  10.207   4.774
  284POPC   C2B 3959  10.667  10.082   5.212
  284POPC   C3B 3960  10.507  10.299   5.565
  284POPC   C4B 3961  10.824  10.207   5.801
  285POPC   NC3 3962   1.085   4.976   3.912
  285POPC   PO4 3963   0.432   5.334   3.969
  285POPC   GL1 3964   0.741   5.348   4.326
  285POPC   GL2 3965   1.097   5.210   4.366
  285POPC   C1A 3966   0.872   5.483   4.734
  285POPC   D2A 3967   1.125   5.199   4.994
  285POPC   C3A 3968   1.195   5.241   5.439
  285POPC   C4A 3969   0.881   5.074   5.692
  285POPC   C1B 3970   1.315   4.894   4.625
  285POPC   C2B 3971   1.422   4.783   5.078
  285POPC   C3B 3972   1.340   4.730   5.546
  285POPC   C4B 3973   1.544   4.975   5.857
  286POPC   NC3 3974   7.201   9.835   4.001
  286POPC   PO4 3975   7.912   9.890   3.904
  286POPC   GL1 3976   7.672   9.991   4.330
  286POPC   GL2 3977   7.450   9.685   4.407
  286POPC   C1A 3978   7.668   9.877   4.817
  286POPC   D2A 3979   7.347   9.906   5.158
  286POPC   C3A 3980   7.481  10.013   5.589
  286POPC   C4A 3981   7.486   9.698   5.888
  286POPC   C1B 3982   7.260   9.526   4.810
  286POPC   C2B 3983   7.274   9.418   5.256
  286POPC   C3B 3984   7.087   9.629   5.575
  286POPC   C4B 3985   6.688   9.501   5.741
  287POPC   NC3 3986   7.428   0.289   3.804
  287POPC   PO4 3987   7.669   0.922   3.879
  287POPC   GL1 3988   7.724   0.708   4.263
  287POPC   GL2 3989   7.421   0.538   4.268
  287POPC   C1A 3990   7.765   0.538   4.722
  287POPC   D2A 3991   7.792   0.318   5.190
  287POPC   C3A 3992   7.665   0.620   5.568
  287POPC   C4A 3993   7.720   0.695   6.066
  287POPC   C1B 3994   7.228   0.586   4.652
  287POPC   C2B 3995   7.365   0.560   5.060
  287POPC   C3B 3996   7.270   0.324   5.410
  287POPC   C4B 3997   7.100   0.640   5.672
  288POPC   NC3 3998   5.199   9.131   4.013
  288POPC   PO4 3999   4.860   8.604   3.831
  288POPC   GL1 4000   4.755   8.710   4.278
  288POPC   GL2 4001   4.846   9.027   4.352
  288POPC   C1A 4002   4.665   8.562   4.720
  288POPC   D2A 4003   4.933   8.571   5.104
  288POPC   C3A 4004   4.889   8.676   5.549
  288POPC   C4A 4005   5.019   8.758   6.002
  288POPC   C1B 4006   5.043   8.895   4.722
  288POPC   C2B 4007   5.042   9.064   5.166
  288POPC   C3B 4008   4.997   9.196   5.602
  288POPC   C4B 4009   5.356   9.132   5.866
  289POPC   NC3 4010   5.121   1.197   3.888
  289POPC   PO4 4011   4.638   0.709   4.102
  289POPC   GL1 4012   4.867   0.751   4.432
  289POPC   GL2 4013   5.097   0.985   4.353
  289POPC   C1A 4014   4.976   0.784   4.856
  289POPC   D2A 4015   5.059   1.075   5.101
  289POPC   C3A 4016   4.952   0.942   5.453
  289POPC   C4A 4017   5.091   0.806   5.831
  289POPC   C1B 4018   5.139   1.362   4.654
  289POPC   C2B 4019   4.944   1.554   5.047
  289POPC   C3B 4020   5.128   1.475   5.467
  289POPC   C4B 4021   5.446   1.517   5.767
  290POPC   NC3 4022   4.342   7.507   4.215
  290POPC   PO4 4023   3.771   7.598   4.252
  290POPC   GL1 4024   3.996   7.366   4.569
  290POPC   GL2 4025   4.151   7.064   4.432
  290POPC   C1A 4026   4.090   7.463   4.987
  290POPC   D2A 4027   4.245   7.792   5.257
  290POPC   C3A 4028   4.218   7.635   5.666
  290POPC   C4A 4029   3.940   7.279   5.735
  290POPC   C1B 4030   4.441   7.128   4.798
  290POPC   C2B 4031   4.521   7.310   5.220
  290POPC   C3B 4032   4.459   7.167   5.649
  290POPC   C4B 4033   4.195   6.849   5.879
  291POPC   NC3 4034   0.498   0.583   3.919
  291POPC   PO4 4035   0.086   0.020   3.827
  291POPC   GL1 4036   0.156   0.106   4.317
  291POPC   GL2 4037   0.350   0.426   4.369
  291POPC   C1A 4038   0.509   0.093   4.683
  291POPC   D2A 4039   0.783   0.271   5.009
  291POPC   C3A 4040   0.677   0.151   5.437
  291POPC   C4A 4041   0.943   0.216   5.779
  291POPC   C1B 4042   0.573   0.629   4.711
  291POPC   C2B 4043   0.353   0.628   5.138
  291POPC   C3B 4044   0.434   0.580   5.608
  291POPC   C4B 4045   0.350   0.629   6.054
  292POPC   NC3 4046  10.380   2.246   3.495
  292POPC   PO4 4047  10.168   1.667   3.872
  292POPC   GL1 4048  10.150   1.988   4.196
  292POPC   GL2 4049  10.457   2.183   4.225
  292POPC   C1A 4050  10.177   2.026   4.650
  292POPC   D2A 4051  10.350   1.855   5.011
  292POPC   C3A 4052  10.140   2.010   5.371
  292POPC   C4A 4053  10.165   2.169   5.756
  292POPC   C1B 4054  10.530   1.726   4.444
  292POPC   C2B 4055  10.770   1.631   4.839
  292POPC   C3B 4056  10.699   1.598   5.324
  292POPC   C4B 4057  10.422   1.721   5.710
  293POPC   NC3 4058   1.380   1.765   4.036
  293POPC   PO4 4059   1.709   2.313   3.828
  293POPC   GL1 4060   1.450   2.310   4.235
  293POPC   GL2 4061   1.108   2.151   4.229
  293POPC   C1A 4062   1.436   2.244   4.710
  293POPC   D2A 4063   1.635   2.287   5.153
  293POPC   C3A 4064   1.384   2.051   5.496
  293POPC   C4A 4065   1.310   2.031   5.961
  293POPC   C1B 4066   1.078   1.881   4.615
  293POPC   C2B 4067   1.052   2.033   5.037
  293POPC   C3B 4068   0.859   1.933   5.413
  293POPC   C4B 4069   1.012   1.682   5.749
  294POPC   NC3 4070   0.444  10.515   3.724
  294POPC   PO4 4071   0.808  10.159   4.085
  294POPC   GL1 4072   0.717  10.517   4.295
  294POPC   GL2 4073   0.372  10.570   4.244
  294POPC   C1A 4074   0.710  10.626   4.714
  294POPC   D2A 4075   0.719  10.280   4.981
  294POPC   C3A 4076   0.706  10.432   5.357
  294POPC   C4A 4077   0.658  10.338   5.761
  294POPC   C1B 4078   0.324  10.307   4.631
  294POPC   C2B 4079   0.157  10.409   5.058
  294POPC   C3B 4080   0.218  10.436   5.515
  294POPC   C4B 4081   0.203  10.289   5.959
  295POPC   NC3 4082   2.979   2.792   3.633
  295POPC   PO4 4083   2.381   2.529   3.856
  295POPC   GL1 4084   2.438   2.435   4.231
  295POPC   GL2 4085   2.634   2.727   4.305
  295POPC   C1A 4086   2.507   2.345   4.611
  295POPC   D2A 4087   2.555   2.581   4.934
  295POPC   C3A 4088   2.653   2.397   5.309
  295POPC   C4A 4089   2.708   2.620   5.691
  295POPC   C1B 4090   2.843   2.927   4.695
  295POPC   C2B 4091   2.890   2.864   5.161
  295POPC   C3B 4092   2.914   3.066   5.558
  295POPC   C4B 4093   3.018   2.975   5.982
  296POPC   NC3 4094   1.197  10.973   3.944
  296POPC   PO4 4095   0.889   0.129   4.009
  296POPC   GL1 4096   1.072  11.351   4.320
  296POPC   GL2 4097   1.133  11.017   4.451
  296POPC   C1A 4098   1.096  11.406   4.763
  296POPC   D2A 4099   1.366  11.318   5.093
  296POPC   C3A 4100   1.130  11.383   5.441
  296POPC   C4A 4101   0.987  11.188   5.820
  296POPC   C1B 4102   1.464  10.804   4.720
  296POPC   C2B 4103   1.562  10.828   5.182
  296POPC   C3B 4104   1.382  10.959   5.562
  296POPC   C4B 4105   1.409  10.898   6.000
  297POPC   NC3 4106   9.932   8.106   4.111
  297POPC   PO4 4107   9.314   7.852   3.907
  297POPC   GL1 4108   9.521   7.838   4.288
  297POPC   GL2 4109   9.428   8.185   4.330
  297POPC   C1A 4110   9.678   7.776   4.715
  297POPC   D2A 4111   9.856   7.608   5.128
  297POPC   C3A 4112   9.619   7.806   5.473
  297POPC   C4A 4113   9.708   8.183   5.677
  297POPC   C1B 4114   9.489   8.352   4.753
  297POPC   C2B 4115   9.503   8.217   5.194
  297POPC   C3B 4116   9.231   8.297   5.560
  297POPC   C4B 4117   9.076   8.190   5.982
  298POPC   NC3 4118   6.518  11.406   3.961
  298POPC   PO4 4119   6.520  10.774   3.957
  298POPC   GL1 4120   6.567  10.990   4.349
  298POPC   GL2 4121   6.515  11.352   4.447
  298POPC   C1A 4122   6.446  10.962   4.767
  298POPC   D2A 4123   6.621  11.066   5.139
  298POPC   C3A 4124   6.369  10.923   5.453
  298POPC   C4A 4125   6.524  10.919   5.873
  298POPC   C1B 4126   6.481  11.484   4.833
  298POPC   C2B 4127   6.505   0.044   5.200
  298POPC   C3B 4128   6.556  11.380   5.579
  298POPC   C4B 4129   6.402   0.132   5.924
  299POPC   NC3 4130  11.091   6.904   3.905
  299POPC   PO4 4131  10.939   6.221   3.739
  299POPC   GL1 4132  11.009   6.477   4.206
  299POPC   GL2 4133  11.206   6.715   4.338
  299POPC   C1A 4134  10.895   6.528   4.702
  299POPC   D2A 4135  10.739   6.387   5.132
  299POPC   C3A 4136  10.866   6.636   5.530
  299POPC   C4A 4137  10.960   6.477   5.972
  299POPC   C1B 4138  11.396   6.524   4.674
  299POPC   C2B 4139   0.008   6.462   5.070
  299POPC   C3B 4140  11.369   6.588   5.435
  299POPC   C4B 4141  11.351   6.773   5.826
  300POPC   NC3 4142   0.034   1.171   3.901
  300POPC   PO4 4143  10.870   1.056   3.859
  300POPC   GL1 4144  11.091   0.915   4.223
  300POPC   GL2 4145  11.351   1.101   4.353
  300POPC   C1A 4146  11.030   0.925   4.693
  300POPC   D2A 4147  10.985   1.230   5.045
  300POPC   C3A 4148  10.995   1.161   5.484
  300POPC   C4A 4149  11.073   0.892   5.830
  300POPC   C1B 4150  11.322   1.405   4.685
  300POPC   C2B 4151  11.388   1.576   5.094
  300POPC   C3B 4152  11.466   1.397   5.524
  300POPC   C4B 4153  11.293   1.322   5.965
  301POPC   NC3 4154  10.791   5.208   3.917
  301POPC   PO4 4155  10.201   4.861   3.822
  301POPC   GL1 4156  10.281   4.893   4.262
  301POPC   GL2 4157  10.406   5.213   4.379
  301POPC   C1A 4158  10.290   4.811   4.717
  301POPC   D2A 4159  10.151   4.712   5.149
  301POPC   C3A 4160  10.420   4.718   5.540
  301POPC   C4A 4161  10.234   4.879   5.944
  301POPC   C1B 4162  10.584   5.243   4.831
  301POPC   C2B 4163  10.556   5.133   5.249
  301POPC   C3B 4164  10.241   5.233   5.554
  301POPC   C4B 4165  10.283   5.392   5.963
  302POPC   NC3 4166   9.594   1.048   3.989
  302POPC   PO4 4167   9.339   1.582   3.949
  302POPC   GL1 4168   9.513   1.418   4.341
  302POPC   GL2 4169   9.415   1.047   4.457
  302POPC   C1A 4170   9.488   1.428   4.789
  302POPC   D2A 4171   9.688   1.215   5.116
  302POPC   C3A 4172   9.470   1.193   5.517
  302POPC   C4A 4173   9.491   1.339   5.949
  302POPC   C1B 4174   9.859   1.013   4.611
  302POPC   C2B 4175  10.071   0.838   4.978
  302POPC   C3B 4176  10.036   0.994   5.415
  302POPC   C4B 4177   9.813   0.963   5.831
  303POPC   NC3 4178   9.607  10.650   3.969
  303POPC   PO4 4179  10.002  10.036   3.873
  303POPC   GL1 4180  10.057  10.173   4.290
  303POPC   GL2 4181   9.861  10.487   4.369
  303POPC   C1A 4182  10.137  10.264   4.715
  303POPC   D2A 4183   9.899  10.536   5.003
  303POPC   C3A 4184  10.007  10.379   5.418
  303POPC   C4A 4185   9.972  10.594   5.790
  303POPC   C1B 4186   9.599  10.264   4.660
  303POPC   C2B 4187   9.428  10.318   5.091
  303POPC   C3B 4188   9.530  10.516   5.487
  303POPC   C4B 4189   9.517  10.376   5.899
  304POPC   NC3 4190   6.628   1.700   3.690
  304POPC   PO4 4191   6.331   1.182   3.875
  304POPC   GL1 4192   6.566   1.061   4.333
  304POPC   GL2 4193   6.881   0.804   4.344
  304POPC   C1A 4194   6.583   1.227   4.803
  304POPC   D2A 4195   6.720   1.465   5.202
  304POPC   C3A 4196   6.547   1.633   5.639
  304POPC   C4A 4197   6.691   1.643   6.093
  304POPC   C1B 4198   6.724   0.741   4.738
  304POPC   C2B 4199   6.773   0.885   5.172
  304POPC   C3B 4200   6.644   0.854   5.571
  304POPC   C4B 4201   6.473   1.161   5.831
  305POPC   NC3 4202  11.004   0.477   3.960
  305POPC   PO4 4203   0.085   0.722   4.066
  305POPC   GL1 4204  11.318   0.490   4.398
  305POPC   GL2 4205  10.939   0.474   4.472
  305POPC   C1A 4206  11.258   0.481   4.864
  305POPC   D2A 4207  11.309   0.848   5.115
  305POPC   C3A 4208  11.448   0.836   5.485
  305POPC   C4A 4209  11.435   0.556   5.789
  305POPC   C1B 4210  10.730   0.200   4.813
  305POPC   C2B 4211  10.810   0.175   5.217
  305POPC   C3B 4212  11.145   0.383   5.385
  305POPC   C4B 4213  10.945   0.409   5.729
  306POPC   NC3 4214   0.702   9.743   3.929
  306POPC   PO4 4215   0.297   9.297   3.927
  306POPC   GL1 4216   0.581   9.217   4.296
  306POPC   GL2 4217   0.778   9.524   4.413
  306POPC   C1A 4218   0.608   9.164   4.767
  306POPC   D2A 4219   0.503   9.440   5.127
  306POPC   C3A 4220   0.602   9.451   5.574
  306POPC   C4A 4221   0.352   9.534   5.928
  306POPC   C1B 4222   0.600   9.823   4.748
  306POPC   C2B 4223   0.375   9.944   5.158
  306POPC   C3B 4224   0.414   9.934   5.608
  306POPC   C4B 4225   0.670   9.907   6.016
  307POPC   NC3 4226  10.801   6.037   4.146
  307POPC   PO4 4227  10.171   5.854   3.921
  307POPC   GL1 4228  10.445   5.703   4.252
  307POPC   GL2 4229  10.257   5.890   4.443
  307POPC   C1A 4230  10.680   5.721   4.686
  307POPC   D2A 4231  10.838   5.821   5.099
  307POPC   C3A 4232  10.560   5.709   5.396
  307POPC   C4A 4233  10.543   5.856   5.812
  307POPC   C1B 4234  10.187   5.559   4.730
  307POPC   C2B 4235  10.109   5.581   5.176
  307POPC   C3B 4236  10.076   5.759   5.608
  307POPC   C4B 4237  10.091   6.117   5.948
  308POPC   NC3 4238  10.680  11.296   3.882
  308POPC   PO4 4239   9.967   0.012   3.759
  308POPC   GL1 4240  10.130  11.366   4.173
  308POPC   GL2 4241  10.403  11.144   4.258
  308POPC   C1A 4242  10.139  11.307   4.651
  308POPC   D2A 4243   9.975  11.374   5.081
  308POPC   C3A 4244  10.202  11.271   5.459
  308POPC   C4A 4245  10.085  11.106   5.866
  308POPC   C1B 4246  10.662  11.161   4.632
  308POPC   C2B 4247  10.518  11.258   5.042
  308POPC   C3B 4248  10.710  11.180   5.444
  308POPC   C4B 4249  10.573  11.295   5.839
  309POPC   NC3 4250   0.469   4.090   3.889
  309POPC   PO4 4251   0.113   4.591   4.007
  309POPC   GL1 4252   0.216   4.314   4.298
  309POPC   GL2 4253   0.565   4.320   4.321
  309POPC   C1A 4254   0.225   4.125   4.682
  309POPC   D2A 4255   0.188   4.341   5.055
  309POPC   C3A 4256   0.261   4.131   5.417
  309POPC   C4A 4257   0.219   4.364   5.785
  309POPC   C1B 4258   0.535   4.522   4.707
  309POPC   C2B 4259   0.670   4.252   5.049
  309POPC   C3B 4260   0.829   4.028   5.389
  309POPC   C4B 4261   0.660   4.106   5.789
  310POPC   NC3 4262   9.915   4.564   3.646
  310POPC   PO4 4263   9.318   4.402   3.918
  310POPC   GL1 4264   9.706   4.433   4.207
  310POPC   GL2 4265   9.783   4.138   4.434
  310POPC   C1A 4266   9.794   4.578   4.675
  310POPC   D2A 4267   9.797   4.309   5.087
  310POPC   C3A 4268   9.692   4.496   5.505
  310POPC   C4A 4269   9.710   4.741   5.932
  310POPC   C1B 4270   9.445   4.183   4.728
  310POPC   C2B 4271   9.237   4.262   5.141
  310POPC   C3B 4272   9.266   4.127   5.565
  310POPC   C4B 4273   9.383   4.350   5.901
  311POPC   NC3 4274   6.365  10.375   4.105
  311POPC   PO4 4275   6.972  10.233   3.909
  311POPC   GL1 4276   6.841  10.539   4.286
  311POPC   GL2 4277   6.519  10.497   4.552
  311POPC   C1A 4278   6.906  10.726   4.733
  311POPC   D2A 4279   6.660  10.569   5.127
  311POPC   C3A 4280   6.827  10.658   5.568
  311POPC   C4A 4281   6.763  10.434   6.008
  311POPC   C1B 4282   6.130  10.540   4.829
  311POPC   C2B 4283   6.082  10.512   5.297
  311POPC   C3B 4284   6.353  10.453   5.683
  311POPC   C4B 4285   6.267  10.363   6.129
  312POPC   NC3 4286   8.148   0.626   3.962
  312POPC   PO4 4287   7.844   0.027   3.820
  312POPC   GL1 4288   7.905   0.201   4.262
  312POPC   GL2 4289   8.251   0.277   4.299
  312POPC   C1A 4290   8.023   0.102   4.734
  312POPC   D2A 4291   8.350   0.058   5.089
  312POPC   C3A 4292   8.137   0.061   5.529
  312POPC   C4A 4293   7.943   0.294   5.842
  312POPC   C1B 4294   8.440   0.374   4.693
  312POPC   C2B 4295   8.218   0.549   5.005
  312POPC   C3B 4296   8.192   0.547   5.440
  312POPC   C4B 4297   8.122   0.802   5.765
  313POPC   NC3 4298   8.193   1.280   3.919
  313POPC   PO4 4299   8.440   0.837   4.257
  313POPC   GL1 4300   8.107   1.050   4.411
  313POPC   GL2 4301   8.125   1.411   4.403
  313POPC   C1A 4302   8.184   1.140   4.841
  313POPC   D2A 4303   8.205   1.000   5.239
  313POPC   C3A 4304   8.424   1.158   5.558
  313POPC   C4A 4305   8.254   1.493   5.741
  313POPC   C1B 4306   7.794   1.426   4.709
  313POPC   C2B 4307   7.667   1.249   5.095
  313POPC   C3B 4308   7.797   1.136   5.501
  313POPC   C4B 4309   7.855   1.202   5.927
  314POPC   NC3 4310   9.309   3.423   4.036
  314POPC   PO4 4311   8.590   3.155   4.027
  314POPC   GL1 4312   8.917   3.263   4.352
  314POPC   GL2 4313   8.949   3.610   4.410
  314POPC   C1A 4314   8.882   3.335   4.835
  314POPC   D2A 4315   8.981   3.254   5.277
  314POPC   C3A 4316   8.734   3.278   5.698
  314POPC   C4A 4317   8.806   3.523   6.079
  314POPC   C1B 4318   9.137   3.781   4.825
  314POPC   C2B 4319   9.031   3.770   5.266
  314POPC   C3B 4320   8.796   3.911   5.643
  314POPC   C4B 4321   8.964   4.035   6.035
  315POPC   NC3 4322   6.778  10.555   3.654
  315POPC   PO4 4323   7.466  10.612   3.676
  315POPC   GL1 4324   7.377  10.361   4.160
  315POPC   GL2 4325   7.316  10.584   4.452
  315POPC   C1A 4326   7.248  10.124   4.609
  315POPC   D2A 4327   7.136  10.359   5.007
  315POPC   C3A 4328   7.046  10.216   5.448
  315POPC   C4A 4329   7.230  10.421   5.825
  315POPC   C1B 4330   7.643  10.435   4.722
  315POPC   C2B 4331   7.636  10.310   5.113
  315POPC   C3B 4332   7.560  10.522   5.444
  315POPC   C4B 4333   7.734  10.450   5.815
  316POPC   NC3 4334   1.528   2.726   3.801
  316POPC   PO4 4335   0.903   2.903   3.879
  316POPC   GL1 4336   0.975   2.647   4.208
  316POPC   GL2 4337   1.269   2.785   4.294
  316POPC   C1A 4338   0.974   2.446   4.629
  316POPC   D2A 4339   1.166   2.539   5.044
  316POPC   C3A 4340   0.951   2.479   5.412
  316POPC   C4A 4341   0.896   2.278   5.799
  316POPC   C1B 4342   1.085   2.929   4.708
  316POPC   C2B 4343   1.087   3.055   5.126
  316POPC   C3B 4344   1.272   2.866   5.509
  316POPC   C4B 4345   1.353   2.499   5.734
  317POPC   NC3 4346   9.731   1.834   3.936
  317POPC   PO4 4347   9.245   2.311   3.892
  317POPC   GL1 4348   9.495   2.213   4.225
  317POPC   GL2 4349   9.315   1.926   4.311
  317POPC   C1A 4350   9.496   2.309   4.678
  317POPC   D2A 4351   9.422   2.029   5.042
  317POPC   C3A 4352   9.567   2.158   5.467
  317POPC   C4A 4353   9.448   2.263   5.916
  317POPC   C1B 4354   9.686   1.862   4.587
  317POPC   C2B 4355   9.844   1.753   4.992
  317POPC   C3B 4356   9.673   1.663   5.407
  317POPC   C4B 4357   9.723   1.829   5.833
  318POPC   NC3 4358   3.336   5.835   3.736
  318POPC   PO4 4359   3.539   5.308   3.750
  318POPC   GL1 4360   3.483   5.063   4.175
  318POPC   GL2 4361   3.142   4.959   4.303
  318POPC   C1A 4362   3.652   5.046   4.640
  318POPC   D2A 4363   3.754   5.214   5.086
  318POPC   C3A 4364   3.425   5.187   5.433
  318POPC   C4A 4365   3.412   4.917   5.815
  318POPC   C1B 4366   3.244   4.749   4.707
  318POPC   C2B 4367   3.501   4.764   5.104
  318POPC   C3B 4368   3.797   4.845   5.466
  318POPC   C4B 4369   3.869   4.594   5.832
  319W        W 4370  11.229  10.750   8.531
  320W        W 4371   8.561   4.353   3.142
  321W        W 4372   5.760   3.537   8.144
  322W        W 4373   6.762   6.833  11.801
  323W        W 4374   7.640   8.427   9.839
  324W        W 4375   2.185   9.609   8.683
  325W        W 4376   5.969   3.854   8.585
  326W        W 4377   0.936   5.107   2.223
  327W        W 4378   3.654   0.822   3.140
  328W        W 4379   9.296   0.782  11.213
  329W        W 4380   7.626   6.103   8.390
  330W        W 4381   8.692   5.495   8.656
  331W        W 4382  10.949   9.111   9.096
  332W        W 4383   9.770   9.393   9.109
  333W        W 4384  10.458   6.570   2.960
  334W        W 4385   7.769  10.885   2.309
  335W        W 4386  10.246   6.663  10.847
  336W        W 4387   7.488   1.369   0.140
  337W        W 4388   5.113   6.448   0.882
  338W        W 4389   0.743   4.358  11.636
  339W        W 4390   0.131   8.134  10.789
  340W        W 4391   7.989   2.315   2.919
  341W        W 4392   4.070  10.753  11.512
  342W        W 4393   3.168   7.625   9.997
  343W        W 4394   1.442   0.918   1.861
  344W        W 4395   9.697   6.595   9.994
  345W        W 4396   7.229   8.040   0.757
  346W        W 4397  10.996   5.446  10.553
  347W        W 4398   6.669   0.760   1.751
  348W        W 4399   3.245   7.057   1.782
  349W        W 4400   5.529   3.596   9.485
  350W        W 4401   1.850   9.477  11.795
  351W        W 4402   4.754   2.831   0.535
  352W        W 4403   9.983  11.433   3.218
  353W        W 4404   8.618   3.416   2.152
  354W        W 4405   1.519   7.588  10.011
  355W        W 4406   0.401   8.514  11.541
  356W        W 4407   1.011   6.933   8.260
  357W        W 4408   2.464   9.924   0.350
  358W        W 4409   6.402   3.604   8.766
  359W        W 4410   7.505   9.545   9.019
  360W        W 4411  10.643   5.090  11.976
  361W        W 4412   6.140   8.460  10.413
  362W        W 4413   1.095   1.393   9.795
  363W        W 4414   6.515   2.924  11.638
  364W        W 4415   2.307  10.836   1.368
  365W        W 4416   1.822   5.527   2.487
  366W        W 4417   9.427   8.843   3.028
  367W        W 4418   4.633  10.785   2.759
  368W        W 4419   5.207   5.460   1.812
  369W        W 4420   8.472   6.941   3.047
  370W        W 4421   7.624   6.571   9.483
  371W        W 4422   5.621   2.617   1.497
  372W        W 4423  11.134  10.501   2.860
  373W        W 4424   7.721   9.441   3.588
  374W        W 4425   5.568   6.650  10.535
  375W        W 4426   1.380   9.930   0.477
  376W        W 4427   9.860   4.732   0.736
  377W        W 4428   7.596   5.196  10.108
  378W        W 4429   2.243   3.702   2.318
  379W        W 4430   1.463   8.132   2.726
  380W        W 4431   3.753   3.737   1.255
  381W        W 4432   9.327   2.446   2.462
  382W        W 4433   5.167   3.234   1.326
  383W        W 4434   5.656   0.353  11.107
  384W        W 4435   5.399   6.069   9.837
  385W        W 4436   4.820   1.193   3.107
  386W        W 4437   9.416   4.627  11.955
  387W        W 4438   4.965  10.554  10.434
  388W        W 4439   8.634   9.890   2.573
  389W        W 4440  11.211   2.656   8.821
  390W        W 4441   2.672   5.911   1.839
  391W        W 4442   2.958   8.038   9.262
  392W        W 4443   2.728   1.966  11.769
  393W        W 4444   0.868   9.344   2.625
  394W        W 4445   5.404   4.439   3.933
  395W        W 4446   2.717   8.624   3.258
  396W        W 4447   1.707   7.930   3.532
  397W        W 4448   5.170   3.666   1.841
  398W        W 4449   6.938   7.563   1.324
  399W        W 4450   3.200   7.445   2.568
  400W        W 4451   3.783   0.468  10.687
  401W        W 4452  11.408   2.586  10.876
  402W        W 4453   5.375  10.843  10.588
  403W        W 4454   1.469   9.174   0.632
  404W        W 4455   8.683  10.526  11.734
  405W        W 4456   4.972   2.398   8.159
  406W        W 4457   3.110   6.630   1.495
  407W        W 4458   0.220   6.570  11.495
  408W        W 4459   3.315   4.762  11.048
  409W        W 4460  10.364   4.124   1.254
  410W        W 4461   3.575   5.544  11.288
  411W        W 4462   5.941  10.435  10.961
  412W        W 4463   7.607   5.077  11.925
  413W        W 4464   2.721   9.152   3.449
  414W        W 4465   6.465  10.164   3.568
  415W        W 4466   3.324   3.394   0.460
  416W        W 4467   8.205   9.066  11.258
  417W        W 4468   2.323   2.270   9.141
  418W        W 4469   9.004   5.393  11.559
  419W        W 4470   5.265   2.633  10.768
  420W        W 4471   9.993   6.649   2.759
  421W        W 4472   6.952   4.633  10.751
  422W        W 4473   4.283   6.995   0.721
  423W        W 4474  11.317   6.075  10.401
  424W        W 4475   1.284   6.465   0.175
  425W        W 4476   9.058   8.874   0.529
  426W        W 4477   6.449   4.034   9.150
  427W        W 4478   2.307   9.656  11.940
  428W        W 4479  10.991   7.450   1.432
  429W        W 4480  10.031  10.744  10.398
  430W        W 4481   3.939   0.157  11.115
  431W        W 4482   7.075   7.516   0.298
  432W        W 4483   7.818   0.857   2.619
  433W        W 4484   7.058   0.261  11.527
  434W        W 4485   8.609   2.239  11.881
  435W        W 4486   4.219   5.707   0.344
  436W        W 4487   4.250   3.741   1.385
  437W        W 4488   5.533   1.955   9.472
  438W        W 4489   8.437   7.142   1.658
  439W        W 4490   7.605   1.700   3.411
  440W        W 4491  10.013  10.824   1.308
  441W        W 4492   8.026   4.093   1.194
  442W        W 4493   5.596   9.685   9.407
  443W        W 4494   1.278   6.518   1.137
  444W        W 4495   9.445   7.926   2.855
  445W        W 4496   7.006  11.277   2.777
  446W        W 4497   5.450   4.162   2.241
  447W        W 4498   2.239   2.798   8.928
  448W        W 4499   0.937  10.875   9.858
  449W        W 4500   2.842   7.487   1.832
  450W        W 4501   4.226  11.132   3.424
  451W        W 4502   4.725   0.772  11.941
  452W        W 4503   7.660   3.643  10.456
  453W        W 4504  10.886   8.837   1.473
  454W        W 4505  10.486   0.574   1.396
  455W        W 4506   3.184   8.107   9.748
  456W        W 4507   3.134   1.647   2.487
  457W        W 4508   9.305   7.544  10.789
  458W        W 4509   2.960  11.165   2.233
  459W        W 4510   7.794   9.277  11.722
  460W        W 4511   9.543   2.603   0.459
  461W        W 4512   7.055   1.703   0.204
  462W        W 4513   4.152   8.754   8.956
  463W        W 4514   0.894   1.403   0.035
  464W        W 4515   7.172   8.882   3.152
  465W        W 4516   3.125   5.666   9.440
  466W        W 4517  10.017   7.103   0.483
  467W        W 4518   5.526   8.403   9.956
  468W        W 4519   0.644   0.935   0.240
  469W        W 4520   1.108   9.501   0.374
  470W        W 4521   7.083   4.309   0.880
  471W        W 4522   2.752  10.809   1.944
  472W        W 4523   4.328  10.773   0.032
  473W        W 4524   9.218  10.067  11.071
  474W        W 4525   3.179   6.456   8.898
  475W        W 4526   5.989   5.739  11.374
  476W        W 4527   5.925   6.042   9.810
  477W        W 4528   2.142   4.883   3.300
  478W        W 4529   9.575   1.065   9.607
  479W        W 4530  10.702   0.881  11.375
  480W        W 4531   4.713   0.635  11.047
  481W        W 4532   2.292   7.595   8.062
  482W        W 4533   2.451   4.842   8.321
  483W        W 4534   7.988   9.586   9.315
  484W        W 4535   3.746   2.558   8.692
  485W        W 4536   4.557   7.151  11.799
  486W        W 4537   3.836   9.035   8.600
  487W        W 4538   0.914   8.419   1.767
  488W        W 4539   9.454   6.512  10.428
  489W        W 4540   3.058   7.126   9.518
  490W        W 4541   5.076  10.722   9.946
  491W        W 4542   7.045   1.850  10.856
  492W        W 4543   5.121   2.317   3.200
  493W        W 4544   2.286   7.176   9.878
  494W        W 4545   2.911   1.747   3.787
  495W        W 4546   7.960   6.089   3.225
  496W        W 4547  11.403   3.393   2.796
  497W        W 4548   5.941   6.465   0.391
  498W        W 4549   4.101  11.229   2.144
  499W        W 4550   0.893   2.718   1.233
  500W        W 4551   5.526   2.703   3.276
  501W        W 4552   4.857   4.344   0.868
  502W        W 4553   9.739   3.355  10.685
  503W        W 4554   5.159   9.832   2.223
  504W        W 4555   6.112  10.813  10.018
  505W        W 4556   1.448   3.329   1.492
  506W        W 4557   7.238   0.851   9.297
  507W        W 4558   0.843   6.528   1.398
  508W        W 4559   9.872   8.472   0.661
  509W        W 4560   1.657   4.030   9.664
  510W        W 4561   4.488   5.306  11.225
  511W        W 4562  10.548  10.050   2.231
  512W        W 4563  11.408   4.708  11.889
  513W        W 4564   8.197   5.489   8.484
  514W        W 4565  10.846   9.352   1.538
  515W        W 4566   1.325   2.851   2.930
  516W        W 4567   7.437   6.590   8.504
  517W        W 4568   0.057   4.821   0.359
  518W        W 4569   2.755   8.564   0.370
  519W        W 4570   2.618   4.670   1.921
  520W        W 4571   4.648  10.228   0.928
  521W        W 4572   3.887   1.715   2.156
  522W        W 4573   7.549   2.392   2.673
  523W        W 4574   2.328   6.957  10.807
  524W        W 4575   6.357   9.534   9.684
  525W        W 4576   6.180   5.074  10.847
  526W        W 4577   3.153   8.649   9.868
  527W        W 4578   8.263   4.786   3.592
  528W        W 4579   8.856   8.529  11.244
  529W        W 4580   3.292   8.092   0.378
  530W        W 4581   7.437   2.674   1.842
  531W        W 4582   6.746   0.812   9.232
  532W        W 4583   9.743   7.550   1.319
  533W        W 4584   8.457   6.108   3.436
  534W        W 4585   0.879   5.594   9.572
  535W        W 4586   1.805  11.011  10.271
  536W        W 4587   4.950   0.084  10.320
  537W        W 4588   8.551   6.641   2.163
  538W        W 4589   1.299   7.469  10.881
  539W        W 4590   0.344   1.656   0.784
  540W        W 4591   5.673   2.808  11.017
  541W        W 4592   5.546   2.290   3.577
  542W        W 4593   6.666   8.759  11.216
  543W        W 4594   3.545   0.991   1.306
  544W        W 4595   7.421   1.306   0.924
  545W        W 4596   7.326   6.152   0.339
  546W        W 4597   0.891   8.591   8.468
  547W        W 4598  11.463   5.189   3.388
  548W        W 4599   9.077   6.033   8.263
  549W        W 4600   3.898  10.785  11.012
  550W        W 4601   0.841   7.878   1.969
  551W        W 4602  10.531   9.912   1.268
  552W        W 4603   5.576   7.175   1.703
  553W        W 4604   7.619  10.075   0.102
  554W        W 4605   2.635   7.551   0.274
  555W        W 4606   9.891   6.488   2.287
  556W        W 4607  10.953   6.473   9.601
  557W        W 4608  10.042   3.333   1.381
  558W        W 4609   1.512  11.360  11.992
  559W        W 4610   7.741   1.927   2.547
  560W        W 4611   9.445   7.035  10.734
  561W        W 4612   0.381   1.151   0.685
  562W        W 4613   5.632   7.936   2.803
  563W        W 4614   6.112  11.313   2.673
  564W        W 4615   1.187   6.569   0.653
  565W        W 4616  10.809  11.292   1.155
  566W        W 4617   4.601   7.105   9.853
  567W        W 4618   0.011   2.569   3.196
  568W        W 4619   5.557   4.168   8.686
  569W        W 4620   2.265   9.231   2.764
  570W        W 4621   2.484   8.156  11.818
  571W        W 4622   9.046  10.504  10.824
  572W        W 4623   1.015   1.894   0.017
  573W        W 4624   1.349   8.676   1.939
  574W        W 4625   6.484   7.190   3.058
  575W        W 4626   4.894   2.010   1.394
  576W        W 4627   9.872   9.777  10.406
  577W        W 4628   9.613   6.781   9.209
  578W        W 4629   1.130   5.675   0.495
  579W        W 4630   5.829  10.462   9.442
  580W        W 4631   8.002   0.578  11.432
  581W        W 4632   9.215   2.120   3.434
  582W        W 4633   6.417   5.743   2.227
  583W        W 4634   1.818   2.208   9.279
  584W        W 4635   9.458   3.155   3.588
  585W        W 4636   4.337   2.607  11.109
  586W        W 4637   5.689   8.690   9.562
  587W        W 4638  10.873   6.757  11.962
  588W        W 4639   8.188  10.961   0.753
  589W        W 4640   1.315   8.999  11.496
  590W        W 4641   2.096   1.821   2.575
  591W        W 4642   2.703   0.269   2.856
  592W        W 4643   3.249   3.724   0.053
  593W        W 4644   4.618   6.157   3.499
  594W        W 4645   9.408   4.358   9.855
  595W        W 4646   4.279   7.967  10.331
  596W        W 4647   0.838   8.932   1.355
  597W        W 4648   7.385   3.135   9.471
  598W        W 4649   5.114   9.502   9.445
  599W        W 4650   3.031   6.054  11.943
  600W        W 4651   0.515   8.590   2.009
  601W        W 4652   4.299   7.185   8.875
  602W        W 4653   9.899   1.973   1.682
  603W        W 4654   1.027   3.544   2.994
  604W        W 4655   2.741   9.333   9.907
  605W        W 4656   7.386   4.849  10.500
  606W        W 4657   4.779   6.627   1.245
  607W        W 4658   7.379   1.698  11.776
  608W        W 4659   9.422   3.159  11.525
  609W        W 4660   8.698   9.888   0.303
  610W        W 4661  10.356   9.448  10.014
  611W        W 4662   2.430   2.316  10.106
  612W        W 4663  10.756   9.538   8.833
  613W        W 4664   7.040   9.968   3.216
  614W        W 4665   3.486   5.093   3.279
  615W        W 4666   5.589   9.719   1.888
  616W        W 4667   5.560   2.452   9.242
  617W        W 4668   8.597  11.341   2.209
  618W        W 4669   6.292   7.052  10.472
  619W        W 4670   2.317   7.673  11.835
  620W        W 4671   1.408   2.833   1.936
  621W        W 4672   0.230   2.232   1.416
  622W        W 4673   4.093   6.366   8.600
  623W        W 4674   6.680   7.205  11.427
  624W        W 4675   0.235   5.340   1.478
  625W        W 4676   0.421   4.208   3.134
  626W        W 4677   3.793  10.213   0.181
  627W        W 4678   8.820   4.342   0.117
  628W        W 4679   1.318   1.096   2.739
  629W        W 4680   2.396   9.588  10.151
  630W        W 4681   7.858   9.315   0.736
  631W        W 4682  11.424   5.648  11.716
  632W        W 4683   5.703   8.529   1.376
  633W        W 4684   7.185  10.193   1.411
  634W        W 4685   2.777   9.581  11.553
  635W        W 4686   6.007   6.891   1.801
  636W        W 4687  10.978   7.436  11.363
  637W        W 4688   1.398   6.676   2.172
  638W        W 4689   3.591  10.394  10.473
  639W        W 4690   3.588   9.468   3.229
  640W        W 4691   0.728   6.742   9.040
  641W        W 4692   9.002   6.834   9.540
  642W        W 4693   8.685   6.676   1.653
  643W        W 4694  11.441   5.774   1.114
  644W        W 4695   3.697   1.785   2.663
  645W        W 4696  10.510   0.753   0.921
  646W        W 4697   1.819  10.180  11.277
  647W        W 4698   4.143   5.688  11.840
  648W        W 4699  11.275   7.449  11.782
  649W        W 4700   8.569   0.544  10.219
  650W        W 4701   6.247   9.757   0.362
  651W        W 4702   1.766   7.301   0.253
  652W        W 4703   4.093   0.449   1.448
  653W        W 4704   5.200   1.668  11.735
  654W        W 4705   8.114   7.118   9.954
  655W        W 4706   8.418   1.176  10.859
  656W        W 4707   5.099   4.458  11.208
  657W        W 4708   7.143   7.148   1.117
  658W        W 4709   0.809   1.798   2.369
  659W        W 4710   7.963   0.316   0.260
  660W        W 4711   5.127  10.082   3.144
  661W        W 4712   0.711   8.890  11.098
  662W        W 4713   5.201   1.842   3.094
  663W        W 4714   2.610   5.221   3.639
  664W        W 4715   5.747   3.153   2.114
  665W        W 4716   3.606   4.846   0.627
  666W        W 4717   8.931   3.763   0.735
  667W        W 4718   7.620   9.194   3.105
  668W        W 4719   7.458   8.172   2.067
  669W        W 4720   1.304  11.381  11.017
  670W        W 4721   0.998   3.053   9.677
  671W        W 4722   9.046   0.261  11.479
  672W        W 4723   5.794   5.770  11.860
  673W        W 4724   4.964  10.227  10.040
  674W        W 4725   3.574   7.030   9.615
  675W        W 4726   6.573  11.078  10.966
  676W        W 4727   9.610   5.517   9.469
  677W        W 4728   2.102   4.193  10.574
  678W        W 4729   7.465   4.230   1.922
  679W        W 4730   0.884   7.627   9.363
  680W        W 4731   2.470  10.359  10.075
  681W        W 4732   7.065  10.561   8.665
  682W        W 4733   7.175  11.122   0.396
  683W        W 4734   0.807   3.363  10.052
  684W        W 4735   4.696   6.159   0.805
  685W        W 4736   3.649   2.363  11.806
  686W        W 4737   2.200   6.277   2.962
  687W        W 4738   8.328   5.277   2.821
  688W        W 4739   8.822   3.774   9.113
  689W        W 4740  10.620   4.880   3.561
  690W        W 4741   5.845  10.550   0.177
  691W        W 4742   2.342  11.337   9.072
  692W        W 4743   5.695   1.793   1.016
  693W        W 4744   8.153   8.269   2.256
  694W        W 4745   2.299   1.723  11.913
  695W        W 4746   1.366   5.201   2.625
  696W        W 4747   5.489   2.662   0.966
  697W        W 4748   3.128   9.480   9.182
  698W        W 4749   2.999   4.133   0.229
  699W        W 4750   4.724   7.243   0.533
  700W        W 4751   9.903   0.773   3.433
  701W        W 4752  10.606   5.172   2.304
  702W        W 4753   8.082   4.598   9.463
  703W        W 4754   1.765   2.257   2.372
  704W        W 4755   9.281   3.246  10.883
  705W        W 4756   7.125   0.937  11.302
  706W        W 4757   9.603   8.980   0.881
  707W        W 4758   4.346   9.943  10.666
  708W        W 4759  10.638   3.240   0.710
  709W        W 4760   4.898   1.285   1.231
  710W        W 4761   1.252   9.770   9.831
  711W        W 4762   6.547   9.984   9.613
  712W        W 4763   2.181   8.646   1.619
  713W        W 4764   1.867   8.562  10.004
  714W        W 4765   9.336   9.413   2.288
  715W        W 4766   2.771   2.177   0.263
  716W        W 4767   3.102   3.169   1.805
  717W        W 4768  10.022   9.630   3.078
  718W        W 4769   0.230   0.587   0.116
  719W        W 4770   4.143   9.527  10.958
  720W        W 4771   5.098   9.395  11.079
  721W        W 4772   9.199   6.582  10.869
  722W        W 4773   8.161  10.046   9.069
  723W        W 4774   7.924   0.354  10.974
  724W        W 4775   8.091   1.452   1.876
  725W        W 4776   1.124   7.979  11.601
  726W        W 4777   7.175   3.677   1.230
  727W        W 4778   0.521   7.697   1.474
  728W        W 4779  10.281   0.287   0.994
  729W        W 4780   6.325   1.721   2.337
  730W        W 4781   2.613   5.645   3.380
  731W        W 4782   3.546   8.384  11.296
  732W        W 4783   0.693  10.389   1.355
  733W        W 4784   3.641   7.917  11.533
  734W        W 4785   5.199   3.054  11.586
  735W        W 4786   6.497   2.805   3.436
  736W        W 4787   0.774   0.609   3.141
  737W        W 4788   7.022   8.422   1.893
  738W        W 4789   5.642   7.796   9.872
  739W        W 4790   5.873  10.531   2.112
  740W        W 4791   0.497  11.040   0.660
  741W        W 4792   8.285   6.362  11.001
  742W        W 4793  11.469   7.641   9.641
  743W        W 4794   1.536   7.935  10.903
  744W        W 4795   2.203   1.246   1.010
  745W        W 4796   5.674   5.542   2.716
  746W        W 4797  10.018   8.163   1.080
  747W        W 4798   3.245  10.792   0.864
  748W        W 4799  10.850   8.691   8.798
  749W        W 4800   6.682   3.200   8.930
  750W        W 4801   2.742   4.212  11.203
  751W        W 4802  10.318   5.610   1.904
  752W        W 4803  11.450   4.526   1.665
  753W        W 4804   5.000   2.033   9.547
  754W        W 4805   8.558   7.197  11.175
  755W        W 4806  10.908   4.677   1.683
  756W        W 4807   4.808   2.681  10.965
  757W        W 4808   0.931   9.019   9.209
  758W        W 4809   7.136   4.261   9.993
  759W        W 4810   9.022  11.497   9.542
  760W        W 4811  11.449   5.690  10.750
  761W        W 4812   5.703   1.112   1.818
  762W        W 4813   0.692   0.322  10.958
  763W        W 4814  10.858   7.013   1.687
  764W        W 4815  10.143   4.486   9.883
  765W        W 4816   6.675   9.103  11.662
  766W        W 4817   2.066   6.870   3.636
  767W        W 4818   7.597   0.737   2.045
  768W        W 4819  10.020   5.684  10.644
  769W        W 4820   2.608   1.802   1.727
  770W        W 4821   4.134   1.767   3.060
  771W        W 4822   6.787   5.151   0.444
  772W        W 4823   1.948   0.686   0.190
  773W        W 4824   8.542   8.932   2.751
  774W        W 4825   5.069   6.703  10.336
  775W        W 4826   6.986   1.053   3.603
  776W        W 4827   9.718   5.022   3.889
  777W        W 4828   6.268   5.683   1.298
  778W        W 4829   0.839   5.077   1.704
  779W        W 4830   7.795   4.638  10.742
  780W        W 4831   0.029   8.584   9.447
  781W        W 4832   5.940  10.100  10.489
  782W        W 4833   4.805   5.675   2.081
  783W        W 4834  10.874   0.922   1.290
  784W        W 4835   6.677   2.607   9.360
  785W        W 4836   6.034   2.153   2.252
  786W        W 4837  10.300   0.226  10.701
  787W        W 4838  10.508   5.631  10.476
  788W        W 4839   9.324   7.645   3.419
  789W        W 4840   2.820   8.625   2.737
  790W        W 4841   1.195   9.656   1.750
  791W        W 4842   5.809  10.063   0.363
  792W        W 4843   6.597   3.178  11.164
  793W        W 4844   7.462   7.634   1.260
  794W        W 4845   5.557   1.773   3.454
  795W        W 4846   6.371  10.603  11.189
  796W        W 4847   7.425   7.713   2.300
  797W        W 4848   7.556   6.731  11.426
  798W        W 4849  10.554   6.584  10.378
  799W        W 4850   8.599   9.881   8.733
  800W        W 4851   9.145   8.926  11.159
  801W        W 4852  11.478   5.588   1.869
  802W        W 4853   0.888  10.065   0.370
  803W        W 4854   2.719   6.605  10.938
  804W        W 4855  10.340   5.051   3.146
  805W        W 4856   9.982   1.706  10.273
  806W        W 4857   6.428   3.778   9.598
  807W        W 4858   1.357   5.477   3.196
  808W        W 4859   0.069  11.355  10.685
  809W        W 4860   9.535   0.235   0.543
  810W        W 4861   5.076   0.464   0.790
  811W        W 4862   3.657   2.351   1.207
  812W        W 4863   9.992   0.254   0.282
  813W        W 4864   4.576   2.185   0.978
  814W        W 4865   2.547   8.326   0.808
  815W        W 4866   0.569   9.201   0.781
  816W        W 4867   5.919   7.826  11.972
  817W        W 4868   6.479   5.081   1.871
  818W        W 4869   4.768   8.321   1.553
  819W        W 4870   3.183   1.410   2.029
  820W        W 4871  10.423   0.600   9.401
  821W        W 4872   3.853   0.388   9.683
  822W        W 4873   6.347   7.207   9.490
  823W        W 4874   2.223   5.259   9.493
  824W        W 4875   5.454   0.797   9.863
  825W        W 4876   0.911   8.346   3.536
  826W        W 4877   5.640   9.939  11.835
  827W        W 4878   2.245   3.356   2.759
  828W        W 4879  11.379   7.025  10.521
  829W        W 4880   2.709   4.487   0.944
  830W        W 4881   1.439   9.904   9.374
  831W        W 4882   7.053   4.826   0.750
  832W        W 4883   1.823   8.150   1.379
  833W        W 4884   7.856   4.185   8.695
  834W        W 4885  10.916   2.103   2.286
  835W        W 4886  11.282   9.928   0.765
  836W        W 4887   1.218   0.598   2.845
  837W        W 4888   7.781  10.656   0.786
  838W        W 4889   0.675   8.887   2.751
  839W        W 4890  10.028   5.664   0.973
  840W        W 4891   8.060  10.753   1.224
  841W        W 4892   6.297   9.174   3.158
  842W        W 4893   1.521   6.249   9.882
  843W        W 4894   6.438   0.297  11.661
  844W        W 4895   0.951   8.414   9.867
  845W        W 4896   6.619   9.394   1.078
  846W        W 4897  10.865   2.169   1.763
  847W        W 4898   4.202  10.792   2.437
  848W        W 4899   2.678   3.699   2.040
  849W        W 4900   7.867   0.352   2.720
  850W        W 4901   6.531   8.124  11.349
  851W        W 4902   0.670   2.155   1.716
  852W        W 4903   0.802   0.822   0.714
  853W        W 4904   1.311   3.138  11.565
  854W        W 4905  11.308   4.121   3.526
  855W        W 4906   2.371   2.447   0.437
  856W        W 4907   8.369   7.494   2.297
  857W        W 4908   1.196   9.407   9.465
  858W        W 4909   4.268  11.273  11.374
  859W        W 4910   1.747   5.073   1.665
  860W        W 4911   3.822   9.263   0.456
  861W        W 4912   3.495  11.384  11.973
  862W        W 4913   7.500   5.009   0.927
  863W        W 4914   2.541   4.649  11.767
  864W        W 4915   7.735   1.435   0.562
  865W        W 4916   7.905   1.935   0.709
  866W        W 4917   0.928   2.700   8.437
  867W        W 4918   3.168   7.503   1.090
  868W        W 4919   2.706   4.088   1.255
  869W        W 4920   6.982   0.315   2.763
  870W        W 4921   2.523   8.053   8.169
  871W        W 4922   4.937   2.866   4.025
  872W        W 4923   4.285   3.367  11.484
  873W        W 4924   2.265   3.807   1.345
  874W        W 4925  11.138   7.726   0.732
  875W        W 4926   1.023   8.913   0.416
  876W        W 4927   8.458   1.760   3.186
  877W        W 4928   1.343  10.047  11.736
  878W        W 4929   9.926   8.978   9.379
  879W        W 4930   0.350   2.722   0.057
  880W        W 4931   9.855   7.435   8.547
  881W        W 4932   3.976   2.193   2.786
  882W        W 4933   6.956   5.845  10.359
  883W        W 4934   4.225   2.206   3.314
  884W        W 4935   4.274   0.897   2.257
  885W        W 4936   7.745  10.166   0.590
  886W        W 4937   0.489   6.270   1.658
  887W        W 4938   0.280   1.903  10.296
  888W        W 4939  11.451   4.688  10.564
  889W        W 4940   3.594   0.487   2.731
  890W        W 4941   5.715   1.321   0.787
  891W        W 4942   1.127  10.459   9.508
  892W        W 4943  10.924  10.407   9.293
  893W        W 4944   6.276  10.235   0.205
  894W        W 4945   4.533  11.150   9.189
  895W        W 4946   4.219   4.710   2.808
  896W        W 4947   6.636   9.492  10.479
  897W        W 4948  11.353   7.630   9.118
  898W        W 4949  10.317   9.572  10.528
  899W        W 4950   3.907   6.168  10.656
  900W        W 4951   4.105   4.134   9.293
  901W        W 4952   1.679   9.502   8.616
  902W        W 4953   1.330   8.684   1.064
  903W        W 4954   0.871   6.334   2.928
  904W        W 4955   3.607  11.438   9.547
  905W        W 4956   4.822   8.399   2.849
  906W        W 4957   8.313  10.216   2.787
  907W        W 4958   5.571  10.575   2.956
  908W        W 4959   7.587   8.449  10.366
  909W        W 4960   0.138   1.518  11.903
  910W        W 4961   5.994   3.160   0.092
  911W        W 4962   0.640   7.071   9.498
  912W        W 4963   3.416   8.896   1.950
  913W        W 4964  11.281   8.051   3.064
  914W        W 4965   1.717   7.361   2.921
  915W        W 4966   3.055   5.298   8.253
  916W        W 4967   8.144   2.800  11.296
  917W        W 4968   9.334   0.454   2.744
  918W        W 4969   8.634   1.050   2.621
  919W        W 4970   9.382   2.149   0.342
  920W        W 4971  10.969  10.584   0.767
  921W        W 4972   2.270   9.096   9.994
  922W        W 4973   6.611   1.960   1.465
  923W        W 4974   5.588   1.974   2.033
  924W        W 4975   4.291   0.722  11.378
  925W        W 4976   6.131   3.826   0.386
  926W        W 4977   4.749   6.284  10.321
  927W        W 4978   0.302   2.256  10.876
  928W        W 4979   8.006   7.978   1.369
  929W        W 4980   6.588  10.444  10.750
  930W        W 4981   2.137   4.311   0.505
  931W        W 4982   3.169   5.530  10.504
  932W        W 4983   4.489   8.843   9.348
  933W        W 4984  10.381   2.405  10.929
  934W        W 4985   9.678   4.130   1.841
  935W        W 4986   1.490   6.363   3.505
  936W        W 4987   5.123   2.003   3.621
  937W        W 4988   3.336  10.183   2.658
  938W        W 4989   8.560   3.333   3.108
  939W        W 4990   6.125   1.385   2.683
  940W        W 4991  11.026   3.625   1.410
  941W        W 4992   8.564   6.135   9.188
  942W        W 4993  11.117   8.107   3.540
  943W        W 4994   8.045  11.448   8.934
  944W        W 4995   5.937  10.411   2.621
  945W        W 4996   3.584   6.405   2.711
  946W        W 4997   3.627   3.768   3.025
  947W        W 4998   9.404  10.514  10.284
  948W        W 4999   0.428   7.019   2.569
  949W        W 5000   2.111   9.994   2.868
  950W        W 5001   9.778   3.281  11.891
  951W        W 5002   7.605   2.235  10.912
  952W        W 5003   9.007  11.064   0.400
  953W        W 5004   9.302   5.099   1.451
  954W        W 5005   6.756   8.904   9.206
  955W        W 5006   8.307   9.131  11.758
  956W        W 5007   5.747   3.763   1.602
  957W        W 5008   1.348   3.868   2.761
  958W        W 5009   5.253   8.032   9.676
  959W        W 5010   0.998   1.726   1.474
  960W        W 5011   0.284   9.504   1.481
  961W        W 5012  10.404   3.203   2.210
  962W        W 5013   2.625  10.922   8.954
  963W        W 5014   5.781   7.207  11.266
  964W        W 5015   1.368   0.438   3.364
  965W        W 5016   8.604   5.905  10.974
  966W        W 5017   5.166   4.633  11.747
  967W        W 5018   1.012   0.657   1.705
  968W        W 5019   5.573   7.545  10.939
  969W        W 5020   2.092   5.967  10.953
  970W        W 5021   9.511   5.224   3.425
  971W        W 5022   3.759   8.031   8.914
  972W        W 5023   4.149   7.663   9.040
  973W        W 5024   7.144   2.316   3.005
  974W        W 5025   8.735   4.961  10.780
  975W        W 5026   0.821   0.209   1.868
  976W        W 5027   4.372   1.297   1.382
  977W        W 5028   6.994   2.757   8.991
  978W        W 5029   7.637   3.838   3.265
  979W        W 5030   0.011   4.255   0.139
  980W        W 5031   2.654   8.497   1.729
  981W        W 5032  10.878  10.367   0.311
  982W        W 5033   3.134   2.908   9.161
  983W        W 5034   1.403   2.759  10.988
  984W        W 5035   3.260   9.861   8.851
  985W        W 5036   5.050   5.866  11.365
  986W        W 5037   5.135   9.639   8.069
  987W        W 5038  10.957   8.127   2.671
  988W        W 5039   6.466   9.118   1.845
  989W        W 5040   5.659  10.139   8.560
  990W        W 5041   7.048   8.403   9.070
  991W        W 5042   6.000   5.526   9.667
  992W        W 5043   8.878   5.516  10.580
  993W        W 5044   7.444   3.617   0.767
  994W        W 5045   6.304   2.693   2.875
  995W        W 5046   8.098   5.524   0.694
  996W        W 5047   1.428   6.256   8.996
  997W        W 5048   6.679   0.063  10.846
  998W        W 5049   8.078   6.445   0.294
  999W        W 5050  10.582   4.512   9.623
 1000W        W 5051   9.598   3.573   2.674
 1001W        W 5052   4.168   2.826  10.035
 1002W        W 5053   0.349   4.535   9.810
 1003W        W 5054   9.996   9.078  11.525
 1004W        W 5055   2.627   6.578   2.909
 1005W        W 5056   3.272  10.605   3.216
 1006W        W 5057   9.894   1.662   3.462
 1007W        W 5058   9.431   5.557  11.754
 1008W        W 5059   7.977   9.981   3.236
 1009W        W 5060   1.236   4.541   9.856
 1010W        W 5061   9.003   9.353  11.455
 1011W        W 5062   3.605   0.408   0.037
 1012W        W 5063   3.052   3.084   8.404
 1013W        W 5064   0.251   9.112   0.058
 1014W        W 5065   8.163   8.948   0.574
 1015W        W 5066   9.718   6.698   0.509
 1016W        W 5067   9.328   9.392   9.940
 1017W        W 5068   5.234   1.953   0.718
 1018W        W 5069   3.140   2.392   2.165
 1019W        W 5070   9.316   5.914   1.941
 1020W        W 5071   0.935   1.535  11.097
 1021W        W 5072   2.879   1.630  10.502
 1022W        W 5073   3.781   0.274   9.183
 1023W        W 5074   0.428   6.470   3.264
 1024W        W 5075   1.859   3.628   9.397
 1025W        W 5076   9.908  10.046   3.364
 1026W        W 5077   5.952   0.502   9.276
 1027W        W 5078  11.371   7.028   1.707
 1028W        W 5079   7.675   2.614  11.947
 1029W        W 5080   8.421   0.248   0.478
 1030W        W 5081   5.772  10.922   9.201
 1031W        W 5082   8.433   8.102   9.098
 1032W        W 5083   0.300   5.133   3.003
 1033W        W 5084   4.815   8.895   0.901
 1034W        W 5085   0.517   4.001  11.896
 1035W        W 5086   0.410   6.285   9.762
 1036W        W 5087   8.742   1.460  11.767
 1037W        W 5088  11.241  11.187  10.307
 1038W        W 5089   2.618   8.118   2.101
 1039W        W 5090   3.621   8.409   9.740
 1040W        W 5091   7.870   6.954   2.573
 1041W        W 5092   9.556   2.398  11.120
 1042W        W 5093   6.925   0.810   1.285
 1043W        W 5094   6.278   6.408   8.581
 1044W        W 5095   2.182   8.320  10.712
 1045W        W 5096   0.927   1.356   9.115
 1046W        W 5097   2.073   6.838   9.533
 1047W        W 5098   9.757  10.272   9.010
 1048W        W 5099  11.068   7.735  10.487
 1049W        W 5100   1.168   2.004   0.721
 1050W        W 5101   8.578   9.954   1.139
 1051W        W 5102   6.036   8.183   3.034
 1052W        W 5103  11.039   9.840   0.330
 1053W        W 5104   4.815   9.787   2.632
 1054W        W 5105   6.127   1.377   1.143
 1055W        W 5106   1.764  11.224  11.095
 1056W        W 5107   9.427   6.653   0.096
 1057W        W 5108   8.281   0.265   3.020
 1058W        W 5109   2.441   0.698   0.301
 1059W        W 5110   2.581   6.116  11.033
 1060W        W 5111   3.771   0.067   0.384
 1061W        W 5112   7.998   8.969   1.579
 1062W        W 5113   6.639   8.911   0.337
 1063W        W 5114   0.903   3.424  11.442
 1064W        W 5115   0.857   6.786  10.903
 1065W        W 5116   8.190   6.687   1.762
 1066W        W 5117   2.447   4.846   1.176
 1067W        W 5118   9.404   2.426  10.648
 1068W        W 5119   5.141   2.658   1.349
 1069W        W 5120   0.896   3.648  10.894
 1070W        W 5121   7.571   7.225   0.298
 1071W        W 5122  10.145   7.920   0.669
 1072W        W 5123   6.714   9.316   9.994
 1073W        W 5124   9.863  10.100   1.811
 1074W        W 5125   2.195   4.682   0.156
 1075W        W 5126   2.184   7.945   2.334
 1076W        W 5127  11.171   6.482  11.255
 1077W        W 5128  10.908   9.983  10.070
 1078W        W 5129   1.604   2.376   1.466
 1079W        W 5130   6.496   1.710   1.009
 1080W        W 5131   1.925   1.341   9.408
 1081W        W 5132  11.383   7.268   0.811
 1082W        W 5133   9.890  10.901   9.929
 1083W        W 5134   1.180   9.573   0.867
 1084W        W 5135   0.744   2.350  11.321
 1085W        W 5136   9.508  10.366   0.029
 1086W        W 5137   9.336   7.629   1.012
 1087W        W 5138  10.865   7.195   3.058
 1088W        W 5139   6.602   1.456   1.464
 1089W        W 5140   5.520   6.699   1.820
 1090W        W 5141   9.425   1.913  11.067
 1091W        W 5142   9.285   1.442  11.819
 1092W        W 5143   4.699   7.756   2.943
 1093W        W 5144   6.561   3.732  10.908
 1094W        W 5145   5.147   8.032   3.022
 1095W        W 5146   9.529   8.868  10.790
 1096W        W 5147   9.477   1.648   1.510
 1097W        W 5148   2.892   9.466   2.200
 1098W        W 5149  11.294   5.108   2.893
 1099W        W 5150   7.615   9.320  10.493
 1100W        W 5151   2.873   0.945  11.424
 1101W        W 5152   2.184   4.387   9.826
 1102W        W 5153   3.768   7.974  11.032
 1103W        W 5154   5.151   6.657  10.855
 1104W        W 5155   9.745   7.016   0.936
 1105W        W 5156   0.202   2.845   8.975
 1106W        W 5157   3.703  10.374   2.965
 1107W        W 5158   3.205  11.365  10.631
 1108W        W 5159  10.951  10.813   2.508
 1109W        W 5160  10.831   6.335   2.747
 1110W        W 5161  11.132  11.114  11.523
 1111W        W 5162   0.384   6.020  10.762
 1112W        W 5163   8.190   2.812   1.261
 1113W        W 5164   7.503   2.656   9.035
 1114W        W 5165   7.043   7.058   2.065
 1115W        W 5166   0.341   9.021   3.115
 1116W        W 5167   9.851   1.815   1.193
 1117W        W 5168   2.913   5.479   0.730
 1118W        W 5169   7.956   8.357  11.340
 1119W        W 5170   7.907   0.688   3.113
 1120W        W 5171   9.005   8.701   2.771
 1121W        W 5172   2.083   0.920   0.623
 1122W        W 5173   8.011   3.845  10.099
 1123W        W 5174   9.368   7.416   9.841
 1124W        W 5175   0.847   0.488   8.852
 1125W        W 5176   4.765   4.359   2.940
 1126W        W 5177   7.033   5.030  11.334
 1127W        W 5178  11.016   4.087   0.611
 1128W        W 5179   4.377   1.337   2.823
 1129W        W 5180   2.479   4.212  10.207
 1130W        W 5181   6.438   2.732   1.657
 1131W        W 5182   3.329   0.455   9.442
 1132W        W 5183   7.031   2.975   9.839
 1133W        W 5184   5.176   4.036   8.379
 1134W        W 5185   0.062   2.879  11.260
 1135W        W 5186   6.823  10.746   0.578
 1136W        W 5187   2.703  10.811   9.923
 1137W        W 5188   4.560   2.207  11.951
 1138W        W 5189   7.096   6.511  11.423
 1139W        W 5190  10.257   4.044  10.424
 1140W        W 5191   7.888   5.018   1.468
 1141W        W 5192   6.354   3.293   3.248
 1142W        W 5193   4.320   4.227   2.639
 1143W        W 5194  11.357   7.532   3.191
 1144W        W 5195   1.247   6.677   9.756
 1145W        W 5196   9.452   4.056   2.829
 1146W        W 5197   4.732   4.100   8.646
 1147W        W 5198  10.027   8.621   1.952
 1148W        W 5199   0.899   7.714  10.662
 1149W        W 5200   8.979   5.633   0.969
 1150W        W 5201   0.933   0.230  10.215
 1151W        W 5202   1.158  10.205   2.767
 1152W        W 5203  10.114   3.050  10.542
 1153W        W 5204  10.996   1.157   0.593
 1154W        W 5205   4.607   2.231   2.377
 1155W        W 5206   7.342   1.482   9.079
 1156W        W 5207   3.813   0.395  10.196
 1157W        W 5208   2.472   1.787   8.816
 1158W        W 5209   6.660  10.919   8.723
 1159W        W 5210   3.824   4.619  11.361
 1160W        W 5211   6.206   2.978  10.318
 1161W        W 5212   3.037   5.544   8.810
 1162W        W 5213   0.281   3.154  10.836
 1163W        W 5214   2.447   4.631  11.263
 1164W        W 5215   0.115   1.800   8.894
 1165W        W 5216   4.232   5.034   9.538
 1166W        W 5217  10.073   1.753   2.623
 1167W        W 5218   9.091   4.292   2.552
 1168W        W 5219  11.271   3.117  10.871
 1169W        W 5220   8.366   1.755   0.864
 1170W        W 5221   1.272   8.459  11.550
 1171W        W 5222   6.939   6.230   9.162
 1172W        W 5223  11.393   3.187   1.351
 1173W        W 5224  10.654   1.836   3.876
 1174W        W 5225   1.194  10.269  10.437
 1175W        W 5226   9.086   9.035   1.998
 1176W        W 5227   8.983   1.893  11.915
 1177W        W 5228   4.248   9.943   2.763
 1178W        W 5229   8.946   6.921   1.195
 1179W        W 5230   6.872   3.101   9.384
 1180W        W 5231   6.219   8.537  11.278
 1181W        W 5232   9.427   3.518   3.156
 1182W        W 5233   8.555   2.068   1.289
 1183W        W 5234   8.516   8.018   2.748
 1184W        W 5235   9.876   9.300  10.652
 1185W        W 5236   7.478   2.779   2.342
 1186W        W 5237   8.966   7.127  10.863
 1187W        W 5238  10.810   9.792   1.864
 1188W        W 5239   4.748   9.474   8.474
 1189W        W 5240   8.164   1.803   2.270
 1190W        W 5241   8.013   6.434  11.443
 1191W        W 5242   7.581   5.312  10.614
 1192W        W 5243   7.048   9.059  11.994
 1193W        W 5244   7.107  10.986   9.024
 1194W        W 5245   8.848   4.545   8.650
 1195W        W 5246   4.248   2.594   2.906
 1196W        W 5247   5.670   3.855   0.706
 1197W        W 5248   1.252   6.537  11.267
 1198W        W 5249   8.529   8.970   3.259
 1199W        W 5250   4.157   0.450   8.849
 1200W        W 5251   8.715  10.901   0.973
 1201W        W 5252   6.564   8.443   9.711
 1202W        W 5253   2.315   8.646  10.337
 1203W        W 5254   0.489   1.148  11.795
 1204W        W 5255   0.438   4.371   1.731
 1205W        W 5256   0.406   0.439   2.083
 1206W        W 5257  11.292  10.790   0.401
 1207W        W 5258  10.526   4.805  10.036
 1208W        W 5259   1.834   1.746  10.112
 1209W        W 5260   6.472   4.750   0.388
 1210W        W 5261   1.272   5.011   3.367
 1211W        W 5262  10.325   6.282  11.235
 1212W        W 5263   6.133   9.632  10.568
 1213W        W 5264  10.967   7.846   1.756
 1214W        W 5265   3.296   8.331   8.929
 1215W        W 5266   2.284   6.182   9.306
 1216W        W 5267   9.924   5.468   8.704
 1217W        W 5268  10.405   2.135   9.593
 1218W        W 5269   1.827   0.242   2.722
 1219W        W 5270   3.375   1.283   8.787
 1220W        W 5271   7.191   7.292  10.070
 1221W        W 5272   8.592  10.777   0.483
 1222W        W 5273   6.412   7.990   9.032
 1223W        W 5274   6.605   5.423   0.065
 1224W        W 5275   7.458   1.543   2.379
 1225W        W 5276   6.753   9.527   3.200
 1226W        W 5277   3.470   8.638  11.765
 1227W        W 5278   5.887   2.953   0.839
 1228W        W 5279  10.890   5.549  10.052
 1229W        W 5280   2.414   1.789  11.398
 1230W        W 5281   7.207  10.630   0.221
 1231W        W 5282   0.033  10.891   0.864
 1232W        W 5283   3.315   7.472   2.061
 1233W        W 5284   8.902   7.573  11.102
 1234W        W 5285   6.241  10.042  10.927
 1235W        W 5286   3.736  10.929  10.019
 1236W        W 5287  10.091   9.095   1.793
 1237W        W 5288   3.792   7.029   0.517
 1238W        W 5289   9.406   7.164   1.860
 1239W        W 5290   3.622   9.363   9.274
 1240W        W 5291   3.840   9.866   1.205
 1241W        W 5292   1.314   5.319   9.477
 1242W        W 5293  11.336   8.563   8.968
 1243W        W 5294   8.282   6.350   8.810
 1244W        W 5295   6.888  11.440   3.242
 1245W        W 5296   2.383   1.332   9.141
 1246W        W 5297   6.365   9.178  11.277
 1247W        W 5298   3.119   1.848   9.526
 1248W        W 5299   6.565   2.468  11.910
 1249W        W 5300   3.723   9.810   2.039
 1250W        W 5301   6.177  11.065  11.293
 1251W        W 5302   7.172   7.052   0.561
 1252W        W 5303   2.339   9.889   1.760
 1253W        W 5304   8.505   9.416  11.059
 1254W        W 5305   5.517   5.649   9.568
 1255W        W 5306   7.648   7.995  10.140
 1256W        W 5307   1.143   0.336  11.211
 1257W        W 5308   1.314   8.138   1.930
 1258W        W 5309   7.543  10.862  11.441
 1259W        W 5310   1.676   4.546   9.562
 1260W        W 5311   8.838   1.642   2.829
 1261W        W 5312   5.137   8.618   0.347
 1262W        W 5313   5.627  10.012   1.454
 1263W        W 5314   9.842  10.267  10.331
 1264W        W 5315   9.033   3.677   8.664
 1265W        W 5316   5.650   8.644   0.460
 1266W        W 5317   2.025  11.303  11.921
 1267W        W 5318   7.445   4.000  11.936
 1268W        W 5319   4.578   6.750   2.918
 1269W        W 5320   5.329   5.060   2.587
 1270W        W 5321   9.494   2.982   2.455
 1271W        W 5322   9.157   1.241  10.040
 1272W        W 5323   0.643   0.546  10.502
 1273W        W 5324   4.533  10.357   8.527
 1274W        W 5325   1.232   3.543   9.854
 1275W        W 5326   0.747   0.065  11.410
 1276W        W 5327   0.644   7.156   1.295
 1277W        W 5328  10.444  10.825  11.015
 1278W        W 5329   1.849   5.023   2.599
 1279W        W 5330   1.476   9.741   1.264
 1280W        W 5331   3.652   2.327   0.700
 1281W        W 5332   6.709   6.840   2.370
 1282W        W 5333   8.443   7.096   0.323
 1283W        W 5334   5.281   3.309   2.227
 1284W        W 5335   0.215   2.295   9.130
 1285W        W 5336   1.752   6.891   2.721
 1286W        W 5337   5.275   0.156   0.404
 1287W        W 5338   0.033  10.298   2.347
 1288W        W 5339   6.742  10.007  11.007
 1289W        W 5340   6.007   8.510  11.770
 1290W        W 5341   8.042   7.244  11.124
 1291W        W 5342   9.825   9.412   0.681
 1292W        W 5343   2.407  11.329   0.273
 1293W        W 5344   2.368   9.433   0.403
 1294W        W 5345   8.514   5.643   3.588
 1295W        W 5346   4.241   3.555   0.918
 1296W        W 5347   6.969   2.363  11.001
 1297W        W 5348   8.428   3.268   9.509
 1298W        W 5349   9.183  10.098   0.406
 1299W        W 5350  10.183   8.602  11.584
 1300W        W 5351  11.418   8.628   9.932
 1301W        W 5352   6.523   0.640   0.054
 1302W        W 5353   6.137  11.006   3.384
 1303W        W 5354   0.151   7.196   9.817
 1304W        W 5355   2.932   7.570   3.006
 1305W        W 5356   0.417   9.016   1.738
 1306W        W 5357  10.520   8.498  11.964
 1307W        W 5358   7.215   5.671   1.089
 1308W        W 5359   3.377   5.291   9.159
 1309W        W 5360   9.892   8.132   2.812
 1310W        W 5361   2.916   5.474   1.740
 1311W        W 5362   2.428   3.297   1.206
 1312W        W 5363   3.880   1.283   8.624
 1313W        W 5364   8.700   6.672  10.840
 1314W        W 5365  10.419   1.496  10.440
 1315W        W 5366   7.122   6.507   3.127
 1316W        W 5367  11.473   6.135   0.009
 1317W        W 5368   0.162   1.093   0.220
 1318W        W 5369  11.457   3.391  10.448
 1319W        W 5370   8.859   3.195   8.574
 1320W        W 5371   0.077   6.093   1.917
 1321W        W 5372   5.982   4.092   9.471
 1322W        W 5373   9.874   3.692   0.607
 1323W        W 5374   4.619   8.579   0.441
 1324W        W 5375  10.835   3.459   2.384
 1325W        W 5376   0.476  10.013   2.214
 1326W        W 5377   5.045  11.454   0.841
 1327W        W 5378   7.275   6.198  10.619
 1328W        W 5379   3.775  11.137  11.422
 1329W        W 5380   2.667   9.292  11.959
 1330W        W 5381  10.627   7.860   0.525
 1331W        W 5382   1.708   4.869  11.047
 1332W        W 5383   6.897  11.369   9.481
 1333W        W 5384   1.878   8.833   0.284
 1334W        W 5385   8.555   2.325   2.340
 1335W        W 5386   3.676   2.849   0.724
 1336W        W 5387  10.658  11.400   0.672
 1337W        W 5388   2.834   4.191   2.646
 1338W        W 5389   3.148   0.331   1.542
 1339W        W 5390   0.267   5.522   9.814
 1340W        W 5391   6.301  10.449  10.318
 1341W        W 5392   4.915   0.628   1.667
 1342W        W 5393   0.265   3.121   0.388
 1343W        W 5394   2.963   0.135  10.171
 1344W        W 5395   0.494   3.095  11.435
 1345W        W 5396   1.982   8.112  11.876
 1346W        W 5397   4.575   7.582  11.524
 1347W        W 5398   7.341   0.540   8.913
 1348W        W 5399   6.578   7.889   2.325
 1349W        W 5400   7.550   2.297   0.774
 1350W        W 5401   3.741   5.180   0.249
 1351W        W 5402   3.712   4.489   1.908
 1352W        W 5403   8.147   4.645   8.679
 1353W        W 5404   7.853   8.452  11.921
 1354W        W 5405   5.481   9.001   8.614
 1355W        W 5406   0.851   9.205   3.118
 1356W        W 5407   2.805   2.116  10.371
 1357W        W 5408   0.468   1.294   2.605
 1358W        W 5409   5.372  11.370   1.744
 1359W        W 5410  10.279   9.461  11.315
 1360W        W 5411  10.729  10.421   1.316
 1361W        W 5412   2.774   2.402   0.774
 1362W        W 5413   8.041   6.011   4.129
 1363W        W 5414   2.315  10.889  11.797
 1364W        W 5415   6.975   1.517   0.712
 1365W        W 5416   0.036   9.961   8.848
 1366W        W 5417   0.494   3.062   9.773
 1367W        W 5418  10.643   3.919   0.286
 1368W        W 5419   2.811   3.776   9.460
 1369W        W 5420   4.583   9.489  10.696
 1370W        W 5421   5.698   1.687   2.919
 1371W        W 5422   3.371   1.446   2.883
 1372W        W 5423   5.281   9.491   8.548
 1373W        W 5424   0.217   0.339  10.762
 1374W        W 5425  10.867  10.116  11.310
 1375W        W 5426   4.641  10.058   2.220
 1376W        W 5427   4.950   0.772   9.773
 1377W        W 5428   4.066   4.585   3.561
 1378W        W 5429  10.550   7.228  11.569
 1379W        W 5430   6.784   3.639   9.203
 1380W        W 5431   4.522   4.465   9.551
 1381W        W 5432   3.846   0.437  11.582
 1382W        W 5433  10.883   4.193   1.140
 1383W        W 5434   5.124   9.849   3.621
 1384W        W 5435   4.355   1.419   9.953
 1385W        W 5436   7.445   0.787   3.427
 1386W        W 5437   9.036   0.767   2.457
 1387W        W 5438   8.536   7.591   9.264
 1388W        W 5439   3.688   2.647   9.274
 1389W        W 5440   8.546   7.516   2.796
 1390W        W 5441   9.022   4.609   1.300
 1391W        W 5442   8.607   2.575   0.532
 1392W        W 5443   6.066   3.325   1.142
 1393W        W 5444   2.729   7.923   2.662
 1394W        W 5445   3.188  10.298   0.105
 1395W        W 5446  10.603   9.838  10.908
 1396W        W 5447   7.602   4.378   1.452
 1397W        W 5448   2.386   7.854  10.701
 1398W        W 5449   8.652   6.350  11.735
 1399W        W 5450   8.973   9.626  11.010
 1400W        W 5451   5.762   0.378   0.511
 1401W        W 5452   6.068   8.122   8.621
 1402W        W 5453   6.057   7.280   3.964
 1403W        W 5454   4.078  10.946   9.065
 1404W        W 5455   0.858   3.932  11.318
 1405W        W 5456   4.323   8.848   0.764
 1406W        W 5457   2.800   2.476  11.845
 1407W        W 5458   7.777   6.652   9.985
 1408W        W 5459   9.587   2.878   9.471
 1409W        W 5460  10.102   8.995   9.861
 1410W        W 5461   3.677   0.796   8.954
 1411W        W 5462   4.726   9.061  11.464
 1412W        W 5463   8.785  10.894   2.412
 1413W        W 5464   3.889   5.276  10.577
 1414W        W 5465   6.679   3.763   0.271
 1415W        W 5466   8.041   9.618   9.871
 1416W        W 5467   9.101   5.732   2.788
 1417W        W 5468   7.657   4.152  11.044
 1418W        W 5469  10.712   9.802  11.762
 1419W        W 5470   3.137   9.083  10.152
 1420W        W 5471   5.818   5.195  11.608
 1421W        W 5472   3.393   6.073  10.684
 1422W        W 5473   6.498   6.674   1.657
 1423W        W 5474   9.544   6.149  10.807
 1424W        W 5475   6.935  10.872  10.661
 1425W        W 5476   8.145   8.989   1.082
 1426W        W 5477   3.328   8.074  10.223
 1427W        W 5478   4.248   2.318  10.439
 1428W        W 5479  10.829   2.779   9.198
 1429W        W 5480   0.499  10.962   1.171
 1430W        W 5481   0.986  11.318   1.402
 1431W        W 5482   8.906   7.335   9.536
 1432W        W 5483   2.187   3.435   1.874
 1433W        W 5484   9.187   7.088  11.942
 1434W        W 5485   2.904   7.865  11.939
 1435W        W 5486   2.389   0.545   2.019
 1436W        W 5487   1.170   9.669   2.907
 1437W        W 5488   8.847   0.744  11.472
 1438W        W 5489   2.923   3.080   3.198
 1439W        W 5490   4.275   2.807   0.352
 1440W        W 5491   4.638   4.260   9.112
 1441W        W 5492   4.736   2.968   1.417
 1442W        W 5493   5.217   5.608  10.956
 1443W        W 5494   5.715  11.072   3.049
 1444W        W 5495  11.071   6.066   9.923
 1445W        W 5496   1.254   4.814   9.417
 1446W        W 5497   2.325   4.349   8.441
 1447W        W 5498   2.395   2.692  11.574
 1448W        W 5499   5.791   7.121  10.422
 1449W        W 5500   1.267   1.108  11.126
 1450W        W 5501   8.721   4.259   9.194
 1451W        W 5502   7.392   5.206   1.846
 1452W        W 5503   5.138   1.697  11.251
 1453W        W 5504   6.608   6.124  10.036
 1454W        W 5505   6.600   4.515   2.507
 1455W        W 5506   1.184   5.665   1.322
 1456W        W 5507  10.282   0.647   0.100
 1457W        W 5508   3.092   8.882   2.358
 1458W        W 5509   3.415  10.763  10.876
 1459W        W 5510   8.099   4.075   3.157
 1460W        W 5511   3.185   3.598   2.731
 1461W        W 5512   4.705  10.951   9.692
 1462W        W 5513   9.841   0.299  10.421
 1463W        W 5514   5.692   3.403   8.950
 1464W        W 5515   9.079   4.587  10.955
 1465W        W 5516  10.712   1.832   0.854
 1466W        W 5517   5.181   3.742   1.359
 1467W        W 5518   9.101   4.159   8.879
 1468W        W 5519   9.749   5.294   1.236
 1469W        W 5520   9.937   8.151   0.277
 1470W        W 5521  10.377  10.946   3.239
 1471W        W 5522  10.096   2.353   2.966
 1472W        W 5523   1.263   2.418   1.070
 1473W        W 5524   7.080   0.298   1.311
 1474W        W 5525   2.166   2.070  10.984
 1475W        W 5526   7.376   7.207   2.431
 1476W        W 5527   0.012   9.555   2.762
 1477W        W 5528   9.139   6.599   9.110
 1478W        W 5529   3.143   8.947   9.154
 1479W        W 5530   4.109   9.549  10.429
 1480W        W 5531   1.908   2.215   0.452
 1481W        W 5532   4.824  10.572   1.284
 1482W        W 5533   6.219   6.224   3.017
 1483W        W 5534   3.712   5.395  11.777
 1484W        W 5535   0.130   8.893   2.140
 1485W        W 5536   6.082   6.198  11.958
 1486W        W 5537   0.898   6.443   1.920
 1487W        W 5538   5.195   3.629  10.996
 1488W        W 5539   9.278   6.303  11.290
 1489W        W 5540   8.945   3.287  10.486
 1490W        W 5541   4.579   0.255  11.978
 1491W        W 5542   1.763   9.200  11.360
 1492W        W 5543   9.665   0.589   9.452
 1493W        W 5544   9.765   0.789  11.416
 1494W        W 5545  10.368  11.330   1.872
 1495W        W 5546  10.820   1.310  11.091
 1496W        W 5547   3.731   3.359  10.927
 1497W        W 5548   0.430   3.887   2.317
 1498W        W 5549   4.595   0.752   0.783
 1499W        W 5550   9.035   8.097  10.174
 1500W        W 5551  10.772   0.288   1.010
 1501W        W 5552  10.153  10.418   9.967
 1502W        W 5553   8.546  11.241   0.183
 1503W        W 5554   1.027  10.539   2.411
 1504W        W 5555   5.142  11.500   2.715
 1505W        W 5556   5.448   4.029   3.598
 1506W        W 5557   1.982   9.890   9.392
 1507W        W 5558   4.972   1.243   2.625
 1508W        W 5559   6.640   2.670  10.388
 1509W        W 5560   5.175   3.964   4.020
 1510W        W 5561   9.133   6.339   8.676
 1511W        W 5562   8.910   7.419   1.223
 1512W        W 5563  10.584   4.296  10.106
 1513W        W 5564   2.183   9.134  11.990
 1514W        W 5565   8.118   5.013   4.057
 1515W        W 5566   7.633   7.141   1.252
 1516W        W 5567   1.657   6.943   3.224
 1517W        W 5568   0.072   5.968   9.949
 1518W        W 5569   4.436  10.408  11.374
 1519W        W 5570   9.484   9.862   1.212
 1520W        W 5571   5.537   9.639  11.344
 1521W        W 5572   2.630   1.051   1.268
 1522W        W 5573   3.354   2.237   9.262
 1523W        W 5574  11.048   9.431  11.728
 1524W        W 5575   2.271   2.252   0.890
 1525W        W 5576   9.054   6.787   1.974
 1526W        W 5577   7.802   5.725   9.864
 1527W        W 5578  11.107   4.477  10.877
 1528W        W 5579   8.009   4.700   2.188
 1529W        W 5580   7.358   4.710  11.034
 1530W        W 5581   4.253  11.428   2.588
 1531W        W 5582   3.679   6.584   0.286
 1532W        W 5583   5.909   0.948   8.513
 1533W        W 5584  10.853   8.202   0.221
 1534W        W 5585  10.785   1.835  10.464
 1535W        W 5586   9.432   2.622   2.006
 1536W        W 5587   1.626   1.348   9.832
 1537W        W 5588   0.466  10.563   2.283
 1538W        W 5589   9.338  11.373  11.217
 1539W        W 5590   9.968  11.437   9.519
 1540W        W 5591   2.909   5.363   0.216
 1541W        W 5592   3.390   2.550  10.663
 1542W        W 5593   4.404   3.838  11.230
 1543W        W 5594   6.583   2.226   0.952
 1544W        W 5595   2.134   1.774   9.205
 1545W        W 5596   2.191  11.420  11.420
 1546W        W 5597   4.364   0.808   0.314
 1547W        W 5598   9.572   8.050  10.086
 1548W        W 5599   4.916   8.599  10.873
 1549W        W 5600   0.588   5.914   0.707
 1550W        W 5601   3.228   4.299  11.300
 1551W        W 5602   2.297   8.630   2.955
 1552W        W 5603   1.824   0.255   9.502
 1553W        W 5604   6.383   4.020  10.466
 1554W        W 5605   4.114  11.249  10.841
 1555W        W 5606   5.984   6.184   0.877
 1556W        W 5607   0.271   1.629   9.872
 1557W        W 5608   1.465  10.239   1.367
 1558W        W 5609   3.754   6.618   9.388
 1559W        W 5610   1.134   1.830   8.991
 1560W        W 5611   7.936   0.443   1.778
 1561W        W 5612   6.279   8.809   9.996
 1562W        W 5613   8.008   4.164  11.425
 1563W        W 5614   8.615   8.408   2.000
 1564W        W 5615   8.209   6.535   3.249
 1565W        W 5616   9.625   6.948   2.287
 1566W        W 5617   0.704  11.388   0.988
 1567W        W 5618   8.737   8.748   3.730
 1568W        W 5619  11.462   9.141  10.757
 1569W        W 5620   1.294   5.975   0.055
 1570W        W 5621   8.896   6.111   0.532
 1571W        W 5622   8.516   3.413   8.897
 1572W        W 5623   4.738   8.015  11.732
 1573W        W 5624  11.271   9.659   1.713
 1574W        W 5625   6.772   8.061   9.421
 1575W        W 5626   7.136  10.471   9.186
 1576W        W 5627  10.964  10.630  11.432
 1577W        W 5628   5.475   6.234   2.295
 1578W        W 5629   6.378   6.181   2.527
 1579W        W 5630   3.276   8.583  10.390
 1580W        W 5631   2.685   5.528   2.872
 1581W        W 5632   0.287   9.463  11.330
 1582W        W 5633   3.176   6.227   3.365
 1583W        W 5634   0.552   1.486   3.615
 1584W        W 5635   0.309   7.071  11.778
 1585W        W 5636   3.688   3.856  11.813
 1586W        W 5637   9.877   0.011   1.825
 1587W        W 5638  10.398   1.288  11.348
 1588W        W 5639   6.253   7.897   0.372
 1589W        W 5640  11.004  10.027   1.460
 1590W        W 5641  10.824   1.347   9.623
 1591W        W 5642  10.447   6.490  11.995
 1592W        W 5643   0.733   1.092   3.294
 1593W        W 5644   0.891   3.778   2.536
 1594W        W 5645   9.574   2.036   2.624
 1595W        W 5646   3.156   2.078  10.752
 1596W        W 5647   4.531   0.956  10.108
 1597W        W 5648   1.397   2.337   1.978
 1598W        W 5649   8.863   4.604   2.216
 1599W        W 5650   5.804   9.024   9.945
 1600W        W 5651  11.019   9.834   2.318
 1601W        W 5652   8.858   1.728   1.052
 1602W        W 5653   8.021   7.470   1.315
 1603W        W 5654   9.013   7.683   2.879
 1604W        W 5655  10.011   7.008   8.971
 1605W        W 5656   3.396   3.389   1.417
 1606W        W 5657   9.176   7.592  11.941
 1607W        W 5658  10.632   3.613   9.641
 1608W        W 5659   8.083  10.314  11.877
 1609W        W 5660  10.122   8.783   8.932
 1610W        W 5661   6.967   4.619  11.737
 1611W        W 5662   6.559   1.130   9.585
 1612W        W 5663   6.266   8.971   2.683
 1613W        W 5664  10.012   8.948  11.011
 1614W        W 5665   8.330   6.825   0.763
 1615W        W 5666   2.831  11.405   8.822
 1616W        W 5667   2.509   0.069  10.383
 1617W        W 5668   6.642  10.932   1.360
 1618W        W 5669   4.575   9.037  11.939
 1619W        W 5670   9.413   2.887   0.899
 1620W        W 5671   5.027   2.821   3.171
 1621W        W 5672   0.173  10.331   1.430
 1622W        W 5673   9.838   4.803   2.301
 1623W        W 5674  10.077   0.384   9.724
 1624W        W 5675   3.308   9.962   1.294
 1625W        W 5676  10.906   6.481   1.291
 1626W        W 5677   6.098   3.645   1.982
 1627W        W 5678   4.124   4.263  11.188
 1628W        W 5679   0.683  10.815   3.375
 1629W        W 5680   9.389   8.055   1.822
 1630W        W 5681   0.432   6.195  11.770
 1631W        W 5682   4.177  10.136   3.256
 1632W        W 5683   9.456   3.935   2.308
 1633W        W 5684   2.899   2.592  10.510
 1634W        W 5685   0.774   4.212   0.705
 1635W        W 5686   1.799   0.926   8.664
 1636W        W 5687   3.820   3.612  11.373
 1637W        W 5688   2.172   5.700   9.120
 1638W        W 5689   8.108   5.849  10.990
 1639W        W 5690   4.988   9.508   8.959
 1640W        W 5691   3.898   7.546   3.239
 1641W        W 5692   5.610   3.681   2.079
 1642W        W 5693   5.051   3.549   2.747
 1643W        W 5694   0.067   6.704   2.396
 1644W        W 5695  10.520   3.197   2.713
 1645W        W 5696   5.659   7.665   1.915
 1646W        W 5697   7.362   0.949   8.473
 1647W        W 5698   7.965   4.997  10.414
 1648W        W 5699   4.435   1.075  11.051
 1649W        W 5700   2.660   3.294   0.217
 1650W        W 5701   0.438   0.237   3.492
 1651W        W 5702   3.173   3.643  10.575
 1652W        W 5703   3.183   6.047   9.803
 1653W        W 5704   9.895   2.851   1.150
 1654W        W 5705   0.418   8.615  10.050
 1655W        W 5706   7.094   2.831   0.467
 1656W        W 5707   8.099  10.039   2.349
 1657W        W 5708   0.841   8.362  11.279
 1658W        W 5709   6.185   5.307   2.413
 1659W        W 5710   1.897   2.266   1.875
 1660W        W 5711   3.194   5.310   2.491
 1661W        W 5712   5.819   5.046   0.394
 1662W        W 5713   5.161   9.751  11.707
 1663W        W 5714   1.382   5.750   1.781
 1664W        W 5715   2.156   9.058   8.898
 1665W        W 5716  10.514   6.983   9.086
 1666W        W 5717   5.538   7.975   8.701
 1667W        W 5718   4.684   0.827   3.600
 1668W        W 5719   6.417   2.124   9.308
 1669W        W 5720   1.274   7.662   9.015
 1670W        W 5721  11.235   2.811   1.714
 1671W        W 5722   3.458   2.230   2.959
 1672W        W 5723  10.818   3.704   0.944
 1673W        W 5724  11.018   6.158   0.535
 1674W        W 5725   0.874   8.650  10.293
 1675W        W 5726   2.660   0.533  11.244
 1676W        W 5727  11.476   8.077   2.579
 1677W        W 5728   7.307  10.767   2.137
 1678W        W 5729  10.416   0.465   8.919
 1679W        W 5730   5.490   6.698   0.360
 1680W        W 5731   2.700   0.243   0.248
 1681W        W 5732   3.545   3.995   1.990
 1682W        W 5733   9.632   2.926  11.086
 1683W        W 5734   4.613   9.366   9.392
 1684W        W 5735   8.715   5.118   0.345
 1685W        W 5736   5.056   4.015   0.079
 1686W        W 5737   1.680   9.494   9.619
 1687W        W 5738   4.779   1.467  11.528
 1688W        W 5739   5.636   9.386  11.776
 1689W        W 5740   1.803   0.476   1.207
 1690W        W 5741   2.666   3.594   3.054
 1691W        W 5742   9.957   4.829   1.262
 1692W        W 5743   9.025   4.817   2.678
 1693W        W 5744   0.066   9.428   3.281
 1694W        W 5745   4.551   4.817   0.460
 1695W        W 5746  10.796   5.742   3.570
 1696W        W 5747   7.058   9.849   2.258
 1697W        W 5748   6.129   4.878  10.396
 1698W        W 5749  11.009   0.705   0.844
 1699W        W 5750   8.470  10.035  10.346
 1700W        W 5751   2.725   3.659   1.538
 1701W        W 5752   3.826  10.253   0.692
 1702W        W 5753  11.136   0.040  11.805
 1703W        W 5754   4.440   9.312   1.289
 1704W        W 5755   4.666  10.783   1.738
 1705W        W 5756   9.069  11.372  10.545
 1706W        W 5757   4.238   7.773  10.961
 1707W        W 5758   5.479  10.748   1.161
 1708W        W 5759   7.917   3.191  11.626
 1709W        W 5760   5.524   6.808  10.054
 1710W        W 5761  10.133   5.176  10.519
 1711W        W 5762   6.245   3.175   2.151
 1712W        W 5763   8.506   5.218   3.331
 1713W        W 5764  10.826   0.748   0.350
 1714W        W 5765  10.105   6.301  11.687
 1715W        W 5766   8.941   3.562   9.993
 1716W        W 5767   4.813   6.988   2.441
 1717W        W 5768   3.342   8.155  11.854
 1718W        W 5769   1.081   7.923  11.096
 1719W        W 5770   2.213   0.963   3.087
 1720W        W 5771   4.207   8.414   9.484
 1721W        W 5772   8.124   7.826   3.044
 1722W        W 5773   7.865  11.481  10.383
 1723W        W 5774   1.479   3.756   1.192
 1724W        W 5775   7.278   4.480   8.226
 1725W        W 5776   6.190  11.219   9.093
 1726W        W 5777   7.871   5.467   1.740
 1727W        W 5778   5.576   1.702   8.973
 1728W        W 5779   2.670   2.652   1.954
 1729W        W 5780   0.425   4.071   0.381
 1730W        W 5781   2.410   8.585   8.817
 1731W        W 5782   3.861  11.129   8.631
 1732W        W 5783   8.403  10.941  11.782
 1733W        W 5784   9.504   0.100   9.366
 1734W        W 5785   5.547   7.977   3.669
 1735W        W 5786   8.973   9.997   2.999
 1736W        W 5787   0.427   0.324   1.052
 1737W        W 5788   6.331   8.020   0.884
 1738W        W 5789   6.211   4.056   8.152
 1739W        W 5790   5.168   2.564  11.771
 1740W        W 5791   3.134   8.338   3.060
 1741W        W 5792   3.077   5.582   1.233
 1742W        W 5793   0.755  10.460  10.629
 1743W        W 5794   5.319   6.933   3.541
 1744W        W 5795   5.981   4.159   3.620
 1745W        W 5796   8.879   5.070   1.131
 1746W        W 5797   6.189   4.325   0.988
 1747W        W 5798   4.701   3.756  10.779
 1748W        W 5799   6.597   7.983   8.553
 1749W        W 5800   0.943   2.947   0.764
 1750W        W 5801   1.708   3.238   1.908
 1751W        W 5802  10.950   5.533   2.180
 1752W        W 5803   9.434   4.236  10.888
 1753W        W 5804   3.664   6.183   9.657
 1754W        W 5805   3.617   3.531   9.892
 1755W        W 5806   6.316   5.373  10.440
 1756W        W 5807   9.906   4.690   8.918
 1757W        W 5808  10.788   7.703   9.070
 1758W        W 5809   4.248   5.591  10.869
 1759W        W 5810   5.680  10.512   8.910
 1760W        W 5811   5.929   3.801   2.854
 1761W        W 5812   7.208  10.136   0.434
 1762W        W 5813   3.336   9.755   3.588
 1763W        W 5814  11.457   8.050   1.881
 1764W        W 5815   5.699   4.119   0.258
 1765W        W 5816   4.183   6.652   0.321
 1766W        W 5817   6.905   0.753  10.296
 1767W        W 5818  10.453  10.541   0.569
 1768W        W 5819   2.918   2.964  11.908
 1769W        W 5820  10.030   2.565  11.298
 1770W        W 5821   4.445   6.656   3.559
 1771W        W 5822   1.368   8.942   2.427
 1772W        W 5823   2.184   3.312  10.488
 1773W        W 5824   7.940   9.166   9.673
 1774W        W 5825   3.303   4.123   2.822
 1775W        W 5826  11.146   9.491   9.531
 1776W        W 5827   2.751   3.740   8.957
 1777W        W 5828   9.094   8.075   2.262
 1778W        W 5829   7.793   2.825   2.789
 1779W        W 5830   7.495   3.148  10.907
 1780W        W 5831   8.502   0.619   1.197
 1781W        W 5832   6.545   0.795  11.551
 1782W        W 5833   6.512   2.234   2.410
 1783W        W 5834   9.657   8.702  11.310
 1784W        W 5835   3.259   9.801   2.315
 1785W        W 5836   4.590   0.311   1.437
 1786W        W 5837   6.713   1.101  11.955
 1787W        W 5838   5.154   0.978   3.435
 1788W        W 5839   4.481   5.386  10.439
 1789W        W 5840   1.006   8.526   9.382
 1790W        W 5841  10.773   8.464  10.909
 1791W        W 5842   7.071   9.734   1.203
 1792W        W 5843   1.950   2.231   9.995
 1793W        W 5844   6.527   8.349   0.248
 1794W        W 5845   3.375   9.099  11.516
 1795W        W 5846   5.982   7.869  11.022
 1796W        W 5847   6.237   6.475   9.836
 1797W        W 5848   1.236   0.999   0.908
 1798W        W 5849   1.443   3.091   9.910
 1799W        W 5850   1.676   4.612   3.369
 1800W        W 5851   4.039   6.757   2.871
 1801W        W 5852   6.027   1.840   9.503
 1802W        W 5853  10.771   9.126   2.957
 1803W        W 5854   9.765   8.424   8.963
 1804W        W 5855   1.489   8.019   0.029
 1805W        W 5856   9.383   6.673   1.027
 1806W        W 5857   9.431   4.750   3.579
 1807W        W 5858   0.666   6.712  11.802
 1808W        W 5859   2.610  10.560  11.442
 1809W        W 5860   3.801   2.164   9.029
 1810W        W 5861  10.907  10.895   9.955
 1811W        W 5862  10.945   6.664   3.158
 1812W        W 5863   8.030  10.072  10.088
 1813W        W 5864   4.679  10.932   3.276
 1814W        W 5865   1.488   9.685   0.061
 1815W        W 5866   9.523   2.663   1.481
 1816W        W 5867   4.286  10.810  10.619
 1817W        W 5868   9.238   5.162  10.709
 1818W        W 5869   3.222   3.840  11.541
 1819W        W 5870   5.717   4.222   9.928
 1820W        W 5871   4.083  10.034  10.229
 1821W        W 5872   1.306   9.136   2.905
 1822W        W 5873   2.603  10.050   2.951
 1823W        W 5874   6.632   9.431   9.246
 1824W        W 5875   1.628   5.542   0.459
 1825W        W 5876   8.872   4.185   9.680
 1826W        W 5877   9.929   7.160   2.646
 1827W        W 5878   2.495   5.342   1.012
 1828W        W 5879   4.183   3.072  11.069
 1829W        W 5880   1.380   5.798   9.643
 1830W        W 5881   1.192   2.896   3.467
 1831W        W 5882   1.719   6.617  10.995
 1832W        W 5883   1.131  10.969   9.367
 1833W        W 5884   4.133   5.222  11.560
 1834W        W 5885   0.557  10.209   8.869
 1835W        W 5886   5.014   5.824   9.592
 1836W        W 5887   1.366   3.797   1.837
 1837W        W 5888   0.249   3.515   9.885
 1838W        W 5889   9.956   0.497   8.690
 1839W        W 5890   9.523   1.945   9.013
 1840W        W 5891   4.626   3.219   0.246
 1841W        W 5892   9.177   0.477   9.537
 1842W        W 5893   3.593   4.248   3.240
 1843W        W 5894   8.520   5.387  10.951
 1844W        W 5895   5.678   8.720   1.869
 1845W        W 5896  10.069   2.712   9.397
 1846W        W 5897  10.237   3.410  10.881
 1847W        W 5898   7.950   9.426   8.814
 1848W        W 5899   0.805   8.265   2.292
 1849W        W 5900   0.736   8.108   9.222
 1850W        W 5901   9.093   6.666   2.906
 1851W        W 5902   8.532  10.361   0.183
 1852W        W 5903   6.573   2.650  11.191
 1853W        W 5904   0.262   5.854   1.478
 1854W        W 5905   1.815   2.788   1.199
 1855W        W 5906   3.467   8.411   1.623
 1856W        W 5907   3.841   4.811  10.877
 1857W        W 5908   8.102   2.644   8.468
 1858W        W 5909   1.537  11.025   0.857
 1859W        W 5910   6.725   9.903   0.361
 1860W        W 5911   5.842   6.236  11.486
 1861W        W 5912   4.660  11.301   2.890
 1862W        W 5913   7.162   9.383   1.951
 1863W        W 5914  10.653  11.403  11.791
 1864W        W 5915   1.996   6.278  11.866
 1865W        W 5916   7.464   3.328   1.574
 1866W        W 5917   5.713   4.099   3.185
 1867W        W 5918   8.129  10.836   1.726
 1868W        W 5919   2.462  10.877  10.897
 1869W        W 5920  11.246   4.276   3.018
 1870W        W 5921   7.170   2.646   9.476
 1871W        W 5922   9.257   0.677   1.788
 1872W        W 5923   7.187   3.282   3.038
 1873W        W 5924   2.169   3.693   3.255
 1874W        W 5925  10.327   3.393   9.975
 1875W        W 5926   1.350   9.203   1.975
 1876W        W 5927   3.733   2.089   8.458
 1877W        W 5928  10.287   3.921   9.907
 1878W        W 5929   6.905   5.348   2.032
 1879W        W 5930   4.520   2.735   0.991
 1880W        W 5931   6.244   3.666   1.488
 1881W        W 5932   8.355  10.830   9.532
 1882W        W 5933   4.749   5.233   0.755
 1883W        W 5934   7.115   4.528   1.712
 1884W        W 5935  11.027  11.332   0.264
 1885W        W 5936   9.737   5.952  11.713
 1886W        W 5937   6.714  10.454   9.475
 1887W        W 5938   5.307  10.944   8.970
 1888W        W 5939   6.294   2.339   1.366
 1889W        W 5940   4.547   0.511   2.381
 1890W        W 5941   0.493   2.760  10.566
 1891W        W 5942  10.943   1.969   2.777
 1892W        W 5943   6.452   6.029   0.973
 1893W        W 5944   1.972  10.170   1.973
 1894W        W 5945   1.154   0.848   9.123
 1895W        W 5946   3.483   9.611   9.696
 1896W        W 5947  10.595   2.770   2.421
 1897W        W 5948   1.234   8.047   9.365
 1898W        W 5949   0.351   0.828   2.410
 1899W        W 5950   1.714   5.558   1.430
 1900W        W 5951   3.169   8.866   3.140
 1901W        W 5952  10.049   4.988  10.048
 1902W        W 5953   2.082   1.822   1.717
 1903W        W 5954   8.432   3.268  10.435
 1904W        W 5955   3.785   3.098  11.379
 1905W        W 5956   9.062   6.081   9.098
 1906W        W 5957  11.182   5.733  11.221
 1907W        W 5958   1.751   4.572   1.541
 1908W        W 5959   8.732   2.504   2.798
 1909W        W 5960  11.359  10.567  11.102
 1910W        W 5961  10.049   2.605  10.331
 1911W        W 5962   8.245   0.910  10.394
 1912W        W 5963   5.510   2.113   2.550
 1913W        W 5964   5.624   0.386   9.634
 1914W        W 5965  10.956   5.214  11.497
 1915W        W 5966  10.124   3.607   9.522
 1916W        W 5967   0.248   7.279   2.975
 1917W        W 5968   3.318  11.364   1.423
 1918W        W 5969   6.716   6.143   8.707
 1919W        W 5970   1.473   7.048   8.478
 1920W        W 5971  11.386   5.660   9.222
 1921W        W 5972  10.125   6.035   2.209
 1922W        W 5973   5.063  10.326   2.314
 1923W        W 5974   0.443   9.885   3.456
 1924W        W 5975   9.145   9.562   0.331
 1925W        W 5976   9.018  10.481   2.195
 1926W        W 5977   1.795   8.944   1.808
 1927W        W 5978   2.245   2.793  10.060
 1928W        W 5979   4.107   4.240   1.535
 1929W        W 5980   2.380   1.896   3.537
 1930W        W 5981   4.102   3.333  10.025
 1931W        W 5982   0.210   1.441   1.700
 1932W        W 5983   8.448  10.705   2.744
 1933W        W 5984   4.648   3.869   2.818
 1934W        W 5985   6.633   8.446  10.249
 1935W        W 5986   2.999  10.439  10.107
 1936W        W 5987   3.188   1.774   9.011
 1937W        W 5988   9.570  10.764   1.008
 1938W        W 5989   3.490   8.004   0.923
 1939W        W 5990   5.407   7.831   9.203
 1940W        W 5991   4.066   2.612   2.425
 1941W        W 5992   7.697  11.034   0.461
 1942W        W 5993   3.612   2.084   0.254
 1943W        W 5994   6.593   1.274   9.059
 1944W        W 5995   8.094   8.318   2.765
 1945W        W 5996   0.893   0.374   2.373
 1946W        W 5997   6.888   3.318   0.568
 1947W        W 5998   4.160   9.067   1.690
 1948W        W 5999   3.452   0.515   3.745
 1949W        W 6000   3.725   3.584   1.751
 1950W        W 6001   9.901   4.762  10.767
 1951W        W 6002   7.237   1.884   2.677
 1952W        W 6003   8.678   3.681  11.309
 1953W        W 6004  11.405   9.916   9.339
 1954W        W 6005   9.798   0.109   0.986
 1955W        W 6006   1.475   5.131   2.113
 1956W        W 6007   2.421   6.123   8.809
 1957W        W 6008   3.369   9.479   0.402
 1958W        W 6009   8.614   5.260  11.857
 1959W        W 6010   5.982   6.067  10.988
 1960W        W 6011  10.555   3.422   0.255
 1961W        W 6012   3.117  11.344  11.134
 1962W        W 6013   8.625   8.806   1.219
 1963W        W 6014   1.782   5.980   2.211
 1964W        W 6015   1.640  10.815   9.282
 1965W        W 6016  11.282   9.757  11.363
 1966W        W 6017   5.297   8.953   0.695
 1967W        W 6018  10.581  11.342  10.953
 1968W        W 6019  11.445   7.567   1.691
 1969W        W 6020   9.910   5.604   0.025
 1970W        W 6021   1.337   1.402   3.158
 1971W        W 6022   4.776   1.700  11.986
 1972W        W 6023   6.537   7.567   0.994
 1973W        W 6024   4.968   6.540   3.553
 1974W        W 6025   3.860   3.171   1.472
 1975W        W 6026   7.135   8.848  11.058
 1976W        W 6027   3.268   2.689   1.755
 1977W        W 6028   2.251   7.930   1.185
 1978W        W 6029   3.654   0.307   3.211
 1979W        W 6030   4.156  11.192  10.299
 1980W        W 6031  10.415   5.180  11.480
 1981W        W 6032   2.847   8.784   0.809
 1982W        W 6033  10.863   3.290   9.314
 1983W        W 6034   3.934   7.128   9.259
 1984W        W 6035   3.847   3.377  11.820
 1985W        W 6036  11.407   3.125   9.997
 1986W        W 6037   2.217   8.913  11.321
 1987W        W 6038   6.209  10.810  10.734
 1988W        W 6039   2.192   2.230  11.469
 1989W        W 6040   3.258   9.068  10.641
 1990W        W 6041   1.292   5.284   1.634
 1991W        W 6042   9.750   4.590  10.199
 1992W        W 6043   3.899   8.204   8.364
 1993W        W 6044   8.130  10.443   2.022
 1994W        W 6045   6.958   8.434   0.565
 1995W        W 6046   5.542   2.367   9.754
 1996W        W 6047   0.695   5.984   1.220
 1997W        W 6048   1.673   6.703  11.979
 1998W        W 6049   6.080   8.908   1.610
 1999W        W 6050   0.626   1.837   9.064
 2000W        W 6051   2.760   1.125  10.442
 2001W        W 6052   6.048   0.391   2.268
 2002W        W 6053   8.565   9.709   1.607
 2003W        W 6054  11.404   0.896  11.845
 2004W        W 6055   7.216   7.832   9.939
 2005W        W 6056   8.638  10.005  11.084
 2006W        W 6057   3.344   2.244   9.781
 2007W        W 6058   1.806   6.449   1.942
 2008W        W 6059   3.646   8.911   9.045
 2009W        W 6060   2.256   3.684  11.285
 2010W        W 6061  10.072   0.245   1.438
 2011W        W 6062   8.257   1.545  11.294
 2012W        W 6063   2.898   1.860  11.221
 2013W        W 6064   8.370   9.578   0.013
 2014W        W 6065   0.328   7.964   9.514
 2015W        W 6066   2.690   3.461   8.533
 2016W        W 6067   1.258   9.315   3.432
 2017W        W 6068  10.874   7.007  10.844
 2018W        W 6069   3.834   7.483   0.247
 2019W        W 6070   1.993   7.722   3.168
 2020W        W 6071   1.856   1.337   1.881
 2021W        W 6072   9.388   9.368  11.874
 2022W        W 6073   1.627  10.526   1.772
 2023W        W 6074   8.003  11.436   0.917
 2024W        W 6075   8.585   0.596   2.284
 2025W        W 6076   4.268   4.582  11.682
 2026W        W 6077   2.434   7.451   4.071
 2027W        W 6078   9.508   9.825   8.987
 2028W        W 6079   8.113   5.329   3.664
 2029W        W 6080   9.649  10.966  11.278
 2030W        W 6081   8.906   3.642  10.849
 2031W        W 6082   6.098   9.489   0.758
 2032W        W 6083   2.626  10.877   0.203
 2033W        W 6084  10.605   0.326   3.198
 2034W        W 6085   1.558   2.422   0.106
 2035W        W 6086  10.895   1.178   8.621
 2036W        W 6087   9.104  11.235   2.183
 2037W        W 6088   8.166   7.548   1.822
 2038W        W 6089   3.049   1.471   3.353
 2039W        W 6090   2.187   5.006   3.819
 2040W        W 6091   0.121   6.766  10.139
 2041W        W 6092  10.360   7.000  11.985
 2042W        W 6093  10.811   6.108  11.197
 2043W        W 6094   1.672   2.776   3.301
 2044W        W 6095  10.126   2.782   8.884
 2045W        W 6096   4.813  10.066   1.370
 2046W        W 6097   5.688  11.347   8.930
 2047W        W 6098   2.784   4.563   1.451
 2048W        W 6099   4.482  11.257  11.951
 2049W        W 6100   8.970   9.497  10.302
 2050W        W 6101   3.028   7.789   0.707
 2051W        W 6102   5.689   8.200   1.884
 2052W        W 6103   6.414   3.332   9.361
 2053W        W 6104   1.132   2.241   1.537
 2054W        W 6105   5.540   5.710   0.449
 2055W        W 6106   8.912   5.927  11.418
 2056W        W 6107  11.489   6.761   0.878
 2057W        W 6108   6.738  10.429   1.488
 2058W        W 6109   4.379   6.536   0.956
 2059W        W 6110  10.779   5.150   1.390
 2060W        W 6111   0.411  10.330   9.891
 2061W        W 6112   6.967   3.762   2.277
 2062W        W 6113   4.019   7.931   0.968
 2063W        W 6114   5.508   3.317   1.702
 2064W        W 6115  11.267   0.407  11.088
 2065W        W 6116   1.839  10.433   2.787
 2066W        W 6117   1.001   9.951   1.352
 2067W        W 6118  10.459   8.963  11.281
 2068W        W 6119   9.667   8.159   9.572
 2069W        W 6120   1.904   2.521  11.755
 2070W        W 6121   5.972   6.180   8.924
 2071W        W 6122   0.666   1.653   1.884
 2072W        W 6123   2.217  11.326  10.913
 2073W        W 6124   4.206  10.284   2.372
 2074W        W 6125   5.244   9.617   4.109
 2075W        W 6126   2.939   8.383   8.118
 2076W        W 6127   2.855   2.935  10.907
 2077W        W 6128   7.392   2.997  11.758
 2078W        W 6129   5.454   4.660   0.360
 2079W        W 6130   1.837   0.206   3.233
 2080W        W 6131  10.908   5.969   2.424
 2081W        W 6132   6.952   9.924  11.479
 2082W        W 6133   5.739   4.766  10.060
 2083W        W 6134  11.476   5.066   1.826
 2084W        W 6135   8.129   2.873   8.956
 2085W        W 6136   4.133   3.056   2.707
 2086W        W 6137   3.585  11.049   0.379
 2087W        W 6138   2.253   9.061   3.232
 2088W        W 6139   1.656   1.864   0.766
 2089W        W 6140   0.299  10.033  10.648
 2090W        W 6141  10.461   5.498   9.430
 2091W        W 6142  10.813   9.663  10.463
 2092W        W 6143   1.383   1.774  11.286
 2093W        W 6144   9.234   3.904   1.816
 2094W        W 6145   2.606   3.191   1.747
 2095W        W 6146   8.600   1.816   9.556
 2096W        W 6147   8.195  11.092  10.456
 2097W        W 6148   8.235   5.060   0.478
 2098W        W 6149   2.409   5.334   0.024
 2099W        W 6150   3.180   7.974   1.326
 2100W        W 6151   3.663   7.577   9.212
 2101W        W 6152   1.335   9.444   2.435
 2102W        W 6153   7.634  10.378   8.988
 2103W        W 6154   0.070   0.552   9.818
 2104W        W 6155  10.397   2.412   0.307
 2105W        W 6156  11.042   5.987  11.642
 2106W        W 6157   1.943   3.175   9.144
 2107W        W 6158  10.007   6.167   9.900
 2108W        W 6159   6.143  10.814   2.877
 2109W        W 6160  11.495   2.768   2.170
 2110W        W 6161   7.148   7.021  11.529
 2111W        W 6162   0.055   3.364  11.391
 2112W        W 6163   5.705   0.766   2.194
 2113W        W 6164   0.196   3.169  11.864
 2114W        W 6165   3.888   1.041  11.390
 2115W        W 6166   1.893   0.236  10.876
 2116W        W 6167   6.019   4.388  10.305
 2117W        W 6168   9.351   7.601   8.789
 2118W        W 6169   3.315   5.116   9.652
 2119W        W 6170   3.388   3.328   3.137
 2120W        W 6171   3.582   9.325  10.246
 2121W        W 6172  10.204   0.284   2.898
 2122W        W 6173   3.997   8.911   9.433
 2123W        W 6174   5.399   8.097   4.172
 2124W        W 6175   2.193   8.432   2.105
 2125W        W 6176  10.423   6.538   2.423
 2126W        W 6177   8.120   9.969   0.250
 2127W        W 6178  11.312   3.900   1.016
 2128W        W 6179   0.847   7.416   1.749
 2129W        W 6180  10.464   6.755   1.346
 2130W        W 6181   1.923   9.688  11.328
 2131W        W 6182   3.296   2.229  10.281
 2132W        W 6183   8.550   2.623   3.605
 2133W        W 6184   4.605   2.393   9.574
 2134W        W 6185   3.170   9.410  11.922
 2135W        W 6186   2.114   5.611   0.337
 2136W        W 6187  10.038   1.225   2.572
 2137W        W 6188   1.052   3.665   1.466
 2138W        W 6189   9.565   9.782  10.824
 2139W        W 6190   0.809   6.134  10.400
 2140W        W 6191  10.044   0.815   9.102
 2141W        W 6192   9.160   1.259   3.199
 2142W        W 6193   9.259   8.383  11.474
 2143W        W 6194   1.877   1.900   1.258
 2144W        W 6195   4.372   4.401   0.171
 2145W        W 6196   8.640   1.749   0.423
 2146W        W 6197   9.763   6.720   1.847
 2147W        W 6198   1.651   9.406   1.607
 2148W        W 6199   4.485   8.378  10.040
 2149W        W 6200   3.755   9.672   8.864
 2150W        W 6201   3.587   0.268   2.256
 2151W        W 6202   0.446   8.859   9.301
 2152W        W 6203   2.404   3.187   3.220
 2153W        W 6204   5.053   2.966  10.003
 2154W        W 6205   5.243   8.627   3.048
 2155W        W 6206   1.442   1.753  11.788
 2156W        W 6207   9.989  10.508  11.815
 2157W        W 6208   4.573   4.189   3.398
 2158W        W 6209   4.107   2.549   0.757
 2159W        W 6210   8.282   3.698   1.873
 2160W        W 6211   0.544  10.334   1.827
 2161W        W 6212   7.874   4.094   9.335
 2162W        W 6213   0.762   3.674   9.072
 2163W        W 6214   7.054   3.378  11.063
 2164W        W 6215   1.625  10.553  10.387
 2165W        W 6216   6.615   4.555   0.855
 2166W        W 6217   5.256   1.155   9.562
 2167W        W 6218   0.128   7.099   1.258
 2168W        W 6219   2.142  11.312   2.316
 2169W        W 6220   7.072   0.386   9.433
 2170W        W 6221   2.752   5.650  11.771
 2171W        W 6222   5.552   9.436   2.295
 2172W        W 6223   0.826   4.828  10.933
 2173W        W 6224   1.746   8.065  10.064
 2174W        W 6225   2.496   9.040   1.560
 2175W        W 6226   9.636   8.458   1.645
 2176W        W 6227   8.416   2.321   3.187
 2177W        W 6228   7.034   9.730   0.714
 2178W        W 6229   9.587   7.463  11.644
 2179W        W 6230  11.265   6.081   1.486
 2180W        W 6231  10.594   6.113   2.055
 2181W        W 6232   7.713   0.673   9.288
 2182W        W 6233   1.526   9.496  11.004
 2183W        W 6234  10.005   1.714   2.105
 2184W        W 6235   3.224   6.082   1.266
 2185W        W 6236   3.792   9.263  11.249
 2186W        W 6237   5.092   5.565   0.256
 2187W        W 6238   8.658   3.747  10.400
 2188W        W 6239   0.933   9.767  11.412
 2189W        W 6240   9.892   8.890   2.398
 2190W        W 6241  11.059   3.184   0.971
 2191W        W 6242   9.791   7.493   9.047
 2192W        W 6243  10.818   7.519  10.885
 2193W        W 6244   5.452   4.083   9.532
 2194W        W 6245   7.106   7.462  11.273
 2195W        W 6246   1.755   0.497   1.724
 2196W        W 6247   9.229   0.750  10.723
 2197W        W 6248   3.723   3.278   0.997
 2198W        W 6249   8.386   6.314   0.753
 2199W        W 6250   1.787   9.031   9.799
 2200W        W 6251   3.135   0.245   0.012
 2201W        W 6252   1.347   7.091   0.075
 2202W        W 6253   2.830   7.930  10.951
 2203W        W 6254  10.479  11.359   2.965
 2204W        W 6255   0.788   9.901  10.043
 2205W        W 6256   6.457   9.970   1.834
 2206W        W 6257   6.539   0.873   3.391
 2207W        W 6258   7.670   6.354   1.192
 2208W        W 6259   7.913   5.587   0.206
 2209W        W 6260   9.420   3.727  10.821
 2210W        W 6261  10.423   7.001   2.684
 2211W        W 6262   2.285   8.444   0.194
 2212W        W 6263   5.094   7.018   1.881
 2213W        W 6264   8.467  11.325  11.208
 2214W        W 6265   5.548  10.233   3.448
 2215W        W 6266  10.463   2.751  11.886
 2216W        W 6267   6.651   0.926  11.043
 2217W        W 6268  10.995   1.393   2.914
 2218W        W 6269   7.601   3.045   3.227
 2219W        W 6270   8.902   4.226  11.647
 2220W        W 6271   1.592  10.245   0.155
 2221W        W 6272  10.674   3.525   1.856
 2222W        W 6273  11.117   9.953  10.892
 2223W        W 6274   7.532   6.254  11.542
 2224W        W 6275   4.587   9.315   0.737
 2225W        W 6276  10.274  11.128   9.249
 2226W        W 6277   5.428   3.702   3.046
 2227W        W 6278   5.627   4.847   0.821
 2228W        W 6279   0.518   0.742  10.028
 2229W        W 6280   1.474   8.655   0.554
 2230W        W 6281   7.398   5.769  11.525
 2231W        W 6282   0.456   3.557  11.653
 2232W        W 6283  10.227   3.682   3.342
 2233W        W 6284   1.418   3.529   8.978
 2234W        W 6285  10.651   7.488  10.336
 2235W        W 6286  10.818   9.077   9.594
 2236W        W 6287   3.528   4.657   0.145
 2237W        W 6288  10.544  10.553   2.304
 2238W        W 6289   6.616   6.320   9.540
 2239W        W 6290   6.211   0.635   0.460
 2240W        W 6291   6.493   7.514  10.528
 2241W        W 6292   5.145   3.544   9.161
 2242W        W 6293   4.666   2.463   1.398
 2243W        W 6294   4.039   4.764   0.296
 2244W        W 6295  10.931   6.906  11.470
 2245W        W 6296   8.108   5.908   1.563
 2246W        W 6297  10.460   4.105  11.406
 2247W        W 6298   6.735   9.810  10.080
 2248W        W 6299   8.415   3.507   9.989
 2249W        W 6300   3.319   9.289   1.343
 2250W        W 6301   8.243   1.185   9.971
 2251W        W 6302   9.754   6.042  10.344
 2252W        W 6303   2.636   1.191   3.233
 2253W        W 6304   4.249   7.184   0.231
 2254W        W 6305   3.727   1.818  10.982
 2255W        W 6306   1.803   3.658   2.602
 2256W        W 6307   7.940   9.790   0.883
 2257W        W 6308  11.294   7.287  10.969
 2258W        W 6309  10.518   7.850   2.679
 2259W        W 6310   9.408   8.500  10.430
 2260W        W 6311   6.682  10.302   9.991
 2261W        W 6312   7.100   5.145  11.815
 2262W        W 6313   2.380   9.496   2.133
 2263W        W 6314   4.322   8.564   2.880
 2264W        W 6315  10.407   7.989   0.068
 2265W        W 6316   5.531   7.115   2.198
 2266W        W 6317   2.900   7.252  10.291
 2267W        W 6318   3.812   4.574   9.067
 2268W        W 6319   0.375   0.988  10.514
 2269W        W 6320  11.219   3.668   9.992
 2270W        W 6321   6.253   3.180   2.731
 2271W        W 6322   1.200   8.775  11.942
 2272W        W 6323   3.546   8.467   2.237
 2273W        W 6324   0.075  10.099  11.107
 2274W        W 6325   0.388   6.398   9.267
 2275W        W 6326   3.757  10.515   2.475
 2276W        W 6327   1.943   4.315  11.928
 2277W        W 6328   7.904   1.430   2.621
 2278W        W 6329   2.230  10.793  10.091
 2279W        W 6330   1.230  10.947  11.858
 2280W        W 6331   7.550   4.511   0.964
 2281W        W 6332   4.595   0.690   8.964
 2282W        W 6333   7.721   8.478  10.864
 2283W        W 6334   3.398   1.748  10.429
 2284W        W 6335   8.545   8.177  10.428
 2285W        W 6336   3.367   0.293   8.379
 2286W        W 6337   6.219   7.003  11.404
 2287W        W 6338   0.457   8.145   1.720
 2288W        W 6339   4.449   0.422   3.347
 2289W        W 6340   6.301   6.964   2.642
 2290W        W 6341   2.461   6.626   0.176
 2291W        W 6342   2.943   5.109  10.015
 2292W        W 6343   5.929  10.922   0.952
 2293W        W 6344   9.002   9.094   0.060
 2294W        W 6345   0.557  11.474   2.307
 2295W        W 6346   8.722   0.365   3.308
 2296W        W 6347   4.578  10.400  10.853
 2297W        W 6348   4.240   7.627   2.719
 2298W        W 6349   1.670   8.995   8.736
 2299W        W 6350   5.497   0.183   0.908
 2300W        W 6351   5.311   6.876  11.298
 2301W        W 6352  10.277   9.894   2.636
 2302W        W 6353   2.585   8.546  11.504
 2303W        W 6354  10.911   4.341  11.344
 2304W        W 6355   1.439   2.868   0.861
 2305W        W 6356   3.134  11.359   9.705
 2306W        W 6357   7.536   7.534   9.381
 2307W        W 6358   6.628   1.968   0.046
 2308W        W 6359   8.394   5.520   1.686
 2309W        W 6360   2.175   9.998  10.371
 2310W        W 6361   2.802   7.035   0.153
 2311W        W 6362   2.321   7.637   2.756
 2312W        W 6363  11.393   7.697   2.223
 2313W        W 6364   2.728   6.033   9.554
 2314W        W 6365   6.118   0.909   2.476
 2315W        W 6366   0.035   2.698   1.305
 2316W        W 6367   7.321   0.351  11.971
 2317W        W 6368   4.547  10.455   9.825
 2318W        W 6369   9.476   5.567   1.592
 2319W        W 6370   5.620   9.915  10.000
 2320W        W 6371  10.898   0.263   8.921
 2321W        W 6372   6.204   8.454   2.626
 2322W        W 6373   6.959   5.987   1.736
 2323W        W 6374   8.430   9.483   9.019
 2324W        W 6375   6.774   8.962   8.303
 2325W        W 6376   8.369  11.199   1.188
 2326W        W 6377   6.467   3.645   0.730
 2327W        W 6378   5.590   6.929   3.100
 2328W        W 6379   8.045   6.581   2.248
 2329W        W 6380   9.430   0.049   2.403
 2330W        W 6381   1.978   4.600  11.458
 2331W        W 6382   6.529   2.731   1.143
 2332W        W 6383   1.938   7.611   1.444
 2333W        W 6384   4.530   8.127  11.262
 2334W        W 6385  10.623   9.229   1.012
 2335W        W 6386   6.424   4.337  11.421
 2336W        W 6387   3.202   1.828   0.427
 2337W        W 6388   9.041   6.728   3.800
 2338W        W 6389   1.746   8.659   1.359
 2339W        W 6390   7.480   4.678   0.490
 2340W        W 6391   2.986   0.471   2.011
 2341W        W 6392   0.725   6.773   3.508
 2342W        W 6393   8.005   5.090   0.955
 2343W        W 6394   3.692   3.060  10.115
 2344W        W 6395   9.711   6.214   0.672
 2345W        W 6396   7.779   3.755   8.968
 2346W        W 6397   2.977   9.714   9.605
 2347W        W 6398   8.149  10.885   0.229
 2348W        W 6399  10.426   5.741   1.317
 2349W        W 6400   6.108   0.415   0.918
 2350W        W 6401   0.032   2.301   0.945
 2351W        W 6402   5.700   0.893   0.017
 2352W        W 6403   9.800   4.267  11.998
 2353W        W 6404   0.200   6.778   2.949
 2354W        W 6405   0.174  10.947   9.479
 2355W        W 6406   5.464   3.216  10.771
 2356W        W 6407   2.143   6.826  11.267
 2357W        W 6408   4.070   0.494   3.002
 2358W        W 6409   2.732   5.552   2.332
 2359W        W 6410  10.898   6.481   2.254
 2360W        W 6411   8.384   2.413  10.592
 2361W        W 6412   6.294   5.231   0.543
 2362W        W 6413   8.958   7.943   1.266
 2363W        W 6414  10.856   7.246  11.991
 2364W        W 6415   5.081   2.266   8.635
 2365W        W 6416   5.864   6.780  11.990
 2366W        W 6417   3.632   5.597   1.182
 2367W        W 6418   2.837  10.056   2.495
 2368W        W 6419   7.654   9.959   1.333
 2369W        W 6420   8.136   5.790   2.075
 2370W        W 6421   7.631   2.907  10.426
 2371W        W 6422   9.112   4.095   1.336
 2372W        W 6423   6.189   4.093  10.981
 2373W        W 6424   7.779   3.453   2.929
 2374W        W 6425   6.063   9.636  11.330
 2375W        W 6426  10.400   1.163  10.825
 2376W        W 6427   7.711   4.369   3.333
 2377W        W 6428   6.244   6.470   1.241
 2378W        W 6429  10.978   2.795   3.101
 2379W        W 6430   7.249   6.588  11.891
 2380W        W 6431   7.942   2.125   3.416
 2381W        W 6432   0.381   3.178  10.272
 2382W        W 6433   0.045  11.333   2.354
 2383W        W 6434   1.625   1.774   8.527
 2384W        W 6435   4.098   3.964   0.117
 2385W        W 6436   8.511   4.678   1.863
 2386W        W 6437   9.811   1.916   3.045
 2387W        W 6438   0.895   5.543   0.930
 2388W        W 6439   7.941   3.256  10.652
 2389W        W 6440   3.244   7.928   2.755
 2390W        W 6441   1.802   5.518   1.959
 2391W        W 6442   2.933  10.522   2.340
 2392W        W 6443   5.442   3.750   9.983
 2393W        W 6444   0.077   6.983   0.415
 2394W        W 6445   1.610   7.528   8.646
 2395W        W 6446   6.645   2.406   3.171
 2396W        W 6447   8.496   1.293   0.202
 2397W        W 6448   1.855   2.755   1.715
 2398W        W 6449   3.609   1.802   0.841
 2399W        W 6450   4.572  11.294   1.793
 2400W        W 6451   0.947   5.523   1.938
 2401W        W 6452   5.278   7.087   2.674
 2402W        W 6453   7.097  10.842  11.695
 2403W        W 6454  10.714   8.520  11.426
 2404W        W 6455   9.845   7.080  11.061
 2405W        W 6456   4.667   1.704  11.077
 2406W        W 6457  10.012   6.563   0.910
 2407W        W 6458   2.925   5.094   9.084
 2408W        W 6459  10.761   4.626  10.484
 2409W        W 6460   0.327   6.279  10.273
 2410W        W 6461   3.282   6.920   0.309
 2411W        W 6462   6.187   1.447   0.641
 2412W        W 6463   1.835   7.148  11.784
 2413W        W 6464   0.754   9.375   1.662
 2414W        W 6465   4.013   1.765   9.759
 2415W        W 6466   7.399  10.807  10.915
 2416W        W 6467   0.674   0.409   0.334
 2417W        W 6468  11.154   6.910   2.181
 2418W        W 6469   5.249   2.629  11.275
 2419W        W 6470   6.541  10.493  11.761
 2420W        W 6471   9.875   6.921   8.462
 2421W        W 6472   3.347   3.626   0.945
 2422W        W 6473   7.916   1.827   9.596
 2423W        W 6474   1.329   9.939   2.380
 2424W        W 6475   9.887   7.101   9.961
 2425W        W 6476   5.379   1.196   0.314
 2426W        W 6477   6.981  10.846  11.182
 2427W        W 6478   5.477   4.332  10.389
 2428W        W 6479   1.820   7.061  10.778
 2429W        W 6480   2.238   8.073   3.483
 2430W        W 6481   5.380   2.292   0.304
 2431W        W 6482   8.995   0.067   0.507
 2432W        W 6483   8.990   5.552  11.078
 2433W        W 6484   1.828   1.132   2.808
 2434W        W 6485   2.809   5.943   0.951
 2435W        W 6486   4.315   3.910   1.864
 2436W        W 6487  10.552   9.320  10.908
 2437W        W 6488  10.113   1.433   3.051
 2438W        W 6489   8.865  10.795   9.975
 2439W        W 6490  10.900   9.947   9.543
 2440W        W 6491  10.102   4.792   1.851
 2441W        W 6492   0.533   0.439   2.728
 2442W        W 6493   8.172   9.734   2.763
 2443W        W 6494   2.223   6.677  10.048
 2444W        W 6495   0.922  10.827   1.448
 2445W        W 6496   2.707   1.452  10.005
 2446W        W 6497   9.978   9.185   8.654
 2447W        W 6498   6.504   7.840   1.435
 2448W        W 6499   0.310   4.703   3.330
 2449W        W 6500   8.368   9.185  10.611
 2450W        W 6501   3.211   3.144   0.887
 2451W        W 6502  10.930  11.493  10.027
 2452W        W 6503   8.586   5.512   9.567
 2453W        W 6504  10.590   8.974  10.018
 2454W        W 6505   1.272   1.510   0.926
 2455W        W 6506   8.520  10.365   2.334
 2456W        W 6507  11.154   5.591   3.199
 2457W        W 6508   6.003   6.706  10.219
 2458W        W 6509   7.328   3.235   1.076
 2459W        W 6510   9.538   4.649   9.270
 2460W        W 6511   3.591   5.060  11.396
 2461W        W 6512   2.926  10.546   0.504
 2462W        W 6513   6.200   1.054  11.272
 2463W        W 6514   5.685   8.760   3.298
 2464W        W 6515   2.727   0.470   0.704
 2465W        W 6516   8.495   7.649   1.418
 2466W        W 6517   3.173   4.264   1.723
 2467W        W 6518   0.106   0.395   3.025
 2468W        W 6519   8.329   5.533   4.067
 2469W        W 6520   1.665   9.488   2.822
 2470W        W 6521  10.694   1.251   0.138
 2471W        W 6522   6.604   5.052   0.915
 2472W        W 6523   2.201   9.483   9.677
 2473W        W 6524   1.334   6.160   3.005
 2474W        W 6525   1.908   4.623   2.921
 2475W        W 6526   8.953   5.900   9.838
 2476W        W 6527   2.213   6.676   2.626
 2477W        W 6528  11.008   8.718   3.196
 2478W        W 6529   8.506   4.164  11.317
 2479W        W 6530   3.097   5.078   2.958
 2480W        W 6531   3.607   9.845  10.245
 2481W        W 6532   7.772   0.276  11.780
 2482W        W 6533   6.195  10.820   9.476
 2483W        W 6534  10.554   8.197   2.317
 2484W        W 6535   5.225  11.477   2.217
 2485W        W 6536   0.531   5.022   0.254
 2486W        W 6537   3.336   4.223  11.854
 2487W        W 6538   3.878   1.700  10.276
 2488W        W 6539   3.668   0.249   0.853
 2489W        W 6540   3.218   9.752   0.835
 2490W        W 6541   7.471   8.926   9.680
 2491W        W 6542   5.253   8.773   1.162
 2492W        W 6543   2.191  11.394   2.833
 2493W        W 6544   9.021   3.116   2.288
 2494W        W 6545   1.390   0.760   1.364
 2495W        W 6546  10.869   0.022  11.334
 2496W        W 6547   8.004   1.779   2.983
 2497W        W 6548  11.274  11.237   9.279
 2498W        W 6549   9.913   5.246   0.379
 2499W        W 6550   5.522   5.361   0.034
 2500W        W 6551   3.146   9.216   9.633
 2501W        W 6552   3.631   4.936   2.253
 2502W        W 6553   1.789   7.666   9.137
 2503W        W 6554   9.335   8.477   9.890
 2504W        W 6555   8.989   6.381   0.118
 2505W        W 6556  10.611   8.950   1.913
 2506W        W 6557   3.264  11.440   0.477
 2507W        W 6558   1.125   9.373   1.331
 2508W        W 6559   5.203   0.466   3.473
 2509W        W 6560   7.131  10.794   2.621
 2510W        W 6561   2.084   7.242   3.288
 2511W        W 6562   1.715   5.092   3.086
 2512W        W 6563   5.693   5.672  10.067
 2513W        W 6564   0.124   3.559   2.074
 2514W        W 6565   0.888   7.180  11.853
 2515W        W 6566   9.689   7.982  10.936
 2516W        W 6567   1.332   3.627  11.207
 2517W        W 6568   8.274  10.919   2.283
 2518W        W 6569   1.764   4.720  10.562
 2519W        W 6570   9.806   5.673   1.992
 2520W        W 6571   3.461   8.039   9.335
 2521W        W 6572   2.616   4.096   3.104
 2522W        W 6573   6.257   1.149   9.987
 2523W        W 6574   5.520   3.763   2.555
 2524W        W 6575   3.091   8.616  11.422
 2525W        W 6576   9.505   5.739   1.116
 2526W        W 6577   8.348   4.169   9.527
 2527W        W 6578   2.258   0.270  11.983
 2528W        W 6579   6.510   4.010   3.662
 2529W        W 6580   4.725   9.725   0.990
 2530W        W 6581   2.760   6.221   1.408
 2531W        W 6582  11.009   6.498  10.722
 2532W        W 6583   1.719   4.066   0.375
 2533W        W 6584   2.920   0.306  10.709
 2534W        W 6585  10.449   9.443   1.871
 2535W        W 6586   2.738   7.558  11.313
 2536W        W 6587   0.412   3.106   1.376
 2537W        W 6588   4.651  10.425   3.166
 2538W        W 6589   0.045   9.632  10.892
 2539W        W 6590   5.638   6.210   1.807
 2540W        W 6591   6.234   8.091   9.499
 2541W        W 6592   2.640   5.115  11.270
 2542W        W 6593   6.062   2.016  11.374
 2543W        W 6594   1.409   4.217   0.005
 2544W        W 6595   6.589   7.602   1.898
 2545W        W 6596   3.576   9.420   3.878
 2546W        W 6597   0.845   7.236   9.049
 2547W        W 6598   7.544   2.286   2.183
 2548W        W 6599  11.320   7.015   3.169
 2549W        W 6600   7.123  10.516   9.875
 2550W        W 6601   8.916   9.197  10.721
 2551W        W 6602  10.334   2.797   0.861
 2552W        W 6603   8.750   6.840  11.941
 2553W        W 6604  11.081   8.993   1.012
 2554W        W 6605  10.441   0.782   9.869
 2555W        W 6606  10.379   3.680   0.677
 2556W        W 6607   1.852   5.857   9.864
 2557W        W 6608   9.759  10.638   2.780
 2558W        W 6609   9.767   0.944  11.902
 2559W        W 6610  10.869   3.500  10.811
 2560W        W 6611   8.804   5.656   9.125
 2561W        W 6612   5.730   3.629   3.438
 2562W        W 6613   3.761   9.862   8.349
 2563W        W 6614   7.489   9.195   0.233
 2564W        W 6615  10.321   5.359   3.886
 2565W        W 6616   0.163   5.670   3.258
 2566W        W 6617   1.685   5.109  11.500
 2567W        W 6618  10.392   8.103  11.459
 2568W        W 6619   6.869   7.215   3.597
 2569W        W 6620   9.653   5.044  10.390
 2570W        W 6621   0.240   1.940   0.373
 2571W        W 6622   7.066   9.480   0.279
 2572W        W 6623   3.017   4.689   9.647
 2573W        W 6624   6.448   4.749  10.029
 2574W        W 6625   4.763   0.484   9.407
 2575W        W 6626   4.901   4.379  10.353
 2576W        W 6627   7.067   1.802   3.146
 2577W        W 6628   8.937   6.321   9.538
 2578W        W 6629   9.855   9.587   2.593
 2579W        W 6630   4.612   8.365  10.536
 2580W        W 6631   4.862   5.722   1.547
 2581W        W 6632   2.211   2.068   9.603
 2582W        W 6633  11.244   5.263   8.938
 2583W        W 6634   6.472   2.694   2.166
 2584W        W 6635   9.360   8.520   0.762
 2585W        W 6636  10.317   3.098   3.717
 2586W        W 6637   2.911   2.459   9.984
 2587W        W 6638  10.566   3.669   2.949
 2588W        W 6639   3.602   7.566  10.251
 2589W        W 6640   1.747   8.432  10.478
 2590W        W 6641   5.012   3.510   0.922
 2591W        W 6642   0.960   2.673   1.752
 2592W        W 6643   3.811  10.931   9.498
 2593W        W 6644  11.422   2.120   3.465
 2594W        W 6645   8.925   5.105   9.804
 2595W        W 6646  11.496   5.556   3.756
 2596W        W 6647   7.369   6.429   0.762
 2597W        W 6648   1.218   0.915   3.253
 2598W        W 6649   3.085   0.194   2.437
 2599W        W 6650   2.729   6.893   9.919
 2600W        W 6651   8.042   3.816  11.040
 2601W        W 6652   9.692   5.213   2.547
 2602W        W 6653   7.256  10.014   8.975
 2603W        W 6654   2.277   5.766   9.606
 2604W        W 6655   3.592   1.774   9.364
 2605W        W 6656  10.971   4.818   9.370
 2606W        W 6657   8.586  11.183   3.629
 2607W        W 6658   3.884   9.316   1.334
 2608W        W 6659   8.043   9.200  10.186
 2609W        W 6660   0.931   5.349   9.106
 2610W        W 6661   0.361   7.684   1.990
 2611W        W 6662   1.637  11.337   2.435
 2612W        W 6663   9.328  10.344   1.354
 2613W        W 6664   0.839   4.841   9.098
 2614W        W 6665   3.275  10.279   0.846
 2615W        W 6666   7.212   2.253   9.161
 2616W        W 6667   9.511   1.496  10.331
 2617W        W 6668   3.788   5.075   1.234
 2618W        W 6669  10.357   7.918  10.313
 2619W        W 6670  10.977   9.328   2.053
 2620W        W 6671   1.844   0.461   0.694
 2621W        W 6672   2.839   9.921  11.964
 2622W        W 6673   0.584   3.316   2.794
 2623W        W 6674   3.900   5.630   1.608
 2624W        W 6675   9.212  10.611  11.704
 2625W        W 6676   2.171   1.743   0.848
 2626W        W 6677   2.224   6.184   2.457
 2627W        W 6678  10.953   7.515   3.482
 2628W        W 6679   7.256   5.670  10.743
 2629W        W 6680   2.707   9.058   2.952
 2630W        W 6681   1.363   5.456  11.146
 2631W        W 6682   5.626   0.726   8.924
 2632W        W 6683   0.364  11.027   2.096
 2633W        W 6684   9.459  10.590   9.374
 2634W        W 6685  10.349   2.280   1.669
 2635W        W 6686   3.131   1.655   0.926
 2636W        W 6687   4.529   3.648   9.912
 2637W        W 6688   7.921   7.122   1.672
 2638W        W 6689   2.049   4.230   8.854
 2639W        W 6690   0.425   4.771  10.265
 2640W        W 6691  10.741   8.634   0.904
 2641W        W 6692   5.392   2.830   1.897
 2642W        W 6693   3.136   7.495  11.009
 2643W        W 6694   5.580   4.106   1.231
 2644W        W 6695   4.570  11.320  10.586
 2645W        W 6696   0.980   9.752  11.939
 2646W        W 6697   3.936  10.599   1.520
 2647W        W 6698   5.068  10.318  11.002
 2648W        W 6699   4.170  10.625   3.426
 2649W        W 6700   4.728   4.290  10.822
 2650W        W 6701  10.813   1.182   2.098
 2651W        W 6702   2.478   7.588   3.264
 2652W        W 6703  10.433  10.394   9.137
 2653W        W 6704   4.706   8.856   1.405
 2654W        W 6705   4.708   3.930   1.508
 2655W        W 6706   7.734   3.980   2.783
 2656W        W 6707   6.976   3.810   0.743
 2657W        W 6708   4.266   3.293   2.275
 2658W        W 6709   5.777   7.113   0.691
 2659W        W 6710   9.504  10.577   0.494
 2660W        W 6711   9.549   0.984   0.838
 2661W        W 6712  10.329   8.361  10.594
 2662W        W 6713   0.438   6.933  11.231
 2663W        W 6714   7.957   1.704  10.085
 2664W        W 6715   8.415   5.061   8.658
 2665W        W 6716   9.839   7.636   9.914
 2666W        W 6717   1.508  10.471   3.213
 2667W        W 6718   0.861   0.996  10.324
 2668W        W 6719  10.417  11.418   3.474
 2669W        W 6720   6.196   9.907  10.058
 2670W        W 6721   9.110   8.904   1.059
 2671W        W 6722   9.818  10.354   1.226
 2672W        W 6723   6.130   2.954  11.218
 2673W        W 6724   8.896   1.033  11.002
 2674W        W 6725  11.171   0.219   2.254
 2675W        W 6726   2.735   5.094   2.629
 2676W        W 6727   8.404  11.217   2.683
 2677W        W 6728   3.220  11.023   1.802
 2678W        W 6729   1.461   3.306   9.459
 2679W        W 6730   9.522   3.666  11.646
 2680W        W 6731   9.812   2.155  10.505
 2681W        W 6732   7.325   8.954   2.164
 2682W        W 6733   7.590  11.212   8.985
 2683W        W 6734   5.793   7.776   3.254
 2684W        W 6735   7.997   0.471  10.474
 2685W        W 6736   6.966   0.481   2.270
 2686W        W 6737   0.991   9.235  11.859
 2687W        W 6738   4.747   0.974  11.469
 2688W        W 6739   7.437   0.076   2.652
 2689W        W 6740   6.985   6.710   0.890
 2690W        W 6741   6.084   7.434   2.694
 2691W        W 6742   6.621   2.673   0.645
 2692W        W 6743   6.716   3.056   2.963
 2693W        W 6744   7.157   8.947   2.641
 2694W        W 6745   6.548   8.347   1.398
 2695W        W 6746   4.785   2.902   8.707
 2696W        W 6747   8.489   6.068   0.211
 2697W        W 6748   3.814   9.875  10.728
 2698W        W 6749  10.425   1.550   1.353
 2699W        W 6750   2.368   6.062  10.500
 2700W        W 6751   0.314   4.502   8.902
 2701W        W 6752   8.435   7.136  11.665
 2702W        W 6753   1.473  10.056   1.890
 2703W        W 6754   5.627   1.463   9.408
 2704W        W 6755   3.729   0.849   9.470
 2705W        W 6756   9.805  11.278   1.373
 2706W        W 6757  10.559   2.642   9.613
 2707W        W 6758   8.113   0.501   0.865
 2708W        W 6759   8.727   3.110   3.540
 2709W        W 6760   9.937   2.358   1.328
 2710W        W 6761   7.623   9.824  10.281
 2711W        W 6762   3.314   0.702   2.320
 2712W        W 6763   6.081   1.793   1.874
 2713W        W 6764   3.261   7.874   3.268
 2714W        W 6765   5.046   9.150  10.274
 2715W        W 6766   2.424   5.167   9.044
 2716W        W 6767   7.778   5.556   3.982
 2717W        W 6768   4.089   5.741  10.418
 2718W        W 6769   2.224   4.660  10.806
 2719W        W 6770   0.587  10.230   9.405
 2720W        W 6771   8.177   6.796   9.059
 2721W        W 6772   6.091   9.595   9.244
 2722W        W 6773   5.868   3.892  10.270
 2723W        W 6774   8.988   8.194   2.747
 2724W        W 6775   0.189   6.034   2.668
 2725W        W 6776  11.145   8.828  10.517
 2726W        W 6777   5.426   0.363   1.895
 2727W        W 6778   0.427   7.849  10.494
 2728W        W 6779  10.888   9.637   3.637
 2729W        W 6780   0.444   3.872   1.810
 2730W        W 6781  11.339   9.864   9.842
 2731W        W 6782   0.713   5.523   1.470
 2732W        W 6783   0.521   8.433   9.579
 2733W        W 6784   0.625   1.911  10.655
 2734W        W 6785   7.193  10.060  10.095
 2735W        W 6786   4.550   5.817  10.156
 2736W        W 6787   7.848  10.890  10.159
 2737W        W 6788  10.074   6.579   3.293
 2738W        W 6789   7.400   0.823   1.105
 2739W        W 6790   5.579   5.154   9.725
 2740W        W 6791   9.920   3.992   2.570
 2741W        W 6792   5.605   8.472  10.466
 2742W        W 6793   8.509  10.163   1.852
 2743W        W 6794   5.210   4.947  11.133
 2744W        W 6795  10.938   8.207   9.036
 2745W        W 6796   7.486   3.478  11.912
 2746W        W 6797   7.140   5.153  10.853
 2747W        W 6798  11.329  10.268  11.526
 2748W        W 6799   0.971   1.164   1.861
 2749W        W 6800   2.218   6.457  10.917
 2750W        W 6801   5.211   4.122  10.786
 2751W        W 6802   8.895   2.339  10.495
 2752W        W 6803   2.917   7.151   2.236
 2753W        W 6804   7.806   3.091   0.102
 2754W        W 6805   8.094  11.355   0.426
 2755W        W 6806   7.529   1.206   9.489
 2756W        W 6807   4.322   8.278   2.023
 2757W        W 6808   2.625   6.719   1.394
 2758W        W 6809   6.474   3.184   1.408
 2759W        W 6810   2.407   4.708   8.827
 2760W        W 6811   7.092   9.911   0.000
 2761W        W 6812  11.137   5.711   0.728
 2762W        W 6813   5.942  10.081   1.866
 2763W        W 6814   9.593   7.965   2.364
 2764W        W 6815   5.239   4.758  10.207
 2765W        W 6816  10.042   1.344   9.022
 2766W        W 6817   5.592   0.389   0.003
 2767W        W 6818   4.827  10.370   0.342
 2768W        W 6819   7.606   8.155   1.096
 2769W        W 6820   2.230   6.126   0.341
 2770W        W 6821   2.837   9.025   1.936
 2771W        W 6822   2.227   0.473   1.519
 2772W        W 6823   2.118   4.648   2.391
 2773W        W 6824   4.031   2.041  11.897
 2774W        W 6825  10.551   1.210   2.705
 2775W        W 6826  10.215   5.101   9.086
 2776W        W 6827   7.741   4.498   2.818
 2777W        W 6828   2.134   5.064  11.227
 2778W        W 6829   3.946  10.681   0.352
 2779W        W 6830   8.638   7.862   3.212
 2780W        W 6831   2.913   9.615   1.243
 2781W        W 6832   5.641   1.212   2.510
 2782W        W 6833   7.683   4.672   8.491
 2783W        W 6834   2.547   4.229   9.459
 2784W        W 6835   7.018   7.579   0.806
 2785W        W 6836  10.289   4.551   0.975
 2786W        W 6837  10.382   8.676   2.306
 2787W        W 6838   4.622   2.759  11.871
 2788W        W 6839   6.504   2.191  10.224
 2789W        W 6840   8.320   3.159  11.965
 2790W        W 6841   8.185  10.524   8.885
 2791W        W 6842   5.786   9.827  10.918
 2792W        W 6843   8.525   9.157   0.261
 2793W        W 6844   5.298   2.302   1.741
 2794W        W 6845   8.501   4.618   1.364
 2795W        W 6846   5.541   8.930   2.368
 2796W        W 6847   5.893   1.194  10.794
 2797W        W 6848   9.758   4.498  11.204
 2798W        W 6849   6.530   0.594   2.720
 2799W        W 6850   2.930   3.246   1.309
 2800W        W 6851   7.195   9.348   3.422
 2801W        W 6852   3.223   6.266  10.258
 2802W        W 6853   5.076   6.478   1.807
 2803W        W 6854   4.469   7.967   9.345
 2804W        W 6855   5.691   7.486   9.454
 2805W        W 6856   9.428   3.379   9.769
 2806W        W 6857   9.534   1.224  11.330
 2807W        W 6858   3.735   4.620   2.628
 2808W        W 6859   5.485   3.682  10.528
 2809W        W 6860  10.111   7.637  11.767
 2810W        W 6861   0.793   6.918   1.760
 2811W        W 6862   0.424   7.930   0.743
 2812W        W 6863   5.670   0.762  11.493
 2813W        W 6864  11.031   8.233  10.205
 2814W        W 6865   9.883   0.227   2.268
 2815W        W 6866   9.830  11.322   9.038
 2816W        W 6867   8.617   9.286   1.915
 2817W        W 6868   7.172   1.884   8.800
 2818W        W 6869   4.701   9.080   8.957
 2819W        W 6870  10.103   4.688   9.400
 2820W        W 6871   1.365   4.175   1.472
 2821W        W 6872   7.119   0.368   3.411
 2822W        W 6873   2.428   1.011   2.197
 2823W        W 6874   1.434  11.421   3.425
 2824W        W 6875   2.960   7.068   8.120
 2825W        W 6876   8.498   0.204   9.026
 2826W        W 6877   0.632   5.790   9.069
 2827W        W 6878   9.981   9.808   8.776
 2828W        W 6879   6.614   1.257   2.434
 2829W        W 6880   4.547   1.818   9.063
 2830W        W 6881   0.278  11.283  11.627
 2831W        W 6882   9.025   6.851   0.385
 2832W        W 6883   6.273   9.010   0.764
 2833W        W 6884  10.655   7.020   2.201
 2834W        W 6885   8.990  10.014   1.956
 2835W        W 6886   3.701   0.628  11.147
 2836W        W 6887   7.868   1.651  11.938
 2837W        W 6888   3.105   1.125   2.541
 2838W        W 6889  11.391   1.275   8.803
 2839W        W 6890  10.240   6.154   2.702
 2840W        W 6891   0.455   3.550  11.138
 2841W        W 6892   8.591  10.125   3.931
 2842W        W 6893   5.224  10.628   1.901
 2843W        W 6894   6.617  10.934  11.519
 2844W        W 6895  10.913   6.838   2.654
 2845W        W 6896   7.495  10.499  11.817
 2846W        W 6897   5.620   6.122   9.367
 2847W        W 6898   1.796   6.028   2.740
 2848W        W 6899   2.401   7.065   2.312
 2849W        W 6900   0.247   9.921  11.575
 2850W        W 6901   2.248   3.866   2.793
 2851W        W 6902  11.450   8.494   3.286
 2852W        W 6903   7.129   6.440   9.639
 2853W        W 6904  10.457  10.576  11.537
 2854W        W 6905   1.072   7.449   2.221
 2855W        W 6906   3.971   3.694   2.184
 2856W        W 6907   8.962   6.352  10.478
 2857W        W 6908   6.568   8.536  11.664
 2858W        W 6909  10.442   1.930   2.283
 2859W        W 6910   1.290   3.341  10.338
 2860W        W 6911   6.044   7.151   2.230
 2861W        W 6912   4.527   3.936   9.499
 2862W        W 6913   0.856  10.716   1.969
 2863W        W 6914   0.399   8.845   0.461
 2864W        W 6915   3.778   2.169  10.085
 2865W        W 6916   7.105   0.413   9.962
 2866W        W 6917  11.100   3.793   1.968
 2867W        W 6918   7.124   0.355  11.004
 2868W        W 6919   7.559   6.688   3.830
 2869W        W 6920   9.628   7.818   0.033
 2870W        W 6921   5.029   8.199  11.164
 2871W        W 6922   4.900   7.996   2.538
 2872W        W 6923   1.567   5.984   8.568
 2873W        W 6924   6.116   9.642   2.053
 2874W        W 6925   1.745   4.152   1.839
 2875W        W 6926   1.062   7.359   8.580
 2876W        W 6927   5.349  10.291   0.408
 2877W        W 6928   0.509   9.944   0.025
 2878W        W 6929   8.351   8.647  11.953
 2879W        W 6930   8.696   5.633   3.106
 2880W        W 6931   5.581   4.717  11.440
 2881W        W 6932   0.757   1.871   0.456
 2882W        W 6933  10.134   4.246   0.408
 2883W        W 6934   6.635   1.909   0.554
 2884W        W 6935   5.333   7.396  11.395
 2885W        W 6936   5.478   9.147   9.474
 2886W        W 6937   5.604   0.763   3.276
 2887W        W 6938  10.368   4.229   2.504
 2888W        W 6939   2.071   8.785  10.849
 2889W        W 6940   6.068   7.081   1.325
 2890W        W 6941   4.805   3.832   3.690
 2891W        W 6942   5.919   2.381   2.704
 2892W        W 6943   9.343   3.770   9.072
 2893W        W 6944   1.697   4.648   2.041
 2894W        W 6945   4.774   2.270   9.101
 2895W        W 6946   2.178   6.631   1.142
 2896W        W 6947   0.031   7.535  10.577
 2897W        W 6948   3.936   9.315   2.859
 2898W        W 6949   1.978   4.144   2.351
 2899W        W 6950   5.116   2.307   4.046
 2900W        W 6951  10.080   2.200  10.054
 2901W        W 6952   3.450  10.259   2.148
 2902W        W 6953   3.749  10.832   3.185
 2903W        W 6954   7.047   9.134  10.564
 2904W        W 6955   7.989   2.804   2.264
 2905W        W 6956   7.081   3.810  10.803
 2906W        W 6957  10.865   2.619   0.236
 2907W        W 6958   7.174   9.578  10.347
 2908W        W 6959   2.330   9.993   2.337
 2909W        W 6960   4.073   6.493   2.028
 2910W        W 6961   7.592   4.730   1.866
 2911W        W 6962   0.395   1.374   9.008
 2912W        W 6963   0.893   3.719   2.022
 2913W        W 6964  11.339   6.255   2.348
 2914W        W 6965   6.781   8.921   2.234
 2915W        W 6966   2.097   0.723  10.848
 2916W        W 6967   2.909   4.680   8.696
 2917W        W 6968  11.052  10.394   9.803
 2918W        W 6969   7.576   3.608   9.944
 2919W        W 6970   0.710   3.113  11.903
 2920W        W 6971   7.540  10.260   3.143
 2921W        W 6972   4.210   3.381   1.766
 2922W        W 6973  10.879   9.470   9.973
 2923W        W 6974   9.553   8.359   3.155
 2924W        W 6975  11.033   4.521   8.884
 2925W        W 6976   8.340   9.498   1.017
 2926W        W 6977   0.964   0.145   9.710
 2927W        W 6978   9.051   4.757   0.278
 2928W        W 6979   6.725   3.807   1.437
 2929W        W 6980   5.178   5.984   1.908
 2930W        W 6981   0.902   3.085   3.105
 2931W        W 6982  10.387   5.683   8.458
 2932W        W 6983   0.999   7.943   0.100
 2933W        W 6984   7.557   3.648  10.964
 2934W        W 6985  11.248   0.252  10.539
 2935W        W 6986   1.933   8.387   2.660
 2936W        W 6987   1.817   3.687   1.584
 2937W        W 6988   8.430   4.781   0.026
 2938W        W 6989   4.758  11.202  11.149
 2939W        W 6990   0.935   3.151   1.492
 2940W        W 6991   7.315   9.945   2.772
 2941W        W 6992   6.908   4.143  11.513
 2942W        W 6993   3.306   2.726   9.617
 2943W        W 6994   1.120   1.926  10.849
 2944W        W 6995   0.646   9.322   9.494
 2945W        W 6996   1.810   8.306   0.345
 2946W        W 6997   7.397   4.851   1.407
 2947W        W 6998   5.422   7.046  11.771
 2948W        W 6999   4.697   3.467   1.321
 2949W        W 7000   0.797   5.095  10.444
 2950W        W 7001   9.930   3.237   3.348
 2951W        W 7002   1.745   8.143   9.379
 2952W        W 7003   3.018   4.819   3.391
 2953W        W 7004   9.703   1.982   0.711
 2954W        W 7005   0.753  10.105   0.890
 2955W        W 7006   2.749   8.364   9.630
 2956W        W 7007   3.769   7.971   9.963
 2957W        W 7008   8.719   3.019   2.718
 2958W        W 7009  10.591   8.187   9.940
 2959W        W 7010   0.345   1.946   3.208
 2960W        W 7011   1.716   9.964   9.818
 2961W        W 7012   2.667   4.751   3.815
 2962W        W 7013   9.924   9.932   9.860
 2963W        W 7014   0.023   0.191   1.371
 2964W        W 7015   6.638   4.538   1.943
 2965W        W 7016   1.710   0.002  11.542
 2966W        W 7017   5.010   4.331   9.476
 2967W        W 7018   5.226   8.934   3.530
 2968W        W 7019   8.228   3.057   3.613
 2969W        W 7020   7.692   6.571   8.961
 2970W        W 7021   7.173   7.582   2.762
 2971W        W 7022  10.250  10.421   2.718
 2972W        W 7023   7.170   4.231  11.052
 2973W        W 7024   9.747   3.696   3.503
 2974W        W 7025   2.758   0.752   1.661
 2975W        W 7026   8.625   9.060   0.787
 2976W        W 7027   5.021   3.167   1.810
 2977W        W 7028   3.104   0.739   1.265
 2978W        W 7029   4.831  10.691  11.223
 2979W        W 7030   2.136   5.242   4.278
 2980W        W 7031   7.114   0.495   0.802
 2981W        W 7032   2.804   6.114  11.496
 2982W        W 7033   2.123   0.748   9.970
 2983W        W 7034   1.820   9.980   8.883
 2984W        W 7035  10.723   8.609  10.366
 2985W        W 7036   0.519   5.014   8.377
 2986W        W 7037   4.153   2.661   9.520
 2987W        W 7038   7.174   6.380   3.979
 2988W        W 7039   7.491   9.080   1.640
 2989W        W 7040   3.217   6.579  10.741
 2990W        W 7041   1.001   4.428  11.206
 2991W        W 7042   2.257   3.751  10.246
 2992W        W 7043  11.287  10.922   3.291
 2993W        W 7044   9.848  10.916   3.274
 2994W        W 7045   5.955   0.926  10.326
 2995W        W 7046   1.266   7.666   0.867
 2996W        W 7047   6.896   7.018   1.565
 2997W        W 7048  10.785   6.061  10.332
 2998W        W 7049   8.666   0.447   9.460
 2999W        W 7050   4.732   4.783  10.994
 3000W        W 7051   9.630   3.584   1.708
 3001W        W 7052   9.404   6.443   2.089
 3002W        W 7053   5.742   9.926   2.363
 3003W        W 7054   8.472   7.815  10.977
 3004W        W 7055   4.684   3.638   0.527
 3005W        W 7056   3.630   3.495  10.412
 3006W        W 7057   9.143   2.780  10.351
 3007W        W 7058   4.257   7.780   0.393
 3008W        W 7059   0.679   1.572   9.511
 3009W        W 7060  10.456   0.406   0.528
 3010W        W 7061   0.284   5.885   9.459
 3011W        W 7062   1.107   8.246   8.888
 3012W        W 7063   9.077   1.727  11.429
 3013W        W 7064   8.924   9.097   1.511
 3014W        W 7065   4.604   0.242   0.908
 3015W        W 7066   1.346   3.721   0.202
 3016W        W 7067   9.272   5.649   3.264
 3017W        W 7068   8.418   9.014   9.869
 3018W        W 7069   4.010   7.449   0.729
 3019W        W 7070   9.035   2.248   1.169
 3020W        W 7071   8.394   4.366   2.242
 3021W        W 7072   6.027  10.490   0.663
 3022W        W 7073  11.277   1.773   1.619
 3023W        W 7074   7.110   4.832   2.119
 3024W        W 7075   2.143   4.264   3.199
 3025W        W 7076   3.282  10.826  10.374
 3026W        W 7077   0.860   5.344  11.370
 3027W        W 7078   5.535   2.796  10.006
 3028W        W 7079   1.800   1.595   3.081
 3029W        W 7080   4.469   7.582   0.906
 3030W        W 7081   1.753   6.037   9.389
 3031W        W 7082   4.190   7.566  11.867
 3032W        W 7083  11.118   9.191   3.390
 3033W        W 7084   4.015   6.671  10.375
 3034W        W 7085   6.185   7.919   2.643
 3035W        W 7086   5.419   1.889   8.530
 3036W        W 7087   0.583   3.379   1.780
 3037W        W 7088   3.522   1.271   3.336
 3038W        W 7089  11.029   1.045   2.538
 3039W        W 7090   4.661   8.106   0.241
 3040W        W 7091   7.452   4.013   9.678
 3041W        W 7092   7.094   6.742   3.593
 3042W        W 7093   8.700   6.468   3.153
 3043W        W 7094   5.968   5.966   0.404
 3044W        W 7095  10.436  10.782   1.860
 3045W        W 7096   4.792   1.983  11.517
 3046W        W 7097   1.474  10.333   9.096
 3047W        W 7098   8.044   3.269   1.589
 3048W        W 7099   6.322  10.715   2.322
 3049W        W 7100   5.502   8.375   9.109
 3050W        W 7101   3.221   9.697   4.164
 3051W        W 7102   2.124   5.567   3.887
 3052W        W 7103   3.979  11.024   1.205
 3053W        W 7104   7.024   3.233   0.071
 3054W        W 7105   7.869   0.757  10.068
 3055W        W 7106  10.143  10.303   8.663
 3056W        W 7107   0.011   4.100   1.998
 3057W        W 7108  10.086   3.441   2.889
 3058W        W 7109   6.756   7.338  11.919
 3059W        W 7110   2.624   0.877   9.043
 3060W        W 7111   2.585   9.618   2.605
 3061W        W 7112   0.851   6.804   2.770
 3062W        W 7113   1.405   1.241  11.937
 3063W        W 7114  11.355   1.317  11.539
 3064W        W 7115   2.035   4.866   9.834
 3065W        W 7116   3.242   5.082   8.685
 3066W        W 7117   5.061   3.906  10.332
 3067W        W 7118   1.166   1.230   1.372
 3068W        W 7119   9.963   2.270   9.079
 3069W        W 7120   7.495   4.974   9.655
 3070W        W 7121   8.965   9.145   3.025
 3071W        W 7122   2.222   9.979   9.854
 3072W        W 7123   4.587  11.093   2.308
 3073W        W 7124   6.679   7.806   0.089
 3074W        W 7125   1.719   8.685  11.395
 3075W        W 7126   8.595  10.705   1.952
 3076W        W 7127   9.974   1.477   1.625
 3077W        W 7128   7.873   3.678   2.390
 3078W        W 7129  10.851   3.088   0.018
 3079W        W 7130   1.591   7.417   3.446
 3080W        W 7131   7.560   6.563   2.425
 3081W        W 7132   9.594   6.595   3.086
 3082W        W 7133   8.423   0.642   1.713
 3083W        W 7134   8.345   0.119  10.366
 3084W        W 7135  11.409   8.084   8.799
 3085W        W 7136   3.061   7.052   2.912
 3086W        W 7137   9.939   0.952   2.978
 3087W        W 7138   2.118   1.282  10.005
 3088W        W 7139   1.631   4.510   2.526
 3089W        W 7140   3.745  10.056   9.789
 3090W        W 7141   0.728  10.559   0.595
 3091W        W 7142   5.171  11.051   3.459
 3092W        W 7143   0.061   8.535   1.771
 3093W        W 7144   7.990   1.951   1.229
 3094W        W 7145   1.192   3.227   0.063
 3095W        W 7146   7.571  11.485   0.655
 3096W        W 7147  11.210   2.237   1.356
 3097W        W 7148   6.786   8.647  10.716
 3098W        W 7149   3.803   3.719   0.731
 3099W        W 7150   8.712   1.387   9.266
 3100W        W 7151  10.970   5.092   3.284
 3101W        W 7152   9.379   8.403  10.970
 3102W        W 7153   4.768   1.670   2.850
 3103W        W 7154   6.339   7.260   3.544
 3104W        W 7155   5.989   6.225   2.209
 3105W        W 7156   0.303   8.793   8.783
 3106W        W 7157   2.954  10.922  10.781
 3107W        W 7158   6.856   2.338   0.335
 3108W        W 7159  11.283   0.818   3.678
 3109W        W 7160   4.067   7.063  11.690
 3110W        W 7161   9.754   1.444  11.988
 3111W        W 7162   1.483   7.797   3.098
 3112W        W 7163   3.867   2.740  10.856
 3113W        W 7164   3.313   4.733   9.064
 3114W        W 7165   2.272  10.450   3.079
 3115W        W 7166   5.535   3.564   3.907
 3116W        W 7167   9.487   3.334   9.270
 3117W        W 7168   6.197  10.714   8.967
 3118W        W 7169   1.338   3.594   2.321
 3119W        W 7170   1.015   3.214   9.175
 3120W        W 7171   6.271   8.782  10.832
 3121W        W 7172   5.491   5.562  11.413
 3122W        W 7173   1.817   2.757   2.265
 3123W        W 7174   1.016   8.462   0.725
 3124W        W 7175   3.843   9.472   2.401
 3125W        W 7176   5.198   2.552  10.283
 3126W        W 7177  10.633   4.416   0.256
 3127W        W 7178   3.993   4.921   8.208
 3128W        W 7179   2.788   4.615   9.193
 3129W        W 7180   1.646   5.165  10.320
 3130W        W 7181   8.889   9.609  11.901
 3131W        W 7182   9.987   0.772  10.568
 3132W        W 7183   2.895  10.903   2.665
 3133W        W 7184   8.904  11.002  10.878
 3134W        W 7185   7.108   8.440   2.856
 3135W        W 7186   4.362   8.035   1.365
 3136W        W 7187   4.211   9.784   2.253
 3137W        W 7188   0.962   9.342   9.933
 3138W        W 7189   1.212   8.779   8.830
 3139W        W 7190   9.848   3.613   9.945
 3140W        W 7191   4.202   3.590   9.238
 3141W        W 7192   9.372   9.982  10.369
 3142W        W 7193   8.843   9.403   8.687
 3143W        W 7194   7.666   8.126   2.524
 3144W        W 7195   1.351   8.378   1.488
 3145W        W 7196   8.641   2.623  11.041
 3146W        W 7197  11.335   9.347   1.281
 3147W        W 7198  10.713   6.080   0.943
 3148W        W 7199   1.900   7.907  10.533
 3149W        W 7200   1.939   0.849   2.083
 3150W        W 7201  10.357   9.399   2.757
 3151W        W 7202   2.768  11.289   9.339
 3152W        W 7203   4.181   0.922  11.835
 3153W        W 7204  10.243   8.601   0.994
 3154W        W 7205   6.642   7.667   2.768
 3155W        W 7206   3.588   0.481   1.320
 3156W        W 7207  10.736   4.824  11.239
 3157W        W 7208   3.178   6.412   0.295
 3158W        W 7209   6.712  11.418  11.340
 3159W        W 7210   1.136   1.620   8.423
 3160W        W 7211   3.825   8.799  11.444
 3161W        W 7212  10.446   4.731   1.436
 3162W        W 7213   5.401   6.529  11.807
 3163W        W 7214   5.166   0.757  11.268
 3164W        W 7215   1.304  11.045   0.373
 3165W        W 7216   3.199   3.872   1.365
 3166W        W 7217  11.282   5.781   8.721
 3167W        W 7218  10.456   3.155   9.033
 3168W        W 7219   1.350   0.121   2.956
 3169W        W 7220   6.289   7.673   3.143
 3170W        W 7221   7.866   4.156   0.714
 3171W        W 7222   6.734   3.668   3.282
 3172W        W 7223   3.861   6.576  11.799
 3173W        W 7224  10.678   5.662  11.439
 3174W        W 7225   4.748   9.914   9.707
 3175W        W 7226   4.046   0.916   1.212
 3176W        W 7227   9.531   4.389   3.230
 3177W        W 7228   8.513   8.693  10.559
 3178W        W 7229   0.076   8.992  10.256
 3179W        W 7230   0.749   6.371   0.873
 3180W        W 7231   4.287   9.036   3.108
 3181W        W 7232   6.277   0.129   0.515
 3182W        W 7233   5.869   3.339   3.042
 3183W        W 7234   2.209   5.289   2.953
 3184W        W 7235   6.455   5.872  10.538
 3185W        W 7236  10.382   7.156  10.043
 3186W        W 7237   9.820   5.757   0.511
 3187W        W 7238   3.532   8.467   0.640
 3188W        W 7239   8.357  10.023   0.696
 3189W        W 7240   9.186   6.499   3.368
 3190W        W 7241   9.265   8.111   8.588
 3191W        W 7242   1.983   2.709   0.208
 3192W        W 7243   1.663  10.021  10.328
 3193W        W 7244   4.476  10.926   1.259
 3194W        W 7245   6.225   5.728  10.089
 3195W        W 7246  10.552   3.685  11.799
 3196W        W 7247   9.999   1.823   8.770
 3197W        W 7248   9.972   6.155   3.564
 3198W        W 7249   6.965   1.323  10.965
 3199W        W 7250   0.334   2.944   3.475
 3200W        W 7251   8.499   5.827   0.683
 3201W        W 7252   8.873   5.455   1.457
 3202W        W 7253   3.315   2.719  10.178
 3203W        W 7254   4.650   6.724   9.132
 3204W        W 7255   8.477   7.461   9.786
 3205W        W 7256   3.690  10.179   8.973
 3206W        W 7257  10.678   9.502   9.337
 3207W        W 7258  11.327   8.367   0.254
 3208W        W 7259  10.896   7.010  10.324
 3209W        W 7260   3.577   1.370  11.174
 3210W        W 7261   2.094   4.504   3.655
 3211W        W 7262   3.142  10.362  11.144
 3212W        W 7263  11.236   9.381   0.205
 3213W        W 7264   8.055   7.957   0.313
 3214W        W 7265   5.795   0.553  10.654
 3215W        W 7266   0.436   8.159   1.195
 3216W        W 7267   1.272   4.337   1.936
 3217W        W 7268   2.054   5.125   8.108
 3218W        W 7269   4.021   7.929   2.340
 3219W        W 7270   7.004  10.821   1.714
 3220W        W 7271   9.431   9.854   1.724
 3221W        W 7272   3.419   4.332   2.357
 3222W        W 7273   1.650   0.548   9.102
 3223W        W 7274   0.300   3.432   8.867
 3224W        W 7275   8.069   7.671   9.997
 3225W        W 7276   9.206   1.451  11.015
 3226W        W 7277   0.766   1.247   1.016
 3227W        W 7278   3.776  11.032   2.569
 3228W        W 7279   7.365   2.439  11.330
 3229W        W 7280   4.116   4.683   2.301
 3230W        W 7281   2.813  10.335   3.350
 3231W        W 7282  10.953   9.643   1.118
 3232W        W 7283   3.091  10.441  10.645
 3233W        W 7284   5.813   1.713   2.421
 3234W        W 7285   2.841  10.089   1.026
 3235W        W 7286   9.813   4.825   3.224
 3236W        W 7287  10.864  11.295   2.640
 3237W        W 7288   6.715   1.262  11.439
 3238W        W 7289  11.029  10.354   2.307
 3239W        W 7290   1.007  11.274  10.456
 3240W        W 7291   9.302  11.262   1.373
 3241W        W 7292   0.926   6.989  11.376
 3242W        W 7293   9.340   1.931  10.548
 3243W        W 7294   5.452   1.412  10.968
 3244W        W 7295   1.686   2.022   2.817
 3245W        W 7296   7.808  10.103   2.753
 3246W        W 7297   3.248   7.289   9.068
 3247W        W 7298   4.849   8.228   2.083
 3248W        W 7299   2.797  10.599   1.015
 3249W        W 7300   8.649   2.129   1.836
 3250W        W 7301   5.698   5.116  11.077
 3251W        W 7302   0.663   3.306   0.987
 3252W        W 7303   6.571   1.240   1.932
 3253W        W 7304   0.792   4.022   9.484
 3254W        W 7305   6.983   9.994  10.561
 3255W        W 7306  10.877   8.578   2.223
 3256W        W 7307   3.606   7.546  10.773
 3257W        W 7308   0.276   2.626   0.562
 3258W        W 7309   8.998   1.886   1.520
 3259W        W 7310   0.469   9.484   9.941
 3260W        W 7311   0.702   5.794  11.587
 3261W        W 7312   1.453   1.964   0.283
 3262W        W 7313   9.505   2.869   0.007
 3263W        W 7314   4.883   9.556   1.449
 3264W        W 7315   2.497   7.565  10.223
 3265W        W 7316   6.544   6.710  10.773
 3266W        W 7317   0.384   4.801   9.349
 3267W        W 7318   8.939  10.010  10.643
 3268W        W 7319   2.882   7.188   1.405
 3269W        W 7320   7.075   3.593   1.766
 3270W        W 7321   0.988   0.969  11.792
 3271W        W 7322   9.965   1.278  11.578
 3272W        W 7323   1.685   5.698  10.831
 3273W        W 7324   5.416  11.311  10.345
 3274W        W 7325  10.549   4.614   9.118
 3275W        W 7326   0.312   7.160  10.800
 3276W        W 7327   5.437  10.394   9.777
 3277W        W 7328   1.398   0.810  11.524
 3278W        W 7329   9.844   9.352  10.122
 3279W        W 7330   2.678   2.644   9.152
 3280W        W 7331   4.971   5.359  11.319
 3281W        W 7332   1.696   4.771  11.895
 3282W        W 7333   8.895   2.917   0.796
 3283W        W 7334   4.523   7.855   2.206
 3284W        W 7335  11.495   0.765   1.421
 3285W        W 7336   6.704   7.975  10.485
 3286W        W 7337  11.269   1.573   9.788
 3287W        W 7338   4.860   9.361   9.856
 3288W        W 7339   1.812   8.988   2.764
 3289W        W 7340   8.221   8.511   1.400
 3290W        W 7341   4.140   4.705   1.296
 3291W        W 7342   0.830   9.795   9.540
 3292W        W 7343   0.925   6.428   2.419
 3293W        W 7344  10.353   8.358   2.774
 3294W        W 7345  10.934   5.701   1.209
 3295W        W 7346  10.100   5.232   2.200
 3296W        W 7347   5.776   1.174   3.015
 3297W        W 7348   9.576   8.874  11.825
 3298W        W 7349   1.211   6.711   9.222
 3299W        W 7350   5.209   5.089   0.986
 3300W        W 7351   1.307   2.399   3.448
 3301W        W 7352   5.317   2.552   2.795
 3302W        W 7353   2.284   4.790   0.674
 3303W        W 7354   1.970  10.872  10.760
 3304W        W 7355   2.215  11.264   0.742
 3305W        W 7356   0.293   9.018   9.763
 3306W        W 7357   1.213  11.262   9.987
 3307W        W 7358  11.224   6.306   8.866
 3308W        W 7359   3.617   1.772   3.205
 3309W        W 7360   3.229   8.487   9.402
 3310W        W 7361   0.074   2.940   9.510
 3311W        W 7362   6.410   3.335   0.330
 3312W        W 7363   5.042  10.854   2.433
 3313W        W 7364   2.815   0.238   9.587
 3314W        W 7365   0.817   5.813   0.083
 3315W        W 7366   2.013   7.989  11.040
 3316W        W 7367   8.818   0.785   9.819
 3317W        W 7368   2.309   1.429   2.841
 3318W        W 7369   9.504   7.141   0.348
 3319W        W 7370   7.436   8.920   8.391
 3320W        W 7371   0.077  10.536   1.898
 3321W        W 7372   1.794  10.305  10.781
 3322W        W 7373   0.784   7.315  10.988
 3323W        W 7374   8.175   4.245   2.683
 3324W        W 7375   0.417   2.623   2.487
 3325W        W 7376   8.275   6.683  11.881
 3326W        W 7377   6.932   2.709   1.758
 3327W        W 7378   5.723   5.615  10.947
 3328W        W 7379  11.259   0.725   8.840
 3329W        W 7380   4.768   7.971   9.776
 3330W        W 7381   4.380  10.856  11.105
 3331W        W 7382   3.224   0.947   9.596
 3332W        W 7383   2.443   2.816   0.048
 3333W        W 7384  10.418   3.133   9.544
 3334W        W 7385   3.402   4.663  11.632
 3335W        W 7386   3.948   8.789  10.951
 3336W        W 7387   2.684   7.285   2.669
 3337W        W 7388   3.547   5.528   8.735
 3338W        W 7389   9.466   8.020   9.081
 3339W        W 7390   8.032   0.835  10.861
 3340W        W 7391   8.234  10.489  10.340
 3341W        W 7392   5.145  11.461   8.978
 3342W        W 7393   9.105  10.894  10.411
 3343W        W 7394  10.807   7.945  11.205
 3344W        W 7395   0.722   2.584   9.792
 3345W        W 7396   1.881  10.541   1.309
 3346W        W 7397  10.953   4.505   3.666
 3347W        W 7398  11.381   3.067   3.207
 3348W        W 7399   2.421   7.166   8.989
 3349W        W 7400   6.498   4.297   9.585
 3350W        W 7401   1.893   3.828   0.860
 3351W        W 7402   9.528   4.569   1.394
 3352W        W 7403   7.936   9.812  11.775
 3353W        W 7404   7.534   7.722   0.459
 3354W        W 7405   5.028   6.494   0.260
 3355W        W 7406   6.416   4.117   8.641
 3356W        W 7407  10.240   9.075  10.367
 3357W        W 7408  11.290   6.543   0.310
 3358W        W 7409   6.514  10.933  10.339
 3359W        W 7410   5.065  11.339  10.756
 3360W        W 7411   4.749   4.125   9.919
 3361W        W 7412   4.647   9.212   1.794
 3362W        W 7413   8.862   6.580   0.802
 3363W        W 7414   2.497   3.217  11.722
 3364W        W 7415   8.767   8.002   9.480
 3365W        W 7416   6.475   2.724   8.886
 3366W        W 7417   3.733   5.694  10.820
 3367W        W 7418   3.185   1.417   9.795
 3368W        W 7419  10.119   7.912   2.375
 3369W        W 7420   9.872   7.022   3.121
 3370W        W 7421   7.430   5.736   1.780
 3371W        W 7422   2.682  10.435  10.942
 3372W        W 7423   2.187  10.482  11.066
 3373W        W 7424   5.182  10.208  11.936
 3374W        W 7425   8.998   6.579   2.424
 3375W        W 7426   1.975   8.927   3.634
 3376W        W 7427   9.556   2.652  11.546
 3377W        W 7428  11.452  10.270  10.115
 3378W        W 7429   3.101   1.870   3.043
 3379W        W 7430   4.914   5.698  10.527
 3380W        W 7431   4.675   3.424   9.473
 3381W        W 7432   8.044   1.072  11.323
 3382W        W 7433   0.794   9.291  11.381
 3383W        W 7434   7.379   3.605   2.665
 3384W        W 7435   1.656   6.718   8.915
 3385W        W 7436   3.779   9.785  11.251
 3386W        W 7437   5.267   0.672   9.376
 3387W        W 7438   5.657   5.022   9.227
 3388W        W 7439   7.523   9.441   9.512
 3389W        W 7440   3.027  10.370   1.864
 3390W        W 7441   9.781   0.463  10.909
 3391W        W 7442   3.712   3.380   2.708
 3392W        W 7443   8.191   5.846   9.435
 3393W        W 7444   6.931   6.416  10.967
 3394W        W 7445   2.561   8.795  11.946
 3395W        W 7446   3.726   5.055   8.850
 3396W        W 7447   2.271   1.385   0.492
 3397W        W 7448  11.105   0.867   1.762
 3398W        W 7449   7.953   0.783   0.471
 3399W        W 7450   9.446   5.520   0.259
 3400W        W 7451   5.752   7.677  11.475
 3401W        W 7452   6.848   9.452   8.051
 3402W        W 7453   4.471   8.123   0.745
 3403W        W 7454   8.856   6.184   2.740
 3404W        W 7455   0.439   4.526   0.148
 3405W        W 7456   6.279  10.253   9.244
 3406W        W 7457   8.431   7.057   2.557
 3407W        W 7458   2.666   9.218  10.406
 3408W        W 7459   1.919   7.075  10.251
 3409W        W 7460   3.593   3.842   2.498
 3410W        W 7461   3.373   5.444   0.462
 3411W        W 7462   6.072   5.412   1.927
 3412W        W 7463   3.913   0.885   1.697
 3413W        W 7464   7.389   2.160   3.453
 3414W        W 7465   5.748  10.926  10.972
 3415W        W 7466  11.386   8.122   9.827
 3416W        W 7467   0.702   5.985   2.611
 3417W        W 7468   5.782   8.487   2.321
 3418W        W 7469   0.593   3.391   2.284
 3419W        W 7470   7.460   3.341  11.388
 3420W        W 7471   6.023  11.467   3.151
 3421W        W 7472   5.194   1.211  10.584
 3422W        W 7473   7.426   8.520   0.275
 3423W        W 7474   1.828  10.071   1.029
 3424W        W 7475   3.772   7.030   3.249
 3425W        W 7476  11.129   8.477   1.193
 3426W        W 7477   4.626   6.210  11.753
 3427W        W 7478   1.666   4.314   0.834
 3428W        W 7479   8.016   4.613   1.175
 3429W        W 7480   6.803   4.031   2.702
 3430W        W 7481   9.058   3.238   1.426
 3431W        W 7482  10.674   7.987  10.707
 3432W        W 7483   0.122   1.065   9.937
 3433W        W 7484   9.222  10.263   9.040
 3434W        W 7485   7.953   8.226   9.283
 3435W        W 7486   8.026   0.937   1.813
 3436W        W 7487   6.162   6.768   3.104
 3437W        W 7488   4.525   1.270   0.878
 3438W        W 7489  11.433  10.767  10.005
 3439W        W 7490  11.302   6.508   2.800
 3440W        W 7491   4.533   1.600   8.569
 3441W        W 7492   2.293   3.870   9.165
 3442W        W 7493   8.948   9.896  11.483
 3443W        W 7494   1.907   5.917   0.691
 3444W        W 7495   2.930   9.047   0.333
 3445W        W 7496   2.318   1.043   9.566
 3446W        W 7497   5.042   0.791   1.185
 3447W        W 7498   9.290   1.336   1.161
 3448W        W 7499   8.347  10.887  10.920
 3449W        W 7500   0.309   5.741   0.074
 3450W        W 7501   6.675   4.221  10.945
 3451W        W 7502   2.356  11.372   1.426
 3452W        W 7503   3.711   1.402  10.667
 3453W        W 7504   3.965   1.485   3.506
 3454W        W 7505   8.913   9.951  10.098
 3455W        W 7506   7.146   2.385   8.647
 3456W        W 7507   0.994   2.673   9.344
 3457W        W 7508   9.375   4.415   8.543
 3458W        W 7509   3.784   1.279   9.141
 3459W        W 7510   4.670   3.339   3.638
 3460W        W 7511   8.446  10.337   9.451
 3461W        W 7512   0.715   7.121   3.146
 3462W        W 7513   4.485   0.124  11.027
 3463W        W 7514   4.358   6.623   2.456
 3464W        W 7515   5.603   8.034   1.408
 3465W        W 7516   4.979   3.920   3.209
 3466W        W 7517   6.235  10.200   2.263
 3467W        W 7518   5.638   3.072   1.277
 3468W        W 7519   0.403   2.119   2.456
 3469W        W 7520  10.864   2.130   0.398
 3470W        W 7521   6.971   6.492   1.627
 3471W        W 7522   4.642   0.943  10.612
 3472W        W 7523   5.206   2.079  10.039
 3473W        W 7524   8.091   7.858  11.318
 3474W        W 7525   6.400   7.677   4.063
 3475W        W 7526   8.131   6.181  11.859
 3476W        W 7527   8.790   4.760   3.488
 3477W        W 7528   1.887   1.692   0.348
 3478W        W 7529  11.196   3.340   1.807
 3479W        W 7530  11.036  10.857   9.009
 3480W        W 7531   3.707   7.913   1.442
 3481W        W 7532   9.170   1.689   2.448
 3482W        W 7533   0.261   1.875   9.426
 3483W        W 7534   0.379  10.873  11.271
 3484W        W 7535   5.544  10.674   0.656
 3485W        W 7536   8.814   4.065   2.169
 3486W        W 7537   2.047   6.125   8.439
 3487W        W 7538   9.588   1.480   8.760
 3488W        W 7539   0.536   5.561   2.874
 3489W        W 7540   2.431  10.878   2.331
 3490W        W 7541   8.781   5.817   1.838
 3491W        W 7542  10.490   4.638   2.802
 3492W        W 7543   1.349   6.127   2.476
 3493W        W 7544  10.374   1.344   9.904
 3494W        W 7545   7.599   8.066   0.110
 3495W        W 7546   6.568   8.976  10.378
 3496W        W 7547   8.011   7.724   9.148
 3497W        W 7548  10.387   9.847   9.611
 3498W        W 7549   6.470   1.932   9.784
 3499W        W 7550   8.934   0.810   2.965
 3500W        W 7551   7.164   2.087  10.027
 3501W        W 7552   8.292   0.216   8.531
 3502W        W 7553   3.241   7.038   9.993
 3503W        W 7554   0.975   3.748  10.391
 3504W        W 7555   5.763   6.533   8.613
 3505W        W 7556   8.956   6.043   3.224
 3506W        W 7557   6.526   6.690   0.688
 3507W        W 7558   9.367   4.375   0.957
 3508W        W 7559   6.699   0.399   0.490
 3509W        W 7560   2.397   3.711   0.854
 3510W        W 7561  11.447   0.416  11.646
 3511W        W 7562   7.631   7.544   1.766
 3512W        W 7563   1.653   1.341  10.356
 3513W        W 7564  11.053   9.445  10.869
 3514W        W 7565   6.405   9.839   8.901
 3515W        W 7566   4.180  10.501   1.038
 3516W        W 7567   2.738  10.461  11.950
 3517W        W 7568   5.614   2.183   3.077
 3518W        W 7569   5.640   0.677   0.997
 3519W        W 7570   5.312   1.360   3.071
 3520W        W 7571   3.292   8.040  10.715
 3521W        W 7572   4.334   5.079  10.809
 3522W        W 7573   2.245   2.352   3.382
 3523W        W 7574   7.278   4.565   3.532
 3524W        W 7575   1.946   9.864   0.262
 3525W        W 7576   6.075   3.688   9.151
 3526W        W 7577   7.234   7.499  11.786
 3527W        W 7578   3.725   2.598   0.273
 3528W        W 7579   5.991   8.236   3.534
 3529W        W 7580   9.466   0.502   0.980
 3530W        W 7581   5.674   3.133   3.574
 3531W        W 7582   9.450   7.031  10.213
 3532W        W 7583   3.765   4.106   9.686
 3533W        W 7584   1.708   3.077   0.436
 3534W        W 7585   3.339   6.007   8.704
 3535W        W 7586  10.724   9.045   2.430
 3536W        W 7587   1.948   1.657  10.619
 3537W        W 7588  11.332  10.425   8.994
 3538W        W 7589   4.381   4.432  10.330
 3539W        W 7590   3.355   2.850  11.562
 3540W        W 7591   4.092   7.433  11.335
 3541W        W 7592   3.831   4.481  10.044
 3542W        W 7593   1.634   0.419  11.273
 3543W        W 7594   4.821  11.337   1.331
 3544W        W 7595   9.292   9.104   8.473
 3545W        W 7596   1.981   2.047   8.793
 3546W        W 7597   3.023   4.089   0.823
 3547W        W 7598   2.858   3.658   1.034
 3548W        W 7599   6.141   9.912   2.680
 3549W        W 7600   2.155  10.840   9.177
 3550W        W 7601  10.874   6.984   9.473
 3551W        W 7602   5.215   8.521   9.519
 3552W        W 7603  11.147   3.797  10.490
 3553W        W 7604  11.178   8.296  11.209
 3554W        W 7605   0.241   7.541  11.990
 3555W        W 7606   0.385   8.109  10.023
 3556W        W 7607   4.313   5.120   2.091
 3557W        W 7608   6.087   3.650  11.914
 3558W        W 7609   6.567   2.086  11.534
 3559W        W 7610   7.173   3.177   2.486
 3560W        W 7611  10.025   4.383   1.551
 3561W        W 7612  10.218   6.569   0.441
 3562W        W 7613   8.494   3.818  11.940
 3563W        W 7614   4.927   8.412   0.854
 3564W        W 7615   9.971   1.329  11.066
 3565W        W 7616   3.531   6.199  11.995
 3566W        W 7617   2.577   7.075   3.122
 3567W        W 7618   1.503   1.245   8.383
 3568W        W 7619   0.405   5.563   1.044
 3569W        W 7620   5.986   8.384   0.755
 3570W        W 7621  10.327   4.738   2.320
 3571W        W 7622   7.706   6.668   1.601
 3572W        W 7623   6.449   8.581   3.591
 3573W        W 7624   1.710   8.356   0.908
 3574W        W 7625   0.608   7.032   8.629
 3575W        W 7626   1.378   1.399   8.846
 3576W        W 7627   9.548   6.101   8.531
 3577W        W 7628  11.370   1.547   9.263
 3578W        W 7629   5.843   5.052   2.684
 3579W        W 7630   7.596  11.457   0.153
 3580W        W 7631   1.415  10.751   1.317
 3581W        W 7632   7.949   1.500   1.003
 3582W        W 7633   2.362  10.439   3.574
 3583W        W 7634   0.415   8.499   3.533
 3584W        W 7635  11.177  11.341   8.802
 3585W        W 7636   6.141   7.649   2.184
 3586W        W 7637  11.031   2.297   0.868
 3587W        W 7638   9.488  11.198   1.836
 3588W        W 7639   9.664   6.664   3.599
 3589W        W 7640   3.357   0.432   0.489
 3590W        W 7641   6.596   5.304   1.362
 3591W        W 7642  10.146   6.931   2.248
 3592W        W 7643   6.758   1.190  10.060
 3593W        W 7644   4.479   9.540   8.916
 3594W        W 7645   3.266   0.039   3.426
 3595W        W 7646   2.861   6.718   0.548
 3596W        W 7647   1.290   1.609   2.271
 3597W        W 7648   0.820   7.106   9.989
 3598W        W 7649   2.963   7.035  10.792
 3599W        W 7650   3.801   2.590  11.356
 3600W        W 7651   8.945  10.467   9.431
 3601W        W 7652   0.266   3.385   3.194
 3602W        W 7653   2.122   8.570   0.650
 3603W        W 7654   5.231   9.868   1.149
 3604W        W 7655   3.758   8.414  10.251
 3605W        W 7656   5.332  11.315   1.248
 3606W        W 7657   3.317  10.096   3.201
 3607W        W 7658   3.840   4.362  11.818
 3608W        W 7659   2.430   7.970  11.325
 3609W        W 7660   5.475   6.997   9.560
 3610W        W 7661   6.266   5.892   8.606
 3611W        W 7662  10.265   9.428   9.013
 3612W        W 7663   4.672   6.444  10.822
 3613W        W 7664   2.916   5.269  10.871
 3614W        W 7665   3.019   2.471   3.150
 3615W        W 7666  10.051   5.679   9.685
 3616W        W 7667   3.619   4.340  10.960
 3617W        W 7668   6.572   1.213   0.896
 3618W        W 7669  10.320   1.059   1.304
 3619W        W 7670   2.103   8.116   9.016
 3620W        W 7671   2.183   7.158   2.784
 3621W        W 7672   0.745   4.678   2.443
 3622W        W 7673   3.190   5.785  11.500
 3623W        W 7674   7.519   1.534   2.918
 3624W        W 7675   3.732   7.747   2.769
 3625W        W 7676   6.233   0.064  11.263
 3626W        W 7677   1.944   6.312  11.349
 3627W        W 7678   5.242   4.234   0.499
 3628W        W 7679   5.446   3.247   0.843
 3629W        W 7680   4.004   0.700   3.464
 3630W        W 7681   7.685   6.955   2.093
 3631W        W 7682   2.664   9.354   9.411
 3632W        W 7683   2.707   3.778  11.483
 3633W        W 7684   8.423   5.324   9.091
 3634W        W 7685   5.749   6.526   9.677
 3635W        W 7686   8.397   4.187   1.778
 3636W        W 7687   8.084   8.140  10.889
 3637W        W 7688   2.335   8.633   9.797
 3638W        W 7689   4.837   1.725   0.959
 3639W        W 7690   5.355   9.875   8.912
 3640W        W 7691   3.678  10.143   1.644
 3641W        W 7692   5.469  10.204   2.021
 3642W        W 7693   9.737   6.094   2.562
 3643W        W 7694   6.895   9.363   1.514
 3644W        W 7695   0.298   4.100   0.884
 3645W        W 7696  10.685   6.622  11.115
 3646W        W 7697   6.504   1.976   8.007
 3647W        W 7698   1.927   1.400   8.871
 3648W        W 7699   7.444   3.992   2.355
 3649W        W 7700   3.165  10.034  10.376
 3650W        W 7701   4.824   2.000   0.410
 3651W        W 7702  10.147   5.719   2.974
 3652W        W 7703   4.132   0.482   0.918
 3653W        W 7704   7.875   6.259   1.871
 3654W        W 7705  10.937   6.758   8.571
 3655W        W 7706   0.663   9.293   0.277
 3656W        W 7707   6.152   3.206   9.852
 3657W        W 7708   0.945   0.144   3.281
 3658W        W 7709   2.094   2.380   1.362
 3659W        W 7710  10.831   0.321  10.821
 3660W        W 7711   8.567   4.117   1.307
 3661W        W 7712  10.558   4.980   0.921
 3662W        W 7713   5.884   7.992   9.081
 3663W        W 7714   1.751   7.369   1.891
 3664W        W 7715   1.163   3.291   1.938
 3665W        W 7716   3.548   1.383   2.383
 3666W        W 7717   8.193   2.176  10.135
 3667W        W 7718   4.588   4.847   1.500
 3668W        W 7719   0.294  10.566  10.367
 3669W        W 7720   1.019   3.268   2.549
 3670W        W 7721   9.903   7.660  11.279
 3671W        W 7722   8.597  10.414   3.141
 3672W        W 7723   6.497   4.830  11.489
 3673W        W 7724   8.128   3.572   3.311
 3674W        W 7725  10.629   2.704   3.502
 3675W        W 7726   5.551   6.165   0.148
 3676W        W 7727   1.924   6.209  10.230
 3677W        W 7728   7.360  11.033   0.870
 3678W        W 7729   1.899   9.814  10.827
 3679W        W 7730   5.163   8.866  11.239
 3680W        W 7731   3.890   9.926  11.740
 3681W        W 7732   6.991   4.317   3.907
 3682W        W 7733   2.539   1.687  10.885
 3683W        W 7734   6.868  11.334  10.441
 3684W        W 7735  11.249  10.342   1.137
 3685W        W 7736   5.472   4.031  11.218
 3686W        W 7737   7.102   9.656   9.338
 3687W        W 7738   4.424   4.316   2.145
 3688W        W 7739  10.291   5.308   2.697
 3689W        W 7740   2.258   0.716  11.720
 3690W        W 7741   8.085   9.639  10.440
 3691W        W 7742   1.769   2.274   3.254
 3692W        W 7743   6.018   3.227   1.660
 3693W        W 7744  10.880   1.728   9.273
 3694W        W 7745   2.247   6.156   1.450
 3695W        W 7746   0.188  11.356   1.002
 3696W        W 7747   9.586   5.376   0.760
 3697W        W 7748   4.225   1.882  11.212
 3698W        W 7749  10.077   3.844   1.618
 3699W        W 7750   3.174  10.451   1.343
 3700W        W 7751   4.901   8.618   9.118
 3701W        W 7752   8.752   8.289   3.507
 3702W        W 7753   3.053   3.111  10.453
 3703W        W 7754   5.363  11.148   0.301
 3704W        W 7755   8.437   6.719  11.350
 3705W        W 7756   6.749   7.149   0.799
 3706W        W 7757   6.088   1.609   9.940
 3707W        W 7758  10.124   8.476   1.477
 3708W        W 7759   7.966   0.984   9.597
 3709W        W 7760   1.156   1.481  10.319
 3710W        W 7761   5.917   9.423   1.625
 3711W        W 7762  11.407   0.002  11.354
 3712W        W 7763   1.141   4.339   2.640
 3713W        W 7764   3.128   1.304   0.538
 3714W        W 7765   9.467   3.884   0.894
 3715W        W 7766   3.098   8.487   1.970
 3716W        W 7767   3.821   4.713   3.127
 3717W        W 7768   6.204   0.799  10.824
 3718W        W 7769   4.443   1.813   2.083
 3719W        W 7770   1.328   6.590   2.692
 3720W        W 7771  10.951  10.758   2.001
 3721W        W 7772   3.021   4.641  11.984
 3722W        W 7773   6.462   9.584  10.981
 3723W        W 7774   4.064   8.663   9.903
 3724W        W 7775  10.295   3.236  11.875
 3725W        W 7776  10.118  11.496  11.834
 3726W        W 7777   4.177   8.308   0.384
 3727W        W 7778   9.940   2.184   0.310
 3728W        W 7779   1.171   4.046   9.833
 3729W        W 7780   9.463   6.762  11.256
 3730W        W 7781   1.277   7.107   1.873
 3731W        W 7782   2.919   2.353   9.489
 3732W        W 7783   3.014   0.573   9.919
 3733W        W 7784   4.261   7.239  10.863
 3734W        W 7785   0.799  10.963   2.901
 3735W        W 7786   5.498   6.594   2.688
 3736W        W 7787   6.061   4.646  11.722
 3737W        W 7788   7.177   3.687   0.289
 3738W        W 7789  10.208   6.663   9.989
 3739W        W 7790   9.016   9.579   2.723
 3740W        W 7791   0.337   2.405   2.022
 3741W        W 7792   3.788   9.993   2.511
 3742W        W 7793  11.486   5.191   9.431
 3743W        W 7794  11.468   5.292   1.010
 3744W        W 7795   4.971   5.216  10.315
 3745W        W 7796   7.133   2.881  10.326
 3746W        W 7797   9.852   0.560   2.653
 3747W        W 7798   3.519   1.328  11.696
 3748W        W 7799  11.036   8.592  11.873
 3749W        W 7800   4.170   2.344   1.262
 3750W        W 7801   9.954   6.574   9.544
 3751W        W 7802   0.447   1.454   3.110
 3752W        W 7803   4.130   3.078   0.750
 3753W        W 7804   9.945   6.686   0.006
 3754W        W 7805   1.647   1.435   1.309
 3755W        W 7806  10.719   4.015   1.633
 3756W        W 7807   0.358   7.509   1.024
 3757W        W 7808  11.444   0.451   1.827
 3758W        W 7809   0.215   3.043   0.911
 3759W        W 7810   3.713  11.139   1.667
 3760W        W 7811   2.026   6.872   0.301
 3761W        W 7812  11.394   3.913   9.541
 3762W        W 7813  10.273   6.085  10.349
 3763W        W 7814   1.454   7.810   1.381
 3764W        W 7815  11.104   1.692  11.278
 3765W        W 7816   2.249   8.128   1.680
 3766W        W 7817   3.714   7.438   2.375
 3767W        W 7818   8.006  10.257   1.048
 3768W        W 7819   1.361   5.619   2.259
 3769W        W 7820   7.352   8.577   0.898
 3770W        W 7821   5.261   9.070   2.798
 3771W        W 7822   6.032   3.083   8.130
 3772W        W 7823   6.763   3.663  10.427
 3773W        W 7824   5.994   4.199   8.961
 3774W        W 7825   9.497   1.897  11.926
 3775W        W 7826   6.418   8.124   3.813
 3776W        W 7827   9.139   3.342   0.934
 3777W        W 7828   4.238   9.285   2.149
 3778W        W 7829   4.782  10.883  10.758
 3779W        W 7830   0.856   4.603   1.466
 3780W        W 7831   4.283   2.297  11.511
 3781W        W 7832  10.020   6.404   8.527
 3782W        W 7833   1.016   7.507  11.403
 3783W        W 7834  10.137   9.722   2.175
 3784W        W 7835   6.739   6.391   1.186
 3785W        W 7836   6.142   6.533  11.190
 3786W        W 7837   2.430   9.366   1.167
 3787W        W 7838   5.538   9.399  10.769
 3788W        W 7839   1.833   0.819   9.538
 3789W        W 7840   5.728   8.852  10.825
 3790W        W 7841   6.191   0.951   9.122
 3791W        W 7842   6.986   9.575  10.848
 3792W        W 7843   5.652   1.822  10.566
 3793W        W 7844   1.807   3.574   9.924
 3794W        W 7845   4.757   1.118   1.699
 3795W        W 7846   7.430  10.215   8.544
 3796W        W 7847   4.707   7.090   1.038
 3797W        W 7848   6.533   2.878   9.908
 3798W        W 7849   9.956   6.663  11.332
 3799W        W 7850  10.818   4.645   2.293
 3800W        W 7851   5.481   4.616   1.407
 3801W        W 7852   0.162   6.042   8.973
 3802W        W 7853   7.529  10.802   9.289
 3803W        W 7854   7.972   9.513   2.340
 3804W        W 7855   2.319  10.908   3.358
 3805W        W 7856   3.655   4.159   0.239
 3806W        W 7857   0.378   8.833  10.643
 3807W        W 7858   8.616   2.712   0.037
 3808W        W 7859   9.805   6.601   1.362
 3809W        W 7860   5.145   0.175   9.510
 3810W        W 7861  11.473   8.168   1.405
 3811W        W 7862   9.998   7.083   1.389
 3812W        W 7863   7.732   5.887  10.642
 3813W        W 7864   6.289   3.557   8.224
 3814W        W 7865   5.106   6.748   3.027
 3815W        W 7866   0.668   1.327   1.493
 3816W        W 7867   4.198  10.486   2.867
 3817W        W 7868  10.928   7.726   0.114
 3818W        W 7869   1.855   1.486  11.888
 3819W        W 7870   7.231   1.261  10.456
 3820W        W 7871  10.058   8.379   3.229
 3821W        W 7872   7.944  11.442   9.505
 3822W        W 7873  10.302   8.494  11.102
 3823W        W 7874   2.402   8.930   0.422
 3824W        W 7875   1.192   4.538   3.506
 3825W        W 7876   5.468   0.835  10.382
 3826W        W 7877   1.957  10.278   0.565
 3827W        W 7878   9.255   7.149   0.809
 3828W        W 7879   2.383   1.940   1.292
 3829W        W 7880   2.705  10.558   1.517
 3830W        W 7881   2.301   7.653   9.049
 3831W        W 7882   4.855   9.035   0.384
 3832W        W 7883   1.678   3.156  10.639
 3833W        W 7884   6.024   9.269  10.911
 3834W        W 7885   8.373   2.935   1.787
 3835W        W 7886   3.490   3.446   2.208
 3836W        W 7887   0.896   0.496  11.899
 3837W        W 7888  10.795   4.555   3.196
 3838W        W 7889   1.760   7.892   1.829
 3839W        W 7890   4.610   9.821   1.777
 3840W        W 7891  11.142   5.109   0.038
 3841W        W 7892   1.641   1.764   9.090
 3842W        W 7893   5.021   2.486   9.825
 3843W        W 7894  10.416   0.990   8.798
 3844W        W 7895   2.721   1.416   2.313
 3845W        W 7896   4.748   3.269  11.751
 3846W        W 7897   5.115   8.180  10.646
 3847W        W 7898   7.738   4.293   0.253
 3848W        W 7899   8.981   8.376   0.376
 3849W        W 7900   9.559   0.291   9.863
 3850W        W 7901   4.247   7.308   1.715
 3851W        W 7902   8.735   8.538   9.051
 3852W        W 7903   3.845   7.082  10.632
 3853W        W 7904   5.096   6.028   0.499
 3854W        W 7905   6.762   8.045   9.951
 3855W        W 7906   9.707   7.662   1.819
 3856W        W 7907   6.527   1.905   3.237
 3857W        W 7908  11.052   9.393   2.598
 3858W        W 7909   2.381   1.468  10.413
 3859W        W 7910   0.894   1.390   0.561
 3860W        W 7911   4.198   0.010   3.094
 3861W        W 7912   0.093   8.946   3.555
 3862W        W 7913   0.462   6.472   2.650
 3863W        W 7914   5.654   1.353  10.359
 3864W        W 7915   3.124   3.801   3.201
 3865W        W 7916   7.130   3.575   9.588
 3866W        W 7917   8.681   1.818   2.311
 3867W        W 7918   1.732   2.538   2.809
 3868W        W 7919   3.210   1.012   1.697
 3869W        W 7920   2.664   2.710   2.853
 3870W        W 7921  10.352   7.002   1.776
 3871W        W 7922  10.022   4.339   2.139
 3872W        W 7923   0.955   5.965   2.178
 3873W        W 7924   0.839   1.043   9.523
 3874W        W 7925   5.636   5.107   1.261
 3875W        W 7926   6.841   2.399   1.372
 3876W        W 7927   7.051   6.686  10.541
 3877W        W 7928   0.083   7.199   2.154
 3878W        W 7929   2.661   9.662   0.790
 3879W        W 7930   4.214   5.211   0.052
 3880W        W 7931  11.057   2.837  11.260
 3881W        W 7932   1.202   5.662  11.601
 3882W        W 7933   5.122   7.730  11.067
 3883W        W 7934   4.421   2.098   1.641
 3884W        W 7935   5.727   8.559   2.825
 3885W        W 7936   9.417   5.655  10.836
 3886W        W 7937   4.095   7.087   9.756
 3887W        W 7938  11.291   3.443   8.660
 3888W        W 7939   8.679   2.830  10.539
 3889W        W 7940   8.452   8.572   8.591
 3890W        W 7941   4.915   2.491   0.214
 3891W        W 7942   3.942   7.977   9.426
 3892W        W 7943   3.274   2.893   2.225
 3893W        W 7944  10.797  10.159  10.535
 3894W        W 7945   2.889  10.033   9.194
 3895W        W 7946   1.191   6.636   3.195
 3896W        W 7947   7.713   0.260   3.361
 3897W        W 7948   3.384   6.647  11.217
 3898W        W 7949  10.885   1.760   3.251
 3899W        W 7950   4.047   1.318   2.419
 3900W        W 7951   6.625   2.199   8.471
 3901W        W 7952   3.792   7.248   1.490
 3902W        W 7953   1.130   6.976   1.372
 3903W        W 7954   3.717  11.465  10.513
 3904W        W 7955   2.197   4.627  10.284
 3905W        W 7956   3.861   1.368   1.417
 3906W        W 7957   7.874   8.571   0.903
 3907W        W 7958   5.423   1.144   1.168
 3908W        W 7959   0.039   3.636   1.578
 3909W        W 7960   0.453   5.370   9.334
 3910W        W 7961   5.227  10.957  11.061
 3911W        W 7962   7.029   9.483  11.725
 3912W        W 7963   1.849   0.319   2.206
 3913W        W 7964  11.277   2.544   9.312
 3914W        W 7965   0.809   1.756   0.980
 3915W        W 7966   7.090   2.136  11.881
 3916W        W 7967   5.324   5.149   0.477
 3917W        W 7968   1.825   3.875  10.976
 3918W        W 7969   0.270   1.283   9.494
 3919W        W 7970   5.832   9.656   1.161
 3920W        W 7971   5.027   3.046   2.715
 3921W        W 7972   1.227   2.298  11.188
 3922W        W 7973   7.971   4.659   0.671
 3923W        W 7974   9.637   2.380  11.957
 3924W        W 7975  11.401   6.598   3.486
 3925W        W 7976   2.758   0.741   9.507
 3926W        W 7977  10.827   3.573   8.866
 3927W        W 7978   8.574   3.838   3.169
 3928W        W 7979   5.265   2.756   0.501
 3929W        W 7980   2.179   1.313  11.539
 3930W        W 7981   2.444   8.332   2.550
 3931W        W 7982   0.282   0.771  11.525
 3932W        W 7983  11.081   1.603  10.774
 3933W        W 7984   1.483   1.852  10.465
 3934W        W 7985   2.886   6.921   9.054
 3935W        W 7986   3.054   8.291   2.435
 3936W        W 7987  10.610   7.882   3.464
 3937W        W 7988   3.475  10.597   1.746
 3938W        W 7989   2.412   9.859   1.217
 3939W        W 7990   0.770   1.160  10.807
 3940W        W 7991  11.218  10.592  11.939
 3941W        W 7992  11.229   7.873  11.490
 3942W        W 7993   5.304  10.025   2.667
 3943W        W 7994   6.125   4.776   0.744
 3944W        W 7995  11.467   4.896   1.316
 3945W        W 7996   6.552   0.850   8.753
 3946W        W 7997   3.553   6.133   0.490
 3947W        W 7998   8.477   4.008   9.982
 3948W        W 7999   2.859   9.102   1.216
 3949W        W 8000   9.968   2.861   8.385
 3950W        W 8001   8.403   4.309  11.803
 3951W        W 8002   8.935   2.618   2.187
 3952W        W 8003   7.601   0.741  11.129
 3953W        W 8004   8.233   6.447  10.088
 3954W        W 8005   9.149   1.283   9.012
 3955W        W 8006   8.305   6.974  10.780
 3956W        W 8007   9.139   6.927   8.073
 3957W        W 8008   2.804   0.298   3.399
 3958W        W 8009   9.533   6.252   9.066
 3959W        W 8010  10.307   9.427   1.390
 3960W        W 8011   8.959   8.088   9.005
 3961W        W 8012   4.987   4.707   1.219
 3962W        W 8013   2.817   5.911  10.190
 3963W        W 8014   6.266   4.295   0.489
 3964W        W 8015   5.601   3.881   9.083
 3965W        W 8016   3.664   2.566   2.081
 3966W        W 8017   2.574   9.526   3.109
 3967W        W 8018   0.532   9.842  11.075
 3968W        W 8019   7.872   2.422  10.489
 3969W        W 8020   4.198   9.982   8.859
 3970W        W 8021   2.684   0.578  10.331
 3971W        W 8022   3.462  10.139  11.486
 3972W        W 8023   9.472   1.621   0.359
 3973W        W 8024   7.727   1.241  10.010
 3974W        W 8025   3.614  10.298  10.972
 3975W        W 8026   7.724  11.084  10.656
 3976W        W 8027   4.191   3.462   0.403
 3977W        W 8028   7.519  10.375   9.569
 3978W        W 8029   1.614  10.498  11.693
 3979W        W 8030   7.627   6.132   3.780
 3980W        W 8031   9.936   2.744   2.326
 3981W        W 8032   6.653   9.930   1.364
 3982W        W 8033   6.672   3.363   9.798
 3983W        W 8034  11.315   9.015   9.590
 3984W        W 8035   2.798  10.043   1.530
 3985W        W 8036   7.196   8.497   2.367
 3986W        W 8037   9.173   5.487  10.092
 3987W        W 8038  10.704   2.338   1.282
 3988W        W 8039   5.625   4.866  11.937
 3989W        W 8040   6.119   2.319   3.187
 3990W        W 8041   0.624   5.874   9.951
 3991W        W 8042   4.643   6.843   0.197
 3992W        W 8043   2.213   3.937   1.849
 3993W        W 8044   4.505  10.783   8.827
 3994W        W 8045   0.982   6.649  10.380
 3995W        W 8046   9.254   9.003  10.335
 3996W        W 8047   0.421   0.061   0.592
 3997W        W 8048   8.577   7.959   2.240
 3998W        W 8049   1.456   9.346  10.075
 3999W        W 8050   4.328  10.388   0.535
 4000W        W 8051   4.547   0.818   1.294
 4001W        W 8052   0.303   0.678   8.708
 4002W        W 8053   7.617   9.030   1.108
 4003W        W 8054   5.376   0.405   2.981
 4004W        W 8055   0.048   5.264   2.314
 4005W        W 8056   0.822   6.268  10.901
 4006W        W 8057   9.690   9.604   0.233
 4007W        W 8058   5.248  11.407  11.287
 4008W        W 8059   0.814   4.638   1.958
 4009W        W 8060   7.649   7.562  10.412
 4010W        W 8061   8.184   0.443   3.491
 4011W        W 8062   4.446   7.138   9.355
 4012W        W 8063   4.156  10.080   1.842
 4013W        W 8064   3.102   3.608  10.069
 4014W        W 8065   9.426   0.791   3.562
 4015W        W 8066   3.360  10.984  11.687
 4016W        W 8067   1.039   5.126   0.301
 4017W        W 8068   7.847   2.407  11.489
 4018W        W 8069  10.870   4.991   0.469
 4019W        W 8070   5.007   0.458   2.164
 4020W        W 8071   6.314  11.270   1.132
 4021W        W 8072   1.915  10.865   9.711
 4022W        W 8073   3.745   4.986   1.750
 4023W        W 8074   8.792  10.455   3.589
 4024W        W 8075   6.045  10.008   0.841
 4025W        W 8076   3.551  10.645  11.356
 4026W        W 8077   5.033   3.425  10.572
 4027W        W 8078  10.868   7.728   3.028
 4028W        W 8079   3.106   7.396   0.359
 4029W        W 8080   9.498   4.891   4.333
 4030W        W 8081   4.798   7.968  10.285
 4031W        W 8082   3.378   2.812   3.145
 4032W        W 8083   0.545   0.882   1.672
 4033W        W 8084   7.501   9.737   3.224
 4034W        W 8085   2.891   4.507  10.341
 4035W        W 8086   5.136   8.968   2.054
 4036W        W 8087   5.223   3.204   8.777
 4037W        W 8088  10.314   6.955   9.574
 4038W        W 8089   9.123   3.714   9.525
 4039W        W 8090   8.799   1.295   1.297
 4040W        W 8091   2.789   1.267   9.497
 4041W        W 8092   2.156   2.755   3.040
 4042W        W 8093   5.814  10.593  10.492
 4043W        W 8094   3.741   2.620   9.841
 4044W        W 8095  10.868   3.280   9.935
 4045W        W 8096  11.096   5.068   2.418
 4046W        W 8097   8.070   0.962   3.532
 4047W        W 8098  11.029   3.121  10.407
 4048W        W 8099  11.360   2.340   0.420
 4049W        W 8100   3.332   9.353  11.064
 4050W        W 8101   5.130   1.588   9.260
 4051W        W 8102   9.531   7.542  10.323
 4052W        W 8103   4.208   2.834  11.539
 4053W        W 8104   6.575   0.440   1.370
 4054W        W 8105   0.132   8.559   1.077
 4055W        W 8106   0.061   2.363  10.403
 4056W        W 8107   0.634   3.714   3.273
 4057W        W 8108   2.637   6.195   3.320
 4058W        W 8109   2.876   2.015   1.221
 4059W        W 8110   2.585   3.118   3.691
 4060W        W 8111   8.839   0.388   1.850
 4061W        W 8112   0.528   9.325   3.488
 4062W        W 8113   8.947   5.133   2.277
 4063W        W 8114   6.171   3.068   3.734
 4064W        W 8115  11.276   5.637   9.709
 4065W        W 8116   9.156   8.090  11.935
 4066W        W 8117   7.650  11.251  11.131
 4067W        W 8118   1.821   2.462  10.883
 4068W        W 8119   2.354   0.074   3.279
 4069W        W 8120   3.292   9.649  11.475
 4070W        W 8121   6.684   7.015   0.307
 4071W        W 8122   1.303   7.634   1.818
 4072W        W 8123   9.507   8.636   8.553
 4073W        W 8124  10.042   4.869   2.760
 4074W        W 8125  10.137  11.424   0.655
 4075W        W 8126   9.654   4.058   1.339
 4076W        W 8127   4.602   2.112   8.640
 4077W        W 8128   6.671   0.419   3.175
 4078W        W 8129   9.669   1.482   0.816
 4079W        W 8130   4.654  11.486   9.553
 4080W        W 8131   6.040   1.324   2.163
 4081W        W 8132   9.812   7.486  10.771
 4082W        W 8133   7.929   5.002  11.535
 4083W        W 8134   7.903   9.479   0.194
 4084W        W 8135   5.632   5.701   1.908
 4085W        W 8136   8.227   2.279   0.909
 4086W        W 8137   2.880   9.827   3.376
 4087W        W 8138   6.773   8.967   0.833
 4088W        W 8139   6.415   9.910   3.121
 4089W        W 8140   5.430   5.897   1.476
 4090W        W 8141   8.494   8.222   0.212
 4091W        W 8142   6.384   2.241   1.871
 4092W        W 8143   0.769   3.299   0.406
 4093W        W 8144   9.583   8.932   8.965
 4094W        W 8145   8.305   3.016   9.942
 4095W        W 8146  11.076   2.915   9.624
 4096W        W 8147   4.655   2.980  11.347
 4097W        W 8148   6.593  11.333  11.834
 4098W        W 8149   9.983   2.375   8.592
 4099W        W 8150  10.424   0.380  11.682
 4100W        W 8151   0.762   4.337  10.009
 4101W        W 8152  11.289   4.838   0.803
 4102W        W 8153   8.426   2.038   2.744
 4103W        W 8154   5.515   9.750   3.279
 4104W        W 8155  10.520  10.891   1.371
 4105W        W 8156   9.002   8.669  10.735
 4106W        W 8157  11.359   8.736  11.385
 4107W        W 8158   7.078  10.092   9.593
 4108W        W 8159   0.263   0.721   3.442
 4109W        W 8160   4.921   1.859   8.304
 4110W        W 8161   7.854   1.158   2.217
 4111W        W 8162   8.049  11.312  11.915
 4112W        W 8163   6.457   6.448   9.054
 4113W        W 8164  10.587   9.554   3.219
 4114W        W 8165  11.038   4.677   2.768
 4115W        W 8166   0.015   9.815   2.248
 4116W        W 8167   8.990   2.187   9.569
 4117W        W 8168   4.585  11.002   0.403
 4118W        W 8169   7.092   2.303   2.467
 4119W        W 8170   5.744   1.252  11.347
 4120W        W 8171  10.455   0.775   3.768
 4121W        W 8172   0.024   6.195   3.147
 4122W        W 8173   5.250   5.493   1.268
 4123W        W 8174   2.677   6.954   1.841
 4124W        W 8175   5.086   7.584  10.072
 4125W        W 8176  10.890   5.458   8.605
 4126W        W 8177   0.803   5.621  10.458
 4127W        W 8178   5.573   9.581   2.772
 4128W        W 8179   3.102   8.469  10.918
 4129W        W 8180   5.562  10.196   0.895
 4130W        W 8181   1.374   1.935   1.197
 4131W        W 8182   4.139   7.568   1.300
 4132W        W 8183   3.809   0.005   1.282
 4133W        W 8184   6.161   0.838   2.985
 4134W        W 8185  11.158  10.525   1.603
 4135W        W 8186   0.922   0.565   3.627
 4136W        W 8187  10.037   3.274   0.339
 4137W        W 8188   4.272   9.088  11.217
 4138W        W 8189  11.124   3.918   0.118
 4139W        W 8190   3.809   3.115   0.300
 4140W        W 8191   0.140   3.116   1.807
 4141W        W 8192   6.492   7.353   2.383
 4142W        W 8193   4.783   6.975   3.351
 4143W        W 8194   4.513  10.316  10.336
 4144W        W 8195   9.559   2.476  10.186
 4145W        W 8196   0.787   8.709   3.217
 4146W        W 8197   9.453   6.234   1.484
 4147W        W 8198   6.970   1.796   9.270
 4148W        W 8199  11.242   3.058  11.670
 4149W        W 8200   8.120   8.118   0.802
 4150W        W 8201   6.571   1.587   2.840
 4151W        W 8202   9.030   2.245   9.060
 4152W        W 8203   8.765   4.611  11.336
 4153W        W 8204   2.319   1.812  10.045
 4154W        W 8205   1.917   5.348   9.919
 4155W        W 8206   1.074   2.342   0.244
 4156W        W 8207  11.211   6.910   9.853
 4157W        W 8208   2.119  10.926  11.304
 4158W        W 8209   7.925   4.054   1.692
 4159W        W 8210   0.941   8.441   2.779
 4160W        W 8211   8.588   1.881  11.490
 4161W        W 8212   6.946   4.678  10.245
 4162W        W 8213   7.006   1.293   9.421
 4163W        W 8214  11.258   1.355   1.929
 4164W        W 8215   4.336   5.609   1.884
 4165W        W 8216   9.122   8.523   1.788
 4166W        W 8217   5.120   9.572   2.991
 4167W        W 8218   6.025   2.903   3.253
 4168W        W 8219   2.180   7.460   0.493
 4169W        W 8220   8.276   2.695   2.700
 4170W        W 8221   8.891  11.372   2.645
 4171W        W 8222   2.575   8.995   8.547
 4172W        W 8223   4.922   2.933  10.511
 4173W        W 8224   8.860   9.509   9.772
 4174W        W 8225   5.215   7.505   9.599
 4175W        W 8226   9.234   6.083  11.768
 4176W        W 8227   8.016   8.720  10.003
 4177W        W 8228   5.516   8.077   0.213
 4178W        W 8229   9.548   1.529   9.809
 4179W        W 8230   6.079   3.826   1.014
 4180W        W 8231   1.121   7.456   3.137
 4181W        W 8232   3.789   9.006   3.243
 4182W        W 8233   4.868   0.999   0.392
 4183W        W 8234   2.470   8.001   9.382
 4184W        W 8235   2.168   8.443   1.143
 4185W        W 8236   2.043   4.267   9.360
 4186W        W 8237   4.676   5.276   0.251
 4187W        W 8238   1.454   8.629   2.830
 4188W        W 8239   4.388   9.465   2.630
 4189W        W 8240  11.280   7.802  10.980
 4190W        W 8241   6.106   5.901   1.828
 4191W        W 8242   0.353   8.047  11.775
 4192W        W 8243  10.872   8.138  11.721
 4193W        W 8244  10.837   1.490  10.108
 4194W        W 8245   8.408   9.408   9.548
 4195W        W 8246  11.447   4.374   0.635
 4196W        W 8247   5.928   4.591   9.273
 4197W        W 8248  10.475   5.127   1.803
 4198W        W 8249   5.201   3.968   0.916
 4199W        W 8250   4.696   6.966  10.872
 4200W        W 8251   1.149  10.658   3.553
 4201W        W 8252   5.408  10.330  10.279
 4202W        W 8253   7.676   2.719   9.522
 4203W        W 8254   6.646   0.924   0.465
 4204W        W 8255   8.144   8.691   1.982
 4205W        W 8256   0.776   1.082  11.322
 4206W        W 8257   1.556   0.841   0.546
 4207W        W 8258   8.557   5.579  11.417
 4208W        W 8259   4.541   7.561  10.550
 4209W        W 8260   1.474   3.024   9.051
 4210W        W 8261   2.553   8.614  11.005
 4211W        W 8262   6.345   2.325   0.373
 4212W        W 8263   9.277   4.199   9.371
 4213W        W 8264  11.229   5.368   1.466
 4214W        W 8265   4.352   6.676   9.979
 4215W        W 8266   9.655   1.002   1.717
 4216W        W 8267   9.137   8.066   0.796
 4217W        W 8268  10.438  10.316  11.039
 4218W        W 8269   9.821   9.562  11.645
 4219W        W 8270  10.512   8.494   9.137
 4220W        W 8271   3.000  10.955   1.344
 4221W        W 8272   0.734   3.834   9.957
 4222W        W 8273  10.204   7.661   1.119
 4223W        W 8274   9.105   1.739   8.766
 4224W        W 8275   9.498   8.436   2.152
 4225W        W 8276   7.411   7.574  10.867
 4226W        W 8277   0.871   9.562   2.152
 4227W        W 8278   1.964   9.584   1.204
 4228W        W 8279   4.167   6.256   9.748
 4229W        W 8280   0.487   2.640   1.573
 4230W        W 8281   5.916   5.739   2.313
 4231W        W 8282   5.065   0.477   8.944
 4232W        W 8283   7.726  10.567   0.256
 4233W        W 8284   7.669   9.038   2.581
 4234W        W 8285   7.426   2.777   0.893
 4235W        W 8286   8.227   1.321  11.750
 4236W        W 8287   2.336   8.493   9.309
 4237W        W 8288   7.936  11.336   2.511
 4238W        W 8289   4.258   7.015   1.249
 4239W        W 8290   8.538   0.179   1.487
 4240W        W 8291   9.289   4.482  11.420
 4241W        W 8292  11.325   1.243  11.021
 4242W        W 8293   3.676   1.337   9.643
 4243W        W 8294   9.133   5.764   8.697
 4244W        W 8295  10.000  10.560  11.298
 4245W        W 8296   2.280   7.251  11.535
 4246W        W 8297   4.835   2.138   1.915
 4247W        W 8298   5.230   1.190  10.075
 4248W        W 8299  11.445  10.433   3.263
 4249W        W 8300   1.766   8.407   1.817
 4250W        W 8301   6.047   3.692   3.834
 4251W        W 8302   4.106   4.757   8.678
 4252W        W 8303   8.123   9.428   1.810
 4253W        W 8304   5.855   8.971   0.020
 4254W        W 8305  11.167   4.319  10.350
 4255W        W 8306   4.048   1.490   0.937
 4256W        W 8307  11.400   7.662   1.183
 4257W        W 8308   5.252   8.458  11.532
 4258W        W 8309   4.728   4.326  11.800
 4259W        W 8310   9.984   1.652   0.380
 4260W        W 8311   8.398  10.364   1.404
 4261W        W 8312  10.514  10.835   8.898
 4262W        W 8313   0.488   9.573   2.995
 4263W        W 8314   7.391   4.064   9.170
 4264W        W 8315   1.738   6.017   3.263
 4265W        W 8316   4.312   0.280   0.455
 4266W        W 8317   6.216   7.501  11.293
 4267W        W 8318   7.174   9.140  10.069
 4268W        W 8319   2.918   0.959   2.113
 4269W        W 8320   9.392   8.905   3.566
 4270W        W 8321   2.281   2.862   2.536
 4271W        W 8322  11.224   0.064   0.920
 4272W        W 8323   6.597   3.640   1.913
 4273W        W 8324   6.145   2.506   0.840
 4274W        W 8325   2.010  10.736   0.840
 4275W        W 8326   7.982   4.033  11.905
 4276W        W 8327   7.429  10.912   9.872
 4277W        W 8328  10.970   1.233   9.135
 4278W        W 8329  10.722   6.535   1.774
 4279W        W 8330  10.366   6.051   9.525
 4280W        W 8331   8.347   2.349  11.456
 4281W        W 8332   8.393   1.517   2.657
 4282W        W 8333   3.084   2.121   2.607
 4283W        W 8334   7.579   2.537   3.171
 4284W        W 8335   7.875  10.457   8.478
 4285W        W 8336   4.960   8.984   9.509
 4286W        W 8337   5.047   8.834  11.858
 4287W        W 8338   2.620   2.206   2.969
 4288W        W 8339   6.503   5.895  11.886
 4289W        W 8340   7.581   6.875   0.830
 4290W        W 8341   5.340   0.351  11.522
 4291W        W 8342   9.173   2.780   2.813
 4292W        W 8343   1.706  11.268   2.959
 4293W        W 8344   4.229   9.536  11.983
 4294W        W 8345   9.022   4.072  11.181
 4295W        W 8346   1.830   9.190   2.280
 4296W        W 8347   6.874   9.400   2.464
 4297W        W 8348   8.359   1.586   1.363
 4298W        W 8349   6.983   6.947  11.021
 4299W        W 8350   9.109   3.075   3.215
 4300W        W 8351   3.543   9.336   0.896
 4301W        W 8352   8.378   1.103   2.167
 4302W        W 8353   6.955   4.659   1.233
 4303W        W 8354   1.804   8.864   0.893
 4304W        W 8355   3.627   1.752   1.716
 4305W        W 8356   5.619   1.740  11.458
 4306W        W 8357   4.241   3.170   9.562
 4307W        W 8358   8.563   2.783   8.661
 4308W        W 8359  10.685   2.305  10.544
 4309W        W 8360   6.413  10.549   8.427
 4310W        W 8361   9.362  10.821   9.836
 4311W        W 8362   1.722  10.894   0.015
 4312W        W 8363   2.762   5.647  11.256
 4313W        W 8364   0.143   2.435   9.642
 4314W        W 8365   4.426   8.638  10.958
 4315W        W 8366   9.087   2.412   1.684
 4316W        W 8367   0.519   2.895   2.047
 4317W        W 8368   2.446   2.527   9.631
 4318W        W 8369   2.813  11.343   3.130
 4319W        W 8370   3.620   0.763   0.855
 4320W        W 8371   1.873  10.011  11.765
 4321W        W 8372   1.805  10.649   8.800
 4322W        W 8373   1.014   0.661   9.885
 4323W        W 8374   8.572   5.336   0.800
 4324W        W 8375   6.743   7.491   8.685
 4325W        W 8376  10.401   5.538  11.880
 4326W        W 8377   5.122   7.388   2.282
 4327W        W 8378   1.226   2.638   9.882
 4328W        W 8379  10.050   6.704   4.367
 4329W        W 8380  10.743   5.109   9.007
 4330W        W 8381   4.139   6.472   4.197
 4331W        W 8382   0.596  10.974   8.604
 4332W        W 8383   5.590   8.008  10.704
 4333W        W 8384   8.697   7.124   2.119
 4334W        W 8385  10.956   0.825  10.932
 4335W        W 8386   6.799   6.134   0.231
 4336W        W 8387  10.354  11.484  11.377
 4337W        W 8388   8.468   1.651  10.040
 4338W        W 8389   3.278   3.096   2.691
 4339W        W 8390   3.546   9.058   0.054
 4340W        W 8391   8.596   9.638  10.624
 4341W        W 8392   9.975  11.315  10.497
 4342W        W 8393  10.900   5.080   9.826
 4343W        W 8394   7.147  11.405   9.922
 4344W        W 8395  10.520   6.571   0.862
 4345W        W 8396   5.490  11.005   2.112
 4346W        W 8397   9.912   9.204   0.023
 4347W        W 8398  10.204   8.005  10.956
 4348W        W 8399   0.854  10.612   9.040
 4349W        W 8400  11.409   2.297   2.371
 4350W        W 8401   5.170   1.772   1.776
 4351W        W 8402   0.386   8.496  11.036
 4352W        W 8403   0.510   8.131   2.691
 4353W        W 8404   8.471   7.203   8.901
 4354W        W 8405   8.402   5.142   1.342
 4355W        W 8406   0.318   7.469   0.501
 4356W        W 8407  10.070   7.029   3.583
 4357W        W 8408   3.171   2.606   2.665
 4358W        W 8409   5.623   7.187   0.219
 4359W        W 8410   2.384  10.907   2.842
 4360W        W 8411  11.319   9.076   2.937
 4361W        W 8412   9.323   9.357   1.273
 4362W        W 8413  11.493   4.130  10.721
 4363W        W 8414   0.993   7.979   1.507
 4364W        W 8415   1.550   9.687   3.285
 4365W        W 8416   6.555   3.418  11.838
 4366W        W 8417   4.268   0.363   9.365
 4367W        W 8418   4.107   0.009   1.716
 4368W        W 8419   8.373   4.205  10.437
 4369W        W 8420   7.606   8.575   2.803
 4370W        W 8421  10.359   1.014  10.308
 4371W        W 8422   7.566   6.686   2.928
 4372W        W 8423   6.034   4.544  10.786
 4373W        W 8424  11.471   2.152   2.865
 4374W        W 8425   9.281   6.440   0.546
 4375W        W 8426   9.882   7.895  10.479
 4376W        W 8427  10.628   1.752  11.411
 4377W        W 8428   6.257   6.588  11.687
 4378W        W 8429   6.184   1.394  10.437
 4379W        W 8430   4.554  10.895  11.591
 4380W        W 8431   9.884   8.130   1.975
 4381W        W 8432   6.109   9.205   1.198
 4382W        W 8433   5.549   7.024  10.863
 4383W        W 8434   0.529   7.381  11.435
 4384W        W 8435   0.632   4.238   2.655
 4385W        W 8436   1.997   5.677   8.655
 4386W        W 8437   3.530   1.776   9.886
 4387W        W 8438   5.440   5.656  10.508
 4388W        W 8439   6.400   9.520   1.533
 4389W        W 8440   0.860   4.632   0.973
 4390W        W 8441  10.458   7.418   3.683
 4391W        W 8442   6.287   4.142   2.705
 4392W        W 8443   2.458   2.640  11.060
 4393W        W 8444   1.699   7.391   0.743
 4394W        W 8445   1.690   3.306   1.004
 4395W        W 8446   0.044  10.969   8.907
 4396W        W 8447   7.381  10.049   0.916
 4397W        W 8448   9.298   1.065   2.142
 4398W        W 8449   1.251   4.259   0.496
 4399W        W 8450   5.606   4.364  11.817
 4400W        W 8451   8.469   2.330   9.584
 4401W        W 8452   1.837   0.971   1.517
 4402W        W 8453   8.703   2.131   0.781
 4403W        W 8454   4.516   2.179  10.908
 4404W        W 8455   1.495  11.252   9.030
 4405W        W 8456   9.894   9.151   2.861
 4406W        W 8457   8.453   4.848   0.913
 4407W        W 8458   0.445   0.277  11.762
 4408W        W 8459   5.149   7.749   1.366
 4409W        W 8460  10.524   1.689   2.867
 4410W        W 8461   7.908   6.486   0.772
 4411W        W 8462   5.976   5.233  10.073
 4412W        W 8463   4.641   5.300  11.732
 4413W        W 8464   8.689   2.110   9.987
 4414W        W 8465   1.707  11.316   9.871
 4415W        W 8466   0.019  10.373   9.561
 4416W        W 8467   2.860  11.146  10.313
 4417W        W 8468   4.491   0.267   1.952
 4418W        W 8469   5.740   9.433  10.295
 4419W        W 8470   5.594   0.248   1.408
 4420W        W 8471   7.854   0.996   0.935
 4421W        W 8472   7.770   9.918   8.783
 4422W        W 8473   1.829  10.973   1.609
 4423W        W 8474   1.267   7.995   9.878
 4424W        W 8475   4.459   9.346   3.543
 4425W        W 8476   6.040   6.688   0.843
 4426W        W 8477   8.184   7.060   2.111
 4427W        W 8478   0.335   4.860   2.146
 4428W        W 8479   4.628   9.804  10.256
 4429W        W 8480   0.424   0.247  10.113
 4430W        W 8481  11.244   0.843  11.364
 4431W        W 8482   7.590   9.898   2.330
 4432W        W 8483   5.191  10.008   8.425
 4433W        W 8484   4.059   9.261   8.999
 4434W        W 8485   5.057   2.972   0.072
 4435W        W 8486   3.495   6.009   3.036
 4436W        W 8487  10.353  10.082   0.763
 4437W        W 8488   3.127   5.273  11.357
 4438W        W 8489   0.429  10.848   9.909
 4439W        W 8490   2.319   5.532  11.065
 4440W        W 8491   6.656   0.544  10.689
 4441W        W 8492   1.173   0.504   0.414
 4442W        W 8493   3.320   7.961   1.835
 4443W        W 8494   0.988   2.882   2.222
 4444W        W 8495   2.714   5.565   9.787
 4445W        W 8496   3.492   0.618   1.846
 4446W        W 8497  10.400   1.732   3.406
 4447W        W 8498   7.627   0.397   0.945
 4448W        W 8499  10.767   2.991  10.868
 4449W        W 8500   8.301   1.452   8.967
 4450W        W 8501   7.947   8.700   9.491
 4451W        W 8502   3.373   9.990   9.361
 4452W        W 8503  10.883  10.914  10.557
 4453W        W 8504   0.227   1.935   1.832
 4454W        W 8505   0.512   9.344  10.872
 4455W        W 8506  10.684   2.591   8.736
 4456W        W 8507   6.958  10.367   2.874
 4457W        W 8508   4.568   4.803   0.976
 4458W        W 8509   8.507   3.960  10.860
 4459W        W 8510   8.342   2.154   0.394
 4460W        W 8511   0.858   7.301   2.663
 4461W        W 8512   8.174   3.747   8.646
 4462W        W 8513   3.500   7.608   0.603
 4463W        W 8514   1.619   1.055   9.131
 4464W        W 8515   6.133  10.260   8.745
 4465W        W 8516  11.336   3.791   2.436
 4466W        W 8517  10.417  11.487  10.231
 4467W        W 8518   8.469   8.101   1.168
 4468W        W 8519   0.043   9.497  11.787
 4469W        W 8520   5.252  10.357   1.423
 4470W        W 8521   5.592  10.450  11.725
 4471W        W 8522   2.873   9.567   0.338
 4472W        W 8523   8.156   2.762   0.321
 4473W        W 8524   1.375   4.736   2.921
 4474W        W 8525   2.838   6.396   9.959
 4475W        W 8526  10.825  10.906  11.873
 4476W        W 8527   8.346   9.485   8.507
 4477W        W 8528   9.457   5.341  11.257
 4478W        W 8529   8.999   5.222   3.323
 4479W        W 8530   3.420   2.220   1.723
 4480W        W 8531  10.476  10.882   2.718
 4481W        W 8532  10.388  11.268   9.753
 4482W        W 8533   1.292   4.766  10.318
 4483W        W 8534   2.674   0.053  11.292
 4484W        W 8535   8.150   2.726  11.790
 4485W        W 8536   1.358   6.995  11.069
 4486W        W 8537   1.480   6.295  11.682
 4487W        W 8538   2.179   5.786  11.882
 4488W        W 8539  11.342   9.013  11.801
 4489W        W 8540  10.077   2.932   2.812
 4490W        W 8541   4.549   2.972   3.060
 4491W        W 8542   9.979   3.192   9.252
 4492W        W 8543  10.891   3.132   1.484
 4493W        W 8544   9.207   3.592  11.257
 4494W        W 8545   3.499   2.278  11.080
 4495W        W 8546   7.990   0.278   9.933
 4496W        W 8547   2.106   0.871   9.108
 4497W        W 8548   1.925   3.132   9.653
 4498W        W 8549  10.276  11.291   1.144
 4499W        W 8550   6.677  11.320   1.965
 4500W        W 8551   4.060   2.980   9.116
 4501W        W 8552   3.966   0.975  10.835
 4502W        W 8553   1.694   2.230  11.370
 4503W        W 8554   3.185   0.708  11.811
 4504W        W 8555   3.337   6.552   9.834
 4505W        W 8556   8.729   9.050  10.266
 4506W        W 8557   5.675   4.041   8.201
 4507W        W 8558   5.877  10.995   0.451
 4508W        W 8559   0.100   0.354   2.486
 4509W        W 8560   5.586   9.722   0.688
 4510W        W 8561   1.193   3.839   3.417
 4511W        W 8562   9.024  10.573   0.243
 4512W        W 8563   2.877   1.351   8.986
 4513W        W 8564   9.520   0.977  10.345
 4514W        W 8565   6.981   1.839   1.123
 4515W        W 8566   1.213   0.215   9.114
 4516W        W 8567   8.948   7.167   1.654
 4517W        W 8568  11.220   9.366  10.382
 4518W        W 8569   9.147   9.565   3.246
 4519W        W 8570   3.907   6.935   2.416
 4520W        W 8571   3.751   7.100  10.124
 4521W        W 8572   4.622   6.390   3.968
 4522W        W 8573   4.705   7.528   9.543
 4523W        W 8574   7.041   8.741  11.581
 4524W        W 8575   1.303  10.493  10.876
 4525W        W 8576   5.685   8.497   8.636
 4526W        W 8577   9.357   1.087   0.213
 4527W        W 8578   2.008   6.989   0.813
 4528W        W 8579   1.135   7.127   9.518
 4529W        W 8580   5.824   5.295  10.568
 4530W        W 8581   6.867   8.534   1.064
 4531W        W 8582   4.042   7.550  10.526
 4532W        W 8583   6.061   2.804   1.312
 4533W        W 8584  11.456   5.144  11.600
 4534W        W 8585   6.689   9.538   1.972
 4535W        W 8586   6.864   8.152  11.769
 4536W        W 8587   4.295   6.975   2.086
 4537W        W 8588   6.073   7.393   1.744
 4538W        W 8589   6.212   0.473  10.336
 4539W        W 8590   9.644   8.004   0.794
 4540W        W 8591   9.933   3.819  10.798
 4541W        W 8592  11.192   1.315   0.072
 4542W        W 8593   6.004   2.635   9.068
 4543W        W 8594  11.381   2.480  11.553
 4544W        W 8595   3.101   6.651   2.045
 4545W        W 8596   6.273   9.032   9.088
 4546W        W 8597   6.827   0.251   0.008
 4547W        W 8598   2.291   0.952  10.401
 4548W        W 8599   7.123   0.294  10.491
 4549W        W 8600   8.088   8.425  10.450
 4550W        W 8601   7.955   3.317  10.155
 4551W        W 8602   9.616  10.450   3.244
 4552W        W 8603   2.598   8.103   8.887
 4553W        W 8604   7.906   3.197   9.647
 4554W        W 8605   9.844   6.125   1.155
 4555W        W 8606   2.480   6.536   9.627
 4556W        W 8607   4.601   9.505  11.219
 4557W        W 8608   5.975   4.379   8.472
 4558W        W 8609   7.750   7.935   9.644
 4559W        W 8610   1.212  11.458   0.961
 4560W        W 8611   6.596  10.826   9.808
 4561W        W 8612   4.596   6.310   8.826
 4562W        W 8613   8.560   9.434   2.889
 4563W        W 8614   5.035  11.051  11.572
 4564W        W 8615   4.589  11.230   0.861
 4565W        W 8616   0.037   9.933   3.136
 4566W        W 8617   4.543   3.376   2.743
 4567W        W 8618   3.341   7.161   0.767
 4568W        W 8619   3.034   9.802   2.882
 4569W        W 8620  10.724  10.320   1.830
 4570W        W 8621   7.511   7.195   2.916
 4571W        W 8622  10.476   6.523   9.352
 4572W        W 8623  11.458   6.806  10.988
 4573W        W 8624   1.293   8.769  10.564
 4574W        W 8625   3.413   9.300   8.781
 4575W        W 8626   8.812   3.054  10.052
 4576W        W 8627   9.608   5.763   9.921
 4577W        W 8628   9.477   6.095   3.424
 4578W        W 8629   2.687   2.298  11.374
 4579W        W 8630   1.474   2.667  11.491
 4580W        W 8631   9.888   8.368  10.324
 4581W        W 8632   9.708   4.770   9.728
 4582W        W 8633   8.110   2.250  11.941
 4583W        W 8634   9.830   4.117  10.039
 4584W        W 8635   2.357  10.151  11.890
 4585W        W 8636   1.313   5.546  10.513
 4586W        W 8637   7.467   1.190  10.929
 4587W        W 8638  10.122   2.747   3.315
 4588W        W 8639   2.146   6.755  11.782
 4589W        W 8640   1.729   4.063   3.405
 4590W        W 8641   5.962   9.134   2.083
 4591W        W 8642  10.508   2.691   2.959
 4592W        W 8643  10.871   8.666   0.389
 4593W        W 8644   6.503  10.636   3.230
 4594W        W 8645   9.375   0.854   1.320
 4595W        W 8646   9.307   3.959   3.398
 4596W        W 8647   4.543  10.818  10.183
 4597W        W 8648   6.419  10.745   0.937
 4598W        W 8649   9.576  11.162   8.472
 4599W        W 8650  10.846   4.036   3.300
 4600W        W 8651   0.741   8.607   8.964
 4601W        W 8652   0.396   5.649   2.372
 4602W        W 8653   4.645   3.189  10.866
 4603W        W 8654  10.281  10.096  10.578
 4604W        W 8655  11.375   4.405   1.145
 4605W        W 8656   7.993   9.938   1.865
 4606W        W 8657   9.929   4.387   2.907
 4607W        W 8658   2.210   4.853   1.648
 4608W        W 8659   6.509   0.700   9.980
 4609W        W 8660   8.617   6.646   9.274
 4610W        W 8661   5.881   3.378  10.282
 4611W        W 8662   7.190   6.169   1.189
 4612W        W 8663   4.249   6.686   9.473
 4613W        W 8664   8.623   2.079   3.580
 4614W        W 8665   7.445   4.269  11.502
 4615W        W 8666   4.242   0.552  10.889
 4616W        W 8667   9.284   3.380   0.012
 4617W        W 8668   0.319   2.689  10.080
 4618W        W 8669   3.812   2.203   9.553
 4619W        W 8670   7.425  11.277   9.478
 4620W        W 8671   0.154   2.248  11.961
 4621W        W 8672   8.023  11.291   2.010
 4622W        W 8673   1.447   8.441   9.700
 4623W        W 8674   2.334   7.659   9.727
 4624W        W 8675   4.988   2.855   2.245
 4625W        W 8676   5.573   7.081   1.186
 4626W        W 8677   5.686   4.237   2.696
 4627W        W 8678   8.836   9.497   1.190
 4628W        W 8679   8.312   0.203   2.494
 4629W        W 8680   2.801   4.738  10.877
 4630W        W 8681   5.181   9.272  11.553
 4631W        W 8682   6.068   0.359   2.795
 4632W        W 8683   4.176   7.537   9.532
 4633W        W 8684   2.356   3.484   9.484
 4634W        W 8685  11.289  11.243   1.328
 4635W        W 8686   8.411  10.887   3.237
 4636W        W 8687   1.225   2.637   8.867
 4637W        W 8688   2.662   8.635   2.221
 4638W        W 8689  10.105   9.785   0.442
 4639W        W 8690   1.866   2.031  11.943
 4640W        W 8691   5.788   1.220   8.969
 4641W        W 8692   1.836   3.683  10.503
 4642W        W 8693   4.578   3.159   9.963
 4643W        W 8694   5.699   3.631  10.991
 4644W        W 8695   6.447   8.283  10.859
 4645W        W 8696   9.370  10.892   3.067
 4646W        W 8697   1.177   3.128   8.661
 4647W        W 8698   7.713   8.584   2.287
 4648W        W 8699  10.982   8.639   9.342
 4649W        W 8700   3.113   0.805   0.746
 4650W        W 8701   4.722   9.068  10.957
 4651W        W 8702   3.158   0.869   9.098
 4652W        W 8703   6.332   8.871  11.934
 4653W        W 8704   5.168  10.572   3.305
 4654W        W 8705  11.323   2.615  10.024
 4655W        W 8706   8.086   0.980   9.084
 4656W        W 8707   6.745   7.704  11.548
 4657W        W 8708   2.166   9.805   0.750
 4658W        W 8709   0.353  10.973   2.610
 4659W        W 8710  11.071   2.617  10.492
 4660W        W 8711   7.569   5.985   0.845
 4661W        W 8712   3.177   4.354   1.214
 4662W        W 8713   2.337   4.144  11.609
 4663W        W 8714  10.046  10.218   2.296
 4664W        W 8715   7.234  10.315   2.430
 4665W        W 8716   8.293   8.518   3.411
 4666W        W 8717   1.307   9.273   8.973
 4667W        W 8718  10.895   0.864  11.860
 4668W        W 8719   6.514   0.085   2.842
 4669W        W 8720  10.372   8.988   0.085
 4670W        W 8721   2.694   1.158   0.316
 4671W        W 8722   7.831   7.723   0.891
 4672W        W 8723   7.518   4.627  10.043
 4673W        W 8724   5.688   3.595   0.252
 4674W        W 8725  10.487   3.627   1.360
 4675W        W 8726   8.248   2.453   1.949
 4676W        W 8727  11.483   9.038   9.117
 4677W        W 8728   3.238   3.359   9.464
 4678W        W 8729   1.669  10.687   0.457
 4679W        W 8730   2.295   4.369   1.457
 4680W        W 8731   0.547   7.059   0.240
 4681W        W 8732  10.990   7.217   9.032
 4682W        W 8733  10.130   9.098   0.944
 4683W        W 8734   1.373   3.344   3.342
 4684W        W 8735   4.814   0.471  11.526
 4685W        W 8736   0.829  10.908   0.223
 4686W        W 8737   9.525   2.389   1.002
 4687W        W 8738   2.878  10.940   8.489
 4688W        W 8739   4.974   9.377   3.474
 4689W        W 8740   8.072   8.478   0.398
 4690W        W 8741   0.567   2.312   0.292
 4691W        W 8742   0.823   7.426   3.565
 4692W        W 8743   8.068   2.070   8.562
 4693W        W 8744   8.564   8.462   2.512
 4694W        W 8745   6.170   6.211  10.273
 4695W        W 8746   0.301   5.262  10.272
 4696W        W 8747   9.818   9.433  11.137
 4697W        W 8748  10.362   0.747   2.762
 4698W        W 8749   2.887   5.052   2.161
 4699W        W 8750   4.974  11.062  10.319
 4700W        W 8751   4.038  10.562  10.257
 4701W        W 8752   9.593  10.992  10.333
 4702W        W 8753   2.965   4.974   1.675
 4703W        W 8754  10.127   3.759  11.250
 4704W        W 8755   5.109  10.935   1.509
 4705W        W 8756   7.532   0.589  10.654
 4706W        W 8757   6.735   6.285  10.519
 4707W        W 8758   6.262   7.136   0.861
 4708W        W 8759   0.130   4.178   2.676
 4709W        W 8760   7.019   1.443   2.112
 4710W        W 8761   2.987   6.862   1.018
 4711W        W 8762  10.608   0.797   1.836
 4712W        W 8763   9.612   1.686  11.490
 4713W        W 8764   2.454   7.032   0.537
 4714W        W 8765   3.154   9.592  10.088
 4715W        W 8766  10.455   9.002   9.249
 4716W        W 8767   5.121  10.556  11.592
 4717W        W 8768   4.783   5.246   1.265
 4718W        W 8769   8.089   0.654   2.238
 4719W        W 8770   0.599   8.702   0.924
 4720W        W 8771   3.502   4.659   3.543
 4721W        W 8772   6.121   5.207   1.050
 4722W        W 8773   2.024   9.076   1.322
 4723W        W 8774   4.840   0.986   9.315
 4724W        W 8775   0.885   2.443   0.717
 4725W        W 8776   8.616   4.625   9.525
 4726W        W 8777   7.258   9.970  11.076
 4727W        W 8778   4.264   7.143  10.281
 4728W        W 8779   7.386   0.830  10.225
 4729W        W 8780   2.588   4.280  10.715
 4730W        W 8781   0.448  10.805   1.651
 4731W        W 8782   9.738   6.613  10.856
 4732W        W 8783   5.882   6.905   3.534
 4733W        W 8784   5.638   4.522   3.474
 4734W        W 8785  10.795   9.563  11.304
 4735W        W 8786   1.561   6.900   0.533
 4736W        W 8787  10.332   3.660   2.472
 4737W        W 8788   8.864  10.927   2.946
 4738W        W 8789   6.361   0.662   9.511
 4739W        W 8790   9.876   0.455  11.814
 4740W        W 8791   6.029   2.668   9.949
 4741W        W 8792   3.133   1.033   3.074
 4742W        W 8793   1.610   0.672   9.966
 4743W        W 8794   4.724   5.255   1.779
 4744W        W 8795   1.820   0.459  11.748
 4745W        W 8796   1.695   3.367  11.954
 4746W        W 8797  11.415   6.162  10.944
 4747W        W 8798   0.714   9.571   1.093
 4748W        W 8799   6.090   7.904   1.738
 4749W        W 8800   1.248   8.280  10.702
 4750W        W 8801   2.704   0.378  11.741
 4751W        W 8802   5.548   6.689   0.873
 4752W        W 8803   0.257   6.189   1.026
 4753W        W 8804   1.716   9.542   9.117
 4754W        W 8805   7.769   6.597  11.887
 4755W        W 8806   9.963   7.989   9.175
 4756W        W 8807   1.892   7.187   8.944
 4757W        W 8808   7.367  11.294  10.367
 4758W        W 8809   4.858  10.836   0.009
 4759W        W 8810   1.393  10.686   2.751
 4760W        W 8811   8.485   9.905   3.134
 4761W        W 8812   8.185  11.437   3.426
 4762W        W 8813   8.040   0.225   1.327
 4763W        W 8814   4.694   2.203  10.071
 4764W        W 8815   2.243   5.709   2.208
 4765W        W 8816   4.324   1.881  10.159
 4766W        W 8817   9.521  10.085   9.436
 4767W        W 8818   1.391   1.471   0.412
 4768W        W 8819  10.450   5.525   8.921
 4769W        W 8820   5.727  11.428   2.302
 4770W        W 8821  10.284   5.246   1.309
 4771W        W 8822   3.681   8.247   2.698
 4772W        W 8823   2.624   9.101   2.427
 4773W        W 8824   5.018   6.200   1.398
 4774W        W 8825  11.459   4.731  10.070
 4775W        W 8826   2.493   7.189   3.624
 4776W        W 8827   0.705   7.569  10.202
 4777W        W 8828   8.050   0.473   8.930
 4778W        W 8829   1.941  11.244   3.439
 4779W        W 8830   1.051  10.519   1.027
 4780W        W 8831   0.177   9.348   0.485
 4781W        W 8832   9.052   3.443   1.888
 4782W        W 8833   9.684   3.737   0.109
 4783W        W 8834   5.968   1.681  11.815
 4784W        W 8835   9.959   5.264   1.703
 4785W        W 8836   6.091   6.403   1.743
 4786W        W 8837  10.420   5.815  10.990
 4787W        W 8838   6.607   4.325   1.439
 4788W        W 8839   8.204   3.718   2.809
 4789W        W 8840   0.973  11.197   3.546
 4790W        W 8841   3.852   9.802   3.513
 4791W        W 8842  11.245   1.210  10.250
 4792W        W 8843   5.338  10.690   0.084
 4793W        W 8844   6.254   1.539  11.412
 4794W        W 8845   3.234   7.208  11.879
 4795W        W 8846   5.895  11.084  10.413
 4796W        W 8847  11.077  11.216   2.180
 4797W        W 8848   6.080   7.577   0.735
 4798W        W 8849   6.533   9.844   0.850
 4799W        W 8850   1.981   3.260   2.325
 4800W        W 8851   2.900   2.265   1.707
 4801W        W 8852  10.031   9.911   1.349
 4802W        W 8853   2.021  10.486   0.070
 4803W        W 8854   6.179   8.669   9.477
 4804W        W 8855   0.842   2.800   2.705
 4805W        W 8856  10.837   2.236   9.278
 4806W        W 8857   4.237   1.082   3.695
 4807W        W 8858   2.284   3.114  11.266
 4808W        W 8859  10.677   0.079   2.209
 4809W        W 8860   2.548  11.369  11.781
 4810W        W 8861   0.899   1.360   2.877
 4811W        W 8862   1.312   1.048  10.099
 4812W        W 8863   3.111   1.172   0.011
 4813W        W 8864   8.548   3.580   0.397
 4814W        W 8865  11.477   3.863   0.497
 4815W        W 8866  10.437   5.302   9.918
 4816W        W 8867   2.229   5.232   8.576
 4817W        W 8868   2.629   5.082   3.159
 4818W        W 8869   6.545   3.948  11.821
 4819W        W 8870   8.449   9.332   2.411
 4820W        W 8871   8.183   2.359   1.451
 4821W        W 8872   0.204   9.519   0.967
 4822W        W 8873   3.223   1.601  10.906
 4823W        W 8874   1.997  11.467  10.451
 4824W        W 8875   7.104   9.300   8.479
 4825W        W 8876   7.275   4.261   2.756
 4826W        W 8877   9.979  11.457  11.009
 4827W        W 8878   8.382   0.820  11.685
 4828W        W 8879   4.669   3.742   9.059
 4829W        W 8880   5.992   9.579   3.049
 4830W        W 8881   9.048   1.729   9.804
 4831W        W 8882   5.754   6.437   3.104
 4832W        W 8883   6.936   2.211  10.492
 4833W        W 8884   5.464   4.510   8.324
 4834W        W 8885   2.724   7.089   8.587
 4835W        W 8886   4.677   4.830  10.487
 4836W        W 8887   7.927   6.211   9.755
 4837W        W 8888   3.562  11.262   2.147
 4838W        W 8889  11.275   2.029   9.467
 4839W        W 8890  10.270   0.483  10.233
 4840W        W 8891  10.413   8.340   0.493
 4841W        W 8892   4.524   2.383   0.518
 4842W        W 8893   6.999   8.918   1.751
 4843W        W 8894   5.140   2.630   9.002
 4844W        W 8895   6.976   2.747   2.261
 4845W        W 8896   2.584   0.943   0.764
 4846W        W 8897  10.564   3.504  11.265
 4847W        W 8898   9.634   4.098   0.453
 4848W        W 8899   6.079   8.164   1.292
 4849W        W 8900   3.139  11.287   0.954
 4850W        W 8901   0.252  10.024   0.888
 4851W        W 8902   5.702  10.482   1.639
 4852W        W 8903   6.935   2.951   0.955
 4853W        W 8904  10.420   4.871  10.832
 4854W        W 8905   3.504  10.861   1.297
 4855W        W 8906   8.037   2.312   2.405
 4856W        W 8907   8.340   0.214   1.979
 4857W        W 8908   2.425   5.127  10.795
 4858W        W 8909   1.854   9.668   2.029
 4859W        W 8910   2.257  10.497   9.624
 4860W        W 8911   3.027   9.334   2.669
 4861W        W 8912   6.780   2.609   2.717
 4862W        W 8913  10.641   5.465   3.150
 4863W        W 8914   6.822   8.017   1.072
 4864W        W 8915   3.911   8.762   0.446
 4865W        W 8916   8.554  10.838   9.067
 4866W        W 8917   9.958  10.955  10.869
 4867W        W 8918   0.307  11.415   8.790
 4868W        W 8919   9.387   7.503   2.562
 4869W        W 8920  11.438   6.554   1.349
 4870W        W 8921  10.451   3.177   3.222
 4871W        W 8922   4.921   1.777   2.288
 4872W        W 8923  10.339   4.644  11.900
 4873W        W 8924   7.574   2.031   3.021
 4874W        W 8925   6.119   8.424   1.731
 4875W        W 8926  10.805   0.616   2.297
 4876W        W 8927   3.869   1.341   2.940
 4877W        W 8928   1.451   6.098   0.560
 4878W        W 8929   6.167   5.048   0.023
 4879W        W 8930   7.054   5.165   1.162
 4880W        W 8931   2.293  10.288   1.435
 4881W        W 8932   8.847   1.331   2.257
 4882W        W 8933   8.570  10.376   9.943
 4883W        W 8934   0.744   0.583  11.414
 4884W        W 8935   1.473   4.077   2.311
 4885W        W 8936   4.087   6.336   8.078
 4886W        W 8937   8.847   2.072   3.100
 4887W        W 8938   2.232   2.461   2.206
 4888W        W 8939  10.568   0.284   9.823
 4889W        W 8940   0.769   9.489  10.403
 4890W        W 8941   3.581   7.481  11.266
 4891W        W 8942   7.727   5.071  11.052
 4892W        W 8943   3.131   6.775   8.515
 4893W        W 8944   0.920   7.962   0.587
 4894W        W 8945   5.975   2.571   3.617
 4895W        W 8946   3.177   7.595  10.520
 4896W        W 8947   8.374  10.862  10.031
 4897W        W 8948   9.573  10.883   8.943
 4898W        W 8949   3.507   8.885   9.531
 4899W        W 8950   7.791   3.605   1.875
 4900W        W 8951   2.954   1.154  10.929
 4901W        W 8952   2.307   7.446  11.062
 4902W        W 8953   7.953   5.509  10.316
 4903W        W 8954   5.206   8.614   1.653
 4904W        W 8955  11.456   2.068   9.940
 4905W        W 8956   6.612   1.436   0.358
 4906W        W 8957   2.602   5.773   0.244
 4907W        W 8958   0.868   3.615  11.955
 4908W        W 8959   3.672   6.312   9.000
 4909W        W 8960   0.886   9.554   9.087
 4910W        W 8961  10.154   6.577   3.832
 4911W        W 8962   4.671   7.480  11.038
 4912W        W 8963   7.109   8.070   0.228
 4913W        W 8964  10.008   5.183   9.558
 4914W        W 8965   0.283   1.649   2.253
 4915W        W 8966   2.863   1.431   2.846
 4916W        W 8967   1.535  10.444   2.287
 4917W        W 8968  11.424   7.017  11.451
 4918W        W 8969   9.488   3.434   2.188
 4919W        W 8970   8.959   0.894   9.336
 4920W        W 8971   3.658  10.355   1.174
 4921W        W 8972  10.923   2.198  11.443
 4922W        W 8973  10.441   0.100   9.345
 4923W        W 8974   9.247   6.094   2.426
 4924W        W 8975   6.870   7.489   3.175
 4925W        W 8976   6.268  11.313   1.645
 4926W        W 8977   6.390   5.866   9.623
 4927W        W 8978   7.256   2.736   1.361
 4928W        W 8979  10.238   6.514   1.923
 4929W        W 8980   0.758   5.761  11.048
 4930W        W 8981   5.464   2.850   2.414
 4931W        W 8982   7.523   0.472   0.443
 4932W        W 8983   1.131   6.026   0.946
 4933W        W 8984   3.596   8.546   3.139
 4934W        W 8985  10.195   1.164   0.050
 4935W        W 8986   2.742   1.907   0.703
 4936W        W 8987   3.190  10.467   9.571
 4937W        W 8988   3.921   6.969  11.159
 4938W        W 8989   7.431   1.960  10.509
 4939W        W 8990   4.227   2.410   8.819
 4940W        W 8991   3.397   9.872  11.931
 4941W        W 8992   8.751   3.832   1.703
 4942W        W 8993   8.025   6.489   2.770
 4943W        W 8994   1.156  10.455  11.985
 4944W        W 8995  10.438   7.481   0.159
 4945W        W 8996  10.831   1.579   2.451
 4946W        W 8997   9.935   8.951   0.470
 4947W        W 8998   9.629   4.213   8.999
 4948W        W 8999   2.616   1.356  11.255
 4949W        W 9000   4.192  10.997   1.682
 4950W        W 9001   7.004   0.806   3.141
 4951W        W 9002   8.543   8.820   1.712
 4952W        W 9003   1.826   3.022   2.739
 4953W        W 9004   0.002   2.881  10.456
 4954W        W 9005   8.876   7.822  10.622
 4955W        W 9006   5.916  10.439   1.178
 4956W        W 9007   2.648  11.338   2.605
 4957W        W 9008   2.598   2.429   1.271
 4958W        W 9009  10.329   7.425   2.394
 4959W        W 9010   9.339   4.806   2.291
 4960W        W 9011   2.917   5.093   1.195
 4961W        W 9012  10.369   1.659  10.952
 4962W        W 9013  10.887   6.141   3.230
 4963W        W 9014   1.237   4.291   9.391
 4964W        W 9015   1.334   0.399   1.994
 4965W        W 9016   7.219   7.920  11.485
 4966W        W 9017   3.818   8.145   1.912
 4967W        W 9018   1.711   8.148   2.269
 4968W        W 9019   5.888   7.269  11.766
 4969W        W 9020   0.763   3.279   3.543
 4970W        W 9021   2.201   5.856   3.234
 4971W        W 9022  10.264  11.417   2.494
 4972W        W 9023   6.453   0.942  10.420
 4973W        W 9024   6.507   6.224   2.020
 4974W        W 9025  10.135   5.108  11.930
 4975W        W 9026  10.997   4.974  10.806
 4976W        W 9027   8.851   6.515   8.287
 4977W        W 9028   1.762   4.955   0.766
 4978W        W 9029   6.452   5.746   0.413
 4979W        W 9030   6.660   4.940  11.964
 4980W        W 9031   6.231  10.425   1.623
 4981W        W 9032  11.067   0.494   9.908
 4982W        W 9033  10.175   3.752   0.210
 4983W        W 9034   5.223   6.705   2.267
 4984W        W 9035   9.356   5.957   9.496
 4985W        W 9036   0.403   9.025  11.598
 4986W        W 9037   2.305   3.706   0.345
 4987W        W 9038   4.941   9.959   9.223
 4988W        W 9039   9.100   5.513   9.555
 4989W        W 9040   1.735   6.740   9.894
 4990W        W 9041   4.753  11.474  11.568
 4991W        W 9042   7.040   5.543  11.211
 4992W        W 9043   2.483   4.153   2.263
 4993W        W 9044   6.682  11.044   3.540
 4994W        W 9045   7.899   5.915  11.452
 4995W        W 9046   6.735   7.964   0.573
 4996W        W 9047   3.511   7.923   2.309
 4997W        W 9048   8.385   6.060  11.413
 4998W        W 9049  11.417   6.432   9.823
 4999W        W 9050   1.998   2.667   9.407
 5000W        W 9051   7.369   9.710   8.565
 5001W        W 9052   5.793   6.653   1.385
 5002W        W 9053  11.228   2.134   8.964
 5003W        W 9054   8.261  10.572  11.436
 5004W        W 9055   0.165   8.071  11.288
 5005W        W 9056  10.015   5.223   3.506
 5006W        W 9057   0.921   9.002   3.623
 5007W        W 9058   2.877   6.534  11.907
 5008W        W 9059   7.291  10.439  11.341
 5009W        W 9060   4.016   0.207   3.536
 5010W        W 9061   8.045   6.842   1.230
 5011W        W 9062   8.658   4.031   2.703
 5012W        W 9063   3.636  11.231   0.862
 5013W        W 9064   0.702   7.740   2.440
 5014W        W 9065   5.444   9.435   3.674
 5015W        W 9066   0.995   9.613  10.890
 5016W        W 9067   7.394   2.602   9.935
 5017W        W 9068   4.161   6.080   1.674
 5018W        W 9069   7.525  11.091   2.727
 5019W        W 9070   8.573   7.403  10.698
 5020W        W 9071   6.546   6.135   8.217
 5021W        W 9072   2.669   6.461   0.951
 5022W        W 9073   3.273   2.623  11.992
 5023W        W 9074   6.538   8.454   9.185
 5024W        W 9075   2.613  11.110   1.058
 5025W        W 9076   6.728  10.279   2.430
 5026W        W 9077   3.095   1.187   1.062
 5027W        W 9078   8.689  10.315   9.004
 5028W        W 9079   5.449   3.136   9.271
 5029W        W 9080   5.942   5.803  10.513
 5030W        W 9081  10.038   3.689  11.729
 5031W        W 9082  10.021   5.607   9.184
 5032W        W 9083   8.508   2.583  10.107
 5033W        W 9084   5.289   2.140  11.488
 5034W        W 9085   0.567   2.312  10.342
 5035W        W 9086   1.367   9.508  11.578
 5036W        W 9087   6.671   8.387   2.281
 5037W        W 9088   8.147   9.491   3.236
 5038W        W 9089   9.873   8.644   2.842
 5039W        W 9090   2.516   6.684   3.450
 5040W        W 9091   1.370   1.460   1.786
 5041W        W 9092   9.805   9.333   2.152
 5042W        W 9093   5.310   5.116  11.605
 5043W        W 9094   6.706  11.448   1.430
 5044W        W 9095   8.939   8.235   8.164
 5045W        W 9096   2.734   7.912   9.879
 5046W        W 9097   1.654   1.559   2.604
 5047W        W 9098   5.790   9.132   0.528
 5048W        W 9099  10.923   5.553  11.884
 5049W        W 9100   1.476   4.549   9.023
 5050W        W 9101   5.590   6.148  10.669
 5051W        W 9102  11.197  10.782   9.508
 5052W        W 9103   9.353   1.851   1.057
 5053W        W 9104   5.246   1.389   8.599
 5054W        W 9105   9.633   3.798   9.504
 5055W        W 9106   2.510   2.929  10.522
 5056W        W 9107   3.748   8.457   9.243
 5057W        W 9108  11.125   1.502   0.978
 5058W        W 9109   8.616  10.814  10.486
 5059W        W 9110   5.596   7.638   8.306
 5060W        W 9111   1.397   5.703   2.750
 5061W        W 9112   7.567  10.931   1.323
 5062W        W 9113   0.463   1.485   0.295
 5063W        W 9114   4.514   1.269  11.989
 5064W        W 9115   0.260   7.513   2.523
 5065W        W 9116   2.474   5.302   0.514
 5066W        W 9117   7.809   5.500  11.715
 5067W        W 9118   7.598   8.913  10.180
 5068W        W 9119   3.062   1.835  10.051
 5069W        W 9120   3.997   0.459   1.974
 5070W        W 9121   7.490   0.676  11.609
 5071W        W 9122   4.077   4.824   0.807
 5072W        W 9123   9.610   1.378   2.905
 5073W        W 9124   6.642   7.540   9.181
 5074W        W 9125   3.261   7.797   8.919
 5075W        W 9126  11.477   0.795  10.815
 5076W        W 9127   1.422   5.103   9.009
 5077W        W 9128   7.130  10.454   3.335
 5078W        W 9129   1.280   2.315   2.931
 5079W        W 9130   8.785   3.141  10.979
 5080W        W 9131   1.773   7.639  11.868
 5081W        W 9132   4.090   2.169   2.207
 5082W        W 9133  10.109   1.730  11.391
 5083W        W 9134   3.351   8.629   2.699
 5084W        W 9135   7.836   7.422   3.256
 5085W        W 9136   4.594   4.399  11.315
 5086W        W 9137  11.308   9.250  11.287
 5087W        W 9138   8.556   7.186  10.227
 5088W        W 9139   3.450   7.079  10.976
 5089W        W 9140   1.941   0.259  10.001
 5090W        W 9141   2.925  10.045   0.511
 5091W        W 9142   0.525  11.037   9.101
 5092W        W 9143   1.777   6.453   2.454
 5093W        W 9144   3.594   8.857  10.026
 5094W        W 9145   8.522   2.825   3.147
 5095W        W 9146   6.997   0.710  11.781
 5096W        W 9147   9.345  11.165  11.691
 5097W        W 9148   9.317  11.113   9.350
 5098W        W 9149   2.655   5.567   9.260
 5099W        W 9150   1.377   7.893  10.402
 5100W        W 9151   4.356   9.097   8.577
 5101W        W 9152  11.113   9.594   3.085
 5102W        W 9153   0.790   6.609   0.293
 5103W        W 9154   3.796   8.005   0.508
 5104W        W 9155   2.466   9.614  11.134
 5105W        W 9156   9.006   6.295   1.792
 5106W        W 9157   4.348   7.121   2.612
 5107W        W 9158  10.765   8.241   3.131
 5108W        W 9159   6.625   9.408   0.559
 5109W        W 9160   1.365   0.473   0.917
 5110W        W 9161   4.556   3.020   1.920
 5111W        W 9162   8.597   3.627   8.389
 5112W        W 9163   4.485   5.991  10.651
 5113W        W 9164   4.463   1.466   3.325
 5114W        W 9165   3.470   9.113   2.802
 5115W        W 9166   0.876   5.311   3.175
 5116W        W 9167   0.289  11.072   3.626
 5117W        W 9168   0.241   9.453  10.429
 5118W        W 9169   1.910  10.925   2.616
 5119W        W 9170   1.891   3.227   3.200
 5120W        W 9171  11.433  10.808   2.315
 5121W        W 9172   0.382   5.412  11.659
 5122W        W 9173   1.751  11.370   1.935
 5123W        W 9174   3.765   7.625   1.887
 5124W        W 9175   7.998   6.931  11.523
 5125W        W 9176   4.595   4.385   1.685
 5126W        W 9177  10.840   0.976  10.077
 5127W        W 9178  10.626   2.244  11.865
 5128W        W 9179   5.475   5.217  10.212
 5129W        W 9180   7.449   8.855  10.667
 5130W        W 9181   4.036   3.119  10.524
 5131W        W 9182   0.770   4.324   9.071
 5132W        W 9183   3.250   6.692   9.350
 5133W        W 9184   4.507   3.768   2.324
 5134W        W 9185  10.890   2.158   3.571
 5135W        W 9186   6.523   9.799   2.357
 5136W        W 9187   0.915   1.662   3.311
 5137W        W 9188   0.945   1.906  11.505
 5138W        W 9189   1.395   9.916  11.257
 5139W        W 9190   2.640   3.793   9.937
 5140W        W 9191   3.386   3.197  11.969
 5141W        W 9192   1.008   7.938   2.864
 5142W        W 9193   8.130   4.595   3.139
 5143W        W 9194   6.008   2.815   8.576
 5144W        W 9195  10.396   7.007   3.206
 5145W        W 9196   6.197   1.792   0.270
 5146W        W 9197  11.463   9.215   1.773
 5147W        W 9198   0.425   9.557   2.475
 5148W        W 9199   5.022   4.308   3.610
 5149W        W 9200   1.556   1.916   1.685
 5150W        W 9201   2.225   0.740   1.084
 5151W        W 9202   5.247   1.281   1.630
 5152W        W 9203   3.054   5.375   3.383
 5153W        W 9204   6.048   7.428  10.780
 5154W        W 9205  10.841   2.783  10.057
 5155W        W 9206   6.172   2.141  11.869
 5156W        W 9207   4.601   4.839  11.957
 5157W        W 9208  10.589   1.288   3.229
 5158W        W 9209   0.892   8.419   1.241
 5159W        W 9210   5.706   0.944   9.402
 5160W        W 9211   6.894   4.077   1.842
 5161W        W 9212   3.587   5.208   8.335
 5162W        W 9213   8.843  11.365   1.182
 5163W        W 9214   3.709   7.458  11.748
 5164W        W 9215   9.058   2.272  10.990
 5165W        W 9216   9.965   9.823   9.303
 5166W        W 9217   4.196   5.180   1.592
 5167W        W 9218   2.489  10.432   2.608
 5168W        W 9219   1.300   4.730   0.703
 5169W        W 9220   1.263   8.139   1.047
 5170W        W 9221   1.896   4.074  10.122
 5171W        W 9222   2.638   4.641   2.427
 5172W        W 9223   7.910   8.808  11.572
 5173W        W 9224   8.560   5.741   2.621
 5174W        W 9225  10.262   7.020   0.940
 5175W        W 9226   0.807   4.205   3.481
 5176W        W 9227   0.929   5.522   2.535
 5177W        W 9228   8.771   6.101   1.014
 5178W        W 9229   1.792   4.125   2.841
 5179W        W 9230   2.069   9.555   3.133
 5180W        W 9231   5.117   7.030   0.214
 5181W        W 9232  10.745   2.668   1.678
 5182W        W 9233   9.531   5.735   9.013
 5183W        W 9234  10.841  10.430   8.768
 5184W        W 9235   3.608   4.200   1.463
 5185W        W 9236   0.419   5.477  10.773
 5186W        W 9237   6.087   7.625   1.250
 5187W        W 9238   9.656   1.213   3.387
 5188W        W 9239   3.359   4.292   9.899
 5189W        W 9240  11.072   1.207   3.394
 5190W        W 9241   8.102   1.916   9.102
 5191W        W 9242   6.039   0.953   3.463
 5192W        W 9243   0.704  10.878  10.336
 5193W        W 9244   6.950   9.614   8.865
 5194W        W 9245  10.975   2.479   2.658
 5195W        W 9246   9.213   5.344   9.093
 5196W        W 9247   0.950   4.151  10.765
 5197W        W 9248   9.548  10.361   2.361
 5198W        W 9249   3.845   6.464  11.294
 5199W        W 9250   1.826   7.542  10.935
 5200W        W 9251   3.693   6.118   2.000
 5201W        W 9252   2.677   1.758   9.287
 5202W        W 9253   8.913   4.160  10.181
 5203W        W 9254   4.947   3.069   9.183
 5204W        W 9255   6.383   6.236   0.523
 5205W        W 9256   8.631   1.881   9.043
 5206W        W 9257   9.455  10.831   2.177
 5207W        W 9258   9.117   5.206   0.025
 5208W        W 9259   4.651   9.486   0.261
 5209W        W 9260   3.399   7.037   2.310
 5210W        W 9261   2.009   6.335   9.721
 5211W        W 9262   6.785  11.131   0.909
 5212W        W 9263   3.994   0.997   9.936
 5213W        W 9264   6.123   0.544   8.795
 5214W        W 9265   9.128   6.608  11.677
 5215W        W 9266   9.563   1.439   1.942
 5216W        W 9267   8.971   8.535   8.581
 5217W        W 9268   6.602   6.817   3.401
 5218W        W 9269  10.414   5.208   0.432
 5219W        W 9270   0.804   7.130  10.514
 5220W        W 9271   2.241   5.578  10.585
 5221W        W 9272   1.518   4.973   9.854
 5222W        W 9273   0.285   2.131  11.477
 5223W        W 9274   9.297  11.479   2.927
 5224W        W 9275   7.976   1.194   0.172
 5225W        W 9276   3.366   7.073   1.283
 5226W        W 9277   3.573   8.464   1.131
 5227W        W 9278   8.942   7.312  11.542
 5228W        W 9279   2.489   4.259   0.104
 5229W        W 9280   0.874   0.302   1.323
 5230W        W 9281   5.294   1.115   9.058
 5231W        W 9282   7.955   9.351  10.877
 5232W        W 9283   1.248   8.656  11.083
 5233W        W 9284   2.655   0.084   2.155
 5234W        W 9285   3.166  10.824   0.136
 5235W        W 9286   0.641   5.482   0.438
 5236W        W 9287   1.110   1.839   9.512
 5237W        W 9288   2.086   2.909  10.823
 5238W        W 9289   8.482   4.927   2.315
 5239W        W 9290   6.637   0.426  11.202
 5240W        W 9291   9.361   9.861  11.973
 5241W        W 9292   9.688   8.537   1.147
 5242W        W 9293  11.148   8.218  10.692
 5243W        W 9294  11.042   3.974  10.972
 5244W        W 9295   9.319   2.169  11.523
 5245W        W 9296   3.164   4.772   2.515
 5246W        W 9297  11.220   0.478   0.095
 5247W        W 9298   1.492   2.728   9.454
 5248W        W 9299   9.818   2.153  11.503
 5249W        W 9300   7.598   4.128  10.170
 5250W        W 9301   0.660   7.611   3.015
 5251W        W 9302   0.967   2.809  11.351
 5252W        W 9303   6.098   2.042  10.840
 5253W        W 9304   7.231   1.509  11.335
 5254W        W 9305   1.796   8.202   3.112
 5255W        W 9306   3.938   2.798   1.150
 5256W        W 9307   8.524  10.016  11.814
 5257W        W 9308  10.400   1.258   1.790
 5258W        W 9309   1.723   0.026   0.931
 5259W        W 9310   9.257   7.619   1.551
 5260W        W 9311   9.564   8.959   9.863
 5261W        W 9312   9.126   5.414   1.904
 5262W        W 9313   3.710   3.097   9.598
 5263W        W 9314   1.717   0.680   3.045
 5264W        W 9315   7.089   6.316  10.149
 5265W        W 9316   5.121   0.742  10.755
 5266W        W 9317   2.853   2.796   1.505
 5267W        W 9318   1.342   8.912   9.510
 5268W        W 9319   4.405   9.952  11.672
 5269W        W 9320   9.370   3.861   9.953
 5270W        W 9321   2.829   0.021   1.264
 5271W        W 9322  10.779   5.397  11.015
 5272W        W 9323   1.329   7.575   0.368
 5273W        W 9324   0.041   4.788  11.044
 5274W        W 9325  11.058   3.520  11.788
 5275W        W 9326   1.233   4.705   2.285
 5276W        W 9327   4.963  10.383   9.540
 5277W        W 9328   4.294   7.133   3.146
 5278W        W 9329   3.423   6.670   0.727
 5279W        W 9330   5.714   8.529  11.341
 5280W        W 9331   9.637   5.131  11.943
 5281W        W 9332   3.402   0.238  10.949
 5282W        W 9333   6.437   3.595   2.395
 5283W        W 9334   9.116   2.439  11.911
 5284W        W 9335   2.731  10.283   9.637
 5285W        W 9336   4.852  10.096  11.448
 5286W        W 9337   8.899   2.938   1.796
 5287W        W 9338   2.875   9.428  10.866
 5288W        W 9339   0.098   1.209   3.393
 5289W        W 9340   3.460   8.843  11.064
 5290W        W 9341   0.397   4.473  10.721
 5291W        W 9342   6.201   8.658   1.165
 5292W        W 9343   2.292   5.661  10.098
 5293W        W 9344   0.479   1.786   1.384
 5294W        W 9345   0.796   6.580   9.535
 5295W        W 9346   0.939   1.256   2.366
 5296W        W 9347  10.778   4.162  11.829
 5297W        W 9348   1.214   9.748  10.331
 5298W        W 9349   4.340   6.534  11.317
 5299W        W 9350   9.145   7.102   2.359
 5300W        W 9351   1.229   6.254   9.462
 5301W        W 9352   3.359  11.287  10.160
 5302W        W 9353   5.124   0.301  11.006
 5303W        W 9354  11.387   1.700   3.150
 5304W        W 9355   1.467   3.107   2.362
 5305W        W 9356  10.829   7.407   0.500
 5306W        W 9357  10.748   6.567   0.404
 5307W        W 9358   5.165   9.922   1.699
 5308W        W 9359   9.477   4.876  11.058
 5309W        W 9360   7.022   0.990   0.795
 5310W        W 9361   2.073   1.539  11.089
 5311W        W 9362   6.178   0.891   1.917
 5312W        W 9363   7.949   1.377  10.906
 5313W        W 9364   1.596   4.184  10.553
 5314W        W 9365  10.799   8.627   2.731
 5315W        W 9366   5.288   0.677   0.301
 5316W        W 9367   3.596   9.639   1.584
 5317W        W 9368   3.354   6.685  11.852
 5318W        W 9369   8.388   1.677  10.831
 5319W        W 9370   1.500   4.511  11.319
 5320W        W 9371  10.396   1.554  11.812
 5321W        W 9372   5.239   0.348   9.993
 5322W        W 9373   9.875   2.678   9.856
 5323W        W 9374   6.620   4.057   0.999
 5324W        W 9375   1.348   6.071  10.358
 5325W        W 9376   7.676   2.149  10.086
 5326W        W 9377  10.581  11.071   2.256
 5327W        W 9378   9.750   5.265  10.841
 5328W        W 9379   0.030   5.544   2.779
 5329W        W 9380   5.809   6.083   2.690
 5330W        W 9381   6.839   9.778   3.647
 5331W        W 9382   3.931   4.200   2.286
 5332W        W 9383   9.791   0.041   2.748
 5333W        W 9384   4.685   7.362   1.988
 5334W        W 9385   3.875   0.577   0.453
 5335W        W 9386   8.713   7.381  11.995
 5336W        W 9387   5.133   3.490   0.017
 5337W        W 9388   1.422   7.542   9.488
 5338W        W 9389  11.368   5.586  10.236
 5339W        W 9390   2.378   2.996   9.389
 5340W        W 9391   8.994   1.465   0.223
 5341W        W 9392   8.014   7.433  11.584
 5342W        W 9393   8.099   8.771   2.999
 5343W        W 9394   7.685   1.526  10.496
 5344W        W 9395   5.698   2.362  11.277
 5345W        W 9396   7.976   1.891  11.061
 5346W        W 9397   1.401   0.047   0.495
 5347W        W 9398   6.644   4.996  10.563
 5348W        W 9399   1.013   1.978  10.350
 5349W        W 9400   1.678   3.681   3.100
 5350W        W 9401   0.057   9.006   0.828
 5351W        W 9402  10.130   4.231  11.009
 5352W        W 9403   3.016   7.880   8.031
 5353W        W 9404   2.035   5.111   0.345
 5354W        W 9405  10.390   1.438   2.268
 5355W        W 9406   1.385   0.284   2.478
 5356W        W 9407   0.043   5.212   8.515
 5357W        W 9408   2.697   0.881  11.888
 5358W        W 9409   2.706   0.591   2.429
 5359W        W 9410   4.702   7.953  10.819
 5360W        W 9411   0.463   4.524  11.226
 5361W        W 9412   0.975   5.805   3.009
 5362W        W 9413   9.077  10.874   1.810
 5363W        W 9414   3.757   0.001   2.795
 5364W        W 9415   6.432   1.512  11.890
 5365W        W 9416   6.636  10.447   8.926
 5366W        W 9417   4.310   4.677   9.146
 5367W        W 9418   7.193   3.360  10.559
 5368W        W 9419   9.432  10.246   0.863
 5369W        W 9420   9.070  10.778   9.040
 5370W        W 9421   1.906  11.257   9.379
 5371W        W 9422  10.239   9.625  11.969
 5372W        W 9423   0.401   4.626   0.705
 5373W        W 9424   6.083   4.608   2.666
 5374W        W 9425   8.051  10.041   9.577
 5375W        W 9426  11.429   0.125  10.086
 5376W        W 9427   4.414   2.785  10.616
 5377W        W 9428   2.830  10.794   9.427
 5378W        W 9429   5.529   4.606   9.618
 5379W        W 9430  10.331   2.885  10.008
 5380W        W 9431   5.076   0.345  11.961
 5381W        W 9432   7.520   4.018   1.074
 5382W        W 9433   6.803   7.115  10.403
 5383W        W 9434   4.627   4.643   2.504
 5384W        W 9435   7.124   5.294  10.356
 5385W        W 9436   6.233   3.865  11.439
 5386W        W 9437   2.923   6.621  11.405
 5387W        W 9438   9.931   9.586   1.721
 5388W        W 9439   9.028   8.945   8.887
 5389W        W 9440   8.968  11.485  11.959
 5390W        W 9441   7.521   9.687   0.496
 5391W        W 9442   2.666   1.431   0.845
 5392W        W 9443   1.187   8.383   0.240
 5393W        W 9444   8.099   2.375  11.007
 5394W        W 9445   1.149   9.152  11.040
 5395W        W 9446   5.711   1.461   1.433
 5396W        W 9447   6.191   3.790   3.324
 5397W        W 9448   4.140   8.249  10.740
 5398W        W 9449   8.093   6.760   9.579
 5399W        W 9450   3.866   8.655   1.854
 5400W        W 9451   9.005  11.435   3.391
 5401W        W 9452   4.152   8.851   1.240
 5402W        W 9453   6.109   1.898  10.363
 5403W        W 9454   8.654   9.495   3.369
 5404W        W 9455   3.642   7.528   9.725
 5405W        W 9456   3.558   0.991   2.690
 5406W        W 9457   1.204  10.813  10.305
 5407W        W 9458   8.861  10.383   1.132
 5408W        W 9459  11.308   4.688   2.126
 5409W        W 9460   5.240   2.741   8.503
 5410W        W 9461   4.279   5.203   1.086
 5411W        W 9462   1.727   6.475   3.023
 5412W        W 9463   0.250  11.424   9.302
 5413W        W 9464   3.245   1.270  10.515
 5414W        W 9465   9.994   8.623   0.068
 5415W        W 9466   3.415  11.004   8.393
 5416W        W 9467   5.420   9.510   1.446
 5417W        W 9468   5.518   8.972  10.359
 5418W        W 9469   6.074   4.528   9.757
 5419W        W 9470   2.897   8.115  11.481
 5420W        W 9471   8.478  11.251   8.744
 5421W        W 9472   0.828   2.355  10.809
 5422W        W 9473   9.460   4.553   0.489
 5423W        W 9474   2.501   3.269   2.284
 5424W        W 9475   9.985   2.204   2.345
 5425W        W 9476   7.318   6.175   8.805
 5426W        W 9477  10.692   0.270   2.700
 5427W        W 9478   7.554   0.437   1.447
 5428W        W 9479   7.643   9.959   9.288
 5429W        W 9480   3.684   2.687   2.751
 5430W        W 9481  10.384   6.025   9.025
 5431W        W 9482   0.355   3.713   9.407
 5432W        W 9483   8.737   6.346  10.018
 5433W        W 9484  10.982   4.588   9.933
 5434W        W 9485   5.025   4.767   0.656
 5435W        W 9486   3.796   9.883   3.014
 5436W        W 9487   9.038   3.768   2.914
 5437W        W 9488   2.170   0.787   2.574
 5438W        W 9489   7.045   5.491   1.559
 5439W        W 9490   0.033   6.137   0.546
 5440W        W 9491   4.640   9.896   3.107
 5441W        W 9492  10.688   3.099  11.539
 5442W        W 9493   9.893   2.244   9.579
 5443W        W 9494   3.144   4.254   8.893
 5444W        W 9495  10.036   0.366  11.340
 5445W        W 9496   8.052   2.644   3.340
 5446W        W 9497   3.946   5.253  11.091
 5447W        W 9498   1.168   4.246  10.302
 5448W        W 9499   0.491   1.217   2.085
 5449W        W 9500   4.322   0.249  11.530
 5450W        W 9501   3.359   0.330  10.423
 5451W        W 9502   5.876   0.543   1.732
 5452W        W 9503   5.283   7.907   2.214
 5453W        W 9504   4.650   8.510  11.904
 5454W        W 9505   8.441   7.176   1.152
 5455W        W 9506   9.485   6.544   2.589
 5456W        W 9507   8.302   3.816   9.149
 5457W        W 9508   3.277   7.955  11.199
 5458W        W 9509   8.257   3.188   8.496
 5459W        W 9510   7.447   6.123   2.137
 5460W        W 9511  10.902   5.696   9.063
 5461W        W 9512   5.989   9.149   9.488
 5462W        W 9513   5.735  11.007  11.956
 5463W        W 9514   8.963   9.984   9.579
 5464W        W 9515   5.257   1.618   9.766
 5465W        W 9516   8.997   6.437   1.309
 5466W        W 9517   4.778   9.921   0.032
 5467W        W 9518   7.728   7.591  11.976
 5468W        W 9519   0.747   2.215   1.209
 5469W        W 9520  10.958   4.309   9.352
 5470W        W 9521  10.814  11.077   8.548
 5471W        W 9522   1.292   5.242   0.744
 5472W        W 9523   7.009   9.840   1.730
 5473W        W 9524   8.092   5.420  11.294
 5474W        W 9525   1.181   5.234  10.125
 5475W        W 9526   2.693   3.282   0.743
 5476W        W 9527   7.456  10.549   1.681
 5477W        W 9528   9.995  10.445  10.808
 5478W        W 9529   6.273   6.662   2.185
 5479W        W 9530  10.268   9.190   2.281
 5480W        W 9531   2.395   2.272   1.745
 5481W        W 9532   8.859   7.636   0.785
 5482W        W 9533  10.960   4.724   1.183
 5483W        W 9534   9.813  10.989  11.781
 5484W        W 9535  11.128   2.253  11.959
 5485W        W 9536   3.905   1.592  11.485
 5486W        W 9537  11.486   4.212   8.549
 5487W        W 9538   7.586   7.113  11.777
 5488W        W 9539   5.975   2.757   1.873
 5489W        W 9540   1.823  10.893   2.113
 5490W        W 9541   6.134  10.561   3.665
 5491W        W 9542   8.789   8.897  11.615
 5492W        W 9543  10.421   4.110   3.602
 5493W        W 9544   4.605   0.455  10.444
 5494W        W 9545   5.251   0.859   2.429
 5495W        W 9546   7.362   7.603   3.227
 5496W        W 9547   9.681   2.602   2.794
 5497W        W 9548   1.790   0.436   8.495
 5498W        W 9549   8.060   6.834  10.373
 5499W        W 9550   9.312   1.100   8.553
 5500W        W 9551   6.904   2.486  11.531
 5501W        W 9552   8.635   0.758  10.671
 5502W        W 9553   0.793   7.725   8.855
 5503W        W 9554   2.202   3.632  11.816
 5504W        W 9555   9.449  10.813  10.809
 5505W        W 9556   8.881   4.341   1.726
 5506W        W 9557   4.847   7.164   8.951
 5507W        W 9558   5.331   8.293   2.608
 5508W        W 9559   0.497   3.195   9.275
 5509W        W 9560  10.537   6.118   0.341
 5510W        W 9561  10.925   6.668   9.087
 5511W        W 9562   0.960   6.153   0.441
 5512W        W 9563   5.857   1.377   0.241
 5513W        W 9564   1.347   8.950   1.510
 5514W        W 9565   7.727   2.482   1.260
 5515W        W 9566   2.713   3.019   8.808
 5516W        W 9567   9.471   9.159   0.353
 5517W        W 9568   3.672   0.868  11.837
 5518W        W 9569  10.088   5.171   0.847
 5519W        W 9570  11.079   7.374   1.999
 5520W        W 9571   1.600   8.070   8.864
 5521W        W 9572   1.572   2.889  11.944
 5522W        W 9573   4.158   1.263   9.503
 5523W        W 9574   6.075   3.257  11.602
 5524W        W 9575   6.171   6.737   9.382
 5525W        W 9576  11.359   8.895   0.318
 5526W        W 9577   4.095   9.304   0.883
 5527W        W 9578   8.055   5.221   2.358
 5528W        W 9579   6.877   1.669  11.702
 5529W        W 9580   5.292   7.161  10.426
 5530W        W 9581   9.121   8.073   3.226
 5531W        W 9582   7.222   3.794  11.330
 5532W        W 9583   7.120   8.962   1.243
 5533W        W 9584   0.365   5.032   9.804
 5534W        W 9585   9.596   8.891   1.964
 5535W        W 9586   8.435   0.298  10.865
 5536W        W 9587   3.671   4.585   1.079
 5537W        W 9588   6.144   0.307   9.831
 5538W        W 9589   1.523   5.657   0.941
 5539W        W 9590   4.433   0.834   9.612
 5540W        W 9591   3.725   3.623   0.250
 5541W        W 9592   8.777  10.303   0.628
 5542W        W 9593   0.743   4.632   8.639
 5543W        W 9594   2.662   6.436   1.864
 5544W        W 9595   0.716   6.538   8.466
 5545W        W 9596   3.167   0.014   1.936
 5546W        W 9597   9.447   9.744   0.696
 5547W        W 9598   4.491   4.333   1.206
 5548W        W 9599   8.217   3.218   2.622
 5549W        W 9600   7.819   9.073   2.079
 5550W        W 9601   8.579   8.676   0.428
 5551W        W 9602   0.811   8.344  11.827
 5552W        W 9603   9.593   5.537  10.385
 5553W        W 9604   1.270   8.290   3.174
 5554W        W 9605   5.561  10.814  10.099
 5555W        W 9606   5.065   7.631  10.575
 5556W        W 9607   2.035   2.490   8.531
 5557W        W 9608   7.709   8.587   1.376
 5558W        W 9609   5.082  10.488   2.805
 5559W        W 9610  11.015   6.642   0.818
 5560W        W 9611   2.330   2.277  11.962
 5561W        W 9612   9.981   7.640   2.785
 5562W        W 9613   3.674   1.700   8.859
 5563W        W 9614  10.386   7.105  11.087
 5564W        W 9615   2.305   0.980   1.703
 5565W        W 9616   2.600  11.071  11.337
 5566W        W 9617   5.568   0.875  10.991
 5567W        W 9618   4.420   9.847   9.312
 5568W        W 9619   6.461   6.572   0.155
 5569W        W 9620  10.849   3.047   2.028
 5570W        W 9621  10.446   1.118   9.323
 5571W        W 9622   5.969   5.764   9.225
 5572W        W 9623   2.193   2.333   2.708
 5573W        W 9624   8.094   7.834   2.536
 5574W        W 9625   7.496  10.982  11.992
 5575W        W 9626  11.341   8.537   2.784
 5576W        W 9627   4.897   3.984  11.208
 5577W        W 9628   5.593   1.941   1.514
 5578W        W 9629   0.370   2.888   2.965
 5579W        W 9630   7.659  11.358   9.939
 5580W        W 9631   7.742   8.933  11.090
 5581W        W 9632   5.969   3.967   2.356
 5582W        W 9633   5.218   7.461   0.470
 5583W        W 9634   8.178   1.934   1.737
 5584W        W 9635   8.675   8.095   8.595
 5585W        W 9636   5.073   9.366   0.031
 5586W        W 9637   6.977   4.117   3.434
 5587W        W 9638   6.498   7.324   1.458
 5588W        W 9639   6.177   0.444   3.327
 5589W        W 9640   0.388   3.577   0.168
 5590W        W 9641   7.779   7.125  10.705
 5591W        W 9642   0.079   9.781   0.254
 5592W        W 9643   9.067   2.791   0.320
 5593W        W 9644   8.146   1.655   0.373
 5594W        W 9645   2.179   3.893   9.719
 5595W        W 9646   9.601   9.517   8.556
 5596W        W 9647   3.367   8.312   8.421
 5597W        W 9648   5.460   4.399   9.142
 5598W        W 9649   0.785  10.577  11.144
 5599W        W 9650   8.946   8.593  10.228
 5600W        W 9651   5.614   7.545   1.391
 5601W        W 9652   4.273   4.061  10.739
 5602W        W 9653   4.809   1.729   9.984
 5603W        W 9654   8.565   6.704  10.357
 5604W        W 9655   4.041   9.101  10.181
 5605W        W 9656   3.821   5.285   0.773
 5606W        W 9657   8.853   9.961   3.491
 5607W        W 9658   3.688   5.888  11.647
 5608W        W 9659  10.959   3.124   3.515
 5609W        W 9660   4.787   2.581   2.746
 5610W        W 9661   4.066   0.909   2.725
 5611W        W 9662  10.309  10.504   1.056
 5612W        W 9663   3.849   4.887  11.819
 5613W        W 9664   8.599   4.473  10.863
 5614W        W 9665  10.877   0.374   1.840
 5615W        W 9666   3.694   9.455  11.741
 5616W        W 9667  10.240  10.753   9.587
 5617W        W 9668   7.871   5.132   8.680
 5618W        W 9669   9.561   1.125  10.830
 5619W        W 9670   0.363  11.371  11.112
 5620W        W 9671   9.541   0.227   1.415
 5621W        W 9672  11.381   8.112   9.308
 5622W        W 9673   6.027   8.982  10.429
 5623W        W 9674   0.392   0.844   1.109
 5624W        W 9675   6.904   1.649   9.811
 5625W        W 9676   1.303   4.083  11.527
 5626W        W 9677   9.820   7.504   0.802
 5627W        W 9678   7.886   2.732   9.997
 5628W        W 9679   2.677   8.304  10.628
 5629W        W 9680   9.379   6.513   8.258
 5630W        W 9681  11.301   0.032   2.757
 5631W        W 9682   3.742  11.321   3.306
 5632W        W 9683   3.008   7.817   2.246
 5633W        W 9684   3.748   3.017   2.362
 5634W        W 9685   3.657   6.217   3.517
 5635W        W 9686  11.451   9.865   1.273
 5636W        W 9687   7.730   5.177   0.485
 5637W        W 9688   3.159   2.431   1.305
 5638W        W 9689   0.784   7.964   9.735
 5639W        W 9690   0.521   5.807   1.903
 5640W        W 9691   9.553   3.167   1.346
 5641W        W 9692   5.973   8.286   0.219
 5642W        W 9693   2.284   8.983   2.019
 5643W        W 9694   4.586  10.308   9.056
 5644W        W 9695   7.885  11.411   3.008
 5645W        W 9696   9.432   8.161   0.363
 5646W        W 9697   4.197   6.103  11.071
 5647W        W 9698   1.347   6.996  10.554
 5648W        W 9699   8.451   6.239  10.537
 5649W        W 9700   9.333   4.970  11.578
 5650W        W 9701   0.922   3.752   0.949
 5651W        W 9702   8.020   9.038   3.427
 5652W        W 9703   0.442   9.282   9.012
 5653W        W 9704   8.646   1.259   3.096
 5654W        W 9705   8.540   4.735   9.033
 5655W        W 9706   6.456   6.224  10.946
 5656W        W 9707   2.934   4.709  11.425
 5657W        W 9708   2.270   0.543   9.519
 5658W        W 9709   6.581  11.212   2.483
 5659W        W 9710   5.633   5.144   1.769
 5660W        W 9711   6.027   6.230   8.174
 5661W        W 9712   9.857  10.575   1.972
 5662W        W 9713   3.229   3.777   9.143
 5663W        W 9714   1.176   3.308   1.065
 5664W        W 9715   9.100  11.253   9.992
 5665W        W 9716   9.610   2.892  10.509
 5666W        W 9717   5.069   3.239   0.498
 5667W        W 9718   3.386   9.293   2.302
 5668W        W 9719   5.077   7.798   0.106
 5669W        W 9720   3.084   4.138  10.801
 5670W        W 9721   3.636   1.269   0.691
 5671W        W 9722   6.545   4.128   3.147
 5672W        W 9723   7.550   0.332  10.193
 5673W        W 9724   3.600  10.532  11.850
 5674W        W 9725   9.065   2.750   1.270
 5675W        W 9726   3.823  10.812   2.056
 5676W        W 9727   6.141   9.958   1.412
 5677W        W 9728   5.262   7.925   0.899
 5678W        W 9729   7.848   1.459   9.201
 5679W        W 9730   3.384   7.689   0.065
 5680W        W 9731   7.701   1.148  11.727
 5681W        W 9732   9.925  10.736   0.268
 5682W        W 9733   7.280   8.016   9.432
 5683W        W 9734   7.606   9.746  10.779
 5684W        W 9735   3.333   5.252   1.973
 5685W        W 9736   8.414   4.715  10.439
 5686W        W 9737   3.099   0.623   2.758
 5687W        W 9738  10.482   2.305   2.608
 5688W        W 9739  10.042   0.879   9.608
 5689W        W 9740  10.217   9.374   9.521
 5690W        W 9741   9.462   2.687   3.303
 5691W        W 9742   7.392   9.083  11.445
 5692W        W 9743   8.055   3.357   9.168
 5693W        W 9744   5.810   5.542   1.457
 5694W        W 9745   2.157   5.374   3.433
 5695W        W 9746   0.735   5.736   3.445
 5696W        W 9747   4.080   1.435  11.027
 5697W        W 9748   2.667   4.155   1.767
 5698W        W 9749   5.563   8.254   3.221
 5699W        W 9750   6.610  10.021   8.158
 5700W        W 9751   3.375   1.930   1.297
 5701W        W 9752   1.001  10.981   0.824
 5702W        W 9753   6.677   6.715   2.896
 5703W        W 9754   3.867   4.378   0.636
 5704W        W 9755   2.315   0.038   9.544
 5705W        W 9756   0.029  11.406   3.242
 5706W        W 9757   9.161   6.636   9.992
 5707W        W 9758   7.918   4.167   2.207
 5708W        W 9759   9.049   4.277   3.063
 5709W        W 9760   3.231   9.902   1.809
 5710W        W 9761   2.692   6.637   2.378
 5711W        W 9762  10.420   7.070  10.556
 5712W        W 9763   6.753   2.069   2.817
 5713W        W 9764   2.702   9.055  11.486
 5714W        W 9765   4.456   6.770   8.628
 5715W        W 9766   2.113   8.625  11.748
 5716W        W 9767   7.698   3.772  11.525
 5717W        W 9768  10.416   7.609  11.246
 5718W        W 9769   4.409   0.741   1.782
 5719W        W 9770   3.902   4.407  10.548
 5720W        W 9771  10.228  10.411   1.564
 5721W        W 9772   0.097   0.959   1.894
 5722W        W 9773   2.161   7.466   1.001
 5723W        W 9774   1.143   0.235  10.687
 5724W        W 9775  11.314   1.252   1.413
 5725W        W 9776   3.478   9.614   2.734
 5726W        W 9777   3.577   2.262   2.466
 5727W        W 9778   7.654   0.191   9.165
 5728W        W 9779   1.769   1.132   3.328
 5729W        W 9780   3.198   5.703  10.986
 5730W        W 9781   6.971   4.650   0.271
 5731W        W 9782  11.093   0.279   3.142
 5732W        W 9783   4.315   8.696  11.545
 5733W        W 9784   1.225   0.625  10.368
 5734W        W 9785  10.010   1.878  11.892
 5735W        W 9786   5.629   3.252   9.828
 5736W        W 9787   2.501   8.539   8.318
 5737W        W 9788   1.294   1.072  10.614
 5738W        W 9789  10.928   3.312   3.034
 5739W        W 9790   3.964   8.356   1.411
 5740W        W 9791   8.683   7.881  11.909
 5741W        W 9792   9.293   1.787   2.976
 5742W        W 9793   9.443   4.915   0.982
 5743W        W 9794   1.916   3.652   8.880
 5744W        W 9795  11.402   8.857   1.416
 5745W        W 9796   4.218   9.970   0.859
 5746W        W 9797   2.755   1.657   0.214
 5747W        W 9798   7.219   3.841  10.300
 5748W        W 9799   7.719   8.003  11.631
 5749W        W 9800   3.172   3.671   1.835
 5750W        W 9801   5.207   9.031   9.056
 5751W        W 9802  10.640   7.697  11.699
 5752W        W 9803   2.733  10.246   8.750
 5753W        W 9804   0.049   7.512  11.352
 5754W        W 9805   0.271   1.182  11.249
 5755W        W 9806  10.900  11.323   3.299
 5756W        W 9807   5.750   1.478   8.535
 5757W        W 9808   3.288   1.358   9.296
 5758W        W 9809   6.027   6.541   2.655
 5759W        W 9810  10.946   6.253   0.049
 5760W        W 9811   3.867   3.871  10.947
 5761W        W 9812  11.369   7.168   9.388
 5762W        W 9813   0.179   1.419  10.342
 5763W        W 9814   0.766   0.796   2.134
 5764W        W 9815   1.048   6.080  11.339
 5765W        W 9816   3.161   4.949   0.401
 5766W        W 9817   0.682   8.401   0.337
 5767W        W 9818   6.710  11.362   0.363
 5768W        W 9819   8.989   0.938   0.956
 5769W        W 9820  11.288   1.113   9.536
 5770W        W 9821   0.865   4.195   2.211
 5771W        W 9822   8.092   9.231   2.787
 5772W        W 9823   9.471   2.153   1.462
 5773W        W 9824   1.255   7.561  11.862
 5774W        W 9825   2.229   6.142   1.950
 5775W        W 9826   9.487   9.331   1.753
 5776W        W 9827  10.561   6.247  10.762
 5777W        W 9828   9.380   7.026   3.305
 5778W        W 9829   8.597   6.147   1.476
 5779W        W 9830   7.072   6.249   8.344
 5780W        W 9831   0.943   5.331  10.865
 5781W        W 9832   8.876   9.591   2.230
 5782W        W 9833  11.319   7.431   0.301
 5783W        W 9834   8.737   0.378   2.762
 5784W        W 9835   6.719   3.169  10.276
 5785W        W 9836   5.981   9.951   3.418
 5786W        W 9837   5.959   4.582   0.219
 5787W        W 9838   5.696   7.389   3.583
 5788W        W 9839   6.340   8.099  11.848
 5789W        W 9840  11.378   5.756   2.344
 5790W        W 9841  10.802  10.879   0.377
 5791W        W 9842   7.014   3.706  11.807
 5792W        W 9843   6.853   2.278   2.026
 5793W        W 9844   8.155  10.452   0.497
 5794W        W 9845   2.748   1.278   1.760
 5795W        W 9846   8.524   6.619   1.180
 5796W        W 9847   8.036  10.518   2.514
 5797W        W 9848   5.614  10.967   1.599
 5798W        W 9849  11.413   4.669   9.576
 5799W        W 9850   2.884   0.398   9.110
 5800W        W 9851  10.754   4.111  10.552
 5801W        W 9852   3.099   7.134  11.379
 5802W        W 9853   4.639  10.270   2.679
 5803W        W 9854   1.268  10.072   0.932
 5804W        W 9855   5.486   3.655   8.566
 5805W        W 9856   2.314   7.198   0.046
 5806W        W 9857   6.137   9.814  11.851
 5807W        W 9858   4.057   7.538  10.024
 5808W        W 9859   5.258   8.614   4.155
 5809W        W 9860   7.426   0.983   2.901
 5810W        W 9861   0.261   1.344   1.177
 5811W        W 9862   7.147   9.613   9.839
 5812W        W 9863  10.534   2.772  10.473
 5813W        W 9864  11.309   0.726   2.236
 5814W        W 9865   1.306  10.971   3.179
 5815W        W 9866   2.483  10.809   0.684
 5816W        W 9867   0.922   9.573   8.582
 5817W        W 9868   6.752   2.279   8.964
 5818W        W 9869   2.632   0.768  10.798
 5819W        W 9870   4.577   6.189   0.289
 5820W        W 9871   3.429   0.910   0.327
 5821W        W 9872   0.551   9.490  11.792
 5822W        W 9873   5.906   2.268   1.729
 5823W        W 9874   2.780   3.345   9.757
 5824W        W 9875   2.850  10.088  11.463
 5825W        W 9876   5.138   3.285   9.627
 5826W        W 9877   0.313   3.973   8.952
 5827W        W 9878   8.202   3.682  11.523
 5828W        W 9879   6.618   0.143   0.934
 5829W        W 9880   1.776   1.370   0.752
 5830W        W 9881  11.431  10.702   3.731
 5831W        W 9882   0.116   3.841  10.277
 5832W        W 9883  10.280   4.569   3.294
 5833W        W 9884  10.417   8.028   8.935
 5834W        W 9885   5.316   8.018  10.216
 5835W        W 9886   6.982   6.595   0.366
 5836W        W 9887  10.401   6.745  11.536
 5837W        W 9888   6.155   4.578   1.706
 5838W        W 9889  10.548   7.846   1.444
 5839W        W 9890   6.283   7.940  10.048
 5840W        W 9891   4.030   6.444   1.305
 5841W        W 9892   6.699   5.558   0.836
 5842W        W 9893   0.380   0.919   2.971
 5843W        W 9894   3.089   6.213  11.084
 5844W        W 9895   7.290   4.166   0.441
 5845W        W 9896  10.132  10.269   0.279
 5846W        W 9897   6.894   2.187   9.584
 5847W        W 9898  11.062   3.789   2.875
 5848W        W 9899   6.676   0.277  10.236
 5849W        W 9900   1.816   4.386  10.961
 5850W        W 9901  10.856   1.894   9.760
 5851W        W 9902   9.122   7.692   9.267
 5852W        W 9903   0.073   0.078   0.057
 5853W        W 9904   8.271   5.693  11.816
 5854W        W 9905   0.349   9.060   1.234
 5855W        W 9906   4.371   1.750  11.684
 5856W        W 9907   4.193   8.653  10.419
 5857W        W 9908   0.796   4.846  11.459
 5858W        W 9909   6.480   7.190  10.956
 5859W        W 9910   1.719   5.264   8.497
 5860W        W 9911   7.577   0.934   1.569
 5861W        W 9912   7.143   0.138   0.399
 5862W        W 9913   3.523  10.475   9.972
 5863W        W 9914   2.363   0.358   9.059
 5864W        W 9915   9.865  10.113   2.853
 5865W        W 9916   8.252   7.622  11.972
 5866W        W 9917   4.754   6.729   0.671
 5867W        W 9918   9.412   9.280   2.777
 5868W        W 9919  11.087   4.984  10.295
 5869W        W 9920   2.860   4.242   9.868
 5870W        W 9921   3.528   3.030  10.594
 5871W        W 9922  10.929   2.655  11.721
 5872W        W 9923   7.557   1.864   0.325
 5873W        W 9924   7.562   6.680  10.474
 5874W        W 9925   1.902   5.246  10.786
 5875W        W 9926   4.683   9.511  11.724
 5876W        W 9927   7.036   4.315   2.271
 5877W        W 9928   7.113   3.412  10.067
 5878W        W 9929   5.665   5.802   1.013
 5879W        W 9930   2.832   2.871   9.586
 5880W        W 9931  10.614   7.448   1.828
 5881W        W 9932  10.506   4.998   9.502
 5882W        W 9933   7.616  10.408  10.076
 5883W        W 9934   6.314   7.567  11.789
 5884W        W 9935   5.595   8.128  11.717
 5885W        W 9936   9.131   4.175   0.502
 5886W        W 9937  11.307   3.136   9.110
 5887W        W 9938   2.847   8.348  10.146
 5888W        W 9939   7.197   9.251   0.803
 5889W        W 9940   4.217   2.309   9.888
 5890W        W 9941   3.844   6.649   9.886
 5891W        W 9942  11.031   2.721   1.218
 5892W        W 9943   0.209   7.804   2.946
 5893W        W 9944   4.013   1.477  11.969
 5894W        W 9945   5.145   4.659  10.706
 5895W        W 9946   0.284  10.711   0.329
 5896W        W 9947   7.036   7.926  10.927
 5897W        W 9948   1.757   1.795   9.598
 5898W        W 9949  10.150   1.210   3.532
 5899W        W 9950  10.844   9.152   0.543
 5900W        W 9951   8.108   1.520   3.466
 5901W        W 9952   3.576   4.693   8.536
 5902W        W 9953   7.934  10.107  10.586
 5903W        W 9954   5.209   8.086   1.745
 5904W        W 9955   1.820  10.043   2.437
 5905W        W 9956   2.336   1.929   0.387
 5906W        W 9957   6.603   8.186   2.792
 5907W        W 9958   9.787   1.208   1.248
 5908W        W 9959   2.754   3.214   2.737
 5909W        W 9960   8.943   6.852  11.282
 5910W        W 9961   6.129   0.558  11.268
 5911W        W 9962   2.944  10.423   2.859
 5912W        W 9963   9.977  10.798   8.586
 5913W        W 9964   4.635   3.887   0.984
 5914W        W 9965   9.397   9.890   9.879
 5915W        W 9966   5.226   3.719   0.471
 5916W        W 9967   3.293   2.900   0.404
 5917W        W 9968   3.218   1.110   3.747
 5918W        W 9969   0.789  11.204   1.866
 5919W        W 9970   3.707   8.391   0.163
 5920W        W 9971   4.770   8.565  11.387
 5921W        W 9972   9.958  11.474  10.021
 5922W        W 9973   3.772   0.158   8.674
 5923W        W 9974   2.165   9.418   1.671
 5924W        W 9975   9.904   3.769   2.127
 5925W        W 9976  10.900   4.041   9.787
 5926W        W 9977   5.201   7.273   3.177
 5927W        W 9978   5.093   9.458   1.906
 5928W        W 9979   9.048   3.649   2.375
 5929W        W 9980   1.106  10.394   1.673
 5930W        W 9981   1.385   1.437   9.373
 5931W        W 9982   3.318   6.610   3.673
 5932W        W 9983  10.550   7.380   9.436
 5933W        W 9984   6.230   5.589  10.899
 5934W        W 9985  11.332   6.983  11.973
 5935W        W 9986   6.115   5.661   0.794
 5936W        W 9987   4.135   7.913  11.481
 5937W        W 9988   1.270  10.896  11.220
 5938W        W 9989   0.814   3.271  10.543
 5939W        W 9990   4.220   7.816   1.798
 5940W        W 9991   2.961   8.957  11.055
 5941W        W 9992  10.930   1.626   0.429
 5942W        W 9993   4.183   0.178  10.511
 5943W        W 9994   6.412   3.667   2.888
 5944W        W 9995   0.812   7.848   1.061
 5945W        W 9996   1.711   8.949  10.324
 5946W        W 9997   7.305   6.049  11.106
 5947W        W 9998   6.850   7.195   2.709
 5948W        W 9999   8.876   2.211   0.308
 5949W        W10000   2.510   7.781   0.729
 5950W        W10001   6.763   5.481  10.680
 5951W        W10002   9.004   8.071  11.056
 5952W        W10003   3.383   1.827  11.373
 5953W        W10004   8.192   5.400   9.881
 5954W        W10005   0.843  10.691  11.643
 5955W        W10006   2.553   7.577   2.275
 5956W        W10007   2.113   2.858   3.552
 5957W        W10008   1.567   1.169   2.288
 5958W        W10009   4.708   1.942   3.311
 5959W        W10010   5.959   4.702   1.230
 5960W        W10011   8.554  10.376  10.739
 5961W        W10012   2.754   7.393  11.788
 5962W        W10013   8.651   2.806   9.632
 5963W        W10014   7.587   9.899   9.786
 5964W        W10015   4.607   4.262   3.922
 5965W        W10016   4.765   8.825   9.978
 5966W        W10017  11.188   4.297   2.459
 5967W        W10018   8.065  10.510   9.839
 5968W        W10019   1.596  10.002   2.900
 5969W        W10020   1.382  11.426   9.505
 5970W        W10021   2.588   4.097   0.578
 5971W        W10022   9.980   2.088  11.013
 5972W        W10023   4.112  11.201   0.307
 5973W        W10024   8.516   7.615  11.492
 5974W        W10025   7.691   9.583   2.774
 5975W        W10026   3.805   2.493   3.216
 5976W        W10027   7.755   1.509  11.382
 5977W        W10028   7.682   3.107   1.976
 5978W        W10029   9.897   5.398  11.554
 5979W        W10030   2.667   5.250   4.141
 5980W        W10031   8.892   0.512  11.034
 5981W        W10032   4.769   9.934   8.729
 5982W        W10033   6.321   7.051  11.920
 5983W        W10034   9.636   3.366   0.894
 5984W        W10035   0.276   6.931   9.166
 5985W        W10036   9.331   0.177   1.902
 5986W        W10037   8.524   4.700   8.293
 5987W        W10038   9.554   8.637   9.414
 5988W        W10039   2.401   0.623   3.429
 5989W        W10040   2.331   1.466   1.988
 5990W        W10041   6.983   5.657   0.329
 5991W        W10042  10.856   1.690   1.954
 5992W        W10043   0.357   4.270   9.381
 5993W        W10044   5.001  11.342  12.000
 5994W        W10045   6.209   5.265  11.307
 5995W        W10046   5.117  10.445   0.881
 5996W        W10047   9.357   8.006  10.563
 5997W        W10048   0.822  11.074  11.313
 5998W        W10049   6.039   6.933  10.906
 5999W        W10050   8.906   1.810  10.803
 6000W        W10051   8.141   9.103   9.198
 6001W        W10052   7.238   2.227   1.706
 6002W        W10053   0.031   3.850   3.081
 6003W        W10054   8.972   2.111   2.616
 6004W        W10055   3.229   6.221   2.325
 6005W        W10056   8.008   1.929  10.555
 6006W        W10057   8.460   0.789   3.222
 6007W        W10058   5.527   8.055  11.210
 6008W        W10059   3.356   4.486  10.548
 6009W        W10060   4.951   0.127   1.772
 6010W        W10061   8.078   4.947   9.097
 6011W        W10062   6.717   1.343  10.543
 6012W        W10063   6.594   8.939   1.362
 6013W        W10064   0.288   6.563   8.791
 6014W        W10065   7.761   7.063   9.204
 6015W        W10066   8.839   8.481   9.731
 6016W        W10067  10.035  10.696   9.087
 6017W        W10068   6.074   4.158  11.885
 6018W        W10069   7.985   6.861   3.587
 6019W        W10070   9.180   4.778   3.149
 6020W        W10071   9.083   2.778   3.685
 6021W        W10072   5.092   9.950   0.674
 6022W        W10073   3.593   6.577   2.235
 6023W        W10074   3.274   7.066   3.395
 6024W        W10075  10.954  10.970  11.049
 6025W        W10076   1.676  10.403   9.574
 6026W        W10077  10.859   0.675   3.464
 6027W        W10078   6.555   7.484   0.475
 6028W        W10079   5.090  10.991   2.955
 6029W        W10080   5.146   2.364   2.264
 6030W        W10081  10.659   4.114   8.956
 6031W        W10082   2.232   2.935   2.013
 6032W        W10083   9.607   6.947  11.692
 6033W        W10084   3.551   6.845   8.955
 6034W        W10085  11.286  11.201   9.793
 6035W        W10086   3.780   8.889   0.911
 6036W        W10087   6.298   6.822   3.830
 6037W        W10088   5.984   3.403   0.634
 6038W        W10089   7.856   0.798   8.578
 6039W        W10090   3.489   6.590   3.180
 6040W        W10091   2.165   9.132  10.485
 6041W        W10092   4.999   2.426   0.794
 6042W        W10093   8.946   6.200   3.703
 6043W        W10094   2.278   9.364   3.645
 6044W        W10095   6.687  11.361   9.015
 6045W        W10096   1.213   7.858   8.547
 6046W        W10097   7.672   8.212   0.591
 6047W        W10098   4.882  10.720   9.170
 6048W        W10099  10.822   4.558   0.728
 6049W        W10100   6.490   9.054   9.602
 6050W        W10101   7.302   6.696   1.290
 6051W        W10102   2.125   8.263   8.523
 6052W        W10103   0.896   4.535   3.071
 6053W        W10104   4.239   9.101  10.676
 6054W        W10105   0.905   8.752   2.328
 6055W        W10106   1.960   4.710   9.077
 6056W        W10107   2.947   4.340   2.167
 6057W        W10108  11.215   8.910   2.452
 6058W        W10109   3.901   1.064   0.253
 6059W        W10110   2.299   2.785   1.027
 6060W        W10111   7.195  11.266  11.397
 6061W        W10112   8.990   4.950   8.305
 6062W        W10113   9.324   5.830   0.633
 6063W        W10114   9.349   6.173   2.927
 6064W        W10115   6.517  10.318   0.640
 6065W        W10116  10.599   4.398  10.946
 6066W        W10117   1.357  10.298   9.963
 6067W        W10118   5.748   0.889   0.520
 6068W        W10119   8.017  10.964   9.145
 6069W        W10120   8.052   9.533  11.355
 6070W        W10121   9.929   2.911   1.671
 6071W        W10122   0.259  10.901   3.114
 6072W        W10123   8.100   3.096   3.102
 6073W        W10124  10.300   7.485   8.999
 6074W        W10125   6.979   8.020   1.560
 6075W        W10126  11.427   8.331  11.681
 6076W        W10127   5.511   6.970   8.790
 6077W        W10128   7.024  10.345  11.773
 6078W        W10129   4.264   7.970   9.819
 6079W        W10130   8.386   6.114   2.937
 6080W        W10131   4.261   8.976   2.576
 6081W        W10132  11.362   4.262   9.886
 6082W        W10133   0.772   1.737   9.985
 6083W        W10134   7.143   8.367   9.898
 6084W        W10135   6.144   7.607   9.260
 6085W        W10136   1.402   0.224   9.998
 6086W        W10137   5.010  11.174   9.367
 6087W        W10138   7.455   5.697  10.258
 6088W        W10139   6.195   1.944   2.787
 6089W        W10140   2.832   2.098   3.425
 6090W        W10141   7.100   8.211   8.555
 6091W        W10142   4.137   1.689   1.694
 6092W        W10143   1.568   9.245   1.123
 6093W        W10144   8.509   5.433   2.189
 6094W        W10145   0.303   8.362   9.090
 6095W        W10146   8.752   0.447  11.865
 6096W        W10147  10.387   3.672   9.099
 6097W        W10148   6.427  11.467   3.435
 6098W        W10149   1.250   3.771   9.399
 6099W        W10150   5.934   3.467   2.463
 6100W        W10151   9.890   9.589   3.586
 6101W        W10152   4.633   5.737   0.016
 6102W        W10153   9.011   3.731  11.704
 6103W        W10154   8.984   7.102   9.976
 6104W        W10155   9.150  10.004   2.454
 6105W        W10156   6.111   2.461  10.447
 6106W        W10157   2.900   8.506   8.629
 6107W        W10158   8.983   9.791   9.064
 6108W        W10159   8.069   5.972   1.023
 6109W        W10160   5.547   2.795   0.016
 6110W        W10161   0.442   2.378   2.958
 6111W        W10162   6.446   9.504   2.783
 6112W        W10163   5.586   3.307  11.820
 6113W        W10164   3.520   1.445   0.206
 6114W        W10165   8.779   6.157   2.230
 6115W        W10166   4.581   8.539   2.415
 6116W        W10167   0.745  10.033   3.037
 6117W        W10168   5.566   9.291   0.962
 6118W        W10169   3.701   6.161   4.024
 6119W        W10170  10.086  10.790   2.382
 6120W        W10171   0.261  11.345   9.808
 6121W        W10172   6.064   7.527   9.778
 6122W        W10173   2.730   5.159   8.622
 6123W        W10174   2.410   5.757   0.718
 6124W        W10175   5.645   1.815  10.032
 6125W        W10176   6.531   0.740   2.241
 6126W        W10177   1.266   9.205   8.466
 6127W        W10178   8.184   8.651  10.961
 6128W        W10179   3.668   4.842  10.399
 6129W        W10180  11.061   6.979   0.428
 6130W        W10181   2.521   5.238   1.499
 6131W        W10182   4.697   2.296   3.707
 6132W        W10183   9.489   3.144   0.437
 6133W        W10184   7.406   9.560   1.523
 6134W        W10185  10.488   4.052   9.444
 6135W        W10186   8.496   5.698   1.198
 6136W        W10187   4.674   9.548   2.196
 6137W        W10188   8.904  11.272  11.475
 6138W        W10189   6.610   9.999  11.868
 6139W        W10190   2.459   5.278   1.986
 6140W        W10191   7.438   1.664  10.083
 6141W        W10192   9.575   5.186   2.030
 6142W        W10193   7.127  11.342  11.915
 6143W        W10194   7.861   2.325   0.372
 6144W        W10195   0.389   2.619  11.572
 6145W        W10196   8.572   6.581   0.353
 6146W        W10197   0.723   1.852   2.871
 6147W        W10198   0.889   8.076  10.269
 6148W        W10199   1.825   0.984  11.781
 6149W        W10200   4.102   9.416   9.481
 6150W        W10201   4.345   9.846   1.341
 6151W        W10202   6.211  11.392   2.163
 6152W        W10203   1.707  10.659  11.159
 6153W        W10204  10.550   9.973   0.269
 6154W        W10205   3.990   6.572   3.343
 6155W        W10206  11.136   3.051   0.436
 6156W        W10207   1.709   6.199  10.706
 6157W        W10208  10.918   8.578   9.847
 6158W        W10209  10.618  10.502   3.092
 6159W        W10210   5.320   2.201   1.165
 6160W        W10211   4.373   4.417   0.711
 6161W        W10212   6.888   2.961  10.776
 6162W        W10213   9.539  11.105   2.637
 6163W        W10214   6.826   3.831   9.941
 6164W        W10215   9.852   3.861   3.046
 6165W        W10216   6.011   2.786   2.397
 6166W        W10217   4.792   0.492   0.375
 6167W        W10218   1.806   1.178   0.275
 6168W        W10219   9.112   4.803   1.818
 6169W        W10220  10.311   0.357   1.880
 6170W        W10221   7.990   7.213   0.871
 6171W        W10222   6.965  10.893   3.120
 6172W        W10223   6.194   7.939  10.573
 6173W        W10224   9.451   9.467  10.437
 6174W        W10225   3.872   9.842   9.339
 6175W        W10226   8.579   8.049   9.936
 6176W        W10227   3.378   0.935  11.392
 6177W        W10228   3.896   5.911   8.779
 6178W        W10229   8.521   9.005   8.863
 6179W        W10230   7.104   4.164   1.365
 6180W        W10231  11.410  11.024   1.822
 6181W        W10232   3.853   8.773   2.780
 6182W        W10233   0.855   0.528   9.383
 6183W        W10234   8.877   0.810   1.465
 6184W        W10235   4.165   1.853  10.682
 6185W        W10236   6.396  10.287   1.128
 6186W        W10237   0.962  10.140   2.097
 6187W        W10238   6.961  10.466  10.368
 6188W        W10239   7.776   2.268   1.741
 6189W        W10240   4.676   1.625   1.660
 6190W        W10241   0.915   8.934   1.858
 6191W        W10242   5.064   3.776   2.310
 6192W        W10243   4.642   0.145   9.049
 6193W        W10244   8.175   3.700  10.543
 6194W        W10245  10.777   6.420  11.590
 6195W        W10246  10.777   6.024   8.681
 6196W        W10247   1.854   9.365   0.321
 6197W        W10248   7.285  10.537   0.734
 6198W        W10249   7.328   6.620   1.964
 6199W        W10250  11.385   3.438   0.173
 6200W        W10251   9.227  10.712   2.616
 6201W        W10252   7.422   9.581  11.391
 6202W        W10253   2.332   8.087  10.228
 6203W        W10254  11.470   4.311  11.218
 6204W        W10255   4.506   3.682   3.272
 6205W        W10256   8.850   4.251   0.918
 6206W        W10257   9.080   1.756   9.279
 6207W        W10258   1.366   2.343  10.685
 6208W        W10259   3.106   0.817   4.132
 6209W        W10260  11.079   5.984   1.948
 6210W        W10261   8.046   4.561   1.685
 6211W        W10262   6.788  10.029   9.167
 6212W        W10263   2.172   0.457  10.414
 6213W        W10264   2.338   2.802   1.534
 6214W        W10265   3.337   9.878  11.010
 6215W        W10266   5.094  10.329   8.850
 6216W        W10267   5.606   7.428   2.917
 6217W        W10268  11.136   3.978   8.830
 6218W        W10269   8.935   7.074   9.068
 6219W        W10270   1.526   7.302   1.430
 6220W        W10271   9.464   0.554   2.250
 6221W        W10272  10.976   5.258   0.919
 6222W        W10273   7.430   4.087   3.684
 6223W        W10274   5.072   9.546  10.589
 6224W        W10275   9.524   7.110   8.823
 6225W        W10276   9.391   8.888   2.450
 6226W        W10277  10.112   7.624   9.483
 6227W        W10278   4.641  10.707   0.811
 6228W        W10279  11.321   1.843   2.123
 6229W        W10280   7.278   6.783  10.047
 6230W        W10281   5.487   1.965  11.018
 6231W        W10282   6.602   9.496   0.031
 6232W        W10283   8.132   8.794   2.483
 6233W        W10284   7.107   7.507   1.804
 6234W        W10285   4.183   6.143   0.657
 6235W        W10286  10.798   3.969   2.352
 6236W        W10287   4.775   3.479  11.270
 6237W        W10288   9.363   5.078   9.502
 6238W        W10289  11.050   8.372   1.713
 6239W        W10290   7.904   8.297   1.778
 6240W        W10291   2.981   6.674   3.257
 6241W        W10292   0.885   9.658   3.340
 6242W        W10293  10.748   9.756   2.781
 6243W        W10294   2.232   5.745   2.724
 6244W        W10295   1.274   3.324   0.563
 6245W        W10296   3.422   2.888   1.287
 6246W        W10297   9.580   6.606   8.722
 6247W        W10298   7.423   6.233   1.630
 6248W        W10299  10.383   9.946  11.376
 6249W        W10300   2.534  10.448   9.185
 6250W        W10301   0.642   7.888  11.368
 6251W        W10302  11.383  10.321  10.652
 6252W        W10303   8.905  10.970  11.903
 6253W        W10304   4.695   6.680   2.049
 6254W        W10305   3.620   0.143   1.744
 6255W        W10306   8.963   3.548   3.385
 6256W        W10307   7.064   1.187   0.318
 6257W        W10308   4.663   9.373   3.055
 6258W        W10309   3.206  10.880   9.877
 6259W        W10310   3.955   5.824   9.937
 6260W        W10311   5.855   4.162   1.904
 6261W        W10312   5.487   9.840  10.484
 6262W        W10313   3.640   8.878   1.445
 6263W        W10314  11.418   0.234   9.049
 6264W        W10315   2.826   7.901  10.388
 6265W        W10316  11.053   1.658   8.804
 6266W        W10317   2.162   4.432   1.942
 6267W        W10318   9.405   7.274   8.349
 6268W        W10319   4.246   4.197   9.847
 6269W        W10320   1.398   9.943  10.762
 6270W        W10321   7.674   3.765   0.336
 6271W        W10322   9.363   6.187  10.000
 6272W        W10323  11.157   8.848   1.914
 6273W        W10324   8.658  10.856  11.328
 6274W        W10325   4.812   1.255   9.793
 6275W        W10326   7.528   4.515   2.345
 6276W        W10327   4.945   4.543   0.209
 6277W        W10328   9.151   1.315   9.532
 6278W        W10329  10.755   9.156  10.464
 6279W        W10330   0.613   7.892   3.661
 6280W        W10331   0.675   3.213   8.571
 6281W        W10332   2.142   8.412  11.270
 6282W        W10333  11.428  10.835  10.635
 6283W        W10334   4.984   3.485  10.062
 6284W        W10335   7.669   5.974  11.959
 6285W        W10336   4.317  11.421   1.262
 6286W        W10337   0.361   7.657  10.975
 6287W        W10338   1.648   7.446  10.478
 6288W        W10339   6.219   7.634   8.732
 6289W        W10340   7.118   8.675  10.319
 6290W        W10341   5.623  11.472   9.913
 6291W        W10342   8.543   1.953  10.449
 6292W        W10343   3.047  11.395  11.635
 6293W        W10344  11.032   2.192  10.186
 6294W        W10345   1.727   6.896   1.708
 6295W        W10346   3.405   0.241   9.912
 6296W        W10347  10.911   3.073   8.792
 6297W        W10348   8.390   1.786  11.956
 6298W        W10349   1.922   8.594   8.968
 6299W        W10350   4.199   7.455   2.218
 6300W        W10351   7.230   1.226   9.902
 6301W        W10352   4.214  11.038   9.808
 6302W        W10353   5.771   6.747  11.491
 6303W        W10354   5.165   5.538   0.754
 6304W        W10355   6.773   3.430   1.069
 6305W        W10356   0.514   5.161   2.528
 6306W        W10357  10.854  11.340   9.553
 6307W        W10358   7.479   9.607  11.933
 6308W        W10359   8.882   6.904   3.337
 6309W        W10360   9.579   0.978   2.558
 6310W        W10361   2.188   7.115   1.856
 6311W        W10362  10.981   5.118   1.906
 6312W        W10363   4.603   0.890   2.706
 6313W        W10364   0.299  10.569   9.143
 6314W        W10365   2.967   6.737  10.339
 6315W        W10366   1.967   4.787   8.549
 6316W        W10367   0.991  10.523   3.103
 6317W        W10368   9.795  10.970   9.434
 6318W        W10369   1.905   9.584  10.086
 6319W        W10370  11.341   2.727   0.054
 6320W        W10371   8.413   6.346   9.625
 6321W        W10372   8.040  10.976   8.633
 6322W        W10373   8.360   8.034   1.754
 6323W        W10374   2.139   6.766   3.120
 6324W        W10375   1.149   5.824   9.182
 6325W        W10376   2.716   5.093   9.538
 6326W        W10377   3.115   0.364  11.433
 6327W        W10378   1.775   5.947   0.185
 6328W        W10379   6.230  11.238   0.173
 6329W        W10380   0.473   9.941   1.325
 6330W        W10381   1.215  10.405  11.387
 6331W        W10382   0.459   5.302   3.463
 6332W        W10383   6.249   1.074   0.198
 6333W        W10384   0.008   1.283   2.883
 6334W        W10385   3.140  10.998   8.929
 6335W        W10386   5.560  11.411  10.831
 6336W        W10387   3.744  10.732   0.840
 6337W        W10388   5.078   5.045   0.046
 6338W        W10389   0.907   6.273   9.033
 6339W        W10390   0.819  10.245   3.529
 6340W        W10391   9.170   2.136  10.108
 6341W        W10392   0.207   5.646  11.224
 6342W        W10393   9.885   2.906   0.653
 6343W        W10394   8.606   8.468   3.018
 6344W        W10395  10.450   1.487   0.521
 6345W        W10396   6.164   6.929   0.396
 6346W        W10397   4.641  10.586   2.252
 6347W        W10398   1.797   7.244   9.783
 6348W        W10399  10.264   9.153   3.216
 6349W        W10400   9.957   1.808   9.283
 6350W        W10401   4.612  11.313  10.053
 6351W        W10402   7.046   1.077   8.885
 6352W        W10403   8.834   5.289   2.753
 6353W        W10404   2.617   1.717   3.150
 6354W        W10405   3.117   3.351   8.865
 6355W        W10406   0.851   4.844   9.998
 6356W        W10407   9.858   5.689  11.121
 6357W        W10408   2.676   9.611   8.959
 6358W        W10409   2.746   7.543   8.320
 6359W        W10410   3.136   6.276   0.788
 6360W        W10411   4.028   5.124   2.537
 6361W        W10412  10.367   7.910   1.920
 6362W        W10413   9.014   4.714   0.782
 6363W        W10414   7.080  10.318   1.938
 6364W        W10415   5.209   1.676   0.269
 6365W        W10416   7.036   2.452   0.832
 6366W        W10417   4.407   9.582   9.848
 6367W        W10418   5.623   3.592   1.151
 6368W        W10419   3.212   2.139   0.864
 6369W        W10420   2.349   8.916   0.939
 6370W        W10421  10.870   1.776  11.901
 6371W        W10422   7.931   8.909   8.735
 6372W        W10423   4.135   6.152  11.602
 6373W        W10424   2.037   9.322  10.964
 6374W        W10425   0.687   8.831   0.030
 6375W        W10426   7.378   5.540  11.990
 6376W        W10427   3.323   5.794   0.840
 6377W        W10428   0.481   6.214   2.207
 6378W        W10429   0.455   6.103  11.265
 6379W        W10430   1.781   6.034   1.169
 6380W        W10431   8.620   3.734   9.575
 6381W        W10432   9.617   5.252   9.921
 6382W        W10433   0.347   7.519   3.403
 6383W        W10434  10.518   0.440  11.182
 6384W        W10435  11.129   6.963   1.240
 6385W        W10436   3.425   9.997   0.439
 6386W        W10437   0.476   2.148   0.782
 6387W        W10438   3.491   5.251  10.188
 6388W        W10439   1.786   1.787   2.148
 6389W        W10440  10.782   7.034   3.539
 6390W        W10441   6.338   3.600  10.142
 6391W        W10442   0.862  10.529   8.530
 6392W        W10443   7.219   8.461   1.416
 6393W        W10444   3.333   4.408   0.556
 6394W        W10445   4.541   6.742  10.438
 6395W        W10446   6.480   4.693  10.985
 6396W        W10447   9.339  11.397   8.910
 6397W        W10448   8.350   7.397   3.250
 6398W        W10449  10.829   0.857   2.980
 6399W        W10450   9.497   9.175  11.420
 6400W        W10451   9.935   5.730   1.477
 6401W        W10452  10.714   7.613   0.996
 6402W        W10453   8.933  10.398  11.317
 6403W        W10454   5.227   1.649  10.293
 6404W        W10455   6.845   3.197   3.456
 6405W        W10456   0.224   5.523   8.876
 6406W        W10457   1.684   5.815  11.707
 6407W        W10458   8.985   0.264   2.316
 6408W        W10459   2.147   5.693   1.175
 6409W        W10460   1.453   2.406   0.599
 6410W        W10461  10.406   8.067   9.463
 6411W        W10462   0.469   0.774  10.995
 6412W        W10463  11.075  11.100   0.757
 6413W        W10464   1.925   2.691   0.701
 6414W        W10465   7.137  11.291  10.888
 6415W        W10466  10.252   9.605   0.921
 6416W        W10467   7.849   2.782  10.864
 6417W        W10468   5.537   6.216   0.655
 6418W        W10469   9.416   3.087   1.821
 6419W        W10470   6.037   8.472   9.029
 6420W        W10471  11.494   6.106  11.465
 6421W        W10472  10.937   0.458  11.561
 6422W        W10473   9.202   9.312   0.778
 6423W        W10474   5.147   9.434   0.550
 6424W        W10475   6.228   8.655   3.111
 6425W        W10476   5.559   4.507  10.981
 6426W        W10477   5.450   0.735   1.490
 6427W        W10478   9.299   2.306   2.969
 6428W        W10479   1.292   8.431   2.371
 6429W        W10480   4.237   3.105  11.955
 6430W        W10481   1.013   2.181   9.878
 6431W        W10482   1.804   7.792   0.387
 6432W        W10483   4.079   2.220   0.368
 6433W        W10484   2.814   8.518   9.131
 6434W        W10485   8.612  10.826   1.459
 6435W        W10486   7.942   8.896  10.583
 6436W        W10487   8.623   8.086   0.680
 6437W        W10488   7.004   7.944   2.059
 6438W        W10489   7.209   1.913   2.117
 6439W        W10490  11.289   3.240   2.287
 6440W        W10491   8.504   2.900   2.273
 6441W        W10492   4.206   9.605   3.174
 6442W        W10493   3.081   4.240   9.399
 6443W        W10494  10.420   1.627   9.469
 6444W        W10495   9.907   2.586  10.805
 6445W        W10496   2.804   9.695  10.452
 6446W        W10497   0.615   8.185   8.709
 6447W        W10498   3.706   8.703   8.233
 6448W        W10499   2.312   5.936  11.424
 6449W        W10500  11.464   8.000  10.326
 6450W        W10501  10.571   2.636  11.354
 6451W        W10502   3.922   9.579   9.945
 6452W        W10503   2.341   4.346   2.733
 6453W        W10504  11.277   6.525  11.749
 6454W        W10505  10.723  10.238   2.681
 6455W        W10506   9.332   5.248   2.917
 6456W        W10507   0.270   6.992   3.442
 6457W        W10508   5.511   0.273   9.150
 6458W        W10509   3.189   7.626   9.476
 6459W        W10510  11.487  10.759  11.554
 6460W        W10511   8.172  10.013   8.485
 6461W        W10512   1.091   1.931   1.941
 6462W        W10513   5.173   4.142  11.606
 6463W        W10514   5.665   5.283   2.255
 6464W        W10515   1.344   2.605   2.463
 6465W        W10516   9.962   1.272  10.540
 6466W        W10517   9.833   0.694  10.054
 6467W        W10518   4.051   8.464   2.416
 6468W        W10519   8.819   0.522   0.360
 6469W        W10520   8.922   4.593  10.471
 6470W        W10521   5.009   2.114   2.707
 6471W        W10522   8.230  10.036  11.410
 6472W        W10523  10.702   9.486   0.168
 6473W        W10524   1.541   0.682  10.847
 6474W        W10525   7.401   6.608  10.955
 6475W        W10526   8.570   6.559   3.640
 6476W        W10527   3.849   3.022   3.123
 6477W        W10528   9.448   0.159  11.810
 6478W        W10529   8.389   8.612  11.440
 6479W        W10530   4.767   5.701   1.045
 6480W        W10531   0.650  10.446   2.738
 6481W        W10532  10.515   6.487   8.819
 6482W        W10533   0.445   3.643   0.672
 6483W        W10534   0.719   2.191   9.437
 6484W        W10535   1.220   0.784   2.334
 6485W        W10536  10.547   9.289  11.706
 6486W        W10537   4.930   8.381   3.368
 6487W        W10538   7.610   7.515   9.894
 6488W        W10539   1.666   1.972  10.926
 6489W        W10540   4.631   7.563   0.113
 6490W        W10541   0.804  10.185  11.658
 6491W        W10542   2.118   3.307   0.724
 6492W        W10543   0.479  11.408   1.452
 6493W        W10544   1.871   5.554  11.302
 6494W        W10545   4.914   4.105   1.952
 6495W        W10546   3.803   7.027   1.017
 6496W        W10547  10.646   5.869   2.856
 6497W        W10548   8.227   4.377   0.287
 6498W        W10549   0.804   8.883   9.725
 6499W        W10550   7.388  11.381   3.146
 6500W        W10551   9.097   1.841   0.617
 6501W        W10552   9.511  11.295   3.339
 6502W        W10553   2.705   7.656   1.177
 6503W        W10554   6.931   4.994   1.638
 6504W        W10555  11.429   3.396   0.682
 6505W        W10556   2.480   7.067   1.061
 6506W        W10557   0.328   0.642   0.629
 6507W        W10558   5.243   9.948   9.657
 6508W        W10559   3.594   3.074   1.873
 6509W        W10560   5.680   5.349   0.796
 6510W        W10561   7.386   9.425   2.403
 6511W        W10562   1.487   2.303  10.197
 6512W        W10563   3.572   6.500   8.537
 6513W        W10564   2.033   7.427   2.354
 6514W        W10565  11.264  10.020   2.711
 6515W        W10566   4.560   1.369   2.330
 6516W        W10567   6.972   4.181   0.025
 6517W        W10568   0.716   5.363   9.998
 6518W        W10569   6.682   1.713  11.187
 6519W        W10570   8.597  11.368   3.119
 6520W        W10571   7.147   1.997   0.632
 6521W        W10572   1.447   0.717   0.031
 6522W        W10573   7.768   9.926  11.225
 6523W        W10574   4.114   0.450   0.012
 6524W        W10575   8.089   8.197   9.969
 6525W        W10576   0.350   6.503   3.771
 6526W        W10577   4.547   5.751  11.500
 6527W        W10578   4.035  10.534   9.753
 6528W        W10579   5.684   2.344  10.748
 6529W        W10580   8.867   9.295   9.270
 6530W        W10581   1.870   6.932   2.218
 6531W        W10582   0.398  10.827  11.838
 6532W        W10583   3.063  10.853  11.274
 6533W        W10584   0.796   9.962  10.562
 6534W        W10585   2.544   5.386   8.192
 6535W        W10586   6.622   6.678  11.308
 6536W        W10587   3.196   3.307  10.939
 6537W        W10588  10.835  10.294  11.801
 6538W        W10589   1.236  11.179   2.717
 6539W        W10590   3.768  10.939  10.536
 6540W        W10591   7.573   1.978  11.382
 6541W        W10592   3.996  11.468  11.828
 6542W        W10593   0.881   0.807   1.242
 6543W        W10594   1.885   8.624   9.495
 6544W        W10595   3.645   6.180   0.978
 6545W        W10596   9.769   1.692  10.754
 6546W        W10597   3.281   5.611  11.969
 6547W        W10598   0.598   7.269   2.170
 6548W        W10599   5.791   7.017   2.649
 6549W        W10600   9.777  11.420  11.480
 6550W        W10601   5.268   6.700   1.360
 6551W        W10602   6.230   4.115   4.090
 6552W        W10603   1.553   5.993  11.236
 6553W        W10604   6.565   6.880   1.189
 6554W        W10605   7.140   7.656  10.431
 6555W        W10606   6.525   7.761  10.973
 6556W        W10607   4.185  11.012   2.923
 6557W        W10608   7.096   0.841  10.773
 6558W        W10609   5.942   0.001   9.464
 6559W        W10610   5.870   9.523   9.808
 6560W        W10611   3.807   8.946   2.302
 6561W        W10612   4.150   6.249   3.728
 6562W        W10613   1.275   2.816   0.364
 6563W        W10614  10.557   2.364  10.050
 6564W        W10615   0.315  11.460   2.790
 6565W        W10616   0.356   7.251   1.709
 6566W        W10617   3.189   2.119  11.968
 6567W        W10618   2.868   2.795  11.416
 6568W        W10619   5.492   9.247   3.207
 6569W        W10620   9.958   8.393   2.400
 6570W        W10621  10.851  11.148   1.676
 6571W        W10622   1.725   9.195   3.265
 6572W        W10623   2.352  11.097  10.463
 6573W        W10624   7.480   0.965   0.565
 6574W        W10625   1.630   1.333  11.435
 6575W        W10626   6.669   3.118   2.435
 6576W        W10627   2.121   6.573   8.685
 6577W        W10628   2.862   6.223  10.609
 6578W        W10629   4.247   3.520  10.889
 6579W        W10630   6.429   3.114   8.496
 6580W        W10631   2.298   2.468  10.595
 6581W        W10632   1.622   7.039   9.366
 6582W        W10633  11.254   7.629   2.705
 6583W        W10634   9.247   0.688   0.562
 6584W        W10635   1.760   8.670   2.266
 6585W        W10636   5.116  11.295   9.872
 6586W        W10637   2.222   9.482   9.176
 6587W        W10638  10.038   3.354   1.898
 6588W        W10639   8.773   3.363  11.966
 6589W        W10640   4.252   0.085   9.836
 6590W        W10641   9.887   2.441   1.868
 6591W        W10642  10.953   8.204   0.726
 6592W        W10643   9.688   0.671   0.307
 6593W        W10644   5.188   5.964   0.997
 6594W        W10645   7.756   4.542   9.039
 6595W        W10646   3.240   2.640   0.854
 6596W        W10647   5.218   6.089  10.328
 6597W        W10648  10.012   8.147  11.786
 6598W        W10649   6.121   0.943   0.873
 6599W        W10650   1.995   3.405  10.950
 6600W        W10651  10.213   6.100   0.742
 6601W        W10652   8.993   7.856  11.525
 6602W        W10653   1.395   1.915   3.260
 6603W        W10654   6.574   8.635   1.814
 6604W        W10655   6.299   7.187   8.972
 6605W        W10656  10.803   0.757   9.077
 6606W        W10657   2.768   8.864   9.546
 6607W        W10658  11.265   8.599   0.718
 6608W        W10659   3.543   4.107   0.949
 6609W        W10660   4.041   6.172   0.131
 6610W        W10661   4.417   1.768   0.696
 6611W        W10662   6.211   0.290  10.812
 6612W        W10663   4.104  11.451   0.795
 6613W        W10664   7.640   8.876   0.587
 6614W        W10665   2.006   3.033  11.701
 6615W        W10666   8.154   2.842  10.409
 6616W        W10667   1.316   3.617  11.712
 6617W        W10668   4.557   3.389  10.405
 6618W        W10669   4.887   7.164  11.382
 6619W        W10670   5.680   6.306  10.179
 6620W        W10671   7.469   3.866   1.580
 6621W        W10672   0.153   5.641   0.597
 6622W        W10673  10.288   8.574  10.110
 6623W        W10674   7.176   3.111   1.962
 6624W        W10675   5.998   2.367   9.494
 6625W        W10676   4.617   1.446   9.380
 6626W        W10677   4.493   4.685   3.250
 6627W        W10678  10.084   7.453  10.315
 6628W        W10679  10.053  10.922   0.807
 6629W        W10680  11.336   5.260  11.110
 6630W        W10681   4.791   1.347  10.308
 6631W        W10682   0.806   3.509   9.558
 6632W        W10683   5.775   4.372   0.689
 6633W        W10684  10.170   7.512   1.618
 6634W        W10685   8.708   1.292   9.774
 6635W        W10686   3.246   8.608   0.231
 6636W        W10687   5.908   1.633  11.041
 6637W        W10688   4.949   1.735   4.037
 6638W        W10689   6.992   1.322   1.185
 6639W        W10690   7.892   5.262   9.488
 6640W        W10691   0.450   3.791   2.812
 6641W        W10692   8.080  11.381  10.875
 6642W        W10693   1.922   5.259   8.990
 6643W        W10694   1.385   2.829  10.354
 6644W        W10695   8.159  11.301   9.975
 6645W        W10696   9.249   0.389   3.285
 6646W        W10697   0.420  11.224   0.178
 6647W        W10698   8.659  11.250  10.225
 6648W        W10699   2.688   6.564   8.735
 6649W        W10700  10.517   0.694  10.674
 6650W        W10701   5.748   7.687   4.043
 6651W        W10702   3.350   3.354  11.426
 6652W        W10703   4.067  10.360  10.753
 6653W        W10704   9.025   3.311   9.053
 6654W        W10705   6.202   5.732   2.738
 6655W        W10706   4.972   8.118   9.259
 6656W        W10707   9.252   5.916  10.420
 6657W        W10708  10.344   4.117   3.064
 6658W        W10709   3.438   7.405   3.026
 6659W        W10710   7.624   2.120  11.880
 6660W        W10711   3.107   1.393  11.380
 6661W        W10712  10.740  11.278   9.061
 6662W        W10713  10.386   0.814   3.261
 6663W        W10714   4.113   1.239  10.383
 6664W        W10715   5.879  10.922   2.450
 6665W        W10716   2.003  10.359   9.187
 6666W        W10717   1.376   3.718  10.703
 6667W        W10718   1.729   4.594   0.390
 6668W        W10719   4.266   1.248   1.896
 6669W        W10720   9.024   8.975   9.846
 6670W        W10721   1.307   4.569  10.806
 6671W        W10722   4.276   2.764   1.544
 6672W        W10723   0.714   4.158   1.214
 6673W        W10724   9.266  10.331   3.731
 6674W        W10725  10.745   6.069   1.545
 6675W        W10726   2.142  10.611   1.804
 6676W        W10727  11.298   0.778   3.181
 6677W        W10728   0.589   1.917  11.140
 6678W        W10729   1.872   9.962   1.530
 6679W        W10730   7.604   6.214  10.209
 6680W        W10731   4.372   6.656  11.810
 6681W        W10732   0.107   1.689  11.274
 6682W        W10733   7.610  10.329  10.966
 6683W        W10734   7.585   8.016  10.646
 6684W        W10735   3.754   4.999   9.354
 6685W        W10736   5.094   0.283   1.284
 6686W        W10737   1.214   5.933  10.848
 6687W        W10738   9.853   8.842   3.330
 6688W        W10739   7.653   5.489   0.908
 6689W        W10740   2.211   8.797   2.483
 6690W        W10741   7.589   1.920   9.226
 6691W        W10742   9.301   4.833  10.067
 6692W        W10743   7.138   7.439   9.057
 6693W        W10744  10.879  10.923   3.007
 6694W        W10745   7.968   2.330   9.696
 6695W        W10746   3.714   6.620  10.811
 6696W        W10747   7.915  10.993   3.348
 6697W        W10748   3.939  10.283  11.352
 6698W        W10749   5.402   8.484  10.943
 6699W        W10750   0.586   9.065  10.196
 6700W        W10751   0.229   3.100   2.495
 6701W        W10752   6.095   2.510  10.998
 6702W        W10753  10.635   8.397   1.361
 6703W        W10754   3.218  11.490   9.206
 6704W        W10755  10.141   4.238   9.118
 6705W        W10756   6.816   1.781   2.419
 6706W        W10757   0.838   4.578  10.483
 6707W        W10758   5.754   2.861   2.836
 6708W        W10759   9.984   2.721   0.192
 6709W        W10760   3.904   7.263   2.814
 6710W        W10761  10.173   0.364   3.441
 6711W        W10762   7.383   1.057   2.396
 6712W        W10763   7.941   3.307  11.145
 6713W        W10764   0.817   7.389   0.814
 6714W        W10765   1.860   3.119  10.168
 6715W        W10766   1.805   6.420   0.377
 6716W        W10767   5.562   1.901  11.992
 6717W        W10768   2.345   9.581  10.649
 6718W        W10769   6.179   2.513  11.512
 6719W        W10770   4.517   6.123   1.291
 6720W        W10771   4.743  11.488   0.420
 6721W        W10772   9.027   7.369  10.407
 6722W        W10773   1.651  11.003  11.540
 6723W        W10774   4.164   9.530  11.484
 6724W        W10775   6.257   8.732   2.198
 6725W        W10776   3.655   0.888  10.412
 6726W        W10777   0.940   6.265  11.820
 6727W        W10778   8.831   7.607   8.840
 6728W        W10779   5.342   4.462   0.945
 6729W        W10780  10.005   3.265   8.745
 6730W        W10781   8.059   1.927  11.561
 6731W        W10782   9.596   9.303   3.265
 6732W        W10783   5.581   4.611   1.908
 6733W        W10784   5.843   7.085   9.197
 6734W        W10785   3.395   1.909   2.145
 6735W        W10786   8.426   5.909   9.896
 6736W        W10787   8.370   8.399   9.551
 6737W        W10788   0.219   4.068   1.379
 6738W        W10789   6.113   1.600   9.063
 6739W        W10790   4.786   7.966   1.103
 6740W        W10791   8.970   9.179   3.577
 6741W        W10792  10.009   7.970   1.526
 6742W        W10793   6.813  10.847   2.209
 6743W        W10794   9.472   3.380   8.754
 6744W        W10795   8.544   0.167   3.777
 6745W        W10796   2.959   0.693   0.277
 6746W        W10797   6.028   2.149   9.941
 6747W        W10798   4.906   2.641   1.805
 6748W        W10799   7.050   8.663   9.513
 6749W        W10800   7.801  10.385  11.437
 6750W        W10801   5.699   0.734   2.734
 6751W        W10802  11.384   5.195   9.927
 6752W        W10803   7.444  10.031  11.618
 6753W        W10804   7.120  11.184   1.318
 6754W        W10805  11.378   3.832  11.361
 6755W        W10806   9.859   9.996  11.926
 6756W        W10807   7.135   8.893   0.463
 6757W        W10808   2.150   4.991  11.746
 6758W        W10809   4.724   8.918   2.817
 6759W        W10810   2.701   9.503   1.701
 6760W        W10811  10.746   7.715   2.238
 6761W        W10812   1.754   2.685   9.893
 6762W        W10813   5.387   9.372   9.918
 6763W        W10814   2.323  10.045  11.385
 6764W        W10815  11.431   8.114   0.907
 6765W        W10816   8.209   1.216   0.632
 6766W        W10817   9.973   7.607   0.322
 6767W        W10818   5.113   7.242  10.920
 6768W        W10819   3.540   6.923   2.793
 6769W        W10820   8.634   3.038   1.241
 6770W        W10821   7.765   3.587   1.255
 6771W        W10822   1.373   7.170  11.559
 6772W        W10823   0.894   3.805   0.430
 6773W        W10824   2.797   2.854   1.000
 6774W        W10825  10.313  11.019  11.862
 6775W        W10826   6.514   2.338  10.760
 6776W        W10827   9.472   6.941   9.697
 6777W        W10828   4.767   9.904  10.959
 6778W        W10829   6.652   0.807   3.903
 6779W        W10830  10.515   7.269   1.334
 6780W        W10831  11.360   0.155   9.571
 6781W        W10832   5.202   9.008  10.752
 6782W        W10833   2.349   1.968  10.515
 6783W        W10834   5.072   9.362   2.442
 6784W        W10835   3.074   5.102   3.818
 6785W        W10836  11.304   5.268   0.508
 6786W        W10837   8.176   6.004   8.444
 6787W        W10838   9.742   0.494   1.791
 6788W        W10839  10.489   3.869  10.904
 6789W        W10840   1.159   6.696   8.712
 6790W        W10841   2.118   7.603   3.664
 6791W        W10842   4.479   1.442  10.689
 6792W        W10843   6.046   7.539  10.275
 6793W        W10844   2.700   7.519   9.336
 6794W        W10845   4.390  10.696   9.386
 6795W        W10846   4.794   7.181  10.342
 6796W        W10847   7.911  10.353   1.562
 6797W        W10848   7.955   1.249   1.427
 6798W        W10849   7.149   6.791   2.660
 6799W        W10850   9.192   8.426   1.269
 6800W        W10851   5.761   2.642   0.455
 6801W        W10852   1.886   2.154  10.491
 6802W        W10853   3.036   2.487  11.039
 6803W        W10854  10.425   7.443   2.951
 6804W        W10855  11.080   0.447   1.378
 6805W        W10856   5.897   4.283  11.374
 6806W        W10857   7.510   5.353   1.372
 6807W        W10858   7.180   9.446   2.895
 6808W        W10859   9.379   8.875   1.494
 6809W        W10860   5.686  10.731   3.432
 6810W        W10861   7.917   2.387   9.187
 6811W        W10862   3.700   7.030   0.027
 6812W        W10863   2.287  11.089   1.863
 6813W        W10864  11.461   0.522   0.972
 6814W        W10865   3.292   8.889   1.036
 6815W        W10866   7.346   6.978   8.862
 6816W        W10867   8.910   7.624   9.983
 6817W        W10868  10.507   9.083   8.730
 6818W        W10869   4.827   6.670  11.277
 6819W        W10870   0.394   4.862   1.627
 6820W        W10871   2.432   6.455  11.462
 6821W        W10872   9.471   9.775   2.886
 6822W        W10873   8.801   5.757  11.901
 6823W        W10874  10.890   0.339   9.426
 6824W        W10875   4.995   7.491   0.955
 6825W        W10876   2.366  10.298   0.893
 6826W        W10877  10.333   6.268   1.236
 6827W        W10878   5.317   9.797   0.221
 6828W        W10879  11.294   4.692   3.327
 6829W        W10880   5.236   0.802  11.782
 6830W        W10881   5.129   2.585   3.622
 6831W        W10882   5.743   4.088  10.744
 6832W        W10883   9.376  10.274   2.832
 6833W        W10884   1.841   7.812   2.689
 6834W        W10885  10.772   7.096   0.906
 6835W        W10886   9.878   4.737   0.211
 6836W        W10887   9.979   1.203   2.070
 6837W        W10888   3.185   4.747   0.909
 6838W        W10889   2.965   3.435  11.759
 6839W        W10890   0.659  10.444   0.082
 6840W        W10891   6.684   8.678   2.686
 6841W        W10892   8.476   9.482  10.134
 6842W        W10893   1.819   5.587   3.014
 6843W        W10894  11.440   2.711   2.707
 6844W        W10895   5.482  11.311   9.404
 6845W        W10896   9.023   9.926   0.898
 6846W        W10897   8.402   3.469  10.926
 6847W        W10898   6.535   1.645  10.179
 6848W        W10899   0.820   5.328  11.893
 6849W        W10900   2.689   8.157   1.302
 6850W        W10901   9.395   4.220  10.338
 6851W        W10902   7.497   6.696   0.332
 6852W        W10903  10.016   3.759   1.094
 6853W        W10904   2.163   7.405  10.575
 6854W        W10905   9.233   7.909   9.733
 6855W        W10906   8.479   9.890   9.825
 6856W        W10907   2.686   3.789  12.001
 6857W        W10908   1.007   0.715  10.867
 6858W        W10909  10.544  10.334   9.631
 6859W        W10910   6.246   1.300   8.665
 6860W        W10911   0.503   6.016   3.086
 6861W        W10912   0.804   4.554   9.543
 6862W        W10913   7.451   1.402   1.412
 6863W        W10914   9.405   5.831  11.320
 6864W        W10915  10.849   1.330  11.626
 6865W        W10916   8.896   4.785  11.791
 6866W        W10917   2.524   3.322  10.859
 6867W        W10918   6.379   1.379  10.924
 6868W        W10919   7.487   7.368   0.807
 6869W        W10920   1.333  10.933   2.282
 6870W        W10921   8.878   7.405   3.279
 6871W        W10922   5.480  10.580   2.441
 6872W        W10923   4.128  10.366  11.824
 6873W        W10924   1.354   1.810   9.963
 6874W        W10925   3.830   4.166   2.789
 6875W        W10926   5.044   6.041  11.997
 6876W        W10927   9.449   8.411   2.653
 6877W        W10928   7.667   5.554   2.203
 6878W        W10929   1.211  10.064   3.266
 6879W        W10930   5.517   7.493   0.893
 6880W        W10931  10.390  10.035   3.108
 6881W        W10932   4.268   5.232   0.556
 6882W        W10933   4.251   2.199   9.278
 6883W        W10934   8.913   7.148   2.820
 6884W        W10935   5.773   3.676  11.489
 6885W        W10936   7.913   2.756   1.689
 6886W        W10937   3.202   2.341  11.508
 6887W        W10938   7.487  10.025   1.819
 6888W        W10939   2.353   6.669   9.132
 6889W        W10940   9.028   9.538   1.735
 6890W        W10941   4.125  10.279   9.287
 6891W        W10942   3.170   6.194   1.786
 6892W        W10943   1.684   8.141  11.442
 6893W        W10944   6.116   0.224   1.389
 6894W        W10945   3.002   3.351   2.291
 6895W        W10946   4.179  11.440   8.910
 6896W        W10947   8.988   8.704   3.285
 6897W        W10948   7.163   8.154  10.355
 6898W        W10949   7.294   2.228   1.205
 6899W        W10950  10.085   8.089   9.891
 6900W        W10951   5.676   1.769   0.500
 6901W        W10952   0.823  11.353  10.912
 6902W        W10953   0.654  10.720   9.483
 6903W        W10954   3.303  11.239   2.606
 6904W        W10955   0.319   7.861   9.011
 6905W        W10956   2.008   7.599  10.125
 6906W        W10957   4.701   1.893  10.500
 6907W        W10958   7.556  10.448   1.184
 6908W        W10959   5.285   8.861   9.903
 6909W        W10960   7.176   5.349   0.708
 6910W        W10961   8.017   7.458   0.426
 6911W        W10962   5.587   3.128   0.386
 6912W        W10963  10.955   8.949  10.990
 6913W        W10964   3.662  10.427   9.426
 6914W        W10965   8.052   6.333   9.266
 6915W        W10966  10.288   1.995  10.570
 6916W        W10967   2.856   5.646   3.828
 6917W        W10968   6.114   0.266   0.058
 6918W        W10969   2.356   0.921  11.260
 6919W        W10970   8.123  10.325  11.004
 6920W        W10971   2.670  10.176  10.491
 6921W        W10972   1.433   1.510  10.839
 6922W        W10973   9.524   0.341  11.333
 6923W        W10974   7.156   9.198   9.102
 6924W        W10975   3.339   5.236   0.932
 6925W        W10976   9.890   7.225   0.005
 6926W        W10977   7.495   1.803   0.981
 6927W        W10978   6.908   7.424  10.814
 6928W        W10979  11.213   4.736  11.417
 6929W        W10980   9.251   7.613   2.068
 6930W        W10981   2.842   9.945  10.926
 6931W        W10982   7.412  10.096   3.617
 6932W        W10983  10.818   5.512   0.383
 6933W        W10984  10.463   8.841  10.760
 6934W        W10985   0.842   0.005   2.763
 6935W        W10986  11.062   3.372  11.275
 6936W        W10987  10.744   5.088   2.808
 6937W        W10988   4.264  10.014   0.167
 6938W        W10989   8.073  11.075  11.408
 6939W        W10990   0.278   6.748   9.641
 6940W        W10991   9.736   9.483   9.635
 6941W        W10992   7.374   2.441  10.401
 6942W        W10993   5.265   4.348   3.165
 6943W        W10994   2.666  11.337   9.879
 6944W        W10995   3.457   0.986  10.875
 6945W        W10996   1.622   5.699   9.008
 6946W        W10997   1.641   4.031   9.141
 6947W        W10998   8.426   9.240   1.436
 6948W        W10999   3.390   4.709   1.501
 6949W        W11000   1.628   6.881   1.159
 6950W        W11001   6.809   8.818   9.936
 6951W        W11002   9.823   9.459   1.197
 6952W        W11003   9.003   9.951   1.426
 6953W        W11004   3.118   3.878   2.305
 6954W        W11005   7.341   2.676  10.841
 6955W        W11006   8.423   5.229  10.464
 6956W        W11007   8.366   8.552   0.871
 6957W        W11008   7.489   5.669   0.462
 6958W        W11009  11.392   0.358   3.525
 6959W        W11010   8.014   0.733   1.342
 6960W        W11011   0.476   4.012  10.918
 6961W        W11012  10.911   2.462  10.970
 6962W        W11013   6.520   7.686   9.652
 6963W        W11014   4.290   1.347   8.971
 6964W        W11015   6.048   5.008   9.596
 6965W        W11016   5.256   1.656   1.249
 6966W        W11017   5.824  10.033   9.090
 6967W        W11018   6.357  11.426  10.442
 6968W        W11019   4.386   5.615   1.379
 6969W        W11020   8.839   0.977  11.929
 6970W        W11021   3.327   2.205   8.745
 6971W        W11022   9.933   5.983   8.828
 6972W        W11023   7.521   1.701  10.949
 6973W        W11024   3.816  11.427  10.002
 6974W        W11025  10.247   5.339  11.002
 6975W        W11026   7.475   1.306   1.916
 6976W        W11027   9.816   7.502   2.291
 6977W        W11028   5.531   8.549  11.990
 6978W        W11029   5.784  11.030   9.697
 6979W        W11030   6.211   4.070   9.950
 6980W        W11031   5.483  11.419  11.771
 6981W        W11032   8.513   0.790   0.711
 6982W        W11033   5.728   8.890   9.083
 6983W        W11034   9.555  11.283   9.777
 6984W        W11035   2.713   0.722   3.059
 6985W        W11036   4.525   9.275  10.238
 6986W        W11037   6.641   5.180  11.061
 6987W        W11038   4.785   3.319   2.303
 6988W        W11039   2.431   5.176   9.952
 6989W        W11040  11.249   6.505   1.847
 6990W        W11041   2.866   1.942   2.154
 6991W        W11042   3.730   6.238  10.172
 6992W        W11043  11.270   7.365  10.145
 6993W        W11044   4.620  11.438   3.431
 6994W        W11045  10.319   2.025   1.195
 6995W        W11046   9.523   0.438   8.981
 6996W        W11047   8.308   0.676   9.825
 6997W        W11048   4.049  10.198   3.777
 6998W        W11049   1.198   4.562  11.694
 6999W        W11050   5.110   7.090   9.939
 7000W        W11051   6.337  11.139   0.648
 7001W        W11052   2.672   1.385  11.765
 7002W        W11053  10.335   9.538   8.501
 7003W        W11054   9.074   2.808   8.907
 7004W        W11055   1.898   0.099   8.984
 7005W        W11056   7.583   1.049   8.949
 7006W        W11057   3.777   2.867  11.841
 7007W        W11058   6.949   4.054   9.482
 7008W        W11059   2.747   2.943  10.078
 7009W        W11060   0.305   4.032   9.834
 7010W        W11061  10.227   1.949   0.693
 7011W        W11062   1.871  10.820   3.124
 7012W        W11063   8.957   4.146  10.692
 7013W        W11064   2.077   6.367   3.456
 7014W        W11065   2.769  11.260   1.717
 7015W        W11066  10.295   5.686   0.379
 7016W        W11067  10.848   1.348   1.575
 7017W        W11068   9.833   1.158   0.424
 7018W        W11069   1.024   7.046   0.471
 7019W        W11070   0.929   4.984   2.795
 7020W        W11071   7.288   7.148  10.582
 7021W        W11072  11.411   1.045   0.929
 7022W        W11073   2.927  11.289   0.121
 7023W        W11074   5.767   6.677   2.248
 7024W        W11075   1.849   0.884  11.277
 7025W        W11076   4.067   8.366  11.224
 7026W        W11077   7.357   2.347   0.288
 7027W        W11078   0.847   4.653   0.455
 7028W        W11079   1.322   9.786   8.872
 7029W        W11080   8.630   2.963   9.144
 7030W        W11081   6.736   9.018   3.411
 7031W        W11082   4.301   5.655   0.852
 7032W        W11083   6.074   3.679  10.671
 7033W        W11084   5.526   6.287   1.174
 7034W        W11085   4.984   3.651   8.679
 7035W        W11086   5.984   9.985   9.595
 7036W        W11087   6.458  10.879   1.826
 7037W        W11088  11.302   1.658   2.591
 7038W        W11089   7.611   2.770   0.430
 7039W        W11090   0.323   8.139   2.215
 7040W        W11091   9.047   4.637   9.104
 7041W        W11092   1.312  10.779   8.900
 7042W        W11093   7.810   0.231   2.224
 7043W        W11094   3.405   8.972   0.548
 7044W        W11095   7.956   3.657   0.786
 7045W        W11096   5.120   9.749  10.117
 7046W        W11097   8.825   0.913   1.962
 7047W        W11098  10.028  11.088   2.825
 7048W        W11099   5.588   1.239   3.523
 7049W        W11100   5.983   8.942  11.496
 7050W        W11101   5.623   4.667   2.410
 7051W        W11102   8.395   0.768   0.196
 7052W        W11103   8.056   5.840   3.656
 7053W        W11104   0.629   0.903   9.072
 7054W        W11105   2.849   4.224  11.711
 7055W        W11106  11.200   5.970   2.834
 7056W        W11107   7.503   8.038   1.584
 7057W        W11108   5.363   0.316  10.519
 7058W        W11109   5.721   6.587   9.150
 7059W        W11110   7.876   7.878   2.076
 7060W        W11111   8.894  10.413  10.336
 7061W        W11112   7.916  10.785  11.787
 7062W        W11113  10.968   0.286   0.523
 7063W        W11114   3.564   3.999  10.562
 7064W        W11115  10.161   1.498   0.934
 7065W        W11116   9.989   6.503  10.418
 7066W        W11117   4.213   2.742   3.398
 7067W        W11118   6.582   1.787   8.914
 7068W        W11119   5.723   8.173   9.527
 7069W        W11120   3.217   9.373   1.825
 7070W        W11121   7.554  11.453   1.204
 7071W        W11122   1.828   8.699   3.193
 7072W        W11123   7.337   8.344  11.774
 7073W        W11124   6.795  10.393  11.323
 7074W        W11125   0.840   8.541  10.783
 7075W        W11126   5.761  11.450   0.237
 7076W        W11127   6.719   6.342  11.758
 7077W        W11128   9.751   8.213   3.644
 7078W        W11129   5.770   8.821   0.940
 7079W        W11130  10.533   5.534   0.846
 7080W        W11131   9.105  10.474   3.202
 7081W        W11132   7.878  10.958   9.646
 7082W        W11133   6.631  10.903   9.240
 7083W        W11134   2.448   7.049  10.334
 7084W        W11135  10.744   0.337   0.059
 7085W        W11136   6.649   9.130  10.860
 7086W        W11137   4.065   2.898   1.984
 7087W        W11138   8.145   9.877   1.379
 7088W        W11139   5.097   4.525   2.221
 7089W        W11140   0.888   4.115   1.688
 7090W        W11141   6.892   2.507   9.987
 7091W        W11142   2.625   4.923  10.388
 7092W        W11143   8.260   0.351  11.850
 7093W        W11144   7.644   9.049   9.204
 7094W        W11145   3.730   5.737   0.182
 7095W        W11146  10.364   6.132   3.215
 7096W        W11147   0.027  10.800   1.361
 7097W        W11148   4.718   0.337   9.926
 7098W        W11149   5.989   3.353   8.565
 7099W        W11150   8.414  10.513   0.918
 7100W        W11151   4.715   4.132   0.437
 7101W        W11152   0.008   1.818   1.163
 7102W        W11153  10.824   7.351   2.579
 7103W        W11154   5.562   9.395   8.990
 7104W        W11155   1.418   9.181   0.133
 7105W        W11156   9.369   0.461  10.337
 7106W        W11157   2.630   7.051  11.202
 7107W        W11158   2.846  10.929  11.748
 7108W        W11159   2.119   7.332   9.396
 7109W        W11160   1.678   9.638   0.766
 7110W        W11161   0.972  10.119  11.019
 7111W        W11162   9.987   2.859  11.704
 7112W        W11163   2.353   1.552   9.620
 7113W        W11164   8.591   3.359   1.629
 7114W        W11165   0.141  10.530   2.781
 7115W        W11166  11.397   8.463   2.251
 7116W        W11167   8.445   7.105   9.415
 7117W        W11168   5.297   1.638   2.607
 7118W        W11169   9.858   6.147   3.062
 7119W        W11170   7.961   6.954   3.085
 7120W        W11171   6.985   6.584   8.780
 7121W        W11172   1.754   6.463   0.879
 7122W        W11173   6.553   1.826  10.664
 7123W        W11174   2.726   5.733  10.734
 7124W        W11175   6.075  11.301  10.850
 7125W        W11176   1.102   5.740  10.057
 7126W        W11177   1.267   8.864  10.019
 7127W        W11178   5.034   2.942   0.938
 7128W        W11179   0.741   6.509  11.351
 7129W        W11180   8.458   1.143   1.636
 7130W        W11181   7.851   7.412   2.310
 7131W        W11182   2.579   2.713   3.352
 7132W        W11183   5.560   1.343  11.832
 7133W        W11184   2.009   7.672  11.425
 7134W        W11185   8.432   0.742  11.151
 7135W        W11186   0.474   6.731  10.527
 7136W        W11187   1.960  11.138   1.156
 7137W        W11188   0.248  11.123  10.282
 7138W        W11189   4.003   4.563   9.553
 7139W        W11190  10.882   9.038   0.034
 7140W        W11191   5.100   5.565  11.765
 7141W        W11192   9.864   5.289   3.021
 7142W        W11193   6.621   9.600   8.484
 7143W        W11194  10.033   1.780   9.780
 7144W        W11195   4.694   5.713   0.535
 7145W        W11196   1.331   8.384  10.204
 7146W        W11197   8.387  11.286   9.286
 7147W        W11198   3.126   1.026  10.096
 7148W        W11199   8.611   5.768   8.237
 7149W        W11200   3.561   4.158   9.227
 7150W        W11201   2.340  10.051  10.862
 7151W        W11202   1.757   5.029   9.415
 7152W        W11203   8.064   5.997  10.243
 7153W        W11204   6.979   0.951   2.117
 7154W        W11205   5.238   0.891   2.927
 7155W        W11206   4.614   3.222   0.820
 7156W        W11207   3.515   0.059  11.441
 7157W        W11208   8.054   0.074  11.401
 7158W        W11209   4.607   0.317   8.561
 7159W        W11210   8.510   7.643   0.406
 7160W        W11211  10.328   2.700   1.379
 7161W        W11212   8.565   1.173  11.374
 7162W        W11213   5.343  11.426   3.171
 7163W        W11214   4.824   0.686   3.130
 7164W        W11215  10.055   8.464   9.383
 7165W        W11216   4.136   1.869   8.767
 7166W        W11217   5.183   8.273   1.269
 7167W        W11218   3.348  10.795   2.244
 7168W        W11219   5.123   9.105   1.536
 7169W        W11220   6.760  10.907   0.076
 7170W        W11221   1.618   9.001  10.884
 7171W        W11222  11.357   1.904  11.666
 7172W        W11223   2.611   5.728   1.365
 7173W        W11224   8.610   4.087   0.489
 7174W        W11225   3.361   5.229   1.462
 7175W        W11226   6.879   4.573  11.253
 7176W        W11227  10.821   2.758   0.731
 7177W        W11228   6.509  11.131   3.044
 7178W        W11229   5.099   3.098  11.086
 7179W        W11230   9.422  10.878   0.104
 7180W        W11231   3.766   7.977  10.508
 7181W        W11232   7.152   7.050   0.059
 7182W        W11233   1.469   8.515   9.179
 7183W        W11234   3.883   1.876   1.290
 7184W        W11235   1.185   6.727  11.743
 7185W        W11236   5.213   1.440   0.758
 7186W        W11237   4.746   8.695   1.915
 7187W        W11238   3.328   8.802   8.643
 7188W        W11239   1.271   4.670   0.183
 7189W        W11240   7.230   8.396  10.802
 7190W        W11241   0.665   1.474  10.416
 7191W        W11242   2.615   8.653   1.257
 7192W        W11243   7.004   1.715  10.350
 7193W        W11244   5.057  10.802   0.511
 7194W        W11245   2.666   2.354   2.444
 7195W        W11246  10.785   4.213   2.803
 7196W        W11247   4.676   6.120   1.817
 7197W        W11248   8.806   3.652   1.226
 7198W        W11249   5.504   3.282   2.680
 7199W        W11250   1.798   5.535   9.455
 7200W        W11251   4.499   2.128   2.870
 7201W        W11252   6.155   3.127   8.978
 7202W        W11253   6.555   5.639   1.742
 7203W        W11254   3.600  11.245  10.960
 7204W        W11255   3.364   7.135  10.480
 7205W        W11256   3.811   2.617  10.361
 7206W        W11257  11.415   4.273   9.140
 7207W        W11258   9.461   5.032   0.404
 7208W        W11259   6.538   5.687  11.283
 7209W        W11260   8.713   6.631   8.780
 7210W        W11261   0.607   1.246   9.940
 7211W        W11262   4.301   4.572  10.815
 7212W        W11263   1.065   7.874   3.409
 7213W        W11264   4.146   2.533  11.950
 7214W        W11265   5.739   7.516   8.918
 7215W        W11266   8.099   3.699   9.615
 7216W        W11267   0.379   4.899  11.761
 7217W        W11268   0.851   9.036  10.633
 7218W        W11269   6.977   0.851   2.629
 7219W        W11270   0.200   7.636  10.086
 7220W        W11271   3.817   2.085  11.427
 7221W        W11272   7.023  11.476   2.310
 7222W        W11273   9.160   3.299   2.750
 7223W        W11274   4.079   1.716   9.256
 7224W        W11275   9.429   2.425   9.710
 7225W        W11276   5.216   6.754   9.160
 7226W        W11277   6.122   6.238   9.395
 7227W        W11278   0.231   6.613   0.054
 7228W        W11279   2.236   0.205   1.044
 7229W        W11280   5.511  10.267  10.766
 7230W        W11281   4.921   0.196   3.129
 7231W        W11282   2.162   1.948   3.069
 7232W        W11283   0.767  11.203  11.797
 7233W        W11284   7.995  10.930   2.827
 7234W        W11285   8.682   1.342   0.769
 7235W        W11286   0.546   9.714   0.576
 7236W        W11287   7.017   7.569   9.555
 7237W        W11288   0.119   5.272   0.091
 7238W        W11289   4.686   6.174  11.240
 7239W        W11290   3.843  10.978  11.923
 7240W        W11291   4.560   7.577  10.042
 7241W        W11292   8.329   9.808   3.613
 7242W        W11293   3.584   1.308  10.137
 7243W        W11294   2.767   9.918   2.025
 7244W        W11295   2.146   5.130  10.354
 7245W        W11296   1.787   3.557  11.459
 7246W        W11297   8.552   8.877   9.397
 7247W        W11298   6.493   7.095   1.941
 7248W        W11299   2.617   0.940   9.969
 7249W        W11300   2.623   1.834   2.615
 7250W        W11301   0.222  11.495   1.886
 7251W        W11302   4.110   3.608  10.437
 7252W        W11303   3.731   6.060   8.328
 7253W        W11304   3.304   4.757  10.066
 7254W        W11305   0.418   6.671   1.147
 7255W        W11306   0.767   3.155  11.023
 7256W        W11307   8.625   8.911  11.022
 7257W        W11308   1.733   8.978  11.809
 7258W        W11309   8.346   1.108   1.116
 7259W        W11310   2.528   5.627   8.725
 7260W        W11311   7.421   0.474   2.997
 7261W        W11312   2.712   8.833  10.063
 7262W        W11313   4.766   2.483  11.443
 7263W        W11314  11.006   3.002   2.626
 7264W        W11315   3.463  10.542   0.449
 7265W        W11316   6.215   5.495  11.758
 7266W        W11317   7.558   8.072  11.141
 7267W        W11318   8.861   8.501   0.871
 7268W        W11319   8.137   6.364   1.373
 7269W        W11320   9.998   0.307   9.179
 7270W        W11321   9.766   7.888   3.255
 7271W        W11322   5.101   8.279  11.972
 7272W        W11323   1.756   2.618   8.951
 7273W        W11324  10.327   8.891   2.754
 7274W        W11325   3.681   4.217   8.725
 7275W        W11326  10.355   2.177  11.403
 7276W        W11327   6.266  10.397   9.739
 7277W        W11328   2.335   3.841   8.627
 7278W        W11329   3.797   9.703   0.198
 7279W        W11330   4.051   0.423   2.490
 7280W        W11331  10.391   1.788   1.789
 7281W        W11332  11.010   2.578   2.136
 7282W        W11333   1.852   7.741   9.653
 7283W        W11334   0.428   0.410   1.570
 7284W        W11335   9.105   2.758  11.346
 7285W        W11336  10.835   6.180   9.195
 7286W        W11337   2.193   6.644   1.645
 7287W        W11338  10.266   7.930   3.110
 7288W        W11339  10.885   4.664  11.810
 7289W        W11340   6.781   5.818   1.281
 7290W        W11341   0.822   2.891  10.183
 7291W        W11342   2.748   9.934  10.008
 7292W        W11343  11.272   9.518   9.031
 7293W        W11344   8.945   2.553   3.259
 7294W        W11345   0.990   2.821  10.697
 7295W        W11346   7.504  11.308   2.217
 7296W        W11347   5.708   4.034   4.049
 7297W        W11348   0.894  11.372   0.508
 7298W        W11349   1.191   4.196   1.001
 7299W        W11350   8.464   0.964   9.446
 7300W        W11351  11.175   1.700   3.683
 7301W        W11352   3.695   1.287   1.907
 7302W        W11353   2.280   9.362  11.531
 7303W        W11354   7.067   2.009  11.368
 7304W        W11355   1.746   7.837   0.972
 7305W        W11356   9.107  10.803   1.295
 7306W        W11357  10.132  11.041  11.371
 7307W        W11358   1.377   4.109  11.029
 7308W        W11359   4.192   4.691   1.804
 7309W        W11360  10.514   8.429   1.856
 7310W        W11361   2.101   3.366   3.649
 7311W        W11362   6.717   1.388   3.300
 7312W        W11363   1.559  10.489   0.904
 7313W        W11364   5.466   8.396   0.861
 7314W        W11365   0.374  10.394  11.422
 7315W        W11366   4.995  11.093   1.983
 7316W        W11367   1.059   7.479   1.297
 7317W        W11368   2.047   5.168   1.248
 7318W        W11369   0.453   2.602   1.036
 7319W        W11370   5.647   4.661   2.968
 7320W        W11371   4.506   3.241   9.004
 7321W        W11372   9.888   4.225   0.892
 7322W        W11373   3.892   8.351  11.694
 7323W        W11374   4.247  10.566   1.945
 7324W        W11375   8.849   2.323  11.444
 7325W        W11376   6.222   9.243   0.282
 7326W        W11377   0.296   5.150   0.673
 7327W        W11378   5.697   2.807  10.490
 7328W        W11379   0.446  10.993  10.763
 7329W        W11380   0.470   2.129   9.874
 7330W        W11381   0.513   6.727   2.147
 7331W        W11382  10.419   1.960   9.079
 7332W        W11383   6.890   6.037  11.395
 7333W        W11384   9.042   0.318   1.371
 7334W        W11385   2.709   6.229   0.475
 7335W        W11386  11.362  10.232   0.259
 7336W        W11387   9.078   2.127   2.119
 7337W        W11388   1.173   7.930   2.366
 7338W        W11389   3.316   5.090  11.916
 7339W        W11390   6.491   4.512  10.512
 7340W        W11391   9.236   0.564   0.057
 7341W        W11392   1.762   9.057   9.250
 7342W        W11393   3.344   1.751   8.475
 7343W        W11394  10.061   1.008   0.864
 7344W        W11395  10.002   2.410   0.791
 7345W        W11396   0.696  11.237   9.539
 7346W        W11397   8.701   6.058   8.673
 7347W        W11398   7.918   4.259   9.811
 7348W        W11399   8.989  10.178  11.925
 7349W        W11400   6.945   0.828   9.723
 7350W        W11401   7.959   4.497  10.276
 7351W        W11402   9.626   2.914   8.957
 7352W        W11403  10.396   0.935   2.282
 7353W        W11404  11.303   6.113   9.432
 7354W        W11405   5.832   2.276   1.194
 7355W        W11406   6.547   0.219   2.345
 7356W        W11407   8.257   7.893   9.568
 7357W        W11408   8.039   7.141   0.005
 7358W        W11409   7.959  11.232   1.462
 7359W        W11410   2.764   4.968   0.734
 7360W        W11411   4.947   7.069   9.455
 7361W        W11412   4.689   4.776   2.010
 7362W        W11413   1.762   2.309   0.983
 7363W        W11414   0.325   5.762  10.341
 7364W        W11415   2.883   3.688   0.488
 7365W        W11416   4.981   1.782   8.800
 7366W        W11417  10.701   6.787   9.909
 7367W        W11418   2.268   0.255   0.522
 7368W        W11419   4.161   4.881  10.390
 7369W        W11420   2.008   5.401   0.787
 7370W        W11421   6.052   6.478  10.683
 7371W        W11422   8.755   9.543   0.677
 7372W        W11423   9.964   5.643   2.493
 7373W        W11424  10.344   7.449   0.673
 7374W        W11425   1.489  11.392  10.414
 7375W        W11426  10.700   9.650   0.670
 7376W        W11427   8.626   2.558   1.048
 7377W        W11428   4.292   9.958  11.173
 7378W        W11429   8.758   5.920  10.303
 7379W        W11430   8.425   3.830   0.890
 7380W        W11431   2.099   8.075   0.716
 7381W        W11432  11.205   3.594   3.373
 7382W        W11433   7.580  10.567   2.712
 7383W        W11434   9.013   8.588   2.282
 7384W        W11435   0.971   6.933   2.279
 7385W        W11436   7.630  11.322  11.638
 7386W        W11437  10.390   8.914   1.390
 7387W        W11438   3.760   7.114   1.969
 7388W        W11439   0.569   3.675   1.353
 7389W        W11440   3.534   0.739   9.938
 7390W        W11441   0.580   9.123   2.231
 7391W        W11442  11.415   8.629  10.892
 7392W        W11443   7.263   2.800   2.819
 7393W        W11444   8.723   8.387   1.490
 7394W        W11445   3.687   3.640   9.379
 7395W        W11446   4.719   5.717  11.009
 7396W        W11447   5.326   7.279   9.153
 7397W        W11448   7.420   0.553   2.489
 7398W        W11449   3.222   3.139   9.921
 7399W        W11450   9.738   0.401   3.122
 7400W        W11451   2.377   9.942   3.386
 7401W        W11452   7.815  10.597  10.588
 7402W        W11453   7.198   1.293   3.214
 7403W        W11454   1.382   0.248   1.408
 7404W        W11455   4.494   8.477   1.126
 7405W        W11456   5.741   2.814  11.547
 7406W        W11457   1.137   1.016   0.321
 7407W        W11458   6.557   8.121   1.859
 7408W        W11459   2.828   2.701   0.355
 7409W        W11460   9.478   1.949   9.527
 7410W        W11461   3.576   7.013  11.523
 7411W        W11462   0.764   6.070   9.480
 7412W        W11463  10.277   2.914  11.014
 7413W        W11464   3.574   3.186   9.106
 7414W        W11465   2.216   1.058   3.656
 7415W        W11466   5.486   7.574  11.908
 7416W        W11467  11.327   2.739   0.793
 7417W        W11468   6.537   6.651  10.232
 7418W        W11469   7.424  10.244  10.514
 7419W        W11470   6.088   5.088   1.542
 7420W        W11471   3.596   1.812  11.834
 7421W        W11472   1.797   3.572   0.415
 7422W        W11473   5.065   4.235   1.336
 7423W        W11474   3.252   4.710   2.001
 7424W        W11475   6.100   7.728   3.651
 7425W        W11476   7.562   4.483   9.517
 7426W        W11477   5.396   9.033   0.198
 7427W        W11478  10.792   5.575   1.695
 7428W        W11479   8.582   8.877   2.221
 7429W        W11480   9.332   3.640   1.311
 7430W        W11481   8.222   8.120  11.774
 7431W        W11482   2.419   7.398   1.498
 7432W        W11483   9.096   2.698   9.415
 7433W        W11484   2.335   9.998   9.005
 7434W        W11485   6.765   4.224   0.489
 7435W        W11486   8.875   1.015   0.432
 7436W        W11487   9.895  11.248   0.224
 7437W        W11488   5.929  10.656  11.422
 7438W        W11489   4.277   1.347   0.432
 7439W        W11490  10.015  10.307   9.468
 7440W        W11491   2.838   4.537   0.466
 7441W        W11492   8.629   2.569   1.549
 7442W        W11493   8.690   7.568   1.888
 7443W        W11494   3.740   8.051   3.182
 7444W        W11495   9.939   3.280   2.416
 7445W        W11496   0.377   5.022   8.880
 7446W        W11497   0.350   8.583   2.491
 7447W        W11498   9.390  10.370   1.862
 7448W        W11499  11.115   4.566   0.288
 7449W        W11500   2.143   3.228   0.178
 7450W        W11501   5.238   1.226  11.450
 7451W        W11502   9.822   2.299   3.430
 7452W        W11503   4.661  10.395  11.837
 7453W        W11504   5.642   4.802  10.563
 7454W        W11505   7.156   3.843   3.042
 7455W        W11506   4.297   4.727   9.933
 7456W        W11507   0.491   2.676   9.355
 7457W        W11508   9.610   5.708   2.874
 7458W        W11509  10.061   7.475   3.319
 7459W        W11510   2.055   8.771   8.476
 7460W        W11511   1.765   6.464   1.425
 7461W        W11512   4.040   5.937   1.179
 7462W        W11513   5.191   7.858  11.571
 7463W        W11514   2.189  11.300  10.004
 7464W        W11515   1.978   2.689  11.291
 7465W        W11516   8.594   1.599   1.842
 7466W        W11517   0.146   9.425   9.441
 7467W        W11518  10.027   6.137   0.189
 7468W        W11519   3.631   8.420  10.774
 7469W        W11520   6.343  10.732   0.327
 7470W        W11521  10.344   9.943   1.756
 7471W        W11522   7.649   0.017   1.728
 7472W        W11523   5.119   8.638  10.392
 7473W        W11524   8.157   3.885   0.371
 7474W        W11525   8.909   3.244  11.463
 7475W        W11526   7.645   5.611  11.083
 7476W        W11527   6.709   3.663  11.388
 7477W        W11528   8.146   0.408   9.425
 7478W        W11529   4.642   2.475   3.226
 7479W        W11530  10.052   6.168  10.811
 7480W        W11531   2.366   3.387   8.953
 7481W        W11532   8.467   4.993  10.013
 7482W        W11533  11.453   4.720   8.620
 7483W        W11534   8.566   8.317  10.909
 7484W        W11535   0.777   4.878   3.473
 7485W        W11536  10.191   5.828  11.480
 7486W        W11537   0.452   4.672   2.848
 7487W        W11538   0.364   8.514   2.997
 7488W        W11539   8.443  11.236   1.721
 7489W        W11540   9.008   5.047  11.190
 7490W        W11541   7.858   4.521  11.759
 7491W        W11542   7.515   6.987   3.386
 7492W        W11543   8.938   9.133   2.490
 7493W        W11544   5.107   4.035   9.040
 7494W        W11545   8.951   5.673   2.304
 7495W        W11546  11.234  10.125   1.916
 7496W        W11547   5.012  10.060  10.536
 7497W        W11548   4.655   7.001   1.598
 7498W        W11549   1.694   3.105  11.224
 7499W        W11550   0.861  10.433  10.094
 7500W        W11551   5.999   4.911   2.089
 7501W        W11552   2.261   1.148   0.027
 7502W        W11553   2.689   5.425  10.332
 7503W        W11554  10.959  10.091   3.137
 7504W        W11555   7.210   8.382   3.360
 7505W        W11556  11.474   0.286   0.512
 7506W        W11557   6.390   0.213   9.261
 7507W        W11558   3.766   2.663   1.601
 7508W        W11559   6.951   7.987   3.105
 7509W        W11560   9.860   1.032   8.641
 7510W        W11561   5.240   3.586  11.504
 7511W        W11562   6.427   0.973   1.341
 7512W        W11563   2.004   5.061   2.102
 7513W        W11564   4.440   6.528   1.621
 7514W        W11565   0.854   2.175   3.247
 7515W        W11566   2.803   6.444   9.248
 7516W        W11567   5.022   1.236  11.944
 7517W        W11568   6.943   5.653  11.743
 7518W        W11569   9.987   1.358   9.527
 7519W        W11570   0.855   2.360   2.158
 7520W        W11571   6.471   8.127   3.302
 7521W        W11572   5.037   3.446   3.980
 7522W        W11573   8.316   2.978  10.867
 7523W        W11574   9.429   7.648   0.486
 7524W        W11575   7.480  10.797   3.158
 7525W        W11576   6.466   6.119   1.527
 7526W        W11577   6.098   0.686  11.775
 7527W        W11578   8.134   3.290   0.454
 7528W        W11579   8.532   6.573   2.680
 7529W        W11580  11.360   2.308   1.845
 7530W        W11581   9.091   5.218   0.685
 7531W        W11582   5.522  10.956  11.496
 7532W        W11583   0.259   8.544   0.043
 7533W        W11584   9.523   8.661   0.303
 7534W        W11585   6.450   5.944   9.110
 7535W        W11586   5.268   7.474   8.681
 7536W        W11587   4.239   6.225  10.258
 7537W        W11588   5.139   3.095   3.600
 7538W        W11589   8.286   3.696   1.375
 7539W        W11590   8.413   9.736   2.106
 7540W        W11591   6.199  10.852  11.827
 7541W        W11592   4.290   9.115   0.337
 7542W        W11593   1.270  11.437   1.798
 7543W        W11594   1.721   3.208   8.642
 7544W        W11595   3.748   9.282   1.913
 7545W        W11596   3.137   4.070  10.285
 7546W        W11597   2.635   8.995   9.059
 7547W        W11598   4.100  11.362   9.406
 7548W        W11599   6.378  10.085  11.414
 7549W        W11600   4.747   0.058   2.404
 7550W        W11601   1.283   7.059   2.886
 7551W        W11602   7.646   9.546   1.958
 7552W        W11603   7.381  10.766  10.387
 7553W        W11604  10.327   0.424   2.383
 7554W        W11605   0.025   4.739   2.582
 7555W        W11606   5.416   6.025  11.664
 7556W        W11607   7.362   1.673   9.590
 7557W        W11608   8.171   3.297   1.087
 7558W        W11609   6.149   1.331   1.652
 7559W        W11610   5.261   0.934   0.738
 7560W        W11611   2.555   7.029   9.459
 7561W        W11612   3.000   5.835   3.129
 7562W        W11613   2.670  10.686  10.433
 7563W        W11614   6.252   2.856   9.469
 7564W        W11615   0.474   6.184   0.274
 7565W        W11616   5.009   8.368   9.987
 7566W        W11617   5.791   9.555   0.229
 7567W        W11618   7.917   7.653  10.860
 7568W        W11619   2.586   4.230   8.913
 7569W        W11620   8.591  11.284   0.680
 7570W        W11621   3.087   5.876   0.408
 7571W        W11622   2.516  10.366   2.046
 7572W        W11623   9.963   4.170  11.523
 7573W        W11624   6.743   8.548   3.181
 7574W        W11625  11.267   1.737  10.290
 7575W        W11626   0.813  11.012   2.388
 7576W        W11627   6.984  10.948  10.124
 7577W        W11628   6.637   4.281  10.080
 7578W        W11629  10.238   4.588  10.409
 7579W        W11630   8.162   4.791   2.679
 7580W        W11631   1.309   7.557   2.680
 7581W        W11632   9.838   4.278  10.584
 7582W        W11633   2.829   3.723  10.975
 7583W        W11634   0.489   5.040   1.147
 7584W        W11635   9.037   6.854  10.445
 7585W        W11636   8.974   3.209   9.564
 7586W        W11637   9.307   4.102  11.991
 7587W        W11638  11.259   4.229  11.694
 7588W        W11639   5.026   3.801   9.612
 7589W        W11640   4.054   2.055   0.856
 7590W        W11641   8.970   7.866   0.343
 7591W        W11642   3.453   5.237  10.877
 7592W        W11643   7.417   3.250   0.406
 7593W        W11644   2.209   7.647   1.901
 7594W        W11645   3.912   1.709   0.446
 7595W        W11646   4.226   6.707  10.847
 7596W        W11647   3.569   6.599   1.735
 7597W        W11648  10.607   9.553   2.339
 7598W        W11649   9.611   6.440  11.666
 7599W        W11650   6.103   4.408   3.146
 7600W        W11651   9.446   7.020   2.783
 7601W        W11652   0.369  10.209   0.436
 7602W        W11653   2.282   7.936   0.267
 7603W        W11654   9.138   6.858   8.597
 7604W        W11655  10.774   1.978  10.968
 7605W        W11656   2.800   3.295  11.293
 7606W        W11657   6.029  10.411   3.180
 7607W        W11658   2.272   8.097   2.957
 7608W        W11659   1.220   1.764   2.795
 7609W        W11660   2.878   5.985   9.024
 7610W        W11661  10.990   3.568   0.481
 7611W        W11662   9.539   4.776   2.788
 7612W        W11663  10.891   4.248   8.450
 7613W        W11664   2.705  11.352  10.806
 7614W        W11665   4.711   8.444   9.577
 7615W        W11666   1.672   6.746  11.483
 7616W        W11667   9.788   5.682   3.372
 7617W        W11668   6.645   2.900   0.173
 7618W        W11669   7.395   4.549  11.997
 7619W        W11670  10.114   3.554  10.394
 7620W        W11671   6.106  10.874   1.427
 7621W        W11672   8.833   5.076   9.312
 7622W        W11673   9.948   0.725   2.187
 7623W        W11674  11.233   9.907  11.864
 7624W        W11675   7.702   3.215   2.477
 7625W        W11676   8.890   8.013   1.787
 7626W        W11677   8.228   8.608   9.065
 7627W        W11678   6.900  10.218   0.974
 7628W        W11679  10.290   4.135  11.913
 7629W        W11680   3.410   2.861  11.069
 7630W        W11681  10.990   9.972   9.021
 7631W        W11682   3.677  11.263   9.084
 7632W        W11683   8.513   5.071  11.374
 7633W        W11684   3.358   7.522   1.556
 7634W        W11685   5.059   8.711   2.489
 7635W        W11686   9.284   9.619   9.438
 7636W        W11687   2.489   9.107  10.896
 7637W        W11688   4.277   4.834  11.250
 7638W        W11689  11.349   7.230   3.629
 7639W        W11690   2.846   2.163   9.010
 7640W        W11691   0.286   0.343  11.267
 7641W        W11692  11.309   3.399   9.562
 7642W        W11693   5.582   2.364   8.733
 7643W        W11694  10.328   7.557  10.743
 7644W        W11695   1.306  10.933   1.778
 7645W        W11696   7.631   3.598   9.428
 7646W        W11697  10.981  10.521   3.454
 7647W        W11698   5.907   0.951   1.366
 7648W        W11699  11.316   9.863  10.413
 7649W        W11700   5.177   4.061   2.755
 7650W        W11701   6.581   0.679   0.911
 7651W        W11702   9.316   0.257  10.843
 7652W        W11703   6.102   1.850   1.351
 7653W        W11704   3.344   4.630   2.980
 7654W        W11705   7.606   7.586  11.341
 7655W        W11706  10.700  10.864   9.413
 7656W        W11707   4.369   9.079   9.778
 7657W        W11708   5.392   3.224  10.273
 7658W        W11709   4.388   1.785   1.228
 7659W        W11710  11.307   1.900   0.687
 7660W        W11711   1.311   8.807   3.316
 7661W        W11712   8.825   4.628   9.992
 7662W        W11713   0.502   7.919   0.242
 7663W        W11714   7.647   5.852   1.333
 7664W        W11715   5.157   7.596   2.742
 7665W        W11716   3.832   7.925  12.000
 7666W        W11717   3.150   4.976  10.513
 7667W        W11718   4.679   3.551   1.861
 7668W        W11719   0.211   3.763   3.554
 7669W        W11720   5.382   4.135   1.722
 7670W        W11721   5.690   7.660   0.427
 7671W        W11722   7.053  10.881   9.530
 7672W        W11723   1.634   8.496  11.909
 7673W        W11724  10.416   8.647   8.473
 7674W        W11725   8.353   5.049   9.523
 7675W        W11726   7.161   6.088  11.858
 7676W        W11727   6.179   4.424   2.202
 7677W        W11728   6.964   3.249  11.563
 7678W        W11729   0.472   0.268   9.616
 7679W        W11730   8.090   4.969   8.252
 7680W        W11731   3.192   7.627  11.578
 7681W        W11732   4.985   0.754  10.266
 7682W        W11733   1.801   5.669  10.335
 7683W        W11734   8.910   5.051   8.802
 7684W        W11735  11.356  11.018   2.784
 7685W        W11736   4.404   8.110   2.646
 7686W        W11737   1.390   3.809   0.700
 7687W        W11738   7.878  10.766  11.068
 7688W        W11739   5.519   5.159   3.072
 7689W        W11740   1.347   7.151   8.962
 7690W        W11741   9.863   6.064   9.393
 7691W        W11742   7.354   4.347   8.736
 7692W        W11743   5.575   3.122   8.413
 7693W        W11744   0.890   2.347   3.760
 7694W        W11745   5.041   1.517   3.477
 7695W        W11746   6.556   4.072   2.257
 7696W        W11747   8.351   2.928   0.791
 7697W        W11748   3.089   9.386   3.180
 7698W        W11749   8.617   4.868   3.006
 7699W        W11750   4.118   3.728   2.685
 7700W        W11751  11.081  10.536  10.312
 7701W        W11752   8.186   9.811  10.923
 7702W        W11753   2.429  10.423   0.368
 7703W        W11754   7.941   8.942   0.109
 7704W        W11755   4.079   3.722   9.709
 7705W        W11756   1.166   7.430  10.341
 7706W        W11757   2.658   0.500   1.213
 7707W        W11758   9.953   4.989  11.244
 7708W        W11759   6.112  11.325   9.994
 7709W        W11760   7.460   2.214   9.614
 7710W        W11761   7.177   0.665   1.728
 7711W        W11762  11.452  11.063  11.101
 7712W        W11763   5.664   0.037   2.793
 7713W        W11764   5.183   5.044   1.531
 7714W        W11765   6.065   2.640   0.006
 7715W        W11766   0.542  11.496  10.529
 7716W        W11767   3.124   0.767  10.537
 7717W        W11768   7.085  10.683   1.192
 7718W        W11769   4.294   4.066  11.661
 7719W        W11770  11.463   9.383   9.936
 7720W        W11771   0.229   8.383   0.586
 7721W        W11772   2.391   2.932   0.539
 7722W        W11773   4.787   2.405  10.542
 7723W        W11774   0.358   4.380   2.248
 7724W        W11775   7.045   8.026   2.560
 7725W        W11776   5.730  10.063   2.947
 7726W        W11777   6.508   1.611   9.415
 7727W        W11778   1.436  10.803   9.833
 7728W        W11779   1.264   2.101   2.417
 7729W        W11780   0.986   6.258   9.930
 7730W        W11781  10.890   3.844  11.442
 7731W        W11782   4.742   8.908   3.352
 7732W        W11783   6.411   2.277   3.614
 7733W        W11784  10.648   1.278   0.959
 7734W        W11785   6.427   3.130   0.827
 7735W        W11786   5.578   7.312   9.972
 7736W        W11787   4.178   8.664   0.030
 7737W        W11788   2.213  10.485  10.528
 7738W        W11789  10.499   3.147   1.184
 7739W        W11790   1.084   2.724  11.870
 7740W        W11791  10.292   5.676   3.465
 7741W        W11792   5.174   5.633  10.059
 7742W        W11793   9.857   3.128  10.104
 7743W        W11794   5.256   2.093   9.077
 7744W        W11795   0.116   0.951   9.131
 7745W        W11796  10.022   6.461   9.045
 7746W        W11797  11.379   6.627   9.336
 7747W        W11798   2.547   4.573   3.334
 7748W        W11799   9.886   0.684   1.243
 7749W        W11800   6.930   7.910   8.956
 7750W        W11801   2.573   3.611   3.563
 7751W        W11802   2.054   9.294   0.792
 7752W        W11803   0.187   4.332  10.269
 7753W        W11804   0.559  11.305   3.224
 7754W        W11805   0.750   2.666   3.332
 7755W        W11806   5.265   0.863   1.936
 7756W        W11807   8.011  10.497   3.095
 7757W        W11808   5.175   7.531   1.809
 7758W        W11809  10.405  10.878  10.079
 7759W        W11810   1.819   0.194   0.231
 7760W        W11811   5.019   7.377  11.822
 7761W        W11812  10.853   9.273   8.401
 7762W        W11813   1.288   4.791   1.726
 7763W        W11814   8.340   4.502   9.941
 7764W        W11815   1.838   5.372  11.945
 7765W        W11816  11.004   5.515   2.694
 7766W        W11817   8.564  11.322  10.708
 7767W        W11818   2.299   0.278   2.481
 7768W        W11819   9.868   8.469  10.825
 7769W        W11820   8.345   7.639   0.907
 7770W        W11821   5.524   9.202   1.851
 7771W        W11822  10.246   6.064   1.690
 7772W        W11823   9.774   8.870  10.325
 7773W        W11824   0.430   3.601  10.606
 7774W        W11825   0.357   6.568   0.590
 7775W        W11826   5.457   0.373   2.447
 7776W        W11827  10.838   7.289   9.884
 7777W        W11828   4.511   2.859   2.416
 7778W        W11829   2.258   6.558   0.638
 7779W        W11830   5.827   8.063  10.251
 7780W        W11831   1.978   3.203   1.457
 7781W        W11832   6.893   2.118   3.531
 7782W        W11833   3.108   1.799   1.711
 7783W        W11834   6.493   3.488   3.702
 7784W        W11835   1.703   8.415  10.974
 7785W        W11836   4.058   5.691  11.335
 7786W        W11837   2.059   1.312   2.389
 7787W        W11838   8.252   1.433   9.518
 7788W        W11839  11.095   9.012  10.047
 7789W        W11840  10.636  10.421  10.118
 7790W        W11841  10.952   3.805   9.300
 7791W        W11842  11.414   3.654   9.113
 7792W        W11843   2.808   7.322   0.766
 7793W        W11844   7.444   8.071   2.985
 7794W        W11845   3.283  11.110   3.116
 7795W        W11846   0.416   7.052   0.795
 7796W        W11847   0.879   0.324   0.799
 7797W        W11848   9.655  10.391   9.840
 7798W        W11849   8.649   3.522   2.651
 7799W        W11850   0.492   8.349  10.478
 7800W        W11851   5.594   9.153  11.216
 7801W        W11852   3.119   1.641  11.827
 7802W        W11853   9.686  10.089   0.415
 7803W        W11854   3.508   6.683  10.314
 7804W        W11855   6.917   4.075   8.931
 7805W        W11856   1.326   5.477   0.055
 7806W        W11857   5.853   0.277  11.585
 7807W        W11858   9.560  10.771   1.556
 7808W        W11859   5.240   2.766   9.503
 7809W        W11860   8.469   8.537  10.071
 7810W        W11861   7.753   4.896   3.630
 7811W        W11862   1.355   2.827   1.419
 7812W        W11863  10.633  11.054  11.425
 7813W        W11864  10.296  11.466   8.855
 7814W        W11865   8.015   7.402   9.545
 7815W        W11866  11.307   1.823   0.169
 7816W        W11867   8.029   5.498   1.256
 7817W        W11868   9.586   7.443   3.035
 7818W        W11869   5.482  11.159   0.794
 7819W        W11870   7.428   4.781  11.545
 7820W        W11871   7.640   2.866  11.323
 7821W        W11872   3.561   8.922   3.693
 7822W        W11873   4.734   2.879   9.593
 7823W        W11874   8.957   3.795   0.205
 7824W        W11875   0.838   4.779  11.954
 7825W        W11876   6.232   1.342   3.183
 7826W        W11877  10.532   2.330   0.795
 7827W        W11878  10.120  10.487   3.201
 7828W        W11879   0.698  11.304  10.049
 7829W        W11880   4.802   4.179   2.448
 7830W        W11881  10.316   9.329   0.479
 7831W        W11882   8.088   6.355   3.718
 7832W        W11883   6.756   9.119   2.902
 7833W        W11884   1.488  11.250   1.346
 7834W        W11885   5.327   5.178  10.697
 7835W        W11886   0.004   1.216   2.361
 7836W        W11887   8.504   7.687  10.282
 7837W        W11888   3.376   3.787  11.053
 7838W        W11889   0.672   5.427   8.641
 7839W        W11890   6.811   9.867   2.765
 7840W        W11891   0.640   8.083  10.894
 7841W        W11892   5.935   6.068   1.380
 7842W        W11893   8.591   4.047   8.741
 7843W        W11894   9.621   9.860   2.216
 7844W        W11895   8.661   5.476  10.078
 7845W        W11896   9.107   2.771  10.848
 7846W        W11897   8.046   5.371  10.791
 7847W        W11898  10.421   2.466   9.150
 7848W        W11899   2.687   1.996   9.762
 7849W        W11900   1.109   1.413  11.557
 7850W        W11901   3.602  10.739   9.014
 7851W        W11902   6.356   0.311   1.852
 7852W        W11903   7.081  10.408  10.873
 7853W        W11904   0.745   2.307  11.821
 7854W        W11905   7.947   6.915   0.449
 7855W        W11906   9.940   0.536   0.722
 7856W        W11907   7.055   7.014   3.141
 7857W        W11908   0.360   6.498  10.967
 7858W        W11909   4.078   6.708   8.985
 7859W        W11910   3.356   0.391   8.904
 7860W        W11911   8.186   5.615   3.199
 7861W        W11912   0.018   7.904   0.446
 7862W        W11913   2.306   3.313   9.969
 7863W        W11914   7.471   0.762   9.740
 7864W        W11915   9.168   1.209   1.660
 7865W        W11916  11.358   2.134  11.159
 7866W        W11917   5.650   6.525  11.035
 7867W        W11918   4.947   6.797  11.768
 7868W        W11919   5.635   9.035   1.394
 7869W        W11920   6.999   8.340  11.266
 7870W        W11921   0.585   4.070  10.412
 7871W        W11922   2.589   4.688   9.925
 7872W        W11923   8.565   1.165   3.591
 7873W        W11924   3.715   8.865  10.514
 7874W        W11925   9.002   0.293  10.005
 7875W        W11926   5.875   2.189   0.270
 7876W        W11927   2.490   6.558  10.470
 7877W        W11928   5.864   0.085  10.444
 7878W        W11929   0.317   9.876   9.656
 7879W        W11930   0.846   2.310   8.961
 7880W        W11931  11.467   3.618  10.905
 7881W        W11932   5.648   2.464   2.150
 7882W        W11933   5.963   3.166  10.765
 7883W        W11934   9.401  10.142  11.565
 7884W        W11935   9.900   8.252  11.304
 7885W        W11936   0.403   0.778   9.519
 7886W        W11937   4.688   9.045   2.303
 7887W        W11938   2.312   3.776  10.769
 7888W        W11939   7.756   1.036  10.498
 7889W        W11940  10.906  10.487  10.897
 7890W        W11941   0.191   9.951   1.768
 7891W        W11942   7.974   5.997   0.511
 7892W        W11943   3.082  10.501   9.069
 7893W        W11944  10.133   3.287   0.867
 7894W        W11945   3.320  10.989   9.394
 7895W        W11946   4.488   1.891   9.621
 7896W        W11947  10.971   5.901  10.773
 7897W        W11948   5.374   8.467   3.656
 7898W        W11949   0.508   2.714  11.065
 7899W        W11950   5.595   2.866   8.876
 7900W        W11951  10.237   0.846  11.614
 7901W        W11952  10.554   1.478   8.920
 7902W        W11953   8.195   5.080   1.877
 7903W        W11954   6.024   8.103  11.456
 7904W        W11955   7.599   9.401   9.999
 7905W        W11956   6.675   3.133   1.896
 7906W        W11957  10.696   3.577   3.491
 7907W        W11958   9.628   1.982  10.028
 7908W        W11959   8.897   0.017  11.022
 7909W        W11960   9.598   3.084   2.963
 7910W        W11961   4.136   9.563   8.543
 7911W        W11962   4.351   1.806   0.205
 7912W        W11963  10.406  11.078  10.558
 7913W        W11964   7.672   7.663   2.772
 7914W        W11965   6.350   6.134  11.449
 7915W        W11966   7.633   7.050   9.696
 7916W        W11967   3.552   6.607   1.221
 7917W        W11968  11.008   7.560   9.495
 7918W        W11969   8.620   2.789  11.534
 7919W        W11970   8.866  11.280   9.094
 7920W        W11971  10.279   4.595  11.364
 7921W        W11972   5.383   3.197   3.158
 7922W        W11973   8.935  11.389   1.711
 7923W        W11974   4.029   6.826   1.653
 7924W        W11975   9.799   6.184  11.257
 7925W        W11976   4.356   0.945   3.180
 7926W        W11977   4.065   9.098  11.784
 7927W        W11978   3.769   9.739   0.711
 7928W        W11979  10.991   2.395   9.724
 7929W        W11980   9.268   8.505   8.984
 7930W        W11981  10.049   7.166  11.521
 7931W        W11982   5.277   9.853  10.958
 7932W        W11983   2.641   4.921   0.214
 7933W        W11984   9.514  10.301  10.732
 7934W        W11985   6.588   7.203   4.022
 7935W        W11986   5.922   8.365  10.884
 7936W        W11987   1.359   4.253   3.111
 7937W        W11988   1.673   0.711   2.533
 7938W        W11989   8.659   1.217  10.299
 7939W        W11990   4.299   6.047   2.173
 7940W        W11991   3.301   9.584  10.592
 7941W        W11992  11.010   4.284   1.975
 7942W        W11993   8.940   0.838   3.468
 7943W        W11994   9.703   5.162   9.104
 7944W        W11995   6.644   1.772   1.935
 7945W        W11996   9.139   1.228   2.686
 7946W        W11997   2.763   8.069   0.379
 7947W        W11998   1.278   7.156   0.913
 7948W        W11999   4.939  10.715   8.556
 7949W        W12000  11.288   5.709   0.225
 7950W        W12001   1.273   2.245  11.718
 7951W        W12002   5.305   8.058   8.174
 7952W        W12003   5.790   9.082   2.827
 7953W        W12004   9.340   7.242  11.216
 7954W        W12005   3.502   4.591   9.524
 7955W        W12006  10.982   5.338   9.405
 7956W        W12007  11.357   6.868   8.875
 7957W        W12008   9.161  10.873  11.279
 7958W        W12009  10.580  10.930   0.865
 7959W        W12010  10.577   6.298   9.924
 7960W        W12011  10.421   8.846   0.577
 7961W        W12012   6.612   7.694   3.568
 7962W        W12013   5.032  10.966   1.003
 7963W        W12014   2.266   4.197   0.981
 7964W        W12015   8.129   3.280   2.123
 7965W        W12016  10.133   2.374  11.835
 7966W        W12017   9.109   1.239  10.563
 7967W        W12018   9.018   0.284   9.094
 7968W        W12019   4.682   7.494   2.495
 7969W        W12020   3.377  10.730   2.747
 7970W        W12021   7.556   1.884   1.496
 7971W        W12022   5.759  11.363  11.295
 7972W        W12023   5.646   2.296  10.250
 7973W        W12024   9.902   7.004  10.504
 7974W        W12025   5.919   3.279   9.406
 7975W        W12026   8.872   7.549   2.399
 7976W        W12027   9.395   7.172   1.311
 7977W        W12028   2.225   0.460   2.967
 7978W        W12029   2.825   1.533   1.333
 7979W        W12030   2.340   4.732   9.432
 7980W        W12031   9.184   8.287   9.420
 7981W        W12032   4.159   4.302   3.135
 7982W        W12033   9.543  11.307  10.758
 7983W        W12034   7.969   4.883   9.887
 7984W        W12035   1.275   6.476  10.761
 7985W        W12036   7.909   4.776   0.188
 7986W        W12037   2.042   7.092   1.353
 7987W        W12038   1.031   2.470  10.325
 7988W        W12039   0.814   0.874   2.678
 7989W        W12040   6.122   1.985   0.757
 7990W        W12041   2.714   6.114   2.305
 7991W        W12042  10.477   5.686   2.394
 7992W        W12043   9.933  10.432   0.723
 7993W        W12044   7.478   8.563  11.334
 7994W        W12045   4.425   2.508   1.977
 7995W        W12046  11.213   0.003   1.764
 7996W        W12047   9.562   0.988   9.086
 7997W        W12048   8.906   0.431   0.878
 7998W        W12049   1.365   6.131   1.443
 7999W        W12050   2.253   9.011   9.441
 8000W        W12051  10.516   8.101   0.972
 8001W        W12052   9.391  11.366   0.228
 8002W        W12053   6.596  10.432   1.978
 8003W        W12054   0.357   3.998  11.407
 8004W        W12055  10.286   5.473   7.974
 8005W        W12056  11.301   0.630   9.368
 8006W        W12057   1.805   7.201  11.284
 8007W        W12058   8.709   5.131   1.811
 8008W        W12059  10.046   5.532  10.160
 8009W        W12060   2.219   5.658   1.688
 8010W        W12061   3.974   4.579   4.080
 8011W        W12062   0.701   9.858   1.765
 8012W        W12063   9.328   6.731   1.557
 8013W        W12064   8.140   4.332  10.965
 8014W        W12065   6.015   5.366   3.065
 8015W        W12066   9.864   8.963   1.363
 8016W        W12067  10.158   0.807  11.083
 8017W        W12068   2.397   6.142   9.975
 8018W        W12069   6.069  10.310  11.760
 8019W        W12070   7.660   7.106  10.205
 8020W        W12071   9.445   0.852   3.051
 8021W        W12072   6.433   2.420   9.755
 8022W        W12073   7.656  10.384   2.163
 8023W        W12074   9.057   8.785   9.371
 8024W        W12075   8.625   3.356   0.840
 8025W        W12076   3.586   6.048  11.163
 8026W        W12077   7.030   2.747   3.272
 8027W        W12078   7.910   9.419   1.320
 8028W        W12079   0.317  10.022   2.710
 8029W        W12080   8.265  10.322   3.542
 8030W        W12081   1.810   1.161  10.836
 8031W        W12082   1.785   0.855  10.413
 8032W        W12083   5.130   4.448   8.731
 8033W        W12084   8.859  10.386   2.703
 8034W        W12085   0.882   6.252   3.421
 8035W        W12086   7.488   8.826  11.869
 8036W        W12087   5.969   2.029   3.729
 8037W        W12088   4.243  10.051   9.741
 8038W        W12089  11.350   0.791   0.475
 8039W        W12090   1.812   5.999   1.688
 8040W        W12091   6.380   2.855  10.777
 8041W        W12092   1.740   0.944   1.019
 8042W        W12093   0.348   7.196  10.291
 8043W        W12094   0.827   9.875   2.560
 8044W        W12095   8.418   5.526   0.278
 8045W        W12096   0.795   5.078   0.738
 8046W        W12097   6.407  10.326   2.822
 8047W        W12098   1.734   5.091   3.595
 8048W        W12099  11.164   2.626   3.577
 8049W        W12100   7.877   4.103  10.592
 8050W        W12101   9.415   5.324   8.639
 8051W        W12102   1.158   4.009   8.954
 8052W        W12103   9.452   5.622   2.368
 8053W        W12104   6.067  11.344  11.713
 8054W        W12105   0.868   6.857   0.941
 8055W        W12106   6.052   1.186  11.748
 8056W        W12107   8.189   1.419  10.438
 8057W        W12108   4.772   1.488   0.459
 8058W        W12109   3.704   2.140  10.585
 8059W        W12110   6.984   3.166   1.467
 8060W        W12111  11.065   2.302   3.134
 8061W        W12112   1.330   0.314  11.707
 8062W        W12113   0.897   4.258   0.127
 8063W        W12114   7.513   3.099   9.971
 8064W        W12115   9.861   7.176   9.450
 8065W        W12116  10.556   3.299  10.442
 8066W        W12117   0.817   7.501   0.300
 8067W        W12118   6.871   0.265   1.806
 8068W        W12119  11.057   8.103   2.182
 8069W        W12120   4.821   4.645   9.925
 8070W        W12121   4.315   1.282  11.498
 8071W        W12122  10.453   1.850  10.067
 8072W        W12123   1.176   7.070   3.446
 8073W        W12124   9.853   4.711  11.680
 8074W        W12125   3.130  10.506  11.638
 8075W        W12126   0.045   3.812  11.844
 8076W        W12127   3.811   6.634   3.822
 8077W        W12128   8.606   4.622   0.494
 8078W        W12129   1.896   1.787  11.486
 8079W        W12130   0.005  11.260   0.496
 8080W        W12131   1.241   3.245  10.873
 8081W        W12132   7.922   0.738  11.941
 8082W        W12133   9.598   7.673   9.464
 8083W        W12134   9.266   4.344   2.067
 8084W        W12135   6.092   1.295   9.501
 8085W        W12136   8.747   7.121   0.750
 8086W        W12137   4.932   1.223  11.030
 8087W        W12138   8.233   4.312   9.042
 8088W        W12139   8.891   0.336  10.547
 8089W        W12140   1.939  10.378  10.030
 8090W        W12141   5.487  10.543  11.197
 8091W        W12142   9.023   7.356   0.385
 8092W        W12143   8.275   9.541   0.520
 8093W        W12144   8.954   1.668  10.299
 8094W        W12145   0.394   5.116  11.233
 8095W        W12146   6.643  10.759   2.720
 8096W        W12147   5.998   5.495   0.235
 8097W        W12148   2.321   1.443   1.465
 8098W        W12149   0.775   2.783   0.311
 8099W        W12150   5.937   3.673   9.787
 8100W        W12151   3.566   5.069   2.766
 8101W        W12152   9.499   2.437   9.204
 8102W        W12153  11.370   7.117   2.647
 8103W        W12154   7.536   0.090  10.764
 8104W        W12155   0.254   1.739   2.753
 8105W        W12156   8.885   1.639   3.421
 8106W        W12157   7.031   1.168   1.662
 8107W        W12158   8.308   6.172   2.427
 8108W        W12159   6.953   8.567   0.063
 8109W        W12160  10.485  10.570  10.576
 8110W        W12161   9.140  10.354   9.882
 8111W        W12162   1.528   5.135   1.192
 8112W        W12163   6.849   5.923  10.891
 8113W        W12164   6.907   4.188  10.493
 8114W        W12165   1.861   2.661  10.404
 8115W        W12166   4.645   2.691  10.137
 8116W        W12167   6.484  10.001  10.484
 8117W        W12168   2.460   0.334   9.949
 8118W        W12169   3.684  10.387   3.480
 8119W        W12170   3.033   9.283   0.775
 8120W        W12171  11.109   0.742  10.447
 8121W        W12172   0.449   5.311   1.958
 8122W        W12173   3.583   5.759  10.306
 8123W        W12174   1.709   5.601   3.546
 8124W        W12175   5.230   2.125  10.565
 8125W        W12176   0.227   8.979  11.136
 8126W        W12177   8.122   7.369  10.428
 8127W        W12178   5.847   0.030   1.813
 8128W        W12179   5.964   0.781   9.811
 8129W        W12180   2.359   1.199  10.838
 8130W        W12181   1.744   3.857  11.888
 8131W        W12182   4.614   9.926   0.522
 8132W        W12183   9.408   3.338  10.279
 8133W        W12184   3.671   6.128   1.495
 8134W        W12185   2.926  11.048   0.568
 8135W        W12186   2.694   7.457  10.716
 8136W        W12187   6.033   1.815   3.271
 8137W        W12188   6.155   1.822   8.580
 8138W        W12189   2.070  10.501   2.333
 8139W        W12190   9.375  10.011   3.343
 8140W        W12191  10.452   9.895   9.084
 8141W        W12192   5.682   2.349  11.792
 8142W        W12193   6.768  10.386   0.207
 8143W        W12194   3.055   4.317   3.257
 8144W        W12195   9.979  11.015   1.781
 8145W        W12196   7.348   0.277   2.025
 8146W        W12197   7.766   6.233  11.045
 8147W        W12198   4.283   8.128  11.918
 8148W        W12199   6.400  11.281   9.552
 8149W        W12200   3.176   5.578   9.983
 8150W        W12201   5.387  10.262   9.269
 8151W        W12202   5.780   7.944   0.924
 8152W        W12203   0.618   6.647  10.032
 8153W        W12204   2.785   7.573   8.835
 8154W        W12205   2.109  10.480  11.570
 8155W        W12206   1.525   2.244   9.704
 8156W        W12207   1.453   3.831  10.201
 8157W        W12208   3.775   4.947   9.865
 8158W        W12209   8.004   3.549  11.998
 8159W        W12210   5.445  11.105   2.614
 8160W        W12211   7.909   6.737  11.024
 8161W        W12212   6.637  11.318   9.991
 8162W        W12213   8.382   6.226   1.914
 8163W        W12214  10.454   3.012   8.545
 8164W        W12215  10.824   5.820   9.566
 8165W        W12216  10.427   3.107   1.688
 8166W        W12217   7.762   3.168   0.785
 8167W        W12218   5.180   7.035   0.785
 8168W        W12219   0.427   9.786   9.167
 8169W        W12220   4.977   0.495   2.674
 8170W        W12221   1.857   1.851   3.544
 8171W        W12222   6.044   4.772  11.240
 8172W        W12223   3.735   9.323  10.737
 8173W        W12224   1.237   4.955  11.237
 8174W        W12225   9.838  11.216   2.244
 8175W        W12226   5.340  10.788   9.473
 8176W        W12227   9.870   9.945   0.876
 8177W        W12228   7.636  11.008   1.820
 8178W        W12229   3.777   0.877   2.231
 8179W        W12230   4.131   9.581   1.734
 8180W        W12231   4.082  10.490   8.815
 8181W        W12232   5.836  11.306   1.299
 8182W        W12233  10.124   0.816   1.702
 8183W        W12234   1.047   0.040   0.059
 8184W        W12235  11.472  10.418   0.699
 8185W        W12236   2.335   5.428  11.546
 8186W        W12237  10.392   9.954  10.113
 8187W        W12238   0.973  10.890  10.791
 8188W        W12239  10.465   8.642   9.630
 8189W        W12240   4.299   3.167   1.233
 8190W        W12241   9.067   6.048  10.895
 8191W        W12242   9.398   4.851   8.814
 8192W        W12243  10.981   7.780   9.969
 8193W        W12244   8.961   4.106   8.380
 8194W        W12245   1.312   6.605   1.658
 8195W        W12246   6.040   8.375   9.889
 8196W        W12247   9.118   4.657   9.592
 8197W        W12248   8.179   2.778   9.467
 8198W        W12249   7.724   3.001   1.274
 8199W        W12250   3.336   1.437   1.439
 8200W        W12251   7.002   9.185   9.582
 8201W        W12252   0.809   9.074   8.701
 8202W        W12253   6.148   8.725   0.378
 8203W        W12254   1.474  10.970  10.726
 8204W        W12255   1.793   3.709   2.097
 8205W        W12256   4.890   3.341   3.176
 8206W        W12257  11.443   9.334   2.275
 8207W        W12258   2.693  11.474   0.710
 8208W        W12259   1.420   8.070   0.570
 8209W        W12260   6.861   3.516   2.726
 8210W        W12261   5.656   2.233   0.733
 8211W        W12262   9.804   4.279   9.526
 8212W        W12263   3.307   6.275  11.550
 8213W        W12264   4.003   2.264  10.969
 8214W        W12265   9.363   3.638   0.478
 8215W        W12266   7.481   7.124  11.118
 8216W        W12267   2.051   9.603   2.517
 8217W        W12268   2.940   7.995   8.529
 8218W        W12269   6.658   5.290  11.570
 8219W        W12270  10.918   8.983  11.510
 8220W        W12271   2.693   3.700   2.556
 8221W        W12272   5.067   9.317   1.046
 8222W        W12273   4.557   6.378   8.309
 8223W        W12274  10.126   3.250  11.392
 8224W        W12275   7.921   2.670   0.819
 8225W        W12276   9.406   9.676  11.341
 8226W        W12277  10.433   1.899   0.209
 8227W        W12278   9.665   3.787  10.380
 8228W        W12279   8.402   3.229  11.386
 8229W        W12280  10.845   1.839   1.355
 8230W        W12281   2.515   6.170  11.912
 8231W        W12282   4.281   8.791   2.099
 8232W        W12283   0.371   4.541   1.221
 8233W        W12284   0.714   7.659  11.815
 8234W        W12285   4.522   0.316   2.840
 8235W        W12286   9.073   5.916   1.410
 8236W        W12287   0.441  10.397   3.205
 8237W        W12288   0.742   2.842   8.926
 8238W        W12289   9.122   0.753   8.880
 8239W        W12290   5.307   8.454   2.123
 8240W        W12291  10.327   2.703   1.982
 8241W        W12292  10.471  10.585   0.064
 8242W        W12293   4.966   6.703   8.706
 8243W        W12294   1.272   9.294  10.560
 8244W        W12295   2.634   6.048   2.813
 8245W        W12296   6.357   4.081   1.806
 8246W        W12297   1.657   0.367  10.433
 8247W        W12298   9.617   4.655   1.877
 8248W        W12299   5.728   0.458  10.137
 8249W        W12300   7.125  11.497   0.896
 8250W        W12301   1.493   6.564  10.299
 8251W        W12302   5.917   2.096   9.054
 8252W        W12303   9.036   2.939  11.833
 8253W        W12304   4.341   8.587   1.629
 8254W        W12305  10.391   0.978   0.482
 8255W        W12306   2.899   0.804   3.521
 8256W        W12307   4.393   3.594  11.945
 8257W        W12308   3.683   4.108  11.394
 8258W        W12309   0.190  10.349  11.898
 8259W        W12310   8.500  11.434  11.714
 8260W        W12311   6.477   4.809   1.361
 8261W        W12312   2.416   0.297  10.851
 8262W        W12313  10.556   6.571   3.477
 8263W        W12314   1.541   5.073   0.297
 8264W        W12315  10.996   7.986   1.228
 8265W        W12316   2.608   1.034   2.680
 8266W        W12317   6.611   1.075   2.912
 8267W        W12318   5.558   7.601  10.401
 8268W        W12319   8.365   5.721  10.556
 8269W        W12320   9.413   9.138   9.411
 8270W        W12321   5.221   4.283   9.950
 8271W        W12322   4.094   0.975   0.722
 8272W        W12323  10.620   5.131  10.413
 8273W        W12324  10.427  11.483   0.231
 8274W        W12325   8.989   0.813  10.294
 8275W        W12326   2.257   6.164   0.953
 8276W        W12327   1.828   4.101  11.435
 8277W        W12328   6.955   7.509   2.307
 8278W        W12329   1.051   7.528   9.837
 8279W        W12330   2.618   6.908  11.695
 8280W        W12331   3.082   6.292   2.872
 8281W        W12332  11.022  10.828   1.208
 8282W        W12333   9.851   3.676   9.046
 8283W        W12334   8.775   6.359  11.218
 8284W        W12335   6.044   4.154   1.427
 8285W        W12336   0.328   6.023   3.594
 8286W        W12337   5.012   2.187  11.043
 8287W        W12338  10.760   0.393  10.312
 8288W        W12339   8.317   5.794   8.900
 8289W        W12340   4.800   4.877  11.481
 8290W        W12341   4.657   7.486   1.382
 8291W        W12342   2.245   4.173  11.099
 8292W        W12343   7.262   5.091   0.289
 8293W        W12344   9.366   7.242   9.296
 8294W        W12345   6.868  10.065   8.628
 8295W        W12346   7.109   2.885  11.248
 8296W        W12347   1.882   0.051   1.468
 8297W        W12348   9.639  11.216   0.677
 8298W        W12349   4.414   7.031  11.309
 8299W        W12350   8.915   5.605   0.397
 8300W        W12351  11.237   6.217   0.987
 8301W        W12352   5.504   8.899  11.645
 8302W        W12353   7.458   5.276  11.439
 8303W        W12354   7.396   9.293  10.959
 8304W        W12355   1.043   9.072   0.908
 8305W        W12356   0.171   3.538   1.095
 8306W        W12357   8.126   5.191  11.978
 8307W        W12358  10.321   4.726   0.496
 8308W        W12359   5.920  11.421   0.793
 8309W        W12360   5.692   4.674   8.787
 8310W        W12361   5.498   3.852  11.867
 8311W        W12362   2.829   8.779  10.576
 8312W        W12363   5.195   4.572   2.711
 8313W        W12364  10.434   2.927   0.365
 8314W        W12365   3.861   5.379   2.066
 8315W        W12366  10.343  10.143  11.833
 8316W        W12367   3.360   3.891   0.519
 8317W        W12368   6.653   0.267   9.715
 8318W        W12369  10.924   8.109   9.552
 8319W        W12370   2.382  11.027   9.585
 8320W        W12371   6.479   8.523   0.733
 8321W        W12372   5.067   6.102  10.850
 8322W        W12373   8.230   4.884  10.947
 8323W        W12374   9.284   6.177   0.989
 8324W        W12375   7.537  10.787   8.706
 8325W        W12376   3.353   5.511   2.961
 8326W        W12377   9.889   1.212  10.031
 8327W        W12378   2.799   2.857   2.386
 8328W        W12379   4.406  10.366   1.488
 8329W        W12380   9.527   8.033   1.309
 8330W        W12381   3.914   6.577   0.769
 8331W        W12382   3.368   5.693   8.287
 8332W        W12383   6.920   6.138   0.740
 8333W        W12384   0.827   5.083   9.553
 8334W        W12385   9.783   6.185   1.862
 8335W        W12386   1.358   0.469   9.539
 8336W        W12387   5.107   8.142   0.481
 8337W        W12388  10.489   4.437   1.899
 8338W        W12389   9.483  11.473  10.261
 8339W        W12390   8.903  10.423   1.643
 8340W        W12391   1.964   6.638  10.514
 8341W        W12392   8.983   2.565   9.923
 8342W        W12393   8.548   9.855   9.325
 8343W        W12394  10.699   3.738  10.175
 8344W        W12395   3.224   0.550   3.246
 8345W        W12396   0.850   2.295   2.661
 8346W        W12397   9.279   8.407   3.582
 8347W        W12398   6.177   9.325  11.761
 8348W        W12399   1.097  11.414   2.271
 8349W        W12400   5.216   3.581   3.503
 8350W        W12401   0.222   9.083   2.617
 8351W        W12402   5.715   1.245   9.864
 8352W        W12403   1.707   4.540  10.084
 8353W        W12404   5.681   0.266   3.390
 8354W        W12405   4.526   2.723   9.146
 8355W        W12406   1.752   9.429  10.538
 8356W        W12407   7.685   6.488   3.380
 8357W        W12408   9.284   9.371   8.959
 8358W        W12409   5.074   4.578   1.721
 8359W        W12410   3.267   6.171   9.315
 8360W        W12411   7.798   4.597  11.249
 8361W        W12412   3.826   5.774   0.705
 8362W        W12413   1.255   5.894   3.474
 8363W        W12414   7.075   2.663  11.980
 8364W        W12415   1.778   7.324   3.925
 8365W        W12416   4.668   8.866  10.497
 8366W        W12417   9.103   1.644   1.945
 8367W        W12418   8.341   4.344   0.860
 8368W        W12419   2.656   0.253   1.677
 8369W        W12420  10.487   8.675   3.189
 8370W        W12421   1.445   7.149   2.393
 8371W        W12422   2.346   4.836   2.812
 8372W        W12423  10.462   5.807   9.967
 8373W        W12424   4.216   4.268   8.809
 8374W        W12425   1.990   4.628   1.095
 8375W        W12426   5.111   7.211   1.385
 8376W        W12427   2.344   1.961   2.158
 8377W        W12428   8.904   5.074  10.308
 8378W        W12429   4.070   5.312  10.096
 8379W        W12430   8.356   3.855   2.339
 8380W        W12431   9.371   9.325  10.930
 8381W        W12432   4.802   7.755   0.571
 8382W        W12433   1.338   4.646   1.220
 8383W        W12434   8.530   9.586  11.528
 8384W        W12435   2.206   1.459   3.347
 8385W        W12436   3.229   0.136   2.928
 8386W        W12437   7.499   8.485   9.352
 8387W        W12438   1.364   7.089  10.026
 8388W        W12439   8.534   0.316  11.388
 8389W        W12440   7.173  11.314   1.816
 8390W        W12441  11.426   4.807   9.101
 8391W        W12442   0.282   9.894  10.165
 8392W        W12443   5.068   1.678  10.763
 8393W        W12444   1.923   6.145   8.930
 8394W        W12445   7.179   0.021   9.075
 8395W        W12446   7.393   4.335  10.597
 8396W        W12447   2.779   3.289   9.246
 8397W        W12448   6.207   2.869   0.446
 8398W        W12449   8.471   0.163   0.983
 8399W        W12450   2.153   0.426  11.300
 8400W        W12451   3.292   3.850   9.652
 8401W        W12452   6.430   3.331  10.644
 8402W        W12453   0.352   9.508   1.980
 8403W        W12454   0.935   5.989   1.666
 8404W        W12455   1.345   0.974   9.591
 8405W        W12456   1.362   5.078  10.734
 8406W        W12457   7.529   0.264   9.659
 8407W        W12458   3.749   8.523   8.728
 8408W        W12459   4.191  10.935   0.740
 8409W        W12460   9.195   1.328   0.671
 8410W        W12461   2.294   5.269   2.466
 8411W        W12462   2.736   8.037   3.180
 8412W        W12463   6.166   3.465  11.134
 8413W        W12464   4.152   0.867   9.169
 8414W        W12465   5.992   7.252   3.172
 8415W        W12466  10.543   6.019  11.813
 8416W        W12467   3.351  11.399   8.718
 8417W        W12468   7.496   8.615   1.830
 8418W        W12469   1.220  10.443   0.512
 8419W        W12470   6.555   9.600  11.513
 8420W        W12471   9.105   2.452   0.707
 8421W        W12472   3.106   0.666  11.034
 8422W        W12473   8.578   0.713   9.011
 8423W        W12474   1.581   7.651   2.265
 8424W        W12475  11.496   6.520  10.571
 8425W        W12476   7.708   1.803   1.997
 8426W        W12477   7.174   1.208  11.758
 8427W        W12478   4.680   2.833   3.579
 8428W        W12479   6.807   0.380   8.973
 8429W        W12480   2.756   7.391   9.820
 8430W        W12481   0.384   4.979  10.726
 8431W        W12482  10.827  11.416  10.514
 8432W        W12483   1.448   3.342   2.813
 8433W        W12484  10.855   0.837   9.574
 8434W        W12485   8.442   2.463   9.082
 8435W        W12486   1.361   6.205   1.971
 8436W        W12487   7.847   6.065   8.865
 8437W        W12488   9.903   7.199   1.898
 8438W        W12489   9.502   3.898   8.602
 8439W        W12490   6.346   2.073   4.089
 8440W        W12491   2.911   8.414  11.901
 8441W        W12492   9.395   1.650   3.454
 8442W        W12493  10.836  10.112   0.907
 8443W        W12494   3.156   6.680   2.564
 8444W        W12495   4.832  10.308   1.819
 8445W        W12496   3.241  10.053   9.869
 8446W        W12497   5.979  11.002   1.945
 8447W        W12498   3.162   0.313   0.979
 8448ION    NA+12499   2.204   0.096   1.881
 8449ION    NA+12500   3.664   7.533   1.091
 8450ION    NA+12501   9.634   3.907  11.217
 8451ION    NA+12502   3.111   8.814   1.553
 8452ION    NA+12503   9.411   4.645  10.580
 8453ION    NA+12504   2.252   6.609   2.135
 8454ION    NA+12505   4.785   3.799  11.684
 8455ION    NA+12506   7.457   1.276   3.644
 8456ION    NA+12507   0.016   8.495  10.409
 8457ION    NA+12508   6.166   8.189   2.185
 8458ION    NA+12509   9.565   8.366  11.881
 8459ION    NA+12510   9.502   6.083   0.205
 8460ION    NA+12511   3.379   5.720   1.647
 8461ION    NA+12512   9.303   0.927  11.701
 8462ION    NA+12513   5.228   4.990   2.058
 8463ION    NA+12514  11.437   5.197  10.612
 8464ION    NA+12515   7.402   3.514   2.166
 8465ION    NA+12516   7.967  10.498   9.347
 8466ION    NA+12517   0.253   7.365   8.896
 8467ION    NA+12518   9.439   6.451   9.553
 8468ION    NA+12519   2.137   8.170   9.734
 8469ION    NA+12520   7.608   2.179   8.804
 8470ION    NA+12521   8.072   2.602   3.865
 8471ION    NA+12522   8.855  10.955   9.492
 8472ION    NA+12523   5.234   6.355  11.303
 8473ION    NA+12524   0.537   7.518   9.733
 8474ION    NA+12525   9.105  10.667   0.773
 8475ION    NA+12526   3.998   4.029  10.230
 8476ION    NA+12527   9.381   7.743  11.248
 8477ION    NA+12528   3.926   2.189   1.708
 8478ION    NA+12529   4.779   0.922   2.174
 8479ION    NA+12530   1.250   5.057  11.782
 8480ION    NA+12531   0.975  11.195   8.907
 8481ION    NA+12532   8.780   8.379  11.732
 8482ION    NA+12533   0.912   4.020   2.996
 8483ION    NA+12534   7.036   1.400   2.746
 8484ION    NA+12535   5.075   2.098  11.951
 8485ION    NA+12536   4.159   0.728  10.409
 8486ION    NA+12537  10.590   0.092   1.493
 8487ION    NA+12538   5.607   7.565   2.430
 8488ION    NA+12539  11.130   0.521   2.693
 8489ION    NA+12540   4.245   3.950   0.602
 8490ION    NA+12541   6.017   9.433   2.517
 8491ION    NA+12542   3.219   2.370   0.420
 8492ION    NA+12543   1.479   2.196   8.889
 8493ION    NA+12544   3.045   8.914  11.855
 8494ION    NA+12545   4.254   1.782   2.560
 8495ION    NA+12546   8.553   6.818   9.839
 8496ION    NA+12547   7.514   9.563   1.022
 8497ION    NA+12548   7.420   0.857   0.078
 8498ION    NA+12549   1.852   4.127   1.297
 8499ION    NA+12550   7.956   6.372  10.586
 8500ION    NA+12551   3.074   5.819   2.623
 8501ION    NA+12552   5.456   1.488   2.106
 8502ION    NA+12553   0.240   4.399  11.683
 8503ION    NA+12554   3.052   8.283   0.837
 8504ION    NA+12555   7.072   1.701   1.635
 8505ION    NA+12556   3.071  11.033   8.005
 8506ION    NA+12557   8.187   1.088   2.901
 8507ION    NA+12558   4.040   8.435   0.872
 8508ION    NA+12559   9.271   0.043   0.949
 8509ION    NA+12560   3.479   2.024   3.651
 8510ION    NA+12561   5.363  10.111  11.410
 8511ION    NA+12562   8.045   5.087   3.246
 8512ION    NA+12563  11.375   7.922  11.971
 8513ION    NA+12564   9.332   0.757   9.920
 8514ION    NA+12565  11.426  11.078  11.980
 8515ION    NA+12566  11.059   6.516  10.194
 8516ION    NA+12567   5.751   2.819   9.540
 8517ION    NA+12568   6.700   9.163   8.788
 8518ION    NA+12569   1.012   5.095   1.215
 8519ION    NA+12570   7.542   0.232  11.306
 8520ION    NA+12571   0.419   0.389   9.130
 8521ION    NA+12572   2.339   7.783   8.565
 8522ION    NA+12573   8.988   3.302   0.442
 8523ION    NA+12574   9.645   1.554   2.421
 8524ION    NA+12575  10.456   7.668   9.870
 8525ION    NA+12576  10.518   4.154   0.747
 8526ION    NA+12577   7.457   8.694   8.886
 8527ION    NA+12578   0.562   1.542  11.462
 8528ION    NA+12579   9.761  10.123  11.154
 8529ION    NA+12580  10.329  11.016   0.390
 8530ION    NA+12581   9.556   1.488   9.274
 8531ION    NA+12582   0.033   1.792  10.732
 8532ION    NA+12583   8.619   4.522   2.653
 8533ION    NA+12584   1.805  11.210   0.430
 8534ION    NA+12585   2.669   3.421  10.327
 8535ION    NA+12586   8.497   0.173   9.867
 8536ION    NA+12587   5.123   3.358   8.286
 8537ION    CL-12588   2.822   4.639   2.910
 8538ION    CL-12589   4.681   3.242   8.302
 8539ION    CL-12590   0.374   2.373   3.499
 8540ION    CL-12591   1.213  11.342  11.530
 8541ION    CL-12592   9.950   4.175   3.425
 8542ION    CL-12593  11.133  11.422  10.918
 8543ION    CL-12594   5.807  10.115  11.355
 8544ION    CL-12595   9.164   3.792  10.418
 8545ION    CL-12596   9.485  10.483  11.212
 8546ION    CL-12597   0.103   0.589  10.327
 8547ION    CL-12598   2.810   5.113  11.759
 8548ION    CL-12599   5.052   1.282   2.122
 8549ION    CL-12600   3.430  10.848   3.653
 8550ION    CL-12601  11.236   4.077   1.533
 8551ION    CL-12602   1.501   7.651  11.358
 8552ION    CL-12603   0.383   1.523  10.896
 8553ION    CL-12604   6.392   9.291   2.318
 8554ION    CL-12605   0.320  10.506  10.895
 8555ION    CL-12606   4.439   3.949  10.286
 8556ION    CL-12607   6.231   9.345  10.142
 8557ION    CL-12608   0.718   0.040   9.108
 8558ION    CL-12609   2.659   2.194  10.863
 8559ION    CL-12610   7.718   1.733   8.783
 8560ION    CL-12611   9.540   1.898   2.145
 8561ION    CL-12612   9.054   1.201  11.453
 8562ION    CL-12613   0.861   8.790  11.560
 8563ION    CL-12614   8.293   0.687   2.729
 8564ION    CL-12615   9.410  10.780   3.563
 8565ION    CL-12616  11.462   0.813   2.713
 8566ION    CL-12617   8.267   4.621  11.424
 8567ION    CL-12618   2.503   9.841   9.460
 8568ION    CL-12619   8.610   3.074   0.383
 8569ION    CL-12620   9.388   2.904   9.937
 8570ION    CL-12621   4.776   7.228   2.906
 8571ION    CL-12622   9.151   8.591  11.937
 8572ION    CL-12623   8.579   8.123  11.404
 8573ION    CL-12624   6.100   7.408   0.235
 8574ION    CL-12625  10.557   2.149   3.088
 8575ION    CL-12626  11.232   9.419   0.741
 8576ION    CL-12627   1.712   4.985   4.095
 8577ION    CL-12628   0.550   1.802  11.835
 8578ION    CL-12629   8.619  11.259   9.728
 8579ION    CL-12630   1.916  10.184   3.383
 8580ION    CL-12631   8.550   2.122  11.019
 8581ION    CL-12632  11.441   1.429   0.535
 8582ION    CL-12633   2.800  10.823   3.151
 8583ION    CL-12634   8.067   7.911  10.438
 8584ION    CL-12635  10.070   9.843  10.967
 8585ION    CL-12636   4.170   0.053   8.378
 8586ION    CL-12637   0.311   6.749   1.652
 8587ION    CL-12638   5.792   7.968   2.323
 8588ION    CL-12639   7.389   7.075   1.685
 8589ION    CL-12640   1.268   2.258   9.279
 8590ION    CL-12641   9.707   3.465  11.192
 8591ION    CL-12642   5.869  10.356  10.037
 8592ION    CL-12643   2.090  11.078   8.720
 8593ION    CL-12644   4.087   4.071   1.003
 8594ION    CL-12645   0.386  10.511   0.972
 8595ION    CL-12646   3.084   8.483   1.244
 8596ION    CL-12647   9.180  11.104   0.876
 8597ION    CL-12648  10.382   3.939   2.035
 8598ION    CL-12649  10.847   1.197  10.570
 8599ION    CL-12650   4.747   7.840   1.737
 8600ION    CL-12651   5.595   3.234  11.290
 8601ION    CL-12652  10.519   7.006   0.467
 8602ION    CL-12653   2.721   3.841  10.467
 8603ION    CL-12654   4.826   1.310   8.915
 8604ION    CL-12655  11.460   7.805   8.372
 8605ION    CL-12656   6.933   9.285  11.262
 8606ION    CL-12657   9.849   8.547   9.847
 8607ION    CL-12658   5.952   7.003   9.780
 8608ION    CL-12659   4.254   0.550  10.011
 8609ION    CL-12660   9.555   8.001  11.581
 8610ION    CL-12661   0.345   7.451   9.330
 8611ION    CL-12662   8.074   7.361   2.790
 8612ION    CL-12663   1.656   6.535   9.412
 8613ION    CL-12664   7.041   8.851   8.764
 8614ION    CL-12665   2.123  10.910   0.337
 8615ION    CL-12666   9.602   4.391   2.468
 8616ION    CL-12667   5.494   6.024  11.155
 8617ION    CL-12668   4.832   5.251  10.818
 8618ION    CL-12669   7.074   0.677   0.295
 8619ION    CL-12670   0.614   8.095   3.180
 8620ION    CL-12671  11.214   2.122  10.673
 8621ION    CL-12672   4.214   9.608   0.493
 8622ION    CL-12673   1.000  10.091   9.137
 8623ION    CL-12674   6.507   4.447  11.963
 8624ION    CL-12675   0.467   8.594   1.467
 8625ION    CL-12676   6.753   7.559  10.093
  11.50000  11.50000  12.00000
