Protein in INSANE! Membrane UpperLeaflet>POPC=1.0 LowerLeaflet>POPC=1.0
11530
    1AU     AUC    1   9.553   2.656   5.346 -0.1240 -0.0575  0.0313
    1AU     AUC    2   9.339   2.443   5.435 -0.1477 -0.0531 -0.0258
    1AU     AUC    3   9.260   2.782   5.439 -0.0107 -0.1120  0.0019
    1AU     AUC    4   9.850   2.542   5.229 -0.0969 -0.0311 -0.0166
    1AU     AUC    5   9.760   2.885   5.267  0.0822  0.0276 -0.0054
    1AU     AUC    6   9.781   2.700   5.521 -0.0862  0.0566 -0.0092
    1AU     AUC    7   9.479   2.646   5.643 -0.0469  0.0048  0.0716
    1AU     AUC    8   9.633   2.691   5.013  0.0287 -0.1094  0.0481
    1AU     AUC    9   9.298   2.642   5.146 -0.0580  0.0119 -0.0516
    1AU     AUC   10   9.427   2.897   5.211 -0.0495 -0.0372 -0.0689
    1AU     AUC   11   9.550   2.931   5.523  0.1309  0.0566  0.0566
    1AU     AUC   12   9.547   2.391   5.179 -0.0247  0.0777  0.0730
    1AU     AUC   13   9.634   2.417   5.498  0.0096 -0.0029  0.0488
    1AU     AUC   14   9.092   2.235   5.508  0.0432  0.0116  0.0801
    1AU     AUC   15   8.971   2.515   5.542 -0.1015  0.0157  0.0513
    1AU     AUC   16   8.929   2.909   5.567 -0.0916 -0.0616 -0.0420
    1AU     AUC   17  10.153   2.434   5.156  0.0367  0.0036  0.0044
    1AU     AUC   18  10.113   2.791   5.168  0.0160 -0.0558 -0.0528
    1AU     AUC   19  10.009   3.109   5.210  0.0264 -0.0331  0.0153
    1AU     AUC   20  10.033   2.734   5.794 -0.0509  0.0474 -0.0219
    1AU     AUC   21   9.714   2.667   5.938  0.0218 -0.0230  0.0181
    1AU     AUC   22   9.412   2.600   6.013 -0.0174  0.0460  0.0648
    1AU     AUC   23   9.730   2.733   4.684 -0.0791 -0.0125  0.0068
    1AU     AUC   24   9.402   2.689   4.761  0.1473 -0.0448  0.0711
    1AU     AUC   25   9.064   2.596   4.896  0.0266  0.1362  0.0460
    1AU     AUC   26   9.275   3.181   5.038 -0.0656 -0.0504  0.0285
    1AU     AUC   27   9.425   3.259   5.343  0.0361 -0.0396 -0.0134
    1AU     AUC   28   9.519   3.233   5.698  0.0265  0.0145 -0.0505
    1AU     AUC   29   9.524   2.077   4.963 -0.0829 -0.0387  0.0491
    1AU     AUC   30   9.636   2.059   5.273  0.0464  0.0317 -0.0936
    1AU     AUC   31   9.726   2.113   5.638  0.0026  0.0860 -0.0565
    1AU     AUC   32   9.109   3.075   5.286  0.0535 -0.0313  0.0260
    1AU     AUC   33   9.222   3.129   5.614  0.0737 -0.0149 -0.0114
    1AU     AUC   34   9.280   2.157   5.199 -0.0067 -0.0235  0.0306
    1AU     AUC   35   9.371   2.114   5.564  0.0299 -0.0835 -0.0071
    1AU     AUC   36   9.672   3.184   5.061  0.1223 -0.0204  0.0588
    1AU     AUC   37   9.746   3.199   5.449  0.0415  0.0874  0.0329
    1AU     AUC   38   9.851   2.238   5.068 -0.0515 -0.0053 -0.0301
    1AU     AUC   39   9.980   2.231   5.377 -0.0555  0.0367 -0.0965
    1AU     AUC   40   9.223   2.400   5.770 -0.0058 -0.0111  0.0317
    1AU     AUC   41   9.157   2.768   5.769  0.0871  0.0155 -0.0921
    1AU     AUC   42  10.132   2.578   5.469 -0.0435 -0.0295 -0.0713
    1AU     AUC   43  10.051   2.955   5.508 -0.0207 -0.1233 -0.0159
    1AU     AUC   44   9.049   2.412   5.203 -0.0369  0.0173  0.0422
    1AU     AUC   45   8.980   2.704   5.249  0.0730 -0.0326  0.0030
    1AU     AUC   46   9.986   2.589   4.899  0.0426 -0.0914  0.0620
    1AU     AUC   47   9.881   2.910   4.921 -0.0066 -0.0250 -0.1675
    1AU     AUC   48   9.796   2.986   5.762 -0.0636 -0.0726  0.0699
    1AU     AUC   49   9.483   2.936   5.871 -0.0620  0.0379  0.0098
    1AU     AUC   50   9.497   2.954   4.832 -0.0003  0.0251  0.0252
    1AU     AUC   51   9.149   2.906   4.957 -0.0045 -0.1008  0.0852
    1AU     AUC   52   9.877   2.399   5.688  0.0649 -0.0653  0.1057
    1AU     AUC   53   9.580   2.289   5.823  0.0119 -0.0561 -0.0137
    1AU     AUC   54   9.686   2.406   4.796 -0.0080 -0.1252  0.0495
    1AU     AUC   55   9.336   2.349   4.888 -0.0246 -0.0327  0.0098
    1AU    AUSL   56   8.874   3.337   5.451  0.0317  0.0871 -0.0059
    1AU    AUSL   57   8.827   3.225   5.029 -0.0793 -0.0799  0.0157
    1AU     AUL   58   8.562   3.315   5.243 -0.0376  0.0397  0.0529
    1AU       S   59   8.462   3.040   4.819  0.0961 -0.1865 -0.1344
    1AU     LIG   60   8.013   3.103   4.955 -0.0604  0.0057  0.0341
    1AU     LIG   61   7.558   2.966   5.150  0.0608  0.3630 -0.1060
    1AU       S   62   8.782   3.716   5.276  0.0157 -0.2906 -0.0016
    1AU     LIG   63   8.858   4.112   5.105  0.3049 -0.1351 -0.0671
    1AU     LIG   64   9.069   4.419   5.068 -0.1785 -0.1068 -0.0744
    1AU    AUSL   65   9.214   3.385   5.172 -0.0544 -0.0267 -0.0384
    1AU    AUSL   66   9.531   3.593   5.429 -0.0149 -0.0863 -0.0225
    1AU     AUL   67   9.254   3.698   5.354  0.0271  0.0180  0.0386
    1AU       S   68   9.007   3.645   4.964  0.1521 -0.2648 -0.0610
    1AU     LIG   69   9.117   3.942   4.705  0.2373 -0.3230 -0.1197
    1AU     LIG   70   9.341   4.324   4.642  0.0033 -0.3366 -0.2062
    1AU       S   71   9.466   4.060   5.050  0.1125 -0.2864 -0.0189
    1AU     LIG   72   9.618   4.432   5.024 -0.2404 -0.2369  0.1063
    1AU     LIG   73   9.883   4.760   5.247 -0.0714  0.0958  0.2326
    1AU    AUSL   74   9.289   3.315   5.624  0.0428  0.0511  0.0514
    1AU    AUSL   75   8.929   3.142   5.835 -0.0549  0.0090  0.0495
    1AU     AUL   76   8.952   3.508   5.685 -0.0365 -0.0048 -0.0104
    1AU       S   77   9.368   3.696   5.875 -0.1754 -0.2191  0.5392
    1AU     LIG   78   9.300   4.102   5.847  0.3516  0.0195  0.1470
    1AU     LIG   79   9.438   4.367   5.948  0.1087 -0.2038 -0.2417
    1AU       S   80   8.760   3.306   6.098 -0.0725  0.3834 -0.0295
    1AU     LIG   81   8.404   3.514   5.974  0.1529 -0.0015 -0.1109
    1AU     LIG   82   8.138   3.923   5.728 -0.2626  0.0264  0.2450
    1AU    AUSL   83   9.114   1.906   5.524 -0.0297  0.0304 -0.0148
    1AU    AUSL   84   9.459   1.891   5.871  0.0322 -0.0066  0.0630
    1AU     AUL   85   9.314   1.619   5.707 -0.0057  0.0159 -0.0024
    1AU       S   86   8.928   1.433   5.487 -0.5788 -0.1161 -0.0385
    1AU     LIG   87   8.570   1.316   5.412  0.2158 -0.2267 -0.3393
    1AU     LIG   88   8.227   1.077   5.384 -0.3585 -0.2018 -0.0621
    1AU       S   89   9.364   1.632   6.178  0.3753  0.0233  0.0946
    1AU     LIG   90   9.520   1.268   6.151  0.2134  0.1237 -0.0478
    1AU     LIG   91   9.926   1.151   6.141  0.0066 -0.2470 -0.1729
    1AU    AUSL   92   9.344   1.738   5.196  0.0539 -0.0188 -0.0086
    1AU    AUSL   93   9.062   2.182   5.195  0.0465  0.0757  0.0763
    1AU     AUL   94   8.956   1.806   5.195  0.0459 -0.0236  0.0343
    1AU       S   95   8.967   1.668   4.612 -0.0932 -0.3813  0.2951
    1AU     LIG   96   8.879   1.220   4.919 -0.2697  0.0027 -0.2085
    1AU     LIG   97   9.059   0.928   4.826 -0.0766 -0.0108  0.3224
    1AU       S   98   9.157   1.384   5.269  0.3087  0.0528  0.0806
    1AU     LIG   99   9.516   1.017   5.143  0.2191  0.2226  0.3160
    1AU     LIG  100   9.827   0.684   5.210  0.5680 -0.0220  0.1462
    1AU    AUSL  101   9.587   1.968   5.475  0.0653  0.0076  0.0128
    1AU    AUSL  102   9.735   1.819   5.036  0.0864  0.0255 -0.0563
    1AU     AUL  103   9.588   1.599   5.332  0.0031  0.0684 -0.0193
    1AU       S  104   9.877   1.545   4.988 -0.2826 -0.2854  0.0643
    1AU     LIG  105   9.904   1.116   4.795 -0.1238  0.5957  0.0347
    1AU     LIG  106   9.931   0.633   4.728 -0.3792  0.0887  0.0750
    1AU       S  107   9.175   1.237   5.465  0.2909  0.4487 -0.3301
    1AU     LIG  108   9.144   1.012   5.889 -0.2589  0.2397 -0.1077
    1AU     LIG  109   9.066   0.643   6.060 -0.2982 -0.1688  0.1711
    1AU    AUSL  110   9.860   3.373   5.226 -0.0170  0.0332  0.0184
    1AU    AUSL  111   9.797   3.372   5.699  0.0332  0.0201  0.0301
    1AU     AUL  112   9.828   3.675   5.516 -0.0893 -0.0092 -0.0089
    1AU       S  113   9.742   3.980   5.165 -0.0174  0.3651  0.2583
    1AU     LIG  114  10.050   4.200   5.009  0.4020  0.1399  0.2686
    1AU     LIG  115  10.106   4.562   4.883  0.0782 -0.0669  0.0187
    1AU       S  116  10.190   3.597   5.800 -0.2177 -0.1612  0.0096
    1AU     LIG  117  10.522   3.686   6.154  0.3642  0.1523 -0.2359
    1AU     LIG  118  10.862   3.914   6.336 -0.2130 -0.0679 -0.2110
    1AU    AUSL  119   9.562   3.568   4.987 -0.0071  0.0020  0.0071
    1AU    AUSL  120   9.933   3.349   4.806 -0.0310 -0.0047 -0.0131
    1AU     AUL  121   9.955   3.580   5.034  0.0501  0.0814  0.0293
    1AU       S  122   9.878   3.529   4.534  0.2343 -0.0654 -0.0940
    1AU     LIG  123  10.261   3.819   4.576 -0.1076 -0.2105  0.0534
    1AU     LIG  124  10.496   4.207   4.693  0.0668  0.0633  0.0628
    1AU       S  125   9.569   3.815   4.832 -0.1514  0.2880 -0.0204
    1AU     LIG  126   9.808   4.079   4.577  0.1837 -0.2084 -0.0979
    1AU     LIG  127  10.024   4.057   4.245 -0.2405 -0.0993 -0.1225
    1AU    AUSL  128  10.098   2.038   5.113 -0.0583  0.0395 -0.0983
    1AU    AUSL  129   9.764   2.200   4.816  0.0365  0.0928  0.0392
    1AU     AUL  130   9.982   1.909   4.750  0.0584  0.0153 -0.0260
    1AU       S  131  10.189   1.577   4.997  0.2858  0.0480  0.3029
    1AU     LIG  132  10.546   1.330   5.082  0.0644  0.1807  0.1077
    1AU     LIG  133  10.586   1.095   5.345 -0.1575 -0.1213 -0.1200
    1AU       S  134  10.490   2.220   4.520  0.0729  0.3145  0.3599
    1AU     LIG  135  10.697   1.902   4.414 -0.2470  0.1372  0.2388
    1AU     LIG  136  11.102   1.770   4.272  0.3242 -0.2331  0.0182
    1AU    AUSL  137   9.976   1.793   5.452 -0.0241  0.0114 -0.0095
    1AU    AUSL  138  10.400   2.196   5.386  0.0231 -0.0019  0.0335
    1AU     AUL  139  10.309   1.861   5.342  0.1027 -0.0283  0.0017
    1AU       S  140  10.729   2.084   5.480  0.1609 -0.3727 -0.2688
    1AU     LIG  141  11.101   2.059   5.211  0.4164  0.3477 -0.1641
    1AU     LIG  142  11.202   1.913   4.793  0.0566  0.0118 -0.4324
    1AU       S  143  10.056   1.420   5.146  0.1026 -0.0305 -0.3780
    1AU     LIG  144   9.981   1.132   5.495  0.1327 -0.1918 -0.1561
    1AU     LIG  145   9.616   1.020   5.643 -0.0997  0.0532  0.0755
    1AU    AUSL  146   9.040   2.501   6.128 -0.0389  0.1087  0.0222
    1AU    AUSL  147   9.062   2.063   5.936  0.0295 -0.0050  0.0247
    1AU     AUL  148   8.938   2.214   6.276  0.0784 -0.0232  0.0461
    1AU       S  149   9.047   1.763   6.067  0.1434 -0.1977 -0.3383
    1AU     LIG  150   8.820   1.358   6.027  0.1625 -0.2197 -0.1511
    1AU     LIG  151   8.620   1.091   6.314  0.0369  0.2061 -0.2953
    1AU       S  152   8.457   2.863   6.270  0.1206  0.1184  0.0570
    1AU     LIG  153   8.505   2.996   6.612 -0.0214  0.2895 -0.3019
    1AU     LIG  154   8.636   3.249   6.946 -0.1601 -0.0987  0.4076
    1AU    AUSL  155   8.945   2.374   5.681 -0.0061  0.0207 -0.0473
    1AU    AUSL  156   8.588   2.609   5.504 -0.0846  0.0392  0.0901
    1AU     AUL  157   8.615   2.287   5.822 -0.0234  0.0494 -0.0475
    1AU       S  158   8.574   2.546   6.198  0.1984  0.2442 -0.5794
    1AU     LIG  159   8.113   2.431   6.199 -0.1449 -0.1408  0.1270
    1AU     LIG  160   7.684   2.641   6.206 -0.2446  0.0134 -0.2589
    1AU       S  161   8.290   2.475   5.534  0.1841 -0.3527  0.0266
    1AU     LIG  162   7.838   2.529   5.300  0.0684  0.2110 -0.1988
    1AU     LIG  163   7.378   2.526   5.401 -0.2192  0.0542 -0.1574
    1AU    AUSL  164   8.807   2.744   5.838 -0.0494 -0.1056 -0.0131
    1AU    AUSL  165   9.246   2.844   5.957  0.0264 -0.0522  0.0585
    1AU     AUL  166   8.959   2.853   6.178  0.0229  0.0243  0.0848
    1AU       S  167   8.790   3.367   6.296 -0.1710  0.2724  0.0333
    1AU     LIG  168   8.518   3.605   6.585 -0.1256  0.2491  0.1292
    1AU     LIG  169   8.471   3.787   6.927 -0.1873 -0.2749  0.0980
    1AU       S  170   8.517   2.757   6.021 -0.0528  0.1045  0.1817
    1AU     LIG  171   8.108   2.860   5.902  0.0847  0.0295  0.1460
    1AU     LIG  172   7.629   2.841   5.767  0.1826 -0.0762  0.1874
    1AU    AUSL  173  10.314   2.839   5.692  0.1147  0.0452  0.0116
    1AU    AUSL  174  10.149   3.216   5.482  0.0347  0.0301 -0.0668
    1AU     AUL  175  10.500   3.161   5.714 -0.0235  0.0119 -0.0602
    1AU       S  176  10.272   3.535   5.507 -0.0641 -0.1242  0.0313
    1AU     LIG  177  10.674   3.736   5.550  0.2311  0.2823  0.2271
    1AU     LIG  178  11.013   4.018   5.401 -0.2351 -0.0680  0.1194
    1AU       S  179  10.449   2.806   6.076  0.1504  0.3132 -0.0175
    1AU     LIG  180  10.943   2.894   6.015  0.1248  0.0325  0.2507
    1AU     LIG  181  11.132   2.953   5.693 -0.1240 -0.2301  0.3788
    1AU    AUSL  182  10.296   2.624   5.306 -0.0369 -0.0098 -0.0881
    1AU    AUSL  183  10.329   2.427   5.793 -0.1168 -0.0124  0.0695
    1AU     AUL  184  10.575   2.522   5.595 -0.0236 -0.1076  0.0407
    1AU       S  185  10.696   2.350   5.057  0.5464 -0.0888  0.3736
    1AU     LIG  186  10.888   2.343   4.699  0.5030 -0.0890 -0.1489
    1AU     LIG  187  11.287   2.278   4.488  0.2138  0.1730  0.1400
    1AU       S  188  10.567   2.185   5.917 -0.1741 -0.4044  0.2051
    1AU     LIG  189  10.954   2.011   5.946 -0.0714  0.1715  0.1417
    1AU     LIG  190  11.181   1.634   6.140 -0.3330 -0.0154 -0.3116
    1AU    AUSL  191  10.469   3.026   5.270  0.0020 -0.0203  0.0219
    1AU    AUSL  192  10.419   2.747   4.903  0.0977 -0.0322  0.0064
    1AU     AUL  193  10.610   2.801   5.218 -0.0224 -0.0119  0.1132
    1AU       S  194  10.554   3.129   4.841  0.4072  0.0102 -0.1538
    1AU     LIG  195  10.968   3.355   4.876  0.4112  0.3481  0.2102
    1AU     LIG  196  11.410   3.274   4.741 -0.0011  0.2215 -0.0120
    1AU       S  197  10.732   3.231   5.314 -0.5749 -0.0993 -0.3063
    1AU     LIG  198  11.082   3.498   5.365  0.1699  0.1279  0.2075
    1AU     LIG  199  11.498   3.742   5.430  0.0028 -0.0533 -0.2282
    1AU    AUSL  200   8.736   2.502   5.096  0.0654 -0.0245  0.0472
    1AU    AUSL  201   8.833   2.916   5.339  0.0191 -0.0017 -0.0316
    1AU     AUL  202   8.534   2.839   5.231  0.0710  0.0525 -0.0600
    1AU       S  203   8.317   2.417   5.179 -0.0654  0.0364  0.0279
    1AU     LIG  204   7.980   2.120   5.068 -0.0821 -0.1983 -0.0038
    1AU     LIG  205   7.702   1.778   4.953  0.1600  0.1539 -0.0869
    1AU       S  206   8.475   2.926   4.571  0.3908  0.1645 -0.2335
    1AU     LIG  207   8.147   2.959   4.413 -0.1520  0.3382  0.2183
    1AU     LIG  208   7.690   2.981   4.200 -0.0729 -0.1005  0.3532
    1AU    AUSL  209   8.694   2.144   5.399 -0.0441 -0.1600  0.1153
    1AU    AUSL  210   8.906   2.235   4.784 -0.0214  0.0936 -0.0193
    1AU     AUL  211   8.682   2.149   5.050  0.0324  0.0409 -0.0099
    1AU       S  212   8.375   2.165   5.419  0.1933 -0.4105 -0.0401
    1AU     LIG  213   8.114   1.832   5.583  0.3231 -0.0673 -0.0983
    1AU     LIG  214   7.865   1.481   5.534 -0.1343 -0.1268 -0.1686
    1AU       S  215   8.809   1.866   4.701 -0.0331 -0.2146  0.2105
    1AU     LIG  216   8.505   1.526   4.719  0.1960 -0.1686 -0.0388
    1AU     LIG  217   8.354   1.295   4.998  0.0940  0.2654 -0.0567
    1AU    AUSL  218  10.019   2.753   4.705 -0.0493  0.0317 -0.0522
    1AU    AUSL  219  10.222   2.372   4.887 -0.0514 -0.0586 -0.0906
    1AU     AUL  220  10.374   2.708   4.623  0.0155  0.0208  0.0489
    1AU       S  221  10.380   2.158   4.706 -0.0792 -0.0638 -0.1969
    1AU     LIG  222  10.658   1.813   4.876 -0.1861  0.1935  0.2424
    1AU     LIG  223  10.615   1.370   4.591 -0.1280 -0.4692 -0.6389
    1AU       S  224  10.439   3.426   4.826 -0.0363 -0.2983 -0.1754
    1AU     LIG  225  10.696   3.466   4.471 -0.1564 -0.1717 -0.2239
    1AU     LIG  226  11.032   3.531   4.374 -0.4214  0.2141 -0.2651
    1AU    AUSL  227  10.110   3.036   5.026 -0.0277 -0.0324 -0.0554
    1AU    AUSL  228   9.775   3.063   4.527  0.0124 -0.0390  0.0648
    1AU     AUL  229  10.146   3.119   4.622  0.0737  0.0228  0.0557
    1AU       S  230   9.833   3.275   4.317  0.2019 -0.0504 -0.0198
    1AU     LIG  231  10.047   3.242   3.895  0.0022 -0.2005 -0.2136
    1AU     LIG  232  10.340   3.412   3.611 -0.0707 -0.2752 -0.1862
    1AU       S  233  10.383   3.395   4.992  0.0040  0.6580 -0.1233
    1AU     LIG  234  10.608   3.808   5.070  0.1091 -0.1798  0.1657
    1AU     LIG  235  10.642   4.232   5.173 -0.0162 -0.1659  0.3280
    1AU    AUSL  236   9.644   3.094   6.006  0.0886  0.0297 -0.0946
    1AU    AUSL  237  10.078   3.127   5.903  0.1018 -0.0014  0.0090
    1AU     AUL  238   9.779   3.405   6.048  0.0128 -0.0439 -0.1064
    1AU       S  239  10.214   3.270   6.047 -0.3617 -0.1318 -0.4454
    1AU     LIG  240  10.584   3.151   6.328  0.1251  0.0653  0.0398
    1AU     LIG  241  10.825   2.920   6.503 -0.1381  0.3573  0.0114
    1AU       S  242   9.714   3.240   6.470  0.2498  0.2695 -0.0035
    1AU     LIG  243   9.422   3.635   6.670 -0.1129 -0.1387 -0.4271
    1AU     LIG  244   8.947   3.723   6.650 -0.0588 -0.1721  0.0294
    1AU    AUSL  245   9.952   2.832   6.197 -0.1006 -0.0178 -0.0669
    1AU    AUSL  246   9.688   2.403   6.258 -0.0022  0.0650 -0.0363
    1AU     AUL  247   9.905   2.567   6.422  0.0432 -0.0216  0.0138
    1AU       S  248   9.756   3.086   6.543 -0.2720 -0.0561 -0.1310
    1AU     LIG  249   9.875   3.380   6.885  0.1889  0.1098  0.2919
    1AU     LIG  250   9.609   3.700   7.170 -0.0363  0.1462  0.1356
    1AU       S  251   9.899   2.088   6.522 -0.1028 -0.2327  0.2764
    1AU     LIG  252  10.280   1.895   6.487 -0.3893  0.2717 -0.0507
    1AU     LIG  253  10.673   1.622   6.350  0.2747 -0.0796 -0.2070
    1AU    AUSL  254   9.504   2.803   6.295 -0.0233 -0.0031  0.0084
    1AU    AUSL  255   9.281   3.315   6.055  0.0411 -0.0868  0.0018
    1AU     AUL  256   9.331   3.082   6.271  0.1060 -0.0295 -0.0638
    1AU       S  257   9.030   3.440   6.178 -0.2181  0.1605  0.3492
    1AU     LIG  258   8.780   3.861   6.136 -0.0525 -0.1356 -0.1529
    1AU     LIG  259   8.372   4.064   6.161  0.1570 -0.0963  0.1775
    1AU       S  260   9.622   2.918   6.577 -0.2369 -0.0889 -0.0892
    1AU     LIG  261   9.422   3.115   6.917  0.2734  0.2674  0.1767
    1AU     LIG  262   9.170   3.394   7.074 -0.0519  0.2603  0.1502
    1AU    AUSL  263   9.148   3.235   4.731 -0.1229 -0.0083  0.0504
    1AU    AUSL  264   8.941   2.833   4.911 -0.0160  0.0714 -0.0516
    1AU     AUL  265   8.890   3.159   4.665  0.0074 -0.0905  0.0055
    1AU       S  266   9.048   3.275   4.193 -0.0988  0.0871 -0.0543
    1AU     LIG  267   9.073   3.696   4.162  0.0732  0.2754 -0.0378
    1AU     LIG  268   9.466   3.869   4.270  0.1036 -0.0428 -0.3515
    1AU       S  269   8.577   2.811   4.772  0.1626  0.0353  0.0808
    1AU     LIG  270   8.222   2.489   4.669  0.2633 -0.0856 -0.1190
    1AU     LIG  271   7.852   2.544   4.414 -0.0677  0.1245 -0.1622
    1AU    AUSL  272   9.375   2.923   4.516  0.0698  0.0393 -0.0844
    1AU    AUSL  273   9.533   3.155   4.880  0.0203 -0.0157  0.0378
    1AU     AUL  274   9.414   3.325   4.547 -0.0387  0.0056  0.0072
    1AU       S  275   9.273   3.061   4.180 -0.1368  0.0652 -0.2811
    1AU     LIG  276   9.523   3.449   3.944 -0.0189 -0.0829  0.0316
    1AU     LIG  277   9.901   3.710   3.937 -0.0845  0.1419  0.1049
    1AU       S  278   9.865   3.554   4.364 -0.1051 -0.0562  0.0406
    1AU     LIG  279  10.328   3.546   4.146  0.1089  0.0852 -0.1707
    1AU     LIG  280  10.681   3.584   3.924 -0.2268 -0.1410 -0.0348
    1AU    AUSL  281   8.985   2.691   4.520  0.0316  0.0221 -0.0129
    1AU    AUSL  282   9.634   2.573   4.485 -0.0709 -0.0671 -0.0648
    1AU     AUL  283   9.295   2.617   4.310  0.0032  0.0107  0.0891
    1AU       S  284   9.728   2.719   4.192 -0.0436  0.0662  0.2135
    1AU     LIG  285   9.658   2.976   3.849  0.1863  0.2966 -0.2878
    1AU     LIG  286   9.357   3.086   3.642 -0.2087  0.0580  0.0236
    1AU       S  287   8.955   3.072   4.184 -0.2871 -0.1138  0.3939
    1AU     LIG  288   8.515   3.205   4.070 -0.0486  0.0198  0.0026
    1AU     LIG  289   8.169   3.617   4.079 -0.2143 -0.1227 -0.0542
    1AU    AUSL  290   9.805   2.097   5.984 -0.0087  0.0497  0.1011
    1AU    AUSL  291   9.403   2.334   5.953 -0.0268  0.0381  0.0033
    1AU     AUL  292   9.476   2.109   6.233  0.0303  0.0298 -0.0481
    1AU       S  293   9.868   1.921   6.141 -0.1458  0.3210  0.0638
    1AU     LIG  294  10.215   1.598   6.118 -0.0614 -0.0205  0.1783
    1AU     LIG  295  10.411   1.243   5.788 -0.0023 -0.2402  0.2705
    1AU       S  296   9.175   1.696   6.358 -0.5205 -0.4502  0.0925
    1AU     LIG  297   9.454   1.455   6.676  0.1648 -0.1277  0.2031
    1AU     LIG  298   9.682   1.004   6.628  0.0578 -0.2584 -0.3344
    1AU    AUSL  299   9.925   2.527   5.894  0.0850  0.0281 -0.1142
    1AU    AUSL  300  10.030   2.168   5.624 -0.0428  0.0191 -0.0491
    1AU     AUL  301  10.127   2.288   6.037 -0.0657  0.0523 -0.1424
    1AU       S  302   9.786   1.859   6.455 -0.0200 -0.0375  0.1946
    1AU     LIG  303   9.958   1.475   6.590 -0.0776  0.1775 -0.1673
    1AU     LIG  304   9.943   1.309   7.004  0.1907  0.3172 -0.1745
    1AU       S  305  10.382   1.962   5.778  0.1796  0.1606 -0.2240
    1AU     LIG  306  10.701   1.617   5.864 -0.0491 -0.1215  0.2723
    1AU     LIG  307  11.053   1.275   5.845  0.6164 -0.0739 -0.0222
    1AU    AUSL  308   9.468   2.173   4.504  0.0368  0.0178  0.0144
    1AU    AUSL  309  10.004   2.372   4.502 -0.0196  0.0114 -0.0235
    1AU     AUL  310   9.760   2.204   4.403  0.0332 -0.0533 -0.0782
    1AU       S  311  10.272   2.318   4.426  0.2802 -0.1802  0.1822
    1AU     LIG  312  10.435   2.111   4.071  0.1452  0.0010  0.4758
    1AU     LIG  313  10.767   1.772   3.927  0.2951 -0.3191  0.0634
    1AU       S  314   9.967   2.694   4.117 -0.4682 -0.2251  0.0327
    1AU     LIG  315  10.349   2.579   3.941 -0.2215 -0.1561  0.2982
    1AU     LIG  316  10.725   2.741   3.807 -0.0477 -0.1292 -0.0107
    1AU    AUSL  317   9.263   2.473   4.760 -0.0335 -0.0008  0.0647
    1AU    AUSL  318   9.282   2.012   4.860 -0.1132 -0.0310  0.0022
    1AU     AUL  319   9.141   2.151   4.480 -0.0354 -0.0946  0.0060
    1AU       S  320  10.057   2.831   4.222 -0.2778  0.0836 -0.3026
    1AU     LIG  321  10.460   3.071   4.071 -0.1490  0.0696 -0.0630
    1AU     LIG  322  10.888   3.135   4.149 -0.5694 -0.0475 -0.0507
    1AU       S  323   9.110   1.728   4.741 -0.3023  0.2846 -0.1617
    1AU     LIG  324   9.355   1.273   4.768  0.1304 -0.0255  0.0484
    1AU     LIG  325   9.496   0.915   4.556 -0.0106  0.0824  0.4284
    2POPC   NC3  326   1.749   7.837   7.345  0.1035 -0.1108  0.0987
    2POPC   PO4  327   1.328   7.688   7.327 -0.1030 -0.0977  0.0022
    2POPC   GL1  328   1.243   8.005   7.038 -0.1466  0.1097  0.1188
    2POPC   GL2  329   1.510   7.998   6.941 -0.0629  0.0915  0.0321
    2POPC   C1A  330   1.050   8.217   6.778 -0.0951  0.1619 -0.4044
    2POPC   D2A  331   0.711   8.336   6.521  0.2474  0.1746 -0.0179
    2POPC   C3A  332   0.199   8.393   6.549 -0.3502  0.0897  0.1529
    2POPC   C4A  333   0.024   8.749   6.491  0.0566  0.1083 -0.0881
    2POPC   C1B  334   1.586   8.104   6.456  0.0810  0.3934 -0.0956
    2POPC   C2B  335   1.767   8.412   6.115 -0.0624  0.0433  0.2659
    2POPC   C3B  336   1.768   8.498   5.700 -0.2031  0.3971  0.0503
    2POPC   C4B  337   1.918   8.638   5.332  0.0400  0.1046 -0.1287
    3POPC   NC3  338   2.988  10.556   7.547  0.1054 -0.1890  0.0752
    3POPC   PO4  339   2.557  10.293   7.523  0.1497 -0.0112 -0.0848
    3POPC   GL1  340   2.464  10.423   7.128 -0.2458 -0.1247  0.3388
    3POPC   GL2  341   2.238  10.175   7.092 -0.0102 -0.2895 -0.0056
    3POPC   C1A  342   2.588  10.708   6.722  0.0460 -0.0888 -0.0573
    3POPC   D2A  343   2.925  10.597   6.532  0.1847  0.2200 -0.2154
    3POPC   C3A  344   3.419  10.638   6.421  0.1832  0.0152  0.1965
    3POPC   C4A  345   3.834  10.953   6.235  0.3283  0.1258  0.1194
    3POPC   C1B  346   2.240  10.300   6.667 -0.0721 -0.1850 -0.0039
    3POPC   C2B  347   2.308  10.255   6.210 -0.0084 -0.2487 -0.0769
    3POPC   C3B  348   2.733  10.533   6.058  0.0299  0.0448 -0.0808
    3POPC   C4B  349   3.106  10.613   5.744  0.1232  0.2977 -0.3109
    4POPC   NC3  350   1.458   3.150   7.160 -0.0175 -0.1349 -0.1560
    4POPC   PO4  351   1.245   3.414   6.945 -0.0603  0.0107 -0.3147
    4POPC   GL1  352   1.316   3.784   6.680 -0.0010 -0.3987  0.1435
    4POPC   GL2  353   1.697   3.954   6.723 -0.0388 -0.2001 -0.1359
    4POPC   C1A  354   1.324   4.166   6.450  0.0801  0.1575  0.0123
    4POPC   D2A  355   1.214   4.548   6.548 -0.1566 -0.2356 -0.0180
    4POPC   C3A  356   1.188   4.845   6.276  0.0148  0.2259  0.1365
    4POPC   C4A  357   1.297   5.049   5.911  0.2345  0.0425  0.0765
    4POPC   C1B  358   1.605   3.806   6.305 -0.2396 -0.0109 -0.0002
    4POPC   C2B  359   1.884   3.639   6.003  0.1856 -0.0011  0.1833
    4POPC   C3B  360   2.066   3.812   5.668 -0.0559 -0.1318 -0.0544
    4POPC   C4B  361   2.303   4.065   5.484 -0.5503  0.1731 -0.1002
    5POPC   NC3  362   7.914  10.229   7.789  0.0042  0.0272 -0.0061
    5POPC   PO4  363   8.358  10.220   7.561  0.0985 -0.0232  0.0996
    5POPC   GL1  364   8.239   9.940   7.220  0.0249 -0.4761 -0.0642
    5POPC   GL2  365   8.377  10.272   6.983 -0.2107  0.1983  0.2816
    5POPC   C1A  366   7.963   9.934   6.915 -0.0601  0.0809 -0.0254
    5POPC   D2A  367   7.945  10.269   6.625  0.1154 -0.2571 -0.2061
    5POPC   C3A  368   7.968  10.225   6.158 -0.1477  0.2320  0.0368
    5POPC   C4A  369   7.735  10.299   5.776  0.2163 -0.1539  0.1981
    5POPC   C1B  370   8.116  10.633   6.876 -0.1332  0.1624  0.0730
    5POPC   C2B  371   7.918  10.829   6.511 -0.0726  0.2795  0.2191
    5POPC   C3B  372   7.793  10.783   6.054  0.1829  0.0824 -0.2362
    5POPC   C4B  373   7.356  10.837   5.843  0.0932 -0.0170 -0.2497
    6POPC   NC3  374   0.565   8.083   7.476 -0.0791 -0.0872 -0.3988
    6POPC   PO4  375   0.887   7.838   7.389 -0.2625  0.0809 -0.1908
    6POPC   GL1  376   0.707   7.911   7.030  0.1532 -0.0748  0.2573
    6POPC   GL2  377   0.504   8.208   6.934 -0.1452  0.3315  0.1027
    6POPC   C1A  378   0.676   7.839   6.517 -0.3481  0.0838 -0.1595
    6POPC   D2A  379   0.566   7.945   6.175 -0.0610 -0.0288  0.0024
    6POPC   C3A  380   0.648   7.708   5.716  0.1466 -0.4703  0.0812
    6POPC   C4A  381   0.699   7.635   5.270  0.1622  0.2323  0.0756
    6POPC   C1B  382   0.047   8.324   7.073 -0.0159  0.2511  0.2277
    6POPC   C2B  383  -0.263   8.564   6.967  0.1743 -0.2251 -0.0116
    6POPC   C3B  384  -0.651   8.588   6.901  0.4022 -0.1920  0.2570
    6POPC   C4B  385  -1.102   8.466   7.043  0.0665 -0.1763  0.1286
    7POPC   NC3  386   0.950   3.829   7.098  0.0408 -0.0714  0.3244
    7POPC   PO4  387   0.703   4.290   7.216  0.0883 -0.0499  0.0541
    7POPC   GL1  388   0.804   4.287   6.793 -0.1071 -0.0737  0.3847
    7POPC   GL2  389   0.863   4.026   6.661 -0.1612  0.2824  0.0956
    7POPC   C1A  390   0.802   4.392   6.328  0.3664 -0.1242  0.0457
    7POPC   D2A  391   1.059   4.402   5.973 -0.0191 -0.1013 -0.0712
    7POPC   C3A  392   1.434   4.067   5.863  0.0109  0.0227  0.1057
    7POPC   C4A  393   1.540   3.770   5.522  0.2092 -0.1429  0.3861
    7POPC   C1B  394   1.013   3.879   6.252 -0.1253  0.2093  0.1710
    7POPC   C2B  395   1.117   3.626   5.903 -0.2459  0.0651 -0.0164
    7POPC   C3B  396   1.035   3.756   5.482  0.0785  0.1491 -0.5292
    7POPC   C4B  397   0.851   3.792   5.036 -0.2271  0.1071  0.0579
    8POPC   NC3  398   7.043   9.974   7.484 -0.0326  0.3417 -0.0422
    8POPC   PO4  399   6.557   9.950   7.664 -0.2603 -0.2661  0.0055
    8POPC   GL1  400   6.518   9.949   7.236  0.0167 -0.2505  0.0128
    8POPC   GL2  401   6.805   9.996   7.007 -0.0037 -0.0519  0.0009
    8POPC   C1A  402   6.330  10.046   6.843  0.2599  0.0514 -0.0092
    8POPC   D2A  403   6.029  10.141   6.407 -0.0384 -0.1817 -0.2597
    8POPC   C3A  404   6.005  10.495   6.153  0.3459 -0.0482  0.0564
    8POPC   C4A  405   6.072  10.950   6.270 -0.1122 -0.1773  0.2229
    8POPC   C1B  406   6.968  10.177   6.680 -0.1576 -0.0395 -0.0333
    8POPC   C2B  407   6.966  10.318   6.298  0.5394  0.1324 -0.1228
    8POPC   C3B  408   6.766  10.318   6.008  0.2145 -0.0396 -0.2482
    8POPC   C4B  409   6.692  10.134   5.662  0.0644 -0.0307  0.0464
    9POPC   NC3  410   2.754   3.466   7.189  0.0712 -0.0983  0.0201
    9POPC   PO4  411   3.038   3.147   7.271 -0.2124  0.3909  0.1759
    9POPC   GL1  412   3.209   3.363   7.014  0.2616 -0.3597 -0.0791
    9POPC   GL2  413   2.859   3.582   6.728  0.1804 -0.0477 -0.0326
    9POPC   C1A  414   3.331   3.439   6.583 -0.0150  0.1701  0.0335
    9POPC   D2A  415   3.476   3.702   6.342  0.2764 -0.0519  0.2426
    9POPC   C3A  416   3.490   3.798   5.925  0.2477  0.1483 -0.0352
    9POPC   C4A  417   3.863   3.831   5.736  0.1617  0.1385 -0.0181
    9POPC   C1B  418   2.893   3.448   6.318  0.3626 -0.0709 -0.1334
    9POPC   C2B  419   2.833   3.100   6.021 -0.5179  0.0233 -0.1175
    9POPC   C3B  420   2.817   2.850   5.668  0.0841  0.0451  0.3786
    9POPC   C4B  421   2.744   2.574   5.241 -0.2184  0.3231 -0.0854
   10POPC   NC3  422   3.179   4.803   7.299  0.1396 -0.3206 -0.1675
   10POPC   PO4  423   3.709   4.765   7.329 -0.0683  0.0262  0.0416
   10POPC   GL1  424   3.480   4.883   6.865  0.3255  0.0564  0.1820
   10POPC   GL2  425   3.471   5.258   6.803  0.1987  0.2377  0.1304
   10POPC   C1A  426   3.494   4.976   6.338  0.2243  0.0010  0.1393
   10POPC   D2A  427   3.397   4.787   5.966 -0.1697 -0.1521 -0.0428
   10POPC   C3A  428   3.405   5.040   5.637 -0.1051 -0.2298 -0.1462
   10POPC   C4A  429   3.147   5.251   5.236  0.0220 -0.1356  0.0692
   10POPC   C1B  430   3.261   5.423   6.446  0.2886  0.0863 -0.1836
   10POPC   C2B  431   2.978   5.614   6.148  0.0172 -0.4687 -0.0433
   10POPC   C3B  432   2.673   5.767   5.912  0.3457  0.0308  0.3655
   10POPC   C4B  433   2.723   5.561   5.504 -0.1746 -0.0915 -0.0541
   11POPC   NC3  434   4.466   9.038   7.740  0.1669  0.1008 -0.0551
   11POPC   PO4  435   4.061   8.956   7.557  0.0962  0.0887 -0.1568
   11POPC   GL1  436   4.210   8.916   7.153  0.1720 -0.1104  0.1512
   11POPC   GL2  437   4.568   9.065   7.182 -0.0200 -0.0161 -0.1441
   11POPC   C1A  438   4.262   9.042   6.778 -0.2966 -0.0280 -0.2312
   11POPC   D2A  439   4.363   9.145   6.377 -0.1208 -0.1773  0.1954
   11POPC   C3A  440   4.135   9.286   6.043 -0.0083  0.2854 -0.0113
   11POPC   C4A  441   3.739   9.047   5.863  0.0250 -0.2638  0.1990
   11POPC   C1B  442   4.745   9.138   6.762 -0.1417 -0.2121 -0.0029
   11POPC   C2B  443   5.141   9.078   6.502 -0.1271  0.2908 -0.2831
   11POPC   C3B  444   5.059   9.063   6.137 -0.0871 -0.0166  0.0538
   11POPC   C4B  445   4.763   9.284   5.867 -0.0776  0.2224  0.0055
   12POPC   NC3  446   7.136   6.962   7.440 -0.0041  0.2797  0.0552
   12POPC   PO4  447   7.325   7.297   7.419  0.2942  0.1649 -0.0315
   12POPC   GL1  448   7.171   7.363   7.110 -0.3875  0.3009  0.2638
   12POPC   GL2  449   7.315   7.088   6.984  0.1799 -0.1465 -0.2284
   12POPC   C1A  450   7.232   7.425   6.621  0.0053  0.3004 -0.3044
   12POPC   D2A  451   7.507   7.527   6.227 -0.1303  0.2261  0.2456
   12POPC   C3A  452   7.495   7.322   5.782 -0.2324 -0.0164 -0.0229
   12POPC   C4A  453   7.847   7.227   5.455  0.3226 -0.3626 -0.3654
   12POPC   C1B  454   7.316   6.767   6.728 -0.0616  0.1395  0.2881
   12POPC   C2B  455   7.401   6.574   6.305  0.0814 -0.0280  0.1843
   12POPC   C3B  456   7.277   6.197   6.106  0.0892 -0.1586 -0.1440
   12POPC   C4B  457   6.943   5.925   6.158  0.1094  0.0369 -0.1401
   13POPC   NC3  458  10.784   2.326   7.759  0.0471  0.3765 -0.3202
   13POPC   PO4  459  10.784   1.955   7.436  0.0649 -0.1475 -0.1523
   13POPC   GL1  460  10.776   2.020   7.034 -0.0218 -0.0297  0.0570
   13POPC   GL2  461  10.525   2.053   6.889 -0.1487  0.1495  0.0607
   13POPC   C1A  462  11.058   2.381   6.761 -0.1360 -0.0172  0.3855
   13POPC   D2A  463  11.241   2.646   6.535 -0.0422 -0.2358 -0.0203
   13POPC   C3A  464  11.586   2.690   6.340  0.1135  0.1929 -0.1779
   13POPC   C4A  465  11.972   2.726   6.116 -0.1996 -0.2051  0.2262
   13POPC   C1B  466  10.767   2.107   6.492  0.1167 -0.0165 -0.0189
   13POPC   C2B  467  10.908   2.440   6.249 -0.1422 -0.1146 -0.2522
   13POPC   C3B  468  11.197   2.414   5.933  0.6107 -0.0488  0.0916
   13POPC   C4B  469  11.400   2.362   5.540  0.0709 -0.1515 -0.1521
   14POPC   NC3  470   8.843   0.596   7.531  0.4575  0.1990 -0.0850
   14POPC   PO4  471   8.440   0.255   7.629  0.1823 -0.1809  0.2930
   14POPC   GL1  472   8.536   0.408   7.166 -0.1063  0.1248 -0.3464
   14POPC   GL2  473   8.758   0.247   7.089  0.1567 -0.1637  0.3966
   14POPC   C1A  474   8.300   0.383   6.792 -0.1260 -0.0487  0.1378
   14POPC   D2A  475   8.395   0.070   6.469 -0.0623  0.1331 -0.0419
   14POPC   C3A  476   8.317  -0.346   6.360 -0.0290  0.0456  0.1118
   14POPC   C4A  477   8.448  -0.775   6.551 -0.2194  0.2278 -0.1115
   14POPC   C1B  478   8.874   0.224   6.630  0.1425 -0.5508 -0.2527
   14POPC   C2B  479   8.838   0.042   6.270 -0.0976 -0.1462  0.1102
   14POPC   C3B  480   8.477  -0.117   5.970  0.4869 -0.0033  0.1960
   14POPC   C4B  481   8.471  -0.358   5.566  0.0885  0.0799 -0.1250
   15POPC   NC3  482   2.848   0.752   7.676 -0.1699 -0.0794 -0.2674
   15POPC   PO4  483   2.792   0.322   7.449 -0.0186  0.0589  0.1768
   15POPC   GL1  484   2.719   0.197   7.041 -0.2612  0.3570  0.0171
   15POPC   GL2  485   3.098   0.311   6.922 -0.0610  0.4763  0.0161
   15POPC   C1A  486   2.743   0.341   6.658 -0.2528  0.1859 -0.2851
   15POPC   D2A  487   2.896   0.454   6.394 -0.2965 -0.4241 -0.1284
   15POPC   C3A  488   3.279   0.678   6.238  0.1742  0.1726 -0.1373
   15POPC   C4A  489   3.320   1.142   6.255  0.3944 -0.2322 -0.1498
   15POPC   C1B  490   3.125   0.716   6.748  0.0627 -0.0481 -0.2652
   15POPC   C2B  491   2.913   0.989   6.409  0.1504 -0.0668  0.3583
   15POPC   C3B  492   2.482   1.217   6.175 -0.0994  0.2324 -0.3539
   15POPC   C4B  493   2.186   1.293   5.912  0.1003  0.2577  0.0009
   16POPC   NC3  494   5.593   0.751   7.635  0.0392  0.0085  0.2523
   16POPC   PO4  495   5.486   1.215   7.544  0.4489 -0.2591  0.1676
   16POPC   GL1  496   5.542   1.340   7.150 -0.1431 -0.1318  0.0325
   16POPC   GL2  497   5.260   1.501   7.013 -0.2895 -0.0708 -0.1585
   16POPC   C1A  498   5.752   1.646   6.795 -0.1396 -0.0083 -0.2194
   16POPC   D2A  499   6.154   1.599   6.773  0.0261  0.0344  0.0737
   16POPC   C3A  500   6.237   1.854   6.464  0.0471 -0.2574  0.1940
   16POPC   C4A  501   6.498   2.097   6.116  0.2076 -0.0466 -0.0529
   16POPC   C1B  502   5.295   1.197   6.747  0.1651 -0.0224 -0.0606
   16POPC   C2B  503   5.363   0.685   6.620 -0.1131 -0.0014 -0.1299
   16POPC   C3B  504   5.009   0.401   6.441 -0.4000 -0.0983  0.2864
   16POPC   C4B  505   4.752   0.096   6.248 -0.1632 -0.1689  0.2896
   17POPC   NC3  506   0.330   8.986   7.794  0.0934  0.1868  0.0999
   17POPC   PO4  507   0.558   8.619   7.552 -0.0489  0.2555  0.0076
   17POPC   GL1  508   0.569   8.608   7.213  0.1113 -0.0139 -0.0411
   17POPC   GL2  509   0.388   8.732   6.914 -0.3573  0.0078 -0.1126
   17POPC   C1A  510   0.866   8.624   6.913 -0.0746 -0.0288  0.0358
   17POPC   D2A  511   0.904   8.764   6.467  0.0536 -0.0776  0.1843
   17POPC   C3A  512   0.664   8.977   6.139  0.1209 -0.0485  0.0947
   17POPC   C4A  513   0.368   9.037   5.838 -0.0129  0.0883 -0.0836
   17POPC   C1B  514   0.451   9.007   6.559  0.0212 -0.1170  0.2014
   17POPC   C2B  515   0.512   9.403   6.410 -0.2546 -0.3542  0.1111
   17POPC   C3B  516   0.636   9.842   6.248  0.5865 -0.3218 -0.3842
   17POPC   C4B  517   0.865  10.262   6.306  0.0844 -0.1785  0.1201
   18POPC   NC3  518   3.118   3.976   7.882  0.2688 -0.2379 -0.3159
   18POPC   PO4  519   2.771   3.848   7.510 -0.0820  0.0100 -0.1391
   18POPC   GL1  520   2.772   3.957   7.108  0.2304  0.0969  0.2423
   18POPC   GL2  521   2.468   3.969   7.032 -0.2708 -0.2302  0.1188
   18POPC   C1A  522   2.764   4.167   6.715 -0.2093 -0.0964 -0.0982
   18POPC   D2A  523   2.950   4.147   6.367  0.1107 -0.0885  0.0096
   18POPC   C3A  524   2.964   3.828   6.057 -0.1393  0.0159  0.0696
   18POPC   C4A  525   3.102   3.485   5.812 -0.0260  0.0136 -0.0443
   18POPC   C1B  526   2.209   4.107   6.737 -0.1620  0.2400  0.1157
   18POPC   C2B  527   2.037   4.121   6.337 -0.1616 -0.1164  0.0289
   18POPC   C3B  528   1.885   4.208   5.899  0.0254  0.0483 -0.2037
   18POPC   C4B  529   1.891   4.411   5.534  0.1072  0.0529  0.0864
   19POPC   NC3  530   9.018   2.200   6.960  0.1356 -0.0334  0.3620
   19POPC   PO4  531   8.604   1.994   7.053 -0.1556  0.1368 -0.2041
   19POPC   GL1  532   8.721   1.850   6.657  0.2225  0.1414 -0.1297
   19POPC   GL2  533   8.586   1.859   6.376 -0.2004 -0.2115 -0.0030
   19POPC   C1A  534   8.929   1.384   6.615 -0.2478  0.3066 -0.0644
   19POPC   D2A  535   9.177   1.007   6.413  0.1787  0.3880  0.2829
   19POPC   C3A  536   9.087   0.738   6.570  0.2726  0.0721  0.5664
   19POPC   C4A  537   9.312   0.270   6.500 -0.1078  0.0593 -0.0637
   19POPC   C1B  538   8.375   1.626   6.060 -0.1123 -0.0509 -0.1179
   19POPC   C2B  539   8.313   1.300   5.878  0.1943  0.0500 -0.0353
   19POPC   C3B  540   7.891   1.019   5.767 -0.3082 -0.2600  0.0700
   19POPC   C4B  541   7.925   0.648   5.525  0.0150 -0.0245  0.0887
   20POPC   NC3  542   3.691   0.087   7.497 -0.1963  0.4153 -0.0788
   20POPC   PO4  543   3.597   0.491   7.375 -0.1743 -0.3494 -0.1428
   20POPC   GL1  544   3.613   0.528   6.988 -0.0945 -0.0723  0.4194
   20POPC   GL2  545   3.738   0.310   6.690 -0.1119 -0.0860 -0.1107
   20POPC   C1A  546   3.635   0.836   6.582 -0.2269 -0.0091  0.2790
   20POPC   D2A  547   3.787   0.997   6.232 -0.0376 -0.1447 -0.2445
   20POPC   C3A  548   3.680   0.909   5.931 -0.0355 -0.1112 -0.2442
   20POPC   C4A  549   3.785   0.532   5.636  0.1498 -0.0589  0.2553
   20POPC   C1B  550   3.415   0.247   6.506  0.3365  0.2655 -0.0709
   20POPC   C2B  551   3.303   0.136   6.168  0.2409 -0.1994  0.1605
   20POPC   C3B  552   2.906   0.129   5.955  0.5621 -0.2184  0.2478
   20POPC   C4B  553   2.632   0.455   5.654  0.1243 -0.0899 -0.0794
   21POPC   NC3  554   5.404   1.724   7.505 -0.5249 -0.0698 -0.1098
   21POPC   PO4  555   5.045   1.869   7.282  0.2441  0.2563  0.1127
   21POPC   GL1  556   4.902   2.043   6.851  0.2172  0.1168 -0.2357
   21POPC   GL2  557   5.187   2.310   6.785  0.0936 -0.1227 -0.1535
   21POPC   C1A  558   4.807   1.818   6.502 -0.1630 -0.1919  0.0528
   21POPC   D2A  559   4.836   1.540   6.330  0.0406 -0.0052  0.0209
   21POPC   C3A  560   4.959   1.531   5.891  0.0526 -0.0947  0.1676
   21POPC   C4A  561   5.184   1.743   5.663  0.3399  0.0815 -0.0478
   21POPC   C1B  562   5.104   2.702   6.517  0.0282  0.4519  0.0691
   21POPC   C2B  563   5.179   2.844   6.184  0.2340 -0.1415 -0.1225
   21POPC   C3B  564   5.306   2.881   5.774 -0.0069 -0.1458  0.2514
   21POPC   C4B  565   5.258   2.954   5.384  0.0898  0.1413  0.2851
   22POPC   NC3  566   5.816   3.491   7.304 -0.0630 -0.0656 -0.2501
   22POPC   PO4  567   5.377   3.754   7.185  0.0956 -0.0549 -0.2203
   22POPC   GL1  568   5.234   3.906   6.843 -0.1430 -0.0619 -0.0367
   22POPC   GL2  569   5.314   4.195   6.712 -0.2292 -0.1078 -0.1991
   22POPC   C1A  570   5.187   3.803   6.432  0.3099  0.0467 -0.2801
   22POPC   D2A  571   4.762   3.698   6.268 -0.1173 -0.0342 -0.0814
   22POPC   C3A  572   4.687   3.230   6.122 -0.2025  0.4088 -0.2281
   22POPC   C4A  573   4.877   3.082   5.774  0.2567 -0.2544  0.3995
   22POPC   C1B  574   5.559   4.173   6.338  0.1480 -0.1491  0.0444
   22POPC   C2B  575   5.725   4.202   5.886  0.1266 -0.0354  0.2609
   22POPC   C3B  576   5.818   3.986   5.510 -0.1107 -0.3034 -0.2642
   22POPC   C4B  577   5.798   4.184   5.072 -0.0052 -0.0977 -0.2908
   23POPC   NC3  578   8.847   9.162   7.833  0.0843 -0.0645 -0.1862
   23POPC   PO4  579   8.462   9.342   7.822  0.2319  0.2801  0.0082
   23POPC   GL1  580   8.557   9.103   7.405  0.1406  0.0986 -0.5106
   23POPC   GL2  581   8.887   9.251   7.342 -0.3615  0.4255  0.0086
   23POPC   C1A  582   8.466   8.744   7.079 -0.2281  0.1720  0.0894
   23POPC   D2A  583   8.321   8.818   6.708  0.0504 -0.2493  0.0459
   23POPC   C3A  584   8.183   8.904   6.316  0.0143 -0.2650 -0.1018
   23POPC   C4A  585   8.129   8.654   5.922 -0.0717 -0.0929  0.0215
   23POPC   C1B  586   8.762   9.169   6.877  0.1028  0.0109 -0.2841
   23POPC   C2B  587   8.708   9.197   6.496  0.1115  0.4247  0.1603
   23POPC   C3B  588   8.439   9.286   6.210  0.1370 -0.5633 -0.2525
   23POPC   C4B  589   8.748   9.450   5.959 -0.0701  0.0946  0.0072
   24POPC   NC3  590  10.597   7.902   7.471  0.0970  0.1706 -0.0902
   24POPC   PO4  591  10.132   7.987   7.667 -0.0302  0.1138 -0.0631
   24POPC   GL1  592  10.148   8.063   7.108 -0.2103  0.1920 -0.4592
   24POPC   GL2  593   9.950   7.883   7.011 -0.0385  0.1224  0.1314
   24POPC   C1A  594  10.118   8.138   6.620  0.2966  0.0867 -0.0855
   24POPC   D2A  595  10.032   8.119   6.201 -0.0103 -0.1368  0.0664
   24POPC   C3A  596   9.800   7.911   5.899  0.3032 -0.0991  0.2261
   24POPC   C4A  597   9.651   8.102   5.500  0.2689 -0.1529 -0.1718
   24POPC   C1B  598   9.618   8.060   6.798  0.2755 -0.4083 -0.1360
   24POPC   C2B  599   9.479   8.180   6.423  0.0838 -0.1299  0.1971
   24POPC   C3B  600   9.532   8.350   5.991  0.1518  0.2722 -0.2481
   24POPC   C4B  601   9.770   8.758   5.990 -0.0960  0.2314 -0.0150
   25POPC   NC3  602   6.424   7.487   7.842 -0.0407 -0.0048 -0.2128
   25POPC   PO4  603   6.074   7.680   7.589 -0.2006  0.2572  0.2250
   25POPC   GL1  604   6.486   7.755   7.456 -0.2882 -0.1110  0.1260
   25POPC   GL2  605   6.385   7.978   7.304  0.1608 -0.0756 -0.0290
   25POPC   C1A  606   6.723   7.648   7.059  0.3024  0.3029 -0.0629
   25POPC   D2A  607   6.775   7.558   6.660 -0.1256  0.0062  0.2275
   25POPC   C3A  608   6.381   7.683   6.368  0.1300  0.1510  0.0706
   25POPC   C4A  609   6.301   8.064   6.003  0.1639  0.1981  0.0146
   25POPC   C1B  610   6.379   7.945   6.866 -0.2882 -0.2002  0.0916
   25POPC   C2B  611   6.399   8.236   6.469 -0.2453  0.1021  0.0890
   25POPC   C3B  612   6.523   8.491   6.037  0.0638  0.0996  0.2057
   25POPC   C4B  613   6.177   8.758   5.778 -0.1421 -0.2137 -0.1024
   26POPC   NC3  614   1.849   7.101   7.906 -0.0287  0.1232  0.0210
   26POPC   PO4  615   2.052   7.579   7.613 -0.0623  0.2147  0.0953
   26POPC   GL1  616   2.136   7.551   7.232  0.2511  0.2794 -0.0633
   26POPC   GL2  617   2.155   7.866   7.030  0.1340  0.4077 -0.0540
   26POPC   C1A  618   2.226   7.436   6.797  0.0662 -0.1018  0.1162
   26POPC   D2A  619   2.228   7.320   6.378  0.1212  0.3760  0.1631
   26POPC   C3A  620   2.275   7.378   5.998  0.1242  0.4532 -0.0899
   26POPC   C4A  621   2.241   7.519   5.524 -0.0195  0.1751  0.0760
   26POPC   C1B  622   2.023   8.198   6.720 -0.2486 -0.2512 -0.1135
   26POPC   C2B  623   2.237   8.298   6.365 -0.1431  0.4234 -0.0964
   26POPC   C3B  624   2.253   8.415   5.922  0.0013 -0.1706 -0.1277
   26POPC   C4B  625   2.469   8.703   5.677  0.2976  0.0564 -0.0211
   27POPC   NC3  626   7.491   4.060   7.329  0.0530  0.0204 -0.2252
   27POPC   PO4  627   7.060   3.928   7.476  0.1860  0.0548 -0.0300
   27POPC   GL1  628   7.051   4.017   7.074 -0.0434 -0.0896 -0.1656
   27POPC   GL2  629   6.700   3.862   7.004 -0.2954  0.0851 -0.0290
   27POPC   C1A  630   7.121   3.941   6.693  0.1435  0.1045 -0.3245
   27POPC   D2A  631   7.392   3.828   6.275 -0.1334 -0.2651 -0.1381
   27POPC   C3A  632   7.196   3.737   5.987 -0.0385  0.6357 -0.1540
   27POPC   C4A  633   6.753   3.927   5.878  0.1378 -0.2512  0.2654
   27POPC   C1B  634   6.574   4.135   6.661  0.0150 -0.1040 -0.1438
   27POPC   C2B  635   6.521   4.024   6.286  0.0765  0.0546 -0.1431
   27POPC   C3B  636   6.092   3.868   6.119  0.3110  0.2079 -0.1519
   27POPC   C4B  637   5.851   3.604   5.789  0.1414  0.2060  0.0836
   28POPC   NC3  638   6.380   1.700   7.351  0.0843 -0.0647 -0.1300
   28POPC   PO4  639   6.685   2.070   7.315  0.0826 -0.1837  0.3382
   28POPC   GL1  640   6.642   2.183   6.910 -0.2607 -0.1855 -0.0965
   28POPC   GL2  641   6.892   2.418   6.903  0.1037 -0.0643  0.2540
   28POPC   C1A  642   6.734   1.945   6.531 -0.0824 -0.1597 -0.0693
   28POPC   D2A  643   6.787   1.721   6.076  0.1082  0.0224 -0.0944
   28POPC   C3A  644   6.695   1.838   5.745  0.0409 -0.0062 -0.0522
   28POPC   C4A  645   6.718   1.803   5.356 -0.0523 -0.3622 -0.1465
   28POPC   C1B  646   7.152   2.062   6.819 -0.3227  0.1351 -0.0747
   28POPC   C2B  647   7.176   2.056   6.325  0.1238 -0.3293  0.1853
   28POPC   C3B  648   7.249   1.921   5.935  0.0013  0.0162 -0.0433
   28POPC   C4B  649   7.107   1.619   5.679  0.2389  0.2402 -0.1913
   29POPC   NC3  650   3.831   5.526   7.030 -0.1154  0.1345  0.1677
   29POPC   PO4  651   3.819   5.977   7.177 -0.0752  0.1250  0.2647
   29POPC   GL1  652   3.770   6.228   6.904  0.4079  0.0374 -0.0418
   29POPC   GL2  653   3.465   6.228   6.772 -0.3377 -0.1653 -0.0401
   29POPC   C1A  654   3.908   6.592   6.716 -0.0051  0.2516  0.2575
   29POPC   D2A  655   3.891   6.963   6.459  0.0863  0.1171 -0.0623
   29POPC   C3A  656   3.497   7.150   6.397 -0.1821  0.2650  0.0422
   29POPC   C4A  657   3.096   7.026   6.385  0.0525  0.1717 -0.0433
   29POPC   C1B  658   3.433   5.905   6.608  0.1158  0.0944  0.1032
   29POPC   C2B  659   3.592   5.852   6.203  0.1717  0.0170 -0.2842
   29POPC   C3B  660   3.588   5.855   5.771  0.0395  0.0214 -0.2636
   29POPC   C4B  661   3.499   5.690   5.300  0.0818 -0.0917  0.1022
   30POPC   NC3  662   8.298   9.786   7.783 -0.0102 -0.1512  0.2630
   30POPC   PO4  663   8.022   9.509   7.559  0.1071  0.0783  0.3533
   30POPC   GL1  664   8.143   9.479   7.138  0.1603 -0.0575 -0.1768
   30POPC   GL2  665   8.228   9.198   7.043  0.1734  0.0295 -0.2222
   30POPC   C1A  666   8.394   9.677   6.822  0.2732 -0.1180 -0.1344
   30POPC   D2A  667   8.883   9.713   6.751  0.0516  0.1640 -0.1397
   30POPC   C3A  668   9.103   9.461   6.358  0.1216 -0.1246 -0.0467
   30POPC   C4A  669   9.342   9.355   6.011  0.1635 -0.1389 -0.0612
   30POPC   C1B  670   8.114   9.263   6.626  0.1248 -0.1141  0.1145
   30POPC   C2B  671   7.899   9.327   6.267 -0.0576 -0.2710  0.0421
   30POPC   C3B  672   8.025   9.583   5.990 -0.0954  0.1350  0.0732
   30POPC   C4B  673   8.084   9.943   5.746  0.3711 -0.0571 -0.0369
   31POPC   NC3  674   8.099   8.649   8.010  0.1853  0.1050  0.1999
   31POPC   PO4  675   8.278   8.358   7.641  0.0261 -0.2772 -0.3169
   31POPC   GL1  676   8.285   8.293   7.203  0.2188 -0.0333  0.0101
   31POPC   GL2  677   8.433   7.956   7.031  0.3656 -0.1758  0.2872
   31POPC   C1A  678   8.227   8.354   6.866 -0.1172  0.0312 -0.0549
   31POPC   D2A  679   8.196   8.322   6.365  0.0585  0.3265 -0.0713
   31POPC   C3A  680   8.580   8.649   6.312 -0.0195 -0.2081 -0.0580
   31POPC   C4A  681   8.594   8.873   5.931 -0.0971  0.1041  0.1864
   31POPC   C1B  682   8.141   7.930   6.662  0.0957 -0.0711 -0.0409
   31POPC   C2B  683   7.808   7.922   6.329  0.0733 -0.2998 -0.0110
   31POPC   C3B  684   7.715   7.795   5.877  0.0325  0.0720  0.0775
   31POPC   C4B  685   7.311   7.750   5.593  0.0236  0.0074 -0.0947
   32POPC   NC3  686   4.494  10.235   8.125  0.0134 -0.0552 -0.2488
   32POPC   PO4  687   4.798  10.068   7.767  0.1500  0.1024  0.0139
   32POPC   GL1  688   4.742  10.182   7.373 -0.0462 -0.0446 -0.1785
   32POPC   GL2  689   4.759  10.526   7.343 -0.0951 -0.0948 -0.1510
   32POPC   C1A  690   4.627  10.018   7.061 -0.1203 -0.0724 -0.0109
   32POPC   D2A  691   4.658   9.978   6.577  0.0224  0.3628 -0.1862
   32POPC   C3A  692   4.847  10.193   6.368  0.0806  0.0712 -0.1346
   32POPC   C4A  693   4.910  10.517   6.114 -0.3256 -0.3943 -0.0422
   32POPC   C1B  694   5.048  10.840   7.159 -0.0791  0.0333  0.2115
   32POPC   C2B  695   5.376  10.707   6.928 -0.4271  0.1131 -0.2503
   32POPC   C3B  696   5.823  10.778   6.906  0.3124  0.4154 -0.0561
   32POPC   C4B  697   6.108  10.561   6.691  0.2063 -0.2516  0.0401
   33POPC   NC3  698   4.999   3.997   7.431  0.1508 -0.2114 -0.2255
   33POPC   PO4  699   4.559   4.289   7.428  0.0816 -0.1357 -0.1409
   33POPC   GL1  700   4.375   4.231   7.043 -0.1821  0.2060  0.1551
   33POPC   GL2  701   4.121   4.009   7.058  0.0319  0.0098  0.1284
   33POPC   C1A  702   4.219   4.342   6.534 -0.0473  0.3923 -0.0620
   33POPC   D2A  703   4.446   4.273   6.214 -0.0054 -0.0218 -0.0158
   33POPC   C3A  704   4.733   4.590   6.027 -0.0957  0.2151  0.1110
   33POPC   C4A  705   4.799   5.005   5.790  0.1526 -0.2591  0.2556
   33POPC   C1B  706   4.290   3.856   6.567  0.0882 -0.0329  0.1569
   33POPC   C2B  707   4.230   3.773   6.119  0.0109 -0.1006 -0.0955
   33POPC   C3B  708   4.340   3.976   5.790 -0.0420  0.0627 -0.1374
   33POPC   C4B  709   4.733   4.112   5.773 -0.0965  0.1578  0.1775
   34POPC   NC3  710   4.387   7.064   7.419 -0.2161 -0.0881 -0.1521
   34POPC   PO4  711   4.910   6.961   7.464  0.3177  0.3475 -0.0548
   34POPC   GL1  712   4.774   6.978   7.058 -0.2442  0.0517  0.0623
   34POPC   GL2  713   4.672   7.259   6.919  0.0943  0.1361 -0.1270
   34POPC   C1A  714   4.911   6.926   6.601 -0.1078 -0.2002 -0.0057
   34POPC   D2A  715   5.438   6.972   6.472 -0.1333  0.1166  0.1110
   34POPC   C3A  716   5.617   7.315   6.134 -0.1305  0.0690 -0.3637
   34POPC   C4A  717   5.487   7.639   5.944 -0.0746  0.2930 -0.0926
   34POPC   C1B  718   4.280   7.220   6.697  0.0932 -0.2459 -0.0068
   34POPC   C2B  719   3.983   7.498   6.503  0.0078  0.1118 -0.2376
   34POPC   C3B  720   3.817   7.459   6.094 -0.0312 -0.1012  0.0086
   34POPC   C4B  721   3.760   7.639   5.674  0.0312 -0.1040 -0.0288
   35POPC   NC3  722   4.765   7.269   7.790  0.1117  0.2141 -0.0132
   35POPC   PO4  723   4.588   7.641   7.709 -0.3150  0.0733  0.0040
   35POPC   GL1  724   4.642   7.686   7.269  0.2272  0.2989  0.1221
   35POPC   GL2  725   4.626   8.105   7.202  0.2722 -0.0965 -0.1119
   35POPC   C1A  726   4.384   7.786   6.907 -0.4500 -0.1986 -0.1390
   35POPC   D2A  727   4.299   8.023   6.561 -0.0876  0.1367 -0.0720
   35POPC   C3A  728   3.939   8.240   6.377  0.0060 -0.1453 -0.1698
   35POPC   C4A  729   3.823   8.594   6.064  0.0957  0.2800  0.0213
   35POPC   C1B  730   4.716   8.211   6.755 -0.0681  0.5271  0.3153
   35POPC   C2B  731   5.015   7.953   6.373  0.0375  0.1297 -0.4943
   35POPC   C3B  732   5.259   8.037   5.911  0.3067  0.0572 -0.2141
   35POPC   C4B  733   5.375   8.014   5.439 -0.1778 -0.3042  0.2385
   36POPC   NC3  734   2.605   7.548   7.512 -0.0636 -0.0907 -0.2749
   36POPC   PO4  735   2.976   7.315   7.358  0.0319  0.3508 -0.0139
   36POPC   GL1  736   2.803   7.106   6.927  0.0792 -0.0988 -0.1553
   36POPC   GL2  737   2.765   6.760   6.990  0.0162  0.1247  0.1069
   36POPC   C1A  738   2.701   7.467   6.695 -0.1635  0.0593 -0.0203
   36POPC   D2A  739   2.753   7.449   6.307 -0.1290  0.1098  0.3819
   36POPC   C3A  740   3.065   7.124   5.881 -0.0255 -0.1916  0.0982
   36POPC   C4A  741   2.941   6.682   5.648  0.1734 -0.1877  0.0600
   36POPC   C1B  742   2.683   6.856   6.556  0.2979  0.1963  0.1530
   36POPC   C2B  743   2.641   6.978   6.140  0.1547  0.6220  0.1773
   36POPC   C3B  744   2.600   7.154   5.661 -0.1725 -0.2919  0.1723
   36POPC   C4B  745   2.796   7.311   5.435  0.1583 -0.1442  0.0648
   37POPC   NC3  746   4.291   6.208   7.637  0.0524 -0.0373  0.1628
   37POPC   PO4  747   4.382   6.531   7.348  0.0403 -0.3596  0.1791
   37POPC   GL1  748   4.475   6.394   6.946 -0.0868  0.0496  0.2860
   37POPC   GL2  749   4.260   6.297   6.803  0.2470  0.0264 -0.4050
   37POPC   C1A  750   4.417   6.759   6.649 -0.0921 -0.0213  0.2211
   37POPC   D2A  751   4.524   6.979   6.263  0.1244  0.1821 -0.0609
   37POPC   C3A  752   4.316   7.350   6.101  0.0018  0.1555  0.2220
   37POPC   C4A  753   4.215   7.794   6.052 -0.1222 -0.0963 -0.0933
   37POPC   C1B  754   4.246   6.198   6.432  0.3214 -0.0203  0.0500
   37POPC   C2B  755   4.163   6.552   6.150 -0.1504  0.1656  0.2543
   37POPC   C3B  756   3.766   6.810   5.988  0.2739 -0.2208  0.2378
   37POPC   C4B  757   3.554   7.094   5.866 -0.0861  0.1064 -0.1860
   38POPC   NC3  758  10.607   9.319   8.117  0.2657  0.0207 -0.1483
   38POPC   PO4  759  10.217   9.301   7.876 -0.0091 -0.2879  0.1295
   38POPC   GL1  760  10.223   9.271   7.395 -0.0628 -0.2239 -0.2262
   38POPC   GL2  761   9.988   9.553   7.321 -0.2680  0.2826 -0.4389
   38POPC   C1A  762  10.325   9.149   6.962  0.0814  0.2223  0.0034
   38POPC   D2A  763  10.511   8.949   6.625 -0.2224 -0.1186 -0.1075
   38POPC   C3A  764  10.242   8.647   6.408 -0.1095  0.1856 -0.1582
   38POPC   C4A  765   9.858   8.524   6.519 -0.4200  0.1004  0.4585
   38POPC   C1B  766   9.854   9.463   6.884  0.0924  0.1483  0.1138
   38POPC   C2B  767   9.631   9.444   6.437  0.1097 -0.0347  0.1351
   38POPC   C3B  768   9.801   9.312   6.078  0.0684  0.0879  0.0699
   38POPC   C4B  769  10.137   9.423   5.798  0.1556  0.3500 -0.0367
   39POPC   NC3  770   9.329   8.975   8.106  0.2528  0.1439  0.0662
   39POPC   PO4  771   9.058   8.683   7.906  0.0883  0.0197 -0.1814
   39POPC   GL1  772   8.945   8.730   7.513 -0.3005 -0.0962  0.1085
   39POPC   GL2  773   8.722   8.449   7.375  0.1099 -0.2066 -0.0022
   39POPC   C1A  774   9.096   8.842   7.068 -0.2034  0.0413  0.2326
   39POPC   D2A  775   8.939   8.778   6.671  0.2651 -0.1376  0.2649
   39POPC   C3A  776   9.034   8.964   6.231 -0.1637 -0.0337 -0.1517
   39POPC   C4A  777   9.071   8.940   5.773 -0.1204  0.0968 -0.1060
   39POPC   C1B  778   8.759   8.350   6.957 -0.3482 -0.1524 -0.1317
   39POPC   C2B  779   8.634   8.174   6.568  0.0231  0.2861 -0.0219
   39POPC   C3B  780   8.648   8.095   6.137 -0.0261 -0.0687  0.3347
   39POPC   C4B  781   8.496   8.344   5.858  0.4450 -0.1859 -0.0369
   40POPC   NC3  782   7.676   5.263   7.525  0.1090  0.2386 -0.6163
   40POPC   PO4  783   7.233   5.481   7.657 -0.0159  0.0749 -0.0378
   40POPC   GL1  784   7.344   5.518   7.230 -0.2593  0.0283  0.0862
   40POPC   GL2  785   7.166   5.624   7.056 -0.3139  0.1125 -0.0087
   40POPC   C1A  786   7.558   5.263   6.879 -0.0905 -0.1070  0.2215
   40POPC   D2A  787   7.428   5.325   6.517  0.2991 -0.0854  0.1174
   40POPC   C3A  788   7.723   5.436   6.240 -0.2266  0.0650 -0.0395
   40POPC   C4A  789   8.058   5.481   6.496  0.0038  0.0400 -0.2223
   40POPC   C1B  790   7.021   5.301   6.760  0.2300 -0.0170  0.2030
   40POPC   C2B  791   6.943   5.026   6.472 -0.2704 -0.0752 -0.0843
   40POPC   C3B  792   7.096   4.542   6.417  0.0528 -0.4654 -0.0299
   40POPC   C4B  793   7.038   4.168   6.190 -0.0848 -0.2065  0.2030
   41POPC   NC3  794  10.552   3.559   7.194  0.0642 -0.1588  0.4462
   41POPC   PO4  795  10.556   3.122   7.029 -0.0322 -0.0405 -0.0134
   41POPC   GL1  796  10.831   3.418   6.755  0.1276 -0.0585 -0.0124
   41POPC   GL2  797  11.114   3.345   6.904  0.0699 -0.1295 -0.0150
   41POPC   C1A  798  11.051   3.352   6.338  0.1399  0.0113  0.1538
   41POPC   D2A  799  10.896   3.392   5.864  0.1290  0.0466  0.0816
   41POPC   C3A  800  11.135   3.742   5.803 -0.1229 -0.0362 -0.2462
   41POPC   C4A  801  11.035   4.158   5.931  0.1295  0.0329 -0.2953
   41POPC   C1B  802  11.296   3.653   6.653 -0.3066  0.2002 -0.1809
   41POPC   C2B  803  11.411   3.639   6.273  0.4207 -0.0134  0.1437
   41POPC   C3B  804  11.588   3.559   6.048  0.3861  0.1637  0.1685
   41POPC   C4B  805  11.505   3.326   5.666 -0.1636 -0.2273 -0.0816
   42POPC   NC3  806   2.700   8.407   7.760 -0.2574  0.0883 -0.0216
   42POPC   PO4  807   2.333   8.457   7.323  0.1253  0.2636  0.1400
   42POPC   GL1  808   2.530   8.386   6.959 -0.1450  0.2233 -0.2034
   42POPC   GL2  809   2.898   8.364   6.967  0.5740  0.0982  0.2697
   42POPC   C1A  810   2.534   8.015   6.718  0.2340  0.0174  0.1216
   42POPC   D2A  811   2.358   7.815   6.384 -0.5931 -0.0923  0.1721
   42POPC   C3A  812   2.427   7.887   5.940  0.0253 -0.0128 -0.1150
   42POPC   C4A  813   2.758   7.654   5.805  0.1768  0.2505  0.0622
   42POPC   C1B  814   2.782   8.414   6.465 -0.2195  0.0611 -0.0004
   42POPC   C2B  815   2.722   8.274   5.995 -0.2484 -0.1767 -0.0245
   42POPC   C3B  816   2.775   8.318   5.520  0.0532  0.1232  0.1170
   42POPC   C4B  817   2.796   8.701   5.316  0.0057 -0.0285  0.0870
   43POPC   NC3  818   1.602  10.545   7.614  0.1267  0.3285  0.1151
   43POPC   PO4  819   1.564  10.211   7.545  0.0800 -0.0969 -0.0622
   43POPC   GL1  820   1.705  10.255   7.121  0.1732  0.1726  0.1284
   43POPC   GL2  821   1.701   9.997   6.893  0.0692  0.2837  0.2601
   43POPC   C1A  822   1.781  10.452   6.720 -0.0913 -0.2284 -0.0032
   43POPC   D2A  823   1.573  10.927   6.606  0.1054  0.0889  0.0055
   43POPC   C3A  824   1.281  11.148   6.481  0.2139  0.0853 -0.0618
   43POPC   C4A  825   1.026  11.542   6.433 -0.2860 -0.0313 -0.0160
   43POPC   C1B  826   1.655   9.998   6.394 -0.2132 -0.1873 -0.0076
   43POPC   C2B  827   1.639   9.827   5.954 -0.0268 -0.0200 -0.0615
   43POPC   C3B  828   1.431   9.519   5.758  0.5125 -0.2150  0.0316
   43POPC   C4B  829   1.392   9.225   5.468  0.1610  0.0281  0.1132
   44POPC   NC3  830   7.528   9.242   7.784 -0.0878 -0.1710 -0.1046
   44POPC   PO4  831   7.392   9.541   7.475  0.0902  0.1086 -0.1457
   44POPC   GL1  832   7.323   9.697   7.081 -0.0995  0.0763 -0.1263
   44POPC   GL2  833   7.692   9.521   6.996 -0.0878  0.1039  0.2603
   44POPC   C1A  834   7.131   9.688   6.759  0.1557  0.1562 -0.1216
   44POPC   D2A  835   7.067   9.752   6.360 -0.1237  0.2569 -0.0993
   44POPC   C3A  836   7.008   9.868   5.936  0.0660 -0.3905  0.0753
   44POPC   C4A  837   7.198  10.299   5.818 -0.1181 -0.0825  0.2216
   44POPC   C1B  838   7.397   9.299   6.656  0.0837  0.3103  0.1299
   44POPC   C2B  839   7.395   9.394   6.256 -0.0357  0.0950  0.2169
   44POPC   C3B  840   7.450   9.436   5.870 -0.1465 -0.1376 -0.0710
   44POPC   C4B  841   7.454   9.729   5.513 -0.0561 -0.0344  0.2302
   45POPC   NC3  842   9.379   7.519   7.982 -0.3142 -0.0223  0.0172
   45POPC   PO4  843   9.552   7.500   7.700  0.1424  0.1591 -0.2825
   45POPC   GL1  844   9.328   7.508   7.326 -0.0142 -0.1496 -0.0694
   45POPC   GL2  845   9.009   7.364   7.155 -0.0455 -0.1309  0.3268
   45POPC   C1A  846   9.381   7.714   6.986  0.3540 -0.1382 -0.0495
   45POPC   D2A  847   9.128   7.904   6.655  0.3054 -0.1267 -0.1738
   45POPC   C3A  848   8.992   7.694   6.319  0.2044  0.1517 -0.2074
   45POPC   C4A  849   9.038   7.483   5.868  0.0953 -0.1339  0.2420
   45POPC   C1B  850   8.770   7.571   6.830 -0.1725 -0.3227 -0.1900
   45POPC   C2B  851   8.562   7.674   6.538  0.1160 -0.2193  0.0287
   45POPC   C3B  852   8.519   7.371   6.232  0.2084  0.1548  0.3145
   45POPC   C4B  853   8.480   7.100   5.882 -0.2591 -0.0876  0.3449
   46POPC   NC3  854   3.791   0.887   7.573  0.1273 -0.1553 -0.4535
   46POPC   PO4  855   4.033   0.506   7.571 -0.1487  0.0633 -0.1253
   46POPC   GL1  856   4.073   0.527   7.195  0.0486 -0.0005  0.1414
   46POPC   GL2  857   4.339   0.379   7.100  0.0985  0.4662 -0.2285
   46POPC   C1A  858   4.100   0.648   6.742 -0.0407  0.1323  0.0276
   46POPC   D2A  859   4.269   0.951   6.461 -0.1687  0.2310 -0.1226
   46POPC   C3A  860   4.212   0.826   6.023 -0.1364 -0.1720  0.0524
   46POPC   C4A  861   4.218   0.883   5.577  0.0307 -0.2845  0.0240
   46POPC   C1B  862   4.240   0.187   6.573  0.0145 -0.2063 -0.0053
   46POPC   C2B  863   3.998   0.479   6.318 -0.0761  0.0899  0.2699
   46POPC   C3B  864   3.681   0.449   6.130  0.4139  0.1271  0.2888
   46POPC   C4B  865   3.601   0.117   5.799  0.1173  0.0187 -0.3320
   47POPC   NC3  866   2.936   5.911   7.444  0.0743  0.2654 -0.0680
   47POPC   PO4  867   2.468   5.815   7.431 -0.2093  0.0617  0.2154
   47POPC   GL1  868   2.691   5.723   6.988  0.0146  0.0643 -0.2694
   47POPC   GL2  869   2.346   5.692   6.946 -0.1149  0.3307  0.1069
   47POPC   C1A  870   2.886   5.723   6.663  0.0412 -0.0130  0.2106
   47POPC   D2A  871   3.102   6.094   6.362  0.0593  0.1343 -0.0087
   47POPC   C3A  872   3.111   6.098   5.892  0.1970  0.3798 -0.0469
   47POPC   C4A  873   2.875   6.131   5.524 -0.0296  0.2083 -0.0182
   47POPC   C1B  874   2.356   5.801   6.533  0.2179 -0.1268  0.0554
   47POPC   C2B  875   2.213   5.841   6.102 -0.0162 -0.0530 -0.0879
   47POPC   C3B  876   2.091   5.879   5.706  0.0226  0.0659  0.1101
   47POPC   C4B  877   1.822   5.795   5.330  0.0243  0.0160 -0.0852
   48POPC   NC3  878   0.174   6.503   6.985  0.1714  0.0837 -0.1923
   48POPC   PO4  879  -0.231   6.319   7.216  0.0951 -0.0407 -0.1036
   48POPC   GL1  880  -0.539   6.027   6.986 -0.0228 -0.1515 -0.2533
   48POPC   GL2  881  -0.795   5.994   6.805 -0.0585 -0.1713 -0.1340
   48POPC   C1A  882  -0.289   5.864   6.708 -0.1710 -0.4920 -0.0971
   48POPC   D2A  883  -0.080   5.677   6.364  0.0279  0.1080 -0.1429
   48POPC   C3A  884  -0.375   5.592   6.088 -0.0766  0.2114  0.1408
   48POPC   C4A  885  -0.579   5.515   5.745 -0.1158 -0.0759 -0.2256
   48POPC   C1B  886  -1.141   6.038   6.559 -0.3600  0.0915 -0.2054
   48POPC   C2B  887  -1.347   6.165   6.144 -0.0314 -0.1626  0.3065
   48POPC   C3B  888  -1.304   6.124   5.694 -0.5916  0.0401  0.0232
   48POPC   C4B  889  -1.189   6.124   5.290  0.2954 -0.2124  0.1653
   49POPC   NC3  890   2.041   8.894   7.288  0.5384 -0.0440 -0.2236
   49POPC   PO4  891   2.406   9.041   7.330  0.1642 -0.1637  0.1603
   49POPC   GL1  892   2.309   9.195   6.975  0.5598 -0.1518 -0.1451
   49POPC   GL2  893   2.364   9.598   7.043  0.0683  0.0439 -0.0325
   49POPC   C1A  894   2.532   9.300   6.692  0.1268 -0.1084  0.0122
   49POPC   D2A  895   2.921   9.202   6.459 -0.0715 -0.0781  0.0056
   49POPC   C3A  896   2.911   8.824   6.173 -0.2940 -0.1272 -0.1961
   49POPC   C4A  897   2.486   8.733   6.215  0.0891 -0.2193 -0.1149
   49POPC   C1B  898   2.526   9.846   6.952  0.3701  0.0839  0.1104
   49POPC   C2B  899   2.721  10.146   6.760 -0.0261  0.1886  0.2502
   49POPC   C3B  900   2.809  10.102   6.364 -0.1025 -0.0191  0.3241
   49POPC   C4B  901   2.846  10.059   5.892 -0.0655 -0.3753 -0.0506
   50POPC   NC3  902   2.695   5.106   7.617 -0.4170  0.0947  0.1531
   50POPC   PO4  903   2.687   4.889   7.230  0.0322  0.0600 -0.1482
   50POPC   GL1  904   2.875   4.704   6.868 -0.0120 -0.1355  0.0362
   50POPC   GL2  905   2.571   4.783   6.503  0.2916 -0.1845  0.1210
   50POPC   C1A  906   3.252   4.522   6.608  0.1245 -0.0555 -0.0638
   50POPC   D2A  907   3.416   4.287   6.252  0.0204  0.1817  0.1517
   50POPC   C3A  908   3.208   4.251   5.877 -0.0127  0.1733 -0.2832
   50POPC   C4A  909   3.298   4.087   5.497  0.1291 -0.1287 -0.0355
   50POPC   C1B  910   2.472   4.445   6.398  0.1991  0.0010  0.0813
   50POPC   C2B  911   2.516   4.300   6.034  0.1950 -0.0544  0.3833
   50POPC   C3B  912   2.393   4.558   5.623 -0.2462  0.2176  0.0775
   50POPC   C4B  913   2.144   4.923   5.463 -0.0791 -0.2509  0.4062
   51POPC   NC3  914   5.319   9.330   7.514  0.0017 -0.1625  0.0491
   51POPC   PO4  915   4.899   9.152   7.542 -0.0890  0.4343 -0.0526
   51POPC   GL1  916   5.092   9.015   7.184 -0.1669  0.0469 -0.1751
   51POPC   GL2  917   5.322   8.811   7.257  0.1087 -0.0878  0.2940
   51POPC   C1A  918   5.129   8.661   6.840  0.0525 -0.0052 -0.1307
   51POPC   D2A  919   5.288   8.328   6.685 -0.1870  0.0265 -0.0975
   51POPC   C3A  920   5.475   8.265   6.337  0.1049  0.1133  0.0489
   51POPC   C4A  921   5.763   8.024   6.105  0.0808 -0.3053 -0.0564
   51POPC   C1B  922   5.497   8.996   6.851  0.1852 -0.0419  0.0073
   51POPC   C2B  923   5.566   9.340   6.575 -0.0061 -0.4347 -0.2206
   51POPC   C3B  924   6.014   9.504   6.348 -0.0575 -0.1338 -0.0085
   51POPC   C4B  925   6.064   9.635   6.026 -0.2373 -0.0155 -0.1735
   52POPC   NC3  926   9.079   1.388   7.522 -0.2446 -0.0337 -0.0767
   52POPC   PO4  927   9.175   0.955   7.420  0.0914 -0.1695  0.1701
   52POPC   GL1  928   8.782   0.913   7.154  0.0753 -0.1006  0.1029
   52POPC   GL2  929   8.487   0.978   7.162 -0.0960 -0.0664  0.4053
   52POPC   C1A  930   8.668   0.705   6.763 -0.2181  0.0462  0.0348
   52POPC   D2A  931   8.579   0.539   6.352  0.0361 -0.4214  0.1232
   52POPC   C3A  932   8.681   0.375   5.906 -0.3406 -0.1586  0.0339
   52POPC   C4A  933   9.069   0.276   5.676 -0.1020  0.0053  0.3095
   52POPC   C1B  934   8.350   1.160   6.773  0.0938  0.1511  0.1031
   52POPC   C2B  935   8.247   0.850   6.463 -0.0590 -0.1058 -0.2095
   52POPC   C3B  936   8.233   0.763   5.983  0.1460  0.7595  0.0197
   52POPC   C4B  937   8.646   0.919   5.757 -0.1303  0.0366 -0.2468
   53POPC   NC3  938   7.397   5.940   7.502  0.2233  0.0025 -0.1762
   53POPC   PO4  939   7.705   5.790   7.575 -0.1988 -0.3456 -0.1305
   53POPC   GL1  940   7.799   5.675   7.208 -0.0577 -0.1162  0.2992
   53POPC   GL2  941   7.986   5.507   7.134 -0.0846 -0.0057 -0.1564
   53POPC   C1A  942   7.592   5.748   6.799  0.0192 -0.0694 -0.2724
   53POPC   D2A  943   7.221   5.773   6.570 -0.5590 -0.0762 -0.0044
   53POPC   C3A  944   7.378   5.713   6.039  0.2322 -0.0901  0.2249
   53POPC   C4A  945   7.394   5.392   5.670 -0.0109  0.2200  0.1013
   53POPC   C1B  946   8.324   5.255   6.873  0.0506  0.2901 -0.2558
   53POPC   C2B  947   8.644   5.045   6.645  0.0295  0.0063 -0.2067
   53POPC   C3B  948   8.850   4.936   6.278 -0.1746  0.2401  0.1205
   53POPC   C4B  949   8.676   4.778   5.888  0.1744  0.5863  0.3357
   54POPC   NC3  950   0.929   4.804   6.958  0.1959 -0.0360  0.0295
   54POPC   PO4  951   0.521   5.147   7.005 -0.1163  0.2104  0.2677
   54POPC   GL1  952   0.619   5.030   6.591 -0.0766 -0.0955 -0.1827
   54POPC   GL2  953   0.683   5.337   6.545  0.2561  0.0566  0.0704
   54POPC   C1A  954   0.765   5.033   6.142 -0.0290  0.3143  0.1124
   54POPC   D2A  955   0.749   4.764   5.778 -0.1882  0.0036 -0.2776
   54POPC   C3A  956   0.796   4.681   5.377 -0.1675 -0.0587 -0.1471
   54POPC   C4A  957   0.687   4.598   4.956 -0.2161 -0.0322 -0.2905
   54POPC   C1B  958   0.448   5.747   6.340 -0.0372  0.2194 -0.1432
   54POPC   C2B  959   0.224   5.795   5.965 -0.2360  0.2818 -0.1599
   54POPC   C3B  960  -0.154   5.786   5.638 -0.1396 -0.0970  0.1937
   54POPC   C4B  961  -0.288   6.036   5.236 -0.0988 -0.0648  0.2568
   55POPC   NC3  962   5.303   5.675   7.239  0.0603  0.1305  0.0355
   55POPC   PO4  963   4.851   5.557   7.315  0.1484  0.5085  0.1733
   55POPC   GL1  964   4.916   5.787   6.914  0.1210 -0.1949  0.1464
   55POPC   GL2  965   4.856   6.084   6.772  0.0762  0.2508  0.0874
   55POPC   C1A  966   4.639   5.757   6.462 -0.0909  0.1381 -0.3028
   55POPC   D2A  967   4.588   5.925   6.037  0.5225  0.0231 -0.3512
   55POPC   C3A  968   4.302   6.156   5.716 -0.2029 -0.0480  0.2601
   55POPC   C4A  969   4.034   6.481   5.675 -0.1105 -0.0583 -0.2454
   55POPC   C1B  970   4.752   6.336   6.455  0.0994  0.0929 -0.0902
   55POPC   C2B  971   4.614   6.460   5.991  0.0099 -0.0781  0.1268
   55POPC   C3B  972   4.474   6.741   5.773  0.0354 -0.2320  0.0987
   55POPC   C4B  973   4.327   6.741   5.317 -0.1474 -0.1792 -0.0957
   56POPC   NC3  974   7.628   1.836   7.811  0.0807 -0.1475 -0.0877
   56POPC   PO4  975   7.865   2.198   7.735  0.2266 -0.0395  0.1744
   56POPC   GL1  976   7.666   2.075   7.337  0.0714 -0.1440 -0.4367
   56POPC   GL2  977   7.644   1.726   7.315  0.1040 -0.2209  0.2545
   56POPC   C1A  978   7.663   2.058   6.962 -0.0144  0.0913 -0.0704
   56POPC   D2A  979   7.649   1.959   6.587 -0.3772 -0.3181  0.0404
   56POPC   C3A  980   7.680   2.168   6.255 -0.1049  0.1492 -0.1209
   56POPC   C4A  981   7.850   2.242   5.802 -0.0777  0.0450  0.0573
   56POPC   C1B  982   7.772   1.516   6.917  0.1966  0.1768  0.0887
   56POPC   C2B  983   7.883   1.222   6.642 -0.2309  0.0040  0.0230
   56POPC   C3B  984   7.844   1.096   6.259  0.0589  0.2603  0.2014
   56POPC   C4B  985   7.719   0.734   6.105  0.2289  0.2668  0.1254
   57POPC   NC3  986   3.430   4.385   7.946  0.0960 -0.1338 -0.2331
   57POPC   PO4  987   3.396   4.400   7.509  0.0081  0.1422 -0.1954
   57POPC   GL1  988   3.589   4.382   7.007  0.1191 -0.3553  0.1800
   57POPC   GL2  989   3.887   4.507   6.955  0.1691  0.0770 -0.1006
   57POPC   C1A  990   3.689   4.100   6.625 -0.1056  0.0111  0.2729
   57POPC   D2A  991   3.885   4.133   6.204 -0.0488 -0.3248 -0.1391
   57POPC   C3A  992   3.691   4.325   5.832 -0.1668  0.0674 -0.0638
   57POPC   C4A  993   3.783   4.291   5.444 -0.1001  0.1166  0.0299
   57POPC   C1B  994   3.816   4.617   6.501 -0.0829 -0.0198  0.3897
   57POPC   C2B  995   3.838   4.677   6.136  0.1559  0.0279 -0.1302
   57POPC   C3B  996   4.177   4.457   5.774 -0.2094 -0.0546 -0.1402
   57POPC   C4B  997   4.351   4.677   5.670 -0.0428 -0.2763  0.1569
   58POPC   NC3  998   9.898   6.152   7.222 -0.1584 -0.1815  0.1380
   58POPC   PO4  999   9.509   6.059   7.420  0.3297  0.0126 -0.0179
   58POPC   GL1 1000   9.448   6.320   7.077 -0.2569  0.2928  0.0805
   58POPC   GL2 1001   9.444   5.912   6.949  0.0849 -0.2879 -0.1077
   58POPC   C1A 1002   9.708   6.520   6.685  0.0476 -0.1688 -0.1875
   58POPC   D2A 1003   9.766   6.627   6.328  0.0490  0.2630 -0.0066
   58POPC   C3A 1004   9.375   6.699   6.146 -0.3512 -0.1467 -0.3213
   58POPC   C4A 1005   8.921   6.866   6.039  0.0918 -0.1020  0.2513
   58POPC   C1B 1006   9.198   5.802   6.597  0.0451 -0.1650  0.1781
   58POPC   C2B 1007   9.048   5.970   6.202  0.3760 -0.0667  0.1456
   58POPC   C3B 1008   8.773   5.990   5.905  0.1862  0.5358  0.1326
   58POPC   C4B 1009   8.277   6.087   5.820 -0.2246 -0.0201  0.0756
   59POPC   NC3 1010   0.701   0.083   7.472 -0.0264 -0.0512  0.0599
   59POPC   PO4 1011   0.805  -0.113   7.814  0.1040 -0.0344 -0.0274
   59POPC   GL1 1012   0.663  -0.421   7.520  0.1912  0.0786  0.0900
   59POPC   GL2 1013   0.743  -0.297   7.176 -0.0764 -0.0142  0.0382
   59POPC   C1A 1014   0.776  -0.761   7.387 -0.1944  0.0124  0.0650
   59POPC   D2A 1015   0.648  -1.146   7.217  0.0950  0.0293  0.1154
   59POPC   C3A 1016   0.841  -1.325   6.902 -0.0707  0.0363 -0.2987
   59POPC   C4A 1017   0.994  -1.166   6.580  0.0022  0.1730  0.0480
   59POPC   C1B 1018   0.566  -0.337   6.735 -0.1334 -0.0879  0.0875
   59POPC   C2B 1019   0.484  -0.125   6.411  0.2528  0.3040  0.2685
   59POPC   C3B 1020   0.384   0.008   6.061  0.0346 -0.0783 -0.0164
   59POPC   C4B 1021   0.118  -0.046   5.634  0.0598 -0.0902 -0.0307
   60POPC   NC3 1022  10.454   2.312   7.353  0.1844 -0.0123 -0.1672
   60POPC   PO4 1023  10.238   2.144   7.627  0.1470 -0.1170 -0.0491
   60POPC   GL1 1024  10.324   1.777   7.359  0.0686  0.1832 -0.3333
   60POPC   GL2 1025  10.472   1.444   7.500  0.1583 -0.1659  0.0239
   60POPC   C1A 1026  10.395   1.604   6.864 -0.2466 -0.0957  0.0052
   60POPC   D2A 1027  10.407   1.276   6.679 -0.0340 -0.0033  0.0943
   60POPC   C3A 1028  10.692   0.982   6.712  0.0079  0.0859 -0.2313
   60POPC   C4A 1029  10.631   0.540   6.821  0.1198  0.2335  0.2943
   60POPC   C1B 1030  10.640   1.262   7.165 -0.2018 -0.0482  0.1085
   60POPC   C2B 1031  10.873   1.429   6.781 -0.1566 -0.0461 -0.1597
   60POPC   C3B 1032  11.064   1.810   6.660 -0.2162  0.0157 -0.3854
   60POPC   C4B 1033  11.277   2.146   6.390  0.1616  0.0119  0.2344
   61POPC   NC3 1034   4.952   6.484   7.161  0.1112 -0.0359 -0.0481
   61POPC   PO4 1035   5.415   6.252   7.133 -0.0799  0.0874  0.0904
   61POPC   GL1 1036   5.554   6.348   6.763  0.0525  0.2819  0.1524
   61POPC   GL2 1037   5.871   6.103   6.655 -0.1400  0.0369  0.2180
   61POPC   C1A 1038   5.280   6.492   6.524  0.1005 -0.1248 -0.1269
   61POPC   D2A 1039   5.014   6.757   6.159 -0.0114  0.1219 -0.3315
   61POPC   C3A 1040   5.064   6.793   5.742 -0.0744 -0.1820  0.2078
   61POPC   C4A 1041   4.831   6.780   5.375  0.2231  0.1607 -0.2497
   61POPC   C1B 1042   5.638   6.206   6.313 -0.0871 -0.0605  0.2026
   61POPC   C2B 1043   5.571   6.545   5.994  0.0445 -0.0581 -0.1967
   61POPC   C3B 1044   5.618   6.906   5.781 -0.3095 -0.0752  0.0690
   61POPC   C4B 1045   5.846   7.173   5.434  0.1348 -0.0228 -0.0666
   62POPC   NC3 1046   0.569   7.464   7.416  0.0885 -0.3593  0.1391
   62POPC   PO4 1047   0.357   7.358   7.127 -0.0170  0.2125 -0.0654
   62POPC   GL1 1048   0.427   7.432   6.681  0.1080  0.4193  0.1839
   62POPC   GL2 1049   0.688   7.153   6.580 -0.1210  0.1467 -0.1629
   62POPC   C1A 1050   0.245   7.560   6.179 -0.1107 -0.2430  0.0487
   62POPC   D2A 1051   0.042   7.795   5.858  0.5051  0.0651  0.0268
   62POPC   C3A 1052   0.247   7.916   5.448 -0.1903  0.0738 -0.1467
   62POPC   C4A 1053   0.639   8.180   5.221 -0.1325  0.1978  0.1701
   62POPC   C1B 1054   0.829   7.426   6.239  0.1408  0.0846 -0.0559
   62POPC   C2B 1055   0.788   7.255   5.854  0.2935  0.2275  0.0755
   62POPC   C3B 1056   0.832   7.085   5.385  0.2343  0.3054 -0.5702
   62POPC   C4B 1057   0.680   7.123   4.965  0.3403  0.0169  0.2755
   63POPC   NC3 1058   5.986   5.358   7.739 -0.1799 -0.1008  0.0641
   63POPC   PO4 1059   5.621   5.458   7.532  0.0992  0.0315 -0.0367
   63POPC   GL1 1060   5.695   5.377   7.082 -0.0173 -0.1035  0.0406
   63POPC   GL2 1061   5.538   5.418   6.774 -0.2601 -0.1385  0.1303
   63POPC   C1A 1062   5.854   5.121   6.673 -0.1625 -0.1400  0.1255
   63POPC   D2A 1063   5.556   5.116   6.288 -0.1085 -0.0982  0.0229
   63POPC   C3A 1064   5.398   5.540   6.157 -0.2892  0.1419 -0.2304
   63POPC   C4A 1065   5.310   5.854   5.815 -0.0545 -0.3279 -0.0324
   63POPC   C1B 1066   5.788   5.650   6.556 -0.0204  0.0008  0.2708
   63POPC   C2B 1067   5.992   5.409   6.230 -0.0866 -0.2007 -0.2884
   63POPC   C3B 1068   6.375   5.493   6.068 -0.1936  0.1867  0.0391
   63POPC   C4B 1069   6.809   5.621   5.711 -0.2866  0.2074  0.0904
   64POPC   NC3 1070   5.208   5.156   7.372  0.1070 -0.1837 -0.1619
   64POPC   PO4 1071   5.540   4.882   7.435 -0.0281 -0.1447  0.0637
   64POPC   GL1 1072   5.482   4.745   7.091 -0.1674  0.1574  0.1598
   64POPC   GL2 1073   5.207   4.701   6.845  0.1902 -0.1190 -0.3688
   64POPC   C1A 1074   5.623   4.650   6.599 -0.1112 -0.0749  0.1596
   64POPC   D2A 1075   5.672   4.643   6.104 -0.0305  0.1589 -0.0888
   64POPC   C3A 1076   5.351   4.514   5.899  0.0113 -0.0146  0.2803
   64POPC   C4A 1077   5.219   4.854   5.567  0.0961  0.1212 -0.1377
   64POPC   C1B 1078   5.276   5.041   6.684 -0.1062 -0.0928 -0.3463
   64POPC   C2B 1079   5.063   5.419   6.463 -0.1802  0.0300 -0.0464
   64POPC   C3B 1080   5.087   5.935   6.256 -0.0896  0.1516 -0.1212
   64POPC   C4B 1081   5.057   6.289   6.003  0.1027  0.1368 -0.2565
   65POPC   NC3 1082   1.824   1.127   7.600  0.1544  0.1397 -0.0289
   65POPC   PO4 1083   1.857   0.674   7.502 -0.0202 -0.4544 -0.1329
   65POPC   GL1 1084   1.864   0.773   7.146 -0.0144 -0.1305 -0.1446
   65POPC   GL2 1085   2.146   0.971   7.106 -0.0334  0.0519  0.0916
   65POPC   C1A 1086   1.817   0.477   6.803  0.1332 -0.1016  0.1943
   65POPC   D2A 1087   1.955   0.369   6.441  0.0469  0.3152 -0.0446
   65POPC   C3A 1088   1.699   0.334   6.151 -0.3799  0.0892  0.2689
   65POPC   C4A 1089   1.602   0.302   5.743 -0.2441  0.2262  0.0242
   65POPC   C1B 1090   2.275   0.617   6.898 -0.0831  0.0862 -0.0155
   65POPC   C2B 1091   2.428   0.705   6.602  0.2910  0.0056  0.0376
   65POPC   C3B 1092   2.422   0.604   6.140  0.1757  0.0376 -0.0210
   65POPC   C4B 1093   2.422   0.870   5.770 -0.1607 -0.1871  0.0033
   66POPC   NC3 1094  10.183   4.918   7.490 -0.1791 -0.0395 -0.0349
   66POPC   PO4 1095  10.612   4.740   7.448 -0.0750 -0.0833  0.0589
   66POPC   GL1 1096  10.495   5.142   7.151 -0.2111 -0.1011 -0.4466
   66POPC   GL2 1097  10.742   5.429   7.058 -0.0302  0.0470 -0.0591
   66POPC   C1A 1098  10.291   5.480   6.940  0.2162  0.0907 -0.2837
   66POPC   D2A 1099   9.907   5.422   6.756  0.1267 -0.1120 -0.1327
   66POPC   C3A 1100   9.775   5.404   6.373 -0.1797 -0.0763 -0.0747
   66POPC   C4A 1101   9.514   5.672   6.185 -0.2687 -0.1180 -0.1404
   66POPC   C1B 1102  10.614   5.350   6.614 -0.0314 -0.0890 -0.0880
   66POPC   C2B 1103  10.232   5.583   6.425  0.2834 -0.1309  0.1370
   66POPC   C3B 1104  10.048   5.767   6.006 -0.3669 -0.2275 -0.3273
   66POPC   C4B 1105   9.762   5.608   5.725  0.1062  0.1707  0.1418
   67POPC   NC3 1106   4.689   0.581   7.459  0.2089 -0.0109  0.1693
   67POPC   PO4 1107   5.113   0.625   7.476  0.0041  0.1587 -0.0658
   67POPC   GL1 1108   5.327   0.363   7.179  0.0989 -0.0638 -0.1943
   67POPC   GL2 1109   5.728   0.235   7.205 -0.0442 -0.1281  0.1665
   67POPC   C1A 1110   5.469   0.197   6.740 -0.2050  0.0616 -0.1536
   67POPC   D2A 1111   5.684   0.332   6.418 -0.1752  0.5100 -0.2066
   67POPC   C3A 1112   5.665   0.089   5.981  0.0835  0.2098 -0.0267
   67POPC   C4A 1113   5.883  -0.133   5.678 -0.1012  0.3677 -0.0984
   67POPC   C1B 1114   5.871   0.512   6.953  0.0577  0.1199  0.0104
   67POPC   C2B 1115   6.057   0.547   6.506 -0.3017 -0.2869 -0.1061
   67POPC   C3B 1116   5.933   0.590   6.051 -0.0099 -0.0088  0.4031
   67POPC   C4B 1117   6.085   0.298   5.763 -0.0553 -0.5691 -0.2308
   68POPC   NC3 1118   2.124   4.469   7.292 -0.2417  0.4553 -0.1797
   68POPC   PO4 1119   1.720   4.329   7.228  0.4317  0.0015  0.0345
   68POPC   GL1 1120   1.814   4.678   6.996 -0.1790 -0.0112 -0.2772
   68POPC   GL2 1121   1.813   4.479   6.684  0.0072  0.0942  0.0431
   68POPC   C1A 1122   1.540   4.963   6.699 -0.2076  0.0699  0.1830
   68POPC   D2A 1123   1.564   5.144   6.284  0.0996  0.0030 -0.0480
   68POPC   C3A 1124   1.065   5.388   6.266 -0.0407  0.1854  0.0241
   68POPC   C4A 1125   0.695   5.498   5.884  0.0116 -0.2887  0.2687
   68POPC   C1B 1126   1.665   4.471   6.276 -0.0778 -0.0497 -0.1272
   68POPC   C2B 1127   1.543   4.607   5.903 -0.1501 -0.2092 -0.0411
   68POPC   C3B 1128   1.321   4.740   5.505 -0.1027  0.0115  0.0539
   68POPC   C4B 1129   1.090   5.133   5.446 -0.3981  0.1304  0.0689
   69POPC   NC3 1130  10.552   9.994   8.277  0.1048  0.1605 -0.0584
   69POPC   PO4 1131  10.763   9.764   8.042 -0.0111  0.2289  0.2004
   69POPC   GL1 1132  10.972   9.923   7.629  0.0967 -0.0407  0.2706
   69POPC   GL2 1133  11.138  10.197   7.692  0.1970 -0.2619  0.0574
   69POPC   C1A 1134  10.936   9.689   7.244  0.4980  0.0977  0.1219
   69POPC   D2A 1135  10.738   9.575   6.799 -0.0164 -0.0562  0.0787
   69POPC   C3A 1136  10.910   9.279   6.644 -0.1831 -0.1568  0.1593
   69POPC   C4A 1137  10.958   9.284   6.144  0.2831 -0.1124 -0.3295
   69POPC   C1B 1138  11.109  10.208   7.182 -0.3819 -0.0138 -0.2784
   69POPC   C2B 1139  10.860  10.033   6.787  0.2366  0.0719 -0.0540
   69POPC   C3B 1140  10.956   9.771   6.366 -0.3093 -0.0055  0.2021
   69POPC   C4B 1141  11.148   9.933   5.962  0.3466  0.3758 -0.0947
   70POPC   NC3 1142   7.075   1.546   8.114  0.0770  0.4245 -0.2449
   70POPC   PO4 1143   7.292   1.525   7.866  0.2632  0.0353 -0.3118
   70POPC   GL1 1144   7.283   1.330   7.428  0.0823 -0.2199  0.6444
   70POPC   GL2 1145   7.547   1.169   7.313 -0.4614  0.1797 -0.0997
   70POPC   C1A 1146   7.209   1.557   7.002 -0.0031  0.0158 -0.0683
   70POPC   D2A 1147   7.075   1.628   6.569 -0.1375  0.3198 -0.1023
   70POPC   C3A 1148   6.988   1.319   6.216  0.2165 -0.0510  0.1884
   70POPC   C4A 1149   6.721   0.973   6.126 -0.3893 -0.1639 -0.2079
   70POPC   C1B 1150   7.421   1.103   6.906 -0.0903 -0.1419 -0.2624
   70POPC   C2B 1151   7.436   1.258   6.521 -0.0746  0.2875 -0.0743
   70POPC   C3B 1152   7.461   1.498   6.216  0.5968 -0.0158 -0.1910
   70POPC   C4B 1153   7.815   1.770   6.039 -0.0863  0.2325 -0.2995
   71POPC   NC3 1154   1.589   3.822   7.602  0.0099 -0.0176 -0.1541
   71POPC   PO4 1155   1.747   3.466   7.395 -0.1700 -0.2551  0.2539
   71POPC   GL1 1156   1.773   3.493   6.863  0.0485 -0.1288  0.5127
   71POPC   GL2 1157   1.674   3.366   6.657 -0.0553  0.0931 -0.3246
   71POPC   C1A 1158   2.169   3.624   6.686 -0.0465  0.0794  0.1327
   71POPC   D2A 1159   2.422   3.765   6.369 -0.0772  0.0209  0.0901
   71POPC   C3A 1160   2.443   3.720   6.011 -0.2755 -0.1252 -0.2648
   71POPC   C4A 1161   2.607   3.537   5.614  0.2858  0.2059  0.3114
   71POPC   C1B 1162   1.501   3.339   6.152 -0.1919  0.2738  0.0519
   71POPC   C2B 1163   1.611   3.320   5.743  0.0451 -0.0206  0.0096
   71POPC   C3B 1164   1.443   3.347   5.254 -0.1871  0.2343 -0.2511
   71POPC   C4B 1165   1.369   2.890   5.111 -0.0544 -0.0671 -0.2085
   72POPC   NC3 1166   6.494   9.511   7.468 -0.0783  0.2603 -0.0963
   72POPC   PO4 1167   6.892   9.530   7.278 -0.0826 -0.2359  0.0788
   72POPC   GL1 1168   6.622   9.486   6.994 -0.2032 -0.0063  0.1909
   72POPC   GL2 1169   6.645   9.720   6.678  0.0626  0.0962 -0.1281
   72POPC   C1A 1170   6.414   9.306   6.747 -0.0443  0.3241  0.2370
   72POPC   D2A 1171   6.466   9.371   6.288 -0.1587 -0.0780 -0.0739
   72POPC   C3A 1172   6.575   9.707   5.973  0.1830 -0.2156 -0.2119
   72POPC   C4A 1173   6.757   9.712   5.445 -0.0880 -0.0242 -0.0293
   72POPC   C1B 1174   6.554   9.979   6.390 -0.0937  0.0272  0.0185
   72POPC   C2B 1175   6.315  10.141   6.040 -0.1460 -0.2502  0.0777
   72POPC   C3B 1176   6.304  10.436   5.775 -0.2537  0.0691 -0.2584
   72POPC   C4B 1177   6.316  10.620   5.372  0.1116 -0.0704 -0.3288
   73POPC   NC3 1178   6.543   5.515   7.593 -0.3789  0.4647  0.3224
   73POPC   PO4 1179   6.413   5.941   7.301  0.1702  0.0603 -0.1123
   73POPC   GL1 1180   6.223   5.864   6.874 -0.0495  0.1794 -0.3147
   73POPC   GL2 1181   6.160   5.498   6.806 -0.0711 -0.0875  0.1393
   73POPC   C1A 1182   6.224   5.876   6.440 -0.3357  0.0277  0.2202
   73POPC   D2A 1183   6.064   6.004   6.170  0.0676  0.0116  0.1418
   73POPC   C3A 1184   5.776   5.842   5.988  0.0959 -0.6152  0.1730
   73POPC   C4A 1185   5.667   5.462   5.713 -0.0980  0.0976  0.1039
   73POPC   C1B 1186   6.354   5.135   6.594  0.1270 -0.1473 -0.0015
   73POPC   C2B 1187   6.488   5.041   6.200 -0.0586 -0.0627 -0.0120
   73POPC   C3B 1188   6.649   5.172   5.790 -0.0142 -0.0819  0.1282
   73POPC   C4B 1189   6.659   5.125   5.376 -0.1013  0.0506 -0.2216
   74POPC   NC3 1190   6.468   1.188   7.627  0.3829 -0.0010 -0.1766
   74POPC   PO4 1191   6.862   1.088   7.377  0.1606  0.1909  0.1545
   74POPC   GL1 1192   6.475   1.133   7.014  0.0327  0.4264 -0.2056
   74POPC   GL2 1193   6.259   1.204   7.156  0.1480 -0.1418 -0.0094
   74POPC   C1A 1194   6.315   0.992   6.626 -0.1391  0.0792 -0.1579
   74POPC   D2A 1195   6.195   1.154   6.261  0.2787  0.1975 -0.2584
   74POPC   C3A 1196   6.264   1.580   6.054  0.0039 -0.1718  0.0055
   74POPC   C4A 1197   6.141   1.918   5.812  0.1956 -0.2604  0.0626
   74POPC   C1B 1198   5.879   1.155   6.867 -0.3524  0.2710  0.1179
   74POPC   C2B 1199   5.790   0.973   6.543 -0.1797  0.1025  0.0552
   74POPC   C3B 1200   5.722   1.138   6.124  0.1159  0.2960 -0.2160
   74POPC   C4B 1201   5.301   1.355   6.229 -0.2119 -0.1360 -0.0560
   75POPC   NC3 1202   9.871   4.392   7.813 -0.2705 -0.0626 -0.1065
   75POPC   PO4 1203   9.729   4.589   7.553  0.1267 -0.2904 -0.0187
   75POPC   GL1 1204   9.685   4.592   7.052 -0.2873 -0.2929  0.4058
   75POPC   GL2 1205   9.558   4.821   6.928  0.0381 -0.3319 -0.1420
   75POPC   C1A 1206   9.883   4.742   6.554 -0.3451 -0.3937 -0.0988
   75POPC   D2A 1207   9.869   4.823   6.174 -0.0242  0.2740 -0.1042
   75POPC   C3A 1208   9.676   4.790   5.773 -0.1912  0.0387 -0.1079
   75POPC   C4A 1209   9.391   4.617   5.455 -0.1570 -0.1348 -0.0291
   75POPC   C1B 1210   9.469   5.077   6.569 -0.1369 -0.3692 -0.1528
   75POPC   C2B 1211   9.359   5.195   6.134 -0.1901  0.1426  0.1209
   75POPC   C3B 1212   9.297   5.415   5.738 -0.2191 -0.1948  0.3379
   75POPC   C4B 1213   9.246   5.791   5.794  0.0506 -0.0623  0.0828
   76POPC   NC3 1214   7.132   4.412   7.380 -0.2608 -0.2099 -0.3215
   76POPC   PO4 1215   7.457   4.453   7.047  0.2137  0.0038 -0.2134
   76POPC   GL1 1216   7.495   4.403   6.631 -0.1771 -0.0396 -0.4021
   76POPC   GL2 1217   7.496   4.261   6.446  0.2425 -0.1900 -0.1293
   76POPC   C1A 1218   7.951   4.394   6.444 -0.0584 -0.0752 -0.0097
   76POPC   D2A 1219   8.102   4.599   5.982 -0.0107 -0.1989  0.2261
   76POPC   C3A 1220   8.367   4.403   5.719  0.0276  0.1869 -0.0117
   76POPC   C4A 1221   8.615   4.043   5.693 -0.0572  0.1126  0.1138
   76POPC   C1B 1222   7.526   4.382   6.084  0.1299  0.4694  0.0821
   76POPC   C2B 1223   7.289   4.192   5.717  0.0904 -0.0771 -0.0342
   76POPC   C3B 1224   6.902   4.265   5.595 -0.2323 -0.3806  0.1031
   76POPC   C4B 1225   6.524   4.485   5.583 -0.1239  0.0007  0.0351
   77POPC   NC3 1226   3.107   2.907   7.704  0.5362 -0.0807  0.1764
   77POPC   PO4 1227   2.826   2.589   7.342  0.2560  0.2087  0.3948
   77POPC   GL1 1228   2.648   2.647   6.940  0.1854  0.1710  0.1094
   77POPC   GL2 1229   2.686   2.959   6.762  0.0750 -0.2585  0.1757
   77POPC   C1A 1230   2.820   2.549   6.486  0.3125  0.0336 -0.1758
   77POPC   D2A 1231   2.516   2.332   6.107 -0.2746 -0.0481 -0.1501
   77POPC   C3A 1232   2.704   2.273   5.651 -0.1832 -0.1969 -0.0224
   77POPC   C4A 1233   3.032   2.069   5.494  0.2203  0.3431  0.1482
   77POPC   C1B 1234   3.001   3.016   6.488 -0.2447  0.1144 -0.1071
   77POPC   C2B 1235   3.378   3.134   6.150  0.2658  0.3776 -0.0006
   77POPC   C3B 1236   3.328   2.921   5.760  0.1030 -0.1590  0.2911
   77POPC   C4B 1237   3.174   2.539   5.545  0.2022 -0.0708 -0.0005
   78POPC   NC3 1238   2.091   2.598   7.463 -0.1129 -0.0322  0.2080
   78POPC   PO4 1239   1.734   2.374   7.609 -0.1305  0.1443  0.0847
   78POPC   GL1 1240   1.719   2.477   7.100 -0.3793 -0.1115 -0.2552
   78POPC   GL2 1241   1.567   2.663   7.011  0.1326 -0.3873 -0.0016
   78POPC   C1A 1242   1.908   2.231   6.837 -0.0989  0.1475 -0.3315
   78POPC   D2A 1243   2.046   1.771   6.784 -0.4358  0.1867 -0.0778
   78POPC   C3A 1244   2.203   1.610   6.371  0.1348  0.1199  0.0131
   78POPC   C4A 1245   2.451   1.796   6.062  0.1907 -0.1237 -0.2838
   78POPC   C1B 1246   1.687   2.734   6.649 -0.3574 -0.3371 -0.2327
   78POPC   C2B 1247   1.906   2.983   6.285  0.1168  0.1611  0.4273
   78POPC   C3B 1248   1.977   3.088   5.913 -0.0756 -0.0955 -0.0578
   78POPC   C4B 1249   2.130   3.336   5.643 -0.0460 -0.0823  0.0069
   79POPC   NC3 1250   8.804  10.894   7.453 -0.0846 -0.4828  0.0674
   79POPC   PO4 1251   9.191  11.106   7.431  0.3154  0.0743  0.0707
   79POPC   GL1 1252   9.346  11.031   6.948  0.2660  0.2564  0.0706
   79POPC   GL2 1253   9.614  10.847   6.960 -0.1678  0.1384  0.0794
   79POPC   C1A 1254   9.185  10.746   6.578  0.4623  0.2757  0.4392
   79POPC   D2A 1255   9.414  10.814   6.174 -0.0090 -0.0906  0.0348
   79POPC   C3A 1256   9.487  11.223   5.920  0.5064  0.1164  0.0330
   79POPC   C4A 1257   9.511  11.470   5.712 -0.2179  0.0861  0.1265
   79POPC   C1B 1258   9.720  10.866   6.579  0.1258 -0.1546  0.0820
   79POPC   C2B 1259   9.822  11.169   6.385 -0.2550 -0.0152 -0.0920
   79POPC   C3B 1260   9.991  11.305   5.962  0.0385 -0.1680  0.0462
   79POPC   C4B 1261   9.994  11.693   5.859 -0.0742 -0.2491  0.0711
   80POPC   NC3 1262   2.506   5.353   7.262  0.0916 -0.2122 -0.2502
   80POPC   PO4 1263   2.972   5.355   7.190  0.0191  0.2520  0.1132
   80POPC   GL1 1264   2.824   5.221   6.802  0.0614 -0.1310 -0.2015
   80POPC   GL2 1265   2.600   5.301   6.713  0.0479 -0.0529 -0.2567
   80POPC   C1A 1266   3.014   4.972   6.500 -0.0167 -0.0891  0.0793
   80POPC   D2A 1267   2.934   4.664   6.205  0.0367  0.0297 -0.1125
   80POPC   C3A 1268   2.912   4.707   5.715  0.1251 -0.3225  0.0187
   80POPC   C4A 1269   2.968   4.801   5.266  0.2178  0.1743 -0.2067
   80POPC   C1B 1270   2.554   5.282   6.381 -0.1887  0.2383  0.2216
   80POPC   C2B 1271   2.301   5.321   5.864  0.0438  0.1276  0.1593
   80POPC   C3B 1272   2.181   5.416   5.469 -0.1002 -0.0597  0.0465
   80POPC   C4B 1273   2.035   5.487   5.006 -0.0798  0.0866 -0.0963
   81POPC   NC3 1274   3.959   0.070   7.923 -0.0386  0.0220  0.0857
   81POPC   PO4 1275   3.865  -0.317   7.819 -0.0320 -0.1051 -0.2502
   81POPC   GL1 1276   4.012  -0.408   7.410 -0.0888  0.0924 -0.1465
   81POPC   GL2 1277   4.287  -0.526   7.299 -0.3385  0.2755  0.1846
   81POPC   C1A 1278   3.895  -0.612   7.053  0.2114 -0.0448 -0.2070
   81POPC   D2A 1279   3.795  -0.661   6.714 -0.0039 -0.2223  0.1676
   81POPC   C3A 1280   3.600  -1.050   6.713  0.1478 -0.1992 -0.2973
   81POPC   C4A 1281   3.865  -1.478   6.828 -0.3725 -0.0686 -0.0475
   81POPC   C1B 1282   4.364  -0.500   6.844 -0.2446 -0.1752 -0.0007
   81POPC   C2B 1283   4.453  -0.257   6.468 -0.0605  0.3011  0.2904
   81POPC   C3B 1284   4.336  -0.143   6.126  0.3508 -0.0718  0.1372
   81POPC   C4B 1285   4.621  -0.100   5.770  0.4808  0.0055  0.2157
   82POPC   NC3 1286   6.156   4.210   7.598 -0.3114  0.1333  0.1371
   82POPC   PO4 1287   5.820   4.058   7.438  0.2252 -0.1838  0.0945
   82POPC   GL1 1288   5.764   3.991   7.004  0.4102  0.1460 -0.2819
   82POPC   GL2 1289   5.794   4.220   6.823 -0.0321 -0.1485 -0.2264
   82POPC   C1A 1290   5.669   3.783   6.644 -0.1833  0.4854 -0.1438
   82POPC   D2A 1291   5.640   3.710   6.215  0.2679  0.0091 -0.0542
   82POPC   C3A 1292   5.337   3.884   5.962  0.2408 -0.1236  0.0025
   82POPC   C4A 1293   5.065   4.214   6.169 -0.1772 -0.2434  0.0145
   82POPC   C1B 1294   6.079   4.238   6.445 -0.1089 -0.3698  0.1474
   82POPC   C2B 1295   6.172   4.455   6.033 -0.3262  0.2730 -0.3702
   82POPC   C3B 1296   6.016   4.488   5.661 -0.3381  0.1380  0.0436
   82POPC   C4B 1297   5.746   4.836   5.489  0.0763 -0.0404  0.0302
   83POPC   NC3 1298   8.284   0.694   7.791 -0.1575 -0.0504 -0.3803
   83POPC   PO4 1299   8.059   1.022   7.419 -0.1393 -0.1995 -0.2091
   83POPC   GL1 1300   7.886   0.662   7.199 -0.0776  0.0338  0.1838
   83POPC   GL2 1301   8.031   0.422   7.330 -0.0496  0.1288  0.1010
   83POPC   C1A 1302   7.800   0.688   6.855  0.1762  0.2952 -0.0581
   83POPC   D2A 1303   7.894   0.469   6.452 -0.1420  0.3211 -0.3919
   83POPC   C3A 1304   8.009   0.234   6.179 -0.2538  0.1292  0.1288
   83POPC   C4A 1305   8.202   0.270   5.780  0.0638  0.0358 -0.1238
   83POPC   C1B 1306   7.912   0.229   6.961 -0.1190  0.1869 -0.2320
   83POPC   C2B 1307   7.572   0.231   6.679 -0.2296  0.2244 -0.0161
   83POPC   C3B 1308   7.429   0.211   6.277  0.0814  0.1005  0.1708
   83POPC   C4B 1309   7.644   0.288   5.838 -0.2157 -0.0775 -0.0022
   84POPC   NC3 1310   3.487   2.506   7.883 -0.0544  0.0552 -0.0182
   84POPC   PO4 1311   3.539   2.857   7.473 -0.2625 -0.0696  0.0401
   84POPC   GL1 1312   3.681   2.506   7.180 -0.1256  0.3475 -0.0494
   84POPC   GL2 1313   3.944   2.682   7.013 -0.0292 -0.1301 -0.1707
   84POPC   C1A 1314   3.595   2.277   6.839  0.1356  0.0066  0.0847
   84POPC   D2A 1315   3.402   2.418   6.478  0.0123  0.1981  0.2887
   84POPC   C3A 1316   3.607   2.435   6.064 -0.1588 -0.1053 -0.0517
   84POPC   C4A 1317   3.778   2.627   5.580  0.3009 -0.1043  0.3237
   84POPC   C1B 1318   4.014   3.049   6.709  0.1889 -0.0294  0.0234
   84POPC   C2B 1319   3.840   3.399   6.496 -0.0974  0.1807 -0.2039
   84POPC   C3B 1320   3.838   3.473   6.052  0.0115 -0.0873  0.0689
   84POPC   C4B 1321   3.805   3.153   5.748  0.1619 -0.0995 -0.1507
   85POPC   NC3 1322   5.916   6.352   7.164 -0.2664 -0.2991  0.0923
   85POPC   PO4 1323   5.883   6.705   7.478 -0.2171 -0.2278 -0.0445
   85POPC   GL1 1324   6.078   6.820   7.153 -0.0171 -0.2438  0.2563
   85POPC   GL2 1325   5.801   6.748   6.927 -0.1682 -0.1113 -0.1974
   85POPC   C1A 1326   6.281   6.845   6.746 -0.1162 -0.0455  0.2416
   85POPC   D2A 1327   6.454   6.865   6.291 -0.2454  0.0175  0.2189
   85POPC   C3A 1328   6.728   7.306   6.153 -0.0915  0.0629 -0.0747
   85POPC   C4A 1329   6.982   7.620   6.026 -0.1296  0.0640 -0.1079
   85POPC   C1B 1330   5.935   6.580   6.490  0.0871 -0.2201 -0.4054
   85POPC   C2B 1331   6.095   6.518   6.088 -0.1350  0.0479 -0.0499
   85POPC   C3B 1332   5.890   6.268   5.720  0.1280  0.0866 -0.0775
   85POPC   C4B 1333   5.751   5.961   5.354 -0.4696 -0.0446  0.1324
   86POPC   NC3 1334   7.549   3.206   7.751  0.3245 -0.2221  0.2650
   86POPC   PO4 1335   7.726   3.226   7.321  0.1828 -0.1795  0.2451
   86POPC   GL1 1336   7.757   3.134   6.953 -0.1386 -0.0293 -0.1402
   86POPC   GL2 1337   7.772   2.720   7.037 -0.0879  0.1459  0.1878
   86POPC   C1A 1338   7.475   3.068   6.645 -0.0171 -0.1264  0.0322
   86POPC   D2A 1339   7.242   3.276   6.307  0.2712 -0.2682  0.0224
   86POPC   C3A 1340   7.237   3.101   5.932 -0.1392 -0.0767 -0.1006
   86POPC   C4A 1341   7.282   3.209   5.526  0.1611 -0.1795 -0.0038
   86POPC   C1B 1342   7.926   2.878   6.564  0.0645  0.1275 -0.2284
   86POPC   C2B 1343   7.727   3.131   6.161 -0.1413 -0.2005  0.2338
   86POPC   C3B 1344   7.701   3.390   5.706 -0.2670 -0.1843 -0.0789
   86POPC   C4B 1345   7.647   3.792   5.724  0.0273 -0.0307  0.0430
   87POPC   NC3 1346  10.744   0.059   7.790 -0.0987  0.3256 -0.1845
   87POPC   PO4 1347  10.711  -0.294   7.523  0.1918  0.0505  0.0428
   87POPC   GL1 1348  10.694  -0.284   7.117  0.0965 -0.2244  0.0215
   87POPC   GL2 1349  10.595   0.086   7.060 -0.3249 -0.1640 -0.1664
   87POPC   C1A 1350  11.018  -0.405   6.789 -0.2074 -0.5465  0.3332
   87POPC   D2A 1351  11.255  -0.622   6.356 -0.1061 -0.0790 -0.1536
   87POPC   C3A 1352  11.262  -0.434   5.904 -0.0953 -0.1841 -0.1219
   87POPC   C4A 1353  11.577  -0.298   5.740  0.0227 -0.2031 -0.2644
   87POPC   C1B 1354  10.742   0.068   6.658  0.3178 -0.2580  0.1484
   87POPC   C2B 1355  10.749  -0.078   6.196  0.1805  0.0659  0.0857
   87POPC   C3B 1356  10.416  -0.183   5.994 -0.2351  0.2086  0.0358
   87POPC   C4B 1357   9.974  -0.145   6.080  0.1467 -0.1793  0.0374
   88POPC   NC3 1358   4.054   5.130   7.407  0.3318  0.0443  0.0690
   88POPC   PO4 1359   4.002   5.043   6.997  0.1665 -0.0011  0.1386
   88POPC   GL1 1360   3.940   5.175   6.669 -0.1238 -0.0426  0.1633
   88POPC   GL2 1361   4.298   5.346   6.585  0.0714  0.2019  0.0440
   88POPC   C1A 1362   3.746   5.422   6.348  0.0504 -0.0422  0.0040
   88POPC   D2A 1363   3.653   5.318   5.923 -0.2790 -0.0351 -0.1990
   88POPC   C3A 1364   3.910   5.364   5.554  0.3302  0.1211 -0.1163
   88POPC   C4A 1365   3.827   5.243   5.196 -0.1033  0.0817  0.3102
   88POPC   C1B 1366   4.183   5.588   6.103 -0.0323  0.0166 -0.0136
   88POPC   C2B 1367   4.297   5.617   5.779  0.0419 -0.2236 -0.1375
   88POPC   C3B 1368   4.662   5.496   5.567 -0.1276 -0.2672 -0.1482
   88POPC   C4B 1369   4.806   5.214   5.339 -0.0884  0.1560 -0.0933
   89POPC   NC3 1370   3.507   6.813   7.588  0.0566 -0.0953 -0.0747
   89POPC   PO4 1371   3.825   7.241   7.419 -0.1622 -0.1944  0.0102
   89POPC   GL1 1372   3.542   7.146   7.130  0.1403  0.0233 -0.2184
   89POPC   GL2 1373   3.342   7.344   7.029 -0.3909  0.2022  0.0561
   89POPC   C1A 1374   3.399   6.877   6.788  0.0987  0.0149 -0.2071
   89POPC   D2A 1375   3.431   6.623   6.465  0.3490 -0.0090  0.1020
   89POPC   C3A 1376   3.738   6.302   6.358  0.4115 -0.0314 -0.0287
   89POPC   C4A 1377   3.958   6.121   6.046  0.0961 -0.4813 -0.0567
   89POPC   C1B 1378   3.175   7.470   6.584 -0.1892 -0.0060  0.1402
   89POPC   C2B 1379   3.361   7.498   6.095  0.0357 -0.1971  0.3334
   89POPC   C3B 1380   3.222   7.503   5.612 -0.3778  0.0499  0.3981
   89POPC   C4B 1381   3.486   7.325   5.382  0.0325 -0.0984  0.0475
   90POPC   NC3 1382   4.235   3.911   7.643 -0.1550  0.2296 -0.0910
   90POPC   PO4 1383   4.560   3.745   7.411 -0.1025 -0.4582 -0.3508
   90POPC   GL1 1384   4.569   3.808   6.980 -0.1236  0.2003 -0.0190
   90POPC   GL2 1385   4.776   3.681   6.748  0.0346  0.1483 -0.0988
   90POPC   C1A 1386   4.742   4.151   6.583  0.1518 -0.0175  0.2451
   90POPC   D2A 1387   4.851   4.522   6.502 -0.2096  0.2690  0.0481
   90POPC   C3A 1388   5.201   4.672   6.317 -0.0272  0.4876  0.0510
   90POPC   C4A 1389   5.130   4.907   6.099 -0.0053  0.0544 -0.0607
   90POPC   C1B 1390   4.470   3.372   6.558  0.1822  0.0449 -0.1435
   90POPC   C2B 1391   4.206   3.168   6.223  0.4190  0.1563  0.0842
   90POPC   C3B 1392   3.810   2.899   6.261 -0.1696  0.1781 -0.3964
   90POPC   C4B 1393   3.445   2.921   6.632  0.0909 -0.2269 -0.2302
   91POPC   NC3 1394   0.406   6.682   7.537 -0.2859  0.0689  0.0472
   91POPC   PO4 1395   0.147   6.881   7.231  0.3536 -0.2794  0.4535
   91POPC   GL1 1396   0.203   6.969   6.859  0.2188 -0.2035 -0.0228
   91POPC   GL2 1397  -0.062   7.206   6.813 -0.1542  0.1731 -0.0893
   91POPC   C1A 1398   0.107   6.948   6.399 -0.1841 -0.0034  0.2105
   91POPC   D2A 1399   0.126   6.582   6.075 -0.0157  0.3707  0.0259
   91POPC   C3A 1400   0.416   6.289   6.079  0.2319  0.1870 -0.2133
   91POPC   C4A 1401   0.713   6.171   6.125 -0.3074  0.0538 -0.2361
   91POPC   C1B 1402  -0.116   7.524   6.525  0.1160 -0.3521  0.1203
   91POPC   C2B 1403  -0.364   7.409   6.115  0.2805  0.0344  0.4477
   91POPC   C3B 1404  -0.175   7.407   5.672  0.3895 -0.0960  0.0800
   91POPC   C4B 1405  -0.191   7.726   5.320  0.0273  0.1234  0.0066
   92POPC   NC3 1406   1.859   5.247   7.821 -0.2074  0.0929  0.0646
   92POPC   PO4 1407   1.586   5.216   7.270 -0.1697  0.0738 -0.1388
   92POPC   GL1 1408   1.614   5.475   6.809  0.1742  0.1396 -0.1016
   92POPC   GL2 1409   1.765   5.680   6.994  0.1429  0.3157 -0.0458
   92POPC   C1A 1410   1.353   5.728   6.542 -0.1107  0.3130 -0.0075
   92POPC   D2A 1411   1.188   5.859   6.089  0.1141 -0.0163  0.0004
   92POPC   C3A 1412   1.184   5.545   5.753 -0.1990 -0.0615 -0.1575
   92POPC   C4A 1413   1.375   5.582   5.394 -0.0944  0.1871 -0.3545
   92POPC   C1B 1414   1.832   6.010   6.704 -0.0104 -0.2524 -0.2214
   92POPC   C2B 1415   1.605   6.222   6.461  0.0413 -0.2249  0.2190
   92POPC   C3B 1416   1.591   6.074   6.091 -0.1098 -0.1806 -0.0148
   92POPC   C4B 1417   1.562   5.975   5.694  0.0869  0.0708  0.0295
   93POPC   NC3 1418   1.841   9.889   7.950  0.2212  0.0239  0.3617
   93POPC   PO4 1419   1.708   9.674   7.640 -0.0508  0.0371  0.2172
   93POPC   GL1 1420   1.393   9.716   7.248 -0.5792 -0.3362  0.1236
   93POPC   GL2 1421   1.203   9.901   7.102 -0.0523 -0.0039  0.0289
   93POPC   C1A 1422   1.322   9.436   6.859  0.1260 -0.1509  0.0161
   93POPC   D2A 1423   1.464   9.533   6.485  0.0873  0.0753  0.4183
   93POPC   C3A 1424   1.642   9.397   6.193  0.0988  0.1150  0.2612
   93POPC   C4A 1425   2.014   9.511   6.052  0.1283 -0.0904 -0.2502
   93POPC   C1B 1426   1.307  10.169   6.669 -0.3710  0.1098  0.2154
   93POPC   C2B 1427   1.345  10.406   6.381  0.2131  0.1680  0.0012
   93POPC   C3B 1428   1.527  10.808   6.114 -0.0320 -0.1663  0.0710
   93POPC   C4B 1429   1.750  10.772   5.835 -0.0365 -0.1450 -0.3299
   94POPC   NC3 1430   1.153   1.123   7.834 -0.2456  0.1180 -0.2165
   94POPC   PO4 1431   1.345   0.846   7.601 -0.3285  0.2168 -0.1659
   94POPC   GL1 1432   1.423   0.935   7.199 -0.0809  0.2466 -0.1011
   94POPC   GL2 1433   1.101   0.695   7.204  0.0141 -0.3752  0.2848
   94POPC   C1A 1434   1.474   1.313   6.924  0.1015 -0.1129  0.0881
   94POPC   D2A 1435   1.643   1.524   6.574 -0.1098 -0.2232  0.0621
   94POPC   C3A 1436   1.742   1.237   6.218  0.4246 -0.1767  0.0073
   94POPC   C4A 1437   1.640   1.068   5.759  0.2693  0.0608  0.1106
   94POPC   C1B 1438   1.320   0.554   6.869  0.1321 -0.1440  0.1013
   94POPC   C2B 1439   1.497   0.767   6.448 -0.0156 -0.0350  0.1458
   94POPC   C3B 1440   1.388   0.705   6.087 -0.4593 -0.0021  0.2079
   94POPC   C4B 1441   1.359   0.708   5.564  0.1088  0.1838  0.1178
   95POPC   NC3 1442   3.219   9.407   7.989 -0.2008  0.2124 -0.0546
   95POPC   PO4 1443   3.262   9.681   7.556  0.2467  0.1549  0.0339
   95POPC   GL1 1444   3.243   9.543   7.129 -0.2052  0.0589 -0.1223
   95POPC   GL2 1445   2.873   9.539   6.991 -0.2065  0.0328 -0.0843
   95POPC   C1A 1446   3.351   9.405   6.711 -0.3862  0.1689  0.3692
   95POPC   D2A 1447   3.379   9.322   6.232  0.0727  0.2594 -0.1794
   95POPC   C3A 1448   3.697   9.531   6.005 -0.1501  0.2362  0.1456
   95POPC   C4A 1449   4.001   9.826   5.865  0.0296  0.3104 -0.2321
   95POPC   C1B 1450   2.991   9.699   6.635 -0.0701 -0.1919  0.0077
   95POPC   C2B 1451   3.278   9.781   6.385  0.0376  0.0752 -0.1881
   95POPC   C3B 1452   3.654  10.003   6.259  0.0385  0.0658 -0.2358
   95POPC   C4B 1453   4.114  10.146   6.381  0.1607  0.2586  0.3132
   96POPC   NC3 1454   3.606   8.778   7.554 -0.0636  0.0942  0.2105
   96POPC   PO4 1455   3.781   8.606   7.225 -0.1155 -0.1922  0.0552
   96POPC   GL1 1456   3.734   8.805   6.826 -0.1742 -0.4234 -0.2274
   96POPC   GL2 1457   3.649   8.518   6.685  0.1309 -0.1554 -0.0407
   96POPC   C1A 1458   3.793   9.162   6.409  0.0091  0.0351  0.1807
   96POPC   D2A 1459   3.994   9.579   6.376 -0.1807  0.1275 -0.1593
   96POPC   C3A 1460   4.411   9.771   6.170  0.1163  0.3886  0.3433
   96POPC   C4A 1461   4.741   9.845   6.034  0.1447 -0.0068  0.1329
   96POPC   C1B 1462   3.322   8.364   6.398  0.3421  0.0475  0.2504
   96POPC   C2B 1463   3.296   8.440   5.929 -0.0095  0.0059  0.1447
   96POPC   C3B 1464   3.377   8.490   5.480  0.0799  0.1058 -0.0714
   96POPC   C4B 1465   3.564   8.510   5.156 -0.0956  0.0474  0.1948
   97POPC   NC3 1466   4.915   4.708   7.380  0.0694  0.1610  0.0710
   97POPC   PO4 1467   4.709   5.006   7.345  0.1807  0.2472 -0.2426
   97POPC   GL1 1468   4.653   4.723   6.895  0.1965  0.1402 -0.1061
   97POPC   GL2 1469   4.390   4.776   6.816  0.0448  0.2017  0.1398
   97POPC   C1A 1470   4.769   5.001   6.509  0.0159  0.2633 -0.0445
   97POPC   D2A 1471   4.572   5.323   6.161 -0.0211 -0.0193  0.3911
   97POPC   C3A 1472   4.892   5.517   6.033  0.1491  0.2055  0.2622
   97POPC   C4A 1473   5.140   5.327   5.740 -0.2128 -0.2831  0.1771
   97POPC   C1B 1474   4.280   4.859   6.423  0.0270 -0.2051 -0.0316
   97POPC   C2B 1475   4.198   4.986   6.060  0.1705 -0.1935 -0.0523
   97POPC   C3B 1476   3.908   4.886   5.676  0.0834 -0.1780 -0.1641
   97POPC   C4B 1477   3.942   4.742   5.287  0.0640 -0.1953  0.0345
   98POPC   NC3 1478   1.597   7.223   7.268  0.1173  0.0431  0.0611
   98POPC   PO4 1479   1.473   6.859   7.387 -0.0505 -0.1645  0.2003
   98POPC   GL1 1480   1.503   6.712   6.941 -0.2428  0.0340  0.4602
   98POPC   GL2 1481   1.820   6.549   7.030  0.0893 -0.2114  0.1656
   98POPC   C1A 1482   1.705   6.673   6.528  0.1080  0.2233 -0.0461
   98POPC   D2A 1483   1.508   6.729   6.080  0.1840 -0.1432 -0.2188
   98POPC   C3A 1484   1.145   6.816   5.811  0.2010  0.0404 -0.1755
   98POPC   C4A 1485   0.992   6.604   5.538  0.0273  0.0745 -0.0551
   98POPC   C1B 1486   2.182   6.373   6.718 -0.3363  0.1813 -0.0313
   98POPC   C2B 1487   2.157   6.301   6.357  0.1152  0.1428 -0.1369
   98POPC   C3B 1488   1.976   6.441   5.973 -0.2162  0.4320  0.1057
   98POPC   C4B 1489   2.062   6.421   5.542 -0.1112  0.2656 -0.2001
   99POPC   NC3 1490  10.905   7.542   8.086 -0.2341  0.1634 -0.1938
   99POPC   PO4 1491  11.036   7.649   7.619  0.2547  0.0962 -0.2786
   99POPC   GL1 1492  10.962   7.756   7.100  0.0550  0.0136  0.2723
   99POPC   GL2 1493  10.645   7.858   6.982  0.0342  0.1057  0.1894
   99POPC   C1A 1494  11.077   7.892   6.699 -0.1775  0.0297  0.1480
   99POPC   D2A 1495  10.995   8.031   6.287  0.0926 -0.1941  0.1634
   99POPC   C3A 1496  11.141   8.278   6.064  0.1248 -0.0808  0.1161
   99POPC   C4A 1497  11.364   8.531   6.151 -0.2072 -0.1293  0.2991
   99POPC   C1B 1498  10.607   8.195   6.628 -0.3148 -0.1300 -0.2927
   99POPC   C2B 1499  10.661   8.390   6.231  0.2186 -0.1214  0.0812
   99POPC   C3B 1500  10.401   8.690   5.947 -0.0078  0.0663  0.1863
   99POPC   C4B 1501  10.519   9.099   5.735  0.0992 -0.1130 -0.2349
  100POPC   NC3 1502   1.054   7.281   7.388  0.2859  0.0782  0.1138
  100POPC   PO4 1503   1.163   7.046   7.029 -0.0077 -0.1109 -0.2006
  100POPC   GL1 1504   1.306   7.474   6.858 -0.2566  0.1540 -0.1827
  100POPC   GL2 1505   1.657   7.534   6.892 -0.3454 -0.3193  0.1532
  100POPC   C1A 1506   1.204   7.649   6.557  0.0629  0.1533 -0.0006
  100POPC   D2A 1507   1.100   7.952   6.221  0.3363  0.1230 -0.0889
  100POPC   C3A 1508   1.143   7.728   5.795 -0.0675 -0.2550  0.1040
  100POPC   C4A 1509   1.237   7.383   5.566  0.0362 -0.1705  0.2154
  100POPC   C1B 1510   1.903   7.736   6.543  0.0518 -0.0342 -0.1359
  100POPC   C2B 1511   1.955   7.955   6.099  0.1894  0.3658 -0.1922
  100POPC   C3B 1512   2.064   8.026   5.620 -0.1707  0.3586 -0.0025
  100POPC   C4B 1513   1.808   8.133   5.347 -0.0862  0.2830  0.0824
  101POPC   NC3 1514  10.030   6.632   8.158 -0.1524  0.4917  0.2107
  101POPC   PO4 1515   9.792   6.967   7.864 -0.1282 -0.0500 -0.1610
  101POPC   GL1 1516   9.720   7.110   7.361  0.1971 -0.0825  0.1246
  101POPC   GL2 1517   9.812   7.410   7.171  0.0899 -0.1851 -0.0737
  101POPC   C1A 1518   9.418   6.999   7.079 -0.4718 -0.2464  0.1463
  101POPC   D2A 1519   9.413   6.891   6.614 -0.1851 -0.2319  0.0105
  101POPC   C3A 1520   9.322   7.185   6.166  0.1530 -0.1132 -0.1149
  101POPC   C4A 1521   9.540   7.370   5.720  0.1169  0.0275 -0.2925
  101POPC   C1B 1522   9.842   7.480   6.759  0.2256 -0.1575  0.1492
  101POPC   C2B 1523   9.824   7.697   6.503 -0.0394 -0.0437  0.1550
  101POPC   C3B 1524   9.500   7.731   6.201 -0.0034  0.0168  0.1044
  101POPC   C4B 1525   9.295   7.909   5.875  0.0000 -0.0852  0.0721
  102POPC   NC3 1526   8.604   4.521   7.556  0.0436 -0.2716  0.0455
  102POPC   PO4 1527   8.262   4.321   7.487 -0.0213  0.1073  0.0616
  102POPC   GL1 1528   8.389   4.434   7.129 -0.1513  0.2275  0.1072
  102POPC   GL2 1529   8.693   4.646   7.068  0.2564  0.0619  0.0001
  102POPC   C1A 1530   8.218   4.699   6.831  0.1565  0.0142 -0.1915
  102POPC   D2A 1531   7.947   4.972   6.677 -0.0277 -0.0695  0.2408
  102POPC   C3A 1532   7.819   4.931   6.246  0.1532  0.2216  0.0857
  102POPC   C4A 1533   7.770   5.012   5.851 -0.2191 -0.0851 -0.1397
  102POPC   C1B 1534   8.880   4.584   6.729 -0.2824 -0.2301 -0.0947
  102POPC   C2B 1535   8.946   4.321   6.489  0.0833  0.2056  0.0168
  102POPC   C3B 1536   8.874   4.313   6.029  0.3557 -0.1642  0.1891
  102POPC   C4B 1537   8.949   4.398   5.582 -0.0133  0.0545  0.1400
  103POPC   NC3 1538   6.372   0.264   7.585  0.2267  0.1695 -0.0509
  103POPC   PO4 1539   6.615   0.610   7.787  0.1157  0.1034 -0.3212
  103POPC   GL1 1540   6.603   0.651   7.323 -0.1868 -0.2466 -0.0987
  103POPC   GL2 1541   6.363   0.433   7.136  0.0440  0.0712  0.2708
  103POPC   C1A 1542   6.844   0.404   7.055 -0.1262 -0.2636  0.0782
  103POPC   D2A 1543   7.295   0.578   6.934 -0.1818  0.0826  0.1066
  103POPC   C3A 1544   7.410   0.720   6.494 -0.0124  0.1705 -0.0246
  103POPC   C4A 1545   7.254   0.949   6.082  0.3245  0.3253  0.1003
  103POPC   C1B 1546   6.477   0.583   6.744 -0.0504  0.1695 -0.3027
  103POPC   C2B 1547   6.763   0.867   6.659  0.1772  0.1242  0.0874
  103POPC   C3B 1548   6.878   1.213   6.680 -0.0318 -0.1926  0.2605
  103POPC   C4B 1549   6.598   1.489   6.537 -0.0640 -0.3156 -0.2447
  104POPC   NC3 1550   5.859   4.451   7.219  0.0905 -0.1275 -0.3614
  104POPC   PO4 1551   6.352   4.585   7.217 -0.3861 -0.2827 -0.2532
  104POPC   GL1 1552   6.268   4.482   6.864 -0.2971 -0.2862  0.2076
  104POPC   GL2 1553   6.115   4.702   6.702  0.2297  0.0686  0.0636
  104POPC   C1A 1554   6.623   4.610   6.513  0.2790 -0.1078 -0.2875
  104POPC   D2A 1555   6.718   4.537   6.100  0.1733  0.0177 -0.0726
  104POPC   C3A 1556   7.025   4.650   5.907  0.0520 -0.1761 -0.2739
  104POPC   C4A 1557   7.447   4.686   5.660 -0.2518  0.1316  0.1916
  104POPC   C1B 1558   6.045   4.858   6.335  0.3443  0.1556 -0.0084
  104POPC   C2B 1559   6.008   5.074   5.891  0.2450  0.0534  0.1203
  104POPC   C3B 1560   6.195   5.338   5.610  0.0343 -0.1624  0.0619
  104POPC   C4B 1561   6.082   5.617   5.197  0.0845  0.1130  0.0393
  105POPC   NC3 1562   0.238   5.453   7.261 -0.2440 -0.6041  0.1181
  105POPC   PO4 1563   0.110   4.983   7.315 -0.0640 -0.1702  0.0807
  105POPC   GL1 1564   0.003   4.987   6.882 -0.3397  0.1902  0.3354
  105POPC   GL2 1565  -0.175   4.736   6.900  0.1130 -0.2395 -0.0383
  105POPC   C1A 1566   0.085   5.094   6.417  0.0905 -0.2444  0.1106
  105POPC   D2A 1567   0.209   5.316   6.109 -0.0520  0.1512 -0.1894
  105POPC   C3A 1568   0.018   5.316   5.706  0.1107  0.2337 -0.3632
  105POPC   C4A 1569   0.113   4.922   5.439 -0.1703 -0.0992  0.0682
  105POPC   C1B 1570  -0.318   4.684   6.460 -0.2146 -0.0088  0.1394
  105POPC   C2B 1571  -0.561   4.565   6.246 -0.0296  0.1670  0.0510
  105POPC   C3B 1572  -0.767   4.566   5.847  0.1532  0.0814 -0.2043
  105POPC   C4B 1573  -0.645   4.170   5.561  0.1074  0.3279  0.0929
  106POPC   NC3 1574   6.335   6.444   7.517  0.2880  0.2559  0.0696
  106POPC   PO4 1575   6.731   6.328   7.456 -0.2365  0.2152  0.2202
  106POPC   GL1 1576   6.700   6.230   7.041  0.2301  0.0360  0.1690
  106POPC   GL2 1577   6.404   6.375   7.048  0.1437  0.2814 -0.0183
  106POPC   C1A 1578   6.751   5.977   6.646  0.1075 -0.0161 -0.3934
  106POPC   D2A 1579   6.671   5.559   6.518 -0.3167 -0.2669 -0.0093
  106POPC   C3A 1580   6.985   5.346   6.115 -0.1093 -0.2840 -0.0802
  106POPC   C4A 1581   7.294   5.011   6.092 -0.1620 -0.0708 -0.0934
  106POPC   C1B 1582   6.439   6.418   6.566 -0.0899  0.1248 -0.2410
  106POPC   C2B 1583   6.512   6.268   6.130  0.0130 -0.0041  0.1342
  106POPC   C3B 1584   6.669   6.124   5.775 -0.2613  0.1704 -0.0699
  106POPC   C4B 1585   6.592   6.392   5.420  0.0766  0.2877 -0.0978
  107POPC   NC3 1586  10.864   3.944   7.937 -0.1507  0.1209 -0.2840
  107POPC   PO4 1587  10.868   3.866   7.467  0.3734 -0.0875 -0.1735
  107POPC   GL1 1588  11.011   3.922   7.010 -0.0485 -0.1372  0.0186
  107POPC   GL2 1589  11.258   4.092   6.829  0.2115  0.1413 -0.2527
  107POPC   C1A 1590  10.758   4.254   6.721  0.3377  0.0101  0.1520
  107POPC   D2A 1591  11.048   4.577   6.395 -0.3294 -0.0170 -0.2094
  107POPC   C3A 1592  11.381   4.572   6.085  0.0290 -0.0676 -0.0761
  107POPC   C4A 1593  11.204   4.509   5.621  0.0730 -0.1654 -0.2146
  107POPC   C1B 1594  11.318   4.112   6.439 -0.0534 -0.0182 -0.1188
  107POPC   C2B 1595  11.514   4.079   6.005 -0.0518 -0.0090 -0.0168
  107POPC   C3B 1596  11.681   4.130   5.627 -0.0317 -0.0577 -0.2046
  107POPC   C4B 1597  11.495   4.239   5.279 -0.3625  0.0371 -0.0588
  108POPC   NC3 1598   1.078   0.406   7.611  0.3270 -0.0779 -0.3202
  108POPC   PO4 1599   1.228  -0.018   7.565 -0.0209 -0.1261  0.2125
  108POPC   GL1 1600   1.187   0.068   7.056 -0.1793 -0.1528 -0.0597
  108POPC   GL2 1601   0.978   0.170   7.035  0.0695  0.0775 -0.1683
  108POPC   C1A 1602   1.161  -0.283   6.797  0.0301  0.1613  0.1839
  108POPC   D2A 1603   0.989  -0.151   6.307 -0.0038  0.0941  0.0699
  108POPC   C3A 1604   0.916   0.149   5.980  0.1204  0.0248 -0.0352
  108POPC   C4A 1605   0.814   0.507   5.723 -0.0530  0.3045 -0.1413
  108POPC   C1B 1606   0.814   0.111   6.681 -0.0719  0.0382 -0.2532
  108POPC   C2B 1607   0.585   0.398   6.449 -0.0842 -0.1877  0.1446
  108POPC   C3B 1608   0.418   0.574   6.076 -0.1649  0.0349 -0.1545
  108POPC   C4B 1609   0.373   0.424   5.579  0.1637 -0.0920 -0.1540
  109POPC   NC3 1610   3.244   2.401   7.436 -0.1284  0.0525 -0.1323
  109POPC   PO4 1611   2.883   2.071   7.372  0.1323 -0.1228  0.1444
  109POPC   GL1 1612   2.737   1.896   6.988  0.2379 -0.0195  0.0822
  109POPC   GL2 1613   2.866   1.651   6.976  0.2262  0.2813  0.0656
  109POPC   C1A 1614   2.588   2.078   6.624 -0.1515 -0.2170  0.1470
  109POPC   D2A 1615   2.197   2.075   6.426  0.1285  0.1040  0.2579
  109POPC   C3A 1616   1.939   1.868   6.045  0.1885  0.0815 -0.1535
  109POPC   C4A 1617   1.646   1.641   5.925  0.2563  0.2171 -0.0892
  109POPC   C1B 1618   3.166   1.557   6.609 -0.0883 -0.1791 -0.2316
  109POPC   C2B 1619   3.426   1.593   6.300 -0.0401  0.0338 -0.0469
  109POPC   C3B 1620   3.818   1.504   5.978  0.0050 -0.1759 -0.1192
  109POPC   C4B 1621   4.094   1.327   5.756 -0.0995  0.1013  0.1584
  110POPC   NC3 1622   8.678  10.693   8.222  0.2688  0.1643  0.1237
  110POPC   PO4 1623   8.983  10.624   7.857  0.2000  0.0898 -0.0479
  110POPC   GL1 1624   8.761  10.398   7.434 -0.2638 -0.0948 -0.2597
  110POPC   GL2 1625   8.934  10.587   7.079  0.3751  0.1436 -0.0608
  110POPC   C1A 1626   8.837  10.118   7.021  0.0701 -0.2591 -0.1913
  110POPC   D2A 1627   9.004  10.240   6.630 -0.1256 -0.1016 -0.0634
  110POPC   C3A 1628   8.826   9.960   6.278 -0.0920  0.1241  0.0767
  110POPC   C4A 1629   8.420   9.809   6.146  0.0202  0.1185 -0.0918
  110POPC   C1B 1630   8.676  10.664   6.721 -0.3460  0.0786 -0.2043
  110POPC   C2B 1631   8.813  10.491   6.292  0.1625 -0.0655 -0.0555
  110POPC   C3B 1632   8.946  10.693   5.871 -0.2450 -0.4800  0.2909
  110POPC   C4B 1633   8.701  10.976   5.522 -0.0549  0.1523 -0.0115
  111POPC   NC3 1634   0.765   1.358   7.592 -0.0198 -0.0573  0.0191
  111POPC   PO4 1635   0.765   0.841   7.613  0.1020 -0.1032  0.3074
  111POPC   GL1 1636   0.614   1.062   7.251 -0.0006  0.2880  0.1297
  111POPC   GL2 1637   0.626   1.423   7.138 -0.0308  0.0838  0.0817
  111POPC   C1A 1638   0.324   1.086   6.839  0.1100 -0.0790  0.2875
  111POPC   D2A 1639   0.247   1.208   6.420 -0.3517 -0.1170 -0.2031
  111POPC   C3A 1640   0.465   1.114   6.141  0.0387 -0.2478  0.0865
  111POPC   C4A 1641   0.873   0.942   6.017  0.3219 -0.2572 -0.2870
  111POPC   C1B 1642   0.643   1.707   6.636 -0.2062  0.0373  0.2648
  111POPC   C2B 1643   0.754   1.540   6.230  0.0935 -0.4257 -0.1590
  111POPC   C3B 1644   0.739   1.390   5.783 -0.3663 -0.3059 -0.1012
  111POPC   C4B 1645   0.992   1.078   5.553 -0.1669 -0.0645 -0.1007
  112POPC   NC3 1646   6.787   3.557   7.591  0.0987 -0.0509  0.1171
  112POPC   PO4 1647   6.376   3.612   7.434  0.0258  0.0332  0.0057
  112POPC   GL1 1648   6.277   3.528   6.901 -0.1111 -0.1397  0.0366
  112POPC   GL2 1649   6.206   3.717   6.672 -0.3352  0.1029  0.3268
  112POPC   C1A 1650   6.593   3.414   6.716  0.3397  0.0248  0.1206
  112POPC   D2A 1651   6.809   3.536   6.319 -0.0886  0.1228  0.0727
  112POPC   C3A 1652   6.823   3.439   5.801 -0.0322 -0.1971 -0.3801
  112POPC   C4A 1653   6.689   3.310   5.405  0.0714  0.2253 -0.1327
  112POPC   C1B 1654   6.015   3.375   6.342 -0.3906 -0.1873 -0.1660
  112POPC   C2B 1655   6.379   3.424   6.061 -0.0732 -0.1846  0.1804
  112POPC   C3B 1656   6.361   3.053   5.732 -0.3760  0.0827  0.0773
  112POPC   C4B 1657   6.468   2.883   5.401 -0.1659  0.3869  0.2150
  113POPC   NC3 1658   7.930   7.160   8.069  0.1522  0.1469  0.2184
  113POPC   PO4 1659   8.160   7.343   7.817 -0.3140  0.2325  0.1874
  113POPC   GL1 1660   8.282   7.149   7.377 -0.2945  0.1262  0.3570
  113POPC   GL2 1661   8.459   7.410   7.243 -0.1828 -0.3486  0.3676
  113POPC   C1A 1662   8.560   6.935   7.109  0.0668 -0.1670 -0.1036
  113POPC   D2A 1663   8.990   6.786   6.935 -0.1127 -0.2488  0.1309
  113POPC   C3A 1664   8.940   6.693   6.516  0.1555 -0.2265 -0.0975
  113POPC   C4A 1665   8.830   6.410   6.228 -0.0310 -0.2150 -0.2386
  113POPC   C1B 1666   8.147   7.453   6.915  0.1599 -0.3995  0.2900
  113POPC   C2B 1667   8.087   7.423   6.572  0.1590  0.0400 -0.0985
  113POPC   C3B 1668   7.992   7.356   6.194  0.3005 -0.3752  0.2754
  113POPC   C4B 1669   8.057   7.387   5.882 -0.2492  0.2354 -0.0811
  114POPC   NC3 1670   3.086   1.559   7.497 -0.2411 -0.3540  0.0410
  114POPC   PO4 1671   3.551   1.524   7.530 -0.0817 -0.4425  0.2701
  114POPC   GL1 1672   3.404   1.669   7.111 -0.2805 -0.2510 -0.1067
  114POPC   GL2 1673   3.281   1.931   7.064  0.0660  0.4254 -0.0170
  114POPC   C1A 1674   3.620   1.791   6.745 -0.0282  0.1657 -0.0448
  114POPC   D2A 1675   3.753   2.100   6.392 -0.1279  0.1671  0.1706
  114POPC   C3A 1676   3.654   1.997   5.865 -0.3105 -0.0244 -0.0564
  114POPC   C4A 1677   3.532   2.110   5.455  0.0689 -0.0295  0.0966
  114POPC   C1B 1678   3.080   2.078   6.688  0.0207  0.0556  0.2246
  114POPC   C2B 1679   3.120   2.029   6.272  0.2317  0.0053 -0.1645
  114POPC   C3B 1680   3.195   2.206   5.956 -0.3500  0.2916 -0.1848
  114POPC   C4B 1681   3.044   2.639   6.051 -0.0548 -0.1625  0.1502
  115POPC   NC3 1682   2.538   1.775   7.487  0.1651 -0.0803  0.2098
  115POPC   PO4 1683   2.407   1.471   7.241  0.0061 -0.3156 -0.1465
  115POPC   GL1 1684   2.427   1.445   6.804 -0.3465 -0.1169 -0.1159
  115POPC   GL2 1685   2.574   1.149   6.724 -0.0693 -0.0007 -0.1089
  115POPC   C1A 1686   2.644   1.554   6.465 -0.1581  0.0020  0.1863
  115POPC   D2A 1687   2.948   1.433   6.134 -0.0442  0.1010 -0.2459
  115POPC   C3A 1688   2.937   1.055   5.918  0.0873  0.1980  0.3708
  115POPC   C4A 1689   3.224   0.876   5.647 -0.2538 -0.0420 -0.2097
  115POPC   C1B 1690   2.939   1.150   6.903  0.1553  0.0048 -0.0094
  115POPC   C2B 1691   3.394   1.219   6.919 -0.5089  0.0066  0.0084
  115POPC   C3B 1692   3.708   1.317   6.591 -0.0005  0.2287 -0.2810
  115POPC   C4B 1693   3.904   1.655   6.404 -0.0665 -0.0946 -0.0798
  116POPC   NC3 1694   1.961   9.808   7.236 -0.1316 -0.3439 -0.0728
  116POPC   PO4 1695   1.907   9.404   7.196 -0.1903 -0.1931  0.0699
  116POPC   GL1 1696   1.875   9.483   6.825  0.2988  0.0679 -0.3591
  116POPC   GL2 1697   2.089   9.721   6.646 -0.1887  0.1460 -0.2788
  116POPC   C1A 1698   2.008   9.274   6.489  0.0251  0.3721 -0.1736
  116POPC   D2A 1699   2.394   9.282   6.186  0.3232  0.0316 -0.0569
  116POPC   C3A 1700   2.232   9.304   5.702 -0.2211 -0.0459 -0.0319
  116POPC   C4A 1701   1.954   9.176   5.421 -0.0105 -0.0427  0.1416
  116POPC   C1B 1702   2.393   9.846   6.337 -0.2244  0.3675 -0.2608
  116POPC   C2B 1703   2.779   9.633   6.166  0.2741 -0.1986 -0.1622
  116POPC   C3B 1704   2.914   9.283   5.906 -0.1737 -0.4438  0.1519
  116POPC   C4B 1705   2.790   9.104   5.648 -0.4417  0.1207  0.0389
  117POPC   NC3 1706   6.249  10.370   7.568 -0.0484 -0.2120  0.1449
  117POPC   PO4 1707   6.481  10.708   7.614 -0.2342 -0.2207  0.1442
  117POPC   GL1 1708   6.746  10.863   7.305  0.1177 -0.3188 -0.1095
  117POPC   GL2 1709   7.092  10.795   7.390 -0.0199  0.1334 -0.3128
  117POPC   C1A 1710   6.717  10.898   6.869 -0.2107 -0.1347  0.1628
  117POPC   D2A 1711   6.970  10.710   6.589  0.0173  0.0257 -0.0294
  117POPC   C3A 1712   6.955  10.858   6.122 -0.1102 -0.0291  0.0199
  117POPC   C4A 1713   6.901  10.725   5.639  0.0854  0.0772  0.2359
  117POPC   C1B 1714   7.085  10.444   7.033 -0.0388  0.2582  0.1942
  117POPC   C2B 1715   7.418  10.129   6.868  0.0687  0.1195 -0.1550
  117POPC   C3B 1716   7.646   9.825   6.554  0.2150 -0.1564 -0.0694
  117POPC   C4B 1717   8.057   9.793   6.455 -0.1222  0.0990 -0.2759
  118POPC   NC3 1718   2.243   6.526   7.404  0.1537 -0.0625  0.2507
  118POPC   PO4 1719   2.054   6.951   7.470 -0.2579  0.1195  0.2995
  118POPC   GL1 1720   1.951   7.047   6.968  0.1239 -0.4326  0.5559
  118POPC   GL2 1721   2.211   6.932   6.798 -0.0495 -0.0710  0.1251
  118POPC   C1A 1722   1.721   7.160   6.552  0.0006  0.0357 -0.0098
  118POPC   D2A 1723   1.826   7.225   6.084  0.0785 -0.3457  0.0021
  118POPC   C3A 1724   1.708   6.965   5.733 -0.1468 -0.0573  0.0186
  118POPC   C4A 1725   1.550   6.573   5.614 -0.1360  0.1767 -0.0210
  118POPC   C1B 1726   2.197   6.828   6.384  0.1353 -0.0494  0.0501
  118POPC   C2B 1727   2.200   6.831   5.906 -0.1817 -0.0722  0.3977
  118POPC   C3B 1728   2.175   6.891   5.503  0.0039  0.3061  0.3039
  118POPC   C4B 1729   1.855   6.806   5.197  0.0736  0.0928 -0.0371
  119POPC   NC3 1730   5.906   8.899   7.895 -0.2289 -0.2689 -0.0487
  119POPC   PO4 1731   5.727   9.060   7.480 -0.0312 -0.1083  0.1920
  119POPC   GL1 1732   5.890   9.427   7.329 -0.1835  0.0344  0.4599
  119POPC   GL2 1733   6.189   9.226   7.138  0.0484  0.1228 -0.0388
  119POPC   C1A 1734   6.004   9.649   6.903  0.0239  0.3189 -0.0591
  119POPC   D2A 1735   5.680   9.829   6.650 -0.1586 -0.1444 -0.1710
  119POPC   C3A 1736   5.541   9.875   6.200 -0.0670  0.3902  0.1013
  119POPC   C4A 1737   5.199  10.096   6.001  0.0136  0.1477  0.0028
  119POPC   C1B 1738   5.979   9.111   6.737  0.1121  0.0820 -0.0525
  119POPC   C2B 1739   5.883   9.029   6.306  0.2015 -0.1674 -0.2655
  119POPC   C3B 1740   5.580   9.308   6.125 -0.0129 -0.1853 -0.0758
  119POPC   C4B 1741   5.214   9.618   5.938  0.2014  0.0343 -0.1903
  120POPC   NC3 1742   9.996   3.460   7.703 -0.2861  0.4447 -0.0861
  120POPC   PO4 1743  10.224   3.819   7.436  0.1970  0.1737  0.4456
  120POPC   GL1 1744  10.197   3.895   7.052  0.0759 -0.1915  0.2902
  120POPC   GL2 1745  10.504   3.843   6.835 -0.2554  0.2310  0.0701
  120POPC   C1A 1746   9.916   3.849   6.728  0.0119  0.2970 -0.0378
  120POPC   D2A 1747  10.019   3.719   6.313 -0.0627  0.1412  0.0225
  120POPC   C3A 1748   9.996   4.097   6.007 -0.0896  0.3359 -0.2985
  120POPC   C4A 1749   9.814   4.245   5.582 -0.0419  0.0079 -0.0423
  120POPC   C1B 1750  10.373   4.086   6.474  0.0925  0.0865  0.0101
  120POPC   C2B 1751  10.510   4.168   5.973 -0.1945 -0.0618  0.0289
  120POPC   C3B 1752  10.683   4.492   5.779  0.0636 -0.2094  0.1590
  120POPC   C4B 1753  10.938   4.836   5.972 -0.1377  0.0874  0.1088
  121POPC   NC3 1754  10.312   9.768   7.739  0.2119  0.1685  0.5292
  121POPC   PO4 1755  10.064  10.058   7.775  0.0421 -0.0046  0.1774
  121POPC   GL1 1756  10.163  10.022   7.331  0.2220  0.1485  0.0901
  121POPC   GL2 1757  10.522  10.133   7.288  0.1682  0.1894  0.2478
  121POPC   C1A 1758  10.335   9.643   7.007 -0.2028 -0.1744 -0.0944
  121POPC   D2A 1759  10.298   9.525   6.556  0.1858 -0.1860 -0.2367
  121POPC   C3A 1760  10.477   9.568   6.167  0.1072  0.0838 -0.0255
  121POPC   C4A 1761  10.637   9.962   5.968 -0.0129  0.1798 -0.2070
  121POPC   C1B 1762  10.371  10.189   6.862  0.0715 -0.0664  0.0408
  121POPC   C2B 1763  10.470  10.054   6.476  0.1621  0.0594  0.0775
  121POPC   C3B 1764  10.301  10.287   6.111 -0.1284  0.1466 -0.1399
  121POPC   C4B 1765  10.135  10.480   5.736  0.1261  0.0175  0.1601
  122POPC   NC3 1766   8.724   3.658   7.815  0.0696 -0.0501 -0.1101
  122POPC   PO4 1767   8.820   4.025   7.562 -0.0257 -0.1632  0.1543
  122POPC   GL1 1768   9.014   3.876   7.145  0.0739  0.0049 -0.0673
  122POPC   GL2 1769   8.803   4.143   6.993  0.0181  0.1145  0.1279
  122POPC   C1A 1770   9.381   4.120   6.860  0.1796  0.3197  0.4607
  122POPC   D2A 1771   9.406   4.437   6.615 -0.0084  0.1486  0.0819
  122POPC   C3A 1772   9.255   4.700   6.283  0.2378  0.1021 -0.0618
  122POPC   C4A 1773   9.166   4.792   5.870  0.0783 -0.3477  0.2876
  122POPC   C1B 1774   8.434   4.193   6.634  0.2123 -0.0749 -0.2124
  122POPC   C2B 1775   8.501   4.606   6.384  0.1286  0.0996 -0.3356
  122POPC   C3B 1776   8.319   4.983   6.213  0.0773 -0.0047  0.0862
  122POPC   C4B 1777   8.251   5.115   5.846  0.2535 -0.1715  0.1060
  123POPC   NC3 1778   7.867   0.201   7.842  0.2249 -0.0170  0.0569
  123POPC   PO4 1779   7.460   0.109   7.721  0.1205 -0.0874 -0.1717
  123POPC   GL1 1780   7.504   0.172   7.322  0.4294  0.2487 -0.2895
  123POPC   GL2 1781   7.585  -0.135   7.215 -0.4467 -0.2673 -0.0803
  123POPC   C1A 1782   7.224   0.077   6.961 -0.1671 -0.0959 -0.0419
  123POPC   D2A 1783   7.045   0.278   6.599  0.2990  0.0353  0.0242
  123POPC   C3A 1784   6.994   0.495   6.383 -0.0998  0.0177 -0.1461
  123POPC   C4A 1785   7.110   0.444   5.953 -0.2575  0.0626 -0.0919
  123POPC   C1B 1786   7.586  -0.307   6.846  0.0895  0.0549 -0.2847
  123POPC   C2B 1787   7.497  -0.387   6.430 -0.2249 -0.0388  0.1466
  123POPC   C3B 1788   7.438  -0.751   6.347  0.1630 -0.1816 -0.1452
  123POPC   C4B 1789   7.617  -1.053   6.033  0.0495  0.2340  0.1615
  124POPC   NC3 1790   6.324   2.750   7.710  0.3207  0.1404 -0.1407
  124POPC   PO4 1791   6.185   3.050   7.461 -0.0499  0.1507 -0.1946
  124POPC   GL1 1792   6.503   3.115   7.135  0.2148 -0.2954 -0.0237
  124POPC   GL2 1793   6.768   3.253   7.122 -0.1285  0.0973  0.0112
  124POPC   C1A 1794   6.707   2.887   6.824 -0.1995  0.1671 -0.1229
  124POPC   D2A 1795   6.972   2.897   6.526 -0.1001  0.2083  0.1090
  124POPC   C3A 1796   7.301   2.566   6.593 -0.7866 -0.0327  0.0731
  124POPC   C4A 1797   7.710   2.420   6.671  0.2244 -0.0274  0.0464
  124POPC   C1B 1798   7.080   3.426   6.767  0.1983  0.0086 -0.0017
  124POPC   C2B 1799   7.499   3.608   6.728 -0.0279  0.1775  0.1482
  124POPC   C3B 1800   7.672   3.930   6.728  0.2836  0.0252  0.0209
  124POPC   C4B 1801   8.056   3.894   6.624 -0.0893 -0.1281 -0.3453
  125POPC   NC3 1802   5.176   7.780   7.638 -0.1470  0.3561 -0.0122
  125POPC   PO4 1803   5.116   7.388   7.449  0.2855 -0.4149 -0.3395
  125POPC   GL1 1804   5.085   7.511   7.064 -0.3917  0.1780 -0.3613
  125POPC   GL2 1805   5.253   7.358   6.828  0.3996  0.0277  0.0364
  125POPC   C1A 1806   4.850   7.703   6.720  0.1268 -0.0569 -0.1068
  125POPC   D2A 1807   4.576   7.637   6.462 -0.3049 -0.4209  0.1292
  125POPC   C3A 1808   4.723   7.737   5.991 -0.0849  0.0395  0.0838
  125POPC   C4A 1809   4.977   7.651   5.604 -0.1366  0.0039  0.1057
  125POPC   C1B 1810   5.696   7.295   6.849 -0.2816  0.0954 -0.2259
  125POPC   C2B 1811   5.894   7.084   6.434  0.0446 -0.1204  0.0104
  125POPC   C3B 1812   6.128   7.098   6.009 -0.1908 -0.1896 -0.1680
  125POPC   C4B 1813   6.514   6.820   5.787  0.1786 -0.3131  0.1298
  126POPC   NC3 1814   8.096   6.253   7.710  0.1885  0.1983 -0.2060
  126POPC   PO4 1815   7.760   6.292   7.382  0.0172  0.3410  0.1167
  126POPC   GL1 1816   7.482   6.155   7.034 -0.2350  0.2564  0.0480
  126POPC   GL2 1817   7.196   6.144   6.981  0.1255 -0.2426 -0.0978
  126POPC   C1A 1818   7.479   6.196   6.608 -0.3946 -0.0383 -0.1095
  126POPC   D2A 1819   7.728   5.901   6.333 -0.2078 -0.2114 -0.0564
  126POPC   C3A 1820   8.076   5.823   6.178 -0.2525 -0.0349  0.0618
  126POPC   C4A 1821   8.438   5.596   6.052  0.0962  0.0267  0.1630
  126POPC   C1B 1822   7.040   6.378   6.558  0.0548 -0.0300  0.1454
  126POPC   C2B 1823   6.951   6.565   6.142 -0.1186 -0.1174  0.0957
  126POPC   C3B 1824   6.920   6.545   5.707  0.1647 -0.0566 -0.2958
  126POPC   C4B 1825   7.172   6.356   5.307  0.1772  0.0418  0.0472
  127POPC   NC3 1826   7.178   7.526   7.856 -0.1845  0.0287  0.1141
  127POPC   PO4 1827   6.876   7.775   7.832  0.4425 -0.1196  0.2913
  127POPC   GL1 1828   7.017   7.833   7.459 -0.0761  0.1362 -0.2708
  127POPC   GL2 1829   6.881   8.043   7.211 -0.0706  0.0023 -0.1684
  127POPC   C1A 1830   7.260   7.800   6.957 -0.3910  0.0591 -0.1376
  127POPC   D2A 1831   7.299   7.873   6.478  0.1136 -0.1160 -0.0913
  127POPC   C3A 1832   7.247   8.332   6.420 -0.2498 -0.2218  0.4111
  127POPC   C4A 1833   7.175   8.679   6.108 -0.1975  0.1662 -0.0124
  127POPC   C1B 1834   6.836   8.053   6.712 -0.1026 -0.0488  0.2363
  127POPC   C2B 1835   6.848   8.067   6.208 -0.0591  0.4228  0.0743
  127POPC   C3B 1836   6.790   8.131   5.795 -0.0914 -0.1339  0.0506
  127POPC   C4B 1837   6.614   8.447   5.490 -0.1587  0.2304 -0.0697
  128POPC   NC3 1838   8.919   7.396   7.636  0.0008  0.3487 -0.1017
  128POPC   PO4 1839   9.051   7.846   7.629  0.1498 -0.1401  0.1099
  128POPC   GL1 1840   9.093   8.189   7.474 -0.1509  0.0687  0.0490
  128POPC   GL2 1841   9.321   8.359   7.616  0.0116 -0.3429  0.0637
  128POPC   C1A 1842   9.235   8.335   7.116  0.4398 -0.4989 -0.1230
  128POPC   D2A 1843   9.370   8.526   6.805  0.1659 -0.1315  0.2235
  128POPC   C3A 1844   9.024   8.402   6.376  0.1927 -0.0101 -0.3020
  128POPC   C4A 1845   8.975   8.514   5.986 -0.1538 -0.1563 -0.3903
  128POPC   C1B 1846   9.536   8.717   7.414 -0.1343  0.0088  0.2150
  128POPC   C2B 1847  10.036   8.783   7.366 -0.2246 -0.5376 -0.1124
  128POPC   C3B 1848  10.503   8.816   7.351  0.0880 -0.0667  0.0718
  128POPC   C4B 1849  10.788   9.181   7.166  0.2258  0.3589  0.0819
  129POPC   NC3 1850   0.893   2.263   7.770 -0.1650 -0.0906  0.2744
  129POPC   PO4 1851   0.677   1.848   7.829  0.0487  0.0318 -0.0245
  129POPC   GL1 1852   0.783   1.917   7.341 -0.3411  0.1896 -0.0926
  129POPC   GL2 1853   0.948   2.277   7.240  0.0546  0.1159 -0.0519
  129POPC   C1A 1854   1.069   1.771   7.106  0.1183 -0.1822  0.1680
  129POPC   D2A 1855   1.201   1.950   6.670 -0.0836 -0.0288 -0.1750
  129POPC   C3A 1856   1.160   1.588   6.448 -0.0498  0.1461 -0.0305
  129POPC   C4A 1857   1.263   1.352   6.027  0.1020 -0.2920 -0.1909
  129POPC   C1B 1858   1.171   2.369   6.902 -0.4127  0.0131 -0.0728
  129POPC   C2B 1859   1.284   2.400   6.460  0.1953  0.0062  0.2385
  129POPC   C3B 1860   1.385   2.373   5.995  0.2096  0.4723 -0.3179
  129POPC   C4B 1861   1.388   2.062   5.656 -0.3093  0.2811 -0.0484
  130POPC   NC3 1862   4.903   3.035   7.852 -0.1529  0.0496  0.3298
  130POPC   PO4 1863   4.875   3.028   7.405  0.0211 -0.0148  0.0833
  130POPC   GL1 1864   4.952   3.052   6.923 -0.0605 -0.0820  0.0082
  130POPC   GL2 1865   4.678   2.972   6.771  0.0751  0.1568 -0.3315
  130POPC   C1A 1866   4.968   3.281   6.487 -0.1117  0.1893  0.0273
  130POPC   D2A 1867   5.138   3.475   6.049  0.2342  0.1417 -0.0089
  130POPC   C3A 1868   4.741   3.610   5.801 -0.0878 -0.1277 -0.3157
  130POPC   C4A 1869   4.400   3.493   5.805  0.0631 -0.0189 -0.0259
  130POPC   C1B 1870   4.522   2.711   6.395  0.3363 -0.0542  0.1325
  130POPC   C2B 1871   4.714   2.678   6.010  0.0669 -0.4348 -0.1521
  130POPC   C3B 1872   4.808   2.671   5.544  0.1749 -0.2313 -0.3768
  130POPC   C4B 1873   4.837   2.436   5.093  0.0821  0.0486 -0.2537
  131POPC   NC3 1874   5.235   8.056   8.086  0.1069  0.1889  0.0910
  131POPC   PO4 1875   5.291   8.293   7.757 -0.0481  0.0102  0.2171
  131POPC   GL1 1876   5.354   8.166   7.350  0.0498 -0.0402  0.2613
  131POPC   GL2 1877   5.149   8.008   7.089  0.1934  0.0888 -0.4514
  131POPC   C1A 1878   5.650   8.362   7.051  0.1042 -0.0912  0.0237
  131POPC   D2A 1879   5.740   8.594   6.678 -0.2991  0.1603  0.0677
  131POPC   C3A 1880   5.442   8.730   6.394 -0.2638 -0.0000 -0.1714
  131POPC   C4A 1881   5.070   8.595   6.249  0.3001 -0.0029  0.0395
  131POPC   C1B 1882   5.531   7.852   6.854  0.0287 -0.0624  0.1899
  131POPC   C2B 1883   5.434   7.714   6.439 -0.0057  0.1881  0.1722
  131POPC   C3B 1884   5.113   7.441   6.315  0.1054  0.2039  0.1155
  131POPC   C4B 1885   4.908   7.239   5.927 -0.2250 -0.1177  0.3428
  132POPC   NC3 1886   3.620   7.656   7.269 -0.2309 -0.0581  0.0937
  132POPC   PO4 1887   3.193   7.823   7.248  0.2693 -0.1383 -0.2391
  132POPC   GL1 1888   3.048   7.854   6.862 -0.1073  0.1823 -0.2111
  132POPC   GL2 1889   3.293   8.010   6.775  0.3818  0.0060  0.0655
  132POPC   C1A 1890   2.960   7.883   6.437  0.0331  0.0473 -0.0643
  132POPC   D2A 1891   3.175   7.983   5.976 -0.0102 -0.4155 -0.1226
  132POPC   C3A 1892   3.226   7.990   5.509 -0.1297  0.0934 -0.0578
  132POPC   C4A 1893   3.149   7.671   5.140  0.1464 -0.0371  0.2623
  132POPC   C1B 1894   3.583   7.870   6.419 -0.1418  0.0260 -0.0660
  132POPC   C2B 1895   3.720   8.090   5.894 -0.2772  0.0162  0.0584
  132POPC   C3B 1896   4.141   8.258   5.819  0.0249  0.2616 -0.3203
  132POPC   C4B 1897   4.470   8.078   5.599 -0.3544 -0.2119  0.2425
  133POPC   NC3 1898   9.577   0.509   7.337  0.1773 -0.0836 -0.1672
  133POPC   PO4 1899   9.820   0.397   7.707 -0.0152 -0.3403 -0.0725
  133POPC   GL1 1900  10.103   0.413   7.268  0.2579 -0.0530  0.3156
  133POPC   GL2 1901  10.104  -0.010   7.191 -0.2585 -0.1892 -0.1597
  133POPC   C1A 1902  10.207   0.265   6.813 -0.0061 -0.0312 -0.0680
  133POPC   D2A 1903  10.258   0.097   6.474 -0.0638 -0.1636 -0.1504
  133POPC   C3A 1904  10.443   0.437   6.218 -0.1360  0.0073 -0.0748
  133POPC   C4A 1905  10.489   0.794   5.826 -0.0230 -0.1318  0.0922
  133POPC   C1B 1906  10.245  -0.240   6.875  0.1438 -0.0788  0.1201
  133POPC   C2B 1907  10.473  -0.324   6.512 -0.1077 -0.4091 -0.1994
  133POPC   C3B 1908  10.790  -0.567   6.248  0.2433  0.3794 -0.1210
  133POPC   C4B 1909  10.750  -0.493   5.806  0.0892  0.0987  0.1020
  134POPC   NC3 1910   1.174   6.417   7.219  0.0148  0.2874  0.3142
  134POPC   PO4 1911   1.021   6.112   6.953  0.1306  0.0267 -0.3141
  134POPC   GL1 1912   1.197   6.350   6.681  0.1344 -0.5079  0.0909
  134POPC   GL2 1913   0.975   6.652   6.612 -0.1554 -0.0170 -0.0316
  134POPC   C1A 1914   1.183   6.410   6.220  0.1521  0.0340 -0.0277
  134POPC   D2A 1915   1.165   6.253   5.807  0.2459  0.0220  0.1710
  134POPC   C3A 1916   0.897   6.008   5.684 -0.1328 -0.2003  0.0806
  134POPC   C4A 1917   0.495   5.938   5.551 -0.1315 -0.2896 -0.2106
  134POPC   C1B 1918   1.154   7.018   6.361  0.0057 -0.1718 -0.2299
  134POPC   C2B 1919   1.338   7.211   6.164  0.2447 -0.0532 -0.0053
  134POPC   C3B 1920   1.566   7.667   6.181 -0.0968  0.3046  0.1524
  134POPC   C4B 1921   1.462   8.116   5.901  0.7163  0.0796  0.0122
  135POPC   NC3 1922   5.923   7.162   7.580  0.0412 -0.0868  0.1075
  135POPC   PO4 1923   6.310   7.192   7.415  0.0273  0.4158 -0.0915
  135POPC   GL1 1924   6.490   7.222   6.985  0.0584  0.1162  0.1544
  135POPC   GL2 1925   6.788   7.072   7.005  0.0302 -0.0139  0.0107
  135POPC   C1A 1926   6.194   7.361   6.665 -0.0613  0.1224  0.0778
  135POPC   D2A 1927   5.932   7.651   6.540  0.1525  0.5224  0.0387
  135POPC   C3A 1928   5.937   8.109   6.581  0.0390  0.1029 -0.1976
  135POPC   C4A 1929   6.120   8.350   6.832 -0.1177  0.1397  0.0013
  135POPC   C1B 1930   6.907   7.039   6.592  0.1714 -0.1222 -0.0170
  135POPC   C2B 1931   7.127   7.050   6.280  0.0799 -0.1455  0.2448
  135POPC   C3B 1932   7.014   7.131   5.827 -0.0426  0.1746  0.3525
  135POPC   C4B 1933   7.090   7.281   5.497 -0.1190 -0.2297 -0.2403
  136POPC   NC3 1934   4.252   8.089   7.739  0.1071  0.1266  0.0101
  136POPC   PO4 1935   4.045   8.137   7.364  0.1094 -0.0528 -0.1965
  136POPC   GL1 1936   4.175   8.361   7.016  0.0257  0.0137  0.1613
  136POPC   GL2 1937   4.493   8.540   6.991 -0.3278 -0.2169  0.1508
  136POPC   C1A 1938   4.131   8.552   6.693 -0.1680 -0.0102  0.0096
  136POPC   D2A 1939   4.241   8.617   6.301  0.2247 -0.2016  0.1201
  136POPC   C3A 1940   4.513   8.360   6.163 -0.3728 -0.0304 -0.0232
  136POPC   C4A 1941   4.832   8.303   5.893 -0.0672  0.2135 -0.2662
  136POPC   C1B 1942   4.624   8.704   6.562 -0.0537  0.3528 -0.1126
  136POPC   C2B 1943   4.660   8.832   6.086  0.1360 -0.0119  0.1543
  136POPC   C3B 1944   4.439   8.693   5.758 -0.4768  0.0191 -0.0052
  136POPC   C4B 1945   4.455   8.564   5.373 -0.1342 -0.1729 -0.3271
  137POPC   NC3 1946   4.305   9.250   8.282  0.3298  0.0689 -0.1558
  137POPC   PO4 1947   4.077   9.349   7.923  0.2394 -0.2585 -0.0348
  137POPC   GL1 1948   4.028   9.651   7.576  0.0197 -0.1447 -0.0445
  137POPC   GL2 1949   3.768   9.608   7.319 -0.2704 -0.0969 -0.2245
  137POPC   C1A 1950   4.192   9.948   7.255 -0.0787 -0.0180  0.0837
  137POPC   D2A 1951   4.116   9.880   6.807 -0.1306  0.2297 -0.0042
  137POPC   C3A 1952   4.368   9.523   6.696 -0.0162 -0.1651 -0.0352
  137POPC   C4A 1953   4.756   9.487   6.387 -0.1284 -0.0497  0.1787
  137POPC   C1B 1954   4.185   9.420   7.193  0.2526  0.0543 -0.3996
  137POPC   C2B 1955   4.552   9.555   7.125 -0.1489  0.0058  0.0664
  137POPC   C3B 1956   4.959   9.591   6.841 -0.0160  0.0136  0.0388
  137POPC   C4B 1957   5.196   9.694   6.485  0.0800  0.1379 -0.0289
  138POPC   NC3 1958   9.372  10.402   7.843 -0.2456 -0.1932  0.0427
  138POPC   PO4 1959   9.306  10.568   7.381 -0.0342 -0.2684  0.2252
  138POPC   GL1 1960   9.547  10.371   7.017  0.0546 -0.0299 -0.0937
  138POPC   GL2 1961   9.897  10.440   7.053 -0.2480 -0.1285 -0.0867
  138POPC   C1A 1962   9.495  10.372   6.555  0.0255 -0.1388  0.0067
  138POPC   D2A 1963   9.258  10.338   6.179 -0.0127  0.0824 -0.2172
  138POPC   C3A 1964   8.966  10.224   5.849 -0.2081 -0.1510  0.1716
  138POPC   C4A 1965   8.538  10.234   5.889 -0.0420 -0.2665 -0.1576
  138POPC   C1B 1966   9.985  10.357   6.541  0.0162  0.0452 -0.1629
  138POPC   C2B 1967   9.836  10.330   6.129 -0.3190  0.5448  0.0778
  138POPC   C3B 1968   9.605  10.534   5.714  0.1231 -0.0176  0.1007
  138POPC   C4B 1969   9.382  10.908   5.484 -0.3482 -0.0039 -0.1823
  139POPC   NC3 1970   5.729   2.951   7.206 -0.0493  0.5121  0.3474
  139POPC   PO4 1971   5.322   3.267   7.373 -0.2330 -0.0116  0.1237
  139POPC   GL1 1972   5.404   3.289   6.965  0.0912  0.1783  0.0378
  139POPC   GL2 1973   5.790   3.364   6.847  0.0433  0.2139  0.0614
  139POPC   C1A 1974   5.481   3.312   6.444  0.2087 -0.2700 -0.0180
  139POPC   D2A 1975   5.588   3.224   6.025  0.0222  0.0270  0.1033
  139POPC   C3A 1976   5.353   3.419   5.617 -0.2653 -0.2079 -0.2190
  139POPC   C4A 1977   5.338   3.869   5.364 -0.0365 -0.0333 -0.0854
  139POPC   C1B 1978   6.105   3.083   6.720  0.2808  0.4428  0.4126
  139POPC   C2B 1979   6.385   3.023   6.464 -0.1299  0.1165 -0.0470
  139POPC   C3B 1980   6.693   3.005   6.108 -0.2996  0.0234  0.1371
  139POPC   C4B 1981   6.912   2.632   6.072 -0.3444 -0.2386  0.0467
  140POPC   NC3 1982   0.298   2.482   8.003 -0.0484 -0.0820  0.1248
  140POPC   PO4 1983   0.653   2.629   7.633  0.2559 -0.0734 -0.2353
  140POPC   GL1 1984   0.508   2.586   7.179 -0.0192 -0.2988  0.0205
  140POPC   GL2 1985   0.660   2.735   7.044 -0.1548  0.2747  0.1856
  140POPC   C1A 1986   0.603   2.294   6.751 -0.2686 -0.1253 -0.1156
  140POPC   D2A 1987   0.846   2.215   6.209 -0.0399  0.1035 -0.2610
  140POPC   C3A 1988   0.569   1.963   5.885  0.1971  0.0214 -0.0627
  140POPC   C4A 1989   0.401   1.731   5.667 -0.2243 -0.1785  0.1237
  140POPC   C1B 1990   1.017   2.833   6.724  0.0221 -0.1575  0.0396
  140POPC   C2B 1991   1.315   2.972   6.423  0.1329  0.0830 -0.2564
  140POPC   C3B 1992   1.554   2.849   5.979  0.0287  0.1962  0.2568
  140POPC   C4B 1993   1.392   2.785   5.590  0.1717 -0.2348 -0.1799
  141POPC   NC3 1994  10.265   0.558   7.826 -0.1368  0.0158 -0.2893
  141POPC   PO4 1995  10.759   0.609   7.917 -0.2573 -0.0259  0.4282
  141POPC   GL1 1996  10.884   0.911   7.626 -0.0694  0.1020 -0.0271
  141POPC   GL2 1997  10.536   0.930   7.614  0.3066  0.0040 -0.2397
  141POPC   C1A 1998  10.949   0.862   7.163 -0.1574 -0.1118  0.1438
  141POPC   D2A 1999  11.095   0.695   6.658 -0.1266  0.1390 -0.0194
  141POPC   C3A 2000  10.902   0.828   6.186 -0.0379  0.1809 -0.0731
  141POPC   C4A 2001  10.412   1.045   6.239  0.3352  0.0315  0.0692
  141POPC   C1B 2002  10.286   0.880   7.121  0.4822 -0.1648 -0.1100
  141POPC   C2B 2003  10.190   0.758   6.750  0.1552  0.0632  0.2494
  141POPC   C3B 2004  10.019   0.684   6.360 -0.0908 -0.0666  0.0730
  141POPC   C4B 2005   9.584   0.701   6.192 -0.2178  0.0054 -0.2457
  142POPC   NC3 2006   8.699   4.972   7.858 -0.0750  0.0196 -0.2476
  142POPC   PO4 2007   8.759   5.035   7.431 -0.0361 -0.1001 -0.0335
  142POPC   GL1 2008   8.859   5.245   7.019  0.1129 -0.0707  0.0078
  142POPC   GL2 2009   9.066   5.026   6.884 -0.0693  0.0204  0.0209
  142POPC   C1A 2010   8.818   5.621   6.916 -0.2792  0.2524  0.1524
  142POPC   D2A 2011   8.727   6.032   6.750 -0.0281  0.2783 -0.2446
  142POPC   C3A 2012   9.011   6.316   6.770 -0.0524  0.1262 -0.3153
  142POPC   C4A 2013   9.294   6.314   6.507 -0.0901  0.0238 -0.0529
  142POPC   C1B 2014   9.083   5.322   6.521 -0.2049  0.1793 -0.1296
  142POPC   C2B 2015   8.961   5.472   6.112  0.1216 -0.1238 -0.2804
  142POPC   C3B 2016   8.732   5.309   5.684  0.1318  0.1952  0.0074
  142POPC   C4B 2017   8.601   5.018   5.377 -0.1486 -0.1121 -0.1192
  143POPC   NC3 2018   3.924   1.771   7.781  0.0274 -0.1977  0.4105
  143POPC   PO4 2019   3.717   2.143   7.589 -0.0786 -0.1510 -0.2552
  143POPC   GL1 2020   3.868   1.910   7.175 -0.3066  0.1944  0.0204
  143POPC   GL2 2021   4.113   2.232   7.171 -0.0432 -0.1946 -0.0299
  143POPC   C1A 2022   4.025   1.638   6.895 -0.0651 -0.0664 -0.0167
  143POPC   D2A 2023   4.352   1.482   6.696 -0.0121 -0.0050  0.0072
  143POPC   C3A 2024   4.326   1.410   6.192  0.0013  0.3391  0.0196
  143POPC   C4A 2025   4.547   1.203   5.905 -0.1733  0.0161  0.1364
  143POPC   C1B 2026   4.306   2.008   6.832 -0.0698 -0.0053 -0.1824
  143POPC   C2B 2027   4.347   1.951   6.378  0.0838  0.3720  0.0836
  143POPC   C3B 2028   4.191   1.842   5.950  0.2477 -0.0118  0.2802
  143POPC   C4B 2029   4.361   1.729   5.543 -0.0742  0.1311  0.2824
  144POPC   NC3 2030   1.693   1.902   7.685  0.2463  0.0115 -0.1075
  144POPC   PO4 2031   1.546   1.472   7.743 -0.3433  0.0873  0.0035
  144POPC   GL1 2032   1.680   1.549   7.314  0.2830 -0.0497  0.0335
  144POPC   GL2 2033   1.914   1.404   7.137 -0.1108 -0.1755 -0.2810
  144POPC   C1A 2034   1.595   1.815   6.973  0.3715  0.0344  0.2941
  144POPC   D2A 2035   1.691   2.041   6.439 -0.3684 -0.2346 -0.3753
  144POPC   C3A 2036   1.418   1.978   6.232  0.1603 -0.1469 -0.0314
  144POPC   C4A 2037   1.096   1.853   6.006 -0.0220 -0.7056 -0.2805
  144POPC   C1B 2038   1.966   1.156   6.682 -0.2799  0.3543  0.1507
  144POPC   C2B 2039   2.039   0.892   6.354  0.0885 -0.4028  0.0154
  144POPC   C3B 2040   1.913   0.742   5.945 -0.0107  0.2001 -0.3559
  144POPC   C4B 2041   1.896   0.660   5.534 -0.1972 -0.1263 -0.1704
  145POPC   NC3 2042   2.517  10.845   7.407 -0.0186  0.1386 -0.2178
  145POPC   PO4 2043   2.052  10.635   7.375  0.2617  0.3920 -0.1921
  145POPC   GL1 2044   2.070  10.970   7.066  0.1016 -0.2159 -0.3167
  145POPC   GL2 2045   2.093  10.743   6.892  0.1680  0.2016 -0.0831
  145POPC   C1A 2046   2.292  11.097   6.680  0.1662 -0.1533  0.1420
  145POPC   D2A 2047   2.520  11.034   6.315  0.0640  0.1944 -0.2491
  145POPC   C3A 2048   2.315  10.826   5.953  0.2142 -0.1115 -0.0191
  145POPC   C4A 2049   2.367  10.418   5.738 -0.0998 -0.0816 -0.0499
  145POPC   C1B 2050   2.062  10.764   6.374  0.5252  0.0938  0.0401
  145POPC   C2B 2051   1.820  10.387   6.172  0.1031 -0.1235 -0.1568
  145POPC   C3B 2052   1.497  10.279   5.930  0.0815 -0.2296  0.0202
  145POPC   C4B 2053   1.097  10.474   5.924  0.1635 -0.0615  0.0204
  146POPC   NC3 2054   6.834   8.524   7.240  0.0510 -0.1492 -0.0952
  146POPC   PO4 2055   6.377   8.595   7.369  0.1095  0.1102  0.3371
  146POPC   GL1 2056   6.379   8.801   6.926 -0.1936 -0.1051  0.0269
  146POPC   GL2 2057   6.564   8.543   6.842  0.1140 -0.1173  0.0954
  146POPC   C1A 2058   6.222   8.772   6.491 -0.3411 -0.1277  0.1838
  146POPC   D2A 2059   5.988   8.469   6.221  0.1803 -0.0667  0.0451
  146POPC   C3A 2060   5.674   8.627   5.983 -0.1125  0.2488  0.2125
  146POPC   C4A 2061   5.320   8.550   5.806 -0.0767 -0.3003 -0.0855
  146POPC   C1B 2062   6.752   8.689   6.409  0.0754 -0.3808  0.3743
  146POPC   C2B 2063   6.641   8.955   6.050 -0.1274 -0.0083 -0.0888
  146POPC   C3B 2064   6.508   9.161   5.785  0.0280 -0.0634  0.1750
  146POPC   C4B 2065   6.231   9.279   5.762 -0.2762  0.1545 -0.2368
  147POPC   NC3 2066   7.801   7.147   7.533 -0.1493 -0.0735 -0.2165
  147POPC   PO4 2067   7.673   6.761   7.641  0.3822 -0.0260 -0.1922
  147POPC   GL1 2068   7.619   6.747   7.178  0.2342 -0.2641  0.1888
  147POPC   GL2 2069   7.812   6.987   7.067 -0.0017  0.1092 -0.1189
  147POPC   C1A 2070   7.784   6.611   6.719 -0.0591  0.1680  0.0497
  147POPC   D2A 2071   8.118   6.773   6.332  0.0424 -0.0512  0.2143
  147POPC   C3A 2072   8.384   6.542   6.064 -0.1814 -0.0077  0.0582
  147POPC   C4A 2073   8.560   6.602   5.670 -0.0969  0.1439 -0.2533
  147POPC   C1B 2074   8.208   6.930   6.788 -0.1814 -0.0056 -0.1003
  147POPC   C2B 2075   8.549   7.053   6.593  0.1473  0.1913  0.1867
  147POPC   C3B 2076   8.974   7.182   6.646 -0.0067  0.2891  0.0826
  147POPC   C4B 2077   9.348   7.393   6.629 -0.2007 -0.1985  0.1438
  148POPC   NC3 2078   1.240   9.380   7.517  0.0762  0.1114  0.2000
  148POPC   PO4 2079   0.839   9.536   7.601 -0.1516 -0.1550 -0.0518
  148POPC   GL1 2080   0.726   9.351   7.322 -0.1961 -0.2196 -0.0672
  148POPC   GL2 2081   0.447   9.144   7.349 -0.0214  0.0931  0.0249
  148POPC   C1A 2082   0.826   9.119   6.903  0.1395 -0.1943  0.2099
  148POPC   D2A 2083   0.995   9.233   6.465 -0.0611  0.0342  0.1162
  148POPC   C3A 2084   1.111   9.531   6.124  0.1591  0.0006 -0.3738
  148POPC   C4A 2085   1.215   9.960   6.184  0.0167  0.0027 -0.0217
  148POPC   C1B 2086   0.265   9.377   7.015 -0.0282 -0.1389  0.1017
  148POPC   C2B 2087   0.323   9.725   6.812  0.1779 -0.1491  0.1455
  148POPC   C3B 2088   0.511  10.090   6.708  0.1406  0.3947 -0.1165
  148POPC   C4B 2089   0.872  10.217   6.848  0.0364  0.0937 -0.0989
  149POPC   NC3 2090   9.022   9.786   8.432  0.0063 -0.0831  0.0355
  149POPC   PO4 2091   9.116   9.436   8.169 -0.2991 -0.1454  0.0014
  149POPC   GL1 2092   9.289   9.477   7.758  0.0680 -0.0938 -0.1413
  149POPC   GL2 2093   9.298   9.097   7.584 -0.2645  0.2006  0.0612
  149POPC   C1A 2094   9.279   9.556   7.321 -0.1357 -0.3190 -0.1282
  149POPC   D2A 2095   9.344   9.446   6.824 -0.1893  0.3680  0.0211
  149POPC   C3A 2096   9.371   9.025   6.661 -0.1583 -0.0035  0.3697
  149POPC   C4A 2097   9.436   8.716   6.354 -0.1126 -0.1134 -0.4457
  149POPC   C1B 2098   9.580   9.108   7.167 -0.2209  0.0738 -0.3246
  149POPC   C2B 2099   9.816   8.955   6.814  0.0803 -0.1959  0.1637
  149POPC   C3B 2100   9.957   9.057   6.511  0.0636 -0.0991  0.0168
  149POPC   C4B 2101  10.257   9.086   6.181 -0.4135 -0.1904 -0.1504
  150POPC   NC3 2102   8.571   7.965   7.525  0.2272  0.5769 -0.0844
  150POPC   PO4 2103   8.199   7.775   7.525  0.1483 -0.0635  0.3008
  150POPC   GL1 2104   7.950   7.789   7.263  0.3787 -0.0115  0.0717
  150POPC   GL2 2105   7.782   7.526   7.235 -0.2354  0.1814 -0.0653
  150POPC   C1A 2106   7.697   7.962   6.962 -0.0719  0.2574  0.1518
  150POPC   D2A 2107   7.740   8.426   6.719 -0.3161 -0.0226  0.0198
  150POPC   C3A 2108   7.719   8.442   6.230 -0.0837  0.0778  0.3013
  150POPC   C4A 2109   7.411   8.184   5.943  0.2183 -0.1196  0.0242
  150POPC   C1B 2110   7.657   7.434   6.862 -0.1874 -0.0617 -0.2680
  150POPC   C2B 2111   7.637   7.136   6.590 -0.1428 -0.0303 -0.1734
  150POPC   C3B 2112   7.648   6.983   6.225 -0.2265  0.2185 -0.0475
  150POPC   C4B 2113   7.827   6.910   5.874  0.0400  0.2470  0.0584
  151POPC   NC3 2114   3.404   6.390   7.791 -0.0914 -0.0199 -0.6427
  151POPC   PO4 2115   3.058   6.455   7.531  0.0542  0.0926  0.0727
  151POPC   GL1 2116   2.925   6.262   7.121  0.2217  0.0898  0.1148
  151POPC   GL2 2117   2.573   6.280   7.078  0.0143 -0.0873 -0.2294
  151POPC   C1A 2118   3.042   6.497   6.717  0.1222  0.3470  0.0821
  151POPC   D2A 2119   2.980   6.583   6.208 -0.2727  0.2701 -0.5051
  151POPC   C3A 2120   3.320   6.633   5.966  0.2000 -0.2068 -0.1510
  151POPC   C4A 2121   3.553   6.344   5.795  0.3018  0.1004  0.3555
  151POPC   C1B 2122   2.666   6.198   6.685  0.3208  0.1865  0.2655
  151POPC   C2B 2123   2.634   6.154   6.203  0.4469 -0.1258 -0.1264
  151POPC   C3B 2124   2.453   6.199   5.833  0.1457  0.0512 -0.2060
  151POPC   C4B 2125   2.512   6.472   5.489  0.0131 -0.2693  0.0391
  152POPC   NC3 2126  10.002   7.383   7.724  0.3049 -0.0090  0.2084
  152POPC   PO4 2127  10.272   7.587   7.354 -0.0846  0.1788  0.0857
  152POPC   GL1 2128  10.295   7.522   6.874 -0.0968  0.1081  0.3233
  152POPC   GL2 2129  10.308   7.186   6.814 -0.1100 -0.2850  0.2164
  152POPC   C1A 2130  10.373   7.723   6.522 -0.0900 -0.0632  0.1775
  152POPC   D2A 2131  10.539   7.881   6.137 -0.0390  0.0938  0.3419
  152POPC   C3A 2132  10.404   7.755   5.720 -0.2299  0.0256  0.2390
  152POPC   C4A 2133  10.003   7.639   5.586 -0.0183 -0.1456 -0.1648
  152POPC   C1B 2134  10.426   7.030   6.409  0.2176  0.0450 -0.2076
  152POPC   C2B 2135  10.723   6.983   5.992  0.0801  0.0669  0.0905
  152POPC   C3B 2136  11.107   7.123   5.945 -0.1234 -0.1058  0.1617
  152POPC   C4B 2137  11.279   7.287   5.631  0.0722 -0.3165  0.1881
  153POPC   NC3 2138   7.771   9.164   7.296  0.2364 -0.1691  0.0175
  153POPC   PO4 2139   7.576   8.795   7.598 -0.1226  0.3457 -0.2244
  153POPC   GL1 2140   7.227   8.865   7.311  0.0081 -0.0210  0.0882
  153POPC   GL2 2141   7.212   9.190   7.181 -0.1116 -0.0376  0.0812
  153POPC   C1A 2142   7.310   8.811   6.857  0.1465 -0.0940 -0.1242
  153POPC   D2A 2143   7.595   8.861   6.518  0.1268  0.5364 -0.1508
  153POPC   C3A 2144   7.582   8.965   6.096  0.2453  0.2026  0.0313
  153POPC   C4A 2145   7.757   9.025   5.656  0.1610  0.1116  0.0290
  153POPC   C1B 2146   6.916   9.108   6.764  0.0443 -0.0757 -0.1047
  153POPC   C2B 2147   6.958   9.209   6.329  0.1615  0.0716 -0.1485
  153POPC   C3B 2148   7.002   9.235   5.917  0.0974 -0.2756 -0.0506
  153POPC   C4B 2149   6.841   8.949   5.471  0.5543 -0.0117 -0.2065
  154POPC   NC3 2150   9.681  10.062   8.069  0.1994  0.2533  0.0504
  154POPC   PO4 2151   9.240   9.915   7.994  0.1176  0.2729  0.0743
  154POPC   GL1 2152   9.479   9.962   7.605  0.2126  0.4416  0.3245
  154POPC   GL2 2153   9.212  10.124   7.375 -0.1281 -0.3097  0.0021
  154POPC   C1A 2154   9.689   9.859   7.215  0.1751  0.2283 -0.3995
  154POPC   D2A 2155   9.940   9.913   6.876 -0.2589 -0.0642 -0.0216
  154POPC   C3A 2156   9.796   9.929   6.515  0.0421 -0.2177 -0.2786
  154POPC   C4A 2157  10.063   9.863   6.070  0.1122  0.0437 -0.2233
  154POPC   C1B 2158   9.301   9.905   6.944 -0.1870 -0.2182  0.1977
  154POPC   C2B 2159   9.272   9.857   6.507 -0.2876  0.0853 -0.0689
  154POPC   C3B 2160   9.384   9.856   5.989  0.0064  0.2485  0.1943
  154POPC   C4B 2161   9.313  10.111   5.553  0.1079 -0.2059  0.0378
  155POPC   NC3 2162   2.820   9.396   7.466  0.2248  0.1745  0.1084
  155POPC   PO4 2163   3.156   9.140   7.488 -0.1762  0.0680 -0.3255
  155POPC   GL1 2164   3.168   9.016   7.038  0.1781  0.1180  0.1316
  155POPC   GL2 2165   2.748   8.890   6.883 -0.3276  0.0947 -0.2317
  155POPC   C1A 2166   3.188   8.793   6.657  0.0208  0.0213  0.0868
  155POPC   D2A 2167   3.434   8.814   6.307  0.2255 -0.0660  0.1705
  155POPC   C3A 2168   3.253   8.936   5.804  0.2928  0.3013  0.5325
  155POPC   C4A 2169   3.233   9.009   5.343  0.3651  0.0162 -0.1670
  155POPC   C1B 2170   2.311   8.753   6.682  0.0710  0.1177 -0.1353
  155POPC   C2B 2171   2.038   8.779   6.395  0.0891 -0.0174  0.1866
  155POPC   C3B 2172   2.051   8.873   5.981  0.3669 -0.0190  0.0398
  155POPC   C4B 2173   1.698   9.046   5.812 -0.2393  0.1957  0.0386
  156POPC   NC3 2174   9.819   6.306   7.793  0.0688  0.0843  0.1672
  156POPC   PO4 2175   9.905   6.621   7.433 -0.2474  0.2065 -0.2574
  156POPC   GL1 2176  10.003   6.689   7.064 -0.2247  0.2229  0.0288
  156POPC   GL2 2177  10.270   6.495   7.081 -0.0923  0.0714  0.1590
  156POPC   C1A 2178   9.878   6.995   6.676  0.0382 -0.1223  0.2789
  156POPC   D2A 2179   9.835   7.188   6.318 -0.0211 -0.1222  0.3689
  156POPC   C3A 2180   9.729   6.984   5.908 -0.2876  0.1646 -0.3171
  156POPC   C4A 2181   9.395   6.897   5.671  0.1085  0.0270 -0.0052
  156POPC   C1B 2182  10.213   6.575   6.582 -0.1649  0.0439 -0.2077
  156POPC   C2B 2183  10.169   6.812   6.086 -0.0285 -0.0956 -0.1057
  156POPC   C3B 2184  10.160   7.173   5.871  0.2033 -0.2975  0.1711
  156POPC   C4B 2185  10.101   7.642   6.073 -0.3537  0.4736  0.1093
  157POPC   NC3 2186   1.828   4.843   7.540 -0.1176  0.0853 -0.2770
  157POPC   PO4 2187   2.217   4.957   7.547  0.1019  0.1975 -0.0516
  157POPC   GL1 2188   2.234   4.976   7.079  0.2003  0.0468 -0.0308
  157POPC   GL2 2189   2.072   5.228   6.927  0.0560 -0.0304 -0.0139
  157POPC   C1A 2190   2.093   4.916   6.550 -0.0334  0.1312 -0.2983
  157POPC   D2A 2191   2.178   4.793   6.063  0.2087 -0.1213  0.0898
  157POPC   C3A 2192   2.554   4.830   5.991  0.1866 -0.0927  0.1266
  157POPC   C4A 2193   3.017   5.137   6.009 -0.0798 -0.0796 -0.1560
  157POPC   C1B 2194   2.035   5.444   6.597 -0.3004 -0.1724 -0.1448
  157POPC   C2B 2195   1.822   5.640   6.234 -0.0381  0.2696 -0.0580
  157POPC   C3B 2196   1.763   5.495   5.805  0.1964  0.2237 -0.0339
  157POPC   C4B 2197   1.741   5.098   5.718  0.3701  0.0404 -0.2670
  158POPC   NC3 2198   4.945   2.629   7.143 -0.0451 -0.0948 -0.0261
  158POPC   PO4 2199   5.312   2.739   7.134  0.1475 -0.3795  0.0866
  158POPC   GL1 2200   5.481   2.837   6.783  0.1051 -0.0771  0.0279
  158POPC   GL2 2201   5.714   2.606   6.793 -0.2006 -0.1993  0.1149
  158POPC   C1A 2202   5.625   2.831   6.373 -0.1732  0.2243  0.1897
  158POPC   D2A 2203   6.004   2.837   6.063  0.0302  0.0226  0.0844
  158POPC   C3A 2204   6.372   2.633   6.063 -0.3622 -0.0886 -0.0840
  158POPC   C4A 2205   6.595   2.495   6.431  0.0766  0.2320  0.2135
  158POPC   C1B 2206   6.012   2.548   6.511  0.3714  0.0771  0.3105
  158POPC   C2B 2207   5.975   2.268   6.163 -0.0764 -0.0015  0.1783
  158POPC   C3B 2208   5.714   1.898   6.192  0.2897  0.1853  0.1673
  158POPC   C4B 2209   5.822   1.540   6.348  0.0627 -0.1113 -0.1206
  159POPC   NC3 2210   8.927   5.896   8.195  0.0169  0.0507  0.2605
  159POPC   PO4 2211   8.769   5.988   7.722 -0.0581 -0.3790  0.0200
  159POPC   GL1 2212   8.511   6.063   7.335  0.1903 -0.2764  0.1619
  159POPC   GL2 2213   8.196   6.091   7.176 -0.1092  0.2329 -0.3100
  159POPC   C1A 2214   8.523   6.454   7.027  0.0879 -0.1286  0.2703
  159POPC   D2A 2215   8.453   6.432   6.576 -0.1836 -0.0489 -0.0146
  159POPC   C3A 2216   8.492   6.020   6.302 -0.0478  0.0543 -0.1987
  159POPC   C4A 2217   8.574   5.554   6.520  0.0866 -0.3259  0.1836
  159POPC   C1B 2218   8.211   5.940   6.771 -0.1453  0.2026 -0.1033
  159POPC   C2B 2219   8.030   6.279   6.407  0.1030 -0.0900  0.1481
  159POPC   C3B 2220   7.908   6.353   6.021  0.2550 -0.1964 -0.0961
  159POPC   C4B 2221   7.640   6.043   5.808  0.3026  0.0808  0.2075
  160POPC   NC3 2222   9.311   4.995   7.306 -0.2134 -0.0932  0.0086
  160POPC   PO4 2223   9.826   5.118   7.249 -0.1517  0.0809 -0.1189
  160POPC   GL1 2224  10.074   4.992   6.898  0.2009 -0.0160 -0.0673
  160POPC   GL2 2225  10.233   4.804   7.014  0.1063 -0.0032  0.1430
  160POPC   C1A 2226  10.287   5.032   6.472  0.0873  0.1333  0.2538
  160POPC   D2A 2227  10.566   5.096   6.171 -0.3968 -0.0555 -0.0674
  160POPC   C3A 2228  10.448   4.965   5.718  0.0083  0.0678  0.3973
  160POPC   C4A 2229  10.370   4.654   5.371 -0.0988 -0.0575 -0.0561
  160POPC   C1B 2230  10.256   4.356   6.846  0.4185  0.0029 -0.2259
  160POPC   C2B 2231   9.903   4.272   6.466 -0.1341 -0.3669  0.1932
  160POPC   C3B 2232   9.614   4.016   6.297 -0.2903 -0.3464 -0.1753
  160POPC   C4B 2233   9.270   3.949   6.269 -0.1186 -0.2052 -0.1053
  161POPC   NC3 2234   0.806   5.606   6.968  0.3349 -0.0238 -0.2628
  161POPC   PO4 2235   0.566   6.009   6.956  0.1416 -0.0654 -0.1973
  161POPC   GL1 2236   0.391   6.229   6.586  0.0489 -0.3088 -0.0110
  161POPC   GL2 2237   0.198   6.120   6.604  0.3823  0.1026  0.0701
  161POPC   C1A 2238   0.509   6.685   6.451  0.1905 -0.0322  0.0497
  161POPC   D2A 2239   0.752   6.719   6.106 -0.0885 -0.1790 -0.0499
  161POPC   C3A 2240   0.478   6.742   5.754  0.1858 -0.2443 -0.0103
  161POPC   C4A 2241   0.084   6.796   5.558 -0.0855  0.4276  0.1739
  161POPC   C1B 2242  -0.062   6.121   6.283  0.0920  0.0049  0.2418
  161POPC   C2B 2243  -0.377   6.071   5.980 -0.2781 -0.0969 -0.0687
  161POPC   C3B 2244  -0.653   6.030   5.627 -0.2650  0.0565 -0.1807
  161POPC   C4B 2245  -0.908   5.686   5.318 -0.0887 -0.2236 -0.2687
  162POPC   NC3 2246   0.542  10.421   8.010  0.2060 -0.0728  0.0673
  162POPC   PO4 2247   0.255  10.776   7.750 -0.3596  0.0404 -0.0638
  162POPC   GL1 2248   0.124  10.974   7.401 -0.2337  0.1165 -0.0550
  162POPC   GL2 2249   0.235  10.847   7.158 -0.1673  0.1804 -0.0097
  162POPC   C1A 2250   0.077  11.320   7.152 -0.0722 -0.2373  0.0575
  162POPC   D2A 2251   0.452  11.562   7.080 -0.1633  0.1059  0.2685
  162POPC   C3A 2252   0.752  11.656   6.859 -0.4080 -0.0812 -0.1007
  162POPC   C4A 2253   0.799  12.066   6.738 -0.3504 -0.3313 -0.2528
  162POPC   C1B 2254   0.335  11.076   6.802  0.1843 -0.0974 -0.0666
  162POPC   C2B 2255   0.087  11.220   6.323 -0.0708 -0.1185  0.0347
  162POPC   C3B 2256  -0.072  11.238   5.895 -0.0202  0.1369 -0.2721
  162POPC   C4B 2257  -0.447  11.211   5.762  0.1002 -0.2376 -0.1479
  163POPC   NC3 2258   1.392   8.186   7.473  0.2761 -0.3041 -0.0850
  163POPC   PO4 2259   1.561   8.662   7.526  0.0067  0.1251  0.0025
  163POPC   GL1 2260   1.353   8.574   7.097  0.1681  0.0749  0.1189
  163POPC   GL2 2261   1.568   8.525   6.704 -0.2657 -0.3825  0.0792
  163POPC   C1A 2262   1.275   8.907   6.827  0.1051  0.1045 -0.0562
  163POPC   D2A 2263   1.437   9.030   6.546  0.2618  0.3244  0.1411
  163POPC   C3A 2264   1.143   9.008   6.075 -0.2120  0.1061  0.3875
  163POPC   C4A 2265   0.975   9.100   5.746 -0.2026 -0.1596  0.1011
  163POPC   C1B 2266   1.390   8.641   6.317 -0.1698  0.1925 -0.0527
  163POPC   C2B 2267   1.074   8.463   6.087  0.1805 -0.1158 -0.0951
  163POPC   C3B 2268   0.980   8.279   5.689  0.0103  0.1200  0.2159
  163POPC   C4B 2269   0.558   8.231   5.708 -0.3087  0.5830 -0.2646
  164POPC   NC3 2270   3.763  10.133   7.723  0.0082  0.2495 -0.1366
  164POPC   PO4 2271   3.466  10.534   7.456  0.1175  0.1676  0.0255
  164POPC   GL1 2272   3.312  10.422   7.035  0.0796 -0.0651 -0.1326
  164POPC   GL2 2273   2.914  10.611   7.063  0.0389 -0.2020  0.1526
  164POPC   C1A 2274   3.221  10.250   6.665 -0.1394 -0.0810  0.2329
  164POPC   D2A 2275   3.177  10.311   6.173  0.1430  0.1060 -0.0720
  164POPC   C3A 2276   3.583  10.550   5.940  0.0877 -0.1524 -0.0555
  164POPC   C4A 2277   3.725  10.586   5.433  0.1855 -0.0337 -0.1548
  164POPC   C1B 2278   3.288  10.818   6.823  0.0634  0.0763 -0.2136
  164POPC   C2B 2279   3.758  10.785   6.774 -0.2274 -0.1232  0.2158
  164POPC   C3B 2280   4.119  10.850   6.976 -0.0039  0.0666  0.0888
  164POPC   C4B 2281   4.561  10.930   6.879  0.0674 -0.0604  0.0688
  165POPC   NC3 2282   5.502   0.201   7.651 -0.2672  0.0076 -0.1683
  165POPC   PO4 2283   5.944  -0.061   7.524 -0.2831  0.1024  0.2396
  165POPC   GL1 2284   6.239  -0.108   7.172 -0.0696 -0.1717  0.0322
  165POPC   GL2 2285   6.467  -0.401   7.067 -0.3836  0.1443 -0.0109
  165POPC   C1A 2286   6.260   0.086   6.721 -0.1688  0.2454 -0.2307
  165POPC   D2A 2287   6.553   0.161   6.405  0.1240  0.3039  0.0321
  165POPC   C3A 2288   6.443   0.559   6.180  0.0447 -0.1060  0.1681
  165POPC   C4A 2289   6.501   0.799   5.767 -0.1233 -0.1463  0.0918
  165POPC   C1B 2290   6.579  -0.475   6.642  0.0576 -0.1532 -0.1828
  165POPC   C2B 2291   6.457  -0.350   6.266  0.0510  0.1384  0.4137
  165POPC   C3B 2292   6.418  -0.043   5.868  0.2732  0.3339 -0.3913
  165POPC   C4B 2293   6.523   0.287   5.564 -0.2105  0.1702  0.2488
  166POPC   NC3 2294   0.476   3.121   7.304  0.1563  0.1990  0.0015
  166POPC   PO4 2295   0.745   3.443   7.305  0.1510 -0.1523 -0.0362
  166POPC   GL1 2296   0.759   3.320   6.895  0.1669  0.3277 -0.2704
  166POPC   GL2 2297   0.836   3.535   6.640 -0.1824 -0.1006 -0.1756
  166POPC   C1A 2298   0.533   3.160   6.584 -0.0730 -0.0347 -0.1063
  166POPC   D2A 2299   0.514   3.090   6.134  0.1042  0.0017 -0.0763
  166POPC   C3A 2300   0.697   2.768   5.695  0.2361  0.1046  0.1292
  166POPC   C4A 2301   0.952   2.373   5.631 -0.1693 -0.2478 -0.2171
  166POPC   C1B 2302   0.997   3.337   6.308  0.0135 -0.0433 -0.1372
  166POPC   C2B 2303   1.085   3.178   5.880  0.1536 -0.0803 -0.1057
  166POPC   C3B 2304   0.993   3.178   5.453 -0.1065  0.1585 -0.2556
  166POPC   C4B 2305   0.694   3.327   5.191  0.0855  0.0594  0.1038
  167POPC   NC3 2306   5.997   1.783   7.775 -0.3312 -0.0492 -0.0686
  167POPC   PO4 2307   5.729   2.119   7.633 -0.1437 -0.1252  0.0901
  167POPC   GL1 2308   5.722   2.191   7.097  0.0377 -0.0387 -0.0327
  167POPC   GL2 2309   5.467   2.008   7.018  0.2260  0.1396  0.3210
  167POPC   C1A 2310   5.754   2.092   6.650 -0.1790  0.1079  0.2351
  167POPC   D2A 2311   5.473   2.337   6.314 -0.2773 -0.3098 -0.0607
  167POPC   C3A 2312   5.625   2.436   5.825 -0.1596  0.1801 -0.2180
  167POPC   C4A 2313   6.046   2.556   5.559  0.0519 -0.0023 -0.0043
  167POPC   C1B 2314   5.372   1.752   6.555  0.0425 -0.0130 -0.0948
  167POPC   C2B 2315   5.158   1.847   6.184 -0.0175 -0.1935  0.2203
  167POPC   C3B 2316   4.714   1.965   5.973  0.1384 -0.0125  0.0011
  167POPC   C4B 2317   4.473   2.270   5.843  0.0835  0.1549  0.1876
  168POPC   NC3 2318   5.193  10.169   7.508 -0.1483 -0.0970 -0.0496
  168POPC   PO4 2319   5.556   9.788   7.474  0.0637  0.4291  0.1090
  168POPC   GL1 2320   5.576  10.126   7.102  0.0926 -0.1002  0.1589
  168POPC   GL2 2321   5.293  10.024   6.906  0.1822 -0.0629 -0.1699
  168POPC   C1A 2322   5.635  10.322   6.721  0.1250 -0.0138 -0.1872
  168POPC   D2A 2323   5.327  10.332   6.431  0.1716  0.1181  0.1254
  168POPC   C3A 2324   5.489  10.481   5.967  0.0938  0.3159  0.1405
  168POPC   C4A 2325   5.387  10.385   5.638 -0.0861 -0.3034 -0.0136
  168POPC   C1B 2326   4.978  10.286   6.872 -0.0321  0.1943 -0.3116
  168POPC   C2B 2327   4.883  10.627   6.692 -0.0386 -0.1407  0.1531
  168POPC   C3B 2328   5.235  10.806   6.450 -0.4563 -0.0751 -0.1932
  168POPC   C4B 2329   5.643  10.729   6.445 -0.5232 -0.2298 -0.2032
  169POPC   NC3 2330   4.021   3.068   7.431 -0.1119  0.1851 -0.0790
  169POPC   PO4 2331   4.416   2.771   7.233 -0.1074 -0.0890  0.2159
  169POPC   GL1 2332   4.377   2.577   6.823 -0.0981 -0.2490  0.0368
  169POPC   GL2 2333   4.724   2.466   6.751  0.1313 -0.0909  0.1426
  169POPC   C1A 2334   4.102   2.446   6.581 -0.0637  0.2297 -0.0451
  169POPC   D2A 2335   4.101   2.372   6.169 -0.0339 -0.2481 -0.3731
  169POPC   C3A 2336   4.157   2.723   5.876  0.1632  0.2003  0.3704
  169POPC   C4A 2337   4.338   2.983   5.807 -0.2442  0.0629  0.1716
  169POPC   C1B 2338   4.845   2.333   6.375 -0.0186  0.1303 -0.0108
  169POPC   C2B 2339   5.070   2.336   5.950 -0.0842 -0.2123 -0.3518
  169POPC   C3B 2340   5.254   2.335   5.468 -0.0521 -0.0506  0.2112
  169POPC   C4B 2341   5.275   2.149   5.068  0.2909  0.0293 -0.0196
  170POPC   NC3 2342   8.640   2.748   7.754  0.0491  0.1460  0.3231
  170POPC   PO4 2343   8.671   3.157   7.698 -0.0099  0.0483  0.5916
  170POPC   GL1 2344   8.419   3.019   7.389 -0.1691 -0.1417 -0.1114
  170POPC   GL2 2345   8.211   3.299   7.346 -0.1289  0.0707  0.1372
  170POPC   C1A 2346   8.214   2.884   6.977 -0.1586  0.3242  0.2437
  170POPC   D2A 2347   8.299   2.493   6.756  0.0882 -0.4047  0.1487
  170POPC   C3A 2348   8.192   2.131   6.605  0.1736  0.1390 -0.0104
  170POPC   C4A 2349   8.244   1.642   6.651  0.0852  0.0121 -0.0091
  170POPC   C1B 2350   8.152   3.400   6.861  0.1345 -0.2074  0.2371
  170POPC   C2B 2351   8.098   3.386   6.373  0.1289 -0.0857 -0.1047
  170POPC   C3B 2352   7.914   3.686   6.169  0.2653  0.0234  0.0269
  170POPC   C4B 2353   7.861   4.054   6.117  0.0832  0.2428 -0.0436
  171POPC   NC3 2354   1.483   3.073   7.744 -0.3749  0.2343  0.0640
  171POPC   PO4 2355   1.664   2.868   7.502  0.1341  0.0543 -0.0600
  171POPC   GL1 2356   1.916   3.036   7.085  0.0312  0.2266 -0.1070
  171POPC   GL2 2357   2.137   2.747   6.958  0.0025 -0.1698 -0.5272
  171POPC   C1A 2358   2.180   3.150   6.688 -0.1320 -0.0097 -0.2174
  171POPC   D2A 2359   2.416   3.203   6.412  0.3269  0.0268 -0.2296
  171POPC   C3A 2360   2.381   2.863   6.102 -0.0567 -0.0028  0.0642
  171POPC   C4A 2361   2.176   2.649   5.740  0.1684 -0.2257  0.0386
  171POPC   C1B 2362   2.297   2.636   6.586 -0.0734 -0.3903  0.2730
  171POPC   C2B 2363   2.056   2.451   6.152  0.0743  0.1267 -0.1357
  171POPC   C3B 2364   1.829   2.316   5.737  0.2907 -0.2769  0.1053
  171POPC   C4B 2365   1.753   2.148   5.307 -0.0878 -0.1228  0.0939
  172POPC   NC3 2366   4.740   1.499   7.134  0.2222 -0.1415  0.1888
  172POPC   PO4 2367   4.539   1.004   7.182 -0.3758 -0.0500  0.1296
  172POPC   GL1 2368   4.733   0.987   6.833  0.0302  0.0596  0.2837
  172POPC   GL2 2369   4.965   0.682   6.893  0.0257 -0.6468 -0.1316
  172POPC   C1A 2370   4.809   0.940   6.356 -0.0987  0.1271 -0.1440
  172POPC   D2A 2371   5.028   0.982   5.962  0.0034 -0.3069 -0.2135
  172POPC   C3A 2372   5.274   1.254   5.730  0.0070  0.2712 -0.1569
  172POPC   C4A 2373   5.694   1.532   5.765 -0.0520  0.1717 -0.1413
  172POPC   C1B 2374   4.607   0.517   6.727  0.1303 -0.1121  0.2936
  172POPC   C2B 2375   4.500   0.550   6.282  0.0815 -0.1060  0.0366
  172POPC   C3B 2376   4.350   0.357   5.979 -0.2491 -0.1847  0.1117
  172POPC   C4B 2377   4.282   0.366   5.520 -0.2125  0.0129 -0.0744
  173POPC   NC3 2378  10.283   7.052   7.326 -0.0076 -0.0646 -0.0010
  173POPC   PO4 2379  10.632   6.813   7.034  0.0665  0.1365  0.0626
  173POPC   GL1 2380  10.713   6.642   6.604 -0.1795 -0.1002 -0.0207
  173POPC   GL2 2381  10.699   6.336   6.697 -0.1602 -0.2174 -0.0113
  173POPC   C1A 2382  10.550   6.511   6.206  0.1655 -0.3111  0.1908
  173POPC   D2A 2383  10.524   6.589   5.772  0.0735  0.3011 -0.2253
  173POPC   C3A 2384  10.464   6.912   5.546  0.0507 -0.0690  0.0116
  173POPC   C4A 2385  10.262   6.928   5.140 -0.1614 -0.0439 -0.1229
  173POPC   C1B 2386  10.303   6.140   6.420 -0.3733  0.3208 -0.0852
  173POPC   C2B 2387  10.063   6.251   6.108 -0.1960 -0.0546  0.0184
  173POPC   C3B 2388   9.794   6.529   5.856 -0.2639 -0.2329  0.0385
  173POPC   C4B 2389   9.978   6.715   5.545 -0.4197  0.2979  0.1594
  174POPC   NC3 2390   8.185   0.148   3.505 -0.1787 -0.1544 -0.0160
  174POPC   PO4 2391   7.776   0.239   3.536 -0.2425  0.0130 -0.1492
  174POPC   GL1 2392   7.868   0.323   3.901  0.0666  0.1336 -0.1345
  174POPC   GL2 2393   8.079   0.603   3.879 -0.1307 -0.2329 -0.0849
  174POPC   C1A 2394   7.981   0.327   4.338  0.0753 -0.0858  0.1903
  174POPC   D2A 2395   8.130   0.702   4.545 -0.0098  0.0693 -0.1840
  174POPC   C3A 2396   8.111   0.621   5.009 -0.1908 -0.1947  0.1828
  174POPC   C4A 2397   8.424   0.582   5.331 -0.2938  0.1034  0.0268
  174POPC   C1B 2398   8.414   0.517   4.086 -0.0901 -0.2027  0.2544
  174POPC   C2B 2399   8.649   0.374   4.361  0.0582  0.0812  0.2763
  174POPC   C3B 2400   9.024   0.564   4.483 -0.0277  0.2401  0.2601
  174POPC   C4B 2401   9.317   0.501   4.841  0.1191 -0.3539  0.1730
  175POPC   NC3 2402   4.762   8.637   3.540 -0.1399 -0.2729  0.1909
  175POPC   PO4 2403   5.197   8.393   3.408  0.3455  0.1382 -0.0673
  175POPC   GL1 2404   5.246   8.319   3.870  0.1201  0.0558  0.3273
  175POPC   GL2 2405   5.503   8.274   3.979  0.0808 -0.0005  0.2795
  175POPC   C1A 2406   5.169   8.133   4.290 -0.1091  0.1374 -0.0943
  175POPC   D2A 2407   5.145   7.821   4.553 -0.0560 -0.1370  0.1086
  175POPC   C3A 2408   4.710   7.686   4.751 -0.0598 -0.2459 -0.2370
  175POPC   C4A 2409   4.461   7.490   4.836 -0.1186 -0.2940 -0.2166
  175POPC   C1B 2410   5.829   8.342   4.115 -0.1070  0.1115 -0.0634
  175POPC   C2B 2411   5.984   8.250   4.504 -0.2634  0.0807 -0.0825
  175POPC   C3B 2412   5.991   8.402   4.922 -0.1491 -0.1002  0.3141
  175POPC   C4B 2413   6.228   8.532   5.236  0.0513 -0.0631  0.0701
  176POPC   NC3 2414   0.152   3.439   2.914 -0.2263  0.1595  0.1258
  176POPC   PO4 2415   0.226   2.943   2.932  0.3193  0.0458  0.1942
  176POPC   GL1 2416   0.440   3.019   3.445 -0.0664  0.0146  0.2798
  176POPC   GL2 2417   0.723   2.987   3.601 -0.2297 -0.0868  0.0068
  176POPC   C1A 2418   0.327   3.309   3.775  0.0735 -0.0747  0.0485
  176POPC   D2A 2419   0.214   3.733   3.925  0.0539 -0.0285  0.0626
  176POPC   C3A 2420  -0.056   4.081   3.797  0.2580  0.0962  0.1699
  176POPC   C4A 2421  -0.306   4.444   3.663  0.2321 -0.2837 -0.0106
  176POPC   C1B 2422   0.824   2.914   3.919 -0.3564 -0.1024 -0.4814
  176POPC   C2B 2423   0.837   2.697   4.226  0.0283 -0.2316 -0.1804
  176POPC   C3B 2424   0.661   2.582   4.701 -0.4711  0.3444 -0.0238
  176POPC   C4B 2425   0.408   2.510   4.952  0.1795  0.0550 -0.0721
  177POPC   NC3 2426   6.563   6.135   3.882 -0.2493 -0.1128 -0.0719
  177POPC   PO4 2427   6.781   5.668   3.839  0.4976 -0.2283  0.1751
  177POPC   GL1 2428   7.020   5.630   4.220  0.4412  0.2180  0.0876
  177POPC   GL2 2429   7.035   5.829   4.384  0.1901 -0.0025  0.0109
  177POPC   C1A 2430   6.945   5.560   4.767  0.2515  0.2013 -0.1920
  177POPC   D2A 2431   6.906   5.528   5.242 -0.1615 -0.0042  0.0541
  177POPC   C3A 2432   6.488   5.736   5.391  0.1074  0.1502  0.2018
  177POPC   C4A 2433   6.188   5.787   5.722  0.3955  0.0869  0.1654
  177POPC   C1B 2434   6.582   6.021   4.552 -0.2022  0.2151  0.3661
  177POPC   C2B 2435   6.132   5.918   4.514  0.0638  0.0676  0.1861
  177POPC   C3B 2436   5.835   5.861   4.813  0.1309  0.1097 -0.2118
  177POPC   C4B 2437   5.485   5.676   5.057  0.0873  0.1605 -0.1273
  178POPC   NC3 2438   1.783   1.396   3.619  0.3367  0.0728 -0.0719
  178POPC   PO4 2439   1.506   1.042   3.742  0.0716  0.1930  0.2059
  178POPC   GL1 2440   1.427   1.132   4.147  0.1222 -0.0147 -0.0780
  178POPC   GL2 2441   1.210   0.879   4.231 -0.0853 -0.3099 -0.1716
  178POPC   C1A 2442   1.198   1.240   4.597 -0.1227  0.2517  0.0029
  178POPC   D2A 2443   1.241   1.358   4.963  0.1502 -0.0325  0.1398
  178POPC   C3A 2444   0.864   1.415   5.139  0.4407  0.0492  0.0192
  178POPC   C4A 2445   0.580   1.743   5.184  0.1121 -0.3671  0.0257
  178POPC   C1B 2446   1.213   0.742   4.671 -0.0098  0.0101 -0.3054
  178POPC   C2B 2447   1.008   0.866   5.129  0.0212  0.1613  0.0938
  178POPC   C3B 2448   0.670   0.768   5.331  0.0024 -0.0307 -0.1657
  178POPC   C4B 2449   0.480   0.882   5.704 -0.4373 -0.1103  0.0409
  179POPC   NC3 2450   3.665   7.242   3.371 -0.1868 -0.0388  0.0689
  179POPC   PO4 2451   3.608   6.980   3.779  0.1105 -0.1831 -0.0740
  179POPC   GL1 2452   3.440   7.059   4.131 -0.1326 -0.3039  0.0201
  179POPC   GL2 2453   3.352   7.392   4.196  0.2057 -0.0380 -0.3353
  179POPC   C1A 2454   3.542   6.883   4.508 -0.1346 -0.0954  0.0300
  179POPC   D2A 2455   3.837   7.146   4.675 -0.2068  0.3776 -0.2782
  179POPC   C3A 2456   3.925   7.166   5.126 -0.0378  0.2125  0.1440
  179POPC   C4A 2457   4.048   6.982   5.641  0.0646  0.0378  0.3477
  179POPC   C1B 2458   3.852   7.439   4.317  0.1729  0.2915 -0.1091
  179POPC   C2B 2459   4.042   7.645   4.695 -0.0885  0.0649 -0.0828
  179POPC   C3B 2460   4.084   7.679   5.104  0.0673 -0.0768  0.0670
  179POPC   C4B 2461   4.310   7.591   5.531  0.4853  0.0686 -0.0058
  180POPC   NC3 2462   7.691   7.631   3.859 -0.1633 -0.0271 -0.4370
  180POPC   PO4 2463   7.360   7.706   3.620 -0.0992  0.1047  0.2465
  180POPC   GL1 2464   7.195   7.552   4.056  0.0576  0.0352  0.0772
  180POPC   GL2 2465   7.400   7.250   4.200  0.2655 -0.2106  0.0910
  180POPC   C1A 2466   6.956   7.499   4.452 -0.0667 -0.3034 -0.2113
  180POPC   D2A 2467   7.208   7.441   4.867  0.3337  0.2168 -0.0928
  180POPC   C3A 2468   7.572   7.690   5.194  0.2217  0.3163 -0.3565
  180POPC   C4A 2469   7.938   7.753   5.440 -0.1208 -0.2010 -0.0776
  180POPC   C1B 2470   7.483   7.114   4.653 -0.1625  0.3279  0.1108
  180POPC   C2B 2471   7.362   6.974   5.015  0.1272  0.0090  0.0712
  180POPC   C3B 2472   7.450   6.908   5.456  0.2767  0.1507  0.2197
  180POPC   C4B 2473   7.347   6.770   5.827 -0.0995  0.0463 -0.2435
  181POPC   NC3 2474   9.799   1.330   3.836 -0.1440  0.2976 -0.2500
  181POPC   PO4 2475   9.889   1.029   4.061  0.1205 -0.1618 -0.1920
  181POPC   GL1 2476   9.772   0.634   4.206  0.1865 -0.1600 -0.0891
  181POPC   GL2 2477  10.017   0.495   4.175  0.1435 -0.1877  0.2209
  181POPC   C1A 2478   9.536   0.317   4.386 -0.2658 -0.0962  0.0592
  181POPC   D2A 2479   9.494   0.035   4.660 -0.1813 -0.1502 -0.0787
  181POPC   C3A 2480   9.652   0.119   5.052 -0.1304 -0.1931  0.1192
  181POPC   C4A 2481   9.757  -0.309   5.279 -0.1226 -0.1751  0.1759
  181POPC   C1B 2482  10.331   0.540   4.451  0.2520 -0.1799  0.1735
  181POPC   C2B 2483  10.355   0.364   4.858  0.0573 -0.1553  0.0429
  181POPC   C3B 2484  10.149   0.308   5.212 -0.1221  0.1029 -0.0579
  181POPC   C4B 2485   9.865   0.160   5.575  0.1402 -0.1047 -0.0035
  182POPC   NC3 2486   7.586   9.537   3.610  0.2692  0.2401 -0.1582
  182POPC   PO4 2487   7.082   9.538   3.771  0.0938  0.0069  0.1790
  182POPC   GL1 2488   7.369   9.884   3.891  0.3277  0.0312  0.0668
  182POPC   GL2 2489   7.266  10.182   3.999  0.2788 -0.1665  0.0514
  182POPC   C1A 2490   7.686  10.176   4.243  0.2349 -0.1387 -0.0412
  182POPC   D2A 2491   7.845  10.057   4.503  0.0848 -0.1388  0.0548
  182POPC   C3A 2492   7.680  10.065   4.904  0.0736 -0.3514 -0.1126
  182POPC   C4A 2493   7.581  10.163   5.328  0.1586 -0.0277  0.2413
  182POPC   C1B 2494   7.249  10.031   4.409  0.1098 -0.6235 -0.0301
  182POPC   C2B 2495   7.321   9.823   4.680  0.0563  0.3293 -0.0634
  182POPC   C3B 2496   7.624   9.550   4.893  0.0298  0.1237  0.2503
  182POPC   C4B 2497   7.714   9.199   5.147  0.1166 -0.3927 -0.2424
  183POPC   NC3 2498   6.516   3.967   3.350  0.0366  0.2992  0.0442
  183POPC   PO4 2499   6.278   3.607   3.749 -0.2362  0.0120 -0.0743
  183POPC   GL1 2500   6.369   3.586   4.136  0.2372  0.4264 -0.0620
  183POPC   GL2 2501   6.349   3.248   4.225 -0.1526  0.2372 -0.2049
  183POPC   C1A 2502   6.347   3.673   4.567  0.0062 -0.0944 -0.0956
  183POPC   D2A 2503   6.578   3.506   4.935  0.1435  0.1209  0.0305
  183POPC   C3A 2504   6.979   3.594   5.121  0.0848 -0.1444  0.3681
  183POPC   C4A 2505   7.310   3.727   5.376  0.1498 -0.0126 -0.0944
  183POPC   C1B 2506   6.333   2.969   4.577 -0.3784 -0.0372 -0.1954
  183POPC   C2B 2507   6.579   3.010   4.951  0.0323  0.1299 -0.1097
  183POPC   C3B 2508   6.955   2.854   5.183 -0.1560 -0.2662 -0.0291
  183POPC   C4B 2509   6.959   2.788   5.592  0.0457  0.1114  0.2313
  184POPC   NC3 2510   6.631   8.838   3.292 -0.0781 -0.1557 -0.1466
  184POPC   PO4 2511   6.603   8.382   3.592 -0.0829  0.0050 -0.1489
  184POPC   GL1 2512   6.491   8.694   3.835 -0.1100 -0.0481 -0.3156
  184POPC   GL2 2513   6.151   8.664   3.910 -0.1891  0.1774 -0.1500
  184POPC   C1A 2514   6.681   9.008   4.133  0.1143 -0.0344 -0.1518
  184POPC   D2A 2515   7.101   9.015   4.364  0.0644 -0.0469 -0.0539
  184POPC   C3A 2516   7.159   9.291   4.812  0.4428  0.3056 -0.0531
  184POPC   C4A 2517   7.239   9.390   5.213 -0.1272  0.1668 -0.3225
  184POPC   C1B 2518   6.363   8.640   4.364  0.0467  0.1972 -0.0084
  184POPC   C2B 2519   6.412   8.378   4.762 -0.0974  0.1791 -0.0251
  184POPC   C3B 2520   6.476   8.107   5.136 -0.1771 -0.2047 -0.4065
  184POPC   C4B 2521   6.278   8.086   5.470 -0.1183  0.1629  0.1240
  185POPC   NC3 2522   9.365   9.748   3.576  0.1543 -0.0582 -0.0020
  185POPC   PO4 2523   9.383   9.220   3.604  0.0719  0.1788 -0.2670
  185POPC   GL1 2524   9.475   9.220   3.980  0.2422 -0.1640 -0.2559
  185POPC   GL2 2525   9.506   9.597   4.031 -0.3403  0.0528  0.4489
  185POPC   C1A 2526   9.537   8.928   4.335  0.3462 -0.0472  0.1033
  185POPC   D2A 2527   9.449   8.732   4.730  0.2483 -0.0542  0.1607
  185POPC   C3A 2528   9.137   8.731   4.938 -0.2055 -0.0369 -0.1589
  185POPC   C4A 2529   9.000   8.754   5.306  0.2202 -0.0611  0.0624
  185POPC   C1B 2530   9.639   9.796   4.336 -0.1115 -0.0081  0.1309
  185POPC   C2B 2531   9.694   9.879   4.702  0.1927  0.0693 -0.0558
  185POPC   C3B 2532   9.621  10.036   5.051 -0.2480  0.1637 -0.1776
  185POPC   C4B 2533   9.825  10.125   5.482  0.4535  0.1449  0.0643
  186POPC   NC3 2534   8.140   5.768   3.521 -0.2008  0.1416  0.1809
  186POPC   PO4 2535   7.957   5.924   3.792 -0.3209  0.4097  0.2525
  186POPC   GL1 2536   7.838   5.810   4.265 -0.0557  0.0717 -0.2992
  186POPC   GL2 2537   8.173   5.788   4.335 -0.3975  0.1415 -0.0683
  186POPC   C1A 2538   7.931   5.541   4.658 -0.1508  0.1119 -0.1531
  186POPC   D2A 2539   8.060   5.366   4.941  0.1059 -0.3841  0.5248
  186POPC   C3A 2540   8.137   4.963   5.049 -0.2499 -0.1399  0.0248
  186POPC   C4A 2541   8.317   4.771   4.776 -0.1371  0.4837 -0.2048
  186POPC   C1B 2542   8.393   5.716   4.699 -0.0375 -0.0748 -0.2382
  186POPC   C2B 2543   8.321   5.899   5.076  0.1072  0.1502  0.2090
  186POPC   C3B 2544   7.931   5.850   5.402  0.2889  0.1027 -0.1266
  186POPC   C4B 2545   7.843   5.593   5.742 -0.0206  0.1618  0.2966
  187POPC   NC3 2546   3.606   5.124   2.969 -0.0760 -0.0092  0.2273
  187POPC   PO4 2547   3.883   5.358   3.168 -0.0126 -0.1783 -0.3853
  187POPC   GL1 2548   3.776   5.240   3.608  0.2452  0.0996 -0.0704
  187POPC   GL2 2549   3.861   5.452   3.911 -0.1642 -0.1975 -0.3668
  187POPC   C1A 2550   3.517   5.083   3.998  0.1831  0.1209  0.0795
  187POPC   D2A 2551   3.295   4.747   4.064 -0.3844 -0.1498  0.1346
  187POPC   C3A 2552   2.899   4.673   4.296  0.0501 -0.3406  0.2023
  187POPC   C4A 2553   2.523   4.711   4.606  0.1588  0.2073  0.1758
  187POPC   C1B 2554   3.930   5.265   4.312  0.0418 -0.0080 -0.0941
  187POPC   C2B 2555   4.239   5.323   4.688 -0.1407  0.1238  0.2335
  187POPC   C3B 2556   4.290   5.363   5.218 -0.3516 -0.1950  0.0304
  187POPC   C4B 2557   4.350   5.161   5.603  0.2690 -0.1070  0.4131
  188POPC   NC3 2558   3.787   6.617   3.506  0.0318 -0.0066  0.1464
  188POPC   PO4 2559   3.718   6.208   3.320  0.1548 -0.0534  0.0198
  188POPC   GL1 2560   3.707   6.232   3.839 -0.2355  0.1549  0.0555
  188POPC   GL2 2561   3.709   6.469   4.074 -0.0854  0.0810 -0.3130
  188POPC   C1A 2562   3.714   6.009   4.213  0.0971  0.1994  0.3063
  188POPC   D2A 2563   3.866   6.194   4.487  0.2165 -0.2835 -0.1658
  188POPC   C3A 2564   4.115   6.181   4.948  0.1925 -0.1197  0.1232
  188POPC   C4A 2565   4.343   5.923   5.159 -0.2707  0.0815 -0.1998
  188POPC   C1B 2566   3.943   6.652   4.424  0.0432  0.0198  0.2957
  188POPC   C2B 2567   4.046   6.624   4.811  0.2805 -0.2790  0.0338
  188POPC   C3B 2568   3.828   6.631   5.209  0.0932  0.4259 -0.3394
  188POPC   C4B 2569   3.542   6.747   5.484  0.1083 -0.0762  0.0098
  189POPC   NC3 2570   0.379   9.142   3.277 -0.2351 -0.1289 -0.0576
  189POPC   PO4 2571   0.440   9.189   3.642  0.0951 -0.0057  0.0484
  189POPC   GL1 2572   0.588   9.456   3.931 -0.3003 -0.1135  0.1682
  189POPC   GL2 2573   0.446   9.718   4.038  0.0594  0.0607 -0.1013
  189POPC   C1A 2574   0.832   9.707   4.329  0.1201 -0.0030  0.0800
  189POPC   D2A 2575   0.720  10.064   4.672 -0.0043  0.2090  0.0507
  189POPC   C3A 2576   1.052  10.318   4.938 -0.3823 -0.2225  0.3251
  189POPC   C4A 2577   1.333  10.686   4.973  0.0873 -0.0333 -0.1499
  189POPC   C1B 2578   0.383   9.536   4.432  0.2406  0.0476 -0.0851
  189POPC   C2B 2579   0.465   9.454   4.980  0.3394 -0.1225  0.3822
  189POPC   C3B 2580   0.447   9.458   5.479 -0.0467  0.2109 -0.0134
  189POPC   C4B 2581   0.625   9.465   5.921  0.0626  0.1590 -0.0461
  190POPC   NC3 2582   6.988   1.171   3.670 -0.2021 -0.5234  0.0021
  190POPC   PO4 2583   7.536   1.346   3.594  0.1195  0.0483  0.1291
  190POPC   GL1 2584   7.470   1.109   3.932 -0.0508 -0.0830  0.0157
  190POPC   GL2 2585   7.776   1.040   4.128 -0.1248  0.0251 -0.0513
  190POPC   C1A 2586   7.254   0.792   4.192  0.0721  0.0503  0.0608
  190POPC   D2A 2587   7.179   0.606   4.588 -0.1622 -0.1431  0.1998
  190POPC   C3A 2588   7.241   0.911   4.865 -0.0558 -0.2458 -0.0286
  190POPC   C4A 2589   7.175   0.977   5.221  0.2859 -0.1540 -0.1494
  190POPC   C1B 2590   7.638   0.788   4.596 -0.2924  0.0425 -0.1240
  190POPC   C2B 2591   7.609   0.508   4.975  0.1948 -0.3581 -0.2447
  190POPC   C3B 2592   7.772   0.227   5.269  0.1487  0.2521  0.2553
  190POPC   C4B 2593   7.819  -0.106   5.564 -0.2558  0.1253  0.0629
  191POPC   NC3 2594   1.715   7.437   3.315 -0.0211  0.0915  0.1177
  191POPC   PO4 2595   2.134   7.345   3.493 -0.0071  0.4424 -0.2470
  191POPC   GL1 2596   2.088   7.355   3.885 -0.4686  0.0298 -0.4119
  191POPC   GL2 2597   2.390   7.173   4.074  0.0303 -0.0958  0.2419
  191POPC   C1A 2598   1.864   7.193   4.309 -0.0672 -0.0448 -0.0414
  191POPC   D2A 2599   1.759   7.017   4.749  0.1768  0.0884  0.3669
  191POPC   C3A 2600   2.161   7.017   4.881  0.1002 -0.1281 -0.2936
  191POPC   C4A 2601   2.314   7.220   5.137  0.1618 -0.3709 -0.3057
  191POPC   C1B 2602   2.455   7.133   4.503  0.0933  0.1534 -0.1213
  191POPC   C2B 2603   2.718   7.158   4.753 -0.2013 -0.0763  0.0636
  191POPC   C3B 2604   3.113   7.197   4.897 -0.0018  0.1088 -0.1462
  191POPC   C4B 2605   3.536   6.938   4.989 -0.1800 -0.3096  0.1268
  192POPC   NC3 2606   4.475   5.823   3.403  0.4335  0.1222  0.0404
  192POPC   PO4 2607   4.221   5.434   3.497 -0.1612  0.1564 -0.1590
  192POPC   GL1 2608   4.644   5.405   3.831  0.1218  0.1503 -0.0343
  192POPC   GL2 2609   4.869   5.123   3.930 -0.0572  0.1565  0.0091
  192POPC   C1A 2610   4.890   5.671   3.909  0.0923 -0.0181 -0.0801
  192POPC   D2A 2611   5.123   5.859   4.366 -0.2507  0.0949 -0.3053
  192POPC   C3A 2612   5.075   5.611   4.681 -0.0087  0.0366 -0.2345
  192POPC   C4A 2613   4.771   5.635   4.909 -0.1446 -0.3126  0.0033
  192POPC   C1B 2614   4.856   4.855   4.243 -0.0342 -0.0355 -0.2250
  192POPC   C2B 2615   4.703   4.641   4.494 -0.2878  0.0713 -0.0662
  192POPC   C3B 2616   4.605   4.501   4.852 -0.2587 -0.0247 -0.3243
  192POPC   C4B 2617   4.412   4.396   5.285 -0.0177 -0.0985 -0.2432
  193POPC   NC3 2618   1.640   8.365   3.406 -0.0170 -0.2071  0.1536
  193POPC   PO4 2619   1.905   7.927   3.429  0.0180 -0.2677  0.0820
  193POPC   GL1 2620   1.669   7.855   3.683 -0.2106 -0.0395 -0.0968
  193POPC   GL2 2621   1.707   7.639   3.881  0.1664 -0.1624  0.2519
  193POPC   C1A 2622   1.406   7.972   4.033  0.2536  0.2779  0.2701
  193POPC   D2A 2623   1.224   7.824   4.446 -0.1229  0.0503 -0.1935
  193POPC   C3A 2624   1.251   8.060   4.791  0.2765  0.0279  0.2168
  193POPC   C4A 2625   1.087   7.904   5.307 -0.1196 -0.0584 -0.0034
  193POPC   C1B 2626   1.695   7.749   4.336  0.0175  0.2424 -0.0062
  193POPC   C2B 2627   2.147   7.556   4.454 -0.0341 -0.2839  0.0151
  193POPC   C3B 2628   2.242   7.522   4.774  0.0722 -0.1072  0.0149
  193POPC   C4B 2629   2.168   7.803   5.085  0.0382  0.1348 -0.0054
  194POPC   NC3 2630   3.047   1.217   3.693  0.2571 -0.0852 -0.1031
  194POPC   PO4 2631   2.906   0.919   3.963 -0.0927 -0.1053 -0.3429
  194POPC   GL1 2632   2.564   1.188   4.162  0.1929  0.1102 -0.1573
  194POPC   GL2 2633   2.831   1.367   4.174  0.1860  0.1870 -0.0539
  194POPC   C1A 2634   2.203   1.354   4.412 -0.2015 -0.2924 -0.0171
  194POPC   D2A 2635   2.134   1.744   4.621  0.1988 -0.2028 -0.0679
  194POPC   C3A 2636   2.082   1.852   5.022 -0.1319  0.1420  0.3198
  194POPC   C4A 2637   1.928   1.679   5.416  0.1817 -0.1843 -0.3274
  194POPC   C1B 2638   2.826   1.583   4.547 -0.0082  0.0896  0.0150
  194POPC   C2B 2639   3.107   1.850   4.860 -0.0178 -0.1579  0.0028
  194POPC   C3B 2640   3.237   2.241   5.027  0.0917 -0.1399 -0.3084
  194POPC   C4B 2641   3.529   2.558   5.146 -0.0144 -0.0650  0.0663
  195POPC   NC3 2642   7.649   4.196   3.106 -0.0489 -0.0052 -0.1030
  195POPC   PO4 2643   7.924   4.258   3.395  0.1198  0.0497 -0.1233
  195POPC   GL1 2644   7.719   4.246   3.806 -0.1149 -0.2658 -0.2913
  195POPC   GL2 2645   7.657   3.931   3.979 -0.1598  0.0761  0.0366
  195POPC   C1A 2646   7.527   4.582   4.104  0.4325  0.4933 -0.1911
  195POPC   D2A 2647   7.285   4.899   4.229 -0.0387 -0.1973 -0.1208
  195POPC   C3A 2648   7.164   4.988   4.713 -0.2116  0.0099  0.1741
  195POPC   C4A 2649   7.200   5.100   5.115 -0.0637 -0.0658 -0.2252
  195POPC   C1B 2650   7.744   4.033   4.433  0.2897  0.2212 -0.0397
  195POPC   C2B 2651   7.617   3.904   4.879  0.1437 -0.0491  0.0855
  195POPC   C3B 2652   7.812   3.970   5.282  0.0316  0.0917 -0.2267
  195POPC   C4B 2653   7.792   4.284   5.608 -0.1768 -0.1478  0.1476
  196POPC   NC3 2654   1.845   3.933   3.320  0.2396  0.1706  0.0003
  196POPC   PO4 2655   2.256   4.053   3.489 -0.1402  0.1481  0.2586
  196POPC   GL1 2656   2.230   4.139   3.982  0.0928 -0.0290  0.0978
  196POPC   GL2 2657   2.242   4.502   4.073 -0.1312 -0.2399  0.1621
  196POPC   C1A 2658   2.177   4.252   4.504  0.2601 -0.2583 -0.2018
  196POPC   D2A 2659   2.070   4.407   4.963 -0.0650 -0.2472  0.0650
  196POPC   C3A 2660   1.898   4.852   5.032  0.1911 -0.0080  0.0162
  196POPC   C4A 2661   1.537   5.132   5.196 -0.2839 -0.1081 -0.0042
  196POPC   C1B 2662   1.781   4.436   4.153 -0.2667  0.0090  0.0569
  196POPC   C2B 2663   1.305   4.465   3.947  0.0391 -0.1367 -0.0145
  196POPC   C3B 2664   0.986   4.346   3.695 -0.2107  0.0859 -0.0264
  196POPC   C4B 2665   0.793   4.324   3.386  0.0200  0.1202 -0.0502
  197POPC   NC3 2666   0.703   0.670   3.521 -0.0824 -0.0848 -0.2528
  197POPC   PO4 2667   0.312   0.868   3.618 -0.0176 -0.1472 -0.1799
  197POPC   GL1 2668   0.440   0.979   3.938 -0.0361  0.0081 -0.0262
  197POPC   GL2 2669   0.626   0.723   4.091  0.0139 -0.3698  0.1366
  197POPC   C1A 2670   0.745   1.213   4.234 -0.0487  0.3230 -0.0237
  197POPC   D2A 2671   0.788   1.072   4.724 -0.1664 -0.1471  0.1516
  197POPC   C3A 2672   0.528   1.077   4.948 -0.0757  0.1409  0.1329
  197POPC   C4A 2673   0.387   1.196   5.357  0.2930  0.2007 -0.0190
  197POPC   C1B 2674   0.394   0.845   4.492 -0.3017  0.1975  0.1783
  197POPC   C2B 2675   0.374   0.627   4.919  0.0992  0.3424  0.1447
  197POPC   C3B 2676   0.188   0.750   5.195  0.1737  0.0395 -0.2665
  197POPC   C4B 2677   0.007   0.822   5.556  0.4004 -0.1201 -0.0452
  198POPC   NC3 2678   3.138  10.805   4.039 -0.1092  0.0058 -0.3825
  198POPC   PO4 2679   2.772  10.516   4.054 -0.1160 -0.6111  0.0568
  198POPC   GL1 2680   2.620  10.649   4.452 -0.0487  0.1256  0.1981
  198POPC   GL2 2681   2.803  10.883   4.483  0.0127  0.0787 -0.1078
  198POPC   C1A 2682   2.798  10.578   4.840 -0.4300  0.3399 -0.1151
  198POPC   D2A 2683   2.696  10.476   5.177  0.0056  0.3802 -0.0028
  198POPC   C3A 2684   2.738  10.038   5.382 -0.2161 -0.1437 -0.1714
  198POPC   C4A 2685   2.959   9.662   5.591 -0.0023 -0.1824  0.2360
  198POPC   C1B 2686   2.556  10.973   4.880 -0.2105 -0.0971 -0.3020
  198POPC   C2B 2687   2.133  11.143   5.022 -0.0861  0.3946  0.1726
  198POPC   C3B 2688   1.976  11.084   5.459  0.0614  0.2219  0.0879
  198POPC   C4B 2689   2.170  11.270   5.774  0.1406  0.1508 -0.0586
  199POPC   NC3 2690   1.568   9.465   3.815 -0.0372 -0.3090  0.0664
  199POPC   PO4 2691   1.940   9.232   3.736 -0.2395 -0.3908 -0.2714
  199POPC   GL1 2692   1.626   8.961   4.126 -0.2310  0.0825  0.1971
  199POPC   GL2 2693   1.305   8.817   4.162  0.0001 -0.3074 -0.0653
  199POPC   C1A 2694   1.711   8.758   4.481 -0.2816  0.2144  0.1345
  199POPC   D2A 2695   1.743   8.937   4.906  0.0761 -0.0424 -0.0952
  199POPC   C3A 2696   1.413   8.782   5.323  0.0908  0.1965  0.1453
  199POPC   C4A 2697   1.317   8.687   5.716 -0.0698  0.0071 -0.2794
  199POPC   C1B 2698   1.008   8.991   4.462 -0.1489 -0.0005 -0.1474
  199POPC   C2B 2699   0.966   9.368   4.680 -0.4965  0.2734 -0.0035
  199POPC   C3B 2700   1.166   9.817   4.713 -0.2097 -0.0541 -0.4271
  199POPC   C4B 2701   1.195  10.067   4.432  0.1124  0.2210  0.1394
  200POPC   NC3 2702   2.477   3.273   3.780 -0.0736  0.2337 -0.0630
  200POPC   PO4 2703   2.270   2.974   3.550  0.2387  0.3740  0.1926
  200POPC   GL1 2704   2.302   2.705   4.008  0.1565  0.0373 -0.2018
  200POPC   GL2 2705   2.306   2.366   4.105 -0.0270 -0.1820  0.3060
  200POPC   C1A 2706   2.277   2.747   4.428 -0.0033 -0.1708 -0.0296
  200POPC   D2A 2707   2.083   2.728   4.764 -0.1068  0.3255 -0.1459
  200POPC   C3A 2708   2.196   2.798   5.115 -0.1227  0.0127 -0.1666
  200POPC   C4A 2709   2.376   2.986   5.374  0.3649 -0.0924  0.1304
  200POPC   C1B 2710   2.100   2.218   4.483  0.1682 -0.0856  0.1783
  200POPC   C2B 2711   1.796   2.325   4.852 -0.4178 -0.0048 -0.0201
  200POPC   C3B 2712   1.719   2.607   5.145 -0.2150  0.4879  0.0487
  200POPC   C4B 2713   1.798   2.995   5.419 -0.2621  0.1585  0.0498
  201POPC   NC3 2714   2.738   2.798   3.697 -0.2642  0.1706 -0.2028
  201POPC   PO4 2715   2.783   2.345   3.847 -0.2395 -0.1348 -0.1466
  201POPC   GL1 2716   2.906   2.587   4.151 -0.0891 -0.1850 -0.1621
  201POPC   GL2 2717   2.739   2.907   4.227 -0.1457  0.1296  0.1125
  201POPC   C1A 2718   2.756   2.584   4.613 -0.2312 -0.0381  0.1688
  201POPC   D2A 2719   2.567   2.898   4.807 -0.0809 -0.1736 -0.0523
  201POPC   C3A 2720   2.613   3.391   4.899 -0.1794 -0.0634  0.2233
  201POPC   C4A 2721   2.633   3.766   5.142  0.1641  0.0960 -0.2293
  201POPC   C1B 2722   2.499   3.232   4.429  0.1133  0.1127 -0.2535
  201POPC   C2B 2723   2.212   3.204   4.650  0.2194  0.1487  0.1141
  201POPC   C3B 2724   2.181   3.371   5.116 -0.1759 -0.1243 -0.1752
  201POPC   C4B 2725   1.883   3.576   5.226  0.1289 -0.1071 -0.1892
  202POPC   NC3 2726   0.774  10.446   3.469 -0.0572 -0.0291 -0.4496
  202POPC   PO4 2727   1.082  10.695   3.635 -0.1015 -0.4543  0.1792
  202POPC   GL1 2728   0.772  10.605   3.942 -0.0878  0.1583 -0.2426
  202POPC   GL2 2729   0.462  10.649   4.013 -0.1155 -0.2566 -0.0258
  202POPC   C1A 2730   0.833  10.478   4.405  0.1208  0.3519  0.1193
  202POPC   D2A 2731   0.500  10.523   4.773 -0.1279  0.0445 -0.3846
  202POPC   C3A 2732   0.485  10.344   5.357  0.0694 -0.0972  0.2876
  202POPC   C4A 2733   0.614   9.965   5.618 -0.0138  0.0321  0.0745
  202POPC   C1B 2734   0.175  10.660   4.304 -0.1351 -0.2374 -0.0958
  202POPC   C2B 2735  -0.021  10.505   4.659  0.0031  0.0885 -0.1715
  202POPC   C3B 2736  -0.233  10.227   4.895  0.1825  0.0218  0.0992
  202POPC   C4B 2737  -0.310  10.341   5.256 -0.2747 -0.0196 -0.0458
  203POPC   NC3 2738   7.116   1.734   3.695 -0.0953 -0.1399 -0.2600
  203POPC   PO4 2739   6.728   1.594   3.928 -0.1908 -0.0324  0.2568
  203POPC   GL1 2740   6.400   1.416   4.208  0.1282  0.1309 -0.0869
  203POPC   GL2 2741   6.086   1.432   4.291 -0.0480 -0.3664 -0.0722
  203POPC   C1A 2742   6.303   1.153   4.580  0.1245 -0.1616 -0.2032
  203POPC   D2A 2743   6.358   1.331   5.040  0.0097 -0.1850  0.0547
  203POPC   C3A 2744   6.313   1.512   5.471 -0.3607  0.1214  0.1535
  203POPC   C4A 2745   6.612   1.336   5.803  0.0820 -0.0934  0.2872
  203POPC   C1B 2746   6.146   1.620   4.734  0.2005  0.1593  0.1081
  203POPC   C2B 2747   6.280   1.897   5.104 -0.0760 -0.2303  0.0773
  203POPC   C3B 2748   6.330   2.134   5.384  0.1372  0.0577 -0.1100
  203POPC   C4B 2749   6.500   2.386   5.643 -0.0357 -0.0247  0.1045
  204POPC   NC3 2750   6.783   3.685   3.702  0.0641 -0.2499  0.1184
  204POPC   PO4 2751   6.941   4.036   3.630  0.1426 -0.0182 -0.3258
  204POPC   GL1 2752   7.100   4.231   3.926 -0.1130  0.1862  0.1739
  204POPC   GL2 2753   6.804   4.388   4.042  0.0928  0.1370 -0.0891
  204POPC   C1A 2754   7.270   4.120   4.395 -0.3641  0.0085  0.0515
  204POPC   D2A 2755   7.511   4.422   4.658  0.1322  0.1467 -0.0330
  204POPC   C3A 2756   7.507   4.618   5.088  0.2497 -0.3672  0.1608
  204POPC   C4A 2757   7.723   4.959   5.340 -0.0783  0.1931  0.0295
  204POPC   C1B 2758   7.004   4.509   4.494  0.0260 -0.0626 -0.1408
  204POPC   C2B 2759   6.994   4.551   4.895 -0.0945 -0.5679  0.3081
  204POPC   C3B 2760   7.033   4.668   5.316 -0.2146 -0.2802 -0.0585
  204POPC   C4B 2761   7.087   5.014   5.597 -0.1381  0.1952 -0.1115
  205POPC   NC3 2762   8.476   9.516   3.803 -0.0230 -0.1032 -0.0796
  205POPC   PO4 2763   8.473   9.059   3.797  0.3605  0.1062 -0.0937
  205POPC   GL1 2764   8.418   9.129   4.179 -0.1939  0.2907 -0.2205
  205POPC   GL2 2765   8.107   9.020   4.268 -0.2379 -0.0398  0.0054
  205POPC   C1A 2766   8.602   9.450   4.407 -0.0475  0.0216  0.0625
  205POPC   D2A 2767   8.868   9.490   4.676  0.2727  0.4227 -0.0159
  205POPC   C3A 2768   8.672   9.577   5.148  0.2056 -0.0879 -0.1457
  205POPC   C4A 2769   8.433   9.587   5.657 -0.3133  0.0326  0.2396
  205POPC   C1B 2770   8.049   9.014   4.669 -0.0126  0.0808  0.3198
  205POPC   C2B 2771   8.109   8.833   5.047  0.0311  0.1568  0.0258
  205POPC   C3B 2772   8.062   8.641   5.443 -0.2070  0.1993  0.0636
  205POPC   C4B 2773   7.676   8.548   5.742 -0.1109 -0.3075  0.0073
  206POPC   NC3 2774   6.125   0.983   3.971  0.0108 -0.1744 -0.0443
  206POPC   PO4 2775   6.524   1.111   3.809  0.0215 -0.1048 -0.0890
  206POPC   GL1 2776   6.579   0.762   4.060  0.0190  0.4403  0.0464
  206POPC   GL2 2777   6.637   0.458   3.831 -0.0197  0.2016  0.2647
  206POPC   C1A 2778   6.653   0.706   4.538  0.1056 -0.0571  0.1774
  206POPC   D2A 2779   6.798   0.471   4.957  0.0040 -0.1218  0.0506
  206POPC   C3A 2780   6.968   0.461   5.330  0.0628 -0.0628 -0.1204
  206POPC   C4A 2781   7.199   0.249   5.504 -0.2385 -0.0112  0.0168
  206POPC   C1B 2782   7.077   0.349   4.087 -0.0731  0.1179 -0.3452
  206POPC   C2B 2783   7.475   0.363   4.210  0.2683 -0.0193  0.0348
  206POPC   C3B 2784   7.567   0.212   4.544 -0.1298 -0.1515 -0.2056
  206POPC   C4B 2785   7.900   0.132   4.796 -0.0375  0.0696 -0.1319
  207POPC   NC3 2786   4.181   4.171   3.290 -0.0842  0.2195 -0.1445
  207POPC   PO4 2787   3.958   3.911   3.537 -0.1509 -0.1868 -0.2214
  207POPC   GL1 2788   4.282   3.804   3.667 -0.3772 -0.1331  0.1727
  207POPC   GL2 2789   4.300   4.069   3.875  0.0283  0.1077 -0.0839
  207POPC   C1A 2790   4.636   3.643   3.944 -0.1479  0.3316  0.2643
  207POPC   D2A 2791   4.743   3.290   4.239  0.1724  0.2334  0.0698
  207POPC   C3A 2792   4.553   3.178   4.649  0.2711 -0.1452  0.2287
  207POPC   C4A 2793   4.355   3.363   4.941  0.0240 -0.0007 -0.3717
  207POPC   C1B 2794   3.969   3.943   4.216  0.1811  0.1747 -0.0334
  207POPC   C2B 2795   3.722   3.605   4.245  0.0756  0.0315 -0.0956
  207POPC   C3B 2796   3.479   3.371   4.425  0.1367  0.0678 -0.0080
  207POPC   C4B 2797   3.509   3.003   4.686  0.1350 -0.0913  0.2215
  208POPC   NC3 2798   5.686   9.009   3.509  0.0828 -0.2263  0.1989
  208POPC   PO4 2799   6.206   9.226   3.321 -0.0976  0.0885 -0.1119
  208POPC   GL1 2800   6.269   9.170   3.838  0.0887 -0.1775 -0.0654
  208POPC   GL2 2801   6.511   9.452   3.987 -0.2469  0.0801 -0.3381
  208POPC   C1A 2802   6.146   9.151   4.385  0.2687 -0.0027 -0.0265
  208POPC   D2A 2803   6.203   8.915   4.814 -0.1952  0.1113 -0.1711
  208POPC   C3A 2804   6.187   9.044   5.298 -0.3449 -0.1243 -0.0655
  208POPC   C4A 2805   6.140   9.510   5.354  0.3785 -0.0851 -0.0186
  208POPC   C1B 2806   6.398   9.678   4.315  0.1182 -0.0367 -0.0147
  208POPC   C2B 2807   6.257   9.928   4.621 -0.0021 -0.2208  0.1147
  208POPC   C3B 2808   6.365   9.884   5.023 -0.0772  0.0192  0.0936
  208POPC   C4B 2809   6.287  10.052   5.467  0.1674  0.4425  0.0474
  209POPC   NC3 2810   7.140   5.257   3.784  0.2186  0.1708  0.0703
  209POPC   PO4 2811   7.564   5.445   3.589  0.0243 -0.0263  0.0949
  209POPC   GL1 2812   7.568   5.355   4.069  0.0282  0.1849  0.2525
  209POPC   GL2 2813   7.810   5.160   4.284 -0.0394  0.1833 -0.0063
  209POPC   C1A 2814   7.449   5.463   4.433 -0.0395  0.1764  0.2406
  209POPC   D2A 2815   7.450   5.590   4.765 -0.2020  0.2121 -0.0041
  209POPC   C3A 2816   7.645   5.421   5.200 -0.0225  0.0159 -0.2692
  209POPC   C4A 2817   8.108   5.283   5.419  0.4652 -0.0422  0.1428
  209POPC   C1B 2818   8.221   5.185   4.502 -0.2547  0.0945  0.0092
  209POPC   C2B 2819   8.507   5.231   4.807  0.0777  0.0591  0.2090
  209POPC   C3B 2820   8.569   5.425   5.145 -0.2235 -0.4081  0.0061
  209POPC   C4B 2821   8.455   5.688   5.516 -0.0107  0.1115  0.0496
  210POPC   NC3 2822   0.216   9.698   3.537  0.0194  0.3029  0.0363
  210POPC   PO4 2823  -0.040   9.389   3.374  0.3369  0.0853  0.1648
  210POPC   GL1 2824  -0.088   9.452   3.851 -0.1551  0.2358  0.1421
  210POPC   GL2 2825   0.093   9.316   4.037  0.1590  0.1020  0.4163
  210POPC   C1A 2826  -0.035   9.787   4.240  0.2427 -0.1783 -0.2437
  210POPC   D2A 2827  -0.134   9.702   4.703 -0.3171 -0.0518  0.0479
  210POPC   C3A 2828   0.068   9.795   5.135 -0.0111 -0.3389 -0.0638
  210POPC   C4A 2829   0.005  10.059   5.526  0.1456 -0.1158 -0.0208
  210POPC   C1B 2830  -0.071   9.216   4.496  0.2039  0.1597  0.0601
  210POPC   C2B 2831  -0.306   9.300   4.928 -0.0315  0.0625  0.0435
  210POPC   C3B 2832  -0.632   9.032   5.055 -0.1413  0.2743 -0.0728
  210POPC   C4B 2833  -0.824   9.225   5.330  0.1587 -0.2788  0.1621
  211POPC   NC3 2834   9.702   8.817   3.727 -0.1010 -0.0176 -0.1365
  211POPC   PO4 2835  10.204   8.908   3.805 -0.1916  0.0635 -0.0246
  211POPC   GL1 2836  10.020   8.847   4.134 -0.1858 -0.1087 -0.0579
  211POPC   GL2 2837   9.912   8.669   4.171  0.1890 -0.0596  0.0204
  211POPC   C1A 2838   9.965   9.119   4.603 -0.3015 -0.3325 -0.2316
  211POPC   D2A 2839   9.791   9.090   4.958  0.1722  0.4340  0.3849
  211POPC   C3A 2840   9.721   8.774   5.157  0.3453 -0.2546 -0.2267
  211POPC   C4A 2841   9.491   8.599   5.452  0.2770 -0.0842 -0.0137
  211POPC   C1B 2842  10.243   8.287   4.440  0.2860 -0.0605  0.0903
  211POPC   C2B 2843  10.363   8.287   4.870 -0.1642 -0.5390 -0.0090
  211POPC   C3B 2844  10.168   8.488   5.246 -0.0944 -0.0412  0.0530
  211POPC   C4B 2845  10.048   8.776   5.529 -0.4311 -0.1417  0.0135
  212POPC   NC3 2846  10.359   0.735   3.750 -0.4309 -0.0663 -0.1591
  212POPC   PO4 2847  10.220   1.078   3.501 -0.0607  0.0563  0.0755
  212POPC   GL1 2848  10.656   1.189   3.804  0.3386  0.1332  0.2935
  212POPC   GL2 2849  10.933   1.230   3.677  0.1810  0.0591  0.0208
  212POPC   C1A 2850  10.950   1.255   4.177 -0.0544 -0.0306  0.1347
  212POPC   D2A 2851  11.241   1.438   4.552  0.2451  0.3021  0.0154
  212POPC   C3A 2852  11.115   1.486   5.007  0.1160 -0.0617  0.3565
  212POPC   C4A 2853  10.979   1.577   5.405 -0.0405 -0.0132  0.1484
  212POPC   C1B 2854  11.265   1.530   3.880 -0.0839 -0.0938  0.1742
  212POPC   C2B 2855  11.709   1.544   3.893 -0.0166 -0.2384  0.0931
  212POPC   C3B 2856  12.065   1.653   4.281  0.0931 -0.2650  0.3632
  212POPC   C4B 2857  12.106   1.923   4.619 -0.1931  0.1737  0.5429
  213POPC   NC3 2858   3.863   8.402   3.467 -0.0642 -0.0129 -0.1002
  213POPC   PO4 2859   3.842   8.003   3.691 -0.3406 -0.2587 -0.0140
  213POPC   GL1 2860   4.117   7.722   3.996  0.1110 -0.0510  0.0359
  213POPC   GL2 2861   4.243   7.358   4.008  0.0071  0.0289  0.1715
  213POPC   C1A 2862   4.341   7.800   4.383 -0.1846 -0.2345  0.0016
  213POPC   D2A 2863   4.728   8.124   4.497  0.0212  0.0162  0.2600
  213POPC   C3A 2864   4.987   8.134   4.951  0.0318 -0.1982  0.2012
  213POPC   C4A 2865   4.901   8.197   5.377 -0.0907 -0.0412 -0.1174
  213POPC   C1B 2866   4.168   7.093   4.277  0.0290  0.2299 -0.1282
  213POPC   C2B 2867   4.299   7.024   4.774  0.1927 -0.1916  0.1546
  213POPC   C3B 2868   4.420   7.206   5.215  0.3357 -0.0471 -0.0692
  213POPC   C4B 2869   4.582   7.178   5.566  0.0254  0.0565 -0.0699
  214POPC   NC3 2870   6.621   7.095   3.583 -0.0753  0.0767 -0.0086
  214POPC   PO4 2871   6.104   7.286   3.631  0.0912 -0.1806 -0.0310
  214POPC   GL1 2872   6.238   7.452   4.041  0.0310  0.0608  0.1327
  214POPC   GL2 2873   6.633   7.411   4.009 -0.0651 -0.0462  0.3652
  214POPC   C1A 2874   5.934   7.687   4.307 -0.0005  0.1730 -0.0044
  214POPC   D2A 2875   5.629   7.896   4.583 -0.1131 -0.0334 -0.2086
  214POPC   C3A 2876   5.496   8.086   4.946  0.2600 -0.0096  0.3016
  214POPC   C4A 2877   5.414   8.401   5.105 -0.0796 -0.1345  0.2519
  214POPC   C1B 2878   6.484   7.360   4.503 -0.2135  0.0829  0.1677
  214POPC   C2B 2879   6.267   7.405   4.902  0.1684  0.0657  0.0314
  214POPC   C3B 2880   6.181   7.587   5.340 -0.3699 -0.2128 -0.0582
  214POPC   C4B 2881   5.963   7.717   5.672 -0.1296 -0.1040  0.0035
  215POPC   NC3 2882   5.875   7.037   3.215 -0.0071  0.5043 -0.0134
  215POPC   PO4 2883   5.547   7.264   3.509 -0.2884  0.2373  0.1038
  215POPC   GL1 2884   5.373   7.118   3.939 -0.1149 -0.0851  0.1513
  215POPC   GL2 2885   5.093   6.866   3.921 -0.3904  0.1850 -0.1360
  215POPC   C1A 2886   5.456   6.770   4.250 -0.2708 -0.0758  0.2318
  215POPC   D2A 2887   5.631   6.648   4.611 -0.4571 -0.0664 -0.0441
  215POPC   C3A 2888   5.695   6.923   4.987 -0.1276  0.0062  0.1680
  215POPC   C4A 2889   5.357   6.972   5.288 -0.0001 -0.2781 -0.0247
  215POPC   C1B 2890   4.974   6.886   4.237  0.1714  0.0371  0.3797
  215POPC   C2B 2891   5.081   6.688   4.586 -0.0541 -0.0343 -0.2686
  215POPC   C3B 2892   5.119   6.567   5.032 -0.1061 -0.2623 -0.0716
  215POPC   C4B 2893   5.218   6.315   5.487  0.0888 -0.0027  0.0127
  216POPC   NC3 2894   8.796   1.995   3.686 -0.0277  0.1575  0.1031
  216POPC   PO4 2895   8.763   1.636   3.813  0.2223  0.0814  0.0094
  216POPC   GL1 2896   8.437   1.416   4.198 -0.3318  0.1612  0.0910
  216POPC   GL2 2897   8.319   1.038   4.041 -0.1747  0.5015  0.0287
  216POPC   C1A 2898   8.096   1.254   4.561  0.0667 -0.2068  0.0508
  216POPC   D2A 2899   7.881   1.139   4.916  0.0940  0.2044  0.0104
  216POPC   C3A 2900   7.741   0.994   5.178 -0.3065  0.3072 -0.0778
  216POPC   C4A 2901   7.485   0.848   5.576  0.1636 -0.0994 -0.0027
  216POPC   C1B 2902   8.545   0.970   4.430  0.2578  0.1026 -0.0332
  216POPC   C2B 2903   8.580   0.819   4.908 -0.1421  0.2303 -0.0208
  216POPC   C3B 2904   8.810   0.902   5.274  0.1767 -0.5352 -0.0116
  216POPC   C4B 2905   9.174   0.761   5.418  0.0765  0.0928  0.0474
  217POPC   NC3 2906   7.851   6.394   3.787 -0.0428  0.0764  0.2882
  217POPC   PO4 2907   8.247   6.243   3.534 -0.0241  0.1571  0.2364
  217POPC   GL1 2908   8.308   6.250   4.013 -0.0823 -0.1065 -0.4164
  217POPC   GL2 2909   8.138   6.334   4.400  0.0531 -0.0466 -0.1369
  217POPC   C1A 2910   8.593   6.086   4.326  0.0761  0.0454  0.0650
  217POPC   D2A 2911   8.839   6.060   4.671  0.1350 -0.0908  0.2158
  217POPC   C3A 2912   8.782   5.881   4.994  0.1963  0.1662 -0.1234
  217POPC   C4A 2913   8.911   5.820   5.365 -0.0404  0.1804  0.3591
  217POPC   C1B 2914   7.934   6.043   4.705 -0.2142 -0.0276 -0.1722
  217POPC   C2B 2915   7.657   6.018   4.982  0.0925  0.2100 -0.2603
  217POPC   C3B 2916   7.330   5.778   5.243 -0.0662 -0.1734  0.1749
  217POPC   C4B 2917   7.166   5.983   5.661 -0.3863  0.0225 -0.3047
  218POPC   NC3 2918   3.447   4.028   3.649  0.0817  0.3015 -0.0194
  218POPC   PO4 2919   3.107   3.675   3.492 -0.0957  0.0781  0.1130
  218POPC   GL1 2920   2.935   3.585   3.816  0.2980 -0.1247  0.2129
  218POPC   GL2 2921   2.584   3.776   3.835 -0.3592 -0.0176  0.1253
  218POPC   C1A 2922   2.876   3.583   4.272 -0.2650 -0.1088 -0.0486
  218POPC   D2A 2923   2.763   3.777   4.606 -0.0812 -0.0247  0.1641
  218POPC   C3A 2924   3.065   3.938   4.928 -0.0255 -0.0124  0.0243
  218POPC   C4A 2925   3.286   4.307   5.025 -0.0918 -0.1039 -0.2649
  218POPC   C1B 2926   2.310   3.738   4.200 -0.3268 -0.1205  0.2880
  218POPC   C2B 2927   2.290   3.704   4.584  0.0914 -0.0063  0.1619
  218POPC   C3B 2928   2.202   3.924   4.926 -0.0659 -0.1737 -0.0836
  218POPC   C4B 2929   1.881   4.043   5.232  0.2329 -0.2445  0.1411
  219POPC   NC3 2930   0.916   1.647   2.974  0.1039 -0.3867 -0.0619
  219POPC   PO4 2931   1.374   1.818   3.095  0.1278 -0.0615 -0.0644
  219POPC   GL1 2932   1.396   1.822   3.502 -0.0708  0.1612 -0.0458
  219POPC   GL2 2933   1.550   2.029   3.585  0.3747 -0.1490 -0.0344
  219POPC   C1A 2934   1.101   1.941   3.831 -0.0864 -0.1268 -0.0105
  219POPC   D2A 2935   0.900   2.198   4.261 -0.1599 -0.0247  0.0939
  219POPC   C3A 2936   0.753   2.139   4.795 -0.1023  0.2697  0.0280
  219POPC   C4A 2937   0.794   2.199   5.167  0.0944 -0.1130 -0.1662
  219POPC   C1B 2938   1.476   2.182   4.037 -0.1532 -0.1643 -0.1144
  219POPC   C2B 2939   1.311   2.404   4.421 -0.0987  0.0555 -0.0731
  219POPC   C3B 2940   1.189   2.457   4.813  0.1122  0.2937  0.1319
  219POPC   C4B 2941   1.261   2.374   5.252 -0.0556 -0.1219 -0.1280
  220POPC   NC3 2942   4.747  10.675   3.471  0.0181 -0.2580  0.0519
  220POPC   PO4 2943   4.477  10.778   3.804  0.1462 -0.1341 -0.2233
  220POPC   GL1 2944   4.340  10.652   4.263 -0.1866  0.1135 -0.2583
  220POPC   GL2 2945   4.529  10.550   4.410  0.4219 -0.1128  0.1313
  220POPC   C1A 2946   4.280  10.917   4.737  0.1789 -0.0536 -0.2400
  220POPC   D2A 2947   4.298  11.254   5.074  0.1050  0.0687  0.0015
  220POPC   C3A 2948   3.960  11.649   5.186  0.3591  0.0606 -0.0379
  220POPC   C4A 2949   3.645  11.999   5.374  0.1734 -0.1521  0.1976
  220POPC   C1B 2950   4.862  10.752   4.704  0.1115  0.1788 -0.2265
  220POPC   C2B 2951   4.821  11.090   5.086 -0.0046  0.0113 -0.0520
  220POPC   C3B 2952   4.809  11.255   5.519 -0.0437  0.1444 -0.0192
  220POPC   C4B 2953   4.871  11.428   5.877 -0.0530 -0.0917  0.1052
  221POPC   NC3 2954   2.444   1.971   3.814 -0.0327  0.0345  0.1547
  221POPC   PO4 2955   2.779   1.650   3.800 -0.0762  0.0976  0.1725
  221POPC   GL1 2956   2.844   1.930   4.107 -0.0213  0.1687  0.0248
  221POPC   GL2 2957   3.049   2.081   4.290  0.2621  0.0769  0.0422
  221POPC   C1A 2958   2.569   2.121   4.531 -0.1881 -0.0973  0.3373
  221POPC   D2A 2959   2.405   2.323   4.876 -0.1189  0.1135 -0.1052
  221POPC   C3A 2960   2.246   2.329   5.231 -0.1080 -0.2883 -0.0262
  221POPC   C4A 2961   2.333   1.978   5.535  0.1045  0.1227  0.1529
  221POPC   C1B 2962   3.242   2.554   4.559 -0.0059 -0.3981  0.0344
  221POPC   C2B 2963   3.078   2.806   4.924  0.1764  0.1799 -0.3162
  221POPC   C3B 2964   3.057   3.156   5.231 -0.0719 -0.0991 -0.2092
  221POPC   C4B 2965   3.058   3.630   5.305 -0.2083 -0.1115 -0.1467
  222POPC   NC3 2966   5.840   6.084   3.532  0.3617 -0.0806  0.1475
  222POPC   PO4 2967   6.141   6.414   3.612 -0.0954  0.1806 -0.0461
  222POPC   GL1 2968   6.259   6.586   3.965 -0.1662 -0.2240 -0.0099
  222POPC   GL2 2969   6.292   6.983   3.946  0.0236 -0.1200 -0.1962
  222POPC   C1A 2970   6.199   6.380   4.425 -0.0065 -0.2691 -0.2690
  222POPC   D2A 2971   5.950   6.429   4.860  0.0689 -0.1607 -0.1281
  222POPC   C3A 2972   6.127   6.473   5.277  0.2086  0.0611  0.4096
  222POPC   C4A 2973   6.071   6.744   5.642 -0.4949 -0.0362 -0.0483
  222POPC   C1B 2974   5.920   6.936   4.280 -0.0097  0.1497  0.1087
  222POPC   C2B 2975   5.878   7.213   4.641  0.3910  0.3178  0.0853
  222POPC   C3B 2976   5.795   7.498   5.029 -0.0429  0.2523  0.3681
  222POPC   C4B 2977   5.494   7.489   5.424  0.2030 -0.0029  0.0721
  223POPC   NC3 2978   1.611   2.921   3.270  0.1868 -0.3372  0.0073
  223POPC   PO4 2979   1.872   3.319   3.390  0.2450 -0.2856 -0.1413
  223POPC   GL1 2980   1.800   3.261   3.796  0.0682  0.2068 -0.1970
  223POPC   GL2 2981   2.023   3.286   4.076 -0.2222  0.1217  0.0593
  223POPC   C1A 2982   1.801   2.821   4.003 -0.0311  0.0830  0.0588
  223POPC   D2A 2983   1.783   2.573   4.381 -0.0823 -0.0698  0.1041
  223POPC   C3A 2984   1.585   2.732   4.693  0.2169 -0.1307 -0.0292
  223POPC   C4A 2985   1.773   3.099   4.900  0.0321  0.0119 -0.2953
  223POPC   C1B 2986   1.733   3.151   4.406  0.3873  0.0156  0.2258
  223POPC   C2B 2987   1.343   3.222   4.754  0.1845 -0.2672  0.0407
  223POPC   C3B 2988   0.967   2.990   4.884  0.0342  0.1302  0.0869
  223POPC   C4B 2989   0.741   2.808   5.123 -0.2278 -0.1395  0.1338
  224POPC   NC3 2990   0.134   5.050   3.150  0.0663 -0.0025 -0.0407
  224POPC   PO4 2991  -0.269   5.182   3.227  0.0130  0.1080  0.0644
  224POPC   GL1 2992  -0.132   4.933   3.579 -0.0143  0.0836  0.1827
  224POPC   GL2 2993  -0.421   5.011   3.662 -0.1055  0.0371  0.0915
  224POPC   C1A 2994   0.095   4.678   3.896 -0.0929 -0.2778 -0.2604
  224POPC   D2A 2995   0.312   4.582   4.294 -0.1515 -0.2115  0.0864
  224POPC   C3A 2996   0.628   4.837   4.493 -0.2714  0.0427  0.0480
  224POPC   C4A 2997   0.851   5.201   4.407 -0.1029 -0.2181  0.0804
  224POPC   C1B 2998  -0.355   4.878   4.033  0.0228 -0.3737  0.2779
  224POPC   C2B 2999  -0.021   4.966   4.260 -0.2507  0.0577  0.1002
  224POPC   C3B 3000   0.194   5.074   4.675 -0.0456  0.0184 -0.2845
  224POPC   C4B 3001   0.387   4.990   5.059 -0.5289  0.0915  0.0963
  225POPC   NC3 3002   8.142   7.947   3.712  0.0598 -0.0047 -0.1278
  225POPC   PO4 3003   8.072   8.329   3.770 -0.2638  0.0798 -0.1654
  225POPC   GL1 3004   8.079   8.364   4.200  0.0363  0.1916 -0.0651
  225POPC   GL2 3005   7.885   8.196   4.360 -0.2589 -0.0318 -0.3820
  225POPC   C1A 3006   8.301   8.605   4.467 -0.2404  0.4455 -0.0955
  225POPC   D2A 3007   8.540   8.990   4.608  0.2384 -0.0793 -0.1249
  225POPC   C3A 3008   8.640   8.980   4.994  0.1299  0.0549  0.1528
  225POPC   C4A 3009   8.750   9.212   5.473 -0.1396 -0.1334  0.0517
  225POPC   C1B 3010   7.866   8.212   4.839 -0.2420 -0.3173  0.1850
  225POPC   C2B 3011   7.972   8.206   5.259 -0.0438  0.1684 -0.1126
  225POPC   C3B 3012   8.036   8.187   5.796  0.1926 -0.0652 -0.2709
  225POPC   C4B 3013   8.216   7.852   6.064  0.3073  0.0012  0.0218
  226POPC   NC3 3014   1.572   0.138   3.749 -0.0165  0.0719  0.0626
  226POPC   PO4 3015   1.924   0.532   3.680  0.1834  0.1387 -0.1392
  226POPC   GL1 3016   1.705   0.680   4.122 -0.1176  0.0067 -0.0478
  226POPC   GL2 3017   1.540   0.503   4.223 -0.0279  0.0982 -0.1940
  226POPC   C1A 3018   1.624   0.913   4.540  0.3822 -0.1482  0.0103
  226POPC   D2A 3019   1.538   0.989   4.983 -0.2108 -0.1108  0.3324
  226POPC   C3A 3020   1.701   1.269   5.261  0.2766 -0.1739  0.0757
  226POPC   C4A 3021   1.272   1.459   5.544 -0.0116  0.2125  0.1558
  226POPC   C1B 3022   1.313   0.244   4.593 -0.0789  0.0385  0.0353
  226POPC   C2B 3023   1.167   0.392   5.027  0.0536  0.0311  0.0727
  226POPC   C3B 3024   1.104   0.192   5.410  0.1540 -0.0180  0.0257
  226POPC   C4B 3025   1.292  -0.078   5.606  0.0110  0.0222 -0.1248
  227POPC   NC3 3026   7.290   5.812   3.820 -0.3910  0.0608 -0.0358
  227POPC   PO4 3027   7.405   6.188   3.730 -0.1660  0.2318  0.1151
  227POPC   GL1 3028   7.523   6.257   4.190  0.0513 -0.0873  0.0181
  227POPC   GL2 3029   7.714   6.585   4.249 -0.1072 -0.0291 -0.1925
  227POPC   C1A 3030   7.395   6.083   4.546 -0.2046  0.0083  0.1029
  227POPC   D2A 3031   7.089   6.105   4.880 -0.0386  0.2217  0.2666
  227POPC   C3A 3032   6.797   5.970   5.067 -0.3274 -0.2606 -0.2325
  227POPC   C4A 3033   6.335   6.115   4.976  0.1130 -0.3617 -0.1102
  227POPC   C1B 3034   7.756   6.616   4.713  0.2336 -0.1709  0.2341
  227POPC   C2B 3035   7.917   6.906   4.988 -0.0878  0.1286 -0.1442
  227POPC   C3B 3036   7.878   7.324   4.960  0.0913 -0.0631 -0.1280
  227POPC   C4B 3037   7.997   7.747   4.872 -0.0290  0.0145 -0.1141
  228POPC   NC3 3038   0.941   9.392   3.524 -0.1408 -0.0694  0.1167
  228POPC   PO4 3039   1.081   9.189   3.848  0.1484  0.0816  0.0415
  228POPC   GL1 3040   1.217   9.364   4.209 -0.0353 -0.1536 -0.0006
  228POPC   GL2 3041   1.396   9.677   4.267  0.0001  0.3115  0.1467
  228POPC   C1A 3042   1.458   9.195   4.594 -0.1596  0.0375 -0.0322
  228POPC   D2A 3043   1.397   9.409   4.973  0.0823 -0.3631  0.2529
  228POPC   C3A 3044   1.665   9.631   5.150  0.1011 -0.1868  0.0188
  228POPC   C4A 3045   1.864   9.711   5.514  0.2029 -0.4340  0.1221
  228POPC   C1B 3046   1.662   9.700   4.595  0.0113 -0.1127  0.1581
  228POPC   C2B 3047   1.954   9.348   4.838  0.1598 -0.2990  0.0481
  228POPC   C3B 3048   2.306   9.353   5.047 -0.1640  0.1245 -0.0913
  228POPC   C4B 3049   2.711   9.191   5.160  0.1159 -0.1166 -0.0141
  229POPC   NC3 3050   3.305   0.202   3.451  0.0472  0.2932 -0.0266
  229POPC   PO4 3051   3.467   0.198   3.899 -0.0301 -0.1497  0.0307
  229POPC   GL1 3052   3.467   0.126   4.335  0.1369 -0.3522 -0.0631
  229POPC   GL2 3053   3.464   0.441   4.485 -0.2480  0.2859 -0.2289
  229POPC   C1A 3054   3.710   0.047   4.696 -0.0692 -0.1903  0.2684
  229POPC   D2A 3055   3.851   0.059   5.010  0.0552  0.0545 -0.1042
  229POPC   C3A 3056   4.147  -0.136   5.284  0.2780  0.0716  0.0252
  229POPC   C4A 3057   4.094  -0.058   5.644 -0.1200  0.0350 -0.3337
  229POPC   C1B 3058   3.995   0.521   4.678  0.1899  0.1830  0.0835
  229POPC   C2B 3059   4.274   0.763   4.770  0.1399 -0.0905  0.3303
  229POPC   C3B 3060   4.569   0.759   5.177 -0.2622 -0.1812  0.0001
  229POPC   C4B 3061   4.813   0.889   5.550  0.4497 -0.1082  0.1386
  230POPC   NC3 3062   8.043   5.448   3.888 -0.0015 -0.0441 -0.2454
  230POPC   PO4 3063   8.491   5.431   3.618  0.1009  0.0260 -0.2329
  230POPC   GL1 3064   8.840   5.293   4.002 -0.0504 -0.0004 -0.2049
  230POPC   GL2 3065   8.841   5.686   4.135  0.2027 -0.0711  0.2812
  230POPC   C1A 3066   9.121   5.126   4.284  0.1682 -0.0242 -0.1123
  230POPC   D2A 3067   9.320   4.868   4.606 -0.0196 -0.1807  0.2061
  230POPC   C3A 3068   9.378   4.890   5.031 -0.0179 -0.0409  0.0508
  230POPC   C4A 3069   9.077   5.000   5.403 -0.0724  0.2416  0.0302
  230POPC   C1B 3070   8.876   5.486   4.501 -0.0066 -0.0996  0.1492
  230POPC   C2B 3071   9.025   5.432   4.943 -0.0195  0.0128 -0.1003
  230POPC   C3B 3072   9.288   5.419   5.198  0.2506 -0.0805  0.3673
  230POPC   C4B 3073   9.654   5.244   5.234  0.2974 -0.2831 -0.0598
  231POPC   NC3 3074   4.914   9.709   3.909  0.1333 -0.1356 -0.0148
  231POPC   PO4 3075   4.506   9.915   3.814  0.1381  0.2625  0.4547
  231POPC   GL1 3076   4.534   9.950   4.265  0.1970  0.4598  0.2097
  231POPC   GL2 3077   4.777   9.654   4.405  0.1795  0.0706  0.0877
  231POPC   C1A 3078   4.576  10.126   4.656  0.1627  0.0110 -0.1014
  231POPC   D2A 3079   4.478  10.487   4.915 -0.0543  0.0352  0.0774
  231POPC   C3A 3080   4.658  10.657   5.310 -0.4046 -0.1376 -0.1476
  231POPC   C4A 3081   4.916  10.407   5.602 -0.1090 -0.0153 -0.3317
  231POPC   C1B 3082   4.937   9.792   4.726 -0.0158 -0.1172  0.2241
  231POPC   C2B 3083   5.174   9.755   5.085 -0.1698 -0.2978  0.0892
  231POPC   C3B 3084   5.187   9.422   5.465 -0.1071  0.3403  0.0270
  231POPC   C4B 3085   5.292   9.102   5.725  0.1020 -0.0467  0.0053
  232POPC   NC3 3086   8.553   4.896   3.631  0.1924 -0.1512  0.1463
  232POPC   PO4 3087   8.972   5.189   3.518  0.0733  0.2093  0.0084
  232POPC   GL1 3088   9.048   4.834   3.740  0.2545 -0.0487 -0.1750
  232POPC   GL2 3089   8.856   4.777   4.065 -0.2018  0.1887 -0.2031
  232POPC   C1A 3090   9.360   4.836   3.988 -0.1494 -0.1886 -0.1334
  232POPC   D2A 3091   9.759   4.854   3.863 -0.0572 -0.0858 -0.2826
  232POPC   C3A 3092  10.113   4.628   3.844  0.2160  0.4156  0.0239
  232POPC   C4A 3093  10.299   4.447   4.086  0.0413  0.1739  0.0739
  232POPC   C1B 3094   8.702   4.902   4.496  0.1760 -0.2083 -0.3439
  232POPC   C2B 3095   8.765   4.789   4.996  0.2255 -0.0743  0.0473
  232POPC   C3B 3096   8.488   4.502   5.209  0.0500  0.1457 -0.2207
  232POPC   C4B 3097   8.330   4.072   5.272  0.0018 -0.1554 -0.1393
  233POPC   NC3 3098   3.983   0.046   3.701  0.0256 -0.0741  0.0889
  233POPC   PO4 3099   4.307   0.262   4.017 -0.2676 -0.2715  0.1202
  233POPC   GL1 3100   4.515   0.340   4.384 -0.1864  0.2539  0.0220
  233POPC   GL2 3101   4.826   0.189   4.340  0.1832 -0.0256  0.1432
  233POPC   C1A 3102   4.730   0.537   4.764 -0.0087  0.2548 -0.0324
  233POPC   D2A 3103   5.088   0.664   5.022  0.1088  0.0124 -0.4379
  233POPC   C3A 3104   5.273   0.608   5.547  0.2554  0.4881 -0.0299
  233POPC   C4A 3105   5.441   0.610   6.046 -0.2043 -0.3288  0.0019
  233POPC   C1B 3106   5.163   0.275   4.707  0.5796 -0.3462 -0.1614
  233POPC   C2B 3107   5.396   0.143   5.124  0.1303 -0.0580  0.0900
  233POPC   C3B 3108   5.368  -0.014   5.620  0.0879 -0.1956 -0.1291
  233POPC   C4B 3109   5.180   0.111   5.992  0.0063 -0.2432 -0.2539
  234POPC   NC3 3110   6.838   4.866   3.291  0.0193  0.1686  0.3265
  234POPC   PO4 3111   6.713   5.148   3.494  0.2996  0.1457  0.2501
  234POPC   GL1 3112   6.699   5.096   3.834  0.0744  0.0919 -0.0628
  234POPC   GL2 3113   6.580   4.856   3.898  0.1915  0.1693 -0.2888
  234POPC   C1A 3114   6.870   5.084   4.330  0.1007 -0.1261 -0.2037
  234POPC   D2A 3115   6.682   5.095   4.801  0.0262 -0.2867  0.0293
  234POPC   C3A 3116   6.249   5.057   4.770 -0.2583 -0.1880 -0.0963
  234POPC   C4A 3117   5.860   5.210   4.929  0.0035 -0.1956 -0.5975
  234POPC   C1B 3118   6.573   4.690   4.362 -0.2767  0.4303  0.1742
  234POPC   C2B 3119   6.506   4.588   4.703  0.2546  0.2790 -0.3930
  234POPC   C3B 3120   6.539   4.695   5.106  0.0553 -0.0841 -0.1258
  234POPC   C4B 3121   6.239   4.903   5.346  0.2450  0.3229 -0.2642
  235POPC   NC3 3122  10.178  10.042   3.389 -0.2701 -0.0573 -0.1008
  235POPC   PO4 3123  10.457  10.488   3.351 -0.0314  0.0775 -0.0852
  235POPC   GL1 3124  10.294  10.472   3.831 -0.0742  0.1456  0.3563
  235POPC   GL2 3125  10.442  10.787   4.025 -0.0942  0.1086  0.1173
  235POPC   C1A 3126  10.124  10.371   4.145 -0.1497 -0.2085  0.0596
  235POPC   D2A 3127   9.796  10.465   4.484  0.1723  0.4093  0.0705
  235POPC   C3A 3128  10.023  10.358   4.823  0.0983 -0.2030 -0.0957
  235POPC   C4A 3129  10.178  10.181   5.135  0.0990 -0.2024 -0.2904
  235POPC   C1B 3130  10.217  10.962   4.309 -0.3429  0.0502  0.0866
  235POPC   C2B 3131  10.119  10.891   4.728  0.2497  0.1306 -0.1007
  235POPC   C3B 3132  10.224  10.739   5.235  0.3931  0.0600  0.0062
  235POPC   C4B 3133  10.511  10.786   5.533  0.0275  0.1795 -0.0754
  236POPC   NC3 3134   4.149  10.260   3.913  0.1950 -0.0515 -0.4491
  236POPC   PO4 3135   4.079   9.759   4.022 -0.2858  0.0797 -0.0579
  236POPC   GL1 3136   4.227   9.635   4.516  0.3109 -0.0548 -0.2430
  236POPC   GL2 3137   4.206   9.290   4.386 -0.0653 -0.0331 -0.1193
  236POPC   C1A 3138   4.503   9.696   4.888  0.1878 -0.0325 -0.0465
  236POPC   D2A 3139   4.647  10.019   5.153 -0.1149  0.1112  0.0239
  236POPC   C3A 3140   5.053  10.226   5.067 -0.3680 -0.0089 -0.1859
  236POPC   C4A 3141   5.231  10.612   5.174 -0.1289 -0.0581 -0.0051
  236POPC   C1B 3142   4.431   9.155   4.741  0.1327  0.0394  0.0170
  236POPC   C2B 3143   4.569   8.993   5.026 -0.0299  0.1680  0.0858
  236POPC   C3B 3144   4.661   9.049   5.461  0.0112  0.2185  0.2032
  236POPC   C4B 3145   4.922   8.745   5.657 -0.1398 -0.3234 -0.1407
  237POPC   NC3 3146  10.140   8.148   3.464  0.1907 -0.0025  0.0464
  237POPC   PO4 3147  10.101   8.406   3.758  0.1318 -0.2632 -0.3786
  237POPC   GL1 3148   9.795   8.162   3.959  0.0204  0.1323  0.1687
  237POPC   GL2 3149   9.532   8.354   4.050 -0.0447 -0.1334  0.0546
  237POPC   C1A 3150   9.760   7.938   4.288  0.1162  0.0059 -0.2362
  237POPC   D2A 3151   9.509   7.779   4.597 -0.2087 -0.3211 -0.1353
  237POPC   C3A 3152   9.632   7.795   5.051  0.0994  0.0193  0.3165
  237POPC   C4A 3153   9.669   7.390   5.261 -0.1845  0.1484 -0.3346
  237POPC   C1B 3154   9.561   8.340   4.521 -0.2615  0.0792  0.0745
  237POPC   C2B 3155   9.360   8.308   5.025 -0.0657 -0.1510 -0.0732
  237POPC   C3B 3156   9.018   8.254   5.408 -0.1291 -0.3427  0.3166
  237POPC   C4B 3157   8.850   7.896   5.712 -0.1385 -0.2132  0.0239
  238POPC   NC3 3158   0.745   7.446   3.182 -0.1101  0.1268 -0.0014
  238POPC   PO4 3159   0.873   7.017   3.265  0.0035 -0.0332 -0.0310
  238POPC   GL1 3160   1.171   6.996   3.689  0.0442  0.0012 -0.1959
  238POPC   GL2 3161   1.358   7.212   3.769 -0.0512  0.0278  0.1971
  238POPC   C1A 3162   1.204   6.758   4.096  0.0955  0.0582  0.1246
  238POPC   D2A 3163   1.428   6.916   4.393  0.0068 -0.0142 -0.2392
  238POPC   C3A 3164   1.238   6.984   4.820 -0.1423 -0.1454 -0.1891
  238POPC   C4A 3165   1.311   6.917   5.262 -0.0235  0.1541  0.1204
  238POPC   C1B 3166   1.237   7.430   4.106 -0.0413 -0.0415  0.0000
  238POPC   C2B 3167   1.326   7.348   4.519  0.1670 -0.1771  0.4723
  238POPC   C3B 3168   1.536   7.446   4.828 -0.0434  0.1433  0.0763
  238POPC   C4B 3169   1.819   7.359   5.161 -0.0580 -0.1299  0.3492
  239POPC   NC3 3170   8.825   8.803   3.543 -0.1243 -0.0241 -0.1076
  239POPC   PO4 3171   8.472   8.423   3.483  0.1123 -0.0287  0.1040
  239POPC   GL1 3172   8.500   8.527   3.959 -0.1060  0.2343 -0.0217
  239POPC   GL2 3173   8.782   8.767   4.191 -0.0397  0.3431 -0.1492
  239POPC   C1A 3174   8.558   8.207   4.312  0.0832  0.4923  0.0075
  239POPC   D2A 3175   8.309   8.107   4.604 -0.0781 -0.1671 -0.1918
  239POPC   C3A 3176   8.462   8.017   5.102  0.4958  0.4896 -0.1540
  239POPC   C4A 3177   8.404   8.030   5.450 -0.0720  0.0480  0.1569
  239POPC   C1B 3178   9.016   9.018   4.507 -0.5171  0.3093  0.2619
  239POPC   C2B 3179   9.097   9.223   5.023  0.0380 -0.0250 -0.0330
  239POPC   C3B 3180   9.370   9.156   5.291  0.1359  0.0450  0.0808
  239POPC   C4B 3181   9.602   9.082   5.612 -0.3369 -0.0183  0.2687
  240POPC   NC3 3182   8.951   5.683   3.656 -0.1291 -0.0685  0.2729
  240POPC   PO4 3183   9.284   6.014   3.530  0.1880 -0.0168 -0.0771
  240POPC   GL1 3184   9.632   5.864   3.834 -0.0429  0.0643  0.1186
  240POPC   GL2 3185   9.912   6.073   3.814 -0.1192  0.0613  0.2834
  240POPC   C1A 3186   9.806   5.960   4.257 -0.0325 -0.0480 -0.1724
  240POPC   D2A 3187   9.733   6.080   4.764  0.0128  0.0971  0.0414
  240POPC   C3A 3188   9.480   6.341   4.922  0.0221  0.1928  0.0193
  240POPC   C4A 3189   9.496   6.542   5.309 -0.0777 -0.1667 -0.2742
  240POPC   C1B 3190  10.163   6.429   4.010  0.1883  0.3056 -0.3957
  240POPC   C2B 3191  10.296   6.658   4.397  0.0594 -0.2469 -0.4065
  240POPC   C3B 3192  10.457   6.585   4.821 -0.3018 -0.0270  0.2070
  240POPC   C4B 3193  10.859   6.553   5.084  0.0794  0.0053  0.1090
  241POPC   NC3 3194   6.219   2.894   3.387 -0.0448 -0.1053  0.1223
  241POPC   PO4 3195   6.345   2.652   3.771  0.1802 -0.0608 -0.2209
  241POPC   GL1 3196   6.510   2.536   4.104  0.2221  0.0196  0.1169
  241POPC   GL2 3197   6.704   2.771   4.223  0.3015  0.1362  0.1570
  241POPC   C1A 3198   6.421   2.496   4.549  0.0173 -0.1921  0.0861
  241POPC   D2A 3199   6.416   2.530   4.952 -0.0219  0.0545  0.0551
  241POPC   C3A 3200   6.044   2.775   5.111 -0.0035 -0.0587 -0.1551
  241POPC   C4A 3201   5.684   2.813   5.261 -0.1153  0.0260  0.1769
  241POPC   C1B 3202   6.758   3.262   4.424  0.1760  0.1594  0.0900
  241POPC   C2B 3203   7.039   3.613   4.535 -0.1392 -0.0995 -0.0782
  241POPC   C3B 3204   7.143   4.050   4.825  0.1960 -0.0815 -0.1351
  241POPC   C4B 3205   7.322   4.165   5.159  0.1823 -0.0235 -0.1786
  242POPC   NC3 3206   2.361  10.573   3.675  0.2011  0.1445 -0.2326
  242POPC   PO4 3207   2.402  10.104   3.791 -0.2660 -0.0047  0.2181
  242POPC   GL1 3208   2.509  10.171   4.262  0.0306 -0.0874 -0.0454
  242POPC   GL2 3209   2.206  10.330   4.298  0.2942 -0.1351 -0.0222
  242POPC   C1A 3210   2.453   9.994   4.733 -0.2155 -0.0657 -0.1100
  242POPC   D2A 3211   2.050   9.899   4.932  0.4628  0.1864  0.0490
  242POPC   C3A 3212   1.830  10.107   5.208 -0.0488 -0.0454 -0.1898
  242POPC   C4A 3213   1.947  10.153   5.678 -0.0665 -0.3003  0.1232
  242POPC   C1B 3214   1.905  10.348   4.700 -0.0532 -0.0165  0.0858
  242POPC   C2B 3215   1.524  10.236   4.843  0.0876  0.2009  0.1754
  242POPC   C3B 3216   1.233   9.999   5.242 -0.1716 -0.1459  0.2711
  242POPC   C4B 3217   1.133  10.015   5.728 -0.2658  0.3743 -0.1231
  243POPC   NC3 3218  10.749   5.798   3.399  0.2366  0.0904 -0.1730
  243POPC   PO4 3219  10.936   5.422   3.527  0.0096  0.1362 -0.3108
  243POPC   GL1 3220  10.669   5.369   3.901  0.0109 -0.2200 -0.0027
  243POPC   GL2 3221  10.889   5.608   4.081 -0.0531  0.2394 -0.0793
  243POPC   C1A 3222  10.521   5.370   4.293 -0.0117  0.0189 -0.1554
  243POPC   D2A 3223  10.652   5.238   4.770  0.0173 -0.1430  0.1046
  243POPC   C3A 3224  10.764   4.885   5.013  0.3997 -0.4065  0.0615
  243POPC   C4A 3225  11.068   4.499   5.131 -0.1768 -0.2267 -0.1469
  243POPC   C1B 3226  10.909   5.642   4.496 -0.4273 -0.0945 -0.6429
  243POPC   C2B 3227  11.084   5.566   5.003  0.2240  0.1225 -0.1020
  243POPC   C3B 3228  11.238   5.554   5.363  0.3525 -0.0719  0.1123
  243POPC   C4B 3229  11.472   5.186   5.524  0.2344 -0.0064 -0.1049
  244POPC   NC3 3230   3.195  10.004   3.511  0.2521  0.4198  0.1094
  244POPC   PO4 3231   3.223  10.355   3.886  0.0290  0.1114  0.0881
  244POPC   GL1 3232   3.191  10.308   4.324 -0.1773  0.1265  0.1280
  244POPC   GL2 3233   2.904  10.139   4.501  0.0283  0.2675 -0.1402
  244POPC   C1A 3234   3.308  10.465   4.766  0.0838  0.0930  0.1262
  244POPC   D2A 3235   3.283  10.578   5.257  0.3923  0.0421 -0.1512
  244POPC   C3A 3236   2.956  10.833   5.347  0.0853  0.0808  0.1004
  244POPC   C4A 3237   2.486  10.964   5.442  0.0379  0.0738 -0.1628
  244POPC   C1B 3238   3.005  10.092   4.877 -0.0861  0.1326 -0.3162
  244POPC   C2B 3239   3.224  10.105   5.132 -0.1869  0.4692 -0.2279
  244POPC   C3B 3240   3.257  10.112   5.577 -0.3712  0.0405  0.1315
  244POPC   C4B 3241   3.311   9.882   5.891 -0.1829 -0.2636 -0.0685
  245POPC   NC3 3242   9.356   5.532   3.310 -0.0049  0.1001  0.2076
  245POPC   PO4 3243   9.740   5.432   3.525  0.4624  0.2514  0.1330
  245POPC   GL1 3244   9.608   5.383   3.913 -0.0019 -0.4237 -0.0842
  245POPC   GL2 3245   9.327   5.410   3.857 -0.1101 -0.0367 -0.2168
  245POPC   C1A 3246   9.685   5.164   4.261 -0.1670 -0.4379 -0.0590
  245POPC   D2A 3247   9.490   5.299   4.655 -0.1368  0.2621  0.3539
  245POPC   C3A 3248   9.639   5.582   4.844  0.0622  0.3827 -0.0148
  245POPC   C4A 3249  10.059   5.689   4.797 -0.1532 -0.1553 -0.1114
  245POPC   C1B 3250   9.345   5.590   4.245  0.3070 -0.0307  0.2358
  245POPC   C2B 3251   9.269   5.803   4.588  0.1384  0.0470  0.0435
  245POPC   C3B 3252   9.274   5.900   5.036  0.1454 -0.0998  0.0623
  245POPC   C4B 3253   9.253   6.134   5.396  0.2494 -0.0556 -0.0973
  246POPC   NC3 3254   5.640   4.304   3.213  0.2047  0.2465 -0.1861
  246POPC   PO4 3255   5.499   3.984   3.625  0.2691 -0.1540  0.0412
  246POPC   GL1 3256   5.563   4.076   4.023  0.1206 -0.1326  0.1933
  246POPC   GL2 3257   5.843   4.187   4.062 -0.1424  0.1056  0.0672
  246POPC   C1A 3258   5.327   3.948   4.414  0.0555  0.2879  0.2829
  246POPC   D2A 3259   5.218   3.649   4.699 -0.0109 -0.0636  0.1101
  246POPC   C3A 3260   4.939   3.691   5.116  0.0275 -0.2722  0.0208
  246POPC   C4A 3261   4.917   3.382   5.379 -0.1626 -0.2412  0.2939
  246POPC   C1B 3262   5.904   3.876   4.436  0.1388  0.1563  0.2114
  246POPC   C2B 3263   5.687   3.652   4.790 -0.0371  0.0330  0.0366
  246POPC   C3B 3264   5.738   3.527   5.227 -0.0152  0.2525 -0.0283
  246POPC   C4B 3265   5.802   3.148   5.607  0.0627  0.1611  0.0163
  247POPC   NC3 3266   0.147   7.953   3.723 -0.0331  0.1775  0.1773
  247POPC   PO4 3267   0.387   7.667   3.403 -0.1904 -0.0272 -0.0749
  247POPC   GL1 3268   0.285   7.505   3.834  0.0577 -0.2149  0.4227
  247POPC   GL2 3269   0.309   7.645   4.094 -0.0549  0.1926 -0.0124
  247POPC   C1A 3270   0.238   7.145   4.144  0.0305 -0.3524 -0.0714
  247POPC   D2A 3271  -0.121   6.887   4.451 -0.2737  0.2783 -0.0320
  247POPC   C3A 3272   0.088   6.481   4.625 -0.0248  0.0954  0.1000
  247POPC   C4A 3273   0.473   6.464   4.847 -0.1053 -0.0559  0.2106
  247POPC   C1B 3274   0.324   7.591   4.439 -0.0193  0.1820  0.0586
  247POPC   C2B 3275   0.338   7.230   4.632  0.0259  0.1303  0.0348
  247POPC   C3B 3276   0.429   6.772   4.475  0.1247  0.0414  0.0010
  247POPC   C4B 3277   0.216   6.587   4.116 -0.0108  0.1200 -0.1033
  248POPC   NC3 3278   1.816   4.901   3.296 -0.1496  0.6045  0.0092
  248POPC   PO4 3279   1.504   5.171   3.514  0.0984 -0.4107 -0.0451
  248POPC   GL1 3280   1.291   5.302   3.973  0.0315 -0.1302 -0.3329
  248POPC   GL2 3281   1.151   5.037   3.889 -0.2508  0.1178  0.5415
  248POPC   C1A 3282   1.444   5.507   4.324 -0.0199  0.2372 -0.0388
  248POPC   D2A 3283   1.543   5.554   4.783 -0.1498 -0.1586  0.1624
  248POPC   C3A 3284   1.110   5.646   5.032 -0.0702 -0.1755 -0.0844
  248POPC   C4A 3285   0.819   5.609   5.412  0.0749  0.1824 -0.1550
  248POPC   C1B 3286   1.347   4.817   4.242  0.1779 -0.0916 -0.0200
  248POPC   C2B 3287   1.149   4.747   4.509 -0.1032 -0.1062 -0.0714
  248POPC   C3B 3288   1.277   4.724   4.923 -0.3363 -0.1321  0.0029
  248POPC   C4B 3289   1.565   4.457   5.163 -0.2085  0.0644 -0.0315
  249POPC   NC3 3290   3.502   8.314   3.965  0.0850  0.1127 -0.0722
  249POPC   PO4 3291   3.436   8.652   3.652 -0.0286 -0.2918 -0.3738
  249POPC   GL1 3292   3.292   8.818   4.056 -0.0047  0.1995  0.0847
  249POPC   GL2 3293   3.275   9.182   4.227  0.2663  0.0295  0.1037
  249POPC   C1A 3294   3.205   8.695   4.476 -0.0289 -0.2159  0.0168
  249POPC   D2A 3295   3.098   8.787   4.858  0.2542 -0.1899  0.2629
  249POPC   C3A 3296   3.098   9.273   4.880  0.2576  0.0033  0.0767
  249POPC   C4A 3297   3.294   9.600   5.173  0.2583 -0.0673  0.3243
  249POPC   C1B 3298   3.508   9.107   4.613 -0.1321  0.1176 -0.1555
  249POPC   C2B 3299   3.624   9.150   5.012 -0.2257 -0.0192  0.2060
  249POPC   C3B 3300   3.709   8.892   5.398  0.0455 -0.2613  0.1820
  249POPC   C4B 3301   3.914   8.556   5.551 -0.1197 -0.2396 -0.1268
  250POPC   NC3 3302   1.094   8.684   3.754  0.0576 -0.3036  0.3673
  250POPC   PO4 3303   0.817   8.889   3.451  0.0618  0.2564  0.2998
  250POPC   GL1 3304   0.680   8.890   3.923  0.1811  0.1258  0.0169
  250POPC   GL2 3305   0.623   8.663   3.991  0.1638  0.2758  0.3911
  250POPC   C1A 3306   0.537   9.088   4.336  0.2016  0.0971 -0.1937
  250POPC   D2A 3307   0.577   9.010   4.791 -0.0376 -0.0281 -0.0369
  250POPC   C3A 3308   0.185   9.031   5.012 -0.2012  0.0453 -0.0957
  250POPC   C4A 3309   0.032   9.280   5.373 -0.1201  0.0509  0.1604
  250POPC   C1B 3310   0.743   8.581   4.359 -0.1456 -0.0424  0.3720
  250POPC   C2B 3311   0.832   8.547   4.758 -0.1175 -0.0178  0.0573
  250POPC   C3B 3312   0.940   8.542   5.155  0.2080 -0.0834  0.1397
  250POPC   C4B 3313   0.771   8.710   5.598  0.3595 -0.1280  0.0798
  251POPC   NC3 3314   2.391   5.620   3.345  0.2966 -0.2682  0.3693
  251POPC   PO4 3315   2.358   5.491   3.809 -0.1220 -0.2258 -0.0810
  251POPC   GL1 3316   2.220   5.423   4.161  0.2907  0.4057 -0.1998
  251POPC   GL2 3317   2.210   4.997   4.231  0.0189  0.0535 -0.1439
  251POPC   C1A 3318   1.926   5.302   4.505  0.0289 -0.0159  0.1992
  251POPC   D2A 3319   1.616   5.066   4.589  0.0438 -0.0060 -0.0637
  251POPC   C3A 3320   1.225   5.201   4.790  0.1898 -0.4000  0.1597
  251POPC   C4A 3321   0.857   5.111   4.995  0.0480  0.1978 -0.0622
  251POPC   C1B 3322   1.994   4.717   4.544  0.0892 -0.0811 -0.3214
  251POPC   C2B 3323   1.679   4.431   4.676  0.1987  0.1085  0.0817
  251POPC   C3B 3324   1.739   4.058   4.742  0.1186 -0.0193  0.1760
  251POPC   C4B 3325   1.787   3.623   4.723 -0.0797  0.0609 -0.1784
  252POPC   NC3 3326   6.864   0.275   3.401  0.3088  0.1189  0.2149
  252POPC   PO4 3327   6.333   0.095   3.535 -0.0835  0.1383 -0.4270
  252POPC   GL1 3328   6.129   0.218   3.952 -0.0821 -0.1649 -0.4094
  252POPC   GL2 3329   6.171   0.462   4.104 -0.0506  0.0862  0.0207
  252POPC   C1A 3330   6.036   0.097   4.454  0.0124  0.0131  0.2034
  252POPC   D2A 3331   6.002  -0.268   4.669  0.1728  0.0270 -0.0564
  252POPC   C3A 3332   6.278  -0.392   4.377 -0.0388  0.0881 -0.1490
  252POPC   C4A 3333   6.324  -0.746   4.214  0.0980 -0.0411  0.1665
  252POPC   C1B 3334   6.055   0.652   4.498 -0.1102 -0.2769 -0.2991
  252POPC   C2B 3335   6.182   0.676   4.908 -0.0090  0.0039 -0.3108
  252POPC   C3B 3336   6.083   0.542   5.268  0.1642 -0.2010  0.2606
  252POPC   C4B 3337   5.712   0.399   5.474  0.1243 -0.0397 -0.3437
  253POPC   NC3 3338   8.049   8.848   3.830  0.1373 -0.3547  0.0542
  253POPC   PO4 3339   7.604   9.037   3.606  0.0659 -0.0508 -0.0890
  253POPC   GL1 3340   7.639   9.120   4.014 -0.1646  0.1946 -0.0773
  253POPC   GL2 3341   7.516   8.754   4.201 -0.2109  0.0944 -0.2252
  253POPC   C1A 3342   7.552   9.132   4.538  0.2545 -0.0162 -0.1555
  253POPC   D2A 3343   7.344   8.839   4.826  0.3025  0.0467  0.0640
  253POPC   C3A 3344   7.224   8.801   5.271  0.1342 -0.1547 -0.1675
  253POPC   C4A 3345   7.294   8.980   5.671 -0.0071 -0.0277  0.2439
  253POPC   C1B 3346   7.725   8.623   4.598  0.1035  0.2984 -0.1906
  253POPC   C2B 3347   7.658   8.593   5.094  0.3753 -0.1748  0.0461
  253POPC   C3B 3348   7.511   8.261   5.368  0.2563 -0.0560  0.1347
  253POPC   C4B 3349   7.088   8.407   5.500  0.1067  0.0636  0.0455
  254POPC   NC3 3350   8.086   2.515   3.558  0.2263  0.2052  0.0721
  254POPC   PO4 3351   8.367   2.287   3.933 -0.4211 -0.1175 -0.1801
  254POPC   GL1 3352   8.151   2.135   4.237  0.1106  0.1825  0.2683
  254POPC   GL2 3353   8.052   1.829   4.249  0.6470  0.0932  0.0807
  254POPC   C1A 3354   7.903   2.106   4.605 -0.1063  0.0613 -0.0252
  254POPC   D2A 3355   7.537   2.283   4.938 -0.1235 -0.2178  0.0593
  254POPC   C3A 3356   7.140   2.389   4.796  0.1320  0.0813 -0.0171
  254POPC   C4A 3357   6.869   2.801   4.676  0.0381 -0.3301 -0.0899
  254POPC   C1B 3358   7.726   1.598   4.495 -0.0338 -0.0244  0.3183
  254POPC   C2B 3359   7.403   1.422   4.820  0.2605  0.1852 -0.0193
  254POPC   C3B 3360   7.457   1.478   5.297  0.0351  0.1565  0.1380
  254POPC   C4B 3361   7.467   1.295   5.734 -0.0618 -0.0772  0.0494
  255POPC   NC3 3362   0.730   2.730   2.894 -0.1693 -0.1922 -0.0356
  255POPC   PO4 3363   1.177   2.915   3.100 -0.0854  0.1230 -0.1800
  255POPC   GL1 3364   1.075   2.694   3.456 -0.0225 -0.0840  0.0316
  255POPC   GL2 3365   1.425   2.626   3.646 -0.2346  0.1362 -0.1106
  255POPC   C1A 3366   0.757   2.366   3.755  0.0697 -0.1634  0.2915
  255POPC   D2A 3367   0.544   2.045   3.958  0.0867  0.2262 -0.0215
  255POPC   C3A 3368   0.666   1.814   4.380  0.1692 -0.0452  0.4123
  255POPC   C4A 3369   0.821   1.597   4.698  0.1994  0.1089  0.0133
  255POPC   C1B 3370   1.286   2.693   3.965 -0.2188 -0.1059 -0.1444
  255POPC   C2B 3371   1.221   2.947   4.300 -0.1538  0.1689 -0.0143
  255POPC   C3B 3372   0.917   3.201   4.429  0.0513 -0.1771  0.1206
  255POPC   C4B 3373   0.919   3.523   4.657  0.1531 -0.4042 -0.1528
  256POPC   NC3 3374   0.236   0.472   3.002  0.0420 -0.2700  0.0660
  256POPC   PO4 3375   0.263   0.328   3.415 -0.2388 -0.2493  0.0286
  256POPC   GL1 3376   0.214   0.190   3.869 -0.0232  0.0606 -0.3126
  256POPC   GL2 3377   0.592   0.214   3.886 -0.5198 -0.0035 -0.4658
  256POPC   C1A 3378   0.237   0.320   4.309  0.0867 -0.2030 -0.0573
  256POPC   D2A 3379   0.234   0.051   4.679  0.0276  0.4759  0.0471
  256POPC   C3A 3380   0.151   0.188   5.170  0.1298  0.1168 -0.0256
  256POPC   C4A 3381  -0.185   0.395   5.373 -0.4098  0.0915  0.1187
  256POPC   C1B 3382   0.760   0.039   4.359 -0.2053  0.0896  0.1282
  256POPC   C2B 3383   0.877  -0.035   4.779  0.1688 -0.0442 -0.2448
  256POPC   C3B 3384   0.909  -0.183   5.176 -0.0617  0.2815  0.1713
  256POPC   C4B 3385   1.056  -0.545   5.452  0.1006 -0.2863 -0.2742
  257POPC   NC3 3386   7.959   1.561   3.356 -0.1240 -0.1271  0.3453
  257POPC   PO4 3387   7.864   1.963   3.739  0.2565  0.2230  0.2466
  257POPC   GL1 3388   7.641   2.034   4.014 -0.1622 -0.0658 -0.2297
  257POPC   GL2 3389   7.523   1.650   4.009 -0.1735  0.2501  0.1445
  257POPC   C1A 3390   7.401   2.087   4.504 -0.0989 -0.2126  0.2864
  257POPC   D2A 3391   7.186   1.833   4.795  0.0100 -0.1259  0.0232
  257POPC   C3A 3392   7.180   1.874   5.222  0.3250  0.1409 -0.0037
  257POPC   C4A 3393   7.508   2.002   5.536 -0.1765  0.1868 -0.1192
  257POPC   C1B 3394   7.245   1.322   4.290  0.1195  0.1473 -0.2864
  257POPC   C2B 3395   6.930   1.145   4.528  0.1156  0.0956  0.0541
  257POPC   C3B 3396   6.706   1.027   4.890  0.0993 -0.0168 -0.0005
  257POPC   C4B 3397   6.556   0.796   5.181  0.0032 -0.3529 -0.0427
  258POPC   NC3 3398   5.351   7.737   3.286  0.0670  0.4495  0.0488
  258POPC   PO4 3399   5.112   7.511   3.235 -0.2500 -0.0048  0.0193
  258POPC   GL1 3400   5.068   7.537   3.697 -0.4670  0.0860  0.1659
  258POPC   GL2 3401   5.151   7.849   3.776  0.1497 -0.1623 -0.2301
  258POPC   C1A 3402   4.961   7.484   4.090  0.3428  0.0584  0.0049
  258POPC   D2A 3403   4.697   7.311   4.392  0.1657  0.3943  0.0867
  258POPC   C3A 3404   4.855   7.179   4.856  0.1634 -0.2218  0.1754
  258POPC   C4A 3405   4.909   7.316   5.246 -0.1972  0.0562  0.6161
  258POPC   C1B 3406   5.403   7.745   4.056  0.1441  0.0458  0.1722
  258POPC   C2B 3407   5.451   7.432   4.439  0.0366  0.0765 -0.0412
  258POPC   C3B 3408   5.297   7.344   4.808 -0.0474 -0.0447 -0.0831
  258POPC   C4B 3409   5.153   7.739   5.086  0.0942  0.2644 -0.1819
  259POPC   NC3 3410   4.920   2.748   3.239 -0.0902 -0.1796 -0.2219
  259POPC   PO4 3411   5.384   2.717   3.156 -0.2063  0.1556 -0.1399
  259POPC   GL1 3412   5.234   2.677   3.645  0.1708  0.1985  0.2234
  259POPC   GL2 3413   5.184   2.408   3.871  0.0677  0.2140 -0.1322
  259POPC   C1A 3414   5.037   2.885   4.041  0.0059  0.0200 -0.1661
  259POPC   D2A 3415   4.957   2.849   4.491  0.1837  0.1721 -0.1679
  259POPC   C3A 3416   5.231   3.188   4.655  0.2900  0.4358 -0.0759
  259POPC   C4A 3417   5.424   3.263   5.032 -0.1186  0.0886  0.1785
  259POPC   C1B 3418   5.053   2.341   4.243  0.0733  0.0240  0.0389
  259POPC   C2B 3419   4.665   2.426   4.623 -0.0716 -0.1683 -0.2604
  259POPC   C3B 3420   4.328   2.291   4.804 -0.3692  0.1277  0.2756
  259POPC   C4B 3421   3.941   2.212   5.063 -0.1629 -0.0089  0.0412
  260POPC   NC3 3422   6.518  10.923   3.031 -0.1531 -0.1234 -0.0171
  260POPC   PO4 3423   6.707  10.583   3.401 -0.0663 -0.0183  0.0157
  260POPC   GL1 3424   6.744  10.354   3.828 -0.0426 -0.0767  0.3633
  260POPC   GL2 3425   6.862  10.016   3.704  0.2795  0.3310 -0.1843
  260POPC   C1A 3426   6.881  10.463   4.169  0.0028  0.1206 -0.3786
  260POPC   D2A 3427   7.182  10.505   4.558 -0.1001  0.1502  0.0747
  260POPC   C3A 3428   7.174  10.248   4.859  0.2052  0.0720 -0.0388
  260POPC   C4A 3429   7.059  10.135   5.378 -0.2974  0.2875  0.1151
  260POPC   C1B 3430   6.809   9.974   4.218 -0.0614 -0.3509 -0.1919
  260POPC   C2B 3431   6.699  10.193   4.570 -0.4923 -0.2085  0.0837
  260POPC   C3B 3432   6.684  10.663   4.656 -0.0680 -0.0049  0.0553
  260POPC   C4B 3433   6.539  11.014   4.417 -0.1244  0.0712  0.1792
  261POPC   NC3 3434   8.860   6.252   3.755  0.1799 -0.0721  0.0016
  261POPC   PO4 3435   8.610   6.604   3.822  0.0273 -0.1194 -0.2338
  261POPC   GL1 3436   8.633   6.778   4.126  0.2148  0.3829  0.1996
  261POPC   GL2 3437   8.609   7.152   4.199  0.0230  0.0994  0.2487
  261POPC   C1A 3438   8.518   6.689   4.516 -0.3201 -0.3566  0.2543
  261POPC   D2A 3439   8.389   6.358   4.897 -0.0775 -0.2072  0.1272
  261POPC   C3A 3440   8.080   6.341   5.262  0.1744 -0.0039  0.1102
  261POPC   C4A 3441   8.074   6.760   5.457  0.0426 -0.1462 -0.1151
  261POPC   C1B 3442   8.827   7.125   4.613  0.2349 -0.1272  0.1359
  261POPC   C2B 3443   8.803   7.306   5.044 -0.2627 -0.1169 -0.0825
  261POPC   C3B 3444   8.725   7.512   5.417 -0.0041 -0.0917  0.0861
  261POPC   C4B 3445   8.439   7.618   5.731  0.0203 -0.1750  0.0099
  262POPC   NC3 3446   2.891   5.240   3.286 -0.2091 -0.2024 -0.2674
  262POPC   PO4 3447   3.362   5.311   3.354 -0.1088 -0.4502  0.1598
  262POPC   GL1 3448   3.234   5.463   3.748 -0.1971 -0.0785 -0.1174
  262POPC   GL2 3449   3.427   5.704   3.907  0.1093 -0.3197  0.2170
  262POPC   C1A 3450   2.979   5.500   4.141  0.0805  0.0287 -0.1737
  262POPC   D2A 3451   2.855   5.614   4.473 -0.1807  0.0124 -0.2397
  262POPC   C3A 3452   3.112   5.575   4.756  0.1360  0.0145 -0.1680
  262POPC   C4A 3453   3.491   5.855   4.840  0.2814 -0.1292  0.2644
  262POPC   C1B 3454   3.500   5.592   4.409 -0.1573 -0.1787  0.0158
  262POPC   C2B 3455   3.603   5.318   4.723  0.2539  0.1413 -0.2097
  262POPC   C3B 3456   3.908   4.979   4.771  0.1445 -0.0994 -0.0351
  262POPC   C4B 3457   4.215   4.849   4.565  0.1925  0.2615 -0.0820
  263POPC   NC3 3458   2.353   9.529   3.918  0.1832  0.2003 -0.1943
  263POPC   PO4 3459   2.428   9.149   3.856  0.1957  0.1068  0.0390
  263POPC   GL1 3460   2.676   9.151   4.193  0.0450 -0.2661  0.2123
  263POPC   GL2 3461   2.772   9.526   4.171  0.0365  0.0851  0.0228
  263POPC   C1A 3462   2.612   9.120   4.647  0.1676  0.0175 -0.3561
  263POPC   D2A 3463   2.269   8.936   4.767 -0.0221 -0.0521 -0.2122
  263POPC   C3A 3464   2.352   8.797   5.121  0.0750 -0.0293  0.1268
  263POPC   C4A 3465   2.312   8.350   5.237  0.0680 -0.2029  0.0655
  263POPC   C1B 3466   2.816   9.648   4.652  0.1186 -0.0373 -0.2557
  263POPC   C2B 3467   2.807   9.636   5.099 -0.1885 -0.1365 -0.1750
  263POPC   C3B 3468   2.430   9.675   5.461 -0.1777 -0.2192  0.0042
  263POPC   C4B 3469   2.357   9.911   5.824 -0.2191  0.1000  0.0845
  264POPC   NC3 3470   9.089  10.691   3.455  0.4020 -0.2346 -0.1390
  264POPC   PO4 3471   9.229  10.213   3.606  0.0215 -0.1218  0.1714
  264POPC   GL1 3472   9.023  10.000   4.038  0.1578 -0.3066 -0.2119
  264POPC   GL2 3473   8.974   9.666   3.933 -0.3622  0.0127 -0.3164
  264POPC   C1A 3474   9.158  10.057   4.470  0.0966 -0.2785 -0.1235
  264POPC   D2A 3475   9.196   9.805   4.796 -0.0720  0.2239  0.0187
  264POPC   C3A 3476   9.149   9.686   5.227  0.1598 -0.1838 -0.0645
  264POPC   C4A 3477   9.053   9.638   5.564 -0.0500 -0.0066  0.1297
  264POPC   C1B 3478   9.173   9.481   4.293 -0.0791 -0.2256 -0.4148
  264POPC   C2B 3479   9.435   9.366   4.646 -0.2909 -0.0918 -0.1194
  264POPC   C3B 3480   9.597   9.562   5.097  0.3280  0.2079  0.1753
  264POPC   C4B 3481   9.617   9.660   5.601 -0.1894  0.1248  0.1130
  265POPC   NC3 3482   4.884   6.720   3.028  0.2350  0.0271  0.0981
  265POPC   PO4 3483   4.670   6.357   3.235  0.1257  0.1488  0.2336
  265POPC   GL1 3484   4.759   6.193   3.630 -0.0374 -0.1997 -0.0953
  265POPC   GL2 3485   4.668   6.451   3.878 -0.0207 -0.0003  0.1021
  265POPC   C1A 3486   4.497   5.989   4.029 -0.3677 -0.0380 -0.1571
  265POPC   D2A 3487   4.152   5.692   4.220 -0.1325  0.3312 -0.0033
  265POPC   C3A 3488   3.960   5.767   4.660 -0.0005  0.1995  0.3229
  265POPC   C4A 3489   3.921   5.684   5.026  0.0766  0.0143 -0.1940
  265POPC   C1B 3490   4.832   6.270   4.265  0.0028 -0.1040  0.2017
  265POPC   C2B 3491   4.877   6.170   4.678  0.4065  0.3382 -0.2513
  265POPC   C3B 3492   5.063   6.013   5.055 -0.1444  0.4682 -0.3856
  265POPC   C4B 3493   5.099   5.708   5.397  0.1348  0.5329 -0.0867
  266POPC   NC3 3494   7.944   9.771   3.209 -0.2801 -0.0271  0.0313
  266POPC   PO4 3495   7.977   9.876   3.647 -0.3031 -0.0226 -0.2334
  266POPC   GL1 3496   7.878   9.725   4.000 -0.3394 -0.2052  0.4180
  266POPC   GL2 3497   8.026   9.484   4.020  0.0780  0.1458  0.1902
  266POPC   C1A 3498   7.566   9.617   4.297  0.3167  0.1121 -0.4918
  266POPC   D2A 3499   7.075   9.512   4.284 -0.1426 -0.1038 -0.0460
  266POPC   C3A 3500   6.829   9.611   4.612 -0.4671 -0.2367  0.0413
  266POPC   C4A 3501   6.865   9.846   4.933 -0.6280 -0.2458  0.3766
  266POPC   C1B 3502   8.020   9.503   4.488  0.0996 -0.4796 -0.0608
  266POPC   C2B 3503   8.312   9.371   4.941  0.0987  0.0165  0.0830
  266POPC   C3B 3504   8.226   9.132   5.379  0.0486  0.0231  0.1435
  266POPC   C4B 3505   8.214   9.164   5.761  0.1233  0.1574  0.0038
  267POPC   NC3 3506   5.717   0.491   3.768 -0.0177 -0.3153 -0.1177
  267POPC   PO4 3507   5.334   0.196   3.877 -0.0505  0.2100 -0.1552
  267POPC   GL1 3508   5.434   0.121   4.255  0.4787  0.0416 -0.1283
  267POPC   GL2 3509   5.608   0.438   4.388  0.0884 -0.0821 -0.1105
  267POPC   C1A 3510   5.579   0.060   4.664  0.0879 -0.0167  0.0978
  267POPC   D2A 3511   5.903   0.141   4.981 -0.0399  0.1625  0.2034
  267POPC   C3A 3512   6.308   0.098   4.940  0.3861 -0.2621 -0.2673
  267POPC   C4A 3513   6.659   0.010   5.125  0.0054  0.0081 -0.1596
  267POPC   C1B 3514   5.601   0.599   4.799 -0.0012  0.2045 -0.1604
  267POPC   C2B 3515   5.776   0.891   5.092  0.1894  0.0625  0.1281
  267POPC   C3B 3516   6.136   1.006   5.389  0.1202 -0.0826 -0.4485
  267POPC   C4B 3517   6.093   1.091   5.811 -0.1896 -0.1613  0.1186
  268POPC   NC3 3518   3.360   1.227   4.079 -0.0201 -0.0821  0.1357
  268POPC   PO4 3519   3.310   1.684   4.059  0.0555 -0.2168  0.0585
  268POPC   GL1 3520   3.424   1.621   4.521 -0.0881  0.0512  0.1582
  268POPC   GL2 3521   3.673   1.470   4.671 -0.1430 -0.0355 -0.0807
  268POPC   C1A 3522   3.264   1.370   4.863 -0.1563  0.1509 -0.4567
  268POPC   D2A 3523   3.052   1.247   5.355  0.1609  0.0180  0.0034
  268POPC   C3A 3524   2.746   1.468   5.698  0.2329 -0.2050 -0.3993
  268POPC   C4A 3525   2.893   1.826   5.867 -0.1443 -0.2205 -0.4325
  268POPC   C1B 3526   3.836   1.488   5.208  0.0595  0.0761  0.0442
  268POPC   C2B 3527   3.897   1.691   5.500  0.0416 -0.2537 -0.1280
  268POPC   C3B 3528   4.025   2.181   5.564 -0.1705 -0.1446 -0.0655
  268POPC   C4B 3529   4.367   2.480   5.358  0.0563  0.0485 -0.0633
  269POPC   NC3 3530   8.765  10.303   3.415 -0.2927  0.2854  0.1698
  269POPC   PO4 3531   8.574  10.708   3.524  0.1989 -0.0325  0.0235
  269POPC   GL1 3532   8.698  10.683   3.931  0.0805 -0.0402 -0.1119
  269POPC   GL2 3533   8.745  10.423   3.919  0.1922  0.1233  0.2487
  269POPC   C1A 3534   8.602  10.798   4.417 -0.0423 -0.1705 -0.0940
  269POPC   D2A 3535   8.385  10.905   4.704  0.1816 -0.0625  0.0173
  269POPC   C3A 3536   8.524  11.170   5.016 -0.3954  0.3927 -0.1063
  269POPC   C4A 3537   8.944  11.245   5.191 -0.0624  0.2497 -0.2740
  269POPC   C1B 3538   8.661  10.250   4.408 -0.4068  0.0927  0.2403
  269POPC   C2B 3539   8.725  10.040   4.790  0.2309 -0.0054  0.0521
  269POPC   C3B 3540   8.966  10.214   5.106 -0.0165 -0.0973  0.2233
  269POPC   C4B 3541   9.013  10.500   5.407  0.0896  0.2536 -0.3043
  270POPC   NC3 3542   3.303   6.496   3.768 -0.0191  0.1981  0.0122
  270POPC   PO4 3543   3.237   6.018   3.622  0.1685 -0.4875  0.3554
  270POPC   GL1 3544   3.167   6.107   4.057  0.1519  0.0929 -0.2185
  270POPC   GL2 3545   3.136   6.477   4.223 -0.2389 -0.2715  0.0627
  270POPC   C1A 3546   3.179   5.971   4.481  0.1684 -0.0399 -0.0047
  270POPC   D2A 3547   3.057   6.166   4.861 -0.1550  0.3698  0.1955
  270POPC   C3A 3548   3.042   5.800   5.190 -0.0470  0.1029 -0.2192
  270POPC   C4A 3549   3.222   5.558   5.653  0.2483 -0.5673  0.0124
  270POPC   C1B 3550   3.446   6.373   4.552  0.1457 -0.0921  0.0135
  270POPC   C2B 3551   3.604   6.330   4.917 -0.0781  0.1530 -0.2140
  270POPC   C3B 3552   3.547   6.203   5.305 -0.0750 -0.0925  0.1752
  270POPC   C4B 3553   3.869   6.000   5.426 -0.1041  0.1591  0.2808
  271POPC   NC3 3554  10.433   9.280   3.580  0.3502  0.0216 -0.1435
  271POPC   PO4 3555  10.337   9.689   3.703 -0.3146  0.1629 -0.2459
  271POPC   GL1 3556  10.401   9.588   4.090  0.0424 -0.0665  0.2180
  271POPC   GL2 3557  10.200   9.832   4.269 -0.1696  0.0094 -0.0144
  271POPC   C1A 3558  10.330   9.451   4.460 -0.0800  0.1225  0.1078
  271POPC   D2A 3559  10.074   9.481   4.880 -0.0375  0.0930  0.2324
  271POPC   C3A 3560  10.063   9.707   5.244 -0.0919  0.0101 -0.0883
  271POPC   C4A 3561  10.273  10.002   5.608 -0.2050 -0.0997 -0.1034
  271POPC   C1B 3562  10.203   9.945   4.674 -0.2578 -0.0989  0.2147
  271POPC   C2B 3563  10.476   9.811   5.036 -0.0899  0.1398  0.2819
  271POPC   C3B 3564  10.534   9.628   5.497  0.1250  0.2076  0.2516
  271POPC   C4B 3565  10.939   9.548   5.769 -0.0181 -0.0729 -0.1983
  272POPC   NC3 3566   1.829   0.214   3.300 -0.1196  0.2073 -0.2951
  272POPC   PO4 3567   2.109   0.068   3.711  0.1201  0.0288 -0.1596
  272POPC   GL1 3568   2.069   0.305   4.119  0.0937 -0.1685 -0.0414
  272POPC   GL2 3569   2.233   0.615   4.111 -0.1328 -0.4378 -0.0430
  272POPC   C1A 3570   1.958   0.361   4.556  0.4616  0.1648  0.0658
  272POPC   D2A 3571   1.625   0.476   4.958 -0.0089  0.2677  0.1155
  272POPC   C3A 3572   1.548   0.139   5.249 -0.2809  0.0826  0.2837
  272POPC   C4A 3573   1.640  -0.449   5.435  0.1448  0.1143 -0.1738
  272POPC   C1B 3574   2.133   0.835   4.453  0.0004  0.0313  0.1089
  272POPC   C2B 3575   2.398   1.007   4.794 -0.2320  0.2553 -0.0398
  272POPC   C3B 3576   2.557   1.505   4.950 -0.1569 -0.0494 -0.2253
  272POPC   C4B 3577   2.599   1.894   5.092 -0.0916 -0.0543 -0.2101
  273POPC   NC3 3578   6.165  10.522   3.647 -0.2594  0.0413 -0.1295
  273POPC   PO4 3579   5.747  10.315   3.727 -0.0205 -0.1063 -0.0062
  273POPC   GL1 3580   5.853  10.110   4.064  0.3395 -0.0756  0.2146
  273POPC   GL2 3581   5.963   9.805   4.127 -0.2134 -0.5039 -0.2092
  273POPC   C1A 3582   5.913  10.232   4.460  0.2108  0.0205 -0.0502
  273POPC   D2A 3583   5.953  10.222   4.899 -0.2303  0.3693 -0.1632
  273POPC   C3A 3584   6.355  10.400   4.923  0.0376  0.1745  0.2718
  273POPC   C4A 3585   6.723  10.268   5.091  0.1708  0.2447  0.1026
  273POPC   C1B 3586   5.820   9.639   4.456  0.0350 -0.2227 -0.4459
  273POPC   C2B 3587   5.837   9.718   4.953  0.1891  0.0671 -0.1417
  273POPC   C3B 3588   5.792   9.848   5.370 -0.1076  0.0929 -0.2187
  273POPC   C4B 3589   5.669   9.603   5.735 -0.2044  0.1602  0.0944
  274POPC   NC3 3590  10.760   1.173   3.178  0.1234  0.2207 -0.0368
  274POPC   PO4 3591  10.847   0.784   3.255  0.0371  0.0747  0.0829
  274POPC   GL1 3592  10.792   0.567   3.609 -0.4002  0.0164 -0.1467
  274POPC   GL2 3593  10.909   0.720   4.003  0.0373 -0.1518  0.2397
  274POPC   C1A 3594  10.667   0.296   4.027 -0.1510 -0.3721 -0.0770
  274POPC   D2A 3595  10.688   0.176   4.423 -0.2644 -0.1789  0.2237
  274POPC   C3A 3596  10.854   0.464   4.800  0.0432  0.2033 -0.0144
  274POPC   C4A 3597  10.932   1.032   4.823  0.0007  0.2641 -0.1386
  274POPC   C1B 3598  10.817   0.771   4.364 -0.0724  0.0078 -0.1785
  274POPC   C2B 3599  10.436   0.929   4.701  0.2017  0.0457  0.1065
  274POPC   C3B 3600  10.268   0.843   5.065  0.1544  0.0250  0.3956
  274POPC   C4B 3601  10.274   0.705   5.432  0.1651 -0.1759 -0.6261
  275POPC   NC3 3602   5.047   0.908   3.317 -0.2547 -0.1653 -0.0726
  275POPC   PO4 3603   5.134   0.824   3.663 -0.2530  0.2242 -0.3236
  275POPC   GL1 3604   5.140   0.833   4.126  0.1222  0.2944 -0.0717
  275POPC   GL2 3605   5.021   0.668   4.359 -0.2691 -0.2431  0.1799
  275POPC   C1A 3606   5.376   1.062   4.381 -0.0522  0.2763 -0.0279
  275POPC   D2A 3607   5.761   1.041   4.528 -0.1245 -0.2786 -0.1682
  275POPC   C3A 3608   5.832   1.265   4.820 -0.0013  0.2738 -0.1629
  275POPC   C4A 3609   5.815   1.419   5.257  0.0177  0.1578 -0.1783
  275POPC   C1B 3610   4.825   0.996   4.496  0.1557 -0.1734  0.1360
  275POPC   C2B 3611   4.966   1.446   4.561 -0.0187  0.0970 -0.3964
  275POPC   C3B 3612   5.110   1.667   4.995  0.0069  0.1325 -0.0868
  275POPC   C4B 3613   5.393   1.679   5.263  0.4790  0.0362  0.1599
  276POPC   NC3 3614   3.670  10.129   4.015 -0.3855 -0.3633  0.0614
  276POPC   PO4 3615   3.661  10.545   4.229 -0.4292 -0.2259 -0.0746
  276POPC   GL1 3616   3.911  10.406   4.538  0.1695  0.0057 -0.0168
  276POPC   GL2 3617   4.125  10.175   4.405 -0.1641 -0.1362  0.0002
  276POPC   C1A 3618   3.959  10.436   4.970 -0.0074  0.0928  0.0081
  276POPC   D2A 3619   4.118  10.273   5.352  0.1295  0.1694  0.1843
  276POPC   C3A 3620   4.409  10.090   5.610  0.0739  0.1168  0.2867
  276POPC   C4A 3621   4.473  10.307   6.009 -0.0583 -0.1541  0.2673
  276POPC   C1B 3622   4.067   9.976   4.793 -0.2321 -0.1032 -0.0810
  276POPC   C2B 3623   4.156   9.772   5.297 -0.0613 -0.1298  0.0851
  276POPC   C3B 3624   3.793   9.517   5.456  0.0823  0.1513  0.0470
  276POPC   C4B 3625   3.358   9.404   5.621 -0.1222 -0.3411  0.2620
  277POPC   NC3 3626   2.211   5.009   3.762  0.1873  0.0506  0.0986
  277POPC   PO4 3627   2.471   5.086   3.435  0.2581  0.0655 -0.3278
  277POPC   GL1 3628   2.688   5.163   3.815 -0.0427  0.2399  0.1543
  277POPC   GL2 3629   2.981   5.061   4.024  0.2491  0.0007  0.0239
  277POPC   C1A 3630   2.613   5.167   4.357 -0.0798  0.0426  0.2200
  277POPC   D2A 3631   2.339   5.188   4.744  0.2290 -0.1798 -0.0925
  277POPC   C3A 3632   2.487   5.160   5.201  0.0837  0.0848 -0.0737
  277POPC   C4A 3633   2.623   5.110   5.603  0.2215 -0.1216 -0.0548
  277POPC   C1B 3634   3.241   5.074   4.423  0.0968 -0.4401 -0.1102
  277POPC   C2B 3635   3.300   4.928   4.780  0.2120  0.1479  0.1810
  277POPC   C3B 3636   3.505   4.750   5.063 -0.0670 -0.0377  0.1780
  277POPC   C4B 3637   3.356   4.549   5.467  0.2454 -0.3904 -0.0352
  278POPC   NC3 3638   2.005   8.739   3.793  0.0778  0.0421  0.1197
  278POPC   PO4 3639   1.557   8.509   3.845  0.1402 -0.0439  0.1287
  278POPC   GL1 3640   1.709   8.354   4.169  0.4876  0.1382 -0.0022
  278POPC   GL2 3641   1.972   8.148   3.955 -0.0650 -0.1396 -0.0333
  278POPC   C1A 3642   1.649   8.275   4.536  0.0144 -0.1302  0.0612
  278POPC   D2A 3643   1.833   7.937   4.789 -0.0301 -0.1038  0.1753
  278POPC   C3A 3644   1.548   7.799   5.157  0.0151  0.0201 -0.1414
  278POPC   C4A 3645   1.706   7.650   5.644 -0.2522  0.0024 -0.0477
  278POPC   C1B 3646   2.109   8.055   4.353 -0.1256  0.2944  0.1410
  278POPC   C2B 3647   2.361   8.047   4.653 -0.0513  0.0533 -0.1735
  278POPC   C3B 3648   2.703   7.816   4.944  0.1824 -0.0263 -0.0252
  278POPC   C4B 3649   2.591   7.793   5.340 -0.0495  0.0693  0.0582
  279POPC   NC3 3650   1.781   2.114   3.069  0.2094 -0.2635  0.0313
  279POPC   PO4 3651   2.006   1.951   3.545 -0.0166  0.0505 -0.0459
  279POPC   GL1 3652   1.901   1.830   4.016  0.0205  0.0523  0.2225
  279POPC   GL2 3653   1.578   1.663   4.024 -0.0305  0.0491  0.2559
  279POPC   C1A 3654   1.721   1.881   4.390 -0.0583  0.0526  0.3439
  279POPC   D2A 3655   1.575   1.787   4.810 -0.1822 -0.2480  0.1217
  279POPC   C3A 3656   1.267   1.882   5.114 -0.0776 -0.0434  0.0835
  279POPC   C4A 3657   0.954   1.885   5.529  0.1106  0.0794  0.3376
  279POPC   C1B 3658   1.732   1.405   4.387 -0.0500 -0.0556  0.1215
  279POPC   C2B 3659   1.858   1.390   4.774  0.3130 -0.1957  0.2727
  279POPC   C3B 3660   2.122   1.288   5.083  0.0766  0.1703 -0.0505
  279POPC   C4B 3661   2.131   1.157   5.454 -0.0139  0.2262 -0.0689
  280POPC   NC3 3662   6.461   2.112   3.763  0.1256 -0.1233  0.0103
  280POPC   PO4 3663   6.819   2.128   3.813 -0.0561 -0.0352  0.0244
  280POPC   GL1 3664   6.992   2.329   4.150 -0.1414 -0.2918  0.3618
  280POPC   GL2 3665   6.817   2.281   4.397  0.3342 -0.2153  0.0768
  280POPC   C1A 3666   7.347   2.511   4.313 -0.3080 -0.0836  0.1225
  280POPC   D2A 3667   7.417   2.780   4.717  0.1242 -0.0558  0.1901
  280POPC   C3A 3668   7.680   3.202   4.623  0.0333 -0.3432 -0.2645
  280POPC   C4A 3669   7.690   3.551   4.323 -0.1716  0.1370  0.2452
  280POPC   C1B 3670   6.670   2.129   4.781  0.0772 -0.0173 -0.2733
  280POPC   C2B 3671   6.840   2.260   5.181  0.3842 -0.2080  0.0972
  280POPC   C3B 3672   6.987   2.198   5.627 -0.1736  0.2814  0.0825
  280POPC   C4B 3673   7.308   2.446   5.875 -0.0045 -0.2512 -0.1001
  281POPC   NC3 3674   2.725   4.190   3.393  0.0534 -0.2443  0.2898
  281POPC   PO4 3675   3.172   4.375   3.422 -0.0468 -0.5529 -0.2033
  281POPC   GL1 3676   3.136   4.303   3.904  0.2565  0.0216 -0.2429
  281POPC   GL2 3677   2.879   4.106   4.040 -0.2539  0.2593 -0.4678
  281POPC   C1A 3678   3.219   3.976   4.381 -0.0806  0.0117  0.0628
  281POPC   D2A 3679   3.544   3.783   4.690 -0.1387 -0.1708 -0.2194
  281POPC   C3A 3680   3.643   3.838   5.110  0.2777  0.4147 -0.1806
  281POPC   C4A 3681   3.529   3.526   5.513  0.0901 -0.1469  0.2152
  281POPC   C1B 3682   2.639   4.223   4.388 -0.1979 -0.0330  0.0798
  281POPC   C2B 3683   2.587   4.278   4.854  0.3351  0.1022 -0.0046
  281POPC   C3B 3684   2.729   4.220   5.305 -0.2646 -0.0877 -0.3722
  281POPC   C4B 3685   2.768   4.028   5.640 -0.6842 -0.1125 -0.0424
  282POPC   NC3 3686   4.080   1.595   3.644  0.1488 -0.4978 -0.2633
  282POPC   PO4 3687   4.480   1.560   3.855  0.1263 -0.1210 -0.0902
  282POPC   GL1 3688   4.275   1.717   4.218  0.1761 -0.0766 -0.2540
  282POPC   GL2 3689   4.441   1.422   4.330 -0.1656 -0.1608 -0.1160
  282POPC   C1A 3690   4.048   1.785   4.651  0.1164  0.2161 -0.1700
  282POPC   D2A 3691   4.178   1.785   5.068 -0.1391 -0.0787 -0.1186
  282POPC   C3A 3692   4.555   2.028   5.130 -0.1734  0.3435  0.0174
  282POPC   C4A 3693   4.823   1.980   5.372  0.0991 -0.0478 -0.1801
  282POPC   C1B 3694   4.247   1.251   4.731  0.2084  0.3045  0.0083
  282POPC   C2B 3695   4.214   1.195   5.086  0.0324  0.3498 -0.2023
  282POPC   C3B 3696   4.515   1.235   5.370  0.0705 -0.1120 -0.1098
  282POPC   C4B 3697   4.886   1.444   5.392 -0.2018 -0.0179 -0.0986
  283POPC   NC3 3698   4.497   1.903   3.464 -0.0299  0.3435 -0.2312
  283POPC   PO4 3699   4.942   1.889   3.410 -0.1953 -0.0439 -0.1585
  283POPC   GL1 3700   4.891   1.793   3.775 -0.0106  0.2626 -0.0422
  283POPC   GL2 3701   4.744   2.104   3.937  0.4427  0.1030  0.1108
  283POPC   C1A 3702   5.023   1.851   4.274  0.2279 -0.1354 -0.0742
  283POPC   D2A 3703   5.023   2.069   4.675  0.1803  0.0749 -0.0930
  283POPC   C3A 3704   5.424   2.040   4.613  0.0126  0.1507  0.3858
  283POPC   C4A 3705   5.715   1.901   4.901 -0.1884 -0.0476 -0.0787
  283POPC   C1B 3706   4.555   2.095   4.245  0.1344 -0.2650 -0.0348
  283POPC   C2B 3707   4.600   1.844   4.618  0.1769  0.1570  0.0824
  283POPC   C3B 3708   4.642   1.517   4.887 -0.0213 -0.1605 -0.3210
  283POPC   C4B 3709   4.819   1.134   4.980  0.0263  0.4056  0.0610
  284POPC   NC3 3710   3.461   9.264   3.740 -0.0903 -0.2310  0.1806
  284POPC   PO4 3711   3.810   8.917   3.989 -0.0720 -0.0098 -0.1197
  284POPC   GL1 3712   3.875   8.878   4.399  0.0666  0.3128 -0.0850
  284POPC   GL2 3713   3.677   8.653   4.390  0.1185 -0.0557  0.3541
  284POPC   C1A 3714   3.901   8.856   4.776 -0.0329 -0.3739 -0.1210
  284POPC   D2A 3715   4.055   8.752   5.113  0.0842 -0.0755  0.1733
  284POPC   C3A 3716   4.078   8.293   5.168 -0.0918  0.2598  0.0772
  284POPC   C4A 3717   3.995   8.024   5.432  0.2745 -0.0864 -0.2395
  284POPC   C1B 3718   3.993   8.356   4.535 -0.2622 -0.0702 -0.0644
  284POPC   C2B 3719   4.283   8.016   4.812  0.0169 -0.0967 -0.1990
  284POPC   C3B 3720   4.484   8.022   5.081  0.0121  0.0136 -0.2129
  284POPC   C4B 3721   4.679   7.730   5.277 -0.2106 -0.1465  0.0565
  285POPC   NC3 3722   4.096   2.918   3.508 -0.2831 -0.2460  0.1319
  285POPC   PO4 3723   4.371   3.274   3.411  0.0476 -0.2349 -0.0726
  285POPC   GL1 3724   4.316   3.276   3.856 -0.0987  0.0687  0.0647
  285POPC   GL2 3725   4.044   3.414   3.903 -0.0897 -0.0538 -0.0322
  285POPC   C1A 3726   4.334   2.999   4.144 -0.1799 -0.3499 -0.0158
  285POPC   D2A 3727   4.217   2.731   4.504 -0.1776 -0.4950 -0.1226
  285POPC   C3A 3728   4.442   2.783   4.927  0.2263 -0.1994  0.1725
  285POPC   C4A 3729   4.860   3.003   5.006  0.0545  0.0744  0.2248
  285POPC   C1B 3730   4.289   3.533   4.322  0.0695 -0.1166 -0.0387
  285POPC   C2B 3731   4.076   3.635   4.617 -0.1500  0.1196  0.0276
  285POPC   C3B 3732   4.060   3.918   4.874  0.3670 -0.3305 -0.0008
  285POPC   C4B 3733   4.070   3.971   5.303 -0.2727 -0.0125  0.1609
  286POPC   NC3 3734   3.412   3.270   3.245 -0.0157  0.3246 -0.0533
  286POPC   PO4 3735   3.223   3.167   3.635 -0.1034  0.2291 -0.0348
  286POPC   GL1 3736   3.188   3.096   4.108  0.3717 -0.0447  0.1372
  286POPC   GL2 3737   3.319   2.887   4.117  0.0351 -0.3759  0.3484
  286POPC   C1A 3738   3.002   3.182   4.527 -0.2239 -0.1151 -0.0048
  286POPC   D2A 3739   3.135   3.497   4.783  0.0254 -0.0350 -0.0210
  286POPC   C3A 3740   3.389   3.407   5.011  0.3024  0.2059  0.4061
  286POPC   C4A 3741   3.527   3.043   5.285  0.3679 -0.1658 -0.1903
  286POPC   C1B 3742   3.761   2.898   4.256  0.0930  0.0133  0.2732
  286POPC   C2B 3743   3.989   3.160   4.565  0.2488 -0.0758 -0.1519
  286POPC   C3B 3744   3.861   3.261   4.951 -0.0325  0.3053  0.1469
  286POPC   C4B 3745   4.016   3.453   5.267  0.1470  0.2101  0.1508
  287POPC   NC3 3746   8.640   7.097   3.653  0.1232  0.0106  0.3393
  287POPC   PO4 3747   8.735   7.476   3.455 -0.2683  0.1920 -0.1183
  287POPC   GL1 3748   8.906   7.541   3.855 -0.0540  0.0156 -0.2572
  287POPC   GL2 3749   8.745   7.615   4.135 -0.0905  0.2671  0.1719
  287POPC   C1A 3750   9.315   7.530   4.142 -0.1185  0.0489 -0.2183
  287POPC   D2A 3751   9.488   7.282   4.531  0.2026 -0.0170 -0.1439
  287POPC   C3A 3752   9.913   7.043   4.435  0.0539 -0.1779  0.2432
  287POPC   C4A 3753   9.955   6.888   4.025  0.1997  0.1562 -0.0133
  287POPC   C1B 3754   8.939   7.612   4.542 -0.1136 -0.2757 -0.2661
  287POPC   C2B 3755   9.229   7.528   4.933 -0.0238  0.0145 -0.0240
  287POPC   C3B 3756   9.218   7.297   5.337  0.1887  0.4478 -0.0923
  287POPC   C4B 3757   8.846   7.079   5.546  0.2655  0.6245  0.0516
  288POPC   NC3 3758   7.438   7.253   3.587 -0.2182 -0.1628  0.0691
  288POPC   PO4 3759   7.054   7.079   3.785  0.1432 -0.0727 -0.1897
  288POPC   GL1 3760   6.948   7.051   4.222  0.0755  0.1273  0.0393
  288POPC   GL2 3761   6.723   6.923   4.120  0.0215  0.1290  0.0573
  288POPC   C1A 3762   6.936   6.987   4.612  0.2248 -0.2114  0.1484
  288POPC   D2A 3763   6.823   7.178   4.945 -0.0320 -0.4904 -0.2273
  288POPC   C3A 3764   6.738   7.610   4.949  0.4283  0.2575 -0.1979
  288POPC   C4A 3765   6.847   8.033   4.706  0.0199  0.1162 -0.1575
  288POPC   C1B 3766   6.427   6.898   4.529  0.1259  0.1043  0.2112
  288POPC   C2B 3767   6.216   6.892   4.878 -0.0266 -0.0016  0.1435
  288POPC   C3B 3768   6.329   7.032   5.264  0.1829  0.3555  0.1700
  288POPC   C4B 3769   6.531   7.206   5.456 -0.1709  0.1348  0.2746
  289POPC   NC3 3770   1.026   5.321   3.475 -0.2121  0.3113  0.4632
  289POPC   PO4 3771   0.640   5.216   3.159  0.1810  0.1504 -0.2460
  289POPC   GL1 3772   0.479   4.967   3.502  0.0609 -0.0548  0.1248
  289POPC   GL2 3773   0.245   5.171   3.880 -0.0292  0.2252  0.0689
  289POPC   C1A 3774   0.653   4.843   3.891 -0.2452 -0.0156 -0.1655
  289POPC   D2A 3775   0.904   4.508   4.201  0.0146  0.1624  0.0305
  289POPC   C3A 3776   0.712   4.290   4.533 -0.0754  0.0278 -0.0425
  289POPC   C4A 3777   0.532   3.851   4.524  0.3107 -0.2940 -0.0865
  289POPC   C1B 3778   0.391   5.294   4.295 -0.1254 -0.0382 -0.0265
  289POPC   C2B 3779   0.536   5.387   4.737  0.2151 -0.1275  0.0888
  289POPC   C3B 3780   0.640   5.862   4.994 -0.1119  0.0647 -0.0510
  289POPC   C4B 3781   0.746   6.238   5.263  0.2826  0.0054  0.2664
  290POPC   NC3 3782   6.889   6.563   3.214 -0.0918  0.0874 -0.1306
  290POPC   PO4 3783   7.194   6.583   3.482  0.0161 -0.2074  0.3028
  290POPC   GL1 3784   7.084   6.559   3.951 -0.0501 -0.0124 -0.1555
  290POPC   GL2 3785   7.040   6.190   4.066 -0.0924 -0.0543  0.1616
  290POPC   C1A 3786   7.279   6.698   4.392  0.4089  0.0205  0.1251
  290POPC   D2A 3787   7.228   6.552   4.837 -0.0563 -0.1153  0.1045
  290POPC   C3A 3788   7.585   6.483   5.147 -0.0282 -0.1177 -0.0979
  290POPC   C4A 3789   7.723   6.485   5.575  0.2178  0.2817 -0.2710
  290POPC   C1B 3790   6.860   6.407   4.400  0.1166  0.0525 -0.1753
  290POPC   C2B 3791   6.588   6.526   4.750  0.0804  0.2254 -0.4800
  290POPC   C3B 3792   6.720   6.705   5.017  0.4685  0.1416  0.0951
  290POPC   C4B 3793   6.947   6.836   5.302  0.0026  0.1553  0.0025
  291POPC   NC3 3794   9.589   7.319   3.136  0.2402 -0.0720  0.0166
  291POPC   PO4 3795   9.869   7.673   3.258  0.0771  0.2110  0.0993
  291POPC   GL1 3796   9.916   7.570   3.648  0.0177 -0.0442  0.0837
  291POPC   GL2 3797   9.747   7.253   3.679  0.1961  0.0337 -0.1022
  291POPC   C1A 3798   9.803   7.514   4.087  0.0788  0.0070 -0.3126
  291POPC   D2A 3799   9.943   7.475   4.601  0.1610 -0.0742 -0.2740
  291POPC   C3A 3800   9.839   7.155   4.922  0.0445 -0.0471  0.1625
  291POPC   C4A 3801   9.679   6.954   5.147 -0.2028  0.1102 -0.0933
  291POPC   C1B 3802   9.519   7.111   4.050 -0.3851 -0.0247  0.0393
  291POPC   C2B 3803   9.482   6.819   4.349  0.0855  0.1574 -0.2648
  291POPC   C3B 3804   9.368   6.870   4.813  0.1278  0.2091 -0.4759
  291POPC   C4B 3805   9.048   6.862   5.148 -0.2783 -0.1468 -0.2264
  292POPC   NC3 3806   9.408   7.670   3.465  0.0835 -0.1274 -0.0066
  292POPC   PO4 3807   9.583   8.015   3.504 -0.2379  0.1418  0.1973
  292POPC   GL1 3808   9.266   7.996   3.881  0.0896 -0.1262  0.0554
  292POPC   GL2 3809   8.989   8.306   3.945 -0.0553 -0.2468 -0.3076
  292POPC   C1A 3810   9.207   7.998   4.296 -0.0912 -0.1403  0.0871
  292POPC   D2A 3811   8.990   8.038   4.749  0.0192 -0.2029  0.3907
  292POPC   C3A 3812   8.914   7.894   5.124  0.2585  0.1796  0.1777
  292POPC   C4A 3813   9.299   7.753   5.413 -0.0162  0.0760 -0.1771
  292POPC   C1B 3814   9.085   8.457   4.380 -0.0003 -0.3958  0.0274
  292POPC   C2B 3815   8.753   8.506   4.721 -0.0230 -0.1895  0.0194
  292POPC   C3B 3816   8.453   8.454   4.983 -0.0668 -0.0601  0.1425
  292POPC   C4B 3817   8.542   8.680   5.430 -0.2553 -0.1695 -0.1060
  293POPC   NC3 3818   5.441  10.595   4.043 -0.0028  0.0022 -0.0909
  293POPC   PO4 3819   5.253  10.166   3.913 -0.1450  0.4534 -0.1682
  293POPC   GL1 3820   5.091  10.051   4.270 -0.0102 -0.1819 -0.1605
  293POPC   GL2 3821   5.123  10.411   4.419  0.1681 -0.0861  0.1102
  293POPC   C1A 3822   5.353  10.019   4.674  0.0767 -0.0462 -0.1695
  293POPC   D2A 3823   5.530  10.109   5.117 -0.0871 -0.1341 -0.2087
  293POPC   C3A 3824   5.349   9.949   5.527 -0.1022 -0.1188  0.2933
  293POPC   C4A 3825   4.946   9.829   5.581 -0.0817 -0.1775  0.0102
  293POPC   C1B 3826   5.496  10.477   4.732 -0.1543 -0.2929 -0.1626
  293POPC   C2B 3827   5.743  10.613   5.174 -0.1475 -0.0810  0.0885
  293POPC   C3B 3828   5.899  10.339   5.480  0.1994 -0.1328  0.1424
  293POPC   C4B 3829   5.925  10.043   5.804  0.2292  0.2856 -0.0370
  294POPC   NC3 3830   9.882   5.882   3.389  0.2062 -0.3544 -0.2318
  294POPC   PO4 3831  10.314   6.135   3.403  0.2700 -0.2092 -0.2386
  294POPC   GL1 3832  10.521   5.995   3.882  0.2866 -0.0104 -0.2080
  294POPC   GL2 3833  10.857   6.108   3.807 -0.0745 -0.0270  0.1322
  294POPC   C1A 3834  10.425   5.871   4.320  0.1109 -0.0826 -0.4726
  294POPC   D2A 3835  10.219   6.181   4.627  0.0361  0.0250 -0.1677
  294POPC   C3A 3836  10.211   6.059   5.067 -0.0841 -0.0078  0.0537
  294POPC   C4A 3837  10.370   6.425   5.315  0.0250 -0.0537  0.0321
  294POPC   C1B 3838  11.085   6.067   4.330 -0.2636  0.1223  0.3662
  294POPC   C2B 3839  11.147   6.011   4.868  0.0361  0.3497  0.1438
  294POPC   C3B 3840  11.114   6.223   5.300 -0.0754 -0.0211  0.1731
  294POPC   C4B 3841  10.899   6.268   5.704  0.0212  0.1549  0.2462
  295POPC   NC3 3842   5.986   3.964   3.598  0.2846  0.0349  0.1051
  295POPC   PO4 3843   6.157   4.315   3.410 -0.0780 -0.2546  0.0365
  295POPC   GL1 3844   6.224   4.501   3.862  0.0554  0.0986  0.0129
  295POPC   GL2 3845   6.138   4.724   4.055 -0.2054  0.2694 -0.1663
  295POPC   C1A 3846   6.287   4.171   4.299 -0.3922 -0.0581  0.0675
  295POPC   D2A 3847   6.166   4.156   4.714  0.1837 -0.0507  0.2257
  295POPC   C3A 3848   6.131   3.833   5.094  0.1052 -0.2456 -0.1203
  295POPC   C4A 3849   6.294   3.560   5.353  0.3296 -0.0585 -0.0126
  295POPC   C1B 3850   6.058   4.676   4.514  0.1105 -0.3966  0.1188
  295POPC   C2B 3851   6.082   4.610   4.965 -0.1333 -0.1397 -0.0102
  295POPC   C3B 3852   6.216   4.325   5.267  0.0197 -0.1766  0.1459
  295POPC   C4B 3853   6.343   4.036   5.677  0.2566 -0.0008 -0.0189
  296POPC   NC3 3854   1.257   3.378   3.297  0.0702  0.0432 -0.0502
  296POPC   PO4 3855   1.124   3.772   3.325 -0.2663 -0.1605  0.2302
  296POPC   GL1 3856   0.786   3.768   3.556  0.1173  0.1322 -0.3073
  296POPC   GL2 3857   0.749   3.478   3.507 -0.0473 -0.0332  0.0759
  296POPC   C1A 3858   0.672   3.956   3.905 -0.0854  0.0070  0.1588
  296POPC   D2A 3859   0.319   4.124   4.212  0.0891  0.1626 -0.2234
  296POPC   C3A 3860   0.252   4.361   4.689  0.1895  0.3681 -0.5031
  296POPC   C4A 3861  -0.045   4.572   4.659 -0.5515 -0.0427 -0.1729
  296POPC   C1B 3862   0.994   3.479   3.907  0.2235  0.3175 -0.3764
  296POPC   C2B 3863   1.281   3.404   4.112 -0.2344  0.0990 -0.0653
  296POPC   C3B 3864   1.604   3.665   4.173 -0.0167  0.1594  0.1952
  296POPC   C4B 3865   1.867   3.899   4.278 -0.0534  0.2961 -0.0651
  297POPC   NC3 3866   5.740   9.855   3.612 -0.0454  0.1848 -0.1876
  297POPC   PO4 3867   6.035   9.591   3.694 -0.1783 -0.0216  0.1359
  297POPC   GL1 3868   5.716   9.371   3.910 -0.1481  0.0033 -0.1878
  297POPC   GL2 3869   5.463   9.636   4.004  0.2847  0.1361  0.4604
  297POPC   C1A 3870   5.617   9.219   4.349 -0.1060 -0.1526  0.3382
  297POPC   D2A 3871   5.860   9.291   4.789  0.1342  0.0188 -0.0038
  297POPC   C3A 3872   6.271   9.423   4.853  0.1070 -0.0985  0.2150
  297POPC   C4A 3873   6.662   9.428   5.078 -0.0876  0.0136 -0.0308
  297POPC   C1B 3874   5.298   9.568   4.431  0.2187 -0.0798 -0.0476
  297POPC   C2B 3875   5.409   9.434   4.812 -0.1113 -0.2528 -0.1410
  297POPC   C3B 3876   5.632   9.337   5.270 -0.1912 -0.0578  0.0308
  297POPC   C4B 3877   5.801   9.090   5.739  0.1261 -0.1486  0.0585
  298POPC   NC3 3878   8.978   0.487   3.159 -0.1271  0.2293  0.0042
  298POPC   PO4 3879   8.993   0.236   3.538 -0.0718  0.2991  0.0830
  298POPC   GL1 3880   9.190   0.016   3.934 -0.5916  0.1566  0.0300
  298POPC   GL2 3881   9.203  -0.317   3.984 -0.1169 -0.0502  0.0241
  298POPC   C1A 3882   9.075   0.122   4.308  0.0957 -0.2667 -0.1798
  298POPC   D2A 3883   8.948   0.131   4.712 -0.1074 -0.0523 -0.0109
  298POPC   C3A 3884   9.188  -0.101   4.996 -0.1350 -0.1646 -0.4884
  298POPC   C4A 3885   9.371  -0.501   4.883  0.0857  0.1801 -0.1450
  298POPC   C1B 3886   9.259  -0.405   4.428  0.1997 -0.0870 -0.0190
  298POPC   C2B 3887   8.885  -0.403   4.740  0.1013 -0.2101 -0.0821
  298POPC   C3B 3888   8.560  -0.346   5.064 -0.0838  0.0673 -0.1468
  298POPC   C4B 3889   8.173  -0.074   5.233 -0.5460  0.0273 -0.3199
  299POPC   NC3 3890   2.756   8.061   3.429 -0.1635 -0.0470 -0.1357
  299POPC   PO4 3891   2.899   7.660   3.651 -0.0135  0.1513  0.1265
  299POPC   GL1 3892   2.762   7.862   3.943 -0.5594 -0.0230 -0.0504
  299POPC   GL2 3893   2.519   7.686   4.069  0.0190 -0.2726  0.1952
  299POPC   C1A 3894   2.575   8.183   4.182 -0.0339 -0.2844 -0.2264
  299POPC   D2A 3895   2.653   8.507   4.581 -0.1868 -0.1739 -0.2120
  299POPC   C3A 3896   2.837   8.371   4.920 -0.1304  0.1281  0.1604
  299POPC   C4A 3897   3.139   8.213   5.084  0.0338 -0.1445  0.1714
  299POPC   C1B 3898   2.673   7.598   4.432  0.2393 -0.0107 -0.1865
  299POPC   C2B 3899   3.114   7.676   4.609  0.0885 -0.0286 -0.0874
  299POPC   C3B 3900   3.531   7.629   4.808 -0.3621  0.0280  0.1566
  299POPC   C4B 3901   3.630   7.830   5.233  0.1566  0.1179 -0.2882
  300POPC   NC3 3902  10.396   7.622   3.636  0.0759  0.0235  0.0985
  300POPC   PO4 3903  10.798   7.573   3.573 -0.0308  0.0004  0.2539
  300POPC   GL1 3904  10.771   7.428   4.065 -0.2914 -0.1432  0.2679
  300POPC   GL2 3905  10.431   7.587   4.138  0.0495  0.1928  0.1741
  300POPC   C1A 3906  10.741   7.430   4.592 -0.0325 -0.1340  0.1098
  300POPC   D2A 3907  10.760   7.075   4.885 -0.1501  0.1937  0.1055
  300POPC   C3A 3908  11.169   6.906   4.983 -0.0957  0.1300 -0.0762
  300POPC   C4A 3909  11.440   6.717   5.291 -0.0197  0.1549  0.3882
  300POPC   C1B 3910  10.383   7.762   4.528  0.0264  0.1288  0.0548
  300POPC   C2B 3911  10.266   7.778   4.964 -0.0025  0.1439 -0.3284
  300POPC   C3B 3912  10.278   8.007   5.300  0.1030  0.1245 -0.4265
  300POPC   C4B 3913  10.153   8.205   5.672 -0.2712 -0.4438  0.0869
  301POPC   NC3 3914   5.321   5.179   3.481 -0.0205 -0.3689 -0.2830
  301POPC   PO4 3915   5.727   5.032   3.480  0.1639 -0.0377 -0.1131
  301POPC   GL1 3916   5.677   4.983   3.928 -0.0760 -0.1995 -0.1507
  301POPC   GL2 3917   5.299   4.871   4.008 -0.0252 -0.3371  0.0552
  301POPC   C1A 3918   5.744   5.057   4.444  0.1166  0.3297  0.1318
  301POPC   D2A 3919   5.534   4.713   4.741 -0.2572 -0.0506 -0.0377
  301POPC   C3A 3920   5.503   4.662   5.113  0.0909  0.2943  0.4499
  301POPC   C4A 3921   5.510   4.373   5.411  0.0633 -0.0791 -0.0829
  301POPC   C1B 3922   5.586   4.578   4.153 -0.0991 -0.1836 -0.0277
  301POPC   C2B 3923   5.650   4.302   4.562  0.0598 -0.0651 -0.0422
  301POPC   C3B 3924   5.348   4.140   4.881 -0.1973  0.0212  0.2623
  301POPC   C4B 3925   4.998   4.156   5.171  0.0918  0.4761  0.1744
  302POPC   NC3 3926   6.256   1.461   3.655 -0.0276 -0.0510  0.4528
  302POPC   PO4 3927   6.202   1.755   3.890  0.4859  0.0066 -0.0298
  302POPC   GL1 3928   6.310   1.990   4.236 -0.1161 -0.0829 -0.0840
  302POPC   GL2 3929   6.589   1.932   4.226 -0.1361  0.1788 -0.0266
  302POPC   C1A 3930   6.061   2.126   4.636  0.1170  0.0089  0.0824
  302POPC   D2A 3931   5.837   2.461   4.822 -0.0645  0.3421 -0.5546
  302POPC   C3A 3932   5.765   2.322   5.262  0.2337 -0.0563  0.0508
  302POPC   C4A 3933   5.705   2.016   5.478  0.0062  0.0293 -0.0232
  302POPC   C1B 3934   6.613   1.582   4.629 -0.0187 -0.3643 -0.0427
  302POPC   C2B 3935   6.872   1.463   4.986 -0.2596 -0.0039 -0.1260
  302POPC   C3B 3936   6.765   1.210   5.347 -0.1952 -0.0843  0.3832
  302POPC   C4B 3937   6.975   0.985   5.684 -0.2956 -0.1679 -0.1482
  303POPC   NC3 3938  10.842   7.933   3.271 -0.3741  0.0561 -0.2716
  303POPC   PO4 3939  10.854   8.423   3.479 -0.2111  0.4214  0.1593
  303POPC   GL1 3940  11.045   8.447   3.920  0.0311  0.2109 -0.1290
  303POPC   GL2 3941  11.357   8.150   4.115  0.2817  0.1824 -0.0708
  303POPC   C1A 3942  11.076   8.693   4.201  0.0427 -0.5353 -0.0743
  303POPC   D2A 3943  11.086   8.760   4.620  0.0155 -0.1868  0.6201
  303POPC   C3A 3944  10.724   8.653   4.961  0.1087  0.0169 -0.0996
  303POPC   C4A 3945  10.691   8.832   5.328 -0.1532  0.0591  0.1093
  303POPC   C1B 3946  11.222   8.299   4.515 -0.3166  0.2301  0.1818
  303POPC   C2B 3947  11.298   8.507   4.958 -0.0554  0.0913 -0.1566
  303POPC   C3B 3948  11.233   8.618   5.431 -0.0292 -0.1815  0.0379
  303POPC   C4B 3949  10.906   8.667   5.811 -0.4175 -0.0861  0.2192
  304POPC   NC3 3950   8.797   3.887   3.447  0.2675  0.1357  0.1562
  304POPC   PO4 3951   8.336   3.985   3.364 -0.1833 -0.0428 -0.2189
  304POPC   GL1 3952   8.479   3.975   3.902 -0.0212 -0.3940  0.4922
  304POPC   GL2 3953   8.255   4.210   3.860 -0.0084  0.4081  0.0548
  304POPC   C1A 3954   8.684   4.037   4.332  0.1745  0.2685  0.0240
  304POPC   D2A 3955   8.712   3.596   4.481 -0.1307 -0.0755  0.2910
  304POPC   C3A 3956   8.297   3.421   4.545  0.1199  0.2343  0.0205
  304POPC   C4A 3957   7.965   3.588   4.726 -0.0799 -0.0376 -0.2077
  304POPC   C1B 3958   8.198   4.064   4.388 -0.0508 -0.1001  0.0523
  304POPC   C2B 3959   8.049   4.311   4.760 -0.0865 -0.2566  0.2123
  304POPC   C3B 3960   7.945   4.486   5.149 -0.2567 -0.1216  0.3394
  304POPC   C4B 3961   8.141   4.796   5.480 -0.1799  0.2806  0.1325
  305POPC   NC3 3962   8.225   6.801   3.505 -0.1844 -0.1853 -0.2153
  305POPC   PO4 3963   7.912   7.181   3.729  0.0392 -0.0095  0.2139
  305POPC   GL1 3964   7.862   7.164   4.173  0.1992 -0.2051 -0.1468
  305POPC   GL2 3965   7.899   7.433   4.460  0.1370 -0.1429  0.0851
  305POPC   C1A 3966   8.123   7.006   4.507 -0.1807  0.1982  0.0060
  305POPC   D2A 3967   8.357   7.120   4.870 -0.0831 -0.2249  0.0071
  305POPC   C3A 3968   8.552   6.738   5.184  0.2531  0.2114 -0.1295
  305POPC   C4A 3969   8.613   6.232   5.338  0.0055 -0.4852  0.3566
  305POPC   C1B 3970   8.376   7.491   4.500  0.2110  0.0195 -0.1596
  305POPC   C2B 3971   8.498   7.636   4.819  0.1961  0.2397 -0.0283
  305POPC   C3B 3972   8.304   7.480   5.174  0.2183 -0.0211  0.0425
  305POPC   C4B 3973   8.366   7.205   5.435 -0.0792 -0.1064 -0.1148
  306POPC   NC3 3974   5.213   1.358   3.609 -0.1533 -0.1603 -0.2084
  306POPC   PO4 3975   5.373   1.744   3.730  0.1818 -0.1647  0.0726
  306POPC   GL1 3976   5.517   1.984   4.010  0.3062 -0.0290  0.0090
  306POPC   GL2 3977   5.709   1.856   4.254  0.0929 -0.1590 -0.2675
  306POPC   C1A 3978   5.648   2.352   4.155  0.0700 -0.2361  0.1457
  306POPC   D2A 3979   5.983   2.648   4.307 -0.3737 -0.2338 -0.0415
  306POPC   C3A 3980   5.850   2.936   4.691  0.0058  0.2768  0.0455
  306POPC   C4A 3981   6.138   3.256   4.965 -0.2168  0.1467 -0.0011
  306POPC   C1B 3982   5.488   1.561   4.609  0.0163  0.1379 -0.0497
  306POPC   C2B 3983   5.330   1.226   4.888 -0.3508 -0.1113  0.3401
  306POPC   C3B 3984   5.367   1.089   5.284  0.0648 -0.0968 -0.0183
  306POPC   C4B 3985   5.654   0.946   5.686 -0.0538  0.2893 -0.4391
  307POPC   NC3 3986   0.135   6.352   3.315 -0.0990  0.1702 -0.1895
  307POPC   PO4 3987   0.417   6.229   3.151 -0.3501 -0.0109  0.0485
  307POPC   GL1 3988   0.739   6.189   3.433 -0.1574 -0.2185 -0.0212
  307POPC   GL2 3989   0.874   6.559   3.651 -0.1561  0.0682  0.0673
  307POPC   C1A 3990   0.872   5.986   3.734  0.1089  0.1573 -0.1951
  307POPC   D2A 3991   0.571   5.817   4.084 -0.2839  0.2223 -0.2841
  307POPC   C3A 3992   0.757   5.891   4.466  0.2170 -0.1237 -0.0376
  307POPC   C4A 3993   1.046   5.643   4.564  0.0243  0.0874  0.0172
  307POPC   C1B 3994   0.646   6.850   3.967  0.2649  0.1758 -0.1590
  307POPC   C2B 3995   0.686   7.334   4.175  0.0597  0.0337 -0.0283
  307POPC   C3B 3996   0.893   7.493   4.690 -0.2686  0.0079  0.1685
  307POPC   C4B 3997   1.117   7.472   5.011  0.0343  0.1166  0.3267
  308POPC   NC3 3998   2.718   9.133   3.299 -0.1335 -0.1668 -0.1384
  308POPC   PO4 3999   2.529   8.748   3.473 -0.2116 -0.1023 -0.2182
  308POPC   GL1 4000   2.713   8.715   3.843 -0.0057  0.2121 -0.1519
  308POPC   GL2 4001   2.421   8.674   4.066 -0.2616  0.3179  0.3491
  308POPC   C1A 4002   2.955   8.475   4.155  0.0336  0.0522  0.2937
  308POPC   D2A 4003   3.168   8.137   4.335 -0.1100 -0.0249 -0.0403
  308POPC   C3A 4004   3.503   8.320   4.662 -0.0667  0.1362  0.1152
  308POPC   C4A 4005   3.777   8.053   4.834  0.1875  0.2223  0.0628
  308POPC   C1B 4006   2.166   8.527   4.385 -0.1177 -0.0718  0.2821
  308POPC   C2B 4007   2.044   8.454   4.790  0.1661 -0.0696  0.0589
  308POPC   C3B 4008   1.580   8.407   4.999 -0.1442 -0.0922 -0.3537
  308POPC   C4B 4009   1.376   8.274   5.351 -0.0507  0.1305 -0.0100
  309POPC   NC3 4010   5.839   6.801   3.638 -0.0063  0.0181 -0.1753
  309POPC   PO4 4011   5.681   6.587   3.436 -0.4612  0.0133 -0.1213
  309POPC   GL1 4012   5.461   6.389   3.859 -0.0585 -0.2294 -0.3772
  309POPC   GL2 4013   5.198   6.169   3.912 -0.0269 -0.1731 -0.2852
  309POPC   C1A 4014   5.554   5.955   4.168  0.0846 -0.2272  0.0703
  309POPC   D2A 4015   5.571   5.594   4.480 -0.1552  0.2875  0.0309
  309POPC   C3A 4016   5.973   5.460   4.489  0.0345 -0.0644  0.2304
  309POPC   C4A 4017   6.229   5.155   4.270 -0.0620  0.2355 -0.3002
  309POPC   C1B 4018   5.283   6.346   4.321  0.1689 -0.0518 -0.2223
  309POPC   C2B 4019   5.399   6.133   4.645  0.3883  0.3549  0.2439
  309POPC   C3B 4020   5.520   6.197   5.016  0.0932  0.1380 -0.0030
  309POPC   C4B 4021   5.607   6.509   5.285  0.3895 -0.2122 -0.0219
  310POPC   NC3 4022   4.198   7.433   3.543 -0.2746 -0.1303  0.2434
  310POPC   PO4 4023   4.098   7.048   3.507  0.2280 -0.0344 -0.1833
  310POPC   GL1 4024   4.158   6.784   3.878 -0.2050  0.1924 -0.0023
  310POPC   GL2 4025   4.447   6.826   4.028  0.0571  0.1112  0.1285
  310POPC   C1A 4026   4.190   6.431   4.060 -0.1282  0.3382 -0.0384
  310POPC   D2A 4027   4.343   6.311   4.445 -0.0714  0.1123  0.3067
  310POPC   C3A 4028   4.407   5.968   4.531 -0.0802  0.5092  0.1345
  310POPC   C4A 4029   4.645   5.624   4.329 -0.1555  0.0435  0.2102
  310POPC   C1B 4030   4.516   6.766   4.463 -0.0041  0.1612 -0.2244
  310POPC   C2B 4031   4.585   6.546   4.802  0.0998  0.0876 -0.1743
  310POPC   C3B 4032   4.586   6.367   5.259  0.0726 -0.0802  0.0482
  310POPC   C4B 4033   4.742   6.014   5.562  0.3719  0.1857 -0.1254
  311POPC   NC3 4034   1.192   4.118   2.872 -0.2670  0.2467 -0.0951
  311POPC   PO4 4035   1.535   4.300   3.201 -0.2288  0.1630 -0.1018
  311POPC   GL1 4036   1.428   4.099   3.608  0.0746 -0.1374 -0.2266
  311POPC   GL2 4037   1.655   4.053   3.905  0.1182 -0.2722  0.2217
  311POPC   C1A 4038   1.182   3.925   3.916  0.0294  0.0551 -0.0778
  311POPC   D2A 4039   1.032   3.876   4.307  0.0154 -0.0019  0.3434
  311POPC   C3A 4040   1.298   3.799   4.729  0.1445  0.0425 -0.0868
  311POPC   C4A 4041   1.413   3.828   5.046 -0.1665 -0.0942  0.0831
  311POPC   C1B 4042   1.420   4.177   4.352 -0.0206  0.1026  0.0652
  311POPC   C2B 4043   1.183   4.274   4.671 -0.0808 -0.1427  0.0711
  311POPC   C3B 4044   1.065   4.221   5.089  0.0355  0.0459 -0.0379
  311POPC   C4B 4045   1.186   4.233   5.473 -0.1511  0.1969 -0.0206
  312POPC   NC3 4046  10.332   5.497   3.159 -0.0996 -0.0998  0.1735
  312POPC   PO4 4047  10.271   5.683   3.599  0.0939  0.1215 -0.0025
  312POPC   GL1 4048  10.111   5.529   3.964 -0.1971  0.2628 -0.0431
  312POPC   GL2 4049  10.040   5.520   4.362 -0.5850  0.0547  0.2004
  312POPC   C1A 4050  10.156   5.109   4.048  0.0386  0.3510  0.0347
  312POPC   D2A 4051  10.150   4.914   4.274  0.0121  0.0609 -0.0673
  312POPC   C3A 4052  10.462   4.677   4.495 -0.3058 -0.3821  0.1067
  312POPC   C4A 4053  10.797   4.380   4.215 -0.1783 -0.0743  0.0213
  312POPC   C1B 4054  10.147   5.262   4.653  0.0545  0.2388 -0.0990
  312POPC   C2B 4055  10.156   5.184   5.139 -0.0820 -0.1180  0.2802
  312POPC   C3B 4056  10.013   5.147   5.540 -0.0633 -0.1678 -0.1340
  312POPC   C4B 4057  10.024   5.226   5.943  0.0549  0.0744  0.0952
  313POPC   NC3 4058   0.847   6.084   2.879  0.2275 -0.1205 -0.0364
  313POPC   PO4 4059   1.321   6.004   3.112 -0.0864 -0.0762  0.3658
  313POPC   GL1 4060   1.392   6.011   3.519  0.1429 -0.1799 -0.0878
  313POPC   GL2 4061   1.293   5.743   3.661  0.1110 -0.1635 -0.2005
  313POPC   C1A 4062   1.284   6.289   3.859  0.2212 -0.0954 -0.0102
  313POPC   D2A 4063   0.882   6.303   4.093  0.1347  0.2846  0.0369
  313POPC   C3A 4064   0.921   6.532   4.413 -0.1149  0.2127  0.0478
  313POPC   C4A 4065   0.882   6.971   4.495  0.1154 -0.0464  0.2084
  313POPC   C1B 4066   1.259   5.864   4.065  0.1585  0.3288 -0.0383
  313POPC   C2B 4067   1.234   6.116   4.410  0.0949  0.0159  0.1383
  313POPC   C3B 4068   1.040   6.103   4.885  0.1350  0.0429  0.0054
  313POPC   C4B 4069   1.255   6.103   5.323  0.3517  0.1065  0.3388
  314POPC   NC3 4070   4.920   4.715   3.604 -0.2334  0.3582  0.1555
  314POPC   PO4 4071   4.678   5.074   3.361 -0.1454  0.0886 -0.0093
  314POPC   GL1 4072   4.460   4.878   3.761  0.1239 -0.0565  0.0564
  314POPC   GL2 4073   4.224   5.055   3.826 -0.2792 -0.0367  0.0396
  314POPC   C1A 4074   4.417   4.566   4.033 -0.0112 -0.0111  0.1637
  314POPC   D2A 4075   4.194   4.409   4.246 -0.0293  0.0891  0.0448
  314POPC   C3A 4076   4.370   4.032   4.444  0.0763  0.1253 -0.1537
  314POPC   C4A 4077   4.691   3.650   4.671  0.0441 -0.1730  0.0120
  314POPC   C1B 4078   4.434   5.119   4.206  0.2638  0.2618 -0.2593
  314POPC   C2B 4079   4.699   5.253   4.603 -0.0213  0.1849  0.0753
  314POPC   C3B 4080   4.680   5.081   4.831 -0.0127  0.0993 -0.2215
  314POPC   C4B 4081   4.408   4.940   5.062  0.1145  0.0534  0.2775
  315POPC   NC3 4082  10.373   6.845   3.228 -0.2346 -0.2730  0.1506
  315POPC   PO4 4083  10.254   7.129   3.444  0.1199  0.2449 -0.1448
  315POPC   GL1 4084  10.378   7.036   3.902  0.1191  0.0464 -0.0473
  315POPC   GL2 4085  10.640   6.809   4.018 -0.1984  0.0203  0.2022
  315POPC   C1A 4086  10.433   7.168   4.335 -0.0876 -0.0885 -0.0455
  315POPC   D2A 4087  10.304   7.199   4.764 -0.0639  0.0315  0.0803
  315POPC   C3A 4088  10.471   7.378   5.081  0.2168  0.3508  0.0695
  315POPC   C4A 4089  10.338   7.363   5.415 -0.2435  0.0387 -0.0887
  315POPC   C1B 4090  10.638   6.344   4.225 -0.0798  0.0584 -0.3238
  315POPC   C2B 4091  10.699   6.096   4.705  0.1815  0.1533  0.0214
  315POPC   C3B 4092  10.504   5.735   4.834 -0.3174 -0.0473  0.1540
  315POPC   C4B 4093  10.553   5.524   5.217 -0.0201 -0.2006 -0.0476
  316POPC   NC3 4094   6.942  10.158   3.171 -0.0192 -0.1921 -0.0295
  316POPC   PO4 4095   7.201  10.445   3.433 -0.0529  0.1702  0.2072
  316POPC   GL1 4096   7.467  10.625   3.763 -0.0572  0.0753 -0.2084
  316POPC   GL2 4097   7.666  10.501   3.936 -0.1326  0.0833 -0.1347
  316POPC   C1A 4098   7.330  10.806   4.169  0.1899  0.0917  0.1128
  316POPC   D2A 4099   7.097  11.007   4.598  0.0551 -0.1116 -0.3110
  316POPC   C3A 4100   7.244  11.106   5.004  0.1316  0.2356  0.0218
  316POPC   C4A 4101   7.293  10.694   5.326  0.3021  0.2974 -0.0431
  316POPC   C1B 4102   7.776  10.657   4.237 -0.0157 -0.0079 -0.0805
  316POPC   C2B 4103   7.682  10.547   4.673 -0.2836 -0.1661  0.3435
  316POPC   C3B 4104   7.819  10.584   5.090  0.2271 -0.1425  0.2782
  316POPC   C4B 4105   8.038  10.359   5.374  0.1004 -0.0841  0.1529
  317POPC   NC3 4106   9.124   6.401   3.309  0.0644  0.0384  0.1723
  317POPC   PO4 4107   9.103   6.671   3.771 -0.1542 -0.0881 -0.3951
  317POPC   GL1 4108   9.081   6.478   4.097  0.1751  0.0020 -0.0134
  317POPC   GL2 4109   9.062   6.605   4.327 -0.1320 -0.2603 -0.1966
  317POPC   C1A 4110   9.429   6.303   4.375  0.0556  0.1278 -0.5868
  317POPC   D2A 4111   9.800   6.452   4.373 -0.1032  0.1748  0.1029
  317POPC   C3A 4112   9.870   6.641   4.756  0.2891 -0.1402  0.0087
  317POPC   C4A 4113   9.962   6.541   5.062  0.0275  0.4565  0.2159
  317POPC   C1B 4114   8.954   6.536   4.654  0.0788  0.0502 -0.1522
  317POPC   C2B 4115   9.000   6.400   5.058 -0.0865  0.2415  0.0624
  317POPC   C3B 4116   9.045   6.542   5.524 -0.1775 -0.2002  0.2671
  317POPC   C4B 4117   9.230   6.339   5.862  0.0558 -0.0152 -0.0594
  318POPC   NC3 4118   5.807   3.003   3.172  0.0819  0.0185  0.2527
  318POPC   PO4 4119   5.370   3.236   3.055  0.1376  0.2775 -0.0920
  318POPC   GL1 4120   5.349   3.164   3.452  0.2450  0.0635 -0.2135
  318POPC   GL2 4121   5.531   3.416   3.513  0.0388 -0.1459  0.2660
  318POPC   C1A 4122   5.139   3.362   3.827 -0.0604 -0.3371 -0.1243
  318POPC   D2A 4123   5.164   3.732   4.007 -0.2320  0.0052 -0.1348
  318POPC   C3A 4124   5.459   3.484   4.305  0.0533  0.5130 -0.0964
  318POPC   C4A 4125   5.868   3.366   4.394 -0.1486 -0.2514 -0.0002
  318POPC   C1B 4126   5.539   3.037   3.886 -0.1203 -0.0251  0.4029
  318POPC   C2B 4127   5.559   2.914   4.248 -0.1064  0.1898 -0.0941
  318POPC   C3B 4128   5.422   2.595   4.581 -0.3043  0.0877 -0.2438
  318POPC   C4B 4129   5.252   2.671   4.972 -0.1493  0.0527  0.0373
  319POPC   NC3 4130   8.702   4.229   3.119  0.2552 -0.1384 -0.0081
  319POPC   PO4 4131   9.179   4.221   3.250  0.1915 -0.1473 -0.0271
  319POPC   GL1 4132   8.986   4.362   3.653  0.3054 -0.0045 -0.3062
  319POPC   GL2 4133   8.702   4.393   3.684  0.0882 -0.0210  0.2639
  319POPC   C1A 4134   9.088   4.326   4.087  0.0318  0.1076  0.0001
  319POPC   D2A 4135   8.908   4.449   4.536 -0.2524  0.3091 -0.2408
  319POPC   C3A 4136   8.549   4.316   4.715  0.2636  0.0732  0.2281
  319POPC   C4A 4137   8.462   3.858   4.800 -0.0431  0.0467 -0.1643
  319POPC   C1B 4138   8.470   4.482   4.176  0.1134  0.1031 -0.0076
  319POPC   C2B 4139   8.032   4.531   4.332  0.0683 -0.0822  0.2908
  319POPC   C3B 4140   7.839   4.759   4.664 -0.3887 -0.1487 -0.3100
  319POPC   C4B 4141   7.640   5.079   4.847  0.0144 -0.2015 -0.0431
  320POPC   NC3 4142   1.408   6.954   3.261  0.0673 -0.3690 -0.0582
  320POPC   PO4 4143   1.721   6.946   3.511  0.2826 -0.2590 -0.0703
  320POPC   GL1 4144   1.655   6.755   3.829  0.0228 -0.0598 -0.0065
  320POPC   GL2 4145   2.020   6.861   3.922 -0.3269 -0.1156 -0.0580
  320POPC   C1A 4146   1.716   6.504   4.334  0.4066 -0.1793  0.0387
  320POPC   D2A 4147   1.670   6.555   4.725 -0.1591  0.2330  0.2056
  320POPC   C3A 4148   1.352   6.445   4.953  0.0145 -0.4176  0.1416
  320POPC   C4A 4149   0.904   6.669   5.029  0.3982 -0.0721  0.1998
  320POPC   C1B 4150   2.147   6.756   4.392 -0.0765 -0.0629  0.1799
  320POPC   C2B 4151   2.135   6.386   4.605  0.0516 -0.0679 -0.1538
  320POPC   C3B 4152   2.084   5.923   4.824 -0.1759 -0.1892 -0.0693
  320POPC   C4B 4153   2.275   5.832   5.259  0.2794  0.0208  0.2238
  321POPC   NC3 4154   7.621   8.508   3.726  0.0131 -0.1107  0.0838
  321POPC   PO4 4155   7.652   8.135   3.894  0.0752 -0.1131  0.0626
  321POPC   GL1 4156   7.371   7.995   4.177  0.3208  0.2296  0.1933
  321POPC   GL2 4157   7.450   7.739   4.388  0.1640  0.2221 -0.1919
  321POPC   C1A 4158   7.261   8.392   4.478 -0.2606  0.1978  0.0371
  321POPC   D2A 4159   7.284   8.376   4.850 -0.0819 -0.1715 -0.2473
  321POPC   C3A 4160   6.951   8.437   5.004 -0.3306  0.0478  0.0082
  321POPC   C4A 4161   6.627   8.812   5.052 -0.1667  0.1368 -0.2637
  321POPC   C1B 4162   7.342   7.926   4.758 -0.1911 -0.0409  0.1339
  321POPC   C2B 4163   7.119   7.965   5.182 -0.0484  0.0111 -0.2750
  321POPC   C3B 4164   6.792   7.701   5.462  0.0134 -0.0777  0.0747
  321POPC   C4B 4165   6.495   7.654   5.797  0.0261  0.1294 -0.0403
  322POPC   NC3 4166   2.398   6.403   3.433 -0.0387 -0.1319  0.2598
  322POPC   PO4 4167   2.291   6.015   3.615 -0.0214  0.0141 -0.1771
  322POPC   GL1 4168   2.274   5.930   4.010  0.0214  0.2372  0.0247
  322POPC   GL2 4169   2.064   6.166   4.142  0.0389 -0.0943  0.1731
  322POPC   C1A 4170   2.352   5.798   4.445 -0.0508 -0.0583 -0.0429
  322POPC   D2A 4171   2.565   5.968   4.771  0.4504 -0.0746  0.0403
  322POPC   C3A 4172   2.628   5.566   4.996 -0.3563 -0.1869  0.0911
  322POPC   C4A 4173   2.833   5.106   4.840 -0.0709 -0.1202  0.1086
  322POPC   C1B 4174   1.825   5.894   4.409 -0.2227  0.2177  0.0595
  322POPC   C2B 4175   1.580   6.041   4.822 -0.3437 -0.0772 -0.0686
  322POPC   C3B 4176   1.815   6.293   5.150 -0.0449 -0.1089 -0.1558
  322POPC   C4B 4177   2.237   6.356   5.083 -0.0963 -0.0845 -0.0906
  323POPC   NC3 4178   3.460   2.205   3.359 -0.2405 -0.1089  0.1764
  323POPC   PO4 4179   3.781   2.424   3.697  0.3653  0.0092 -0.1863
  323POPC   GL1 4180   3.852   2.424   4.114 -0.2714 -0.1336  0.0209
  323POPC   GL2 4181   3.783   2.077   4.272  0.0358 -0.1193  0.0180
  323POPC   C1A 4182   3.755   2.566   4.629 -0.0355 -0.1180 -0.0369
  323POPC   D2A 4183   3.935   2.729   4.976 -0.0204  0.1109 -0.1724
  323POPC   C3A 4184   4.153   2.963   5.318  0.0184 -0.0106 -0.0946
  323POPC   C4A 4185   4.510   3.059   5.353 -0.2495  0.0089  0.4297
  323POPC   C1B 4186   3.510   2.097   4.659  0.0207 -0.0766  0.2370
  323POPC   C2B 4187   3.594   1.898   5.040 -0.0461  0.3829  0.0748
  323POPC   C3B 4188   3.344   1.648   5.398  0.0571  0.0606 -0.1140
  323POPC   C4B 4189   3.342   1.403   5.802 -0.3709  0.0626  0.0640
  324POPC   NC3 4190   2.676   7.164   3.611 -0.0302 -0.0462 -0.1758
  324POPC   PO4 4191   2.816   6.784   3.444  0.1637  0.1384 -0.2245
  324POPC   GL1 4192   2.646   6.699   3.891  0.0088  0.0743  0.1221
  324POPC   GL2 4193   2.379   6.486   3.926  0.2958  0.1066  0.1864
  324POPC   C1A 4194   2.689   6.766   4.194  0.1158  0.1378  0.1007
  324POPC   D2A 4195   3.053   6.888   4.496 -0.1037 -0.1840  0.0296
  324POPC   C3A 4196   3.172   6.664   4.832 -0.1310 -0.0241  0.0831
  324POPC   C4A 4197   3.160   6.463   5.258  0.3654  0.3043  0.0904
  324POPC   C1B 4198   2.591   6.299   4.230 -0.2194  0.2116  0.0647
  324POPC   C2B 4199   2.691   6.442   4.615 -0.0300  0.1469 -0.1153
  324POPC   C3B 4200   2.733   6.558   4.990  0.1010 -0.2231  0.1495
  324POPC   C4B 4201   2.651   6.864   5.149 -0.2955  0.0872  0.4459
  325POPC   NC3 4202   4.586   3.748   3.192 -0.0892 -0.1212  0.1765
  325POPC   PO4 4203   4.671   4.080   3.380 -0.1688  0.1467  0.0556
  325POPC   GL1 4204   4.861   4.214   3.814 -0.0766  0.0341 -0.1460
  325POPC   GL2 4205   5.164   4.411   3.898 -0.1736  0.1678  0.1555
  325POPC   C1A 4206   4.847   4.170   4.228 -0.1765  0.1062 -0.1467
  325POPC   D2A 4207   4.923   4.085   4.605 -0.3383 -0.0113  0.1382
  325POPC   C3A 4208   4.516   3.997   4.944 -0.3508 -0.0434  0.0222
  325POPC   C4A 4209   4.511   3.723   5.399 -0.0672 -0.1244  0.5663
  325POPC   C1B 4210   5.166   4.504   4.427 -0.0563 -0.0048 -0.0712
  325POPC   C2B 4211   5.037   4.710   4.857 -0.0696 -0.0750  0.2729
  325POPC   C3B 4212   4.883   4.640   5.216  0.2418 -0.2973  0.1854
  325POPC   C4B 4213   4.835   4.504   5.524  0.0408 -0.2596 -0.1567
  326POPC   NC3 4214   2.606   0.528   3.803 -0.0986 -0.1399 -0.0676
  326POPC   PO4 4215   2.975   0.351   3.800  0.0456 -0.0125 -0.5039
  326POPC   GL1 4216   2.937   0.460   4.203  0.0609  0.2573 -0.2144
  326POPC   GL2 4217   2.646   0.599   4.347  0.1117  0.0747  0.1582
  326POPC   C1A 4218   3.043   0.411   4.682  0.4008  0.1906  0.1618
  326POPC   D2A 4219   3.253   0.046   4.948 -0.0514 -0.0230 -0.3928
  326POPC   C3A 4220   3.446   0.109   5.325 -0.0965  0.1320  0.0884
  326POPC   C4A 4221   3.207   0.264   5.584  0.0379 -0.0647 -0.1306
  326POPC   C1B 4222   2.391   0.155   4.396 -0.0684 -0.0753 -0.2085
  326POPC   C2B 4223   2.142  -0.159   4.566  0.0508  0.2166  0.0246
  326POPC   C3B 4224   2.312  -0.432   4.892 -0.2646 -0.1663 -0.0059
  326POPC   C4B 4225   2.289  -0.744   5.285 -0.0084  0.0102 -0.0814
  327POPC   NC3 4226   5.357   5.664   2.873  0.0042 -0.1634 -0.3497
  327POPC   PO4 4227   5.553   5.543   3.235  0.2262 -0.0642 -0.1757
  327POPC   GL1 4228   5.769   5.554   3.573 -0.3478 -0.0648 -0.2319
  327POPC   GL2 4229   5.432   5.680   3.706 -0.2474 -0.1319 -0.3208
  327POPC   C1A 4230   5.888   5.586   3.991 -0.1172  0.1331  0.0498
  327POPC   D2A 4231   6.398   5.548   4.133  0.4518 -0.1221  0.0992
  327POPC   C3A 4232   6.600   5.457   4.455  0.2229  0.2799 -0.0642
  327POPC   C4A 4233   6.466   5.585   4.828 -0.1837  0.0173  0.3778
  327POPC   C1B 4234   5.319   5.413   4.109 -0.0539 -0.0048  0.2369
  327POPC   C2B 4235   5.199   5.118   4.527  0.1397  0.1947 -0.0295
  327POPC   C3B 4236   5.213   5.190   4.963 -0.4212 -0.0218 -0.0450
  327POPC   C4B 4237   5.491   5.193   5.290  0.2358  0.0224 -0.0319
  328POPC   NC3 4238   0.651   7.928   3.706 -0.2514  0.1406  0.1507
  328POPC   PO4 4239   0.666   8.262   3.639 -0.0922  0.0062 -0.1911
  328POPC   GL1 4240   0.965   8.210   4.048 -0.2014 -0.1291 -0.0815
  328POPC   GL2 4241   0.917   7.877   4.092 -0.2082  0.0187 -0.1464
  328POPC   C1A 4242   1.162   8.353   4.365  0.2242  0.1103  0.3615
  328POPC   D2A 4243   1.315   8.628   4.694  0.4394 -0.0202 -0.0302
  328POPC   C3A 4244   1.128   8.966   4.974  0.1549 -0.1030  0.2326
  328POPC   C4A 4245   0.795   9.161   5.287  0.0146  0.0135 -0.0246
  328POPC   C1B 4246   0.746   8.004   4.514  0.0941  0.0463 -0.0931
  328POPC   C2B 4247   0.550   7.826   4.835 -0.0434  0.2205  0.0917
  328POPC   C3B 4248   0.250   7.453   5.091  0.1465  0.1500 -0.1227
  328POPC   C4B 4249  -0.002   7.218   5.312 -0.1624  0.1125  0.2360
  329POPC   NC3 4250   4.187   4.933   3.319  0.2194  0.0156  0.1436
  329POPC   PO4 4251   4.075   4.570   3.073 -0.1343  0.0173 -0.2300
  329POPC   GL1 4252   4.016   4.589   3.639  0.0005  0.1172  0.0674
  329POPC   GL2 4253   3.860   4.290   3.857 -0.5098 -0.1520  0.0785
  329POPC   C1A 4254   3.824   4.729   4.029 -0.2075  0.3512 -0.3472
  329POPC   D2A 4255   3.685   4.762   4.379  0.2829 -0.1171  0.1120
  329POPC   C3A 4256   3.771   4.398   4.710 -0.3892  0.0524 -0.0350
  329POPC   C4A 4257   4.112   4.442   4.894  0.0476  0.0711  0.0429
  329POPC   C1B 4258   3.580   4.332   4.216 -0.0627  0.1038  0.1488
  329POPC   C2B 4259   3.251   4.484   4.554 -0.1018  0.1861  0.5918
  329POPC   C3B 4260   2.928   4.573   4.783 -0.1403 -0.2502  0.1601
  329POPC   C4B 4261   2.537   4.674   5.065 -0.1532  0.1177 -0.0019
  330POPC   NC3 4262  10.572   8.570   3.834  0.0914 -0.2647 -0.0486
  330POPC   PO4 4263  10.580   8.061   3.707 -0.0241 -0.1450  0.2347
  330POPC   GL1 4264  10.668   8.176   4.135  0.1774  0.1779  0.1526
  330POPC   GL2 4265  10.829   7.939   4.149 -0.1317  0.3344 -0.1550
  330POPC   C1A 4266  10.713   8.426   4.521 -0.1337  0.1929 -0.1780
  330POPC   D2A 4267  10.339   8.771   4.616  0.0878  0.0764 -0.0505
  330POPC   C3A 4268   9.948   8.558   4.748  0.1149  0.1544 -0.2505
  330POPC   C4A 4269   9.895   8.062   4.763  0.0991 -0.1215 -0.0150
  330POPC   C1B 4270  10.913   7.922   4.586 -0.0202 -0.0785 -0.0019
  330POPC   C2B 4271  10.863   8.125   4.921  0.1649  0.0346 -0.0574
  330POPC   C3B 4272  10.782   8.340   5.370 -0.0610  0.1888  0.3039
  330POPC   C4B 4273  10.661   8.247   5.702 -0.2466  0.1447  0.0874
  331POPC   NC3 4274   3.787   0.489   4.078 -0.2839  0.0203 -0.0612
  331POPC   PO4 4275   3.769   0.924   4.224 -0.4657 -0.0663 -0.2894
  331POPC   GL1 4276   3.393   0.957   4.529  0.1744 -0.2367  0.1479
  331POPC   GL2 4277   3.081   1.078   4.492 -0.0369  0.2147  0.0654
  331POPC   C1A 4278   3.533   0.771   4.940  0.0608 -0.2314  0.3570
  331POPC   D2A 4279   3.265   0.680   5.221  0.0556  0.0508 -0.0878
  331POPC   C3A 4280   2.863   0.469   5.126  0.1601 -0.1449 -0.0386
  331POPC   C4A 4281   2.530   0.532   4.827  0.1105  0.0610  0.0519
  331POPC   C1B 4282   2.942   0.963   4.830  0.0699  0.0200 -0.0960
  331POPC   C2B 4283   2.701   0.910   5.252 -0.3685  0.1192 -0.0279
  331POPC   C3B 4284   2.336   0.681   5.273  0.0748 -0.0138  0.0527
  331POPC   C4B 4285   2.003   0.807   5.064  0.1088  0.1347  0.0554
  332POPC   NC3 4286   1.959  10.326   3.858 -0.0371 -0.2957  0.1167
  332POPC   PO4 4287   1.554  10.489   3.711  0.1634 -0.3158  0.1266
  332POPC   GL1 4288   1.361  10.792   4.106 -0.0590  0.2370 -0.1201
  332POPC   GL2 4289   1.174  11.051   4.068  0.0826  0.1300 -0.2757
  332POPC   C1A 4290   1.382  10.676   4.486  0.0087  0.2663 -0.2647
  332POPC   D2A 4291   1.702  10.907   4.771  0.0766 -0.0169 -0.2597
  332POPC   C3A 4292   1.819  10.690   5.041 -0.0905 -0.1717  0.0986
  332POPC   C4A 4293   2.143  10.629   5.356  0.3828 -0.0712  0.2074
  332POPC   C1B 4294   1.010  11.377   4.225  0.2276 -0.0403 -0.0152
  332POPC   C2B 4295   0.762  11.389   4.678 -0.0618  0.0244  0.1143
  332POPC   C3B 4296   0.652  11.201   5.099 -0.0154  0.0459 -0.2036
  332POPC   C4B 4297   0.525  10.937   5.374  0.2322  0.0690  0.0826
  333POPC   NC3 4298   5.265   8.819   3.756  0.3480 -0.1071 -0.0313
  333POPC   PO4 4299   5.298   9.263   3.715  0.0911 -0.1187 -0.0185
  333POPC   GL1 4300   5.131   9.242   4.147  0.1196 -0.3791  0.1806
  333POPC   GL2 4301   5.222   8.934   4.319  0.0365 -0.1337 -0.1710
  333POPC   C1A 4302   4.957   9.253   4.654  0.2078 -0.0297 -0.2751
  333POPC   D2A 4303   4.920   9.334   5.076 -0.1028 -0.3550 -0.0974
  333POPC   C3A 4304   4.622   9.524   5.336  0.0115  0.1593  0.4177
  333POPC   C4A 4305   4.399   9.567   5.658 -0.0340 -0.2769 -0.1729
  333POPC   C1B 4306   5.398   8.906   4.740  0.1232  0.1103  0.0902
  333POPC   C2B 4307   5.738   8.808   5.019 -0.1169  0.1055 -0.0375
  333POPC   C3B 4308   5.776   8.701   5.451  0.1153 -0.1088  0.1770
  333POPC   C4B 4309   5.858   8.257   5.652 -0.0475 -0.0563 -0.0938
  334POPC   NC3 4310   6.622   7.889   3.269  0.0016 -0.0533 -0.1472
  334POPC   PO4 4311   6.480   7.593   3.475  0.2172  0.1182 -0.2877
  334POPC   GL1 4312   6.563   7.855   3.832 -0.0902 -0.1112  0.1961
  334POPC   GL2 4313   6.915   7.848   3.838 -0.0367 -0.2283  0.0085
  334POPC   C1A 4314   6.317   8.101   4.117 -0.3505 -0.0306 -0.2794
  334POPC   D2A 4315   6.378   7.946   4.440 -0.1782 -0.2806  0.0035
  334POPC   C3A 4316   6.087   7.872   4.810  0.0429 -0.1279 -0.0445
  334POPC   C4A 4317   5.870   7.978   5.254  0.2445 -0.1521  0.1386
  334POPC   C1B 4318   6.903   7.993   4.184  0.1003  0.3266  0.0029
  334POPC   C2B 4319   6.707   8.331   4.321  0.0104  0.1947  0.0012
  334POPC   C3B 4320   6.818   8.677   4.584 -0.0090  0.1786 -0.0415
  334POPC   C4B 4321   6.649   9.103   4.668  0.1231  0.0429 -0.3368
  335POPC   NC3 4322   8.117  10.442   3.511  0.0069 -0.0648 -0.0648
  335POPC   PO4 4323   8.427  10.012   3.549 -0.1115 -0.2662  0.3308
  335POPC   GL1 4324   8.382   9.955   3.984 -0.0418  0.0210 -0.1139
  335POPC   GL2 4325   8.149  10.194   4.064 -0.0501 -0.0941 -0.0909
  335POPC   C1A 4326   8.314   9.920   4.440 -0.1703  0.1976 -0.0483
  335POPC   D2A 4327   8.116   9.809   4.872  0.0659 -0.0839  0.2421
  335POPC   C3A 4328   7.958   9.826   5.267  0.1720 -0.0270  0.2548
  335POPC   C4A 4329   7.908   9.518   5.468 -0.0532 -0.1541 -0.1530
  335POPC   C1B 4330   8.241  10.457   4.416 -0.0815  0.2335 -0.3130
  335POPC   C2B 4331   8.209  10.309   4.851 -0.2994 -0.0161  0.1485
  335POPC   C3B 4332   8.426  10.100   5.163  0.1200 -0.0381 -0.1007
  335POPC   C4B 4333   8.720   9.972   5.511 -0.2550 -0.1093  0.1452
  336POPC   NC3 4334  10.381   4.174   2.890  0.1942 -0.2617 -0.1927
  336POPC   PO4 4335  10.776   4.101   3.046 -0.0493 -0.1544 -0.0740
  336POPC   GL1 4336  10.396   4.063   3.403 -0.4056  0.0938  0.0102
  336POPC   GL2 4337  10.290   4.355   3.336  0.0057 -0.1024 -0.2193
  336POPC   C1A 4338  10.407   4.032   3.843  0.1101  0.0208 -0.1358
  336POPC   D2A 4339  10.658   3.928   4.289  0.1198 -0.2003 -0.0780
  336POPC   C3A 4340  10.870   3.947   4.627  0.0205  0.2592 -0.3284
  336POPC   C4A 4341  11.235   3.840   4.952  0.0328  0.2363  0.1474
  336POPC   C1B 4342   9.962   4.208   3.666  0.1130  0.1648 -0.0520
  336POPC   C2B 4343   9.601   4.368   4.013 -0.0881 -0.0745  0.1289
  336POPC   C3B 4344   9.725   4.553   4.358  0.0868 -0.3454 -0.1153
  336POPC   C4B 4345   9.759   4.838   4.712 -0.2681 -0.2581 -0.2011
  337POPC   NC3 4346   4.083   9.288   3.739  0.0413  0.1228  0.1448
  337POPC   PO4 4347   4.354   8.901   3.685 -0.2881  0.0951 -0.0299
  337POPC   GL1 4348   4.431   8.813   4.157  0.0237 -0.0665  0.1600
  337POPC   GL2 4349   4.701   9.075   4.317 -0.1076 -0.0060 -0.1364
  337POPC   C1A 4350   4.330   8.704   4.536  0.1839 -0.3319 -0.0648
  337POPC   D2A 4351   4.551   8.469   4.895  0.1671  0.0211  0.0609
  337POPC   C3A 4352   4.938   8.661   5.117 -0.0261  0.2650 -0.0085
  337POPC   C4A 4353   5.262   8.881   5.258 -0.1785 -0.1137  0.0735
  337POPC   C1B 4354   4.821   8.816   4.595 -0.1153  0.1935 -0.1586
  337POPC   C2B 4355   5.090   8.495   4.657 -0.1545 -0.1271 -0.2242
  337POPC   C3B 4356   5.548   8.436   4.487  0.0640  0.1209  0.0079
  337POPC   C4B 4357   5.837   8.725   4.473  0.0587 -0.1014 -0.2790
  338POPC   NC3 4358  10.621   2.100   2.737 -0.0870  0.0491  0.0960
  338POPC   PO4 4359  10.740   1.980   3.169 -0.3831 -0.2337 -0.1961
  338POPC   GL1 4360  10.731   2.365   3.375  0.0881  0.0306 -0.0245
  338POPC   GL2 4361  10.820   2.195   3.714 -0.0865  0.0857 -0.0621
  338POPC   C1A 4362  11.140   2.522   3.608 -0.0654  0.1506  0.0159
  338POPC   D2A 4363  11.291   2.713   3.936  0.0657 -0.2643  0.0871
  338POPC   C3A 4364  11.383   3.057   4.257 -0.0057 -0.2641  0.0658
  338POPC   C4A 4365  11.513   3.532   4.138 -0.2859  0.2109 -0.1849
  338POPC   C1B 4366  10.917   2.367   4.060 -0.1174  0.1785  0.0310
  338POPC   C2B 4367  11.030   2.701   4.409 -0.1301  0.3808 -0.2678
  338POPC   C3B 4368  11.058   2.903   4.710 -0.0209  0.0223 -0.0078
  338POPC   C4B 4369  11.198   3.036   5.189 -0.0915 -0.2570  0.3757
  339POPC   NC3 4370  10.929  10.290   3.404 -0.0036 -0.0222  0.0508
  339POPC   PO4 4371  11.278  10.240   3.603  0.1732  0.3902 -0.0552
  339POPC   GL1 4372  11.072  10.183   3.916 -0.1297  0.2417 -0.0934
  339POPC   GL2 4373  10.714  10.072   3.862 -0.0736 -0.1898  0.0971
  339POPC   C1A 4374  11.265  10.173   4.348 -0.0100  0.3467  0.0542
  339POPC   D2A 4375  11.178  10.082   4.794  0.3171 -0.0146  0.0975
  339POPC   C3A 4376  11.472   9.908   5.144 -0.2887  0.0812  0.2489
  339POPC   C4A 4377  11.765   9.703   5.321 -0.4269 -0.0561 -0.0526
  339POPC   C1B 4378  10.616  10.217   4.276  0.2179 -0.1865  0.2159
  339POPC   C2B 4379  10.436  10.546   4.613 -0.2852  0.3574 -0.0010
  339POPC   C3B 4380  10.723  10.851   4.911  0.0054 -0.3023 -0.0181
  339POPC   C4B 4381  11.015  10.611   5.143  0.0143  0.0939 -0.0154
  340POPC   NC3 4382   7.102   3.179   3.091  0.0044 -0.1241  0.0007
  340POPC   PO4 4383   7.076   3.276   3.509  0.0624  0.1907  0.4376
  340POPC   GL1 4384   7.124   3.391   4.016 -0.0859 -0.1477  0.3748
  340POPC   GL2 4385   7.175   3.761   4.020 -0.2089  0.2235 -0.0643
  340POPC   C1A 4386   7.203   3.038   4.325  0.0048 -0.1600  0.1943
  340POPC   D2A 4387   7.202   3.212   4.801  0.0037  0.0576 -0.1783
  340POPC   C3A 4388   7.481   3.434   5.044 -0.0245  0.0590  0.1385
  340POPC   C4A 4389   7.846   3.444   5.240 -0.0331 -0.1556  0.3417
  340POPC   C1B 4390   6.816   3.963   4.279  0.2956 -0.0701 -0.3270
  340POPC   C2B 4391   6.684   4.151   4.591 -0.1324  0.0718 -0.0436
  340POPC   C3B 4392   6.567   4.076   5.008  0.0649 -0.0443  0.1703
  340POPC   C4B 4393   6.701   3.872   5.340  0.1039  0.0941  0.1965
  341POPC   NC3 4394   2.919   9.991   3.998  0.0292 -0.3473  0.2516
  341POPC   PO4 4395   3.211   9.620   4.005 -0.2029 -0.0581  0.3080
  341POPC   GL1 4396   3.374   9.862   4.283  0.0630  0.1869  0.0664
  341POPC   GL2 4397   3.285   9.589   4.566  0.0365 -0.0233 -0.0348
  341POPC   C1A 4398   3.577  10.018   4.682 -0.0030 -0.0207 -0.3199
  341POPC   D2A 4399   3.727   9.989   5.140 -0.1167 -0.0990  0.2106
  341POPC   C3A 4400   3.758  10.125   5.614  0.0057 -0.2116 -0.3855
  341POPC   C4A 4401   3.993  10.315   5.892  0.1167  0.0181  0.1143
  341POPC   C1B 4402   3.732   9.564   4.737  0.0670  0.0174 -0.1675
  341POPC   C2B 4403   4.041   9.455   4.981  0.0435  0.2952 -0.2188
  341POPC   C3B 4404   4.182   9.240   5.303  0.2492  0.0692 -0.0726
  341POPC   C4B 4405   4.155   9.068   5.570  0.0135  0.0666 -0.1860
  342W        W 4406   6.676   9.338   2.079  0.1253  0.0691  0.0104
  343W        W 4407   1.170   7.721   0.489  0.0600  0.0386 -0.2329
  344W        W 4408   0.074   2.905   8.905 -0.1900 -0.5381 -0.0064
  345W        W 4409   5.766   5.705  10.854  0.1221  0.0226 -0.1622
  346W        W 4410   8.948  10.617   9.744  0.3365  0.0155  0.1851
  347W        W 4411   8.768   5.993   2.269  0.0701 -0.0591 -0.0857
  348W        W 4412  10.338   9.819   9.943 -0.0111 -0.2787 -0.1842
  349W        W 4413   4.044   5.521   9.501  0.0899  0.0814  0.0504
  350W        W 4414  10.355   7.831   8.879 -0.2542 -0.0987 -0.1975
  351W        W 4415   6.511   5.966  10.597 -0.0242  0.0595  0.1492
  352W        W 4416  10.174   1.006   9.650  0.0368  0.4774  0.1482
  353W        W 4417   8.129   0.642   3.256 -0.0596  0.1831  0.4405
  354W        W 4418   3.930   5.020   1.851  0.1126 -0.1324 -0.1459
  355W        W 4419   2.810   1.010   0.228 -0.0764  0.0593  0.2053
  356W        W 4420   0.094   1.137  10.937 -0.2910 -0.0786  0.0117
  357W        W 4421   7.101   5.446   2.462  0.0031  0.0874  0.3459
  358W        W 4422   6.582   9.786   1.741  0.2041  0.3335 -0.0644
  359W        W 4423   5.732   2.266   1.868 -0.0680 -0.0713  0.0565
  360W        W 4424   2.409   1.774   1.233  0.0460  0.2910  0.2706
  361W        W 4425   8.280   3.413   0.353  0.1573  0.1434  0.0561
  362W        W 4426   3.111   2.551   9.118 -0.2608  0.0340  0.3332
  363W        W 4427   3.596   5.864   9.285  0.0743 -0.1182  0.0025
  364W        W 4428   7.068   7.213   2.657 -0.1421 -0.2210  0.1572
  365W        W 4429   9.167   1.645  10.029  0.2985  0.4700  0.1039
  366W        W 4430   6.737   8.664   1.440  0.0347 -0.4593 -0.2560
  367W        W 4431   8.464   2.729   2.021  0.1342  0.1409  0.0888
  368W        W 4432   0.803   2.678   1.371 -0.1123  0.0202  0.1425
  369W        W 4433   6.259   8.623   2.281  0.2780 -0.1227  0.1974
  370W        W 4434   2.024  10.928   2.473 -0.0576  0.2002  0.1338
  371W        W 4435  10.843   7.606  10.737  0.3894 -0.3429 -0.0738
  372W        W 4436   2.970   2.506   8.691  0.0822  0.0274  0.3345
  373W        W 4437   1.123   9.553   8.528 -0.1057  0.1019  0.0305
  374W        W 4438   3.717   5.373   1.496 -0.2381 -0.1621 -0.0152
  375W        W 4439   4.411   6.191  10.226 -0.0057  0.0845  0.1625
  376W        W 4440   6.565   1.511   2.461 -0.1500 -0.0268 -0.1052
  377W        W 4441   7.247   4.605   1.408  0.2273  0.0143 -0.2211
  378W        W 4442   6.703   6.993   3.011 -0.0208 -0.1967 -0.1954
  379W        W 4443   3.962   0.055   4.280 -0.0395 -0.1072  0.0574
  380W        W 4444   2.926   4.405   9.133 -0.0115  0.0024  0.1264
  381W        W 4445   7.865   9.376   1.912  0.1692  0.0385  0.0724
  382W        W 4446   0.398   3.314   1.995 -0.0590  0.0145 -0.1578
  383W        W 4447   9.178   1.153   6.961  0.0887  0.0898  0.2952
  384W        W 4448   9.094   6.213  10.542  0.0082  0.1467  0.1277
  385W        W 4449   9.092   7.507   3.041 -0.0158  0.2231  0.3631
  386W        W 4450   3.376   2.829   8.804  0.0386  0.0669 -0.0552
  387W        W 4451   0.885   4.404   7.655 -0.0818  0.2170  0.0812
  388W        W 4452   7.737   4.897   7.111 -0.0714  0.1023  0.4338
  389W        W 4453   5.166   0.534   9.819 -0.0550 -0.2917  0.1201
  390W        W 4454  10.601   3.247  10.637 -0.1906 -0.1930  0.1109
  391W        W 4455   5.157   6.322   2.160  0.2263 -0.0366 -0.2638
  392W        W 4456   9.659  10.558   3.693  0.1340  0.2536 -0.1776
  393W        W 4457   3.183   5.839  10.516  0.1539 -0.1385 -0.0111
  394W        W 4458   7.255   7.867   9.658 -0.1801  0.0089  0.1820
  395W        W 4459   9.785   7.118   9.629  0.1517  0.4012 -0.2155
  396W        W 4460   6.754   9.464   1.293 -0.1260 -0.0223  0.3123
  397W        W 4461   0.498   7.793   2.850  0.0826  0.2394  0.0350
  398W        W 4462   5.339   6.602   7.505 -0.1942  0.0187  0.1709
  399W        W 4463   0.457   1.177  10.005 -0.2545  0.2452  0.3391
  400W        W 4464   0.655   3.308   8.245  0.1559  0.1717  0.1376
  401W        W 4465   3.821   8.916   3.441  0.1775 -0.3102  0.0670
  402W        W 4466   5.033   1.805  10.482 -0.1941 -0.0705 -0.1126
  403W        W 4467  10.524   4.943  10.780 -0.1596  0.1402 -0.0515
  404W        W 4468   3.122  10.212   2.875 -0.0661 -0.2694 -0.1961
  405W        W 4469  10.645   2.090   1.136 -0.4592 -0.0614  0.0040
  406W        W 4470   5.877   1.050   3.511 -0.0973  0.1781 -0.0919
  407W        W 4471   3.037   8.266   3.010  0.2448 -0.1398 -0.2353
  408W        W 4472   5.695   2.039   9.223 -0.2618 -0.2712  0.1005
  409W        W 4473  10.684   9.414   0.444 -0.0151  0.2886  0.0668
  410W        W 4474   5.276   2.215   8.879 -0.0558 -0.2970  0.1057
  411W        W 4475   2.637  10.023   0.639 -0.3189 -0.2044  0.0204
  412W        W 4476  10.239   1.118   8.044  0.0784  0.3447  0.0573
  413W        W 4477   5.905   2.554   2.896 -0.0820 -0.0132 -0.0026
  414W        W 4478   1.145   0.179   3.360  0.0319 -0.1241 -0.1862
  415W        W 4479   2.040   6.304   0.071  0.1330 -0.2653 -0.0963
  416W        W 4480   8.855   7.677   8.936 -0.0393 -0.0227 -0.2282
  417W        W 4481   1.342   9.752   8.119 -0.1394 -0.1806 -0.2071
  418W        W 4482   0.726   4.568  10.108 -0.1053  0.2111  0.0230
  419W        W 4483   4.643   7.243   3.613 -0.0839  0.0033 -0.2912
  420W        W 4484   9.079   1.419   8.789  0.0032 -0.1124  0.2464
  421W        W 4485   1.340   9.314   9.569  0.2157 -0.0823 -0.0531
  422W        W 4486   2.168   6.726   1.891 -0.1353  0.0704 -0.0523
  423W        W 4487   6.505   9.875   8.146 -0.1816  0.1907  0.3128
  424W        W 4488  10.228   2.374   2.527  0.0211  0.1180 -0.0447
  425W        W 4489   8.943   5.990   9.515  0.1895 -0.2210  0.2719
  426W        W 4490   7.906   6.451  10.132 -0.0444  0.0138  0.1767
  427W        W 4491   6.938   0.990   9.248  0.3145  0.2428 -0.3320
  428W        W 4492   4.449   9.065   1.034  0.0709  0.3592 -0.1225
  429W        W 4493   2.852   2.441   1.750  0.2529  0.1356 -0.2120
  430W        W 4494   9.603   1.071  10.607 -0.0146  0.2030 -0.2484
  431W        W 4495   7.354   2.537   8.633 -0.1355 -0.0966  0.2145
  432W        W 4496   8.031   9.285   3.562  0.0102 -0.0736  0.2012
  433W        W 4497   9.277   1.322   3.851 -0.0705 -0.1075  0.3861
  434W        W 4498   7.968   1.973   0.233  0.0409  0.0331  0.0258
  435W        W 4499   4.046   1.886   9.254  0.2514 -0.1398  0.0738
  436W        W 4500   0.637   9.646   9.135  0.0561  0.0026  0.0959
  437W        W 4501   8.516   6.705   8.149  0.0050  0.0078  0.1289
  438W        W 4502   9.184   1.190   0.415  0.2248 -0.4660  0.2810
  439W        W 4503   3.818   1.086  10.921  0.3208 -0.1003  0.0873
  440W        W 4504   3.366   7.723   9.886 -0.0234 -0.2558 -0.2185
  441W        W 4505   8.018  10.008  10.578  0.0779 -0.0440  0.2463
  442W        W 4506   7.233   0.537   3.134 -0.2808 -0.2614  0.1301
  443W        W 4507   9.409   2.373   1.322 -0.0628  0.3879  0.0452
  444W        W 4508   6.710   3.042   7.606  0.0994 -0.2929  0.1615
  445W        W 4509  10.593   1.676   0.277  0.1448  0.3786 -0.0183
  446W        W 4510   0.532   4.018   9.929  0.3377 -0.1396  0.1636
  447W        W 4511   0.881   5.848   8.378  0.0379 -0.1228  0.0086
  448W        W 4512  10.321   9.309   1.988  0.2114 -0.0314  0.1214
  449W        W 4513   8.603  10.884   9.447  0.3432 -0.2533  0.1068
  450W        W 4514   0.165   2.889   6.971  0.1987  0.1440  0.2027
  451W        W 4515   3.291   2.228   9.682 -0.2434 -0.1385 -0.2363
  452W        W 4516   8.613   4.099   2.636  0.0778  0.3324 -0.1749
  453W        W 4517   1.610   8.116  10.561  0.0556  0.1583  0.0986
  454W        W 4518   0.112   6.758   7.918  0.1301  0.0785  0.1380
  455W        W 4519   7.726   9.911   7.421  0.4766  0.0103 -0.0260
  456W        W 4520   0.025   6.654  10.002  0.2131 -0.2324  0.2330
  457W        W 4521   4.211   1.392   8.568 -0.1234  0.1242 -0.0513
  458W        W 4522   0.221  10.249   1.606  0.1332  0.0471 -0.0237
  459W        W 4523   4.923   1.374   4.084 -0.2659 -0.0452  0.1019
  460W        W 4524   6.527   6.268   2.224 -0.1335 -0.0020 -0.2545
  461W        W 4525   8.305   1.604   9.641  0.0184 -0.0371  0.0474
  462W        W 4526  10.451   6.233   9.429 -0.1284 -0.1307 -0.0599
  463W        W 4527   2.334   7.717   2.200 -0.1362 -0.0528  0.3051
  464W        W 4528  10.364   8.975   2.979  0.1139  0.2299 -0.0471
  465W        W 4529   8.421   9.021   8.185  0.0364  0.0837  0.0207
  466W        W 4530   6.850   4.547   9.163  0.0908  0.2767 -0.1022
  467W        W 4531   2.545   1.503   9.555 -0.0922  0.0861  0.0347
  468W        W 4532   3.981   9.200   8.778  0.1168 -0.2520  0.0577
  469W        W 4533   3.892   4.752   9.053  0.0011 -0.1635  0.0626
  470W        W 4534   0.546   1.326  10.519 -0.1673  0.4160 -0.2509
  471W        W 4535   2.789   8.683   7.368  0.2573  0.2350 -0.0816
  472W        W 4536   1.859   4.030   8.406 -0.0468 -0.1353 -0.1100
  473W        W 4537   7.815   8.393   8.935 -0.0626  0.0744 -0.0307
  474W        W 4538   6.170   9.070   0.576  0.0774  0.0543  0.1380
  475W        W 4539   9.398   6.566   7.586  0.2995 -0.0925 -0.2309
  476W        W 4540   5.269   6.393   2.942 -0.1244 -0.4434 -0.1278
  477W        W 4541   3.978   9.944   9.223 -0.0410  0.1547  0.2280
  478W        W 4542   3.805   1.114   2.904  0.0160 -0.0823  0.0939
  479W        W 4543   9.032   4.302   1.398 -0.1390  0.0775 -0.1419
  480W        W 4544   0.256  10.783   1.330 -0.0189 -0.2620  0.0350
  481W        W 4545   1.659   7.233   2.157  0.3253 -0.2597  0.0062
  482W        W 4546   0.854   3.007   9.097  0.1154 -0.0086  0.1590
  483W        W 4547   2.385   0.371   2.471  0.3671 -0.0982 -0.1268
  484W        W 4548   4.976   4.904   8.292  0.2199 -0.0701 -0.0834
  485W        W 4549   2.749   6.203   9.137 -0.1091  0.2390  0.1244
  486W        W 4550   7.723   5.365   2.189 -0.2560  0.1072 -0.2418
  487W        W 4551   8.750   8.166   8.905 -0.2418  0.2823  0.1588
  488W        W 4552   3.184   5.925   0.885 -0.1088  0.1183  0.3121
  489W        W 4553   3.044   0.875   0.647 -0.2924 -0.0743  0.0834
  490W        W 4554   7.593   8.202   9.770  0.0315  0.0344 -0.0576
  491W        W 4555   9.664   7.877   7.444 -0.4147 -0.1471 -0.1583
  492W        W 4556   8.404  10.829   8.999 -0.0150 -0.1336  0.0687
  493W        W 4557   3.343   8.902   8.004 -0.0851  0.0066 -0.0340
  494W        W 4558   7.517   4.565   0.364  0.0447 -0.2413 -0.0179
  495W        W 4559   4.549   9.332   9.776  0.1896 -0.1117  0.2001
  496W        W 4560   6.090   9.596   1.903  0.3434 -0.2779 -0.1244
  497W        W 4561   1.192   9.871   1.750  0.1358 -0.0583 -0.0996
  498W        W 4562   8.395   3.061   0.983  0.2680 -0.0891  0.2456
  499W        W 4563   1.285  10.168   9.233  0.1635  0.2622  0.0395
  500W        W 4564   8.269   8.257   9.770  0.2462  0.2174 -0.2877
  501W        W 4565   4.808   5.158   2.583 -0.1833  0.3204 -0.1326
  502W        W 4566   0.039   9.868   8.536 -0.3150 -0.3086 -0.0061
  503W        W 4567   2.910   6.622   9.449  0.1985  0.1829 -0.1384
  504W        W 4568   1.378   4.969   3.085  0.1467 -0.3650  0.0917
  505W        W 4569   8.956   7.893   2.290 -0.0959  0.1369  0.1556
  506W        W 4570   3.388   1.296   0.834 -0.0169  0.0833 -0.0749
  507W        W 4571   6.460   2.769   9.798 -0.0670  0.0949 -0.0615
  508W        W 4572   7.927   3.721   3.618 -0.3584 -0.1573 -0.2001
  509W        W 4573   1.316   9.196   3.242 -0.0321  0.4029 -0.1627
  510W        W 4574   6.072   0.788   8.383  0.1758  0.0819  0.1405
  511W        W 4575   3.173   5.099   7.743 -0.4060 -0.0276 -0.2199
  512W        W 4576   3.594  10.261  10.441  0.2614  0.1486 -0.1366
  513W        W 4577   7.274   8.875   7.955 -0.2523  0.1476 -0.0818
  514W        W 4578   1.497   2.360   1.126  0.0285 -0.1997  0.1604
  515W        W 4579   8.585   7.648   8.521  0.0969 -0.0816  0.0820
  516W        W 4580   2.063   1.949   9.040 -0.0264  0.0391  0.0275
  517W        W 4581   5.839   5.729   2.656 -0.1360  0.4120  0.1232
  518W        W 4582   0.259   1.110   0.524  0.2273 -0.0517  0.0097
  519W        W 4583   9.564   9.517   1.237 -0.2627  0.1458 -0.1129
  520W        W 4584   4.091   5.125   2.760  0.3614  0.1473  0.2345
  521W        W 4585   3.545   0.839   0.897 -0.2551  0.3248 -0.0644
  522W        W 4586   8.962   0.458   3.981 -0.0336  0.2471 -0.1794
  523W        W 4587   8.814   2.556   6.636 -0.1583 -0.0778 -0.1089
  524W        W 4588  10.056   3.208  10.700 -0.4546 -0.2337 -0.2836
  525W        W 4589   0.761   1.720   1.608 -0.0988 -0.1016  0.3261
  526W        W 4590   3.608   8.730   0.664  0.0747  0.1899 -0.3128
  527W        W 4591   0.850   7.645   1.566 -0.2590 -0.0982 -0.2707
  528W        W 4592   6.152   6.256   2.617 -0.2603  0.2190  0.2064
  529W        W 4593   1.480   5.335   0.961  0.1366  0.0208  0.2998
  530W        W 4594   0.188   3.386   1.522  0.2062 -0.1029 -0.1393
  531W        W 4595  10.686   5.508   2.833  0.1880  0.1239 -0.1648
  532W        W 4596   4.859   6.728   9.294 -0.0363 -0.1464  0.1610
  533W        W 4597   8.024   2.524  10.154  0.0425  0.0172 -0.1788
  534W        W 4598   5.898   4.972   1.650  0.1250 -0.0612 -0.0710
  535W        W 4599   2.396   6.543  10.200  0.1450 -0.1719  0.2113
  536W        W 4600   9.037   9.322   2.640 -0.0176 -0.2286  0.2113
  537W        W 4601  10.843   8.352  10.954 -0.0356  0.1227  0.0269
  538W        W 4602   1.396   6.498   9.752 -0.1030  0.0028 -0.4453
  539W        W 4603   9.017   1.209   4.331  0.1423 -0.0380 -0.0078
  540W        W 4604   9.453   6.284  10.198  0.1373  0.1237  0.0628
  541W        W 4605   1.980   0.095   9.219  0.2963 -0.2621  0.2021
  542W        W 4606   3.037   6.891   7.792 -0.2621 -0.0423 -0.1309
  543W        W 4607   7.155   9.297   2.404  0.2620 -0.0643  0.0766
  544W        W 4608   9.147   0.203   1.208  0.1909  0.1027 -0.3728
  545W        W 4609   0.495   6.704   3.268 -0.2795 -0.2053 -0.1251
  546W        W 4610   9.026   7.682   8.286  0.1019  0.0929  0.3102
  547W        W 4611   8.204   6.608   7.342  0.1422  0.1898 -0.0974
  548W        W 4612   3.187  10.221  10.184  0.3143  0.0941  0.0971
  549W        W 4613   7.838   0.176   2.487  0.0351 -0.0101  0.5250
  550W        W 4614   3.329   7.434   1.546 -0.2235 -0.0762  0.4354
  551W        W 4615   6.420   8.289  10.902  0.0006 -0.1568  0.0368
  552W        W 4616   1.575   4.756   0.648  0.1266 -0.1542 -0.1424
  553W        W 4617   1.390   1.782   0.008 -0.0269 -0.3029 -0.1029
  554W        W 4618   8.613   3.269   8.543  0.2108 -0.0997 -0.0422
  555W        W 4619   2.601   8.771   2.052 -0.1234 -0.1208  0.0653
  556W        W 4620   5.586   3.780   8.830 -0.1237 -0.1113 -0.0313
  557W        W 4621   9.537   6.622   1.492 -0.1786  0.0172 -0.0561
  558W        W 4622   1.175   5.543   2.866  0.1128  0.1531 -0.0922
  559W        W 4623  10.161   9.142   0.154  0.0336 -0.3587  0.1969
  560W        W 4624   1.931   8.995   8.866 -0.3056  0.3398  0.2440
  561W        W 4625   9.015   4.378   2.771  0.1587  0.2552  0.2889
  562W        W 4626   3.868   9.079   1.473 -0.0447 -0.3824  0.1821
  563W        W 4627   4.867   5.726  10.737  0.0561  0.4038 -0.3495
  564W        W 4628   9.655   7.011   2.743 -0.1424  0.1459  0.0015
  565W        W 4629   8.431   3.301   2.735 -0.1854  0.0302  0.3789
  566W        W 4630   7.473   4.041   8.079 -0.0967  0.2127 -0.0436
  567W        W 4631   7.593   3.453   3.837  0.1036  0.2660 -0.1375
  568W        W 4632   7.498   8.016   1.900 -0.2136  0.1589 -0.2790
  569W        W 4633   7.548   7.345  10.776  0.0996 -0.0389 -0.0094
  570W        W 4634   0.970   5.802   0.810  0.0074  0.2311  0.0995
  571W        W 4635   0.096   8.917   9.400  0.1886 -0.1903  0.0992
  572W        W 4636   0.411   8.124   1.900  0.1422 -0.3401 -0.0530
  573W        W 4637  10.442   0.640   2.408 -0.3768 -0.2005 -0.1294
  574W        W 4638   4.547   9.369  10.831  0.1409 -0.1101 -0.1975
  575W        W 4639   5.773   6.011   9.979  0.0566  0.1001 -0.1119
  576W        W 4640   0.958   6.633  10.012 -0.1127 -0.1147  0.0481
  577W        W 4641   3.807   9.465   3.287 -0.0074  0.0827 -0.2897
  578W        W 4642   1.375   8.259   9.075 -0.0646  0.1007  0.3175
  579W        W 4643   3.165   5.770   8.523 -0.0539  0.0898  0.0631
  580W        W 4644   8.924   1.674   0.252 -0.1926 -0.0394 -0.1145
  581W        W 4645   4.713   6.899   2.527 -0.1226  0.1035  0.0535
  582W        W 4646   4.833   2.684   0.338 -0.1843 -0.3474 -0.0835
  583W        W 4647   8.108   8.890   1.901 -0.0806  0.3933  0.1182
  584W        W 4648   4.029   0.371   0.031  0.0753 -0.2297  0.2137
  585W        W 4649   4.974   8.556   9.942  0.0018  0.0679  0.1903
  586W        W 4650   8.377   4.689   2.166  0.0213  0.0816  0.1311
  587W        W 4651   3.676   9.144   7.234 -0.1160  0.0146 -0.0605
  588W        W 4652   2.937   1.671  10.863 -0.5196  0.1382 -0.3280
  589W        W 4653   7.633   0.895   8.384  0.1226  0.3410  0.0805
  590W        W 4654   3.485   7.537   2.460  0.2041  0.2653  0.1162
  591W        W 4655   9.377   4.870   0.213  0.0387 -0.3573 -0.3332
  592W        W 4656   4.676   9.942  10.901  0.2213  0.3960  0.0879
  593W        W 4657   4.519   8.409  10.377 -0.2848 -0.1698 -0.2283
  594W        W 4658   1.307   7.449   9.922  0.1304  0.0911  0.0825
  595W        W 4659   0.405   0.240   2.537 -0.0234 -0.0340 -0.0883
  596W        W 4660   6.737   1.692  10.372 -0.0094  0.3413 -0.2128
  597W        W 4661   7.319   3.301   2.649 -0.1556 -0.3224  0.1719
  598W        W 4662  10.257   9.179   8.438 -0.0235  0.0494  0.3740
  599W        W 4663   5.744   6.535   2.730  0.0029 -0.1769 -0.4185
  600W        W 4664   7.770   4.091   2.207  0.0571  0.0593  0.1331
  601W        W 4665   2.384   4.352   2.060  0.1590 -0.0239 -0.2872
  602W        W 4666  10.441   6.349  10.437  0.1142 -0.0706  0.0091
  603W        W 4667   7.509   2.491   2.048 -0.3580  0.1761 -0.1077
  604W        W 4668   6.544   9.287   0.129 -0.0385  0.0942 -0.1207
  605W        W 4669   0.863   8.276   8.836 -0.2019  0.1721 -0.0478
  606W        W 4670   6.591   2.733  10.299 -0.1211  0.0828  0.1894
  607W        W 4671   3.383   0.375   1.067 -0.1045 -0.0870 -0.2489
  608W        W 4672  10.470   6.737   1.671 -0.0656  0.1600  0.0049
  609W        W 4673   8.509   1.492   3.002  0.1686 -0.0894  0.0179
  610W        W 4674   5.972   6.935  10.189  0.1676  0.0737  0.1166
  611W        W 4675   4.389   1.672   2.455  0.1998 -0.2571  0.0566
  612W        W 4676   4.578   9.363  10.307 -0.1557  0.0474  0.2366
  613W        W 4677   7.044   9.677   1.791  0.0733 -0.1749  0.0657
  614W        W 4678   2.223   8.271   9.402  0.0077 -0.1179 -0.0817
  615W        W 4679   1.781   9.443   3.342 -0.2208  0.1423 -0.1825
  616W        W 4680   9.483   7.147   8.271  0.0293  0.0906 -0.1867
  617W        W 4681   8.624   4.519  10.529  0.3410 -0.1031  0.0832
  618W        W 4682  10.859   0.775   0.747 -0.0014 -0.1745 -0.2627
  619W        W 4683   0.916   5.902   6.484  0.1668 -0.1979  0.4184
  620W        W 4684   6.534  10.554   0.474 -0.4786  0.3010  0.0017
  621W        W 4685  10.043  10.129  10.930 -0.1568 -0.1054 -0.2492
  622W        W 4686   7.073   2.375   0.965 -0.0921 -0.3264 -0.0147
  623W        W 4687   7.372  10.532   2.980  0.0201  0.0007 -0.2059
  624W        W 4688   3.470   1.846   8.560  0.3341  0.1880  0.0591
  625W        W 4689   0.163   5.452   2.349  0.2832 -0.1100 -0.1900
  626W        W 4690   3.947   0.335   9.200  0.1516 -0.0644 -0.0976
  627W        W 4691   3.898   2.945   1.134  0.2860  0.1042 -0.1091
  628W        W 4692   8.709   2.561   3.552 -0.1006 -0.1090 -0.0512
  629W        W 4693   9.356   7.741  10.281  0.0854 -0.2099  0.1822
  630W        W 4694   5.226   6.636   8.894  0.4448  0.3946 -0.0427
  631W        W 4695   1.471   3.556  10.144 -0.0442 -0.0093  0.2429
  632W        W 4696   1.434   0.787   0.072  0.2338 -0.1066  0.2327
  633W        W 4697   4.589   0.919   1.659  0.0566  0.1370 -0.0743
  634W        W 4698   3.317   6.687   1.086 -0.1679 -0.0921  0.1640
  635W        W 4699   2.219   5.675   2.906 -0.0399 -0.1616  0.2687
  636W        W 4700   2.446   2.986   7.273 -0.2878  0.0026 -0.2265
  637W        W 4701   5.951   6.038   8.994  0.2438  0.1821 -0.2088
  638W        W 4702  10.632   7.510   8.535 -0.1289  0.1903 -0.1699
  639W        W 4703   2.770   8.953   9.182 -0.1586  0.2642 -0.1977
  640W        W 4704   6.716  10.911   0.956  0.1108  0.1531 -0.2563
  641W        W 4705   0.107   0.337   0.572 -0.0890 -0.2497 -0.3889
  642W        W 4706   6.534   5.866   1.975 -0.0930  0.1832 -0.0252
  643W        W 4707   9.930   9.416   4.203  0.1496  0.1880  0.0204
  644W        W 4708   3.439   0.316   8.805 -0.2173  0.1049 -0.2388
  645W        W 4709   2.849   6.386  10.370 -0.3476 -0.1405 -0.2720
  646W        W 4710   9.130   2.556   0.966  0.1998 -0.0517 -0.0162
  647W        W 4711  10.159   9.433   0.561 -0.0508  0.0850 -0.3720
  648W        W 4712   6.269  10.774   9.198 -0.1172  0.0484 -0.0680
  649W        W 4713   0.208  10.773   8.292 -0.0192 -0.2681 -0.0092
  650W        W 4714   5.521   7.354   1.684 -0.0172  0.0943  0.0985
  651W        W 4715   4.602   3.895   8.895  0.0151 -0.4154  0.4182
  652W        W 4716   0.389   7.344   1.187 -0.5054  0.1325  0.3036
  653W        W 4717  10.409   9.779  10.439  0.1493  0.2312 -0.0543
  654W        W 4718   6.918   7.954   1.923 -0.0555 -0.1396  0.1010
  655W        W 4719   8.503   8.131   2.176 -0.1560  0.0667  0.0452
  656W        W 4720   7.820   2.492   9.665  0.3493  0.1244 -0.0373
  657W        W 4721   4.271   0.352   2.314  0.1192  0.0880 -0.0932
  658W        W 4722   8.845  10.608   1.924  0.2121 -0.0660  0.1403
  659W        W 4723   2.438   4.533   6.874 -0.2167  0.2923  0.0243
  660W        W 4724  10.534   0.071   8.251  0.1910 -0.0629  0.0072
  661W        W 4725   0.386   0.111   1.861  0.1930 -0.2272 -0.2074
  662W        W 4726  10.097   3.382   2.518  0.1131  0.1208  0.0597
  663W        W 4727   6.912   5.267   7.378 -0.2100 -0.0810  0.0994
  664W        W 4728   1.527   4.546   2.726  0.0766  0.2474 -0.2131
  665W        W 4729   4.199   0.312  10.561  0.2938 -0.0363 -0.3901
  666W        W 4730   2.948   4.373   8.321 -0.0074 -0.1434 -0.2267
  667W        W 4731   1.970   2.601   8.405 -0.0903 -0.0031 -0.0313
  668W        W 4732  10.514   2.096   8.931  0.0352 -0.2803 -0.1969
  669W        W 4733   9.985   0.648   2.218 -0.1646 -0.5694 -0.1413
  670W        W 4734   7.002   7.237  10.160 -0.1921  0.1627  0.6441
  671W        W 4735  10.467   0.507  10.646 -0.0083 -0.2312  0.2327
  672W        W 4736   3.019   4.235  10.171  0.2639 -0.2646 -0.1397
  673W        W 4737   5.752   6.070   0.177  0.0606 -0.1168  0.0348
  674W        W 4738   5.747   3.095   2.154 -0.1900  0.0080  0.0658
  675W        W 4739   9.845   2.730   2.277 -0.1645  0.1300  0.1219
  676W        W 4740   2.426   4.593   7.774  0.0389  0.2293 -0.1346
  677W        W 4741   1.763   7.172   9.628  0.3789  0.3531  0.0697
  678W        W 4742  10.804   2.615   9.499  0.1903 -0.0850 -0.2206
  679W        W 4743   0.962   1.744   0.951  0.2212 -0.2195 -0.0987
  680W        W 4744   8.754   7.479   2.030 -0.2003 -0.0786 -0.1948
  681W        W 4745   6.500   8.670   9.850  0.0345  0.1368 -0.1566
  682W        W 4746   5.576  10.913   1.062 -0.0294 -0.5809  0.0231
  683W        W 4747   9.334   2.343   0.528  0.0717 -0.0004 -0.2102
  684W        W 4748   1.610   1.566   1.680  0.0054 -0.1598  0.0646
  685W        W 4749   2.861   7.333   4.080  0.1154 -0.2566  0.2061
  686W        W 4750   4.664   9.046   3.236  0.3997  0.1080 -0.1748
  687W        W 4751   2.434   1.032   8.510 -0.1266 -0.0049  0.0988
  688W        W 4752   3.125   9.719   2.612 -0.4113  0.1793 -0.1899
  689W        W 4753   6.924   4.442   6.913  0.1841  0.1333 -0.1808
  690W        W 4754   0.285   6.691   0.939 -0.2791  0.0196 -0.2556
  691W        W 4755   5.746   9.370   0.503  0.1904  0.2133  0.1342
  692W        W 4756   0.404   0.725   8.935  0.1078 -0.0782  0.1830
  693W        W 4757   9.204   2.584   0.049  0.2537 -0.1884 -0.3668
  694W        W 4758   0.003   1.106   9.729  0.1543  0.2941 -0.0022
  695W        W 4759   6.509   7.193   0.584 -0.1483 -0.0781  0.0281
  696W        W 4760   8.222   0.330   0.095  0.1372  0.2213 -0.0691
  697W        W 4761   6.277   7.699   2.424 -0.1169 -0.3223 -0.0072
  698W        W 4762   4.948   7.851   1.139 -0.0777  0.0051  0.0537
  699W        W 4763   8.727   3.878   1.240 -0.0350 -0.0851 -0.1745
  700W        W 4764   7.390   7.078   2.298  0.2967 -0.1110  0.1672
  701W        W 4765   2.589   8.303   9.007 -0.1428  0.3901  0.4321
  702W        W 4766   6.853   0.501  10.659 -0.0784 -0.1306 -0.1484
  703W        W 4767   2.749   4.963   2.861 -0.1347 -0.1525 -0.0634
  704W        W 4768   8.139   5.747  10.755 -0.1920 -0.1848 -0.2216
  705W        W 4769   1.390   8.361   9.979  0.0709  0.0481  0.0145
  706W        W 4770   5.769   0.497  10.690 -0.5115 -0.1670  0.2163
  707W        W 4771   9.574   3.070   8.808 -0.1679  0.1700 -0.1115
  708W        W 4772   5.086   2.249  10.255  0.3793 -0.0656 -0.1467
  709W        W 4773  10.223   0.605   9.348 -0.1443  0.0643  0.2147
  710W        W 4774   6.512   9.533  10.655 -0.0182 -0.0585  0.0329
  711W        W 4775   6.014  10.362   7.108  0.2358  0.0127  0.0013
  712W        W 4776   8.291   0.892   2.164  0.0248  0.0066  0.0713
  713W        W 4777   9.844   1.053   0.054  0.0053 -0.1902 -0.2562
  714W        W 4778  10.007   1.376   7.602  0.0182 -0.1987  0.3474
  715W        W 4779   2.850   8.414  10.954  0.0135 -0.1546  0.0488
  716W        W 4780   4.012   3.810   1.553  0.0438  0.0488 -0.1024
  717W        W 4781   5.413   5.132  10.162 -0.3102  0.0552 -0.1547
  718W        W 4782   6.179   8.181   2.638  0.0803  0.0298  0.0941
  719W        W 4783   0.397   4.918   9.988  0.1379 -0.0840 -0.3173
  720W        W 4784   0.995   6.561   1.206 -0.1576  0.1639  0.3203
  721W        W 4785   0.119   0.254   9.592  0.1380  0.1644 -0.0415
  722W        W 4786   9.211   8.640   1.112 -0.0051 -0.1781  0.3377
  723W        W 4787   4.093   9.180   0.100  0.0975  0.2632  0.0326
  724W        W 4788   1.824   5.371   2.749  0.1247  0.0455  0.0936
  725W        W 4789   2.958   6.831   2.972 -0.1772 -0.0781  0.2374
  726W        W 4790   9.217   5.687   7.829 -0.0169  0.3963 -0.0508
  727W        W 4791   8.027   1.184   2.914  0.0634 -0.1122 -0.1015
  728W        W 4792   6.764   5.768   8.500  0.0527  0.1645  0.2915
  729W        W 4793   4.345   0.898   7.666 -0.1930 -0.1586  0.1153
  730W        W 4794  10.149  10.718   8.515 -0.0167  0.2975  0.1388
  731W        W 4795   3.775   8.036   7.971  0.0187  0.0625 -0.1501
  732W        W 4796   8.577   4.869   8.376 -0.2501  0.1122  0.0733
  733W        W 4797   4.168   2.300  10.573  0.0671  0.0300  0.2795
  734W        W 4798   1.196   7.032  10.290 -0.2073  0.3405  0.2398
  735W        W 4799   5.543  10.784   8.748 -0.1361 -0.1315 -0.2165
  736W        W 4800  10.439   7.144   1.191  0.3769  0.0771 -0.0150
  737W        W 4801   4.230   0.471   8.751 -0.0193  0.2136  0.1870
  738W        W 4802   7.129   0.627   1.371 -0.1465 -0.2837  0.1264
  739W        W 4803   2.839   3.801   0.564  0.1733  0.3065 -0.0004
  740W        W 4804   1.834  10.290   2.868 -0.0512 -0.3178 -0.1352
  741W        W 4805   7.793   5.548   8.410 -0.2643 -0.0881  0.2275
  742W        W 4806   7.414  10.116   7.841 -0.0500 -0.1390  0.0534
  743W        W 4807  10.815   3.724   0.291  0.0529  0.2065  0.2913
  744W        W 4808   1.631   5.919  10.559  0.0561 -0.0141  0.0513
  745W        W 4809   1.483   7.323   0.210  0.1971 -0.1493 -0.3935
  746W        W 4810   3.898   8.805   2.879  0.2319 -0.0654 -0.0693
  747W        W 4811   2.689   5.817  10.440  0.0221  0.0486  0.0506
  748W        W 4812   5.537   1.142   9.087 -0.2699  0.3469 -0.1934
  749W        W 4813   7.245   8.279   8.401  0.0682  0.1171 -0.0531
  750W        W 4814   9.836   8.526   2.064  0.1273  0.2946 -0.0834
  751W        W 4815   9.499   1.602   9.521  0.2924 -0.1389  0.0856
  752W        W 4816   4.889   6.144  10.471 -0.0219 -0.0043 -0.3030
  753W        W 4817   9.000  10.513   9.238  0.3694  0.0956 -0.2595
  754W        W 4818  10.239   3.029   9.963 -0.1844 -0.0496 -0.2979
  755W        W 4819   8.552   5.095   1.860 -0.0412 -0.4433 -0.0375
  756W        W 4820   6.953  10.696   2.776 -0.1226  0.2131  0.1079
  757W        W 4821   2.140   7.417   8.659 -0.2562 -0.3112  0.1327
  758W        W 4822  10.328   4.782   9.012  0.2397  0.4166  0.1524
  759W        W 4823   7.800   0.486   1.642 -0.0160  0.0940 -0.0281
  760W        W 4824   6.606   3.110   3.824 -0.0889 -0.2523 -0.5440
  761W        W 4825   7.307   6.539   8.430  0.0448 -0.1142  0.1612
  762W        W 4826   3.815   5.651   1.038 -0.0083  0.1832 -0.0835
  763W        W 4827   0.078   2.561   5.380  0.1602 -0.4604 -0.0675
  764W        W 4828   4.163   0.309   0.457 -0.0764  0.3211 -0.3286
  765W        W 4829   8.193  10.786   3.914  0.2316  0.0679  0.4334
  766W        W 4830   0.844   8.708   0.196  0.1654  0.2720 -0.2981
  767W        W 4831   5.397   0.352   8.864  0.2459  0.1012 -0.3140
  768W        W 4832   0.113  10.259   9.780 -0.0356  0.0527  0.0880
  769W        W 4833   1.426   6.034   9.632  0.2434  0.0338  0.2447
  770W        W 4834   3.531   3.553   3.819  0.1851 -0.4577 -0.0596
  771W        W 4835   7.308   7.461   8.684 -0.0077  0.2809  0.0162
  772W        W 4836   9.903   8.840   2.783 -0.0531  0.0092 -0.1872
  773W        W 4837   7.310   7.435   1.302  0.1225 -0.1192  0.2009
  774W        W 4838   1.082   2.749   2.187  0.2534 -0.1291  0.4197
  775W        W 4839   1.360   5.123   7.761  0.2171 -0.0680  0.0256
  776W        W 4840   4.491   1.412   7.649 -0.0397 -0.1285 -0.2683
  777W        W 4841   4.734   0.903   2.361 -0.0242  0.4361  0.2134
  778W        W 4842   7.944   0.032   8.572  0.2521  0.1320 -0.0852
  779W        W 4843   0.035   1.608   2.945  0.3301  0.0370  0.0636
  780W        W 4844   4.856   1.014   7.719 -0.2651  0.0594  0.1364
  781W        W 4845   9.951   2.956   7.592  0.1511 -0.1166 -0.2707
  782W        W 4846   0.478   4.584  10.641  0.0106  0.2363  0.1743
  783W        W 4847   3.883   1.185   0.554 -0.2353 -0.1605 -0.2705
  784W        W 4848   4.853   6.610   0.173 -0.0878  0.2424 -0.1878
  785W        W 4849   8.321   7.879  10.600  0.1576  0.0473 -0.0756
  786W        W 4850   1.631   1.843   2.074 -0.1992  0.3227  0.0632
  787W        W 4851   7.963   1.998   9.746 -0.2918 -0.2385  0.0497
  788W        W 4852   1.294   5.958   2.603 -0.0517 -0.1175 -0.1085
  789W        W 4853   1.604   3.780   8.837  0.1706  0.3037  0.1871
  790W        W 4854   6.828   7.567   1.602 -0.0370 -0.0707 -0.0396
  791W        W 4855   4.940   8.146   9.106 -0.2302 -0.0089 -0.0544
  792W        W 4856   5.658   8.839   4.033  0.1694  0.0766  0.1665
  793W        W 4857  10.392   3.273   1.270 -0.0412  0.2490  0.1919
  794W        W 4858   0.963   9.634   9.953  0.0056 -0.3563 -0.0152
  795W        W 4859   6.887   7.242  10.625 -0.1915 -0.0292 -0.0997
  796W        W 4860   0.301   1.464   2.343  0.2256  0.3012 -0.1085
  797W        W 4861   0.251   3.520   3.380 -0.1955  0.1010 -0.0620
  798W        W 4862   2.835   2.271  10.005 -0.3874  0.0979 -0.0167
  799W        W 4863  10.782  10.784  10.910  0.0985  0.0164  0.1119
  800W        W 4864   4.394   3.381   2.377  0.2231 -0.0748 -0.0046
  801W        W 4865  10.510  10.100   2.428 -0.3521 -0.1072  0.0744
  802W        W 4866   3.803   6.135   2.693 -0.1787  0.0163 -0.1126
  803W        W 4867   2.876   3.912   8.352 -0.2942 -0.2179 -0.1939
  804W        W 4868  10.346   0.995   4.216 -0.2574  0.1183  0.1642
  805W        W 4869   2.205   9.191   2.468  0.2109  0.2131  0.0484
  806W        W 4870   0.670   0.879   1.366  0.0170 -0.0692 -0.0016
  807W        W 4871   9.043   5.223   1.923  0.0220 -0.1169  0.0459
  808W        W 4872   6.016   4.102   1.607 -0.0546 -0.2094 -0.1609
  809W        W 4873   0.257   1.668  10.096 -0.0764 -0.1066 -0.3067
  810W        W 4874   2.490  10.581   8.897 -0.2222  0.2047 -0.3683
  811W        W 4875   6.814   9.147   1.630  0.0895 -0.0536  0.1682
  812W        W 4876   2.561   7.996   0.943 -0.1932  0.2244  0.2953
  813W        W 4877   0.493   1.995   0.849  0.0312  0.2867 -0.0561
  814W        W 4878   9.500   6.613   8.056  0.0686  0.4383 -0.2915
  815W        W 4879   1.840   7.361  10.742  0.1463 -0.2667 -0.1097
  816W        W 4880   5.602   9.558  10.636  0.2986 -0.1273 -0.3768
  817W        W 4881   4.714   5.725  10.144 -0.0015  0.2192 -0.0473
  818W        W 4882   3.775   4.621   1.048 -0.0190  0.1971  0.3630
  819W        W 4883   8.395   5.218   1.341 -0.3956  0.0845  0.0150
  820W        W 4884   5.971  10.407  10.160 -0.2337  0.0881  0.0772
  821W        W 4885   7.708   4.706   1.612 -0.1090  0.0920 -0.1436
  822W        W 4886   0.182   0.334   8.114 -0.0461 -0.1981  0.0418
  823W        W 4887   9.491   4.792   8.479 -0.1418  0.0200  0.1115
  824W        W 4888   0.583   4.747   9.541  0.2490 -0.1338 -0.0629
  825W        W 4889   6.110   5.555   7.290 -0.3661  0.0344  0.0681
  826W        W 4890  10.445   6.868   0.772  0.2563 -0.1493  0.1131
  827W        W 4891   4.762   7.145   1.306  0.0983  0.1269  0.0154
  828W        W 4892   4.711   1.371  10.361 -0.3785 -0.2083 -0.1648
  829W        W 4893   5.906   4.060   9.301 -0.1199  0.1170  0.0479
  830W        W 4894   0.376   6.960   0.087  0.2433  0.2017 -0.2221
  831W        W 4895   7.287   6.925  10.510  0.3951 -0.0013  0.1338
  832W        W 4896   5.786   8.492   3.652  0.4501  0.1250 -0.2444
  833W        W 4897   8.304   4.840   0.377  0.0322  0.3025  0.1271
  834W        W 4898   0.718   8.432   3.121 -0.1667 -0.0448 -0.1011
  835W        W 4899  10.877   5.886   9.175 -0.1435  0.0462  0.1857
  836W        W 4900   1.317   1.405   2.755  0.2166  0.4919 -0.1745
  837W        W 4901   0.528   0.843  10.887 -0.1142 -0.1548 -0.2575
  838W        W 4902   6.432   0.850   9.160 -0.2504 -0.0361  0.1985
  839W        W 4903   1.378   2.453   3.098 -0.1874 -0.2196  0.0166
  840W        W 4904   9.760  10.362   7.524 -0.0954  0.3260  0.1145
  841W        W 4905   4.043   3.721   2.504  0.0622 -0.0305  0.0695
  842W        W 4906   5.952   6.915   8.461 -0.1225  0.0086 -0.0875
  843W        W 4907   3.455   2.311   8.653  0.0718  0.1370 -0.0238
  844W        W 4908   4.285   9.775   8.088 -0.1397  0.0556  0.0529
  845W        W 4909   6.389   3.323   7.842  0.0602  0.1684  0.2244
  846W        W 4910   0.095   4.906  10.422 -0.2734  0.1351 -0.1434
  847W        W 4911  10.392   0.635   8.306 -0.1424 -0.0509 -0.0093
  848W        W 4912   7.647   8.866   9.196  0.3560  0.3498 -0.0684
  849W        W 4913   7.274   7.081   9.173 -0.2740  0.0756  0.0918
  850W        W 4914   3.862   7.395   0.445 -0.0050  0.1761  0.1635
  851W        W 4915   7.384   3.869   3.451 -0.2853 -0.0778 -0.3517
  852W        W 4916   3.825   8.228   9.272 -0.0014 -0.0359 -0.2104
  853W        W 4917   5.999   8.467   0.101 -0.1449 -0.3065 -0.2674
  854W        W 4918   7.973   1.034   7.995 -0.2457  0.0885  0.2572
  855W        W 4919   5.680   5.389   0.996  0.1140 -0.1757  0.3253
  856W        W 4920   9.333   9.599  10.879 -0.3260  0.0642 -0.1842
  857W        W 4921   9.497   6.740   9.319  0.1284 -0.1141 -0.2008
  858W        W 4922   3.966   5.333   2.278  0.0046 -0.1502 -0.0390
  859W        W 4923   8.543   9.814   2.109 -0.4066 -0.1532 -0.0190
  860W        W 4924   8.639   5.174   0.008 -0.4369  0.0268 -0.0506
  861W        W 4925   6.482  10.783   3.967  0.4926 -0.0650  0.0165
  862W        W 4926   6.265   6.376   8.804  0.1501  0.0940  0.1023
  863W        W 4927   7.216   2.820   1.153 -0.0283 -0.0329 -0.0948
  864W        W 4928   3.671   2.964   0.059 -0.1043 -0.0033  0.0773
  865W        W 4929   1.522   7.455   1.324  0.0334  0.0603 -0.1064
  866W        W 4930   1.064   9.121   8.366 -0.3639 -0.0076 -0.3075
  867W        W 4931   5.140   9.331  10.499 -0.0744 -0.2458  0.0740
  868W        W 4932   3.826   0.324  10.147  0.0605  0.0117 -0.2849
  869W        W 4933   7.007   8.572   0.437  0.1389  0.0262 -0.1549
  870W        W 4934   6.901   7.250   2.136 -0.1903 -0.0750  0.1327
  871W        W 4935   4.081   6.363   3.026 -0.1221 -0.0322 -0.1903
  872W        W 4936   6.657   0.131  10.360 -0.4886  0.0608  0.0005
  873W        W 4937   0.547   5.021   8.089  0.2222 -0.0724 -0.1924
  874W        W 4938   5.910   9.616   8.384 -0.0334 -0.0558  0.0422
  875W        W 4939   0.652   2.774   2.400 -0.0128  0.3029 -0.0325
  876W        W 4940   2.984   3.639   8.747 -0.0657  0.0825  0.2928
  877W        W 4941   5.020   4.142   9.565 -0.0092  0.0720 -0.0570
  878W        W 4942   2.491   7.459   8.321  0.2071 -0.0726  0.2058
  879W        W 4943   9.306   3.683   9.311 -0.0304 -0.2465  0.0790
  880W        W 4944   8.283  10.206   8.125  0.2129 -0.0135 -0.0861
  881W        W 4945   5.498   0.856   7.126 -0.2871  0.3093 -0.0381
  882W        W 4946  10.131   1.723  10.688 -0.0922 -0.1963 -0.2410
  883W        W 4947   2.911   7.430   7.930  0.0329  0.0575 -0.0970
  884W        W 4948   1.896   4.884   2.784  0.3449 -0.0483  0.1138
  885W        W 4949   4.661   7.944   8.131 -0.0582  0.0838  0.1147
  886W        W 4950   8.210   6.893   1.411  0.2269  0.1546 -0.1828
  887W        W 4951   8.343   9.707  10.311 -0.1937 -0.1711  0.1820
  888W        W 4952   4.334   0.711  10.847  0.1456 -0.1876  0.1680
  889W        W 4953   6.338   6.963   1.004 -0.1280  0.0370  0.0257
  890W        W 4954   7.232   7.075   8.304 -0.1111  0.3484 -0.1239
  891W        W 4955   3.661   8.637   9.530  0.1086 -0.0550  0.2783
  892W        W 4956   3.232   0.029   7.297 -0.1466 -0.0492  0.1713
  893W        W 4957   3.083   3.420   0.241  0.1529 -0.1036 -0.0383
  894W        W 4958  10.354   2.245   1.481  0.3773  0.1202  0.1627
  895W        W 4959   2.116  10.819   1.591  0.0224  0.4202  0.1530
  896W        W 4960   0.716  10.110   1.817 -0.0505 -0.0091  0.2864
  897W        W 4961   7.385   3.793   9.851  0.2410 -0.0974  0.3158
  898W        W 4962   9.792   7.557   1.842  0.0483  0.3496 -0.0537
  899W        W 4963   0.373   5.473   0.056  0.0308  0.1412  0.2448
  900W        W 4964   5.356   4.599  10.358 -0.2117 -0.1275  0.0074
  901W        W 4965   3.416   2.500   2.932  0.0174 -0.0358  0.5751
  902W        W 4966   8.406   3.046   1.664  0.1671  0.1407  0.2976
  903W        W 4967   6.398   3.573   1.330 -0.3103  0.0221  0.0366
  904W        W 4968  10.915   9.321   7.689  0.0858 -0.1064  0.3796
  905W        W 4969   5.096   6.705   9.776 -0.0049  0.0540  0.2507
  906W        W 4970  10.226   8.008   4.014 -0.2420  0.2653 -0.2437
  907W        W 4971   3.487  10.421   8.199 -0.1466 -0.2239 -0.0698
  908W        W 4972   1.065   0.131   0.657 -0.0759 -0.0972 -0.1154
  909W        W 4973   5.583   5.394   2.419  0.0244  0.1959  0.3011
  910W        W 4974   0.029   2.456   7.276  0.1076 -0.0174 -0.2512
  911W        W 4975   4.025   8.880   0.920  0.0995  0.0539 -0.0375
  912W        W 4976   3.408   6.715   8.164  0.0687 -0.0770 -0.1546
  913W        W 4977   6.523   0.319   0.628  0.0370  0.0266 -0.2399
  914W        W 4978   4.480   0.081   0.032 -0.0276 -0.1692  0.2395
  915W        W 4979   1.056   7.292   8.586  0.2803 -0.0997  0.1496
  916W        W 4980  10.290   2.931   2.577  0.0196  0.0048 -0.3190
  917W        W 4981   6.522   0.799   0.449  0.2825 -0.0116 -0.1752
  918W        W 4982   5.506   1.670   8.966  0.2842 -0.0259  0.2143
  919W        W 4983   1.404   0.082   9.093  0.0470 -0.4456 -0.1863
  920W        W 4984   6.769   2.075   0.743  0.2823  0.0667 -0.2363
  921W        W 4985   3.505  10.003   7.248  0.0028  0.0283  0.3056
  922W        W 4986   2.199   1.308  10.043  0.0222  0.0670 -0.3334
  923W        W 4987   9.102   0.782   3.617  0.1864 -0.2662  0.1081
  924W        W 4988   5.062   8.684   9.475  0.1148 -0.3798 -0.0050
  925W        W 4989  10.800   4.585  10.972 -0.1501  0.2091 -0.0088
  926W        W 4990   3.295   8.566   7.150 -0.2490  0.1189 -0.0715
  927W        W 4991   3.620   1.957   2.920  0.4034 -0.2470 -0.1101
  928W        W 4992   8.009   3.389   1.134 -0.0740  0.0531 -0.1416
  929W        W 4993   9.858   1.461   2.855 -0.1741 -0.3310  0.1900
  930W        W 4994   5.520   1.779  10.218 -0.0532 -0.1091 -0.2261
  931W        W 4995   5.632   7.335   9.379  0.3466  0.1045 -0.0994
  932W        W 4996  10.820   0.269   1.641 -0.1022  0.2256  0.2535
  933W        W 4997   6.672   9.800   9.672  0.1931  0.0188 -0.0140
  934W        W 4998   0.090   1.144  10.276 -0.2357 -0.3149  0.1090
  935W        W 4999   1.795  10.109   1.182  0.2495 -0.1550 -0.1762
  936W        W 5000   5.627   3.358   0.046  0.1900  0.0892 -0.2638
  937W        W 5001   4.554   4.707   8.282 -0.0689  0.0140 -0.2200
  938W        W 5002   8.037   4.034   1.046  0.1305  0.0111  0.0720
  939W        W 5003   6.842   8.527   9.411  0.1191 -0.2521  0.1595
  940W        W 5004   1.430   7.466  10.463 -0.1203 -0.0411 -0.1081
  941W        W 5005   2.675   6.049   9.605 -0.0731 -0.0458 -0.2765
  942W        W 5006   8.469   6.143   8.059  0.0768 -0.4481  0.0094
  943W        W 5007   8.415   8.260   9.267 -0.1999  0.2799  0.0957
  944W        W 5008   1.076   7.490   1.068 -0.1157  0.2601  0.0181
  945W        W 5009   9.512   9.193   9.561 -0.1574 -0.1032  0.0172
  946W        W 5010   3.559   6.730   1.998  0.0418  0.2268  0.2999
  947W        W 5011  10.646  10.177   0.184 -0.0588 -0.1460 -0.1722
  948W        W 5012   2.813   6.595   2.556 -0.0592 -0.0410  0.3294
  949W        W 5013   6.450   4.051   3.810 -0.3171 -0.2295 -0.1097
  950W        W 5014   2.473   6.962   1.090  0.3439  0.0122  0.2218
  951W        W 5015   9.793   8.961   8.624  0.1249  0.0397 -0.1783
  952W        W 5016   8.227   4.013   1.904 -0.0602 -0.2387 -0.1833
  953W        W 5017   0.240   2.347   0.574  0.1538 -0.1273 -0.0661
  954W        W 5018   6.619   2.473   0.014 -0.1802 -0.0416  0.0413
  955W        W 5019   9.530   8.521  10.813 -0.1390 -0.1027  0.0904
  956W        W 5020   2.097   6.846   8.830 -0.1516  0.1020 -0.1410
  957W        W 5021   4.629   2.452   8.219 -0.1983 -0.0443 -0.1330
  958W        W 5022  10.214   4.371   9.880 -0.1245 -0.1556  0.0247
  959W        W 5023   3.296  10.517   3.373 -0.0153  0.3450 -0.0105
  960W        W 5024   1.556   1.222   1.294 -0.0285  0.1208  0.0753
  961W        W 5025   1.433   0.647   2.461  0.4365 -0.2322  0.0750
  962W        W 5026   3.148   1.443   9.498 -0.0191 -0.1373  0.0000
  963W        W 5027   7.873   0.862   0.880  0.2135  0.1333 -0.0864
  964W        W 5028   0.140  10.464   9.254 -0.2517 -0.0214  0.0302
  965W        W 5029   3.464   9.382  10.847  0.0131  0.2582 -0.2814
  966W        W 5030   2.565   7.114   3.045  0.0945 -0.0855  0.0409
  967W        W 5031   3.294   8.734   8.566  0.1189  0.2130  0.0029
  968W        W 5032   1.089   9.485   1.470  0.2792 -0.0625 -0.2800
  969W        W 5033   6.935  10.101   7.998 -0.0157  0.1336 -0.0060
  970W        W 5034   5.165   7.233   9.067  0.3575 -0.1515 -0.1665
  971W        W 5035   7.480   9.183   0.685  0.0384 -0.2550 -0.0548
  972W        W 5036   6.973   9.241  10.670  0.0826 -0.1749  0.0358
  973W        W 5037   3.235  10.058   1.418 -0.0289 -0.0005 -0.1703
  974W        W 5038   3.464   2.966   1.364 -0.0003 -0.0553 -0.0984
  975W        W 5039  10.595   8.706   9.207  0.1021 -0.1924 -0.3290
  976W        W 5040   9.841   3.945   8.178 -0.2327  0.1123  0.1170
  977W        W 5041   0.339   8.167   3.212  0.2477  0.2280 -0.3286
  978W        W 5042   2.730   6.285   1.491 -0.0657 -0.0707 -0.0908
  979W        W 5043   2.667   2.233   8.983  0.0973 -0.0214 -0.0373
  980W        W 5044   9.058   1.429   1.097  0.3309 -0.0113  0.1337
  981W        W 5045   0.809   3.820   1.149 -0.0560  0.2820  0.3115
  982W        W 5046   3.181   7.717   8.567 -0.1722  0.1255  0.0529
  983W        W 5047  10.595   2.599   6.913 -0.0411 -0.0568 -0.1415
  984W        W 5048   3.372   9.704  10.003  0.3663  0.0541  0.1521
  985W        W 5049   5.493   1.989   1.090 -0.1958 -0.0321  0.0054
  986W        W 5050   2.103   1.815   0.739 -0.0430 -0.1604 -0.1514
  987W        W 5051   8.262   8.339   1.771 -0.1551  0.2025 -0.1689
  988W        W 5052   1.464   3.799   7.150  0.1285  0.2099  0.0843
  989W        W 5053   8.406   8.256  10.913 -0.0305 -0.3933 -0.2800
  990W        W 5054   6.387   6.885   7.862 -0.1194  0.1904 -0.0461
  991W        W 5055   1.419   9.505   2.344  0.1665 -0.0785  0.1815
  992W        W 5056   6.497   1.664   1.624  0.0589 -0.1871  0.2328
  993W        W 5057   8.682   0.100   8.576  0.2569 -0.1653 -0.2858
  994W        W 5058   8.256   0.068  10.433  0.2267 -0.0625  0.3150
  995W        W 5059   8.233   5.966   1.820 -0.1961 -0.1408  0.0729
  996W        W 5060   9.840   6.864   3.222 -0.2618  0.2346  0.2271
  997W        W 5061   3.621   3.535   9.509  0.2180  0.2939 -0.2468
  998W        W 5062   1.632  10.598   1.513 -0.2136 -0.0121 -0.1417
  999W        W 5063   7.052   9.428   0.788 -0.1091  0.0706 -0.0564
 1000W        W 5064   4.487   3.870   2.721  0.0196  0.0086 -0.0002
 1001W        W 5065   8.190   8.695   0.159  0.1465 -0.0988  0.2810
 1002W        W 5066   9.170   2.011   1.015  0.0735 -0.1239  0.0236
 1003W        W 5067   6.140   5.145   8.278 -0.0739 -0.0411 -0.0851
 1004W        W 5068   9.582  10.693   1.567 -0.0988 -0.1797 -0.1910
 1005W        W 5069   4.435   5.370  10.237 -0.1842  0.0338 -0.0383
 1006W        W 5070   9.542   4.074   2.811 -0.1233  0.2462 -0.0261
 1007W        W 5071   7.032   3.744   8.009  0.1568  0.2792 -0.1391
 1008W        W 5072   9.535   9.176   2.829 -0.0792 -0.3208  0.1085
 1009W        W 5073   2.673   9.979   0.116 -0.1346 -0.2860 -0.2588
 1010W        W 5074   0.319  10.329   8.459 -0.0007 -0.2078  0.1755
 1011W        W 5075  10.396   8.398   7.531 -0.2512  0.0473  0.3019
 1012W        W 5076   4.490   4.913   2.897 -0.1884  0.1560 -0.1553
 1013W        W 5077   2.095   5.567   2.410 -0.1238 -0.0951 -0.2035
 1014W        W 5078   5.466   4.783   2.961  0.0601 -0.0320  0.3583
 1015W        W 5079   1.004   6.806   7.437  0.1987  0.1235 -0.2742
 1016W        W 5080   5.801   2.157   8.668 -0.1632 -0.2349  0.2144
 1017W        W 5081   2.557   3.590   9.924 -0.0647  0.2187 -0.0623
 1018W        W 5082   3.165   6.178   9.382 -0.0282 -0.0474 -0.1835
 1019W        W 5083   6.196   5.825   1.169 -0.2966  0.1036  0.1216
 1020W        W 5084   3.490   0.542   0.495 -0.1686  0.1105  0.1784
 1021W        W 5085   2.806   0.386   8.089 -0.1908  0.1612 -0.0209
 1022W        W 5086   4.366   0.583   9.342  0.0449  0.2115 -0.1368
 1023W        W 5087   7.188   7.113   0.086 -0.0850 -0.2888  0.1860
 1024W        W 5088   3.237   4.283   9.471  0.0393 -0.0393 -0.1058
 1025W        W 5089  10.582   3.768   8.836  0.1324 -0.0225  0.0629
 1026W        W 5090   7.897   3.535   7.691 -0.0031 -0.2654 -0.2450
 1027W        W 5091   7.688   7.840   2.849 -0.4650  0.0149  0.0462
 1028W        W 5092   9.818   7.664   8.949 -0.1762 -0.1324 -0.1111
 1029W        W 5093   8.254   1.792  10.111  0.2493  0.1045 -0.3480
 1030W        W 5094   2.882   2.642   0.798 -0.0570  0.0057  0.1775
 1031W        W 5095   1.609   9.873   8.938 -0.2681 -0.1969  0.1319
 1032W        W 5096   6.142   3.526   8.323 -0.2054 -0.0007 -0.0988
 1033W        W 5097   6.558   0.770   9.664  0.1075  0.1098  0.0636
 1034W        W 5098   7.481  10.693   9.201 -0.2456  0.1302  0.4659
 1035W        W 5099   2.987   5.822   2.620  0.0030  0.0192 -0.0079
 1036W        W 5100   7.457   2.835   9.814  0.0216 -0.1568 -0.2136
 1037W        W 5101   9.147   0.914   8.842 -0.0828  0.0563  0.1028
 1038W        W 5102   5.869   5.863   0.761  0.0050  0.1174 -0.0289
 1039W        W 5103   5.216   0.627   2.479  0.0007 -0.0300 -0.0208
 1040W        W 5104   5.387   8.584   8.195 -0.0767  0.2142 -0.0318
 1041W        W 5105   4.170   5.731   1.484 -0.2255  0.3159  0.3569
 1042W        W 5106   2.239   9.541   2.067 -0.0598  0.2478  0.0805
 1043W        W 5107  10.584  10.123   2.959  0.0504 -0.1664 -0.0055
 1044W        W 5108   2.609   3.705   7.954  0.1050  0.0452  0.2991
 1045W        W 5109   0.773   8.980   9.928 -0.4694  0.1342  0.3826
 1046W        W 5110   4.068  10.799   0.787  0.4221  0.1258 -0.0122
 1047W        W 5111   1.795   4.333   1.838  0.0806 -0.1847  0.2213
 1048W        W 5112   6.926   6.247  10.517 -0.2482  0.0056 -0.0709
 1049W        W 5113   0.883   5.087   2.731 -0.2563  0.3601 -0.0130
 1050W        W 5114   2.694   9.454  10.820 -0.1173  0.0576 -0.1605
 1051W        W 5115   2.031  10.360   1.793 -0.0307 -0.0130  0.3676
 1052W        W 5116   5.963   4.959  10.562 -0.2751  0.0244 -0.0384
 1053W        W 5117   8.206   9.165   0.249 -0.0594  0.2669  0.0005
 1054W        W 5118   6.249   6.676   1.934  0.1082  0.2914 -0.0030
 1055W        W 5119   5.198   1.914   9.299  0.1238  0.0957 -0.2502
 1056W        W 5120   2.296   4.103   1.667 -0.1776 -0.2872 -0.0413
 1057W        W 5121   5.211   1.645   9.709  0.1232 -0.1660 -0.0597
 1058W        W 5122   9.725   5.606  10.670  0.1408 -0.1016  0.3924
 1059W        W 5123   8.042   9.451   1.414 -0.1253  0.0035 -0.0520
 1060W        W 5124   4.655   9.895   3.201 -0.2502  0.1379  0.0750
 1061W        W 5125   7.399   1.113   2.691 -0.1775  0.0197  0.3359
 1062W        W 5126   6.441   2.423   8.135  0.0504 -0.0977 -0.0092
 1063W        W 5127   6.474   6.464  10.488 -0.0942  0.2961 -0.0128
 1064W        W 5128  10.700   8.887   1.792 -0.2114 -0.1145 -0.3059
 1065W        W 5129   0.753   8.250   7.928 -0.0650 -0.0675 -0.4906
 1066W        W 5130   8.574   8.749   7.814 -0.3131  0.2583  0.3418
 1067W        W 5131   3.894   5.815   6.603  0.1616  0.3631 -0.3465
 1068W        W 5132   2.669   3.199   0.001  0.0954  0.0891  0.2574
 1069W        W 5133   2.379  10.317  10.227 -0.0915  0.0486 -0.1447
 1070W        W 5134   6.997   1.177   0.620  0.0832 -0.0206  0.0444
 1071W        W 5135   9.904   9.932   8.512 -0.2767 -0.3178 -0.2795
 1072W        W 5136   4.795   9.812  10.410 -0.1546 -0.0421  0.1650
 1073W        W 5137   5.814   2.955   0.264 -0.1753  0.0440  0.1069
 1074W        W 5138   9.239   2.663   6.988 -0.1772 -0.1286  0.3454
 1075W        W 5139   2.054  10.270   8.890  0.0111 -0.0879 -0.3970
 1076W        W 5140   4.603   6.776   3.520 -0.3138 -0.2730 -0.1677
 1077W        W 5141   8.604   0.169   3.218  0.1699  0.3369 -0.2063
 1078W        W 5142   7.626   0.176   2.994 -0.1316  0.0264  0.2365
 1079W        W 5143   7.647   5.599   9.964 -0.1779 -0.1135  0.0723
 1080W        W 5144   0.876   0.437   1.122  0.1197  0.0851  0.0699
 1081W        W 5145   3.386  10.035   0.336  0.1438 -0.0218 -0.0763
 1082W        W 5146  10.165   3.571  10.408  0.1733 -0.3102 -0.0278
 1083W        W 5147   9.278   1.645   0.719 -0.0530 -0.1204 -0.1488
 1084W        W 5148   1.603   6.129   8.326 -0.2703  0.1613 -0.2208
 1085W        W 5149   0.917   4.904   7.719  0.2271 -0.2206  0.0505
 1086W        W 5150   9.304   2.608   8.898 -0.1676 -0.3181 -0.1321
 1087W        W 5151   9.790   1.106   2.084 -0.0573 -0.0567 -0.1585
 1088W        W 5152   1.370   7.273   2.544  0.3001 -0.1203 -0.1342
 1089W        W 5153   6.901   8.523   2.201 -0.2903  0.0867  0.3098
 1090W        W 5154   8.769  10.265  10.012 -0.0925 -0.0828  0.0703
 1091W        W 5155   9.445   3.059   1.011  0.1553 -0.1278 -0.1410
 1092W        W 5156  10.197   4.218   1.346 -0.2160 -0.1321  0.2297
 1093W        W 5157   5.408   2.580   1.737  0.0975  0.4345 -0.0118
 1094W        W 5158   6.132   1.375   1.741  0.1346  0.1590  0.4674
 1095W        W 5159   1.838   2.865   9.150  0.1040  0.0174  0.3062
 1096W        W 5160   0.592   8.594   1.657 -0.1866  0.1203  0.1066
 1097W        W 5161   3.110   7.754   0.223 -0.0486 -0.0843  0.3741
 1098W        W 5162   8.631   5.742   9.185  0.2428 -0.2833 -0.1466
 1099W        W 5163   1.249   4.491   0.106  0.2388 -0.1284  0.1231
 1100W        W 5164   2.657   4.207   7.974 -0.3004 -0.0279  0.1404
 1101W        W 5165   7.553   6.952   8.668  0.1464  0.1554  0.1874
 1102W        W 5166   0.731   8.349  10.773  0.1747 -0.0997  0.2296
 1103W        W 5167  10.764   9.403   8.579 -0.0858 -0.1421 -0.0737
 1104W        W 5168   9.694   0.122   2.955 -0.2246 -0.0902 -0.3881
 1105W        W 5169   3.725   9.323   9.783  0.0750 -0.0289 -0.0314
 1106W        W 5170   8.602   9.732   8.758 -0.0454  0.0618 -0.1427
 1107W        W 5171   9.997   8.016   8.168  0.1887 -0.1526 -0.0878
 1108W        W 5172   6.846   7.495   2.952  0.0078 -0.1897 -0.5030
 1109W        W 5173   8.961   7.018   2.181 -0.1370  0.1464  0.2207
 1110W        W 5174   4.189   7.112   9.985  0.1658 -0.2226  0.0195
 1111W        W 5175   0.163   9.587   9.362  0.2663 -0.3265 -0.1903
 1112W        W 5176   4.966   5.371   0.249  0.0472  0.1487  0.2385
 1113W        W 5177   7.655   9.393   2.351 -0.1165  0.0060  0.0323
 1114W        W 5178   4.259   8.241   2.524 -0.0906 -0.1188 -0.0013
 1115W        W 5179   1.768   0.927   0.459 -0.1383  0.0665 -0.0637
 1116W        W 5180   0.508   2.232  10.949 -0.1328 -0.0360  0.2133
 1117W        W 5181   2.229   1.527   9.173  0.4653  0.0282 -0.0252
 1118W        W 5182   4.513   8.359   0.316 -0.0764 -0.1421 -0.2762
 1119W        W 5183  10.174   2.518   1.924  0.0977 -0.0535 -0.1471
 1120W        W 5184   3.191   8.518   9.732  0.1751  0.2655 -0.0335
 1121W        W 5185   5.594   8.530   1.912 -0.0169 -0.3634  0.0188
 1122W        W 5186   1.917   3.115   2.564 -0.0179  0.0686 -0.0500
 1123W        W 5187   0.604   9.548   1.045  0.0290 -0.1193 -0.1313
 1124W        W 5188   5.598   0.835   2.739 -0.0349  0.1090 -0.0015
 1125W        W 5189   4.923   7.509  10.610  0.1495  0.2393  0.0621
 1126W        W 5190   3.850   2.897   1.983 -0.0164 -0.0355  0.2745
 1127W        W 5191   2.309   8.648   1.216 -0.3151 -0.1932 -0.0923
 1128W        W 5192   4.120   1.955   2.906 -0.3509  0.2516  0.1504
 1129W        W 5193   9.074   2.766   3.277 -0.0376  0.5344 -0.2916
 1130W        W 5194   2.812   5.555   7.879  0.1376 -0.0038  0.1897
 1131W        W 5195   7.485   9.662   0.924  0.0627  0.1925  0.2054
 1132W        W 5196   4.383   4.166   8.274  0.2177 -0.0230 -0.1279
 1133W        W 5197   0.578   6.153   9.587 -0.0510 -0.1034 -0.1527
 1134W        W 5198   3.746   0.467   8.432  0.1435 -0.0973  0.1342
 1135W        W 5199   5.725   9.800   9.991 -0.2878 -0.1340  0.1591
 1136W        W 5200   8.188  10.034   9.266 -0.0447  0.1025  0.2530
 1137W        W 5201   0.587   8.088   8.374 -0.1307  0.1483 -0.3655
 1138W        W 5202   1.170   5.759  10.347  0.0605 -0.1426  0.1721
 1139W        W 5203  10.027   5.169  10.697  0.2951  0.2431  0.0208
 1140W        W 5204   3.136   3.535   9.297  0.3135 -0.1383 -0.1531
 1141W        W 5205   4.196   6.869   2.647  0.0894 -0.2763 -0.1281
 1142W        W 5206   6.273   1.868   3.375  0.0033  0.0104  0.2064
 1143W        W 5207   9.947   6.346  10.322 -0.0689 -0.1281 -0.3132
 1144W        W 5208   3.873   6.149   8.877 -0.0914 -0.2749 -0.2009
 1145W        W 5209   4.867  10.179   3.529  0.2931  0.0928  0.1513
 1146W        W 5210   6.504   5.016  10.594  0.1748 -0.0664  0.0158
 1147W        W 5211  10.846   6.757   0.001 -0.0642  0.0853 -0.0740
 1148W        W 5212   4.938   8.050   3.034 -0.1095 -0.0285  0.1521
 1149W        W 5213  10.440   3.538   2.187 -0.0056  0.1192  0.0827
 1150W        W 5214   6.992   1.238   2.254 -0.1017  0.0303  0.1608
 1151W        W 5215  10.171   9.373   1.096 -0.3148  0.3490 -0.1666
 1152W        W 5216   6.506   7.550  10.755 -0.2749 -0.1389  0.0901
 1153W        W 5217   1.061   7.968   8.280 -0.0515  0.1123 -0.2487
 1154W        W 5218   0.922  10.072  10.204 -0.1181 -0.1419  0.4557
 1155W        W 5219   5.330   2.530   1.193  0.1536 -0.0595 -0.0557
 1156W        W 5220   9.538   1.895   9.909  0.0252  0.0179  0.2927
 1157W        W 5221   1.435   3.767   8.102  0.3224 -0.1047 -0.1877
 1158W        W 5222   7.395  10.836   2.592  0.1899 -0.1032  0.1219
 1159W        W 5223   2.939   5.803   1.360 -0.0355  0.1461 -0.3023
 1160W        W 5224   5.942   3.914   1.091  0.0986  0.0753 -0.1489
 1161W        W 5225  10.372  10.193   1.613 -0.0217 -0.0075 -0.1997
 1162W        W 5226  10.303   7.133   2.517 -0.2312  0.4538 -0.0197
 1163W        W 5227   4.677   8.263   1.052  0.1372 -0.2018  0.0176
 1164W        W 5228   8.455   6.318   0.887  0.1033  0.0751 -0.0790
 1165W        W 5229   0.264   8.228   8.684 -0.0869 -0.2871  0.1349
 1166W        W 5230   5.254   0.466   3.004  0.1549  0.1657 -0.0615
 1167W        W 5231   7.504   9.697   1.948  0.0465  0.3083  0.1019
 1168W        W 5232   8.788   2.888   2.341  0.0772 -0.2030  0.1678
 1169W        W 5233   2.861   2.984   1.609 -0.1271 -0.5001  0.0181
 1170W        W 5234   7.250   2.929   1.684  0.0092 -0.1355  0.0311
 1171W        W 5235   2.403   4.685   0.489 -0.0350 -0.2506 -0.2041
 1172W        W 5236   2.922  10.581   9.992 -0.1319 -0.1183 -0.1265
 1173W        W 5237   1.324  10.475   0.510  0.0746 -0.1241 -0.2072
 1174W        W 5238   7.437  10.273   0.304 -0.0186  0.0791  0.1983
 1175W        W 5239   2.063   4.264  10.158 -0.2541  0.1501 -0.2700
 1176W        W 5240  10.664   0.722   2.828 -0.0007  0.1211  0.0874
 1177W        W 5241   7.798   8.347   7.355 -0.1432  0.2261  0.0170
 1178W        W 5242   0.745   9.230   8.749  0.4403 -0.2494  0.2239
 1179W        W 5243   3.213  10.745   9.609  0.4836  0.0195 -0.1040
 1180W        W 5244   9.333   6.517   8.875 -0.1883  0.1172 -0.1429
 1181W        W 5245   8.637   4.275   2.197 -0.2894 -0.0740  0.0405
 1182W        W 5246   6.544   6.699   0.573  0.1934  0.0826  0.0554
 1183W        W 5247   9.622   1.773  10.576  0.0499 -0.1543 -0.3480
 1184W        W 5248   6.362   6.613   8.312 -0.0814  0.0076  0.0509
 1185W        W 5249   3.996   2.153   1.621 -0.1080 -0.0035 -0.1207
 1186W        W 5250   7.984   5.939   9.835 -0.0955 -0.0357 -0.0922
 1187W        W 5251   2.224   2.782   0.108 -0.1114 -0.0941 -0.1861
 1188W        W 5252   6.290   4.559  10.197 -0.1193  0.1159 -0.3698
 1189W        W 5253   2.286   3.179   9.768  0.2018  0.6060  0.3261
 1190W        W 5254   8.771  10.172   2.817 -0.0405 -0.0961 -0.0222
 1191W        W 5255   9.846   6.067   0.772 -0.1076 -0.0520  0.0606
 1192W        W 5256   4.320   3.082   1.331  0.3234  0.3286  0.2190
 1193W        W 5257   7.087   2.167   2.008 -0.1478  0.0797  0.1800
 1194W        W 5258   2.354   9.457   1.522  0.0128 -0.1245  0.2089
 1195W        W 5259   7.886   8.728   3.296  0.0079  0.4193  0.1458
 1196W        W 5260   3.874  10.386   2.231 -0.3785  0.1881 -0.2954
 1197W        W 5261   8.855   8.723  10.473  0.0668  0.4595 -0.1594
 1198W        W 5262   2.397   5.835   7.916  0.2671 -0.2317 -0.0437
 1199W        W 5263   6.595   1.923   2.098  0.0717 -0.0556 -0.0089
 1200W        W 5264   9.764   8.054   1.749 -0.2317 -0.2774 -0.1208
 1201W        W 5265   9.543   6.459   3.929  0.1034  0.2510 -0.0361
 1202W        W 5266   6.520   4.527   7.789 -0.0290  0.0651  0.2389
 1203W        W 5267   6.741   4.581   0.516 -0.0071  0.0184 -0.1870
 1204W        W 5268   7.189   1.834   0.767  0.0155 -0.2025  0.1293
 1205W        W 5269   8.830   2.282   1.372  0.0117  0.0522 -0.0684
 1206W        W 5270   2.354   7.149  10.854 -0.1201 -0.0752 -0.0176
 1207W        W 5271   7.208   0.300  10.975 -0.0911 -0.2880  0.1368
 1208W        W 5272   3.200   7.254  10.907  0.1853  0.1838  0.0995
 1209W        W 5273  10.423   1.513   4.128  0.0179 -0.0685 -0.1627
 1210W        W 5274   9.334   3.069   2.452 -0.0353  0.1549 -0.2214
 1211W        W 5275   6.484   4.263   9.185  0.2084 -0.1898 -0.3517
 1212W        W 5276   0.533   7.639   1.960  0.1113  0.1585 -0.0207
 1213W        W 5277   5.830   6.640   9.378 -0.2893  0.1627  0.0989
 1214W        W 5278  10.574   5.101   9.260 -0.1904  0.0616  0.1971
 1215W        W 5279   7.503   7.374  10.193 -0.2787 -0.3362 -0.0989
 1216W        W 5280   9.565   8.011   7.985  0.3192 -0.0655  0.1789
 1217W        W 5281   8.873   3.508  10.428 -0.3252 -0.1513  0.1907
 1218W        W 5282   0.977   2.083   0.117  0.1387 -0.3521 -0.1231
 1219W        W 5283   9.976   7.946   0.190 -0.1933 -0.4163  0.0867
 1220W        W 5284   0.264   4.270   2.272 -0.1794 -0.1077  0.0999
 1221W        W 5285   5.815  10.576   9.302 -0.1321  0.0669  0.6120
 1222W        W 5286   2.402   2.566   3.133 -0.2107 -0.1069  0.1877
 1223W        W 5287   8.693   7.435  10.254 -0.0541 -0.0149 -0.3807
 1224W        W 5288   2.960   7.051   9.758  0.1517 -0.1673  0.0362
 1225W        W 5289   0.904   2.285   1.013 -0.1991  0.0920 -0.0705
 1226W        W 5290   1.718   5.554   9.600 -0.2090  0.0014  0.1005
 1227W        W 5291   1.681   6.957   8.425 -0.2797 -0.0228  0.1668
 1228W        W 5292   3.051   1.796   8.223 -0.0666 -0.0990  0.0157
 1229W        W 5293   1.873   0.480   2.613 -0.0806 -0.0286 -0.0612
 1230W        W 5294   3.084   5.959   7.941  0.1023 -0.1235  0.0059
 1231W        W 5295   7.175   8.428   7.603 -0.0319  0.0785 -0.0146
 1232W        W 5296   9.235  10.233   1.823  0.0440 -0.0512 -0.0246
 1233W        W 5297   2.460   5.038   9.638  0.3815  0.4217  0.3242
 1234W        W 5298  10.834   2.047   2.072  0.0334  0.1836 -0.0953
 1235W        W 5299   3.650   8.049  10.235 -0.2432  0.1081 -0.0078
 1236W        W 5300   0.931   1.023  10.292  0.0751  0.3104 -0.1428
 1237W        W 5301   8.821   1.734   9.095  0.1919  0.0003 -0.1357
 1238W        W 5302   3.999   2.566   7.559 -0.1013  0.1484 -0.0770
 1239W        W 5303   3.826   1.469  10.653  0.3379  0.2725  0.0667
 1240W        W 5304   1.054   9.284   0.260  0.0138  0.1478  0.0627
 1241W        W 5305   1.275   0.563   3.798 -0.3733  0.0383 -0.0443
 1242W        W 5306   6.682   6.834   7.444 -0.0103 -0.2872 -0.2575
 1243W        W 5307   6.755   7.516   8.263  0.0973 -0.2389  0.2065
 1244W        W 5308   2.663   6.987   1.664  0.0306 -0.2304 -0.0510
 1245W        W 5309   2.730   3.583   1.628 -0.0455 -0.0769 -0.2174
 1246W        W 5310   3.564   4.400   0.440  0.0513  0.0746  0.1679
 1247W        W 5311   0.316   5.398   9.971 -0.0807  0.2568  0.0475
 1248W        W 5312   6.665   9.801   8.839 -0.0030  0.3248 -0.1301
 1249W        W 5313   7.106   6.119   8.296  0.1307  0.3578  0.0317
 1250W        W 5314   2.522   4.551   9.966  0.2283  0.2967 -0.1851
 1251W        W 5315   3.559   6.434   1.530  0.0742 -0.1806  0.0761
 1252W        W 5316   7.055   1.238  10.203  0.1235  0.0680 -0.2912
 1253W        W 5317   2.450   3.741   0.086 -0.2653 -0.2808  0.1697
 1254W        W 5318   4.358   5.040   2.347 -0.2322  0.1145 -0.0936
 1255W        W 5319   0.584   2.832   1.848  0.1730 -0.0770  0.0822
 1256W        W 5320   3.188   8.008   1.707 -0.1577 -0.3371 -0.1509
 1257W        W 5321   4.283   3.900  10.267 -0.2147  0.0159 -0.1057
 1258W        W 5322  10.680   9.721   2.107  0.0165 -0.1640 -0.2458
 1259W        W 5323   2.646   0.800   7.222  0.3342  0.2596  0.0466
 1260W        W 5324   7.070   3.668   2.122 -0.1262  0.0361 -0.2361
 1261W        W 5325   6.588   1.229  10.488 -0.0220  0.1386 -0.1813
 1262W        W 5326   8.795  10.673   3.054 -0.0215 -0.2879 -0.1499
 1263W        W 5327   9.207   9.385   3.210  0.0957 -0.1409  0.1072
 1264W        W 5328  10.459   0.569   8.882 -0.1414  0.1725  0.1759
 1265W        W 5329   8.422   7.392   9.801 -0.2734  0.0591  0.1473
 1266W        W 5330   6.305   9.562  10.147  0.3748  0.2328 -0.1345
 1267W        W 5331   9.919   9.909   2.379 -0.0030  0.1497 -0.1217
 1268W        W 5332   5.499   6.252   9.172  0.0213 -0.2742 -0.1827
 1269W        W 5333   2.151   1.310  10.535  0.0821  0.2992 -0.0549
 1270W        W 5334   9.509   1.298   4.273  0.1126  0.4543  0.0095
 1271W        W 5335   5.366   7.023   7.790 -0.1587 -0.3869  0.1738
 1272W        W 5336   8.628   8.929   2.526 -0.1955  0.0692  0.0939
 1273W        W 5337   7.370   3.367   8.292  0.1886 -0.1833 -0.1424
 1274W        W 5338  10.647   4.989   1.353  0.0628 -0.1214 -0.1157
 1275W        W 5339   1.618   1.125   2.416 -0.0578  0.3188 -0.3350
 1276W        W 5340   8.887   7.475   2.501  0.1825  0.1273  0.3723
 1277W        W 5341   7.668   7.321   9.020  0.2978  0.2792 -0.1724
 1278W        W 5342   9.948   0.578   9.792 -0.1256 -0.0189  0.2735
 1279W        W 5343   2.189   0.001   8.649 -0.0686  0.1825  0.0261
 1280W        W 5344   5.759   1.683   8.510  0.3988  0.1152  0.2261
 1281W        W 5345   1.455   7.918   3.164 -0.0215 -0.2051  0.1248
 1282W        W 5346   7.708   4.926   3.733 -0.1162  0.1040 -0.1988
 1283W        W 5347   5.478   3.650   0.918  0.1351 -0.2659 -0.1590
 1284W        W 5348   0.851   2.276   2.279 -0.1023 -0.3165  0.5099
 1285W        W 5349   8.790   3.848   9.354 -0.1858  0.0795  0.2236
 1286W        W 5350   3.968   0.758   0.295  0.0764 -0.0338  0.1351
 1287W        W 5351   0.998   6.053   9.152 -0.0571 -0.0315 -0.1435
 1288W        W 5352   5.451   4.586  10.877 -0.1198  0.1035 -0.1870
 1289W        W 5353  10.662   1.063   9.300 -0.0871  0.2380  0.0641
 1290W        W 5354   9.929   2.440   7.316 -0.2060 -0.0668 -0.0857
 1291W        W 5355   9.928   1.379   0.963 -0.1544 -0.1711 -0.2800
 1292W        W 5356   2.158   4.476   8.566  0.0628 -0.0399  0.2978
 1293W        W 5357   7.524   1.852   3.380  0.0849  0.0557  0.0908
 1294W        W 5358   5.853   1.746   7.307 -0.0316 -0.3685 -0.0490
 1295W        W 5359   2.543   0.215   9.175  0.0976 -0.1966  0.2607
 1296W        W 5360   9.887   2.584   9.638  0.1905 -0.1188 -0.1577
 1297W        W 5361   7.284   5.391   1.965  0.2317  0.1984 -0.3156
 1298W        W 5362   8.611   2.288   8.333 -0.1144  0.0224 -0.4224
 1299W        W 5363   4.465   2.843   7.742  0.1026 -0.4266 -0.1420
 1300W        W 5364   9.917   6.560  10.822  0.0858  0.1427  0.1440
 1301W        W 5365   3.135   0.105   0.593 -0.2235  0.0569 -0.0951
 1302W        W 5366   4.997   6.193   9.026  0.1078  0.1102 -0.1430
 1303W        W 5367   3.738  10.324   9.503  0.1841 -0.0528  0.0311
 1304W        W 5368   0.454   4.464   8.685 -0.2016 -0.3946  0.1904
 1305W        W 5369   8.356   5.510  10.043 -0.3757  0.0536  0.2806
 1306W        W 5370   1.917   3.406   2.112 -0.1857 -0.1988 -0.0533
 1307W        W 5371   9.809   0.413   9.042  0.0826  0.1557 -0.2862
 1308W        W 5372   4.574   8.831   9.674  0.0025 -0.0214 -0.3049
 1309W        W 5373   9.251   2.833  10.648  0.2554 -0.1443  0.2597
 1310W        W 5374   3.992   0.447   9.721 -0.0589  0.2113  0.1105
 1311W        W 5375   0.661   0.498   2.082  0.1606 -0.0031 -0.2577
 1312W        W 5376   7.129   8.450   1.703  0.0317  0.0321 -0.1163
 1313W        W 5377   3.274   7.183   8.352 -0.0263  0.0154 -0.1798
 1314W        W 5378  10.817  10.210   1.258  0.0303 -0.2744  0.0549
 1315W        W 5379   1.819   9.321   2.116  0.1404  0.2022 -0.1897
 1316W        W 5380   6.615   3.656  10.488  0.0052  0.1693  0.2604
 1317W        W 5381   0.105   7.538   8.897 -0.2589 -0.3003  0.0139
 1318W        W 5382   7.658   9.430   9.784  0.0182  0.0429  0.0971
 1319W        W 5383   8.593   3.062   3.197  0.2230  0.0059 -0.2457
 1320W        W 5384   8.899   6.069   2.896 -0.1783 -0.2725 -0.2920
 1321W        W 5385   5.186   0.697   7.954 -0.3159 -0.1904 -0.0820
 1322W        W 5386  10.335   7.272   8.824  0.0078  0.3514  0.0665
 1323W        W 5387   5.315   9.303   3.058  0.1252 -0.0636 -0.1233
 1324W        W 5388   5.078   5.373   8.233  0.2035  0.2734  0.1559
 1325W        W 5389  10.645   8.437  10.486 -0.2871  0.0153 -0.0466
 1326W        W 5390   9.389   9.773   2.144  0.2488 -0.0091  0.1108
 1327W        W 5391  10.375   2.354  10.853  0.2246 -0.0832 -0.1075
 1328W        W 5392   5.173   2.956   1.529 -0.3255  0.1656 -0.0456
 1329W        W 5393  10.386   2.598   7.752 -0.1484 -0.0289 -0.1828
 1330W        W 5394   8.966  10.483   1.337  0.1687 -0.1766 -0.1944
 1331W        W 5395  10.390   4.899   1.970 -0.0219 -0.1683  0.0559
 1332W        W 5396   4.994   9.231   9.435 -0.2970  0.0990 -0.0990
 1333W        W 5397   6.405   5.626   8.140 -0.1057  0.0003 -0.1630
 1334W        W 5398   1.675   1.155   3.190  0.1933  0.1456 -0.0336
 1335W        W 5399   6.705   2.725   0.754  0.2362 -0.1074 -0.2725
 1336W        W 5400   5.667   4.112  10.634 -0.2818  0.1340  0.0788
 1337W        W 5401  10.312   0.880  10.923 -0.1635 -0.1160 -0.2445
 1338W        W 5402   4.831   8.464  10.917  0.0064  0.5296  0.2580
 1339W        W 5403   7.497   4.729   0.960  0.0019 -0.4409 -0.0644
 1340W        W 5404   8.357   2.915   3.591 -0.1155  0.1481  0.0739
 1341W        W 5405   2.608   1.423  10.362 -0.1747  0.1346 -0.1850
 1342W        W 5406   9.374   3.278   8.410 -0.3644  0.1633  0.2138
 1343W        W 5407   4.727   7.593   2.872 -0.0636 -0.1105  0.2176
 1344W        W 5408   2.234   5.472   1.636 -0.0344  0.0132  0.0946
 1345W        W 5409   2.011   5.303   3.197 -0.1879 -0.0958 -0.0473
 1346W        W 5410   5.034   4.105   9.025  0.1905  0.0553  0.1501
 1347W        W 5411   5.710   4.712   2.551  0.0185  0.0162  0.0407
 1348W        W 5412   9.304   1.925   8.164  0.1375  0.4149  0.2107
 1349W        W 5413   6.158   4.744   9.752 -0.0160 -0.3575 -0.2131
 1350W        W 5414  10.701   2.802   8.051 -0.0218 -0.1519 -0.1019
 1351W        W 5415   1.870   2.987   9.605  0.2377 -0.0678  0.0165
 1352W        W 5416   2.312   0.490   3.383  0.0486  0.4390  0.0699
 1353W        W 5417   7.191   7.007   3.235 -0.0742  0.0392 -0.3065
 1354W        W 5418   1.869   0.299   1.571 -0.1081  0.0440 -0.1769
 1355W        W 5419   8.078   2.968   5.392  0.0964  0.2733 -0.2754
 1356W        W 5420   1.568   4.706   2.174 -0.2467 -0.0246  0.1775
 1357W        W 5421   9.230   3.011   0.229  0.1197 -0.3436 -0.1604
 1358W        W 5422   8.575   1.919   1.606  0.0617 -0.0553 -0.1464
 1359W        W 5423   9.640   0.238   0.407 -0.0520 -0.0393  0.1480
 1360W        W 5424   7.282   7.449   1.832 -0.2154  0.2174 -0.2071
 1361W        W 5425   5.915   4.066  10.163  0.3025 -0.1580 -0.0530
 1362W        W 5426   1.676   2.647   9.958  0.1332 -0.0375 -0.3892
 1363W        W 5427  10.046  10.219   0.436  0.1610  0.3034 -0.2122
 1364W        W 5428   2.135   9.003   3.305 -0.4323 -0.0376 -0.1429
 1365W        W 5429   9.278   6.329   1.194  0.2545 -0.1205  0.3952
 1366W        W 5430   6.369  10.702  10.537 -0.0903  0.2768  0.0613
 1367W        W 5431   8.558   4.322   1.684  0.0170 -0.1864  0.0569
 1368W        W 5432   1.774   5.357   3.943 -0.0971  0.4289  0.0155
 1369W        W 5433   9.108   8.325   0.617  0.1505  0.2224 -0.1108
 1370W        W 5434   3.508   6.964   1.499  0.0292  0.0666  0.0842
 1371W        W 5435   9.534   2.861  10.041  0.0070  0.1151 -0.0044
 1372W        W 5436   2.162   4.867   9.244  0.1258  0.2002  0.3579
 1373W        W 5437   0.683   5.863   0.148 -0.1298  0.2162 -0.2040
 1374W        W 5438   3.324   6.986   8.829 -0.0877  0.1705  0.2907
 1375W        W 5439   6.800   0.166   1.459  0.4322  0.1255 -0.1902
 1376W        W 5440   3.127   6.713  10.757 -0.0664 -0.1297 -0.2045
 1377W        W 5441   4.185   5.600   8.491 -0.1372 -0.1063  0.2059
 1378W        W 5442   4.448   8.121   2.068  0.1890  0.0291  0.3402
 1379W        W 5443   4.826   8.403   8.183 -0.1396  0.0479 -0.0012
 1380W        W 5444   2.423   5.006   1.670 -0.0734 -0.0454  0.2574
 1381W        W 5445   1.457   8.578   2.202  0.0333 -0.0938 -0.0347
 1382W        W 5446   3.721   2.347   2.018 -0.2934 -0.0045 -0.3009
 1383W        W 5447   9.362   3.646   2.034 -0.3613  0.1507  0.1767
 1384W        W 5448   4.951   6.174   2.616  0.0464 -0.4170  0.0606
 1385W        W 5449   3.524   3.341   9.042 -0.0472 -0.0600  0.0655
 1386W        W 5450   7.742   9.018   2.689 -0.0345  0.2994  0.2800
 1387W        W 5451   4.147   0.916   3.187  0.0471  0.0029 -0.0966
 1388W        W 5452   1.315   1.302  10.220 -0.0036  0.0591 -0.0808
 1389W        W 5453   6.357  10.168   2.022 -0.1825 -0.0512 -0.0943
 1390W        W 5454   4.522  10.313   2.449  0.0481  0.0317 -0.1898
 1391W        W 5455   3.889   1.576   2.703 -0.0793 -0.1428 -0.0187
 1392W        W 5456   2.195   4.271   1.196 -0.2357  0.2853 -0.2457
 1393W        W 5457   0.292   9.058  10.222 -0.0640  0.2445  0.2770
 1394W        W 5458   6.318   0.300  10.680 -0.1266  0.1090  0.3429
 1395W        W 5459   8.251   4.787  10.803  0.0259  0.2062 -0.6244
 1396W        W 5460   9.401   2.316   7.828 -0.0077 -0.0350  0.0914
 1397W        W 5461  10.171   3.180   3.070  0.0774  0.0784 -0.1566
 1398W        W 5462   1.967   0.159   7.564 -0.0212 -0.0663 -0.1089
 1399W        W 5463  10.455   7.976   1.198  0.1788 -0.0475  0.0244
 1400W        W 5464   7.422   3.657   7.717 -0.2201 -0.0175  0.0964
 1401W        W 5465   5.363   6.756   1.807 -0.0976  0.3628  0.0121
 1402W        W 5466   2.085   0.335   2.084  0.0420  0.1675  0.2103
 1403W        W 5467   3.612   2.693   3.336  0.0013 -0.1658 -0.2091
 1404W        W 5468   3.155   8.235  10.175 -0.0617 -0.2329 -0.2520
 1405W        W 5469   0.892   9.756   0.058  0.2393  0.0519 -0.0961
 1406W        W 5470   1.898   2.217   9.624  0.1187  0.1851 -0.1579
 1407W        W 5471   9.827   8.146   3.084  0.0990 -0.0772 -0.0381
 1408W        W 5472   6.704   6.865   1.876  0.0266  0.2880 -0.0608
 1409W        W 5473   9.205   9.692   0.919  0.0164  0.1468 -0.1667
 1410W        W 5474   3.226   4.938   2.595  0.0354  0.3574  0.1203
 1411W        W 5475   7.465   0.283   9.311 -0.0193  0.0156 -0.1474
 1412W        W 5476   6.915   9.702   8.332 -0.1404 -0.0457 -0.4912
 1413W        W 5477   2.591   4.567   9.474  0.2880 -0.1792 -0.0390
 1414W        W 5478   1.911   8.314   2.438 -0.0162  0.2138  0.0858
 1415W        W 5479   7.500   6.908   2.851  0.2522 -0.0572  0.0924
 1416W        W 5480   5.772   8.377   1.004 -0.3093  0.2101 -0.2232
 1417W        W 5481   6.370   8.444   9.421  0.1270  0.1423 -0.1734
 1418W        W 5482   6.527   3.464   3.306  0.0763 -0.0142  0.0405
 1419W        W 5483   4.732   4.615   7.840 -0.0439 -0.1469 -0.1847
 1420W        W 5484   5.285   6.823   6.909  0.0847  0.0046 -0.0633
 1421W        W 5485   0.099   7.240   8.457  0.1768 -0.1029 -0.1820
 1422W        W 5486   1.689   4.821   3.849  0.1991 -0.1735 -0.0260
 1423W        W 5487   1.587   6.085   7.322  0.4048  0.2611  0.0477
 1424W        W 5488   1.045   5.186   7.248 -0.2633 -0.3404  0.2402
 1425W        W 5489   9.564   5.383   0.108 -0.3310  0.1924 -0.1705
 1426W        W 5490  10.149   3.386   1.813 -0.0120  0.0864  0.0750
 1427W        W 5491   5.201   4.257   1.452  0.1284 -0.1316 -0.0414
 1428W        W 5492   0.256   7.555   0.186  0.0140 -0.0224 -0.1737
 1429W        W 5493   9.538   0.743   1.618  0.0200 -0.3031 -0.2134
 1430W        W 5494   2.433   6.968   2.550 -0.0370  0.0950  0.3411
 1431W        W 5495   3.486   7.036   0.314  0.0336 -0.1599 -0.2064
 1432W        W 5496   8.722   8.686   0.875 -0.1398  0.4292 -0.0333
 1433W        W 5497   1.341   1.659   1.248  0.0727  0.2824 -0.0665
 1434W        W 5498   0.545   8.533   2.240  0.0579 -0.0127  0.2157
 1435W        W 5499   3.559   5.620   8.840 -0.1611  0.4309  0.2114
 1436W        W 5500   9.787   8.339   0.474  0.0572 -0.2325 -0.0686
 1437W        W 5501   1.127   2.487   9.130 -0.1596  0.1209  0.0107
 1438W        W 5502   9.373   6.806  10.969  0.2241  0.2036 -0.2697
 1439W        W 5503   2.528   7.501   1.244 -0.2486 -0.2684  0.0254
 1440W        W 5504   3.950   4.705   9.931  0.1730  0.1767 -0.0509
 1441W        W 5505   3.514   5.236   7.300  0.1391  0.1613  0.0864
 1442W        W 5506   8.670   4.793  10.088  0.1459 -0.1469 -0.1596
 1443W        W 5507   0.512   5.262   7.618 -0.0254  0.1438  0.1383
 1444W        W 5508   0.684   2.882  10.870  0.2901 -0.0755  0.1190
 1445W        W 5509   5.741  10.063  10.536  0.1921  0.1372 -0.1005
 1446W        W 5510   6.044   6.407   7.948  0.3053  0.0331  0.0273
 1447W        W 5511   5.658   2.004   8.140 -0.1848 -0.2213  0.2529
 1448W        W 5512   8.681   5.047   3.102 -0.1184 -0.2870 -0.0475
 1449W        W 5513   3.543   8.315   1.116 -0.0861  0.0929 -0.0410
 1450W        W 5514   4.818   3.108   2.328 -0.0296 -0.0145 -0.1148
 1451W        W 5515   0.125   2.035   8.114  0.2006 -0.4389 -0.0805
 1452W        W 5516   5.696   9.362   7.852 -0.2415 -0.2648 -0.0323
 1453W        W 5517   3.378   1.975  10.223 -0.1766 -0.0293 -0.0553
 1454W        W 5518   7.143   4.165   2.234  0.0045  0.2966 -0.1580
 1455W        W 5519   2.942  10.125   2.415  0.0177  0.0475 -0.0674
 1456W        W 5520   1.349   9.723   3.393 -0.0733 -0.2102  0.1134
 1457W        W 5521  10.432   7.558   2.143  0.0960 -0.0831 -0.0907
 1458W        W 5522   2.409   1.789   4.259 -0.0117  0.0186 -0.0579
 1459W        W 5523   6.554   5.564   1.558  0.0869 -0.0451 -0.0420
 1460W        W 5524   7.766   1.395   7.685 -0.0041 -0.0444 -0.0204
 1461W        W 5525   4.554   9.807   0.816 -0.0466 -0.3587  0.1485
 1462W        W 5526   1.816   6.557   0.452 -0.2578 -0.2251 -0.0756
 1463W        W 5527   9.904   8.942   9.104  0.1451  0.1781 -0.0885
 1464W        W 5528   2.650   3.691   3.350  0.1191 -0.1840 -0.2261
 1465W        W 5529   7.799   4.536   7.407 -0.1600 -0.0199 -0.1030
 1466W        W 5530   4.080   5.413   7.946 -0.0708  0.0642 -0.2515
 1467W        W 5531   5.023   5.264  10.605 -0.0262 -0.0558 -0.0265
 1468W        W 5532   2.755   7.891   2.361  0.0955 -0.0517 -0.3420
 1469W        W 5533   2.009   6.549   8.455  0.0818  0.1921 -0.0219
 1470W        W 5534   9.395   5.622   8.841 -0.0069 -0.1292 -0.2844
 1471W        W 5535   9.497  10.042   0.039  0.4524  0.3365  0.3393
 1472W        W 5536   0.264   2.381   9.610  0.0304  0.0339  0.1216
 1473W        W 5537   0.475   3.149   8.789  0.3140 -0.1544  0.3613
 1474W        W 5538   5.209   7.855   0.218 -0.0062  0.3043  0.1761
 1475W        W 5539   7.718  10.692   3.335 -0.1712 -0.1129 -0.0618
 1476W        W 5540   0.904   9.905   1.201 -0.1703 -0.0758 -0.1341
 1477W        W 5541   4.228   4.560   8.642  0.0567 -0.0947  0.1130
 1478W        W 5542   5.762   3.204   7.700 -0.4254 -0.0805 -0.1195
 1479W        W 5543   0.962   5.434   7.692 -0.0007 -0.0029  0.1456
 1480W        W 5544   9.883   4.692   8.766 -0.0419 -0.0037  0.1898
 1481W        W 5545   8.491   5.822   2.744  0.0174  0.0195 -0.0577
 1482W        W 5546  10.263   7.122   9.544  0.2184 -0.0364 -0.1486
 1483W        W 5547   4.743   4.150   0.528  0.3130 -0.1295  0.0558
 1484W        W 5548   5.697   6.585   0.004 -0.3165 -0.1799 -0.3028
 1485W        W 5549   0.103   3.768   1.872 -0.0286  0.4824  0.3684
 1486W        W 5550   9.153   3.244   7.819  0.0827 -0.0773 -0.2877
 1487W        W 5551   1.139   6.043   7.544  0.0790 -0.2116  0.0322
 1488W        W 5552  10.574   4.162  10.230 -0.0823  0.1813 -0.1272
 1489W        W 5553   7.244   8.266   2.753 -0.0508 -0.3691 -0.3219
 1490W        W 5554   9.680   0.469  10.180 -0.1871  0.0410 -0.3987
 1491W        W 5555   8.546   3.440  10.848 -0.1805 -0.2686 -0.1438
 1492W        W 5556   0.085   2.630   2.524  0.1356 -0.0086  0.0021
 1493W        W 5557   4.066   1.340   9.201 -0.1890 -0.2498  0.1884
 1494W        W 5558   7.739  10.127   1.294  0.0019 -0.1067  0.2869
 1495W        W 5559   6.473   0.301   9.868 -0.3516 -0.2270 -0.1146
 1496W        W 5560   2.308   2.998   8.148 -0.1228 -0.1761  0.1217
 1497W        W 5561   6.089   5.270   2.418  0.1880  0.1885 -0.0549
 1498W        W 5562  10.344   8.273   9.806  0.1313 -0.1626 -0.1217
 1499W        W 5563   6.421   7.294   1.679  0.2531 -0.0831  0.1156
 1500W        W 5564   0.763   6.293  10.880  0.0503  0.4733  0.0005
 1501W        W 5565   2.652   8.774  10.110  0.3537  0.0229  0.1071
 1502W        W 5566   7.225   6.831   9.776 -0.1482  0.1745  0.6629
 1503W        W 5567   6.003   3.716  10.808  0.3703 -0.0628 -0.2083
 1504W        W 5568  10.309   9.273  10.608  0.1342 -0.1249 -0.2430
 1505W        W 5569   2.006   3.763   9.240  0.0303  0.1357  0.4375
 1506W        W 5570  10.292   0.087  10.869 -0.1125  0.2234 -0.0234
 1507W        W 5571   8.415   4.050   7.897  0.2384  0.1353  0.1106
 1508W        W 5572   3.845   8.495  10.929 -0.1209 -0.0327 -0.3262
 1509W        W 5573   5.904   2.997  10.720 -0.0911 -0.2450 -0.1193
 1510W        W 5574   4.505   0.274   0.820  0.0814 -0.2998  0.1565
 1511W        W 5575   9.326   4.226   7.561 -0.1543 -0.2547  0.0463
 1512W        W 5576  10.083   1.823   0.228  0.0417 -0.0410  0.3134
 1513W        W 5577  10.630   2.610   2.868  0.4435 -0.1384 -0.2031
 1514W        W 5578   3.936   4.377   8.283  0.0666 -0.0956  0.4297
 1515W        W 5579   1.784   3.148  10.040  0.0312  0.0109 -0.0718
 1516W        W 5580   7.901   8.844   6.922  0.3740  0.1760  0.2136
 1517W        W 5581   9.884   2.383   3.275 -0.4157  0.2458  0.1011
 1518W        W 5582   6.867   5.793   8.963 -0.0750  0.2114 -0.1107
 1519W        W 5583   6.517   7.814   9.275  0.4342 -0.4842 -0.0049
 1520W        W 5584   2.901   7.736   0.668 -0.0739  0.2049 -0.0514
 1521W        W 5585  10.167   5.902  10.576  0.2064  0.1833 -0.1078
 1522W        W 5586   3.243   7.331   3.676 -0.0606  0.0550 -0.0273
 1523W        W 5587   9.201   7.955   1.860 -0.1813 -0.0742 -0.1701
 1524W        W 5588   7.072   6.972   0.544  0.2049  0.0269  0.3010
 1525W        W 5589   1.434  10.078   3.001 -0.1117 -0.2435 -0.0879
 1526W        W 5590   3.518   1.013  10.458 -0.2103  0.2165 -0.1291
 1527W        W 5591   7.524   6.829   3.848  0.0092  0.0610 -0.0804
 1528W        W 5592   0.626   0.345   0.667  0.0248  0.2546  0.1743
 1529W        W 5593   4.051   6.038   9.373  0.2189 -0.2035 -0.3196
 1530W        W 5594   9.215   1.206   9.787  0.0397 -0.0574 -0.1153
 1531W        W 5595   2.036   0.442  10.321  0.0557  0.1247  0.3449
 1532W        W 5596  10.094   6.603   9.585 -0.1144  0.1346  0.0568
 1533W        W 5597   4.727  10.315   3.980  0.0990  0.2115 -0.0550
 1534W        W 5598   7.934   6.811   2.671  0.0252  0.2061 -0.2204
 1535W        W 5599   2.721   8.550   0.516 -0.0492  0.0796  0.0737
 1536W        W 5600   8.846   7.042   3.172  0.0473 -0.0602 -0.2991
 1537W        W 5601  10.892   9.641  10.834  0.0346 -0.1142  0.0662
 1538W        W 5602   4.482   4.474   1.007  0.0431  0.1642 -0.4829
 1539W        W 5603   8.242   3.896   9.390  0.0122  0.0068 -0.0157
 1540W        W 5604   9.055   6.689   1.742 -0.0015  0.2321 -0.0613
 1541W        W 5605   7.956   1.377   2.106  0.1032  0.1090 -0.2291
 1542W        W 5606   3.162  10.170   0.917  0.1235 -0.1292 -0.0125
 1543W        W 5607   1.864   2.226   2.351 -0.4055  0.0166 -0.4825
 1544W        W 5608   4.619   1.855   0.599  0.0103  0.3772  0.0522
 1545W        W 5609   4.585   6.491   8.909 -0.4204  0.3195  0.0586
 1546W        W 5610   4.971  10.608   7.822  0.0343  0.1068  0.0011
 1547W        W 5611   1.101   4.919   0.631  0.0248 -0.0276  0.1223
 1548W        W 5612   6.352   9.340   8.905  0.0101 -0.0116  0.1935
 1549W        W 5613   7.132   2.477  10.951 -0.1780 -0.2864 -0.0236
 1550W        W 5614   1.945   2.306   0.749  0.0448  0.3319 -0.0629
 1551W        W 5615  10.810   5.511   1.747 -0.2938  0.3618 -0.0153
 1552W        W 5616   8.862   7.363   0.185  0.2559 -0.3074 -0.0990
 1553W        W 5617   4.510   4.876   1.323 -0.2740  0.3441 -0.1194
 1554W        W 5618   0.805   3.494   8.678 -0.1326 -0.1037 -0.0797
 1555W        W 5619   0.436  10.013   0.175 -0.0145  0.2270  0.0443
 1556W        W 5620   9.767   6.685  10.018 -0.1384  0.0685  0.3139
 1557W        W 5621   5.267   4.119   8.561 -0.4587 -0.1183 -0.0691
 1558W        W 5622   0.937  10.310   0.850 -0.0831  0.1110  0.1176
 1559W        W 5623   5.897   6.415   8.424  0.1602  0.1571 -0.0172
 1560W        W 5624   5.707   8.704   1.457  0.3109  0.2150  0.0918
 1561W        W 5625   2.816  10.323   3.542 -0.0031  0.2993  0.0829
 1562W        W 5626   0.214   2.948   8.346 -0.2160 -0.2612  0.1265
 1563W        W 5627   1.847   4.026   2.792  0.1464  0.1858 -0.0085
 1564W        W 5628   1.710   3.629   2.547  0.1354  0.0949  0.2726
 1565W        W 5629   7.164   1.587   8.691  0.0263  0.0603 -0.2526
 1566W        W 5630   4.119   9.324  10.044 -0.0262  0.2725  0.1424
 1567W        W 5631   6.848   0.923   1.079 -0.0671  0.0171 -0.3465
 1568W        W 5632   1.589   0.029   9.532 -0.1550 -0.1348 -0.1083
 1569W        W 5633  10.473   2.909   8.485  0.3333 -0.0765  0.2511
 1570W        W 5634   0.488   1.546   9.661 -0.1936 -0.0567 -0.0048
 1571W        W 5635   3.955   7.784   9.009  0.3455 -0.1710  0.0830
 1572W        W 5636   4.327   5.941  10.754  0.3247 -0.0790  0.2337
 1573W        W 5637   5.890   8.767  10.683 -0.1068  0.1043 -0.0067
 1574W        W 5638   9.306   3.986   3.734 -0.6952 -0.0031 -0.0441
 1575W        W 5639   8.229   4.056   0.615 -0.0346 -0.2124 -0.2496
 1576W        W 5640   1.058   3.528   1.474 -0.1153 -0.2698  0.0064
 1577W        W 5641  10.925   6.920   1.959 -0.0492 -0.1928  0.1458
 1578W        W 5642   0.713   5.633   9.293 -0.0853 -0.0629  0.0333
 1579W        W 5643   9.509   4.124   1.725 -0.1067 -0.2309 -0.0516
 1580W        W 5644   8.600  10.085  10.460 -0.1277 -0.0315  0.3806
 1581W        W 5645   3.678   3.085   7.023 -0.0541 -0.1908 -0.1116
 1582W        W 5646   1.893   7.923   0.993 -0.2842  0.0670  0.0457
 1583W        W 5647   4.175   1.836   8.748  0.2241 -0.0634  0.1623
 1584W        W 5648   9.317   7.266   9.340  0.1862 -0.0543 -0.0530
 1585W        W 5649   6.461   6.744  10.905  0.1022  0.1022 -0.2410
 1586W        W 5650   6.046   2.280   3.947 -0.2167 -0.2552 -0.1363
 1587W        W 5651  10.798   6.354   2.374  0.1431  0.0258 -0.1557
 1588W        W 5652   6.846   1.657   0.376  0.5812  0.1912  0.0588
 1589W        W 5653  10.441   8.050   9.364  0.2909 -0.5248 -0.5601
 1590W        W 5654   0.910  10.441   0.148  0.2298 -0.0559 -0.3304
 1591W        W 5655   7.775   6.455  10.629  0.1832  0.0678  0.0906
 1592W        W 5656   0.836   6.299   0.402  0.1080 -0.2750 -0.2877
 1593W        W 5657   6.063   8.643   2.850 -0.0892 -0.0981  0.1468
 1594W        W 5658   9.438   4.188   9.378 -0.1085 -0.2322 -0.1316
 1595W        W 5659   5.989   1.211   2.712 -0.3736 -0.0080  0.0932
 1596W        W 5660   1.265  10.569   8.832  0.0101 -0.0171  0.0543
 1597W        W 5661   4.289   4.758   0.321  0.0206  0.1158 -0.3073
 1598W        W 5662   2.126   4.977   0.047  0.1692 -0.1935 -0.1691
 1599W        W 5663   1.655   7.480   0.847 -0.0149  0.1373  0.1381
 1600W        W 5664   0.295   0.001   0.224  0.1159 -0.3107 -0.1153
 1601W        W 5665   0.716   2.790   8.332  0.5363 -0.1758  0.3287
 1602W        W 5666   5.489   0.235   3.397  0.1233  0.6727 -0.1112
 1603W        W 5667   2.334   5.213   2.716 -0.0497  0.0003 -0.1756
 1604W        W 5668   3.130   5.457  10.078 -0.1767  0.0104 -0.0912
 1605W        W 5669   5.207   5.712   2.328  0.0020  0.1618  0.0496
 1606W        W 5670   0.581   9.072   0.373  0.1676 -0.2797  0.1879
 1607W        W 5671   7.832   3.953   1.596 -0.1351  0.0957 -0.0607
 1608W        W 5672  10.108   5.103   0.630 -0.0271 -0.0982 -0.0124
 1609W        W 5673   9.486   6.496   2.969  0.2100 -0.1088 -0.1263
 1610W        W 5674  10.069   1.754   3.812 -0.0907  0.0193  0.0573
 1611W        W 5675   7.763   0.618   2.260 -0.2478 -0.1091  0.0186
 1612W        W 5676   8.517   1.192   9.436  0.1114  0.1559 -0.0371
 1613W        W 5677   9.349   3.513   8.856 -0.1816  0.1830  0.1746
 1614W        W 5678   2.415   9.349   9.838 -0.1426 -0.2808 -0.1712
 1615W        W 5679   0.427   5.677   8.770 -0.0728 -0.0059 -0.0309
 1616W        W 5680   3.653   3.523   2.792  0.1537  0.1118  0.0252
 1617W        W 5681   1.636   9.244   1.118 -0.1525  0.2126 -0.1241
 1618W        W 5682   1.689   7.139  10.133  0.0874  0.0617 -0.4225
 1619W        W 5683   5.625  10.736   9.933 -0.1570  0.1769  0.0392
 1620W        W 5684   3.922  10.030   1.599 -0.3443 -0.0330  0.0204
 1621W        W 5685   6.470   1.062   1.370  0.2685 -0.1935  0.2349
 1622W        W 5686   5.808   4.211   8.489 -0.0718 -0.1832  0.2294
 1623W        W 5687   7.572   0.411   1.067 -0.2904  0.0599  0.1159
 1624W        W 5688  10.381   4.615   7.927 -0.0873  0.0447  0.1859
 1625W        W 5689   5.737   9.698   9.423 -0.0579  0.0063 -0.1501
 1626W        W 5690   6.831   0.876   1.712  0.2271 -0.2966  0.1639
 1627W        W 5691   3.530   7.179   0.822  0.2242  0.1543  0.1611
 1628W        W 5692   2.424   1.075   1.833 -0.0493  0.0612 -0.1166
 1629W        W 5693   0.660   6.201   8.739 -0.1129  0.4721  0.2356
 1630W        W 5694   2.147   0.705   1.664  0.0853 -0.0427 -0.2490
 1631W        W 5695   9.965   0.867   0.930  0.1067 -0.0831  0.0182
 1632W        W 5696   4.260   8.747   8.432  0.0447 -0.0742 -0.1301
 1633W        W 5697   1.151   1.145   0.350 -0.0933  0.0914 -0.2452
 1634W        W 5698  10.138   2.424   6.863  0.3968 -0.0780 -0.1167
 1635W        W 5699  10.653  10.593   2.889 -0.1390 -0.2073  0.1660
 1636W        W 5700   5.598   9.548   2.711  0.2421 -0.3006 -0.2411
 1637W        W 5701   7.108   2.078   9.203 -0.1482  0.3317 -0.0150
 1638W        W 5702   0.477   1.005   9.383  0.1415  0.2575  0.4628
 1639W        W 5703   5.500   1.168   3.186 -0.2568  0.0413  0.0878
 1640W        W 5704   2.448   9.839   1.054 -0.0511 -0.0468  0.0508
 1641W        W 5705   9.915   2.897   1.800 -0.0546 -0.0747  0.1089
 1642W        W 5706   8.011   8.288   8.364 -0.2077 -0.1193  0.2131
 1643W        W 5707   8.270   8.733   9.136  0.0713 -0.0221  0.1162
 1644W        W 5708   1.810   6.689   9.495  0.4017 -0.1177 -0.0895
 1645W        W 5709   6.135   5.776   2.258  0.2638 -0.1829  0.1545
 1646W        W 5710   2.314   8.772   7.698 -0.1004  0.1754 -0.1130
 1647W        W 5711  10.266   8.200   8.474 -0.1204 -0.3229  0.1720
 1648W        W 5712   8.627   0.339   1.852 -0.1252  0.0736 -0.3708
 1649W        W 5713   1.388   2.177   9.513 -0.1458 -0.4211 -0.1268
 1650W        W 5714  10.349   5.307   1.708  0.0038 -0.0189  0.0459
 1651W        W 5715   7.637   4.306   1.263 -0.1115  0.0801  0.0627
 1652W        W 5716   6.640   2.701   8.520  0.2525 -0.0109 -0.1367
 1653W        W 5717   6.281   4.064  10.563  0.1001  0.3438  0.0171
 1654W        W 5718   2.264   3.482   7.173  0.0117 -0.1226 -0.0755
 1655W        W 5719   4.825   8.151   7.702 -0.3045 -0.1420  0.0930
 1656W        W 5720   3.544   1.420   3.674  0.1110 -0.0910  0.1418
 1657W        W 5721   7.558   2.488  10.571  0.1036  0.1322 -0.0395
 1658W        W 5722   3.345   9.043   3.307 -0.0655  0.2024  0.0591
 1659W        W 5723   9.904   4.664   9.233 -0.1961 -0.3341 -0.2988
 1660W        W 5724   9.817   1.960   9.491 -0.1476  0.2661  0.0449
 1661W        W 5725   5.217   0.737   0.357  0.1818 -0.0303  0.1182
 1662W        W 5726   1.849   4.739  10.667  0.0492 -0.0152 -0.0381
 1663W        W 5727   3.186  10.641  10.484  0.0715  0.1547  0.1617
 1664W        W 5728   7.044   3.741   2.618 -0.1494  0.0793  0.3211
 1665W        W 5729   9.341   7.666  10.810 -0.0027  0.0170 -0.1372
 1666W        W 5730   8.301   5.221   2.236  0.1717 -0.2036  0.0524
 1667W        W 5731   0.923   0.517   8.406  0.2595 -0.4078  0.1557
 1668W        W 5732   3.838   6.953   9.041 -0.1218  0.1301  0.1593
 1669W        W 5733   1.303   0.279  10.729 -0.1773  0.0912 -0.1016
 1670W        W 5734  10.562   0.443   0.599  0.0737  0.2179  0.1008
 1671W        W 5735   1.155   2.772   0.912 -0.0343  0.1707  0.2315
 1672W        W 5736   3.583  10.431   8.997  0.0468 -0.0992 -0.1367
 1673W        W 5737  10.492   6.682   9.163 -0.0963 -0.0406  0.3781
 1674W        W 5738   2.134   2.697   1.011 -0.0320  0.2924 -0.3309
 1675W        W 5739   3.295   8.075   8.172 -0.1026  0.0221  0.0250
 1676W        W 5740   6.883   9.848   2.268 -0.3343 -0.3277  0.1648
 1677W        W 5741   2.202   7.229   2.048  0.1697 -0.1616 -0.0252
 1678W        W 5742   0.832   1.431   9.246 -0.0993  0.1415  0.2115
 1679W        W 5743   4.408   1.275   0.759  0.2463 -0.0526 -0.2043
 1680W        W 5744   8.431   4.757   8.848  0.1456  0.1348  0.0137
 1681W        W 5745   6.274  10.869  10.090  0.1843  0.1838 -0.1159
 1682W        W 5746   2.640   5.497   9.818 -0.0701  0.0517 -0.0505
 1683W        W 5747   5.258   2.289   0.121  0.0411 -0.2561  0.1496
 1684W        W 5748   3.408   8.164   3.457 -0.0802 -0.0418 -0.2072
 1685W        W 5749   3.353  10.862   7.950  0.1305 -0.0344 -0.1304
 1686W        W 5750   3.572   9.236   2.919  0.0610 -0.0965  0.2520
 1687W        W 5751   9.504   3.444   9.839  0.2692 -0.2393 -0.0245
 1688W        W 5752   4.033  10.459   0.383  0.1093 -0.0340  0.2959
 1689W        W 5753   3.063   6.402   3.250 -0.1740 -0.1589 -0.0292
 1690W        W 5754   3.174   5.343   2.905 -0.0387 -0.0263 -0.2626
 1691W        W 5755   7.761   5.027   8.278  0.3008  0.1593 -0.3553
 1692W        W 5756   0.414   0.212   8.711  0.1767  0.0869  0.1911
 1693W        W 5757   2.891   7.857   1.353  0.2198  0.0460 -0.3741
 1694W        W 5758   8.464  10.669   7.758 -0.0875 -0.0574  0.0395
 1695W        W 5759   2.137   6.082   7.151 -0.2329 -0.0942  0.1594
 1696W        W 5760   9.624   0.101   8.359 -0.0684  0.3382  0.0472
 1697W        W 5761   7.220   4.954  10.266  0.1112  0.0965 -0.2086
 1698W        W 5762   0.081   2.848   1.998 -0.1052 -0.3709 -0.2724
 1699W        W 5763   7.481   4.933   2.561 -0.0437  0.0529  0.2512
 1700W        W 5764   8.459   1.916   2.142 -0.0382  0.0525  0.1188
 1701W        W 5765   3.996   6.900   0.221 -0.0188  0.1440 -0.0397
 1702W        W 5766   0.656   3.788   3.061  0.0409 -0.0888  0.1514
 1703W        W 5767   9.457   9.111   9.031 -0.1453  0.2208 -0.3448
 1704W        W 5768   9.886   6.755   2.341 -0.2539 -0.0213  0.0181
 1705W        W 5769   7.582   1.743   0.457 -0.0719  0.1002 -0.1022
 1706W        W 5770   9.506   0.875   9.198 -0.0029 -0.1107 -0.0984
 1707W        W 5771   3.894   7.921   8.502  0.0576  0.0258 -0.4283
 1708W        W 5772   5.307   6.336   0.313  0.0508 -0.0376  0.1881
 1709W        W 5773   5.062   3.700   3.316 -0.0256  0.4483  0.1233
 1710W        W 5774   8.130   4.421  10.535 -0.2477 -0.1190 -0.2687
 1711W        W 5775   5.787   2.427   1.388 -0.1923  0.2391 -0.0779
 1712W        W 5776   6.175   9.872   1.322 -0.2130 -0.4590 -0.1379
 1713W        W 5777   9.603   7.154   0.663  0.2159 -0.1072 -0.3666
 1714W        W 5778   1.248   9.218  10.078 -0.2422 -0.0299  0.2867
 1715W        W 5779   8.089   1.821   7.468 -0.0437  0.3543 -0.2536
 1716W        W 5780   0.289   6.938   8.828  0.0254 -0.3282  0.1012
 1717W        W 5781   9.309   9.644   9.853  0.0849  0.0361  0.0234
 1718W        W 5782   9.442   7.226   0.201 -0.3011 -0.0473  0.2954
 1719W        W 5783   6.608   5.648   3.314 -0.0865 -0.0306  0.0413
 1720W        W 5784   5.629   3.068   1.679 -0.2539 -0.1609 -0.1781
 1721W        W 5785   2.485   4.388   2.886  0.0773 -0.0329  0.1300
 1722W        W 5786   6.586   1.268   1.898  0.0506  0.1138  0.0012
 1723W        W 5787   2.454  10.920   2.033  0.1281  0.0106 -0.0246
 1724W        W 5788   8.972   1.295   3.415 -0.1796  0.1883 -0.1145
 1725W        W 5789   0.885   2.228  10.319  0.2807 -0.3531  0.1816
 1726W        W 5790   8.918   2.007   9.827 -0.1505  0.2924 -0.1319
 1727W        W 5791   7.484  10.028   2.946 -0.0021 -0.0400 -0.0351
 1728W        W 5792   2.251   0.178   9.611 -0.1097 -0.2968  0.0382
 1729W        W 5793   7.232   0.224   8.853 -0.1010  0.1183 -0.0109
 1730W        W 5794   8.000   3.408  10.822 -0.1197 -0.1294  0.0077
 1731W        W 5795   1.010   6.511   8.965  0.1336  0.2379  0.0511
 1732W        W 5796   4.603   7.481   0.856  0.0721 -0.0522 -0.0274
 1733W        W 5797   2.659   1.048  10.711  0.1069 -0.0467  0.1877
 1734W        W 5798   4.829   1.691   9.995  0.1162  0.3216 -0.2911
 1735W        W 5799   2.910   2.638   2.245 -0.0942  0.2235 -0.0345
 1736W        W 5800   1.755   6.246   1.785 -0.0016 -0.2060 -0.1845
 1737W        W 5801   0.542  10.408   0.517 -0.1984  0.0536  0.0185
 1738W        W 5802   3.812   8.498   2.483 -0.3656 -0.0764  0.1905
 1739W        W 5803   3.944   8.396   0.808 -0.1399  0.1663 -0.0377
 1740W        W 5804   4.961   4.044   2.810  0.4756 -0.1356 -0.1573
 1741W        W 5805   9.000   9.195  10.680  0.2278  0.3026  0.1737
 1742W        W 5806   2.069   9.391   8.613 -0.0674 -0.3391 -0.0927
 1743W        W 5807  10.738   1.373   0.767  0.1289 -0.2615 -0.1646
 1744W        W 5808   6.368   5.419   8.626 -0.1216  0.1672 -0.0792
 1745W        W 5809   8.854  10.596   8.722  0.1821 -0.3840  0.1140
 1746W        W 5810   3.904   8.433   7.742 -0.1153 -0.5081 -0.0481
 1747W        W 5811   6.012   7.290   8.030 -0.0562  0.0367 -0.2649
 1748W        W 5812   4.282   1.792   1.317  0.1127 -0.1593 -0.0098
 1749W        W 5813   2.115   1.692   2.162 -0.3038 -0.3155  0.1192
 1750W        W 5814   6.363   4.981   3.006  0.1603  0.3005  0.3377
 1751W        W 5815   8.343   4.503   9.281 -0.0135 -0.2844 -0.2240
 1752W        W 5816   9.776   1.532   5.846  0.1907  0.2160  0.0641
 1753W        W 5817   0.479   8.300   2.671 -0.0729  0.0795  0.1153
 1754W        W 5818   0.539   6.330   1.515  0.0439  0.2576  0.0627
 1755W        W 5819   1.829   1.990   1.185 -0.0560 -0.0653 -0.1900
 1756W        W 5820   2.176   5.376   9.448 -0.1559  0.0094  0.0563
 1757W        W 5821  10.139  10.039   9.293  0.0657  0.1495  0.1536
 1758W        W 5822  10.877   4.955   1.753  0.5456  0.0803 -0.2848
 1759W        W 5823   8.683   6.930   0.661  0.2177 -0.4395  0.2642
 1760W        W 5824   8.117   2.936  10.497 -0.0502 -0.1776 -0.1431
 1761W        W 5825   3.199   2.844  10.519  0.1477 -0.0523  0.0432
 1762W        W 5826   8.635   6.932   9.636  0.1006 -0.2825  0.0009
 1763W        W 5827   2.533   0.595   2.962  0.2451 -0.1678 -0.1640
 1764W        W 5828   4.643   2.571   4.097 -0.0366 -0.1825 -0.2588
 1765W        W 5829   0.150   3.580   2.356  0.2764  0.3338  0.1738
 1766W        W 5830   4.050   5.865   3.122  0.0547 -0.0188  0.0071
 1767W        W 5831   0.415   2.428   2.113  0.0221 -0.1955  0.2345
 1768W        W 5832   0.459   8.326   9.132 -0.1389  0.0280 -0.0594
 1769W        W 5833   5.269   8.159   9.543  0.3481 -0.0457  0.0482
 1770W        W 5834   3.653   4.591   2.814  0.1926  0.0980  0.2266
 1771W        W 5835   5.650   4.573   9.882 -0.3949  0.2110  0.3282
 1772W        W 5836   4.789   1.627  10.890  0.1520 -0.1309 -0.0761
 1773W        W 5837   1.040   6.223   8.022 -0.0256 -0.0487  0.0186
 1774W        W 5838   1.595   0.800   1.661  0.2334  0.1849  0.2771
 1775W        W 5839   3.677   8.504  10.067 -0.2975 -0.2988  0.2943
 1776W        W 5840   0.488   3.878   7.340 -0.0835 -0.0651  0.1940
 1777W        W 5841   3.429   8.881   2.479 -0.2819  0.0630  0.1180
 1778W        W 5842   8.996   5.573   0.691  0.0182 -0.2503 -0.0414
 1779W        W 5843   9.702   8.826   0.214  0.1821  0.0616 -0.1604
 1780W        W 5844  10.243   6.809   8.613  0.3269 -0.3348 -0.2850
 1781W        W 5845   3.530   3.364   7.412 -0.0045 -0.0647  0.0228
 1782W        W 5846   2.252   9.742   0.009  0.0823  0.0633 -0.0359
 1783W        W 5847   9.593   0.989   7.835 -0.0392  0.1971  0.2550
 1784W        W 5848   0.805   9.023   1.294  0.0158 -0.0440 -0.0910
 1785W        W 5849   6.862   1.368   9.570  0.0234 -0.0467 -0.1335
 1786W        W 5850   2.201   0.743  10.670 -0.0031 -0.0533 -0.1200
 1787W        W 5851   9.821   3.716   9.439 -0.1785  0.1827  0.0960
 1788W        W 5852   9.633   1.474   1.775  0.0484 -0.2640 -0.1280
 1789W        W 5853   1.213  10.874   1.093 -0.0159 -0.4000  0.1172
 1790W        W 5854   7.696   2.459   3.247 -0.2618 -0.0988  0.0196
 1791W        W 5855   2.228   2.681   9.498 -0.1091 -0.0494 -0.2278
 1792W        W 5856   0.892   7.930   9.293 -0.0898  0.2255 -0.0397
 1793W        W 5857   5.324   5.794   8.390 -0.1155 -0.1614  0.2111
 1794W        W 5858   0.600   1.873   2.520  0.0873 -0.0838 -0.1231
 1795W        W 5859   6.604   8.522   0.883 -0.1241 -0.0174 -0.0125
 1796W        W 5860   1.058  10.128  10.726  0.1078 -0.0893 -0.0041
 1797W        W 5861   1.946   2.513   3.374  0.0365 -0.2119  0.2240
 1798W        W 5862   4.086   6.613   8.648 -0.1566 -0.2143 -0.1498
 1799W        W 5863  10.010   2.681   8.255 -0.1104 -0.2315 -0.0705
 1800W        W 5864   5.367   6.923   3.059  0.1631  0.2199  0.2472
 1801W        W 5865   3.241  10.329  10.907  0.3280 -0.0755  0.0323
 1802W        W 5866   7.392   5.517   2.875 -0.2013 -0.0204 -0.2229
 1803W        W 5867   2.481   2.693   8.684 -0.1526  0.0277 -0.0132
 1804W        W 5868   2.808   4.099   1.867 -0.0669  0.0183 -0.0011
 1805W        W 5869   4.837   5.109   7.846 -0.0376 -0.1189 -0.0823
 1806W        W 5870   9.103   6.778   1.264  0.1809  0.2820 -0.0762
 1807W        W 5871   6.375   0.568   8.706  0.0622  0.1884 -0.3033
 1808W        W 5872   3.128   2.516   6.944  0.1138 -0.0011 -0.1316
 1809W        W 5873   0.550  10.300   2.572  0.0942  0.1784  0.2757
 1810W        W 5874   0.689   5.522   2.711 -0.1871 -0.1319 -0.0587
 1811W        W 5875   8.122   2.255   8.429  0.2172 -0.0102 -0.0375
 1812W        W 5876   5.635   7.335  10.278  0.1641  0.2046  0.0698
 1813W        W 5877   0.780   6.348   7.546  0.1696 -0.2487  0.0115
 1814W        W 5878   6.540   3.204  10.095  0.1424 -0.1589  0.3850
 1815W        W 5879  10.443   8.491   0.848 -0.1829 -0.4491  0.1942
 1816W        W 5880   8.076   3.810   8.227  0.2084 -0.0701  0.0186
 1817W        W 5881   1.781   6.500   7.549 -0.1681 -0.0496  0.1897
 1818W        W 5882   0.952   8.866   7.318 -0.0391 -0.0074  0.0039
 1819W        W 5883   9.903   2.409   1.473 -0.0359  0.0376 -0.0990
 1820W        W 5884   8.633   4.755   1.323 -0.1975  0.0869  0.2562
 1821W        W 5885   0.999   4.508  10.637  0.4257 -0.3520  0.0169
 1822W        W 5886   7.241   6.927   1.829  0.2075 -0.1798  0.0263
 1823W        W 5887  10.626   6.706   2.662  0.1395 -0.2897 -0.3388
 1824W        W 5888   1.538   5.533   2.347 -0.4769  0.0819 -0.2852
 1825W        W 5889   5.509   5.236   1.495 -0.1448  0.3438 -0.2444
 1826W        W 5890   5.013   6.076   0.824 -0.0947  0.1047 -0.0687
 1827W        W 5891   5.144   0.482  10.318 -0.1074  0.1236  0.0346
 1828W        W 5892   5.206   1.499   2.585  0.1358  0.1862 -0.0638
 1829W        W 5893   1.838   8.431   7.162  0.0121  0.2349 -0.0538
 1830W        W 5894  10.285   2.109   3.568 -0.0839 -0.2619  0.1293
 1831W        W 5895   3.774   5.052   9.490 -0.0178 -0.4409 -0.1615
 1832W        W 5896   4.505   9.415   4.034  0.0082 -0.0998 -0.1028
 1833W        W 5897   1.904   7.506   9.117  0.0324  0.0034 -0.2110
 1834W        W 5898   5.579   7.397   2.958  0.1671 -0.1887  0.0135
 1835W        W 5899   3.236   3.509   2.556  0.1622 -0.3323 -0.0274
 1836W        W 5900   2.596  10.721   0.492 -0.3648 -0.2940  0.0241
 1837W        W 5901   8.163   7.431  10.270  0.0169  0.0797 -0.1908
 1838W        W 5902   2.022   9.252   0.701 -0.4737 -0.0166 -0.1070
 1839W        W 5903   9.688   4.530   0.465 -0.0792 -0.1683 -0.3194
 1840W        W 5904   8.691   2.922   9.548  0.1488 -0.2085  0.2093
 1841W        W 5905   1.284   5.330   0.488  0.2823 -0.3184 -0.2233
 1842W        W 5906   8.494   9.644   1.579  0.3702 -0.2836 -0.1529
 1843W        W 5907   6.729   6.557   9.536  0.1952 -0.0700  0.1924
 1844W        W 5908   4.408   2.829   3.109 -0.2124  0.2629  0.1388
 1845W        W 5909   9.288   3.256  10.259  0.0324  0.3324  0.0058
 1846W        W 5910   3.471   9.911   2.304  0.3325 -0.0137  0.0151
 1847W        W 5911   8.715   0.653   8.036 -0.1322 -0.0716 -0.2032
 1848W        W 5912   2.431   0.409   7.778 -0.2757  0.0823 -0.2357
 1849W        W 5913   6.621   3.394   9.555 -0.0420 -0.1809 -0.0065
 1850W        W 5914   4.339   2.094   8.326 -0.2388  0.3773 -0.0156
 1851W        W 5915   3.887   1.380  10.175 -0.1612  0.0797  0.4202
 1852W        W 5916  10.733   9.135   2.275  0.1018 -0.0980 -0.2891
 1853W        W 5917   7.059   6.149   2.547  0.1579  0.1697 -0.1097
 1854W        W 5918   5.823   1.820  10.564 -0.1263  0.1030  0.1571
 1855W        W 5919   1.052   3.026   8.677  0.0736  0.2412  0.1722
 1856W        W 5920   2.548   0.947   0.644 -0.1996  0.0689  0.0025
 1857W        W 5921   8.510   2.700   2.859  0.0506  0.1525 -0.1080
 1858W        W 5922   2.574   1.419   0.408 -0.2580 -0.2489 -0.1010
 1859W        W 5923   5.290   3.138  10.535 -0.0226 -0.2399 -0.0339
 1860W        W 5924   2.078   7.401   2.466  0.0758  0.2554  0.3100
 1861W        W 5925   2.932  10.825   3.595  0.1485  0.2619  0.0753
 1862W        W 5926   2.830   9.604   3.681  0.0108 -0.1040 -0.2933
 1863W        W 5927   7.877   7.066  10.483  0.0664 -0.0855 -0.5155
 1864W        W 5928   9.429   7.416   9.849 -0.0736  0.0924 -0.1005
 1865W        W 5929   1.676   7.911   1.407 -0.2138 -0.2952 -0.2173
 1866W        W 5930   0.248   2.338  10.107  0.1085  0.0645  0.0194
 1867W        W 5931   9.100   1.782   1.453 -0.1080 -0.2598  0.0707
 1868W        W 5932   8.620   8.105   0.898 -0.2072 -0.3625  0.1834
 1869W        W 5933   4.707   1.014   3.795  0.0789  0.2928 -0.0866
 1870W        W 5934   8.900   2.198   8.919 -0.3273  0.2442 -0.0834
 1871W        W 5935   3.411   7.877   1.309  0.1870  0.0066  0.3352
 1872W        W 5936   2.339  10.629   7.830 -0.0215 -0.5593  0.3241
 1873W        W 5937   5.408   2.325   2.802  0.1963  0.2220  0.1024
 1874W        W 5938   4.141   9.908   3.443  0.1997  0.1393  0.0945
 1875W        W 5939   2.546  10.129   8.779  0.0105  0.1781  0.0019
 1876W        W 5940   2.531   3.671   9.351 -0.0531 -0.2227  0.0958
 1877W        W 5941   8.363   9.855   2.633 -0.1425  0.1816 -0.0666
 1878W        W 5942   8.120  10.354  10.173  0.2172 -0.0599  0.2343
 1879W        W 5943   6.893   6.614   0.185  0.1065 -0.3990 -0.0092
 1880W        W 5944   5.581   0.663   3.317 -0.1842  0.0358  0.3602
 1881W        W 5945   3.471   0.036   9.228  0.1781  0.0861 -0.0554
 1882W        W 5946   9.634   1.854   2.609  0.3700  0.3046 -0.1068
 1883W        W 5947   9.804   5.510   0.977  0.2179  0.4056 -0.0053
 1884W        W 5948   4.243   6.375   3.568  0.0811  0.1869  0.1432
 1885W        W 5949   3.699   9.533   9.139 -0.3573 -0.5203  0.0720
 1886W        W 5950   7.394   2.815   8.044  0.3132  0.1329 -0.2234
 1887W        W 5951   4.951   5.762   9.658  0.0103 -0.2066  0.2489
 1888W        W 5952   3.038   7.069   1.268 -0.3909  0.1134  0.4648
 1889W        W 5953  10.753   0.260   3.205  0.2809 -0.2083 -0.0463
 1890W        W 5954   7.965   3.810   3.096 -0.1068  0.3432  0.0904
 1891W        W 5955   7.885   0.307   9.617  0.3092 -0.1427  0.2106
 1892W        W 5956   7.033  10.653  10.519 -0.0771  0.0889  0.0069
 1893W        W 5957   0.545   5.044   0.405  0.2696  0.1912  0.2322
 1894W        W 5958   8.751   7.402   0.729 -0.1107 -0.1529 -0.1089
 1895W        W 5959  10.755   7.685   9.257  0.3620 -0.1355 -0.2371
 1896W        W 5960   2.037   2.372   1.409 -0.1608  0.1734 -0.1829
 1897W        W 5961   7.260  10.378   8.291 -0.2109 -0.2087 -0.0078
 1898W        W 5962   1.985   5.884   7.580 -0.2297  0.1623 -0.2522
 1899W        W 5963  10.012   1.513   9.619  0.3365 -0.4601  0.3199
 1900W        W 5964   9.866   8.864  10.178  0.2095 -0.0466 -0.2172
 1901W        W 5965   0.184   9.994   2.475 -0.2047  0.0413 -0.2850
 1902W        W 5966   2.236   2.804   1.480  0.1744 -0.2350  0.0945
 1903W        W 5967   6.699   8.983   0.579 -0.1753 -0.2279  0.0652
 1904W        W 5968   7.356   7.477   3.128  0.0930 -0.4975  0.2220
 1905W        W 5969   5.041   8.025  10.011 -0.0133 -0.1207 -0.1271
 1906W        W 5970   1.209   5.784   7.963  0.1084 -0.2588 -0.1598
 1907W        W 5971   5.822  10.144   9.620 -0.0766 -0.0648 -0.0381
 1908W        W 5972   4.114   8.353   9.933  0.0939  0.1318  0.2272
 1909W        W 5973   5.430   0.169  10.602  0.1470 -0.1638 -0.1096
 1910W        W 5974   2.923   8.008   9.756  0.0376  0.0971  0.1252
 1911W        W 5975   4.073   3.718   3.073  0.1182 -0.0038 -0.0676
 1912W        W 5976   6.187   9.490   7.935 -0.4314  0.1850  0.0194
 1913W        W 5977   9.558   6.671  10.475  0.1193 -0.2445  0.0055
 1914W        W 5978   1.174  10.344   4.050 -0.0344  0.1348  0.2977
 1915W        W 5979   2.676   6.402  10.923  0.2648 -0.0982 -0.3052
 1916W        W 5980   4.741   7.091   9.920 -0.1985 -0.0459  0.1633
 1917W        W 5981   9.714   2.782  10.501  0.0562 -0.2515 -0.2396
 1918W        W 5982   7.966   5.830   2.672 -0.0305  0.1172 -0.1437
 1919W        W 5983  10.084   0.777   0.461 -0.0438  0.0819  0.1025
 1920W        W 5984   9.185   5.756   2.289 -0.2035 -0.4035  0.1792
 1921W        W 5985   2.945   2.444   7.793 -0.0432 -0.0283  0.3913
 1922W        W 5986   6.753   0.021  10.875  0.0357  0.0991 -0.1027
 1923W        W 5987   6.726   0.710   2.222  0.0799  0.1384 -0.2499
 1924W        W 5988   8.883   1.551   8.000  0.3070  0.3497  0.1326
 1925W        W 5989   0.501   7.585  10.698 -0.0257 -0.0244 -0.0873
 1926W        W 5990   6.306  10.211   8.968  0.0529  0.0938  0.0675
 1927W        W 5991   2.300   6.320   0.647 -0.0492  0.0315  0.1550
 1928W        W 5992   6.424   9.015   2.881  0.1532 -0.0227  0.0580
 1929W        W 5993   6.588   6.163   0.455 -0.0581  0.1551 -0.1507
 1930W        W 5994   2.231  10.433   8.416 -0.1531 -0.4214  0.0205
 1931W        W 5995   1.889   9.600  10.680  0.0757 -0.3579 -0.0750
 1932W        W 5996   3.415   1.195   1.339  0.0514  0.1021 -0.3397
 1933W        W 5997   8.950   2.322   4.038 -0.1344 -0.2848  0.1944
 1934W        W 5998  10.404  10.605   7.978 -0.1638 -0.0027  0.1008
 1935W        W 5999   7.400   8.079  10.810  0.0119  0.0853 -0.0637
 1936W        W 6000   5.093   3.789   1.211  0.2363  0.1947  0.0519
 1937W        W 6001  10.265   5.234   1.084  0.0481  0.1003  0.0786
 1938W        W 6002   8.893   0.162   7.961  0.1459 -0.2910 -0.1062
 1939W        W 6003   6.812   2.058  10.695  0.1216  0.0121 -0.0175
 1940W        W 6004   7.909   7.206   3.073 -0.3783  0.1171 -0.2857
 1941W        W 6005   7.733   2.912   3.457 -0.0659  0.0442 -0.1923
 1942W        W 6006   7.190   5.954   9.335  0.3494  0.0650  0.0035
 1943W        W 6007   8.452   9.174  10.751  0.0239  0.0641  0.2104
 1944W        W 6008   5.038   9.519  10.043 -0.1175  0.3355 -0.0597
 1945W        W 6009   7.446   8.394   1.269 -0.0608  0.0751  0.0437
 1946W        W 6010   3.209   2.205   2.022  0.0640  0.0072 -0.0735
 1947W        W 6011   4.005   2.493   3.020 -0.2571 -0.0152  0.0711
 1948W        W 6012   8.737   2.776   0.002 -0.2319 -0.2419  0.2799
 1949W        W 6013   1.123   9.722   9.012  0.2646  0.2273 -0.1056
 1950W        W 6014   3.080   4.350   1.457  0.1114 -0.0301  0.0996
 1951W        W 6015   2.218   8.110   1.883  0.0165  0.4871  0.0345
 1952W        W 6016   5.576  10.825   2.220  0.1944  0.2015  0.0064
 1953W        W 6017  10.748   4.676   2.203 -0.0488  0.1807 -0.1594
 1954W        W 6018   8.282   2.837   8.620  0.0434  0.1881 -0.0537
 1955W        W 6019   9.525   2.833   0.608  0.1027  0.0674 -0.1953
 1956W        W 6020   1.842   3.197   8.341  0.1085 -0.2524  0.0012
 1957W        W 6021   1.887   1.593  10.929  0.0845 -0.0808  0.1168
 1958W        W 6022   2.244  10.644   0.120  0.0298  0.0350  0.1043
 1959W        W 6023   1.477   2.708   8.707 -0.1201 -0.0391  0.2784
 1960W        W 6024   5.132   1.735   0.801  0.1532 -0.1418 -0.2223
 1961W        W 6025   9.250   8.298   2.544 -0.0024 -0.0925 -0.1018
 1962W        W 6026   2.568   9.439   0.805 -0.1472 -0.2333  0.0743
 1963W        W 6027   3.739  10.141   0.621 -0.3208 -0.0843 -0.2253
 1964W        W 6028   9.579   3.245   7.333  0.3443  0.2866  0.0152
 1965W        W 6029   4.916   9.922   8.352 -0.0889 -0.1272  0.1363
 1966W        W 6030   7.052   3.527   8.703 -0.0452 -0.1136  0.0171
 1967W        W 6031   8.599   7.069  10.763  0.0841  0.1849 -0.0924
 1968W        W 6032   6.219   4.834   0.106  0.4045 -0.0884 -0.0112
 1969W        W 6033  10.316   3.601  10.907  0.2005  0.2098  0.2105
 1970W        W 6034   9.595   3.973   9.856 -0.1822 -0.1514  0.1900
 1971W        W 6035   9.336   9.346   1.815 -0.0851  0.2253  0.1277
 1972W        W 6036   7.302   5.251  10.646 -0.0338 -0.3793 -0.1257
 1973W        W 6037   7.205   6.438   9.276  0.1299 -0.1400  0.0459
 1974W        W 6038   8.620   0.534  10.842  0.1857 -0.0673 -0.0156
 1975W        W 6039   2.207   5.831   1.997 -0.1011  0.0438  0.0004
 1976W        W 6040   3.643   9.705   8.076 -0.0097  0.0703 -0.3024
 1977W        W 6041   4.952   7.452   2.371  0.0783  0.4544 -0.2191
 1978W        W 6042  10.096   4.379   8.311 -0.1489  0.1202 -0.1398
 1979W        W 6043  10.443   1.043   8.676  0.3415 -0.1446  0.2543
 1980W        W 6044   5.232   0.856   0.953 -0.3013  0.0387  0.1152
 1981W        W 6045   3.942   2.517   0.769  0.1489  0.2124  0.0896
 1982W        W 6046   3.502   0.802   2.203  0.2547  0.0790  0.0376
 1983W        W 6047   8.101   0.437   1.184 -0.1621 -0.0426 -0.0217
 1984W        W 6048   1.483   6.105  10.098 -0.1588 -0.0454  0.0486
 1985W        W 6049   5.081   2.246   2.475  0.3602  0.1872  0.4496
 1986W        W 6050   3.274   3.219  10.260 -0.1214 -0.3255 -0.2501
 1987W        W 6051  10.362   2.001   2.129  0.0828  0.0026  0.0126
 1988W        W 6052   3.590   3.740   3.244  0.0544  0.1459 -0.1369
 1989W        W 6053   6.032   7.045   9.133  0.1424  0.3078 -0.1147
 1990W        W 6054  10.028  10.725   3.418  0.0221  0.0597  0.0427
 1991W        W 6055   6.370   2.134   2.982  0.0264 -0.0161  0.0597
 1992W        W 6056   1.588   0.295   7.316  0.2856  0.2067 -0.2460
 1993W        W 6057   8.558   6.271   9.207 -0.2320 -0.1339 -0.1738
 1994W        W 6058   8.083   4.881   1.133 -0.0790 -0.0495 -0.1327
 1995W        W 6059   8.674   1.589  10.232  0.0689  0.3769 -0.0404
 1996W        W 6060   6.102   5.054   0.543 -0.0944  0.2042 -0.1226
 1997W        W 6061   8.401   9.059   0.971  0.1825 -0.0533 -0.0438
 1998W        W 6062   6.921   2.646   3.740 -0.2223  0.1341 -0.1603
 1999W        W 6063  10.300   4.744   9.535 -0.0704  0.0716  0.4935
 2000W        W 6064   5.714   0.853   2.192  0.1274 -0.1357  0.0553
 2001W        W 6065   8.515  10.871  10.877  0.2390 -0.2994 -0.0235
 2002W        W 6066   9.997   1.988   1.751 -0.0156 -0.1130  0.2636
 2003W        W 6067   9.072   3.510   1.007  0.1642  0.0428  0.0271
 2004W        W 6068   9.370   8.887   3.247 -0.1331 -0.1794  0.1543
 2005W        W 6069   8.166   7.419  10.808 -0.0609  0.1149  0.1241
 2006W        W 6070  10.798   6.313  10.793 -0.0773 -0.2481 -0.3416
 2007W        W 6071   2.322   1.143   1.334 -0.0837 -0.0527  0.2546
 2008W        W 6072   1.226   0.648   0.573  0.0166  0.2463 -0.2794
 2009W        W 6073   4.573   0.518   0.340  0.0496 -0.1878  0.2348
 2010W        W 6074   4.742   5.172   0.999 -0.2574 -0.0475 -0.2498
 2011W        W 6075  10.004   9.665   1.543 -0.3482  0.1470 -0.1455
 2012W        W 6076   4.500   3.833   1.478  0.2562  0.1340 -0.0085
 2013W        W 6077   9.221   4.495   7.149 -0.1259  0.2497  0.0904
 2014W        W 6078   7.256   3.915   8.902  0.1088  0.1099 -0.0375
 2015W        W 6079   3.942   0.867   9.252  0.4179 -0.2068 -0.1511
 2016W        W 6080   5.004   9.551   0.552  0.1135 -0.0806  0.1899
 2017W        W 6081   0.207   2.813   0.667  0.0112 -0.0041  0.1297
 2018W        W 6082   8.579   3.863   8.353  0.1328 -0.2489 -0.0844
 2019W        W 6083   5.722   6.968   0.836 -0.0005  0.0455  0.2146
 2020W        W 6084   6.240   2.589  10.623 -0.3801 -0.0727  0.1754
 2021W        W 6085  10.075   5.144   3.355 -0.0698 -0.1618 -0.1566
 2022W        W 6086   0.054   8.787   7.398  0.0449  0.0550 -0.0873
 2023W        W 6087   9.784   2.666   1.049  0.2032  0.1375  0.1139
 2024W        W 6088   3.575   3.690   1.727 -0.2400 -0.0994 -0.0725
 2025W        W 6089   7.995   8.026   2.062 -0.1500  0.1565  0.2156
 2026W        W 6090   6.211   3.275   1.689 -0.2135  0.1049 -0.0005
 2027W        W 6091   8.661   0.271   0.401  0.1954 -0.1517 -0.1346
 2028W        W 6092   9.021   6.093   9.020 -0.3156  0.1316  0.2611
 2029W        W 6093   5.622   9.939   8.728 -0.1282  0.2842  0.1813
 2030W        W 6094   6.878   7.536   0.464  0.0034 -0.2306  0.0377
 2031W        W 6095   7.165   1.872   7.408  0.3183 -0.0013  0.3482
 2032W        W 6096   2.077   2.994   3.061  0.0160  0.3848 -0.1196
 2033W        W 6097   3.962  10.839   9.399 -0.3259  0.1141  0.1610
 2034W        W 6098   0.188   5.752   7.688  0.2362  0.0299 -0.0577
 2035W        W 6099   3.137   3.875   1.578 -0.2006  0.0713 -0.1452
 2036W        W 6100   0.447   3.135  10.270  0.4712  0.1150 -0.1892
 2037W        W 6101   5.275   7.066   2.221  0.3159 -0.0566  0.3792
 2038W        W 6102   3.597  10.665  10.793  0.1879  0.2434  0.0401
 2039W        W 6103   4.574   4.224   9.346  0.2617 -0.1756 -0.1100
 2040W        W 6104   6.032   4.561   1.342 -0.2890 -0.1355 -0.1268
 2041W        W 6105   1.316   0.967   2.039  0.2058  0.0907 -0.0040
 2042W        W 6106   9.343   8.280  10.081  0.0840  0.1520 -0.4972
 2043W        W 6107   7.589   0.730   9.594  0.2188 -0.0816 -0.1210
 2044W        W 6108   5.924   9.244   9.268  0.0306 -0.0172 -0.0260
 2045W        W 6109  10.584   8.334   8.815  0.0431 -0.2303 -0.1512
 2046W        W 6110   9.404   8.741  10.369 -0.3358  0.1482 -0.1802
 2047W        W 6111   1.950   6.975   0.100 -0.0952  0.1082  0.1006
 2048W        W 6112  10.853   0.815   8.862 -0.0735 -0.0448  0.2740
 2049W        W 6113   9.135   8.547   1.593  0.1441 -0.2588  0.2414
 2050W        W 6114   4.403   5.361   7.124  0.0895  0.0645  0.2105
 2051W        W 6115  10.256   7.827   1.671 -0.3078  0.0288  0.0195
 2052W        W 6116   2.425   5.954   0.125  0.2795 -0.0583  0.2997
 2053W        W 6117   4.138   2.789  10.699 -0.0751 -0.0954 -0.0410
 2054W        W 6118   5.383   2.028   1.540  0.3485 -0.0760  0.0461
 2055W        W 6119   9.869   9.727  10.753  0.2287  0.5841  0.4236
 2056W        W 6120   8.308  10.425  10.633  0.0044 -0.0131  0.1070
 2057W        W 6121   8.334   8.405   8.733 -0.2918  0.1612 -0.2363
 2058W        W 6122   4.339   7.283   1.631 -0.0977  0.1529 -0.3040
 2059W        W 6123   9.985   0.429   1.249  0.0991  0.1484  0.0722
 2060W        W 6124   1.517   3.905  10.975  0.1134  0.2305  0.1092
 2061W        W 6125   8.152   9.496   9.863 -0.3976 -0.0416  0.1614
 2062W        W 6126   5.743   3.491   2.416 -0.0061 -0.0704 -0.1560
 2063W        W 6127   0.780   5.466   0.465  0.1805 -0.0070 -0.2713
 2064W        W 6128   8.111   0.871   8.673 -0.1332 -0.0191 -0.0981
 2065W        W 6129   5.812   9.314   2.300  0.2571  0.1367 -0.1784
 2066W        W 6130   6.230   2.311   1.675  0.2685  0.0811 -0.0821
 2067W        W 6131   9.719   7.636   0.563 -0.2644 -0.1342 -0.1141
 2068W        W 6132   7.426   0.178   2.142  0.2525  0.0415  0.1250
 2069W        W 6133   5.004   5.976   3.074 -0.1151  0.0663 -0.0435
 2070W        W 6134   2.639   2.640   1.249  0.1210  0.0781 -0.1531
 2071W        W 6135   6.711   1.383   8.494  0.1160 -0.0681  0.0413
 2072W        W 6136   7.604   0.759   3.620  0.2542 -0.2206  0.1660
 2073W        W 6137   2.665   9.048   0.420  0.0151  0.1009  0.2282
 2074W        W 6138   9.303   5.801  10.907  0.1305 -0.0737 -0.1030
 2075W        W 6139   1.725   1.257   9.866  0.1175 -0.0408  0.0005
 2076W        W 6140   8.192   5.766   7.626  0.0604  0.4267  0.1019
 2077W        W 6141   5.854   9.481   1.475 -0.3172  0.1746  0.1515
 2078W        W 6142   1.674   8.920   1.868  0.0397  0.0656 -0.0768
 2079W        W 6143   5.615   0.725   9.828 -0.1504  0.2809 -0.0170
 2080W        W 6144   4.060   3.240   0.002  0.2589 -0.3028  0.1696
 2081W        W 6145   0.768   0.829   0.410 -0.0954  0.1951 -0.1086
 2082W        W 6146   4.795   2.616   2.675  0.2364 -0.3383  0.0953
 2083W        W 6147   3.150   4.419   0.018  0.1855 -0.1093  0.1238
 2084W        W 6148   1.526   0.420   2.975  0.2001 -0.3171  0.0928
 2085W        W 6149   7.685   8.981   8.241 -0.2980 -0.1303  0.1426
 2086W        W 6150   1.194   9.958   2.244  0.1011 -0.1541 -0.1605
 2087W        W 6151   2.907   6.236   8.605 -0.0824 -0.1157 -0.0719
 2088W        W 6152   4.794   2.533   9.058  0.2662  0.1699  0.1194
 2089W        W 6153   0.753   7.132  10.635  0.0801  0.1814  0.1564
 2090W        W 6154   1.462   0.906   2.877  0.0250  0.2820  0.0304
 2091W        W 6155   8.842   7.940   2.786 -0.0298  0.2740 -0.0319
 2092W        W 6156   1.557   9.970   3.795  0.0431  0.2350 -0.0656
 2093W        W 6157   0.232   7.052   9.770 -0.0806 -0.0396  0.1283
 2094W        W 6158   4.134   7.567   0.811 -0.3935  0.0443  0.4402
 2095W        W 6159   0.483   8.821  10.666  0.0969  0.1769  0.1106
 2096W        W 6160   0.668   5.850   7.431 -0.4897 -0.1593  0.5308
 2097W        W 6161   0.566   6.546   9.168 -0.1360 -0.2053  0.1126
 2098W        W 6162   8.805   0.945   9.919  0.1365  0.0783  0.0934
 2099W        W 6163   3.343   6.847   3.389  0.0953 -0.1932  0.0381
 2100W        W 6164   1.862   2.236   8.093 -0.0095  0.1332  0.2792
 2101W        W 6165   8.914   1.793   3.066  0.2068  0.2365  0.1147
 2102W        W 6166  10.484   1.093  10.071 -0.1041  0.0970  0.4867
 2103W        W 6167   4.713   7.986  10.429  0.0816 -0.1761  0.0839
 2104W        W 6168   9.825  10.865   8.928 -0.0973 -0.0042 -0.0326
 2105W        W 6169   6.028   7.593   1.624  0.2274 -0.0134 -0.1224
 2106W        W 6170  10.665   6.429   8.584 -0.1952 -0.3805  0.1066
 2107W        W 6171  10.713   5.035   8.803  0.2660  0.2355  0.4966
 2108W        W 6172   0.394   6.661  10.672 -0.1553 -0.0491  0.2581
 2109W        W 6173   7.854   7.892   0.596 -0.3527  0.1646  0.1552
 2110W        W 6174   3.081   4.670   9.830  0.0664 -0.0022 -0.2828
 2111W        W 6175   6.710  10.531   9.207 -0.2820  0.1722  0.0201
 2112W        W 6176   2.593   1.318   8.901 -0.3311 -0.4456  0.1295
 2113W        W 6177   0.586   6.308   0.916 -0.0609 -0.1604 -0.0388
 2114W        W 6178   4.615   2.804   3.667  0.1270  0.0262 -0.2606
 2115W        W 6179   2.911   3.150   2.570 -0.0123 -0.1601  0.0299
 2116W        W 6180   6.049   1.452   9.862 -0.1061 -0.2243 -0.2019
 2117W        W 6181  10.115   5.930   7.620  0.1892  0.1176  0.0211
 2118W        W 6182   7.921  10.814   9.992 -0.1887  0.2566  0.0414
 2119W        W 6183   1.660   2.693   0.800  0.0832  0.3924 -0.0092
 2120W        W 6184   6.694   0.083   8.907  0.0996  0.1061 -0.1463
 2121W        W 6185   7.046   0.003   9.301  0.0994  0.2535 -0.0205
 2122W        W 6186   2.399   0.898  10.245 -0.1223 -0.0863 -0.0784
 2123W        W 6187   4.309   4.681  10.784  0.0653  0.0965  0.0412
 2124W        W 6188   6.683   1.860   8.297  0.0562 -0.1479  0.0658
 2125W        W 6189  10.793   1.330   7.889  0.2945  0.2656 -0.0065
 2126W        W 6190   5.977   2.381   7.983 -0.3183  0.1800 -0.0396
 2127W        W 6191   8.876   6.841   0.211 -0.2943 -0.2002 -0.0060
 2128W        W 6192   3.942   2.213   8.613 -0.0637 -0.0065  0.3380
 2129W        W 6193   1.096   6.328   1.702  0.0512  0.2837 -0.2101
 2130W        W 6194  10.921   8.049  10.503 -0.0346  0.0722 -0.3561
 2131W        W 6195   5.763   6.541   0.554 -0.0376  0.2914  0.2408
 2132W        W 6196   9.836  10.508   9.273 -0.1812  0.0640  0.2682
 2133W        W 6197   7.926   5.193   9.875  0.2730 -0.1015 -0.1742
 2134W        W 6198   9.859   5.224   1.932 -0.0933 -0.0298  0.0191
 2135W        W 6199   9.661   3.899   9.024  0.1065  0.0823 -0.0481
 2136W        W 6200   3.186   2.776   8.260 -0.4017  0.1263  0.3042
 2137W        W 6201   7.264   4.054   0.295 -0.0345 -0.4762 -0.3647
 2138W        W 6202   5.405   6.704   8.416  0.3358 -0.0122 -0.0807
 2139W        W 6203   9.854   1.388   8.268  0.1600 -0.0537  0.1844
 2140W        W 6204  10.919  10.225   0.674  0.1391 -0.0557  0.0137
 2141W        W 6205   1.497   2.305   0.153 -0.0548 -0.0131  0.3812
 2142W        W 6206   7.368   6.496   1.609  0.2104 -0.0888 -0.2813
 2143W        W 6207   1.464   5.361   8.233  0.0653  0.0995  0.2675
 2144W        W 6208   3.729   1.576   3.235  0.0263  0.0688  0.1253
 2145W        W 6209   4.251   1.480   3.149 -0.0666 -0.3328 -0.1145
 2146W        W 6210   0.312   6.171   7.368  0.1523 -0.0590 -0.1001
 2147W        W 6211   2.926   0.981  10.296 -0.2585  0.1198 -0.0230
 2148W        W 6212   3.649   1.747   1.098 -0.0535 -0.0580 -0.1002
 2149W        W 6213   6.558   6.319   1.757  0.0705  0.0998 -0.1218
 2150W        W 6214   7.260   2.011   8.244  0.3920 -0.0385 -0.0236
 2151W        W 6215   0.321   8.044   0.400  0.2911 -0.2780  0.0186
 2152W        W 6216   2.956   5.927  10.039 -0.4100  0.0176 -0.1198
 2153W        W 6217  10.101   2.812   3.524  0.0835 -0.0914  0.1433
 2154W        W 6218   2.929   2.384   3.334 -0.1319  0.0969 -0.0581
 2155W        W 6219   6.623   8.510   2.644  0.1815 -0.0387 -0.1641
 2156W        W 6220   2.808   6.605   1.096 -0.3902 -0.2052 -0.0449
 2157W        W 6221   2.662   9.431   9.425  0.1554 -0.0505  0.3484
 2158W        W 6222   4.705   8.697   8.680 -0.0552  0.2104 -0.1164
 2159W        W 6223   5.815   6.532   1.689 -0.1005  0.3745  0.0287
 2160W        W 6224   2.861   0.996   2.897 -0.4360  0.1178  0.1665
 2161W        W 6225   8.709   9.639   9.833 -0.1343  0.1535  0.2724
 2162W        W 6226   8.497   6.434   2.736 -0.0381 -0.1191  0.1254
 2163W        W 6227   5.534  10.587  10.643  0.0265 -0.0398  0.1919
 2164W        W 6228   4.217   5.599   1.981  0.2371 -0.1172  0.2087
 2165W        W 6229   9.786   1.524   9.106  0.0381 -0.2546 -0.1158
 2166W        W 6230   0.155   7.173   7.611  0.1414  0.2315 -0.2413
 2167W        W 6231   6.251   5.676   3.649  0.0151  0.1778 -0.2309
 2168W        W 6232   1.765   5.865   2.804  0.2678 -0.1760 -0.1346
 2169W        W 6233   7.809   4.851   7.818  0.2154  0.0568  0.0963
 2170W        W 6234   0.652   6.987   7.138 -0.0538  0.0937 -0.1461
 2171W        W 6235   2.061   2.655   2.322 -0.0402  0.2963 -0.1020
 2172W        W 6236   9.783   5.904  10.218  0.0658  0.1560  0.0077
 2173W        W 6237   3.142   1.187   2.005 -0.2347  0.1136  0.1189
 2174W        W 6238   7.221   7.613   9.256 -0.3498 -0.1011  0.2928
 2175W        W 6239   5.122   5.253   8.759  0.0696 -0.0998  0.2659
 2176W        W 6240   9.277   6.177   2.599 -0.1289 -0.1579  0.3230
 2177W        W 6241   4.330   1.867   9.644 -0.0477  0.2603 -0.1761
 2178W        W 6242   9.322   9.183   8.579 -0.0676  0.2359  0.1660
 2179W        W 6243   9.014   3.051   8.831 -0.0713  0.1630  0.1298
 2180W        W 6244   4.599   7.774   3.330 -0.1226 -0.0880  0.1823
 2181W        W 6245   9.436   2.775   7.467 -0.0855  0.2558 -0.2012
 2182W        W 6246   2.604   9.589   8.962 -0.0956  0.1989 -0.3464
 2183W        W 6247   5.647   5.819   2.148  0.1014 -0.2321  0.0224
 2184W        W 6248   8.778   0.970   0.590  0.2010 -0.1502 -0.1474
 2185W        W 6249   5.249   0.467   9.323  0.1383  0.2296  0.0067
 2186W        W 6250   1.283   4.991   8.605  0.2553  0.2037 -0.1662
 2187W        W 6251   0.734   9.573   0.527  0.2102 -0.0381 -0.3311
 2188W        W 6252   4.876   8.685   0.464 -0.0144 -0.0512  0.2024
 2189W        W 6253   9.505   2.760   8.340  0.2264  0.1957  0.0409
 2190W        W 6254   8.906   8.235   9.382 -0.2752  0.1580 -0.1614
 2191W        W 6255   4.715   2.997   1.078  0.0130  0.1635 -0.2144
 2192W        W 6256   5.302   0.276   0.108 -0.1169  0.4844  0.1446
 2193W        W 6257   9.585   8.554   8.028  0.2116 -0.1753  0.0192
 2194W        W 6258   5.970   0.423   1.932  0.0874 -0.0441 -0.2521
 2195W        W 6259   9.038   0.235   9.524 -0.0040  0.1443  0.0259
 2196W        W 6260   8.213   0.370   8.837  0.1127 -0.1585  0.0893
 2197W        W 6261   9.786   1.137   1.411  0.2845  0.0739  0.2106
 2198W        W 6262   4.019   1.359   7.368  0.0847 -0.2785 -0.1092
 2199W        W 6263   1.554  10.509   0.967  0.0476  0.1439 -0.1470
 2200W        W 6264  10.757   5.371   7.568  0.2527 -0.4479 -0.3401
 2201W        W 6265   8.095   5.381   1.831  0.1588  0.0151 -0.2569
 2202W        W 6266   9.204   6.107   8.574 -0.0296 -0.1724  0.0185
 2203W        W 6267   2.955   6.171   2.280 -0.1742 -0.1198 -0.0417
 2204W        W 6268  10.828   7.381   1.406  0.1293  0.3402  0.0628
 2205W        W 6269   7.194   0.659   8.609 -0.2961 -0.0999  0.0635
 2206W        W 6270   5.990   9.028   0.130  0.0521  0.1823  0.1054
 2207W        W 6271   5.045   1.061   7.225  0.2235 -0.0877 -0.0440
 2208W        W 6272   2.164   1.989   2.689  0.0526  0.2776 -0.1496
 2209W        W 6273   2.715   9.907   3.304 -0.2044 -0.2077 -0.0756
 2210W        W 6274   5.552   9.373  10.096 -0.2515 -0.0638  0.2775
 2211W        W 6275   9.340  10.557   8.871 -0.3103  0.0289  0.1491
 2212W        W 6276   1.964   2.529  10.781  0.2490  0.1058 -0.0622
 2213W        W 6277   2.716   5.931   1.863  0.0204  0.1885  0.1363
 2214W        W 6278   4.387   5.831   6.957 -0.2178 -0.1287 -0.0632
 2215W        W 6279  10.638   1.158   2.526 -0.0406  0.0118  0.1923
 2216W        W 6280   9.758   9.222   1.575  0.1740 -0.0666  0.0030
 2217W        W 6281  10.632   1.435  10.805 -0.1352  0.0146 -0.1196
 2218W        W 6282   6.158   8.724   0.923  0.1100 -0.0551  0.0884
 2219W        W 6283   5.316   3.414   9.577 -0.0903 -0.1335  0.2714
 2220W        W 6284   5.511   9.069  10.698 -0.0553 -0.2292  0.0433
 2221W        W 6285   6.509   0.236   9.388 -0.0343  0.0853 -0.1871
 2222W        W 6286   4.979   3.847   1.697 -0.0039  0.1266 -0.1633
 2223W        W 6287   2.665   7.315   2.168  0.1093  0.2130  0.2468
 2224W        W 6288   4.188   7.761   2.328 -0.0563  0.2233  0.1175
 2225W        W 6289   3.865  10.474   8.620 -0.1274  0.0914  0.1695
 2226W        W 6290   2.161   5.234   1.232 -0.0444 -0.2995 -0.2572
 2227W        W 6291   3.022   7.401   2.694  0.1263  0.1355  0.1241
 2228W        W 6292   3.064   8.264   8.670  0.2216  0.0869  0.3566
 2229W        W 6293   9.131   6.646  10.141  0.1232 -0.2702  0.3640
 2230W        W 6294   4.332   8.148   9.101 -0.2586 -0.1883  0.0601
 2231W        W 6295   5.994   9.282  10.582  0.3092 -0.1385  0.2519
 2232W        W 6296   9.724   3.304   3.479 -0.0540  0.1185 -0.0120
 2233W        W 6297   3.077   6.410   0.716  0.1793 -0.1678  0.0383
 2234W        W 6298   3.782   2.710   2.607 -0.1072 -0.2684  0.2045
 2235W        W 6299   7.286   1.364   1.019  0.2292  0.2694 -0.1198
 2236W        W 6300   4.984   1.808   8.935  0.1438 -0.1622 -0.2922
 2237W        W 6301   8.265  10.638   3.119 -0.0090 -0.2087  0.0898
 2238W        W 6302   5.714   0.406   2.466 -0.1283  0.1595  0.1280
 2239W        W 6303  10.332   3.988   1.799  0.1899 -0.1363  0.2031
 2240W        W 6304   5.783   7.371   1.252  0.5422 -0.2205 -0.0008
 2241W        W 6305   3.335   6.176   0.357  0.1570  0.3913  0.0222
 2242W        W 6306   0.747   7.243   3.701  0.0353  0.0809 -0.1174
 2243W        W 6307   1.434   9.321   1.766  0.2174 -0.1842 -0.2111
 2244W        W 6308   5.454   7.639  10.794  0.2615 -0.0187  0.1961
 2245W        W 6309   5.361   6.799   0.514 -0.1539 -0.2139 -0.2078
 2246W        W 6310   9.280   1.904   7.607  0.1171 -0.1689  0.0832
 2247W        W 6311   3.202   7.534   1.019  0.0101 -0.3225  0.0684
 2248W        W 6312   5.062   5.838   0.276 -0.1271  0.0210 -0.1466
 2249W        W 6313   6.453   0.524   3.123 -0.0892  0.1682 -0.3767
 2250W        W 6314   2.414  10.356   2.128 -0.0110  0.4341 -0.1140
 2251W        W 6315   9.749   2.405   2.724  0.1072 -0.0673 -0.2932
 2252W        W 6316   0.804   9.530   8.142  0.0902  0.1048  0.3083
 2253W        W 6317   6.941   3.671   0.332 -0.2800 -0.1921  0.1482
 2254W        W 6318   8.843   4.302  10.115  0.0478 -0.0336  0.0835
 2255W        W 6319   2.110   9.913   8.458 -0.3807 -0.0740  0.0503
 2256W        W 6320  10.240   3.895   2.486 -0.4477  0.2885 -0.0370
 2257W        W 6321   8.995   9.285   9.222  0.0962  0.1559 -0.0968
 2258W        W 6322   4.691   8.919   8.221 -0.1155 -0.0262  0.1671
 2259W        W 6323   8.721   8.370   2.567 -0.1089 -0.0282  0.1986
 2260W        W 6324   1.566   5.552   3.191  0.3223 -0.0490 -0.1470
 2261W        W 6325   7.506   3.233   0.984  0.3277  0.1251  0.3296
 2262W        W 6326   2.491   4.626   8.959  0.0150  0.0275 -0.2417
 2263W        W 6327   9.975   1.650   1.381 -0.1367 -0.1432  0.1054
 2264W        W 6328   5.156   5.738   1.843 -0.3050 -0.0605  0.0091
 2265W        W 6329   8.857   7.901   0.233  0.2669 -0.2759 -0.1530
 2266W        W 6330  10.669   0.813   1.572 -0.0669  0.0464  0.0752
 2267W        W 6331   9.916   0.709  10.561  0.0140 -0.0692  0.1747
 2268W        W 6332   1.475   6.541   9.205  0.3343  0.0685  0.3599
 2269W        W 6333   0.560   5.475   3.665  0.1744 -0.0213  0.0970
 2270W        W 6334   6.874   5.202   7.833 -0.2741  0.1408  0.1020
 2271W        W 6335   5.661   7.676   0.278  0.0328 -0.1345  0.1128
 2272W        W 6336   9.522   4.803   7.963 -0.3170 -0.1289  0.2765
 2273W        W 6337   4.299   3.797   2.034  0.0427  0.1252 -0.1192
 2274W        W 6338   5.946   1.878   0.959  0.1754 -0.4125  0.1931
 2275W        W 6339   3.773   0.724   8.803 -0.0043 -0.0703 -0.1994
 2276W        W 6340   4.142   8.384   1.683 -0.2686 -0.0728  0.0751
 2277W        W 6341   6.575   1.359   9.002 -0.0768 -0.1369  0.0230
 2278W        W 6342   0.008   4.988   0.451  0.0511  0.2921  0.2127
 2279W        W 6343   6.222   1.533  10.353 -0.2477  0.1782 -0.1563
 2280W        W 6344   2.076   4.716   1.991  0.3095 -0.1218 -0.0703
 2281W        W 6345   1.973  10.077   9.390  0.4128 -0.1262  0.2136
 2282W        W 6346  10.759   1.916  10.274  0.1971 -0.2331 -0.0607
 2283W        W 6347   5.824   6.162   9.513 -0.0252 -0.0283 -0.0848
 2284W        W 6348   8.534   8.844   8.703  0.0658  0.0342  0.0373
 2285W        W 6349  10.749   5.784   0.566  0.1664  0.3919 -0.1608
 2286W        W 6350   3.316   8.589   2.011 -0.0803 -0.3033  0.0384
 2287W        W 6351   7.271   6.487   7.486  0.0373 -0.2545  0.0105
 2288W        W 6352   3.608   4.779   3.361 -0.1101  0.1501  0.4201
 2289W        W 6353   6.814   0.217   8.413  0.0905  0.2105 -0.2924
 2290W        W 6354   0.602   0.456   1.602  0.3460  0.2086  0.2418
 2291W        W 6355   4.030   2.757   9.453  0.1032  0.1591 -0.4044
 2292W        W 6356   4.844   0.463   3.949  0.1471  0.1363  0.0002
 2293W        W 6357   8.968   2.932   7.329 -0.0478  0.0425 -0.3616
 2294W        W 6358   9.806   9.524   2.032 -0.2735  0.3333  0.0807
 2295W        W 6359   0.011   3.922   9.958  0.0109  0.2373 -0.0112
 2296W        W 6360   6.712  10.051   9.248 -0.0546 -0.0203  0.0088
 2297W        W 6361   5.275  10.525   0.948 -0.0294  0.1570  0.3209
 2298W        W 6362   3.782   3.938   0.334  0.0143  0.3173 -0.1655
 2299W        W 6363   7.391   5.029   9.785 -0.2063 -0.2590 -0.0836
 2300W        W 6364   0.034   4.858   9.666  0.1281 -0.1026 -0.1651
 2301W        W 6365   8.296   3.817   7.424 -0.1270  0.0593 -0.0047
 2302W        W 6366   8.412   7.208   0.375  0.1712  0.0477 -0.2487
 2303W        W 6367   2.113   1.773   9.827  0.0267  0.2457  0.1905
 2304W        W 6368   0.038   8.081   9.086 -0.0400  0.0581  0.1336
 2305W        W 6369  10.139   7.509   0.975  0.0733 -0.3788 -0.1557
 2306W        W 6370   3.360   4.777   9.350  0.0739 -0.0559 -0.1079
 2307W        W 6371   2.206   8.557   1.758 -0.0473  0.1368 -0.4588
 2308W        W 6372   0.450   6.864   1.392  0.1286  0.1238 -0.1100
 2309W        W 6373   8.043   5.502   1.092  0.1886 -0.2667  0.1575
 2310W        W 6374   7.185   2.858   9.434 -0.0971  0.2149  0.1701
 2311W        W 6375   0.041   3.639  10.788  0.2463 -0.0872 -0.2854
 2312W        W 6376   7.026  10.127   2.653 -0.2172 -0.1687  0.2586
 2313W        W 6377   0.937   0.344   2.471  0.2784  0.0308  0.1560
 2314W        W 6378   3.798   2.616   1.577 -0.0262  0.1100  0.1877
 2315W        W 6379   7.136   8.749   0.865  0.2564  0.0848 -0.2975
 2316W        W 6380  10.513  10.736   2.399 -0.1979  0.3185 -0.3784
 2317W        W 6381   8.164   8.258   0.373  0.0753  0.0267  0.0585
 2318W        W 6382   2.976   0.423   8.984  0.0116 -0.2974 -0.1450
 2319W        W 6383   6.574   2.010   0.211 -0.1990 -0.1033  0.2286
 2320W        W 6384   7.690   3.634   0.301 -0.3645  0.1389  0.0368
 2321W        W 6385  10.912   1.999   1.542  0.0364 -0.3780 -0.1557
 2322W        W 6386   7.620   9.359   9.106  0.4021 -0.1159 -0.2402
 2323W        W 6387   2.168   4.371   8.106  0.3682  0.3557  0.1527
 2324W        W 6388   2.696   7.528   9.884 -0.4363  0.0258 -0.3279
 2325W        W 6389   1.230   4.760  10.153 -0.2643 -0.2894  0.0431
 2326W        W 6390  10.897   4.550   8.703  0.2290  0.0722  0.2643
 2327W        W 6391   5.474   8.982   9.265 -0.0917  0.1539  0.5368
 2328W        W 6392   0.751   4.273   9.553  0.0635  0.1782 -0.1086
 2329W        W 6393   9.391   0.049   7.897 -0.1119  0.0357 -0.2908
 2330W        W 6394   5.731   1.526   9.430 -0.1588 -0.1183  0.1585
 2331W        W 6395   7.226  10.588   9.658  0.1408  0.2164  0.3435
 2332W        W 6396  10.357   9.291   9.893  0.0169 -0.1225 -0.0961
 2333W        W 6397   7.864   6.339   2.750  0.4316  0.1380  0.0316
 2334W        W 6398   5.797   5.205   0.060 -0.0327 -0.1837 -0.1740
 2335W        W 6399   1.417   4.683   3.482 -0.2081 -0.0342 -0.0701
 2336W        W 6400   1.709   7.540   2.731  0.1880  0.2384 -0.5001
 2337W        W 6401   1.340   8.268   8.593  0.2284  0.0015 -0.2095
 2338W        W 6402   0.469   7.505   9.698 -0.0132  0.1285 -0.0930
 2339W        W 6403  10.783   1.502   9.940  0.0958  0.2732  0.2100
 2340W        W 6404   1.150   1.751   0.515  0.1085 -0.1442  0.1845
 2341W        W 6405   8.770   5.487   7.652  0.0482 -0.1141 -0.0731
 2342W        W 6406   0.557   4.039   0.379  0.2132 -0.1168 -0.0444
 2343W        W 6407   6.040  10.917   9.644  0.2535  0.0921 -0.3023
 2344W        W 6408   5.978   4.295   2.827  0.2086 -0.0072  0.1617
 2345W        W 6409   6.962   6.643   7.089  0.1119  0.0255  0.1169
 2346W        W 6410   8.341   8.030   8.035  0.0238  0.0339 -0.0573
 2347W        W 6411  10.285   4.726   2.525  0.1825  0.1824  0.0447
 2348W        W 6412   4.552   9.182   8.702  0.0815 -0.0011 -0.0777
 2349W        W 6413   5.492   7.190   8.281  0.0256  0.1435 -0.2030
 2350W        W 6414   2.777   4.635   3.801 -0.1105 -0.0502  0.3127
 2351W        W 6415   5.546   8.672   8.674 -0.0483  0.0957 -0.3859
 2352W        W 6416   7.120   4.925   8.864 -0.0568  0.1690 -0.1077
 2353W        W 6417   0.169   5.383   9.078  0.1138 -0.1016 -0.0736
 2354W        W 6418   0.663   0.362   7.915 -0.0763 -0.3631 -0.1533
 2355W        W 6419   6.986   3.212   9.819  0.1880 -0.0716  0.0841
 2356W        W 6420   4.538   5.187   0.534 -0.2889 -0.1861 -0.1613
 2357W        W 6421   9.335   1.434   8.293  0.0071  0.1370  0.0906
 2358W        W 6422   7.676   1.846   1.126  0.3644 -0.1598  0.1549
 2359W        W 6423   9.642   9.296   0.081 -0.2101  0.0111  0.0105
 2360W        W 6424   4.395  10.344   3.454  0.0481  0.2290  0.0722
 2361W        W 6425   5.101   6.556   3.509  0.1772 -0.0102 -0.0999
 2362W        W 6426   7.993   7.041   0.589  0.1854 -0.4166 -0.1471
 2363W        W 6427   8.529   8.933   0.509  0.0013 -0.0721 -0.3984
 2364W        W 6428   5.012   1.476   7.585 -0.4353 -0.0589  0.1061
 2365W        W 6429   8.232  10.178   1.342  0.2934  0.0507 -0.0280
 2366W        W 6430   1.389   6.348   0.318  0.0897  0.0403 -0.0103
 2367W        W 6431   9.836   4.196   2.264 -0.2723 -0.1141 -0.1702
 2368W        W 6432   5.920   7.595   2.097  0.1052 -0.3491 -0.2530
 2369W        W 6433   2.807   0.670   8.509 -0.0261 -0.2642 -0.0071
 2370W        W 6434  10.110   8.603   0.253 -0.1567 -0.3029  0.0257
 2371W        W 6435   8.027   9.506   2.712  0.0270  0.0852  0.1187
 2372W        W 6436   8.843   3.399   9.153  0.2316  0.0194 -0.0632
 2373W        W 6437   2.345   0.915   7.647  0.3574  0.0512 -0.0321
 2374W        W 6438   9.105   4.647   7.654 -0.1140 -0.2607  0.2560
 2375W        W 6439   6.048   1.954   9.533  0.0592 -0.0940 -0.2825
 2376W        W 6440   9.533   1.463   7.257 -0.0593  0.0655 -0.0017
 2377W        W 6441   7.958   7.478   8.630  0.0567  0.0438  0.0294
 2378W        W 6442   9.978   6.563   1.852 -0.1086  0.1997  0.0405
 2379W        W 6443   7.731   6.239   3.344  0.1577  0.2113 -0.4456
 2380W        W 6444   4.053   6.884   7.068 -0.0366 -0.1992 -0.3539
 2381W        W 6445   8.718  10.182   1.728  0.0638  0.1663 -0.0256
 2382W        W 6446   2.888   4.052   2.947 -0.1143 -0.1460 -0.0221
 2383W        W 6447   2.998   5.423  10.598  0.0961  0.1744 -0.0692
 2384W        W 6448  10.688   4.070  10.834  0.0204  0.3119  0.0292
 2385W        W 6449   0.921   7.374   2.021 -0.0487  0.2146  0.0730
 2386W        W 6450   2.422   1.385   0.857  0.0335 -0.2164 -0.0056
 2387W        W 6451   2.651   6.752   0.605 -0.1127 -0.2124 -0.1016
 2388W        W 6452   4.052   1.517   2.123  0.0513 -0.0538  0.0989
 2389W        W 6453   2.231   8.837  10.427  0.0695  0.2203  0.2885
 2390W        W 6454   7.667   3.028   8.535 -0.0273  0.0633 -0.1135
 2391W        W 6455   7.658   2.972   9.359 -0.1359  0.1017 -0.0244
 2392W        W 6456   7.986   9.175   3.108 -0.1023 -0.0048  0.1564
 2393W        W 6457   0.133   4.044  10.427 -0.3954 -0.1099 -0.0797
 2394W        W 6458   4.738  10.845   8.272  0.3876  0.1610  0.3444
 2395W        W 6459   1.973   2.733   7.903 -0.0305 -0.1727 -0.2774
 2396W        W 6460   8.254   3.809   1.446 -0.1755  0.1283  0.0015
 2397W        W 6461   5.005   0.385   3.409  0.0616 -0.2319  0.3006
 2398W        W 6462   9.853   8.551   3.310 -0.3685 -0.3065 -0.1369
 2399W        W 6463   2.145   2.724   9.981 -0.0387 -0.0019 -0.2596
 2400W        W 6464   0.261   4.516   1.855 -0.3252 -0.3785  0.2799
 2401W        W 6465   6.334   8.919   9.444 -0.0771  0.0627  0.0094
 2402W        W 6466   8.815   6.349   8.378 -0.0567 -0.0188 -0.0672
 2403W        W 6467   8.866   7.953  10.354  0.2090  0.1603 -0.1314
 2404W        W 6468  10.120  10.296   8.244 -0.1808  0.3277  0.2547
 2405W        W 6469   7.256   0.073   8.188 -0.2600 -0.2272  0.3634
 2406W        W 6470   5.098   8.252   2.614  0.0561 -0.2264  0.2096
 2407W        W 6471   7.970   8.729   1.344  0.1265 -0.0695  0.1222
 2408W        W 6472   9.768   1.939   3.131  0.0523  0.3581 -0.2666
 2409W        W 6473   1.959   7.522   0.284 -0.1302  0.1024  0.3069
 2410W        W 6474   2.164   6.685  10.687  0.1209 -0.4153 -0.3249
 2411W        W 6475   9.771   0.306   2.464 -0.1330 -0.3110 -0.5435
 2412W        W 6476   7.289   9.272   1.222 -0.0013 -0.2010  0.1087
 2413W        W 6477   7.017   9.181   7.647  0.1813 -0.0706 -0.0815
 2414W        W 6478  10.464   2.981   2.029  0.2485  0.2449  0.1004
 2415W        W 6479   7.728   6.626   1.902 -0.4902  0.0051 -0.0784
 2416W        W 6480   2.337   2.080   9.417  0.1311 -0.2930 -0.1329
 2417W        W 6481   5.254   0.931  10.088  0.0542  0.0720 -0.1286
 2418W        W 6482   9.463   4.511   3.582 -0.2299 -0.0052  0.1122
 2419W        W 6483   0.788   3.805   7.715  0.1088 -0.2360 -0.1972
 2420W        W 6484   7.787   5.150   1.464  0.1442 -0.2931  0.1097
 2421W        W 6485   0.113   2.129   2.521 -0.0341  0.1547 -0.1023
 2422W        W 6486   4.320   8.136   3.553 -0.5544 -0.0171  0.0945
 2423W        W 6487   1.897   3.753   1.749  0.0718  0.1137  0.2773
 2424W        W 6488   0.822   3.130   0.967  0.4034  0.2446  0.0650
 2425W        W 6489   4.223   2.572   1.818  0.1493 -0.0053  0.1966
 2426W        W 6490   1.554   4.313   8.061  0.0354  0.4418 -0.0272
 2427W        W 6491   2.458   2.820   2.597 -0.2162  0.0614 -0.1550
 2428W        W 6492   7.889   4.948   2.012  0.2161  0.0332  0.0431
 2429W        W 6493  10.419   6.231   9.950  0.0633 -0.0770 -0.0442
 2430W        W 6494   4.444   9.848   2.163  0.1026  0.2552 -0.3146
 2431W        W 6495   0.698  10.143   4.024 -0.0076 -0.2238 -0.2236
 2432W        W 6496   5.034   6.752   1.416  0.1201  0.1318 -0.0819
 2433W        W 6497   5.823   0.017   0.453  0.0618  0.1923  0.1104
 2434W        W 6498   2.667   2.804   0.368  0.0106 -0.0029 -0.0245
 2435W        W 6499   0.558   9.587   3.194  0.2907 -0.0037  0.1328
 2436W        W 6500   0.326   3.238  10.727  0.0151 -0.0480  0.2811
 2437W        W 6501   8.931   1.997   2.341 -0.0713  0.0358 -0.0848
 2438W        W 6502   7.235   1.209   1.712  0.0473  0.0274 -0.0732
 2439W        W 6503   7.994   9.873   1.703  0.2536 -0.1788  0.0880
 2440W        W 6504   0.081   9.004   0.595  0.0211  0.2473 -0.1072
 2441W        W 6505   7.714   5.156   3.094  0.0289  0.0442 -0.0424
 2442W        W 6506   0.569   3.123   0.560 -0.4430 -0.3491  0.0728
 2443W        W 6507   6.717   5.725   0.201 -0.2910  0.2237  0.0572
 2444W        W 6508   3.068   9.773   0.585 -0.0351  0.0539 -0.1865
 2445W        W 6509   6.172   6.455   0.222  0.2154 -0.2241 -0.0769
 2446W        W 6510   1.297   0.577   9.153  0.0819  0.0832  0.2803
 2447W        W 6511   4.619   7.356   8.865 -0.1098 -0.1131  0.1615
 2448W        W 6512  10.303   1.054   2.939  0.2382  0.0483 -0.0848
 2449W        W 6513   6.459   0.544   1.458 -0.2445 -0.1578 -0.3172
 2450W        W 6514   7.914   3.178   8.971 -0.1780  0.2053  0.0018
 2451W        W 6515   4.740   6.187  10.964  0.2390  0.1365  0.0899
 2452W        W 6516  10.522   4.362   0.305 -0.1015 -0.3165 -0.1264
 2453W        W 6517   2.267   3.983   9.675 -0.0447  0.0779  0.1085
 2454W        W 6518   3.362   7.331   7.692  0.0848  0.1139 -0.3449
 2455W        W 6519   7.365   3.713   0.726 -0.0809 -0.0088  0.0293
 2456W        W 6520   6.021   3.388   3.352 -0.0624  0.1798 -0.0787
 2457W        W 6521   7.821   0.405  10.167  0.0072 -0.0961  0.3249
 2458W        W 6522   8.593   2.516   0.909  0.0441 -0.0398 -0.2141
 2459W        W 6523   3.576   6.437   9.260 -0.1075 -0.1595  0.0948
 2460W        W 6524   8.591   7.627   7.902  0.0508 -0.0557 -0.1084
 2461W        W 6525   7.416   2.538   9.145  0.0026  0.0133  0.1197
 2462W        W 6526   6.823   7.637   9.638  0.0961 -0.2497  0.3459
 2463W        W 6527   8.969  10.241   2.247 -0.2807  0.1781 -0.1969
 2464W        W 6528   4.216   1.100  10.444 -0.0310  0.2558 -0.2531
 2465W        W 6529  10.359  10.556   0.020 -0.1166  0.0157 -0.1859
 2466W        W 6530   5.827   1.910   3.616  0.1339 -0.5805  0.1391
 2467W        W 6531   0.414   3.871   9.440 -0.0589  0.0882 -0.5317
 2468W        W 6532   8.396   9.341   1.970 -0.1082  0.1189  0.1928
 2469W        W 6533   0.299   3.647   7.823 -0.0050 -0.2497 -0.1001
 2470W        W 6534   9.335   0.014   9.807 -0.1499 -0.0107 -0.3754
 2471W        W 6535   3.033  10.383   0.473 -0.2784 -0.4761  0.0908
 2472W        W 6536   6.768   3.210   2.306 -0.1429 -0.3529  0.1885
 2473W        W 6537   4.229   5.082   8.757  0.0132  0.1603 -0.0744
 2474W        W 6538   3.493   0.687   9.256 -0.0023  0.1208  0.0708
 2475W        W 6539   3.914   0.831   2.510 -0.0294 -0.2809 -0.2181
 2476W        W 6540   9.024   0.542   2.192 -0.1869 -0.0939  0.5616
 2477W        W 6541   0.874   4.068   1.635 -0.1971  0.2273  0.1732
 2478W        W 6542   8.073   6.477   9.178  0.3114 -0.0717  0.1890
 2479W        W 6543  10.249   7.253  10.050 -0.1796 -0.1116  0.0153
 2480W        W 6544   3.014   9.135  10.939 -0.1523 -0.3067  0.1320
 2481W        W 6545   5.625   4.843   9.057 -0.0659 -0.0387  0.3354
 2482W        W 6546   3.665   9.656   2.669 -0.0458 -0.1548  0.0042
 2483W        W 6547   3.346   3.742   0.584 -0.1532 -0.1897  0.0532
 2484W        W 6548  10.636   8.106  10.121  0.2593 -0.1031 -0.2507
 2485W        W 6549   0.690   8.772   8.922  0.1963 -0.0108 -0.1036
 2486W        W 6550   6.252   5.993   9.765 -0.3231  0.0130 -0.1691
 2487W        W 6551   4.428   4.284   1.924 -0.4111 -0.1290  0.1480
 2488W        W 6552   6.515  10.492  10.968  0.1377 -0.1039  0.1375
 2489W        W 6553   3.036   1.274   8.614 -0.0055 -0.0828  0.0342
 2490W        W 6554   6.206   4.679   2.626 -0.1684 -0.0261  0.1666
 2491W        W 6555   1.045   3.168   0.506 -0.2337 -0.1041  0.0987
 2492W        W 6556   7.765   5.672   9.472 -0.1489  0.0131 -0.2954
 2493W        W 6557   1.407   3.458   8.525  0.0367 -0.0230  0.0140
 2494W        W 6558   3.353   4.515  10.394  0.2463 -0.0184 -0.0891
 2495W        W 6559   7.930   3.056   0.748 -0.0392 -0.1919 -0.1014
 2496W        W 6560   1.835   8.918   6.807 -0.1587 -0.2065  0.1407
 2497W        W 6561  10.475  10.659  10.519 -0.0544  0.0745  0.2424
 2498W        W 6562  10.151   6.605   3.584  0.3282 -0.4340  0.1547
 2499W        W 6563   0.841   6.688   7.961  0.0823 -0.2500 -0.0435
 2500W        W 6564   3.443   9.969   9.165 -0.1005  0.0372 -0.0684
 2501W        W 6565   5.046   8.123   2.012  0.0919 -0.0583 -0.2097
 2502W        W 6566   3.270   0.362   8.329  0.1441  0.1218 -0.0128
 2503W        W 6567   4.897   5.234   6.953 -0.0871 -0.1994  0.0609
 2504W        W 6568   6.965   0.515  10.166 -0.2632  0.0508  0.0130
 2505W        W 6569   3.363   6.451   2.574  0.2390  0.0053  0.1823
 2506W        W 6570   1.810   5.090   2.335 -0.1365 -0.0653 -0.0696
 2507W        W 6571   4.422   8.489   7.482  0.1510 -0.0996 -0.1943
 2508W        W 6572  10.879   1.315   8.833 -0.2582 -0.1625 -0.1665
 2509W        W 6573   4.173   7.226   7.863  0.1350  0.4120  0.1403
 2510W        W 6574   2.700   5.912   8.269 -0.1620 -0.1489  0.1192
 2511W        W 6575   5.211   7.409   1.183  0.1319 -0.1781  0.1489
 2512W        W 6576  10.426   0.973   0.785  0.2603  0.0785 -0.2431
 2513W        W 6577   3.240   0.326   1.590  0.0428  0.1568  0.1972
 2514W        W 6578   0.684   5.801   7.929  0.1855 -0.0006  0.1908
 2515W        W 6579   5.824   3.467   2.879 -0.2458  0.0768  0.0207
 2516W        W 6580   4.839   2.218   8.655 -0.0733  0.2075  0.0613
 2517W        W 6581   0.270   4.881   2.217 -0.2181 -0.1007  0.0726
 2518W        W 6582   6.822   1.950   2.547 -0.2509 -0.0995  0.0994
 2519W        W 6583   7.789  10.334  10.865  0.0913  0.1375  0.0762
 2520W        W 6584   0.703   9.900   3.575 -0.1897 -0.2569  0.1085
 2521W        W 6585  10.035   7.098   1.943  0.0295  0.2632 -0.0114
 2522W        W 6586   3.872  10.914   0.217  0.3138  0.0192 -0.0606
 2523W        W 6587   3.399   9.622   8.705  0.0301  0.2154  0.1777
 2524W        W 6588   7.324   7.628   2.279 -0.1124  0.1101 -0.3998
 2525W        W 6589   8.038   3.331   3.358 -0.0683 -0.1209  0.3249
 2526W        W 6590   9.920   2.192  10.773  0.2278 -0.1122  0.2046
 2527W        W 6591   1.986   5.449   7.373 -0.1977  0.1315  0.1399
 2528W        W 6592   0.754   7.140   9.975 -0.1354 -0.1058  0.2789
 2529W        W 6593   7.847   0.931   1.820  0.0233  0.2849  0.2094
 2530W        W 6594   3.817   1.553   4.097  0.4340 -0.1027  0.1526
 2531W        W 6595   5.925   8.530   9.600  0.0364  0.2415 -0.1557
 2532W        W 6596   5.483   2.402   7.909  0.0324  0.0111 -0.1592
 2533W        W 6597   0.207   4.460  10.170  0.2744 -0.1734  0.5007
 2534W        W 6598   0.217   3.926   2.768  0.1364 -0.2564 -0.1845
 2535W        W 6599   3.698   0.497   3.448 -0.1358 -0.0412 -0.3870
 2536W        W 6600   7.495   9.419   2.912 -0.1588 -0.2782  0.0430
 2537W        W 6601   2.438   6.044  10.027 -0.0568 -0.1488  0.0215
 2538W        W 6602   1.143   2.764   9.994 -0.1798 -0.1839 -0.1219
 2539W        W 6603   9.102   5.015  10.240 -0.2229 -0.1964 -0.1410
 2540W        W 6604   4.465   9.722   9.440 -0.0600 -0.0981  0.0751
 2541W        W 6605   6.270   5.250   1.852  0.1674 -0.1297 -0.0311
 2542W        W 6606   7.234   9.186   9.347  0.1692  0.0338 -0.0063
 2543W        W 6607   4.441   5.445  10.687  0.0825  0.2987 -0.1862
 2544W        W 6608   3.831   6.686   1.175 -0.1997  0.2332 -0.1034
 2545W        W 6609   6.214   4.103   7.131 -0.0309 -0.0587  0.2161
 2546W        W 6610   5.375  10.255   0.520  0.1117  0.2267 -0.3013
 2547W        W 6611   2.087   2.499   2.787 -0.1153  0.1316  0.1617
 2548W        W 6612   0.497   1.908   9.356  0.2445 -0.0489  0.0405
 2549W        W 6613   8.975   9.865  10.212  0.0456  0.0076  0.2047
 2550W        W 6614   2.222   7.004   8.298  0.4262 -0.0225  0.0910
 2551W        W 6615   6.013   2.574   9.876 -0.0011 -0.0594  0.5732
 2552W        W 6616   0.965   8.360   7.349  0.1279  0.1325  0.2460
 2553W        W 6617   5.393   8.883  10.216  0.8135 -0.3275 -0.0619
 2554W        W 6618   6.099   8.536   1.799 -0.0087  0.1658  0.3745
 2555W        W 6619   2.163   1.444   8.585  0.1219  0.1932 -0.2975
 2556W        W 6620   9.447   9.651   9.327  0.1133  0.2820 -0.0388
 2557W        W 6621  10.270   5.673   0.866 -0.1392 -0.1129  0.0674
 2558W        W 6622   3.001   4.010   1.014 -0.1770  0.0853  0.0671
 2559W        W 6623   2.237   9.376   7.600 -0.4541 -0.1542 -0.1339
 2560W        W 6624   6.100   0.899  10.031  0.0105  0.3311 -0.1127
 2561W        W 6625   4.640   1.356   3.417  0.1782 -0.1311 -0.2360
 2562W        W 6626   5.677   6.220  10.585  0.1652 -0.0521 -0.0680
 2563W        W 6627   1.503   2.668   9.456 -0.2108  0.0342  0.3192
 2564W        W 6628   5.171   0.002   9.683 -0.1920 -0.3068 -0.1520
 2565W        W 6629   3.462   9.156   8.850  0.2893 -0.0234 -0.1520
 2566W        W 6630   4.218   5.316   0.152  0.1213  0.0475  0.0728
 2567W        W 6631   9.361   2.158   8.660 -0.2522  0.1704 -0.1091
 2568W        W 6632  10.567   7.342   7.735  0.3157  0.1025 -0.0425
 2569W        W 6633   5.077   5.028   9.183 -0.0084 -0.0051  0.0244
 2570W        W 6634   5.995   7.337   2.619  0.1417  0.0596 -0.0867
 2571W        W 6635   8.974   4.908  10.728 -0.0973 -0.0498  0.0093
 2572W        W 6636   9.785   9.866   9.011 -0.0390  0.1406  0.1941
 2573W        W 6637  10.363   8.783  10.744  0.0136 -0.0309 -0.2764
 2574W        W 6638   8.152   6.698   4.073  0.0881 -0.0872 -0.2558
 2575W        W 6639   9.096   3.250   1.537 -0.2178  0.1325 -0.1555
 2576W        W 6640   1.581  10.304   1.983 -0.0158  0.1279  0.4347
 2577W        W 6641   8.468   8.764  10.153  0.0756 -0.0916  0.0901
 2578W        W 6642   4.421   7.300   2.474  0.1478 -0.2320 -0.2064
 2579W        W 6643   3.386   7.110   2.887 -0.0720  0.1427 -0.1925
 2580W        W 6644   3.033   1.373   2.464 -0.0666  0.2521  0.0479
 2581W        W 6645   3.610   1.823   2.010 -0.1142 -0.0375 -0.3340
 2582W        W 6646   0.318   3.815   0.896  0.0604  0.1427  0.2301
 2583W        W 6647   3.143  10.545   1.701  0.0994 -0.0289 -0.0528
 2584W        W 6648   9.902  10.653   7.877  0.2248 -0.2308 -0.1664
 2585W        W 6649   9.556  10.045   0.850 -0.1790  0.0123  0.0976
 2586W        W 6650  10.726   0.362   0.126  0.0969  0.0955 -0.1568
 2587W        W 6651   8.060   2.560   0.882  0.1578 -0.3848  0.4122
 2588W        W 6652   8.487   5.869   3.861  0.2944 -0.1984 -0.0689
 2589W        W 6653   1.348   3.033  10.429 -0.0628 -0.0517  0.0738
 2590W        W 6654   7.381   3.338   9.508  0.0122  0.2520  0.0240
 2591W        W 6655   9.901   2.429   7.876 -0.1640  0.0956  0.4162
 2592W        W 6656   2.176  10.606   2.832 -0.1073 -0.2222 -0.1203
 2593W        W 6657   0.267   3.047   0.200 -0.0660 -0.4123  0.0847
 2594W        W 6658   8.665   7.083   1.179 -0.1932  0.0155  0.1154
 2595W        W 6659   2.121   7.559   3.036 -0.0665 -0.0815  0.1123
 2596W        W 6660   6.548   1.656   9.930 -0.1708 -0.1744 -0.1923
 2597W        W 6661   5.148   4.262   3.274 -0.0013  0.1305  0.1416
 2598W        W 6662   9.995   4.384   1.776  0.0847  0.1112  0.0318
 2599W        W 6663   1.009   3.099   1.781  0.1426  0.1230 -0.1948
 2600W        W 6664   8.206   1.493   1.368 -0.1797 -0.0235 -0.2185
 2601W        W 6665   5.231   4.733   8.743 -0.3318  0.1677 -0.2836
 2602W        W 6666  10.222   1.375   0.563 -0.0666 -0.1236  0.3199
 2603W        W 6667   3.450   5.811   1.382  0.0039 -0.1226  0.2497
 2604W        W 6668   7.073   8.960   1.955  0.2297  0.1437 -0.0090
 2605W        W 6669  10.156   4.585   0.527 -0.3409  0.1207 -0.0148
 2606W        W 6670   0.405   7.303   8.049  0.1601  0.3046 -0.0290
 2607W        W 6671   0.156   6.266   1.172 -0.3647  0.2607  0.0612
 2608W        W 6672   7.319   8.808   2.528 -0.2599  0.1171 -0.1208
 2609W        W 6673   1.433  10.251   8.071  0.0590 -0.1115  0.0894
 2610W        W 6674   7.238   8.716   3.491 -0.1398 -0.1110  0.0631
 2611W        W 6675   2.839   0.048   1.703  0.1911  0.2187  0.0439
 2612W        W 6676   9.398   6.233   0.617  0.1195 -0.1757 -0.0615
 2613W        W 6677   2.102   5.445   9.964  0.1198  0.0904 -0.1631
 2614W        W 6678   2.229   5.809   9.657  0.0469 -0.2595  0.0291
 2615W        W 6679   0.289   2.941   7.801 -0.1466 -0.2389  0.0662
 2616W        W 6680   6.007   8.466   8.741 -0.1783 -0.0496  0.0351
 2617W        W 6681   4.835  10.209   9.602  0.2159 -0.1362  0.1843
 2618W        W 6682   4.949   4.689  10.733 -0.0373  0.1526 -0.1510
 2619W        W 6683   3.398   2.512  10.963  0.1562 -0.0525  0.0152
 2620W        W 6684  10.614   3.729  10.432  0.1603  0.0468  0.1111
 2621W        W 6685   8.621   5.357   0.495  0.1848  0.2137  0.1184
 2622W        W 6686   2.294   7.951   2.642 -0.0122  0.4956 -0.1495
 2623W        W 6687   8.044   3.866   2.601 -0.1382  0.1215 -0.0628
 2624W        W 6688   0.305   9.314   2.839 -0.1208 -0.2001 -0.1619
 2625W        W 6689   6.138  10.048  10.974 -0.1278  0.2301 -0.0197
 2626W        W 6690   8.960   7.409   9.766  0.3245  0.1574  0.0838
 2627W        W 6691   6.648   8.354  10.194 -0.2077 -0.2533 -0.5110
 2628W        W 6692   2.097   8.488   3.309  0.0471 -0.0498  0.3906
 2629W        W 6693   0.136   0.582   1.948  0.5028  0.1730  0.1632
 2630W        W 6694   6.934   5.794   9.900  0.2036  0.0471 -0.0586
 2631W        W 6695   4.440   2.553   8.722  0.0010  0.0838 -0.0136
 2632W        W 6696   5.771  10.630   2.713  0.3834 -0.0273 -0.0872
 2633W        W 6697   4.322   2.664   9.862 -0.1451  0.0752  0.2731
 2634W        W 6698   9.240   4.003   1.053 -0.0952  0.2317  0.2484
 2635W        W 6699   5.986   3.813   9.701 -0.0299 -0.3304 -0.1007
 2636W        W 6700   5.405   1.664   3.229 -0.1141 -0.3864 -0.0041
 2637W        W 6701   8.743   0.480  10.261 -0.0235  0.2161  0.1378
 2638W        W 6702   4.329   6.783   3.141  0.3190  0.1080  0.0124
 2639W        W 6703   1.912   1.105  10.966  0.0631  0.3992 -0.0182
 2640W        W 6704   9.908   3.214   0.760 -0.0203  0.0909 -0.3011
 2641W        W 6705   9.783   3.316   9.140  0.2972 -0.2101  0.1436
 2642W        W 6706   8.255  10.002   0.499  0.0177  0.1962  0.0074
 2643W        W 6707   5.785   5.879   7.093  0.0048  0.0893  0.2017
 2644W        W 6708   1.506  10.038  10.525  0.0088  0.2125 -0.3835
 2645W        W 6709   7.348   2.141   1.341  0.1116 -0.0415  0.0147
 2646W        W 6710   2.659   1.865   0.759 -0.0202  0.0881  0.1712
 2647W        W 6711  10.305   6.110   1.047  0.0279 -0.2018  0.2333
 2648W        W 6712   0.217   4.169  10.949  0.0987 -0.1851  0.3529
 2649W        W 6713   1.739  10.060   0.453  0.0458  0.1167 -0.0908
 2650W        W 6714   9.562   7.887   9.831  0.1959  0.4220 -0.0972
 2651W        W 6715   8.760   7.626  10.711  0.2705 -0.3192  0.1023
 2652W        W 6716  10.581   3.585   1.621 -0.0927  0.2062 -0.1139
 2653W        W 6717   4.595  10.301  10.426  0.0723  0.0178 -0.0896
 2654W        W 6718   0.520   7.740   7.835 -0.3365 -0.4466  0.1211
 2655W        W 6719   3.081   5.311   0.091  0.0089  0.3280  0.0472
 2656W        W 6720   3.656   1.189   9.518  0.1215 -0.0606  0.1247
 2657W        W 6721   6.474   6.869   8.764  0.2133 -0.1779 -0.0225
 2658W        W 6722   7.753   2.883  10.845 -0.0311 -0.4153 -0.0266
 2659W        W 6723   1.153   2.082   1.412 -0.3309  0.2074 -0.0628
 2660W        W 6724   1.133   3.982   2.354 -0.0018  0.1968 -0.2244
 2661W        W 6725   6.669  10.167   8.495  0.1260 -0.0647  0.0505
 2662W        W 6726   2.988   3.128   0.633 -0.2023  0.1536 -0.3846
 2663W        W 6727  10.826   2.542   0.280  0.1852 -0.2653  0.2411
 2664W        W 6728   6.412   6.740  10.019 -0.1353 -0.0544  0.0128
 2665W        W 6729   5.019   5.979   1.314 -0.1018 -0.4123 -0.2561
 2666W        W 6730   9.028   3.872   2.913  0.1088  0.1461  0.2905
 2667W        W 6731   6.687   2.913   9.370  0.0005 -0.2536 -0.0800
 2668W        W 6732   4.376   9.769   1.653  0.0308  0.0226  0.0498
 2669W        W 6733   8.111   8.943   9.800 -0.1352 -0.1586  0.0974
 2670W        W 6734   5.548   0.957   3.925 -0.2767 -0.2760 -0.2109
 2671W        W 6735   6.834   0.049   0.419 -0.0840  0.0789  0.0669
 2672W        W 6736   0.376   4.166   7.742 -0.3399  0.0503  0.1160
 2673W        W 6737   2.542   8.945   1.541 -0.0874 -0.0065 -0.3128
 2674W        W 6738   5.064   8.490   1.547  0.0337 -0.2428 -0.0844
 2675W        W 6739   0.454   0.654   8.451 -0.0948  0.0036 -0.1720
 2676W        W 6740   4.339   4.699  10.232 -0.0741 -0.1621 -0.0962
 2677W        W 6741   0.213   3.595   8.350  0.1022  0.2878 -0.0098
 2678W        W 6742   1.455   0.476  10.218  0.0157 -0.2101 -0.1301
 2679W        W 6743   4.838   9.021  10.152 -0.0355 -0.1155 -0.1596
 2680W        W 6744   3.700   0.382   2.499 -0.0352  0.5320  0.0104
 2681W        W 6745   3.169   0.767   8.081 -0.2007  0.1016 -0.0155
 2682W        W 6746   8.825   5.909  10.066  0.2888 -0.1285  0.0829
 2683W        W 6747   4.721   1.638   1.051  0.0494 -0.1809 -0.1465
 2684W        W 6748   6.912   5.357   8.764  0.0835  0.3640  0.0930
 2685W        W 6749  10.378   9.568   3.126 -0.1057 -0.1381  0.0394
 2686W        W 6750   7.456   3.678   2.921 -0.1308  0.0448 -0.2077
 2687W        W 6751   9.852   4.819   2.861 -0.0470 -0.2205  0.1802
 2688W        W 6752   5.633   6.257   7.652  0.0838  0.0585  0.1422
 2689W        W 6753   8.366   7.728   0.661 -0.1888 -0.0269  0.0189
 2690W        W 6754   2.729   2.667   8.246  0.2506  0.0837  0.1544
 2691W        W 6755  10.547   7.181   0.056 -0.0985 -0.1637  0.1974
 2692W        W 6756   0.723  10.907   8.333  0.3082  0.1852  0.2162
 2693W        W 6757   1.927   5.885   1.498 -0.1010  0.3281 -0.1223
 2694W        W 6758   9.532   0.414   3.874 -0.1434  0.1903 -0.3583
 2695W        W 6759   7.452   0.902   0.167 -0.2135  0.0034 -0.1370
 2696W        W 6760   1.274   6.535   7.740  0.2174  0.0691  0.3557
 2697W        W 6761   6.318   3.710   0.653  0.2531 -0.1971 -0.2242
 2698W        W 6762   4.856   6.139   9.960  0.2908 -0.1385 -0.2089
 2699W        W 6763  10.697   7.334   9.652  0.0193 -0.2571  0.0572
 2700W        W 6764   7.815   4.486  10.903  0.4755  0.0698  0.0011
 2701W        W 6765   1.235   6.301  10.789 -0.3237 -0.2090  0.0998
 2702W        W 6766  10.770   7.195   2.719  0.0322  0.2178  0.0045
 2703W        W 6767  10.431  10.672  10.006 -0.0151 -0.0515 -0.1895
 2704W        W 6768   6.744   4.824   0.113 -0.1098 -0.5893  0.0961
 2705W        W 6769   3.772   5.993   1.719  0.4854 -0.1458  0.0453
 2706W        W 6770   0.423   4.612   0.653 -0.0269  0.2912 -0.0023
 2707W        W 6771   3.079   4.341   7.094 -0.0691 -0.0812  0.0313
 2708W        W 6772   4.941   2.634   2.117  0.3909 -0.3468  0.0332
 2709W        W 6773   3.098   5.088   2.123  0.0977 -0.0988  0.1660
 2710W        W 6774   2.482  10.074   9.276  0.1287  0.1958 -0.1539
 2711W        W 6775   8.244   7.336   0.896 -0.2852 -0.4871 -0.1782
 2712W        W 6776   2.899   4.912   9.214 -0.1354  0.0174  0.1833
 2713W        W 6777   1.540   9.696   1.420  0.1822  0.0355 -0.1051
 2714W        W 6778   7.693   6.155   9.266  0.1740  0.0018  0.1555
 2715W        W 6779   1.779   8.322   8.354 -0.1216  0.1421  0.0256
 2716W        W 6780   1.484   3.852   9.293  0.0585 -0.1347  0.0498
 2717W        W 6781   8.427   2.343   2.345  0.0244  0.1881 -0.1736
 2718W        W 6782   8.118   4.878  10.280  0.1461 -0.1152  0.2656
 2719W        W 6783   0.168   0.994   2.733  0.2051  0.0994 -0.0531
 2720W        W 6784   5.328   0.255   2.027  0.1950  0.0452 -0.0403
 2721W        W 6785   8.584  10.265   9.506 -0.3532  0.1076 -0.1914
 2722W        W 6786   3.637   6.875   2.513 -0.2710  0.0302  0.1897
 2723W        W 6787   8.352   7.847   1.605 -0.2639  0.1445  0.1785
 2724W        W 6788   3.710   4.923   2.340  0.0829  0.2370 -0.0336
 2725W        W 6789   8.253   0.075   1.512 -0.1280 -0.3045  0.0716
 2726W        W 6790   0.110   8.078   8.152 -0.1757  0.3133 -0.1638
 2727W        W 6791   3.141   5.726   9.592 -0.1451  0.5294  0.0064
 2728W        W 6792   9.149   1.762   7.132 -0.1355  0.3262  0.1490
 2729W        W 6793   7.404   9.123  10.874 -0.0971  0.0636 -0.0257
 2730W        W 6794   7.167   2.800   0.653  0.1481  0.2732 -0.0651
 2731W        W 6795   4.689   1.627   8.531 -0.2893  0.0454  0.5939
 2732W        W 6796   8.486   0.750   0.941 -0.1184 -0.1514 -0.0596
 2733W        W 6797   5.667   2.807   8.112  0.1608  0.0342 -0.1393
 2734W        W 6798   2.348   3.346   3.226 -0.0544 -0.1929  0.1006
 2735W        W 6799   7.278   2.897   7.073 -0.3230 -0.3642  0.1445
 2736W        W 6800   7.741   2.659   0.533  0.4008  0.2712  0.0509
 2737W        W 6801   1.135   3.351   8.002  0.2069 -0.0992  0.0211
 2738W        W 6802   1.309   8.229   0.476 -0.2454 -0.0893 -0.4476
 2739W        W 6803   3.220   4.018   6.814 -0.0117  0.0488 -0.3287
 2740W        W 6804   0.837   5.407  10.875  0.0856 -0.2792 -0.3216
 2741W        W 6805   1.666   2.046   8.503  0.0400  0.1512  0.0983
 2742W        W 6806   3.737   5.407   0.286 -0.1704 -0.1083  0.1166
 2743W        W 6807   6.788   8.887  10.219  0.2887 -0.0954 -0.1352
 2744W        W 6808   6.889   5.113   1.470 -0.1582  0.1402 -0.0971
 2745W        W 6809   4.723   1.140   8.703  0.1633 -0.3237 -0.1843
 2746W        W 6810   9.278   5.712  10.327  0.1870  0.2230  0.1711
 2747W        W 6811   1.174   1.347   7.305  0.0625  0.0697 -0.0379
 2748W        W 6812   7.813   3.405   9.784  0.0526 -0.1093 -0.0529
 2749W        W 6813   4.876   2.497   7.698 -0.1809  0.1556 -0.2360
 2750W        W 6814   6.377   1.058   8.690 -0.0121  0.0245 -0.0475
 2751W        W 6815   4.327   3.296   1.765  0.1295 -0.0109  0.2741
 2752W        W 6816   3.084   6.648   1.556 -0.0877  0.2368  0.1378
 2753W        W 6817   4.869   1.918   1.695  0.0395  0.3644 -0.0512
 2754W        W 6818   0.521   5.943  10.095  0.0910  0.1069  0.0124
 2755W        W 6819   7.785   0.274  10.678 -0.3064 -0.1629 -0.2327
 2756W        W 6820   6.444   1.176   0.820 -0.3357  0.0577  0.3328
 2757W        W 6821   7.616   2.348   0.128 -0.3087 -0.0069  0.0638
 2758W        W 6822   6.516   6.007   7.828  0.2823 -0.0092  0.1199
 2759W        W 6823   6.971  10.471   1.181  0.0940 -0.0558  0.0371
 2760W        W 6824  10.132   2.401   9.163 -0.2097  0.1313 -0.1039
 2761W        W 6825   7.598   1.191   0.658  0.2022 -0.0930 -0.4270
 2762W        W 6826   9.754   9.790   0.416  0.0529 -0.1552 -0.2067
 2763W        W 6827   6.779   4.746   2.758  0.0628 -0.1413 -0.0063
 2764W        W 6828   0.073  10.172  10.861  0.0047  0.0195 -0.1939
 2765W        W 6829   7.767   7.704  10.539  0.1227 -0.1905  0.3262
 2766W        W 6830   1.209   9.543   0.960  0.0608 -0.0376 -0.0555
 2767W        W 6831  10.064   7.231   2.972  0.0918 -0.2107 -0.2930
 2768W        W 6832   8.492   3.521   3.596 -0.4032  0.1330 -0.0491
 2769W        W 6833   3.804  10.256   3.549 -0.0852 -0.0560  0.3524
 2770W        W 6834   4.049   1.279   7.899 -0.1601 -0.1095 -0.0828
 2771W        W 6835   7.089   9.886   1.346  0.3201  0.0871 -0.0076
 2772W        W 6836   4.680   4.355   8.702  0.1086 -0.0156  0.0907
 2773W        W 6837   2.596   6.781   7.596 -0.0811 -0.0747  0.0780
 2774W        W 6838   3.261   0.778   3.536 -0.0299 -0.1681 -0.0207
 2775W        W 6839   0.258   0.264  10.065  0.0451  0.1289  0.2324
 2776W        W 6840  10.701   9.875   3.377 -0.2472  0.3030 -0.2794
 2777W        W 6841   6.899   4.231   7.792 -0.0489  0.4961  0.0862
 2778W        W 6842   6.179   2.142   0.621  0.0510  0.1714 -0.0407
 2779W        W 6843   0.022   1.591   1.798 -0.0130  0.1613  0.4710
 2780W        W 6844   2.724   5.506   2.929  0.2661 -0.2245 -0.0329
 2781W        W 6845   3.521   6.251   2.053 -0.0818 -0.0296  0.0438
 2782W        W 6846   4.887   3.150   8.702  0.1830 -0.0360 -0.0817
 2783W        W 6847  10.878   6.706   1.368 -0.0048  0.0429 -0.1855
 2784W        W 6848   9.277   3.203   3.056  0.0984  0.1456  0.0946
 2785W        W 6849  10.001   3.526   9.876  0.1288  0.4079 -0.2790
 2786W        W 6850   6.501   7.288   2.601  0.0399  0.2837 -0.2418
 2787W        W 6851   0.796   4.712   9.052  0.0263 -0.1303  0.3839
 2788W        W 6852   9.827   2.950   2.729  0.0810 -0.3065 -0.0903
 2789W        W 6853   3.443   5.091   1.800 -0.0843 -0.1711  0.0695
 2790W        W 6854   0.092   5.955   2.054 -0.0761 -0.1302 -0.0478
 2791W        W 6855   0.359   1.560   1.451  0.1912 -0.0669 -0.0999
 2792W        W 6856   8.617   0.551   9.664 -0.2082 -0.1786 -0.2189
 2793W        W 6857   1.123   1.814   2.521 -0.2018 -0.1367 -0.0525
 2794W        W 6858   5.235   4.927   2.490 -0.1460 -0.0897  0.0404
 2795W        W 6859   1.557   1.820   9.008  0.0333  0.0996 -0.0622
 2796W        W 6860   3.094   8.822   2.899 -0.0995  0.1262  0.1468
 2797W        W 6861   0.281   7.889   2.347 -0.2205  0.0197  0.0159
 2798W        W 6862   8.110   8.814   7.419  0.0451 -0.1879 -0.2458
 2799W        W 6863   1.878   8.473   9.090 -0.4237 -0.2447  0.0193
 2800W        W 6864  10.048   8.927   0.678 -0.0974  0.0662 -0.0472
 2801W        W 6865   9.001   8.834   0.460  0.3283  0.0809 -0.2236
 2802W        W 6866   4.298   5.344   1.180  0.0361  0.0033 -0.0847
 2803W        W 6867   9.970   6.879   1.506  0.1612 -0.3067  0.1662
 2804W        W 6868   9.499  10.201   4.129 -0.2088  0.0777  0.1190
 2805W        W 6869   8.170   4.290   8.906  0.0938 -0.1030  0.3456
 2806W        W 6870   8.803   8.379  10.063  0.0806  0.3225 -0.0818
 2807W        W 6871  10.053   5.150   9.401  0.0354  0.1237  0.0581
 2808W        W 6872   2.345   5.999   9.188 -0.2551  0.0837  0.1528
 2809W        W 6873   6.770   1.492   7.078  0.0397 -0.3433  0.2296
 2810W        W 6874   9.336   3.894   8.479  0.0433 -0.0532  0.0954
 2811W        W 6875   6.732   9.021   1.080 -0.0187 -0.0356  0.5077
 2812W        W 6876   4.959   4.368   1.953 -0.1253 -0.0393  0.3096
 2813W        W 6877   3.400   1.049   0.334  0.0585 -0.4482  0.1731
 2814W        W 6878  10.164   5.816   9.796 -0.1070  0.0137 -0.1578
 2815W        W 6879   5.032   8.439  10.424  0.1700 -0.2120  0.1620
 2816W        W 6880  10.155   0.751   1.660  0.1975  0.2895 -0.2026
 2817W        W 6881   8.612   3.891   0.313  0.2932 -0.1285  0.1180
 2818W        W 6882   4.174   4.640   2.608 -0.0585  0.4083  0.1356
 2819W        W 6883   2.650   8.241   8.371  0.0684  0.1481  0.1384
 2820W        W 6884   6.582   4.122   0.464 -0.2243 -0.2833 -0.0325
 2821W        W 6885   1.680   8.482   9.515  0.1883 -0.0165  0.0171
 2822W        W 6886   3.501   0.782   1.668 -0.2030 -0.3437  0.0316
 2823W        W 6887   3.596   5.955   7.918 -0.1416 -0.0611  0.0176
 2824W        W 6888   4.656   5.658   1.680 -0.1824 -0.1218  0.3079
 2825W        W 6889  10.180   2.090   2.960 -0.0025 -0.3416 -0.1828
 2826W        W 6890   9.166   5.682   2.788  0.1496  0.1544  0.1176
 2827W        W 6891   8.322   0.323   9.343 -0.0326 -0.1544 -0.1037
 2828W        W 6892   3.978   3.737  10.819  0.0119 -0.2200  0.0828
 2829W        W 6893   6.906   3.723   1.454  0.3301  0.0274  0.0723
 2830W        W 6894   3.509   4.444   8.967 -0.0927 -0.0537  0.1634
 2831W        W 6895   1.405   9.276   8.016 -0.0040  0.1372 -0.1169
 2832W        W 6896   1.257   3.098   3.749 -0.0524  0.3515  0.3156
 2833W        W 6897   3.701   4.053  10.281  0.0886  0.0659 -0.0034
 2834W        W 6898  10.638   0.225   2.705 -0.0876  0.3309  0.3066
 2835W        W 6899   1.489   6.491   3.477  0.1914 -0.0742  0.3292
 2836W        W 6900   5.174   1.591   2.022  0.2533  0.1398  0.0287
 2837W        W 6901   8.739   4.383   8.590  0.3639 -0.2478  0.2665
 2838W        W 6902   6.035   0.768   3.002 -0.2365 -0.0631  0.2736
 2839W        W 6903   7.818   1.886   8.357  0.1680 -0.3004 -0.0989
 2840W        W 6904   6.312   1.162   3.240 -0.0297  0.0107  0.1242
 2841W        W 6905   4.205   9.626   2.964 -0.1197 -0.0305 -0.0344
 2842W        W 6906   4.183   9.829   1.224 -0.0136  0.2359  0.1059
 2843W        W 6907   3.086   0.973   9.490 -0.1027  0.2818 -0.4007
 2844W        W 6908   5.490   0.648   1.723 -0.1607  0.1131 -0.2395
 2845W        W 6909   0.244   9.095   8.689 -0.1147  0.0303 -0.0785
 2846W        W 6910   5.318   4.579   0.679  0.2601 -0.0110  0.1193
 2847W        W 6911   8.730   8.599   9.108 -0.0814 -0.2574 -0.0179
 2848W        W 6912  10.336   2.835   1.531 -0.0904 -0.1061 -0.1388
 2849W        W 6913   2.795   6.533   9.907 -0.1859 -0.1504 -0.0638
 2850W        W 6914  10.205   5.581   2.640 -0.0634  0.1397  0.1359
 2851W        W 6915   7.176   4.079   8.428 -0.0415  0.3832  0.1178
 2852W        W 6916   3.417   1.458   2.792 -0.0579  0.0495 -0.0245
 2853W        W 6917   3.746  10.782  10.347 -0.0138  0.0966 -0.3537
 2854W        W 6918  10.008   8.412  10.772 -0.2752 -0.2099  0.0941
 2855W        W 6919   1.843   9.408   4.236  0.3509 -0.1520 -0.0971
 2856W        W 6920   9.829   0.016   9.923  0.2609  0.0494 -0.0659
 2857W        W 6921   1.461   8.137   2.524 -0.1458  0.3326 -0.0453
 2858W        W 6922   3.934   3.446   7.725  0.0430 -0.3452  0.0091
 2859W        W 6923   9.258   6.685   0.530 -0.1254  0.0792 -0.0637
 2860W        W 6924   0.293   7.404   2.341 -0.1356 -0.2073 -0.3919
 2861W        W 6925   2.085   1.233   2.220  0.0228  0.1291 -0.3889
 2862W        W 6926  10.711   4.529   1.227  0.3739 -0.0462 -0.1602
 2863W        W 6927   7.292   8.314   7.108 -0.4070  0.3982  0.0435
 2864W        W 6928   2.923   0.507   2.648 -0.0593 -0.1081  0.0689
 2865W        W 6929   2.775  10.906   7.831 -0.0729 -0.1185 -0.1138
 2866W        W 6930   6.245   1.594   8.678  0.0687  0.1197  0.4390
 2867W        W 6931   9.963   0.282   3.355  0.1262 -0.1375  0.3552
 2868W        W 6932   1.888   6.562   1.336 -0.0058  0.2088  0.3605
 2869W        W 6933   4.180   2.742   8.349 -0.1089  0.2664  0.2265
 2870W        W 6934   3.087   7.720   3.150 -0.1301 -0.1452  0.1592
 2871W        W 6935   9.118   4.496   0.409 -0.2281 -0.0163 -0.0545
 2872W        W 6936   4.096   9.698   0.066 -0.0839 -0.0917 -0.3065
 2873W        W 6937   8.929   3.497   9.704 -0.2085 -0.0471 -0.2972
 2874W        W 6938   8.172   0.477   0.653 -0.1367  0.1687  0.1259
 2875W        W 6939   3.665   4.133  10.802  0.2809  0.0854  0.0292
 2876W        W 6940   7.619  10.602   7.944 -0.0694  0.2320 -0.0166
 2877W        W 6941  10.193   0.123  10.301  0.3000 -0.1177  0.0218
 2878W        W 6942   8.351   3.412   8.008  0.2901  0.2614 -0.0307
 2879W        W 6943   6.128   2.677   7.036  0.0086 -0.3231  0.1975
 2880W        W 6944   4.485   2.490  10.914  0.0001 -0.1447 -0.1748
 2881W        W 6945   4.672   0.818  10.377  0.1550  0.2726  0.0018
 2882W        W 6946   5.353   9.156   0.792 -0.0133 -0.0404  0.0319
 2883W        W 6947   4.966   2.840  10.259 -0.2031 -0.1666 -0.0828
 2884W        W 6948  10.343   6.379   7.556  0.2664  0.1362  0.1638
 2885W        W 6949   5.954   4.461  10.821 -0.0635  0.2739  0.0903
 2886W        W 6950   7.871   8.091   7.826 -0.0308  0.0341  0.1679
 2887W        W 6951   6.850   1.557   7.546  0.2381  0.0262  0.0087
 2888W        W 6952   7.611  10.348   9.894 -0.1417  0.0296  0.1126
 2889W        W 6953   7.308   4.954   1.750 -0.0503  0.0168 -0.1063
 2890W        W 6954   6.300   0.748   3.565 -0.1232  0.2456 -0.0079
 2891W        W 6955   7.519   3.711   2.441 -0.3061  0.0387  0.1072
 2892W        W 6956   2.870   7.903   7.744  0.2670  0.0466 -0.1015
 2893W        W 6957   4.558   8.143   8.594  0.2648  0.0736  0.5102
 2894W        W 6958   1.446   3.296   2.226 -0.0085 -0.1452 -0.1279
 2895W        W 6959   3.990   3.828   0.813 -0.0286  0.1009  0.2351
 2896W        W 6960   6.797   2.409   9.391  0.0270 -0.1427 -0.4975
 2897W        W 6961   6.661   9.056   7.242  0.0229  0.1026 -0.1524
 2898W        W 6962   5.018   2.066   1.176 -0.2698  0.0297  0.3643
 2899W        W 6963   4.628   4.381   1.480 -0.0079  0.1522 -0.0965
 2900W        W 6964   7.463   0.756  10.150  0.0259 -0.1725  0.0574
 2901W        W 6965   9.868  10.028   3.820  0.1215  0.2742  0.0692
 2902W        W 6966   0.663   4.764   7.334 -0.1457 -0.1097 -0.2002
 2903W        W 6967   6.097   4.612   8.046  0.0917  0.1537  0.2544
 2904W        W 6968   0.238   8.908   2.057 -0.0341  0.1079 -0.1148
 2905W        W 6969   9.552   5.134   9.466  0.1703  0.0909 -0.0617
 2906W        W 6970  10.513   7.404   3.108 -0.0077  0.2852  0.1416
 2907W        W 6971   1.427   6.302   1.346 -0.0630  0.1451  0.0608
 2908W        W 6972   1.008   1.926   8.377 -0.4571  0.1884  0.0445
 2909W        W 6973   3.192   4.052  10.671  0.1089  0.1482 -0.0609
 2910W        W 6974   5.981  10.572  10.818 -0.1257 -0.2362 -0.0038
 2911W        W 6975   3.893   3.617   8.250 -0.1228  0.1235 -0.0439
 2912W        W 6976   4.241   5.720   7.402  0.2893 -0.0574 -0.0042
 2913W        W 6977   7.225   2.156   9.665 -0.0704  0.0562 -0.1091
 2914W        W 6978   5.627   9.972   1.527 -0.0194  0.0721 -0.2010
 2915W        W 6979   2.442   1.440  10.897  0.1372  0.2665 -0.1108
 2916W        W 6980   2.429   9.801  10.544  0.2103  0.0819 -0.1821
 2917W        W 6981   0.012   2.396   9.032 -0.0455 -0.2466 -0.0938
 2918W        W 6982   6.781  10.370   7.470  0.0145 -0.0851 -0.1918
 2919W        W 6983   1.375   3.018   8.293 -0.0758  0.3394 -0.0739
 2920W        W 6984   2.117   1.102   8.121  0.0085 -0.3479 -0.0725
 2921W        W 6985   1.671   0.359   0.347 -0.3693 -0.2719  0.2328
 2922W        W 6986   8.079   2.084   3.259  0.2490  0.1150  0.2429
 2923W        W 6987   6.014   1.360   0.565  0.3254 -0.4621 -0.2289
 2924W        W 6988   0.033   9.808   0.337 -0.0567  0.1612  0.3208
 2925W        W 6989  10.589   6.281   1.466  0.0718 -0.4212  0.0877
 2926W        W 6990   6.572   3.812   2.884 -0.3819  0.1191  0.0117
 2927W        W 6991  10.727   7.261   0.542  0.3639 -0.0851 -0.2962
 2928W        W 6992   7.727   0.758   7.667  0.0827 -0.1099 -0.0200
 2929W        W 6993   1.504   2.554  10.426  0.1135 -0.1516 -0.1964
 2930W        W 6994   3.488   4.413   8.427  0.0276 -0.1994  0.1629
 2931W        W 6995   3.540   5.592   2.074  0.0535 -0.0584 -0.3129
 2932W        W 6996   5.319   0.980   9.484 -0.0502 -0.1610  0.0266
 2933W        W 6997   2.203   9.078   1.881 -0.5022  0.0239  0.1379
 2934W        W 6998   8.283   2.069  10.527 -0.1169  0.0773 -0.1587
 2935W        W 6999   0.977   0.141   9.355 -0.1650 -0.0193 -0.1559
 2936W        W 7000   9.191  10.455   0.207  0.5818 -0.1459 -0.4235
 2937W        W 7001   7.500   7.214   0.410 -0.1237  0.0988  0.3154
 2938W        W 7002   1.738   2.490   1.880 -0.2054 -0.1862  0.0848
 2939W        W 7003   3.840   4.827   0.473 -0.0415 -0.0715 -0.0615
 2940W        W 7004   5.862   8.582  10.145 -0.0659 -0.1004  0.1002
 2941W        W 7005   1.473   7.908  10.134 -0.1044 -0.2607 -0.0456
 2942W        W 7006   5.246   8.236   1.107  0.1403  0.0172 -0.1473
 2943W        W 7007   1.289   4.738   7.251  0.1677  0.1003 -0.1002
 2944W        W 7008   5.552   7.558   8.885  0.0230  0.2047  0.1780
 2945W        W 7009   9.896   2.091   2.253 -0.2763 -0.0704 -0.1821
 2946W        W 7010   4.222   9.400   1.982  0.1911 -0.0737 -0.0685
 2947W        W 7011  10.425   1.517  10.336 -0.1025 -0.2696  0.1793
 2948W        W 7012   4.109   4.238   9.988  0.2131  0.0320 -0.0390
 2949W        W 7013  10.458   1.452   8.364 -0.1329  0.2109 -0.2110
 2950W        W 7014   1.793   5.754   9.161 -0.2723  0.0970  0.2873
 2951W        W 7015   9.170   7.065   2.768  0.0119  0.0091  0.0176
 2952W        W 7016   4.577   3.434   0.082  0.1319 -0.4274  0.2505
 2953W        W 7017   4.535   5.462   9.753  0.2283  0.0226 -0.0809
 2954W        W 7018   9.281   2.952   1.974  0.2345  0.1614 -0.3706
 2955W        W 7019   2.338   0.353   8.322 -0.0724 -0.0152 -0.1367
 2956W        W 7020   3.137   6.487   9.027 -0.2056  0.0029  0.0891
 2957W        W 7021   9.490   8.482   2.957 -0.0526 -0.1552  0.0627
 2958W        W 7022   0.620   3.092   9.673 -0.1323 -0.3201 -0.0080
 2959W        W 7023   2.976  10.858   3.130  0.1496  0.1217  0.2077
 2960W        W 7024   4.532   4.979   9.912 -0.3652  0.2195 -0.0426
 2961W        W 7025  10.016   0.178   1.742  0.0587 -0.0610  0.0178
 2962W        W 7026   7.857   4.656   3.140 -0.0140 -0.0498 -0.0929
 2963W        W 7027   5.331   3.583   2.121  0.0941 -0.0403 -0.0622
 2964W        W 7028   9.656   5.330   7.715  0.0773 -0.1103 -0.2533
 2965W        W 7029   9.802   7.536   0.007  0.0202 -0.1373 -0.1264
 2966W        W 7030   5.789   3.567   3.925  0.1266  0.0765 -0.1922
 2967W        W 7031   2.623   2.789   9.131 -0.0332 -0.1205  0.1734
 2968W        W 7032  10.445   7.751  10.443  0.0342  0.2219 -0.1103
 2969W        W 7033  10.718   7.106  10.125 -0.0431 -0.1753 -0.0945
 2970W        W 7034   0.862   8.455   9.840  0.2643  0.0773  0.0100
 2971W        W 7035   1.476   0.145   2.548  0.1037  0.1984  0.1105
 2972W        W 7036   6.402   8.633   8.482 -0.0898  0.2452  0.0874
 2973W        W 7037  10.655   1.991   8.461  0.1765 -0.0460  0.3041
 2974W        W 7038   5.635   5.061   0.625 -0.0537  0.2858  0.0704
 2975W        W 7039   7.922   4.205   9.927  0.2522  0.0273 -0.3456
 2976W        W 7040   8.406   7.238   8.300  0.2266  0.1205  0.2282
 2977W        W 7041   3.647   4.596   1.930 -0.0870 -0.2095 -0.0352
 2978W        W 7042   4.114   8.744   0.305  0.0980  0.0411 -0.1004
 2979W        W 7043   5.610   4.866   1.189  0.1852 -0.4188  0.1555
 2980W        W 7044   0.038   7.536   1.933 -0.0720 -0.2626 -0.2457
 2981W        W 7045   7.270   8.595  10.955  0.2433  0.1068  0.1074
 2982W        W 7046   4.687   7.489   8.389 -0.2026  0.0841 -0.0474
 2983W        W 7047   6.237   5.791   0.037  0.0439 -0.1605  0.2677
 2984W        W 7048   6.784   3.041   8.819 -0.2092  0.3849 -0.3402
 2985W        W 7049  10.856   6.818   3.087  0.0171 -0.2094  0.0161
 2986W        W 7050   8.450   0.704   0.311  0.1761  0.0791  0.1651
 2987W        W 7051  10.556   0.009   8.765 -0.0186 -0.0543 -0.0186
 2988W        W 7052   3.217   9.978   8.218 -0.0503  0.1895  0.0624
 2989W        W 7053   0.710   3.324   0.140 -0.0557  0.2667 -0.3300
 2990W        W 7054   1.691   0.423   0.888  0.2886  0.0716  0.0017
 2991W        W 7055   7.066   2.974   8.383 -0.1765  0.1133 -0.0856
 2992W        W 7056   3.586   7.536   2.955 -0.1747  0.0811  0.0783
 2993W        W 7057   2.470  10.732   2.469  0.0417  0.0246 -0.1422
 2994W        W 7058   3.757   5.328   8.515 -0.1580 -0.0727 -0.4359
 2995W        W 7059  10.538   8.125   2.605 -0.5298 -0.4257  0.1462
 2996W        W 7060   7.721   6.172   1.661 -0.1120  0.5687 -0.0452
 2997W        W 7061   0.313   6.440   0.141 -0.0201 -0.0404 -0.4131
 2998W        W 7062  10.465   5.665   7.911  0.1792 -0.3155 -0.1453
 2999W        W 7063   9.054   8.735   9.471  0.1150 -0.1884  0.1399
 3000W        W 7064   0.762   7.603   8.290  0.1523 -0.0183  0.0814
 3001W        W 7065   8.070   9.186   9.373 -0.0026 -0.1493  0.2577
 3002W        W 7066   3.579   1.299   8.457 -0.1296  0.2890  0.1688
 3003W        W 7067   4.481   2.091   9.022 -0.1290  0.1947 -0.0391
 3004W        W 7068   5.068  10.454  10.649  0.2475  0.2388  0.1281
 3005W        W 7069   0.262   9.873   1.234 -0.0550 -0.3197  0.1417
 3006W        W 7070   1.611   4.750   8.974 -0.0832  0.1901  0.1738
 3007W        W 7071   6.115   6.915   9.616  0.4922 -0.0983 -0.1823
 3008W        W 7072   0.273   5.752   9.591  0.0635 -0.1234  0.1827
 3009W        W 7073   3.612   1.044   8.021  0.0234 -0.1692  0.0605
 3010W        W 7074   4.776   0.642   1.021 -0.3286  0.0984 -0.0731
 3011W        W 7075   4.487   0.789   8.435  0.0039  0.1161  0.1657
 3012W        W 7076   8.574   9.125   9.607 -0.0865 -0.2466 -0.2114
 3013W        W 7077   0.417  10.365   1.084  0.2625  0.0585  0.2361
 3014W        W 7078   9.636   1.762   4.088 -0.0712 -0.3221 -0.0173
 3015W        W 7079   4.849   8.698   7.779  0.1122  0.3142 -0.0779
 3016W        W 7080   0.819   2.312   1.758  0.1717 -0.1883  0.1036
 3017W        W 7081  10.785   4.178   1.958 -0.0038 -0.2468 -0.1804
 3018W        W 7082   1.881   9.370   8.086  0.1221  0.2600 -0.0171
 3019W        W 7083   1.556   6.154   7.819  0.1743 -0.0161  0.3936
 3020W        W 7084   0.426   5.184   0.956 -0.1246  0.2024  0.1997
 3021W        W 7085   2.696   7.874   1.878 -0.3124  0.1248  0.1437
 3022W        W 7086   7.877   3.702   7.177 -0.1814  0.3257 -0.0707
 3023W        W 7087   3.280   4.651   0.780 -0.2307 -0.0671 -0.1339
 3024W        W 7088   1.194   8.020   1.417 -0.4537 -0.1079  0.0090
 3025W        W 7089   4.542   2.252   1.537  0.0765  0.0486  0.1019
 3026W        W 7090   6.005   1.279   7.640  0.1553  0.2269 -0.1434
 3027W        W 7091   6.251   2.427   9.442 -0.4451 -0.1270  0.0272
 3028W        W 7092   8.791   5.177   0.929  0.0857  0.2310 -0.2138
 3029W        W 7093   3.958   4.145   1.939  0.0447 -0.2019  0.0020
 3030W        W 7094   7.494   1.271  10.476  0.1667  0.0985 -0.2552
 3031W        W 7095   5.965   7.385   0.725 -0.0861 -0.0546 -0.0264
 3032W        W 7096   5.737   9.101   2.912 -0.1748  0.0686 -0.1059
 3033W        W 7097   2.026  10.612   3.320 -0.1669 -0.0282 -0.1653
 3034W        W 7098   3.281   1.927   0.230  0.0551  0.1659 -0.1073
 3035W        W 7099   6.853   8.527   8.144 -0.0941  0.0824  0.3284
 3036W        W 7100   6.491   2.824   2.515 -0.0361  0.0382 -0.1866
 3037W        W 7101  10.217   8.778   1.278 -0.5456  0.2126 -0.2368
 3038W        W 7102   3.460  10.599   9.986  0.0625 -0.1658  0.0904
 3039W        W 7103   4.428   5.545   2.417  0.1199  0.1304 -0.2364
 3040W        W 7104   0.976   5.308   8.225 -0.0567  0.1540  0.1427
 3041W        W 7105   7.101   8.098   2.353  0.1262 -0.1014  0.2449
 3042W        W 7106  10.001   6.330   3.075  0.1980  0.0314  0.1202
 3043W        W 7107   4.782   0.286   9.505  0.2759  0.0883  0.0561
 3044W        W 7108  10.047   1.385   8.741 -0.2019  0.0334 -0.1859
 3045W        W 7109   8.418   3.251   2.114 -0.1191  0.2742  0.1762
 3046W        W 7110   2.959   4.898   1.094 -0.2407 -0.2209 -0.3913
 3047W        W 7111   7.054   6.082   0.194  0.1877 -0.0559 -0.0160
 3048W        W 7112   5.578   2.424   2.350  0.1009  0.1183  0.2902
 3049W        W 7113  10.242   9.636   8.684 -0.1738 -0.2120 -0.1075
 3050W        W 7114   0.523   8.629   1.170 -0.0624 -0.0412  0.1585
 3051W        W 7115   5.908   9.600   8.929  0.1445 -0.0535 -0.0428
 3052W        W 7116   1.629   4.827   8.058 -0.1457  0.0769  0.4411
 3053W        W 7117   4.965   3.801   0.184 -0.2427 -0.1609  0.0177
 3054W        W 7118   0.119  10.321   2.938 -0.0102 -0.0131 -0.0852
 3055W        W 7119  10.558   9.453   1.540 -0.0735 -0.5205  0.3917
 3056W        W 7120   5.112   4.333   7.784  0.2851 -0.0019  0.1336
 3057W        W 7121   0.571   7.873   8.829 -0.0590 -0.0044  0.1165
 3058W        W 7122   4.948  10.805   3.970  0.0212  0.2914 -0.1857
 3059W        W 7123   3.462   4.883   1.375 -0.0837 -0.1802  0.1408
 3060W        W 7124   5.592   1.395   0.865  0.1569 -0.2418 -0.0551
 3061W        W 7125   4.379   0.766   4.071  0.2114  0.1030  0.2530
 3062W        W 7126   4.848   3.224   0.585 -0.3698 -0.1967  0.1198
 3063W        W 7127   6.235   9.864   8.650  0.3891 -0.1572  0.3684
 3064W        W 7128   4.200   7.364   9.415 -0.0609 -0.1306 -0.0850
 3065W        W 7129   4.344  10.085   0.307  0.3039  0.0313  0.0530
 3066W        W 7130   6.685   2.631   7.292  0.1269  0.0491  0.1893
 3067W        W 7131   1.761   7.070   0.533  0.0377 -0.0587 -0.2870
 3068W        W 7132   9.535   8.184   0.857 -0.1482  0.1539  0.0582
 3069W        W 7133   4.183   6.892   2.136 -0.0677 -0.0520 -0.0309
 3070W        W 7134   5.027   7.728   9.566 -0.0116 -0.0752 -0.1916
 3071W        W 7135   5.001   6.295   9.513  0.1488 -0.3919  0.0528
 3072W        W 7136   2.569   3.391   0.582 -0.3548  0.0863  0.0184
 3073W        W 7137   6.432   8.088   0.992 -0.1824 -0.0863 -0.0030
 3074W        W 7138   1.779   9.174   7.622  0.0594  0.0520  0.1371
 3075W        W 7139  10.440   7.300   1.726 -0.1405  0.0109  0.1441
 3076W        W 7140   8.584   5.260   9.239 -0.0368 -0.1629  0.1225
 3077W        W 7141   5.010  10.156   2.578  0.1903  0.2752  0.0741
 3078W        W 7142   9.267   1.765   3.592 -0.0864 -0.0097 -0.2031
 3079W        W 7143   0.405   4.378   9.178 -0.0484 -0.1628 -0.2016
 3080W        W 7144   5.720   2.397   0.889 -0.2131  0.1258  0.2756
 3081W        W 7145   5.955  10.224   3.293  0.1343  0.1505  0.3010
 3082W        W 7146   6.324   6.804   3.377 -0.0310 -0.0236 -0.0501
 3083W        W 7147   9.130  10.074  10.680  0.1358  0.2438 -0.0102
 3084W        W 7148   0.091   9.776   3.016 -0.0754  0.0289 -0.1031
 3085W        W 7149  10.365   4.250   0.855  0.0378 -0.3148  0.3328
 3086W        W 7150   7.538   4.561   2.179  0.2612  0.2968  0.3432
 3087W        W 7151   9.785   9.509   3.115  0.0157  0.1326 -0.1376
 3088W        W 7152   5.611   0.988   0.632  0.1147  0.1642  0.0339
 3089W        W 7153   2.771   0.759   1.544 -0.2507 -0.0408 -0.0646
 3090W        W 7154   5.355  10.468   9.653 -0.1453  0.2230 -0.2713
 3091W        W 7155   5.629   8.219   8.430  0.2466 -0.1074 -0.0933
 3092W        W 7156   3.859   8.609   1.357 -0.0607  0.1445  0.2961
 3093W        W 7157   0.954   3.987   8.718  0.1234 -0.2100 -0.0897
 3094W        W 7158   7.145   4.444   8.732  0.0667 -0.1559  0.0782
 3095W        W 7159   8.889   9.806   0.060 -0.0193  0.0838  0.1174
 3096W        W 7160   9.084   4.882   2.760 -0.1890 -0.0144  0.0336
 3097W        W 7161   4.074   3.562   7.243 -0.1161 -0.1342  0.1148
 3098W        W 7162   8.338   5.459   3.091  0.1419 -0.0285 -0.1350
 3099W        W 7163   2.602   7.629   8.765  0.1454  0.1101 -0.0347
 3100W        W 7164   7.702   0.777   2.936  0.1480 -0.0721  0.2557
 3101W        W 7165  10.438   4.207   9.188 -0.0093 -0.2122  0.0126
 3102W        W 7166   7.599   1.743  10.949 -0.0514 -0.2539 -0.0683
 3103W        W 7167   4.530   9.706   8.607 -0.0034  0.0613  0.1820
 3104W        W 7168   8.990  10.110   8.852 -0.2039 -0.0471  0.3256
 3105W        W 7169   8.351   9.407   8.532  0.0278  0.0486  0.1493
 3106W        W 7170   2.604   7.910   9.354  0.3430  0.1127 -0.0210
 3107W        W 7171   4.092   7.320   8.871 -0.1839 -0.1974 -0.0242
 3108W        W 7172   8.451   1.309   3.556  0.0218 -0.3663  0.0025
 3109W        W 7173   2.914   1.568   2.872 -0.0378 -0.1147 -0.3091
 3110W        W 7174   1.697   5.471   0.241 -0.3370  0.0922 -0.5059
 3111W        W 7175   4.092   6.783  10.719 -0.1100 -0.3650  0.3287
 3112W        W 7176   8.484   4.779   0.826  0.0978 -0.1152 -0.2126
 3113W        W 7177   4.620   2.232   2.097 -0.0457  0.0531  0.2929
 3114W        W 7178   4.143   0.401   3.209 -0.1761 -0.0646  0.0699
 3115W        W 7179   6.286   8.570  10.462 -0.0528  0.3401  0.1160
 3116W        W 7180   3.657   0.513   7.956  0.2462 -0.1726  0.0236
 3117W        W 7181   9.827  10.367   8.796  0.0631 -0.3209  0.0387
 3118W        W 7182   3.746   9.236   0.646  0.0779 -0.0619 -0.2023
 3119W        W 7183   2.950  10.680   0.885  0.0933  0.1151 -0.1104
 3120W        W 7184   3.321   2.509  10.119  0.0611  0.0871  0.1326
 3121W        W 7185   7.762   7.054   1.606  0.1443 -0.2080  0.1193
 3122W        W 7186   6.760   9.153   3.673 -0.0448  0.1700  0.2614
 3123W        W 7187   1.880   5.728   8.030  0.6121 -0.1030 -0.0839
 3124W        W 7188   5.915   0.921   1.622 -0.1873 -0.2577  0.1955
 3125W        W 7189  10.382   7.664   8.093  0.1500  0.1111  0.2836
 3126W        W 7190   4.664   4.984  10.484 -0.1480 -0.0606  0.0874
 3127W        W 7191   0.996   7.520   7.800  0.0106  0.3227 -0.1421
 3128W        W 7192   3.630   6.213   0.917 -0.0345 -0.2729 -0.0715
 3129W        W 7193   8.715   3.795  10.047  0.1947 -0.0196  0.1863
 3130W        W 7194   4.705   9.484   8.154  0.0784  0.0433 -0.0592
 3131W        W 7195   7.026   6.129   3.112 -0.2177 -0.0652  0.0438
 3132W        W 7196   0.385   1.158   8.424 -0.0928 -0.0549 -0.1680
 3133W        W 7197   9.851  10.775   2.068 -0.0928 -0.1014  0.1853
 3134W        W 7198   4.377   4.685   9.118  0.0311  0.1694  0.0409
 3135W        W 7199   9.965   1.094  10.096  0.2013 -0.1276 -0.1045
 3136W        W 7200   4.567   5.752   9.277 -0.0046 -0.2306 -0.0849
 3137W        W 7201   5.140   8.918   3.284  0.1731 -0.0410 -0.1105
 3138W        W 7202   4.355   6.086   1.918 -0.0135 -0.0833 -0.0743
 3139W        W 7203   8.441   9.589   0.241 -0.0700 -0.2869  0.0541
 3140W        W 7204   9.450   5.571   1.416 -0.2101 -0.0119  0.1637
 3141W        W 7205   7.753   8.437   0.093 -0.0634 -0.0230  0.1006
 3142W        W 7206   2.562   8.918   0.869  0.0545  0.0367 -0.1925
 3143W        W 7207   9.323  10.534  10.682  0.4327 -0.0069 -0.0947
 3144W        W 7208   5.315  10.840   9.169 -0.1709 -0.0625 -0.0296
 3145W        W 7209   1.683   7.006   9.032 -0.1435  0.0112  0.1561
 3146W        W 7210   6.098   2.243   2.180  0.2810 -0.1270 -0.0358
 3147W        W 7211   6.251   7.178  10.935 -0.1008  0.0817  0.3070
 3148W        W 7212   4.777   2.507   1.197 -0.1499  0.2662  0.0430
 3149W        W 7213   1.674   8.814   3.178 -0.0185  0.0390 -0.2901
 3150W        W 7214   3.112   8.349   1.384  0.3966 -0.1867  0.2997
 3151W        W 7215   8.246   5.216   8.226 -0.0693 -0.0770 -0.0294
 3152W        W 7216   4.758   1.349   2.586 -0.2387  0.2944 -0.1617
 3153W        W 7217   6.250  10.281   9.466 -0.2290  0.3086  0.1887
 3154W        W 7218   2.661   7.284   0.808 -0.1680  0.2079  0.1174
 3155W        W 7219   1.608   6.686   2.102  0.0968  0.1637 -0.1042
 3156W        W 7220   1.567   4.184   2.416 -0.2894  0.2028  0.2634
 3157W        W 7221   4.499   6.067   1.426  0.1443  0.0067  0.3064
 3158W        W 7222   0.669   7.073   7.685 -0.2433  0.1970 -0.2235
 3159W        W 7223   8.390   0.193   8.157  0.2719  0.0972  0.3675
 3160W        W 7224   9.408   2.286  10.709 -0.1634  0.1044  0.1256
 3161W        W 7225   4.782   0.404  10.640  0.0197 -0.3185 -0.0724
 3162W        W 7226   1.460   6.473   2.998 -0.0630 -0.0561 -0.1443
 3163W        W 7227  10.826   5.129  10.047 -0.2353  0.2108 -0.0469
 3164W        W 7228   2.282   7.589  10.467 -0.2203  0.1901  0.3003
 3165W        W 7229   6.418   5.903   8.819  0.0252 -0.0421  0.0184
 3166W        W 7230   9.352  10.202   1.323  0.3743  0.1643 -0.1130
 3167W        W 7231   8.915   9.265   2.165  0.0506  0.0373  0.0093
 3168W        W 7232   1.379   6.564  10.358  0.2143 -0.4527  0.1448
 3169W        W 7233   6.230   3.133   2.924 -0.1188 -0.0154  0.2093
 3170W        W 7234   0.174   9.360   1.257 -0.0643  0.3535 -0.2690
 3171W        W 7235   0.770   5.476  10.240  0.2857 -0.1042 -0.3916
 3172W        W 7236   0.412   7.521  10.214  0.0831  0.0823  0.1168
 3173W        W 7237   1.482   1.303  10.770 -0.0665 -0.0483 -0.1518
 3174W        W 7238   7.949  10.724   7.599  0.3014  0.3277 -0.0226
 3175W        W 7239   4.036   8.900   9.784  0.2563 -0.2488 -0.1954
 3176W        W 7240   5.942   5.072  10.023  0.2793 -0.1500  0.0722
 3177W        W 7241   2.910   6.492   8.038  0.0182  0.2506  0.2047
 3178W        W 7242   4.693   4.874   8.728  0.0999 -0.2702  0.1288
 3179W        W 7243   0.920   1.085   2.844 -0.0801  0.0640 -0.1008
 3180W        W 7244   5.119   8.911   1.914 -0.0617 -0.0628 -0.0911
 3181W        W 7245   0.328   8.065  10.869  0.3951 -0.2055  0.1315
 3182W        W 7246   1.242   2.125   8.776  0.2510 -0.1346  0.0173
 3183W        W 7247   7.629   7.364   2.641 -0.2426  0.1292  0.0426
 3184W        W 7248   4.642   8.059   1.571 -0.1196  0.0670 -0.1440
 3185W        W 7249  10.258   2.207   8.120 -0.1848 -0.0980  0.0694
 3186W        W 7250   5.130   1.904   2.811 -0.1156  0.0745  0.0752
 3187W        W 7251   9.126   1.313  10.348  0.4297  0.1336 -0.1572
 3188W        W 7252  10.761   6.890   8.694  0.2965 -0.2101 -0.0772
 3189W        W 7253   7.610   3.692   8.555  0.0330 -0.3257  0.0466
 3190W        W 7254   9.142  10.676  10.243 -0.0832 -0.1940  0.1684
 3191W        W 7255   0.654   4.682   2.476  0.1345 -0.1273 -0.0188
 3192W        W 7256   6.391   5.060   7.870  0.0591  0.0241 -0.0740
 3193W        W 7257   4.748   6.363   1.127  0.0432 -0.0702  0.3310
 3194W        W 7258   4.043   4.547   1.583  0.0658 -0.1432  0.3021
 3195W        W 7259   5.464   6.196   8.668  0.2575  0.0395 -0.0523
 3196W        W 7260   1.811   9.355   9.719 -0.2671 -0.0592 -0.2396
 3197W        W 7261   9.898   4.644   3.410 -0.0800  0.3710 -0.1011
 3198W        W 7262   3.407   7.550   0.549  0.0026  0.3251  0.1052
 3199W        W 7263  10.859   4.895   7.886  0.1734 -0.1125  0.1792
 3200W        W 7264   3.929   5.977   2.218  0.1213  0.3048 -0.4277
 3201W        W 7265   2.921  10.817   9.069  0.2802  0.1074 -0.2877
 3202W        W 7266   7.482   9.972   8.441  0.2179 -0.1788  0.0613
 3203W        W 7267   0.739   8.970   2.298 -0.0680 -0.1588  0.0529
 3204W        W 7268   3.856   7.667  10.083 -0.1158 -0.0761  0.1774
 3205W        W 7269   3.691   3.710   6.922  0.2217  0.1370  0.1769
 3206W        W 7270   2.847   0.329   1.235 -0.0352  0.0725  0.0938
 3207W        W 7271  10.747   8.815   2.690  0.0361  0.2374  0.2757
 3208W        W 7272   4.399  10.716   1.156  0.1921  0.3059 -0.1494
 3209W        W 7273   2.849  10.375   8.042  0.1311  0.1073  0.0657
 3210W        W 7274   1.164  10.606   8.320  0.3362 -0.1477 -0.1030
 3211W        W 7275   5.793   7.708   3.738 -0.0520  0.0874 -0.0577
 3212W        W 7276   2.563   8.836  10.902  0.1909 -0.1822 -0.0152
 3213W        W 7277   9.332   4.100   0.568 -0.0016  0.2135  0.1729
 3214W        W 7278   9.287   2.697   2.814 -0.2834  0.1506 -0.0833
 3215W        W 7279  10.229   2.893   0.992 -0.2410  0.1194  0.0132
 3216W        W 7280   5.670   2.455   9.550 -0.0068  0.2325  0.0340
 3217W        W 7281   7.907   1.670  10.543  0.1692  0.0496 -0.1167
 3218W        W 7282   5.426   8.571  10.734  0.2380 -0.0743 -0.0292
 3219W        W 7283   5.241   2.419   9.336  0.1479  0.1590 -0.0248
 3220W        W 7284   4.251   9.175   0.573  0.3388 -0.4239 -0.0289
 3221W        W 7285   7.536   2.914   2.910  0.0671  0.1466 -0.0016
 3222W        W 7286   6.381   9.867   2.414  0.0843 -0.1089 -0.2730
 3223W        W 7287   5.303   8.576   0.758 -0.2865  0.0875 -0.0215
 3224W        W 7288   3.804   4.766   8.592  0.1256  0.2438 -0.0908
 3225W        W 7289   8.403   4.192  10.194 -0.2329 -0.2896  0.2094
 3226W        W 7290   7.851   0.602   9.175 -0.2853  0.1401  0.1384
 3227W        W 7291   5.827   7.829   8.156 -0.2948 -0.2646 -0.0798
 3228W        W 7292   1.966   0.821   8.554 -0.2700  0.2549 -0.0863
 3229W        W 7293   5.544   4.343   9.050 -0.0814  0.0156  0.2381
 3230W        W 7294   9.469   0.554   2.886  0.1691  0.1639 -0.3302
 3231W        W 7295   6.591   2.396   3.407 -0.1032 -0.1930 -0.1238
 3232W        W 7296   8.340   6.124  10.138 -0.2293 -0.0272  0.0707
 3233W        W 7297   2.614   6.253   7.660 -0.1441  0.3069  0.2614
 3234W        W 7298   8.048   7.646   8.197  0.1490 -0.2890  0.0501
 3235W        W 7299   8.902   6.870   7.424  0.0345  0.1467  0.2888
 3236W        W 7300   4.144   7.741   0.195 -0.2058  0.2392 -0.1720
 3237W        W 7301   2.195   9.042   4.273 -0.1739 -0.0478 -0.0069
 3238W        W 7302   9.756   5.361   8.595  0.0330  0.2436  0.0361
 3239W        W 7303   1.673   6.910  10.565  0.2045 -0.0617  0.0107
 3240W        W 7304   6.919   4.729  10.658 -0.3290 -0.1434 -0.0109
 3241W        W 7305   1.770   7.925   8.761  0.1864  0.0617 -0.0205
 3242W        W 7306   0.061   6.781   0.507 -0.3651 -0.1703  0.0548
 3243W        W 7307   1.059   0.616   2.850  0.1982  0.2502 -0.0412
 3244W        W 7308   4.988   1.332   9.150  0.0961 -0.2886  0.4189
 3245W        W 7309   0.590  10.871   3.495 -0.0761 -0.1800  0.0533
 3246W        W 7310   3.995   5.659   2.638 -0.2630  0.0044  0.0558
 3247W        W 7311  10.393   0.217   1.427 -0.1661  0.3700  0.3860
 3248W        W 7312   6.375   1.224   9.521 -0.0837 -0.4672  0.3050
 3249W        W 7313   4.676   5.663   0.648  0.3361  0.0359 -0.2836
 3250W        W 7314   9.990   0.163   3.836  0.4534 -0.0904 -0.1163
 3251W        W 7315   2.430   8.982   9.541  0.1978  0.2333  0.4292
 3252W        W 7316   1.943   5.931  10.036 -0.2598  0.1637  0.1164
 3253W        W 7317   8.976   6.612   2.833 -0.0442  0.1294 -0.1853
 3254W        W 7318   4.303   2.337   9.510 -0.3681  0.4858 -0.1431
 3255W        W 7319   9.737   8.966   1.106  0.3252 -0.1444 -0.1140
 3256W        W 7320   9.874   8.472   9.868 -0.0310  0.1288  0.0221
 3257W        W 7321   8.942   0.635   2.672 -0.0408 -0.0489  0.1067
 3258W        W 7322   9.088   7.840   0.891 -0.0496  0.0543 -0.0752
 3259W        W 7323   5.042   6.047   8.032 -0.0263 -0.0737  0.0756
 3260W        W 7324   1.419   1.098   9.474  0.1589 -0.3074  0.1144
 3261W        W 7325   6.672   5.563   0.683  0.0297  0.0030 -0.1608
 3262W        W 7326  10.295   3.962   9.567 -0.0830  0.0045 -0.0772
 3263W        W 7327   0.229   9.388   8.235 -0.1195 -0.2911  0.1278
 3264W        W 7328   7.104   4.729   3.729  0.0156  0.2103 -0.0080
 3265W        W 7329   2.412   4.389   0.004  0.2041 -0.1992 -0.0971
 3266W        W 7330   3.968   9.575   8.448  0.0282 -0.2711  0.1637
 3267W        W 7331   2.660   8.543   9.599  0.1237  0.4043 -0.0341
 3268W        W 7332   3.015   0.672   9.864 -0.1841  0.1172  0.0917
 3269W        W 7333  10.246   8.468  10.239 -0.0086  0.4161  0.0826
 3270W        W 7334   8.344  10.612   8.551  0.0853  0.4661 -0.0610
 3271W        W 7335   3.200   9.522   3.333  0.0070 -0.3357  0.2166
 3272W        W 7336   8.881   1.575   9.554  0.3962  0.0492 -0.0591
 3273W        W 7337   2.074   1.529   7.608  0.0395 -0.1614  0.0761
 3274W        W 7338  10.822   3.303   7.973 -0.0459  0.0323  0.1891
 3275W        W 7339   5.994  10.720   1.273 -0.0860  0.2202  0.2285
 3276W        W 7340   2.356   2.396  10.420  0.1322  0.1077  0.0197
 3277W        W 7341   6.877   5.631   8.072 -0.0520  0.2228  0.0902
 3278W        W 7342   7.159   9.031   3.892  0.0709 -0.1453 -0.0058
 3279W        W 7343   5.906   5.709   8.584 -0.0195 -0.1962 -0.1584
 3280W        W 7344  10.847   3.293   1.956  0.1313  0.1894 -0.1127
 3281W        W 7345   2.421   5.780   1.256  0.0276  0.0272 -0.3387
 3282W        W 7346   2.624   4.411   7.341  0.0307 -0.3040  0.3709
 3283W        W 7347   1.065   1.275   9.784 -0.0451 -0.0469  0.2365
 3284W        W 7348   3.170   4.945   3.601  0.1629  0.2270  0.0109
 3285W        W 7349   6.339   7.933  10.490 -0.0152 -0.5485 -0.0329
 3286W        W 7350   9.694   3.682  10.314  0.3770 -0.1060 -0.1166
 3287W        W 7351   8.059   4.478   1.911 -0.0307  0.0798  0.0208
 3288W        W 7352   0.279   5.873   3.468 -0.0777  0.1719  0.1914
 3289W        W 7353   9.204   7.487   0.529  0.2658 -0.0881  0.0216
 3290W        W 7354   0.038   4.057   9.028 -0.3647  0.1607 -0.1989
 3291W        W 7355   0.055  10.535   0.295 -0.0532  0.4937  0.2717
 3292W        W 7356   0.320   7.266   9.315 -0.2479  0.0130 -0.1142
 3293W        W 7357   5.541  10.713   7.908 -0.1960 -0.0187 -0.0354
 3294W        W 7358   2.851   0.161  10.074  0.1552 -0.1332  0.2926
 3295W        W 7359  10.171   8.491   2.416 -0.1325 -0.4198 -0.0241
 3296W        W 7360   4.832   3.559   2.560  0.0980  0.0234  0.0740
 3297W        W 7361   0.398   0.786  10.335  0.0416  0.1962  0.2863
 3298W        W 7362   4.169   1.720   0.770 -0.0331  0.3092 -0.1803
 3299W        W 7363   7.024   2.840   2.659 -0.0039 -0.2914  0.2900
 3300W        W 7364   9.536   0.448   9.496 -0.0545 -0.0479  0.0907
 3301W        W 7365   2.529   6.619   2.945  0.1603 -0.0354  0.2531
 3302W        W 7366   8.890   6.587   0.860 -0.1716  0.2485 -0.3421
 3303W        W 7367   1.874   8.312   1.253  0.2560  0.0162  0.3034
 3304W        W 7368   5.135   3.298   1.091 -0.0259 -0.0321 -0.2251
 3305W        W 7369   0.813  10.543  10.516 -0.2301  0.1126  0.1043
 3306W        W 7370   2.237  10.275   1.312  0.0596 -0.1362  0.0606
 3307W        W 7371   6.447   5.129  10.073  0.2602 -0.2569 -0.2875
 3308W        W 7372   4.303   1.812   7.384  0.0936 -0.0944  0.0112
 3309W        W 7373  10.104   7.639   8.517 -0.0758 -0.4101 -0.3370
 3310W        W 7374   2.256  10.153   0.284  0.0083 -0.1445  0.3168
 3311W        W 7375   4.651   3.992   7.864 -0.1198  0.1611  0.1421
 3312W        W 7376   6.848   0.563   8.921  0.0735  0.3436  0.1791
 3313W        W 7377   7.026   6.497   2.095  0.1024 -0.5140 -0.0136
 3314W        W 7378   6.944   5.180   9.829 -0.1080  0.1281 -0.1700
 3315W        W 7379   9.184   0.033   0.380 -0.0529  0.0137  0.2919
 3316W        W 7380  10.792   5.344  10.479  0.1987 -0.0821  0.0132
 3317W        W 7381   6.434   4.414   8.686 -0.3462 -0.0857 -0.3188
 3318W        W 7382   2.677   9.217   2.309  0.1709  0.0740 -0.1947
 3319W        W 7383  10.351   4.533  10.494  0.2585 -0.1538  0.1352
 3320W        W 7384   7.446   5.564   1.130 -0.0589 -0.1523 -0.2583
 3321W        W 7385  10.320  10.470   2.028  0.3768 -0.1404  0.0557
 3322W        W 7386   8.069   1.657   8.006  0.1104  0.2727  0.1339
 3323W        W 7387  10.742   7.096   3.514 -0.0922 -0.0730  0.0900
 3324W        W 7388   8.694   0.836   1.938 -0.1509 -0.3023  0.0308
 3325W        W 7389  10.529   1.513   9.427  0.2171  0.4511  0.0541
 3326W        W 7390   6.137   1.240   2.210  0.2037  0.2043  0.0214
 3327W        W 7391   6.296   4.827   3.479 -0.2513 -0.0315  0.0319
 3328W        W 7392   6.556   5.637  10.133  0.1639 -0.2520  0.3317
 3329W        W 7393   9.623   7.609   9.437  0.1307 -0.2683 -0.0692
 3330W        W 7394   6.685   2.875   8.039  0.1059  0.0807 -0.3021
 3331W        W 7395   7.952  10.576   8.889  0.1191 -0.0952  0.0201
 3332W        W 7396   1.374   0.861  10.522  0.1686  0.2258 -0.0834
 3333W        W 7397   2.552   5.742   2.337  0.1890  0.4454 -0.2372
 3334W        W 7398   1.836   0.071  10.959 -0.1389  0.1017  0.0243
 3335W        W 7399   1.964   3.877   0.965  0.0881  0.0494 -0.1956
 3336W        W 7400   5.174   9.684   7.803  0.0876 -0.1494 -0.0968
 3337W        W 7401   8.332   9.063   1.488  0.1226  0.1766  0.0728
 3338W        W 7402   5.358   5.244   7.856  0.0800 -0.3589  0.0206
 3339W        W 7403   2.518  10.780   8.336  0.2462 -0.0216  0.0269
 3340W        W 7404   6.963   7.464   3.453  0.5093  0.1984 -0.0229
 3341W        W 7405   4.933   4.735   3.057  0.2483  0.1666 -0.0690
 3342W        W 7406   4.978   7.043   8.190  0.0345  0.1473  0.0148
 3343W        W 7407  10.278   3.391   9.422  0.0039  0.0053 -0.1215
 3344W        W 7408   4.031   6.890   1.584  0.1119 -0.0690 -0.4236
 3345W        W 7409   4.683  10.386   8.552 -0.0706 -0.1777 -0.0090
 3346W        W 7410   8.570   9.702   0.967  0.5360 -0.5564  0.1082
 3347W        W 7411   9.276   5.335   1.019  0.1065  0.2871 -0.1402
 3348W        W 7412   2.175   7.547   0.786 -0.2024  0.1732  0.2902
 3349W        W 7413   5.528   2.661   8.576 -0.0836 -0.3449 -0.1171
 3350W        W 7414   1.362   3.871   1.633 -0.1097 -0.1492  0.0108
 3351W        W 7415   7.567   7.439   8.282 -0.0593 -0.3863 -0.2438
 3352W        W 7416   9.407   1.785   8.996  0.1498 -0.2394  0.2178
 3353W        W 7417   2.839   0.546   3.366  0.3857  0.1883 -0.1383
 3354W        W 7418   4.784   3.121   2.818 -0.0980 -0.1805  0.2806
 3355W        W 7419   5.483   9.473   7.034 -0.1378 -0.2236 -0.2487
 3356W        W 7420   0.660   5.761  10.612  0.2257  0.0537 -0.3211
 3357W        W 7421   8.179   9.657   8.908 -0.0818 -0.2237 -0.1120
 3358W        W 7422   9.281   4.243  10.346  0.0674  0.1237  0.1838
 3359W        W 7423   8.208   8.725   2.815 -0.0915  0.0971  0.1057
 3360W        W 7424   4.647   9.878   9.927 -0.3009  0.2372 -0.3027
 3361W        W 7425  10.690   1.706   2.429 -0.0477  0.1167 -0.2169
 3362W        W 7426   6.182   2.337   7.437 -0.1184  0.0684 -0.1571
 3363W        W 7427   5.273   6.901   0.069 -0.0586 -0.0115  0.0410
 3364W        W 7428   5.204  10.245   8.589 -0.0256 -0.1513  0.3259
 3365W        W 7429   4.472   4.005   0.902  0.2696 -0.0670  0.1080
 3366W        W 7430   2.830   2.423  10.509  0.1102 -0.2249 -0.1989
 3367W        W 7431   3.008   8.551   3.445 -0.0274  0.0998  0.2725
 3368W        W 7432   4.726   4.090   2.240  0.0322 -0.2683 -0.5006
 3369W        W 7433   7.077  10.025   8.738 -0.0911 -0.3179 -0.1870
 3370W        W 7434   3.929   3.471   2.013 -0.3330 -0.2835  0.0535
 3371W        W 7435   1.161   9.900   7.642 -0.4074  0.0436 -0.1227
 3372W        W 7436   7.200   7.605  10.515  0.0644  0.0544  0.1032
 3373W        W 7437   5.708   1.520   1.407 -0.0540  0.2765  0.1350
 3374W        W 7438  10.075   7.116  10.978 -0.0722  0.0544  0.1710
 3375W        W 7439   6.274   7.955   7.921  0.0193 -0.1979  0.0534
 3376W        W 7440   5.804  10.845   3.625 -0.1196 -0.0137 -0.0055
 3377W        W 7441   9.994   5.187   9.876 -0.3247 -0.1599  0.0898
 3378W        W 7442   5.150   9.804   8.907 -0.1912  0.1476  0.0206
 3379W        W 7443   3.530   3.751   2.254 -0.0750 -0.0605  0.0238
 3380W        W 7444   8.767   1.836  10.674  0.0764 -0.1070 -0.2627
 3381W        W 7445   8.396   6.931   3.037 -0.2184 -0.0533  0.0410
 3382W        W 7446   2.240   8.668   0.432  0.1880  0.2367  0.1393
 3383W        W 7447   8.081   5.345  10.459 -0.3581 -0.2056 -0.1092
 3384W        W 7448   0.677   3.513   9.182  0.0223 -0.2180 -0.1354
 3385W        W 7449   0.635   0.196   3.075 -0.0446 -0.0428  0.0478
 3386W        W 7450   6.536  10.750   9.673  0.0347 -0.0791 -0.0328
 3387W        W 7451   5.342   6.164   3.394  0.0503 -0.0289 -0.0069
 3388W        W 7452   3.835   2.871   7.911 -0.1352 -0.2443 -0.1635
 3389W        W 7453   5.422   3.196   8.963 -0.1040 -0.0151 -0.0560
 3390W        W 7454   3.944   4.395  10.493  0.1796  0.1351  0.1606
 3391W        W 7455   6.338   5.093   7.379  0.0245 -0.2311  0.3666
 3392W        W 7456   8.614   3.416   1.426  0.0482  0.3368  0.0018
 3393W        W 7457   3.081   9.774   0.010  0.2088 -0.0890  0.2490
 3394W        W 7458  10.160   3.709   9.054  0.1425 -0.2021 -0.0006
 3395W        W 7459   5.809   4.548   9.377 -0.0559  0.0664  0.0607
 3396W        W 7460   8.127   5.964   0.921 -0.1777  0.1971 -0.1284
 3397W        W 7461   9.129  10.293   8.319 -0.0104 -0.0373 -0.2006
 3398W        W 7462   1.566   9.783   9.495 -0.3298 -0.0025  0.1312
 3399W        W 7463   0.589   5.677   2.133  0.2955 -0.1732  0.0687
 3400W        W 7464   4.815   0.753  10.974  0.2791 -0.1094 -0.0865
 3401W        W 7465   9.066   7.102   4.190 -0.1170  0.1193  0.2394
 3402W        W 7466   3.311   3.927   0.135 -0.2590 -0.1242 -0.1611
 3403W        W 7467  10.403   7.712   9.907 -0.0779 -0.1902  0.0745
 3404W        W 7468   7.214  10.179  10.783 -0.2015  0.1621  0.0852
 3405W        W 7469   2.076   3.711  10.171 -0.1712 -0.1932  0.2495
 3406W        W 7470   5.235   2.761   2.675 -0.1491  0.0353 -0.0479
 3407W        W 7471   1.727   1.481   0.896 -0.0014 -0.1077 -0.1569
 3408W        W 7472   9.908   8.438   0.971 -0.0704  0.4301 -0.0480
 3409W        W 7473   5.720   4.947   8.017  0.0878 -0.1339  0.1757
 3410W        W 7474   7.459   4.424   7.740 -0.1087  0.0074 -0.0774
 3411W        W 7475   9.690   2.361   6.842  0.0553 -0.0693 -0.2584
 3412W        W 7476  10.302   3.473   6.603 -0.3092  0.1988 -0.1203
 3413W        W 7477   1.489   7.743  10.975 -0.1189 -0.0453  0.2006
 3414W        W 7478   1.252   2.352   0.634  0.1065  0.1513 -0.0174
 3415W        W 7479   5.360   1.090   1.371  0.1935 -0.0140  0.2634
 3416W        W 7480   6.546   6.554   2.817 -0.2359 -0.1066 -0.2827
 3417W        W 7481   4.508   6.861   7.847 -0.1231 -0.0343 -0.3504
 3418W        W 7482   9.104   7.056   0.839 -0.0271 -0.0596 -0.0960
 3419W        W 7483   4.748   9.523   9.078 -0.0400  0.1117  0.3209
 3420W        W 7484   0.875  10.920  10.829 -0.0220  0.1222  0.4365
 3421W        W 7485   0.253   8.943   2.516 -0.0056 -0.0228  0.2011
 3422W        W 7486   4.737   7.495   0.181 -0.2684 -0.1226 -0.0856
 3423W        W 7487   1.906   3.589  10.912  0.1736  0.0112 -0.1209
 3424W        W 7488   1.755   1.878   0.351 -0.0329 -0.0082 -0.0040
 3425W        W 7489   8.446   4.157  10.842 -0.1716 -0.4990  0.2797
 3426W        W 7490   8.507   1.837   3.364  0.0407  0.3079 -0.0543
 3427W        W 7491  10.257  10.543   8.942  0.0196  0.2339  0.2037
 3428W        W 7492   2.991   5.333   8.918  0.4084  0.0774 -0.0027
 3429W        W 7493   1.826   0.959  10.336  0.1465 -0.1017  0.2427
 3430W        W 7494   4.361   7.612   1.303  0.0919  0.0456 -0.2112
 3431W        W 7495   9.014   7.933   3.362 -0.0075 -0.2178  0.3404
 3432W        W 7496   3.191   9.082   2.079 -0.2092  0.0636 -0.2616
 3433W        W 7497   8.314  10.463   0.183  0.2315  0.1916  0.0048
 3434W        W 7498   2.527   5.462  10.845  0.1149 -0.2902 -0.0019
 3435W        W 7499   4.639   3.521   0.980  0.1765  0.0792 -0.2923
 3436W        W 7500   8.911   7.886   7.142 -0.3774 -0.0105  0.1379
 3437W        W 7501   4.704  10.306   0.627  0.3488 -0.0784 -0.1081
 3438W        W 7502   3.498   7.665  10.516  0.0266  0.1842 -0.0281
 3439W        W 7503   7.504   7.958   7.469  0.3823  0.5258 -0.0269
 3440W        W 7504   9.965   4.711  10.729 -0.3019  0.3745  0.2359
 3441W        W 7505   4.156   7.152   1.180 -0.2062 -0.2611  0.0055
 3442W        W 7506   1.167   6.915   2.236  0.0597  0.3453 -0.1002
 3443W        W 7507   6.020   6.255   2.107  0.2757  0.1354  0.1367
 3444W        W 7508  10.638  10.867   0.397  0.0338 -0.2885 -0.2071
 3445W        W 7509   6.916   8.224   1.308 -0.1327 -0.0782 -0.0671
 3446W        W 7510   2.725   8.486   1.033  0.1209  0.0185  0.0405
 3447W        W 7511   1.644   7.698   9.634 -0.2104  0.4966  0.2143
 3448W        W 7512   4.989   6.325   8.523 -0.1661  0.0085 -0.3075
 3449W        W 7513   9.911   7.353   2.332  0.0972  0.0321 -0.1350
 3450W        W 7514   3.154   2.103   9.190  0.2034  0.1210  0.0709
 3451W        W 7515   3.047   8.877   1.220 -0.2268 -0.0680  0.0533
 3452W        W 7516   6.952   5.249   0.316  0.1616  0.2087  0.3184
 3453W        W 7517   4.919   4.553   9.085  0.2186 -0.3350  0.1914
 3454W        W 7518  10.868   5.995   2.916 -0.2222 -0.1909  0.4057
 3455W        W 7519   1.270   7.093   1.781 -0.2024  0.0811 -0.1429
 3456W        W 7520   9.713   6.082   8.858  0.0686 -0.0677  0.1783
 3457W        W 7521   4.284   4.044   0.400  0.2593  0.0698 -0.3171
 3458W        W 7522   4.096  10.718  10.693 -0.0675  0.0219  0.2110
 3459W        W 7523   3.670   3.194   9.884  0.0066  0.1220 -0.2013
 3460W        W 7524   3.447   5.685  10.970  0.1370  0.0036 -0.2307
 3461W        W 7525   4.235   2.160   7.741 -0.3045  0.3179 -0.1198
 3462W        W 7526   7.459  10.263   0.838  0.2978  0.0287 -0.3431
 3463W        W 7527   1.582   2.740   2.278 -0.3141 -0.0612 -0.0385
 3464W        W 7528   6.382   7.730   9.940 -0.0436  0.0017  0.2488
 3465W        W 7529  10.067   2.772   0.512  0.0908  0.0003 -0.0838
 3466W        W 7530   3.612   8.301   1.683 -0.0327 -0.3297  0.1111
 3467W        W 7531   8.216  10.813   0.715 -0.5279  0.0586  0.1852
 3468W        W 7532   7.955   8.538  10.131  0.0808 -0.1290 -0.2155
 3469W        W 7533   9.196   5.221   8.562 -0.1157 -0.1278 -0.1737
 3470W        W 7534   4.836   2.358   0.694 -0.0243  0.1398 -0.1291
 3471W        W 7535   9.218   1.895  10.897 -0.1205  0.2256 -0.3435
 3472W        W 7536   6.016   1.070   0.170 -0.1850  0.1615  0.1097
 3473W        W 7537   7.730   8.957   0.201 -0.0745  0.0096  0.1602
 3474W        W 7538  10.224   1.370   0.093  0.1768 -0.0867  0.4332
 3475W        W 7539   1.168   5.375   1.325  0.1354 -0.2212  0.1575
 3476W        W 7540   4.819   6.288   1.727  0.0689 -0.1174  0.2564
 3477W        W 7541   5.577   7.512   7.352  0.2163 -0.0088 -0.1601
 3478W        W 7542   5.778   3.124   9.828  0.0021  0.2174  0.1956
 3479W        W 7543   0.437   8.644   8.519 -0.2066  0.1393 -0.2557
 3480W        W 7544   3.160   8.806   0.375  0.2753  0.2902 -0.0753
 3481W        W 7545  10.364  10.346   1.083 -0.0315 -0.0606  0.1053
 3482W        W 7546   8.568   6.322   1.950  0.2418  0.0893 -0.0221
 3483W        W 7547   7.656   7.813   8.888  0.3101 -0.4852 -0.0612
 3484W        W 7548   2.709  10.506   9.517  0.1595  0.0567  0.1771
 3485W        W 7549   9.245   6.198   7.945 -0.0300  0.0350  0.1439
 3486W        W 7550   8.544   5.597   1.008 -0.2129  0.0258 -0.1003
 3487W        W 7551   5.124   3.615   8.954 -0.0234 -0.0944  0.2754
 3488W        W 7552   2.762   9.297   1.847  0.1131 -0.0642  0.0548
 3489W        W 7553   6.351  10.782   8.240 -0.0950  0.2852  0.2545
 3490W        W 7554   8.683  10.168   8.475 -0.0694 -0.1166  0.5237
 3491W        W 7555   1.155   5.247   6.765  0.0395  0.0024 -0.1716
 3492W        W 7556   1.065   4.669   9.653  0.0750 -0.1237 -0.0259
 3493W        W 7557   1.196   1.440   3.731  0.1223  0.1095 -0.0915
 3494W        W 7558   3.739  10.032   8.805  0.0929 -0.1427  0.0080
 3495W        W 7559   3.281   9.254  10.036 -0.0343 -0.1953 -0.2208
 3496W        W 7560  10.406   9.866   1.234 -0.0345  0.2936  0.3016
 3497W        W 7561   6.958   1.687   1.838 -0.0290  0.1525 -0.2327
 3498W        W 7562   7.151   8.997   8.929 -0.2830  0.3223  0.2348
 3499W        W 7563   0.110   6.246   9.531  0.0554 -0.1315  0.0744
 3500W        W 7564   2.067   6.179   7.965 -0.0134 -0.2067  0.3498
 3501W        W 7565   6.274   6.370   9.415  0.0609 -0.0104 -0.0017
 3502W        W 7566  10.677   5.867   9.713 -0.2500 -0.0223 -0.2183
 3503W        W 7567   2.311  10.161   8.020  0.3611 -0.1773 -0.0026
 3504W        W 7568   5.292   1.232   8.665  0.2721  0.2101 -0.1105
 3505W        W 7569   3.903   5.929   0.071 -0.0978  0.2157 -0.1279
 3506W        W 7570   8.775   5.519   9.665 -0.1079  0.0423 -0.0277
 3507W        W 7571  10.117   1.887   4.295  0.0682  0.1528  0.0370
 3508W        W 7572   6.909   0.023   9.950 -0.0964  0.1850  0.1740
 3509W        W 7573   9.480   8.792   0.667  0.0761  0.0763 -0.0725
 3510W        W 7574   7.088   0.735   3.725  0.1262  0.2284  0.0783
 3511W        W 7575   3.480   2.992   2.284 -0.3798  0.0275 -0.1022
 3512W        W 7576   1.226   9.049   2.185  0.2488 -0.1730  0.0603
 3513W        W 7577   5.485   0.492   1.275 -0.0806 -0.2063 -0.0143
 3514W        W 7578   1.784   6.173   0.903 -0.0700 -0.1862 -0.2234
 3515W        W 7579   2.685   5.855   8.799 -0.1336  0.1673  0.1272
 3516W        W 7580   3.864   6.954   3.008  0.2444 -0.0555  0.2118
 3517W        W 7581   9.588   3.543   7.991  0.1228  0.5333 -0.1268
 3518W        W 7582   8.244   5.760   2.258  0.2055  0.0019 -0.0050
 3519W        W 7583   6.522   8.176   2.266 -0.0679  0.3856  0.3216
 3520W        W 7584   0.070   4.305   0.505  0.2475  0.2004  0.1187
 3521W        W 7585  10.185   8.424   7.969  0.3588  0.3297 -0.0735
 3522W        W 7586   4.429   9.169   9.234 -0.1850 -0.1677 -0.0941
 3523W        W 7587   6.353   4.925   1.468  0.1495  0.1637  0.3311
 3524W        W 7588   7.987   1.482   0.438  0.0276  0.2173  0.2588
 3525W        W 7589   5.219   2.189   2.014 -0.3556  0.1251 -0.0533
 3526W        W 7590   6.162   3.016   8.171  0.1951  0.2656 -0.1552
 3527W        W 7591   2.981   1.941   8.766  0.1491 -0.0778  0.1954
 3528W        W 7592   2.077   5.261  10.585 -0.0168  0.2210  0.1447
 3529W        W 7593  10.699   6.806   7.563 -0.0444  0.0254 -0.1030
 3530W        W 7594   8.140   6.288   1.294 -0.2281 -0.2359  0.0060
 3531W        W 7595   3.025   7.237   3.238  0.1196  0.1809  0.0634
 3532W        W 7596   1.268   4.215   9.524  0.1178  0.0716  0.1767
 3533W        W 7597  10.536   3.208   7.539  0.1851 -0.2545 -0.0719
 3534W        W 7598   7.034   3.704   9.530  0.0687  0.2160  0.1021
 3535W        W 7599   0.735   5.103   1.461  0.2448 -0.2129  0.1264
 3536W        W 7600   2.222   1.504   3.910  0.0246 -0.1959  0.2476
 3537W        W 7601   9.253   0.266  10.293  0.0024  0.3097  0.3136
 3538W        W 7602   5.492   7.470   2.394 -0.1935 -0.0061  0.1075
 3539W        W 7603   8.650   2.541   7.111  0.0166 -0.3626  0.1697
 3540W        W 7604   2.633   1.445   8.362 -0.0161 -0.1523  0.2764
 3541W        W 7605   4.914   2.300   3.031  0.1423  0.0718  0.3054
 3542W        W 7606   3.351   5.671   7.086 -0.1161  0.1678 -0.0592
 3543W        W 7607   5.620   9.887   7.996 -0.3152  0.1479  0.2357
 3544W        W 7608   0.224   5.457   0.540 -0.1135 -0.1157  0.0092
 3545W        W 7609   3.595   7.220   2.025 -0.0118 -0.2814 -0.1610
 3546W        W 7610   0.639   8.825   9.493 -0.0742  0.2239 -0.2971
 3547W        W 7611   3.100   6.603   2.054 -0.1901  0.0578  0.1196
 3548W        W 7612   4.789  10.714   9.267  0.1404 -0.2184 -0.0337
 3549W        W 7613   8.781  10.185   7.929  0.3754 -0.1099  0.2461
 3550W        W 7614   7.452  10.521   1.356  0.2172 -0.1863 -0.1521
 3551W        W 7615  10.005   3.725   3.412 -0.0913 -0.0476  0.1042
 3552W        W 7616   3.980   0.362   0.981 -0.1177 -0.0293 -0.2656
 3553W        W 7617   0.839   6.804   8.595  0.1132 -0.5368  0.0906
 3554W        W 7618   5.352   9.463   9.159 -0.3266  0.0233 -0.1304
 3555W        W 7619   1.276   4.290   7.001  0.2887 -0.0184  0.4428
 3556W        W 7620   3.304   6.134   2.930 -0.5414 -0.3058 -0.1819
 3557W        W 7621   7.757   9.907   0.568 -0.3015  0.1452  0.0546
 3558W        W 7622   9.791   4.187   3.212 -0.2012  0.1457 -0.2104
 3559W        W 7623   6.065   3.894   3.087  0.0154  0.0481  0.3338
 3560W        W 7624   5.466  10.300  10.134 -0.4670  0.2099 -0.2686
 3561W        W 7625   9.434   4.490   1.020 -0.3574  0.0628 -0.2904
 3562W        W 7626   3.577   7.933   0.135  0.3817  0.0699 -0.1313
 3563W        W 7627   6.625   4.457   9.643  0.0115  0.2145  0.1230
 3564W        W 7628   5.562   6.820   1.322  0.1160 -0.1558 -0.1020
 3565W        W 7629   5.934   3.328   0.815 -0.0197  0.2396 -0.1452
 3566W        W 7630   1.175  10.199   3.432  0.0136  0.0109 -0.3359
 3567W        W 7631   8.490  10.213   0.906 -0.2342  0.0359 -0.1781
 3568W        W 7632   5.769   4.532   3.634 -0.1999  0.0699 -0.2718
 3569W        W 7633   8.563   1.160   1.198  0.0123 -0.0635 -0.0195
 3570W        W 7634   1.717   1.664  10.407 -0.0456  0.1237 -0.0740
 3571W        W 7635   9.035   0.798   1.031  0.1249  0.3007 -0.1981
 3572W        W 7636   6.101   1.410  10.782 -0.1901  0.0435  0.1313
 3573W        W 7637   9.957   8.084   9.529  0.1563 -0.1842  0.0888
 3574W        W 7638   9.069  10.573   2.617  0.1802 -0.0016 -0.0700
 3575W        W 7639   6.446   9.447   8.424 -0.0756  0.1046  0.0285
 3576W        W 7640   9.307   0.825   4.071 -0.1499 -0.1946 -0.0974
 3577W        W 7641   8.567   8.601   9.609 -0.2947 -0.1463 -0.0161
 3578W        W 7642  10.137  10.296  10.282 -0.1090 -0.0488  0.1639
 3579W        W 7643   6.889  10.164   0.388  0.2304  0.1791 -0.1417
 3580W        W 7644   0.842   7.148   8.170 -0.2487  0.2176 -0.0214
 3581W        W 7645   9.520   6.524   2.025  0.2578 -0.2810 -0.2172
 3582W        W 7646   8.167   0.146   2.963 -0.0365 -0.4882  0.2530
 3583W        W 7647  10.877   8.437   0.489  0.2192 -0.0969  0.3480
 3584W        W 7648   5.558  10.081   1.030  0.2097 -0.2003 -0.1427
 3585W        W 7649  10.616   4.666   0.759 -0.2414 -0.2801 -0.0140
 3586W        W 7650   2.101  10.164   0.815 -0.2961 -0.1959  0.0942
 3587W        W 7651   0.923   5.377   1.877 -0.1425  0.0530 -0.0076
 3588W        W 7652   9.791   6.208   9.820 -0.0564 -0.2480  0.4244
 3589W        W 7653   5.948   5.050   9.395 -0.0102 -0.2988  0.0008
 3590W        W 7654   1.886   6.152   9.462 -0.1463  0.1791 -0.2132
 3591W        W 7655   8.252  10.279   2.125  0.0334  0.0207 -0.0375
 3592W        W 7656   2.241   1.834  10.357  0.1085  0.3264 -0.0760
 3593W        W 7657   3.114   3.251   9.796  0.2174 -0.0129  0.0432
 3594W        W 7658   5.559   4.110   9.671 -0.2926 -0.1093  0.2549
 3595W        W 7659   4.427   0.143   9.124 -0.0575  0.0796 -0.0476
 3596W        W 7660   5.986   2.910   9.473 -0.1996  0.1204  0.0083
 3597W        W 7661   4.225   8.742   2.285 -0.0106 -0.2384  0.3825
 3598W        W 7662   9.653  10.161   2.748  0.1733 -0.2598 -0.0054
 3599W        W 7663   2.653   8.041   0.261  0.1659 -0.1712  0.2341
 3600W        W 7664  10.593   0.287   9.368  0.1116  0.2285  0.1573
 3601W        W 7665  10.629   2.595   2.274  0.1421 -0.0800 -0.1696
 3602W        W 7666   3.249   5.041  10.313 -0.2388  0.1239  0.0337
 3603W        W 7667   2.293  10.197   3.334 -0.2046 -0.0889 -0.1000
 3604W        W 7668   7.090   3.881  10.323 -0.1266 -0.0419  0.0504
 3605W        W 7669   4.050   9.652   0.628  0.2838 -0.0045  0.0551
 3606W        W 7670   0.340   5.110   2.691 -0.0419  0.2873  0.0274
 3607W        W 7671   9.606  10.596   2.547 -0.0254  0.0166  0.1928
 3608W        W 7672   2.387   6.617   1.427  0.2755  0.0827 -0.0915
 3609W        W 7673   5.573  10.637   3.158  0.1225 -0.4391  0.0494
 3610W        W 7674   9.294   3.726  10.619  0.0279 -0.1288 -0.2100
 3611W        W 7675   7.339   9.289   1.756  0.1226  0.2505  0.1876
 3612W        W 7676   5.115   7.289   8.603 -0.3179 -0.0909 -0.0235
 3613W        W 7677   1.422   5.127   9.792  0.1479 -0.0909  0.3170
 3614W        W 7678   4.747   1.651   9.382  0.1865 -0.0899 -0.5071
 3615W        W 7679   5.191   9.040   9.812  0.0549 -0.4135 -0.0974
 3616W        W 7680   2.523   6.952   9.545  0.0897 -0.2664 -0.0735
 3617W        W 7681   7.015   7.630   0.008  0.0637  0.2009 -0.0416
 3618W        W 7682  10.898   5.853   1.419 -0.2723  0.1393 -0.0755
 3619W        W 7683   4.350   0.605   1.336 -0.1050  0.0025  0.0820
 3620W        W 7684  10.069  10.308   9.756 -0.4848 -0.0161  0.1032
 3621W        W 7685   2.557   1.012   3.611 -0.0572 -0.1635 -0.2383
 3622W        W 7686   2.475   7.152   8.863 -0.0908  0.2123  0.0934
 3623W        W 7687   7.401   0.806   9.135  0.1659  0.3223 -0.3814
 3624W        W 7688   8.765   0.117   2.732 -0.0926  0.2674  0.1742
 3625W        W 7689   0.400   0.818   7.977  0.3182 -0.0329  0.1602
 3626W        W 7690   1.069   1.578   8.016 -0.3631  0.1116 -0.6421
 3627W        W 7691   9.963  10.643  10.659 -0.2298 -0.0426 -0.0275
 3628W        W 7692   9.851   3.213  10.248  0.1588  0.1876 -0.0319
 3629W        W 7693   8.823   2.762   1.651  0.1881  0.3292  0.0906
 3630W        W 7694  10.874   0.627  10.147  0.2791 -0.2128  0.1182
 3631W        W 7695   3.495   3.655   7.865 -0.4280  0.0880  0.1534
 3632W        W 7696   9.584   8.707   9.392 -0.0547  0.2155  0.0069
 3633W        W 7697   3.298   4.496   2.255  0.2179  0.0731 -0.3176
 3634W        W 7698   8.429   3.733  10.512  0.1184  0.0675  0.0192
 3635W        W 7699   2.009   9.817   3.575 -0.1158  0.1094 -0.1185
 3636W        W 7700  10.153   8.096   0.688 -0.2108 -0.0373  0.2314
 3637W        W 7701   6.872   2.517   2.990  0.1342 -0.2149 -0.2730
 3638W        W 7702   4.906   5.098   1.571 -0.0874 -0.2339 -0.1816
 3639W        W 7703   6.711   7.199   0.138 -0.0689  0.0708 -0.0336
 3640W        W 7704   2.475   3.619  10.579  0.0347  0.1884  0.1522
 3641W        W 7705   1.156   8.846   9.678 -0.1070  0.0574  0.3096
 3642W        W 7706   4.257   6.387   0.119 -0.1781 -0.2508  0.0131
 3643W        W 7707   1.489   2.914   1.844 -0.0515  0.3210 -0.2188
 3644W        W 7708   3.238   9.437   9.558 -0.3211 -0.0012  0.0851
 3645W        W 7709   3.090   0.252  10.748  0.1999 -0.1219 -0.4430
 3646W        W 7710   2.108   0.889   2.589 -0.3197  0.0972  0.2453
 3647W        W 7711   0.815   4.942  10.461  0.0844 -0.3090  0.2628
 3648W        W 7712   3.475   9.873   3.053  0.0831  0.0061  0.2069
 3649W        W 7713   6.653   4.211   7.363  0.0656  0.0324 -0.0632
 3650W        W 7714   3.930   0.064   8.752  0.1925 -0.0442  0.2553
 3651W        W 7715   6.153   0.409   9.126 -0.2468 -0.0237  0.1879
 3652W        W 7716  10.787   8.604  10.050  0.0050  0.0361  0.2529
 3653W        W 7717   9.331   3.552   2.684  0.0695 -0.0509 -0.1628
 3654W        W 7718  10.727   3.147   2.452 -0.3915  0.1973  0.1929
 3655W        W 7719   8.093   2.694   4.012 -0.3326 -0.1830 -0.0640
 3656W        W 7720   4.974   0.437   0.616 -0.2468 -0.0490  0.1273
 3657W        W 7721   8.762   9.599   3.034 -0.0722  0.1028  0.0855
 3658W        W 7722   7.211   0.730   2.228  0.0703  0.4486  0.3522
 3659W        W 7723  10.102   3.309   7.270 -0.2101  0.1373 -0.0649
 3660W        W 7724   8.687   1.479   0.745  0.1326  0.0194  0.1225
 3661W        W 7725   3.003   9.846   9.389  0.1719  0.2310 -0.1817
 3662W        W 7726   6.103   5.008   8.921  0.0705  0.0444  0.2319
 3663W        W 7727  10.740   5.030   2.581 -0.0898  0.1463  0.2267
 3664W        W 7728   0.782   4.171  10.938 -0.2661  0.0667  0.2151
 3665W        W 7729   3.868   7.408   1.526  0.0997 -0.0982 -0.1674
 3666W        W 7730   2.663   0.573   9.484  0.1044 -0.1628 -0.0727
 3667W        W 7731   8.075   2.887   3.095 -0.0715  0.0490  0.2493
 3668W        W 7732   2.638   5.056   0.169 -0.2276 -0.2012 -0.2356
 3669W        W 7733  10.156   3.955  10.092 -0.0561  0.1923  0.0820
 3670W        W 7734   3.801   8.753   1.862 -0.0826 -0.0088 -0.2418
 3671W        W 7735   2.518   2.149   1.548  0.1314  0.0847  0.1239
 3672W        W 7736   7.724   8.530   2.783  0.3379 -0.2422 -0.1871
 3673W        W 7737   1.688   9.216  10.937  0.3292  0.0689  0.2971
 3674W        W 7738   0.042   4.180   0.988  0.2833 -0.2813 -0.1226
 3675W        W 7739   2.740   6.979   8.147 -0.1289 -0.0360 -0.0190
 3676W        W 7740   5.262   2.758   8.983  0.1865  0.2058  0.0773
 3677W        W 7741   8.374  10.753   7.255 -0.2788  0.0928 -0.3244
 3678W        W 7742   5.336   6.793   9.350  0.2209 -0.3684  0.1665
 3679W        W 7743   7.210   7.761   2.731  0.0112 -0.0641  0.1930
 3680W        W 7744   4.391   6.734   1.085 -0.0611 -0.0810 -0.0713
 3681W        W 7745   4.444   8.596   0.768  0.2186  0.1198 -0.1159
 3682W        W 7746   1.174   3.496   7.501 -0.0479 -0.3455 -0.2019
 3683W        W 7747   4.548   6.625   8.427  0.3658  0.3546  0.0465
 3684W        W 7748   6.753   0.075   7.932  0.3016 -0.1562  0.2433
 3685W        W 7749   3.607   6.568  10.522  0.1099 -0.1664  0.0348
 3686W        W 7750   7.400   2.764   0.230  0.2820 -0.0448  0.0009
 3687W        W 7751   4.814   0.819   9.397 -0.0565 -0.1396  0.1977
 3688W        W 7752   9.137   6.206   1.963 -0.2294  0.2628 -0.0375
 3689W        W 7753   4.932   8.485   7.297  0.2782  0.0906 -0.0775
 3690W        W 7754   0.907   8.542   8.359  0.1084 -0.1164  0.2140
 3691W        W 7755   8.260   6.103   0.158 -0.1432  0.1165 -0.4622
 3692W        W 7756   6.660   5.757   2.426  0.3212  0.3688 -0.1958
 3693W        W 7757   8.512   0.552   2.908  0.1304  0.3328  0.0892
 3694W        W 7758   4.975   5.755   8.748 -0.2241 -0.1423 -0.1346
 3695W        W 7759  10.610   5.488   8.976  0.0222  0.0852  0.1209
 3696W        W 7760   3.896  10.172   8.195 -0.1659  0.2123 -0.1977
 3697W        W 7761   8.802   1.080   3.855  0.2735 -0.1871 -0.0713
 3698W        W 7762   2.477   3.925   0.915 -0.0718 -0.5990  0.3670
 3699W        W 7763   6.799   4.791  10.138  0.2025 -0.0377 -0.1422
 3700W        W 7764   5.876   2.891   1.250 -0.0759 -0.1109 -0.1454
 3701W        W 7765   0.379   3.596   0.340  0.0681 -0.0783 -0.1383
 3702W        W 7766   2.968   3.029   1.121  0.1878  0.1281  0.1216
 3703W        W 7767   6.755   8.987   2.507 -0.0203 -0.0041  0.0741
 3704W        W 7768   3.050   7.606   9.466  0.0628 -0.0549 -0.0857
 3705W        W 7769   1.404   0.893   9.966 -0.2563  0.0633  0.1758
 3706W        W 7770   8.170   0.743   9.626 -0.0818 -0.2586  0.1715
 3707W        W 7771   2.280   2.110   3.187 -0.1023  0.3794  0.0548
 3708W        W 7772   4.089   8.324   8.757  0.0215 -0.3844  0.0878
 3709W        W 7773   3.183   8.759  10.146 -0.0181  0.0170  0.0730
 3710W        W 7774   3.330   8.436   7.801 -0.0403  0.2419  0.0338
 3711W        W 7775   8.148   6.858   8.474  0.0623  0.3395  0.0420
 3712W        W 7776   4.944   0.189   9.011  0.3943  0.0139  0.0303
 3713W        W 7777   1.291   2.282  10.024  0.2093 -0.0974 -0.0037
 3714W        W 7778   5.098   6.560   8.019  0.2027 -0.0411 -0.1298
 3715W        W 7779   2.883   7.237   8.621  0.1010  0.1247  0.3398
 3716W        W 7780   8.101   7.954   8.701 -0.0478  0.0138  0.2060
 3717W        W 7781   5.460   9.724   0.648  0.0859 -0.1796  0.0359
 3718W        W 7782   7.778   5.190   0.732  0.0567  0.1096  0.2880
 3719W        W 7783   1.697   9.672   0.767 -0.0490  0.1718  0.2045
 3720W        W 7784   2.492   4.824   1.208 -0.3156  0.0538  0.0260
 3721W        W 7785   2.153   0.446   0.105  0.0246  0.0175 -0.1732
 3722W        W 7786   8.622   8.632   1.381 -0.2740  0.1547 -0.0814
 3723W        W 7787   1.700   3.076  10.875  0.1790  0.2749 -0.0395
 3724W        W 7788  10.343   7.659   0.491 -0.3112 -0.0708 -0.1948
 3725W        W 7789   4.596   7.140   2.017  0.1772 -0.0761 -0.5504
 3726W        W 7790   8.531   1.382   2.098  0.0805 -0.2447 -0.3025
 3727W        W 7791   6.480   6.117   3.400 -0.3202 -0.1270  0.0639
 3728W        W 7792   6.209   6.350   0.689 -0.1141 -0.1812  0.0474
 3729W        W 7793   6.012   6.758   2.362 -0.1016  0.0656  0.1983
 3730W        W 7794   3.151   0.715   7.304 -0.0265 -0.2243  0.2381
 3731W        W 7795   0.586  10.529   9.110  0.0930 -0.1807  0.0619
 3732W        W 7796   7.239  10.192   2.167  0.1099 -0.0036  0.2349
 3733W        W 7797   1.152   4.413   0.819  0.0447  0.0653  0.0041
 3734W        W 7798   5.822   4.731   8.485 -0.0950  0.0488 -0.0981
 3735W        W 7799   6.133   6.223  10.785 -0.1055 -0.0880 -0.1356
 3736W        W 7800   9.217   2.064   2.812 -0.0095 -0.3352  0.1735
 3737W        W 7801   9.851   4.937  10.286 -0.0042 -0.0473  0.0448
 3738W        W 7802   5.936   7.400   8.557  0.0705  0.0787  0.2606
 3739W        W 7803   1.416   0.693   8.566  0.0788  0.0193  0.1156
 3740W        W 7804   4.461   8.205   3.035 -0.0684  0.0376  0.1601
 3741W        W 7805   5.704   1.984   0.164  0.0704 -0.2380  0.1496
 3742W        W 7806   6.093   0.649   7.869  0.1479 -0.2722 -0.1492
 3743W        W 7807   3.109   9.218   2.590  0.1133 -0.2513 -0.0208
 3744W        W 7808   5.713   2.587  10.789  0.3010  0.1580  0.0224
 3745W        W 7809   2.773   8.355   2.628 -0.0112 -0.0374 -0.0183
 3746W        W 7810   1.588   2.093   1.601 -0.1418 -0.1028  0.0333
 3747W        W 7811   1.586   5.566  10.227 -0.1530  0.0286  0.2884
 3748W        W 7812  10.790   5.408   0.136 -0.1731 -0.1062 -0.0617
 3749W        W 7813  10.873   0.366   8.593 -0.0463 -0.3456 -0.0163
 3750W        W 7814   2.154   6.063   2.519  0.0279 -0.1028  0.3227
 3751W        W 7815   7.436   8.629  10.000 -0.2123  0.0247  0.2098
 3752W        W 7816   8.126   2.419   0.065 -0.1922 -0.1901  0.2869
 3753W        W 7817   3.272   1.142   3.124 -0.0694 -0.2101  0.0128
 3754W        W 7818   8.263   1.998   9.308 -0.0292 -0.1461  0.2643
 3755W        W 7819   0.296   1.447   3.344  0.0848  0.1116  0.0014
 3756W        W 7820   6.560   9.221   9.825  0.2144 -0.0829  0.0084
 3757W        W 7821   2.189   5.453   0.275  0.3101 -0.3465 -0.3504
 3758W        W 7822   7.356   5.806   1.677 -0.1147  0.0354 -0.2820
 3759W        W 7823   8.018   8.176   3.169  0.1062 -0.2715  0.1170
 3760W        W 7824   4.099   4.978   8.295  0.0073 -0.1293 -0.1157
 3761W        W 7825   9.428   4.014   0.002  0.4280  0.0399  0.1055
 3762W        W 7826   0.477   0.918   3.138 -0.0340 -0.0568 -0.0025
 3763W        W 7827   4.280   0.069  10.154 -0.0271 -0.0690 -0.1983
 3764W        W 7828   4.540   1.981  10.416  0.1937 -0.0298  0.0138
 3765W        W 7829   9.376   8.626   8.488  0.0606  0.0696  0.1517
 3766W        W 7830   0.079   2.827  10.425 -0.1303  0.1047 -0.0402
 3767W        W 7831   0.333   4.848   9.115 -0.0019 -0.3104  0.0017
 3768W        W 7832   9.206   1.175   1.562 -0.1334 -0.0441  0.1803
 3769W        W 7833  10.361   9.097   9.385 -0.1223 -0.0912  0.1755
 3770W        W 7834   2.562  10.499   1.671 -0.2288  0.0649 -0.3046
 3771W        W 7835   8.675   0.537   9.022 -0.2595 -0.0293  0.0750
 3772W        W 7836   3.584   1.555   0.101 -0.3135  0.2332  0.0024
 3773W        W 7837   6.503   4.722   8.296  0.2878 -0.1773  0.1990
 3774W        W 7838   6.946   5.102   9.310 -0.0346 -0.0269  0.0578
 3775W        W 7839   7.046   2.477  10.461 -0.0577  0.3842  0.1661
 3776W        W 7840  10.050   8.856   8.098  0.2838 -0.2392 -0.0199
 3777W        W 7841   1.807   0.365   8.831 -0.3560  0.0685 -0.0398
 3778W        W 7842   7.000   0.751   2.701 -0.2616  0.1654  0.0381
 3779W        W 7843   4.248   2.525   1.228  0.2433 -0.1535 -0.1294
 3780W        W 7844   3.171   0.399   9.446  0.0400  0.2051 -0.1463
 3781W        W 7845  10.506  10.900   1.885  0.1379 -0.2033  0.1611
 3782W        W 7846   9.819   5.947   1.266 -0.1364  0.1334 -0.0766
 3783W        W 7847  10.178   8.447   2.926  0.0851  0.3090 -0.0777
 3784W        W 7848   0.436   7.143   2.895  0.1326 -0.0174  0.0410
 3785W        W 7849   9.720   9.422   0.818  0.1846  0.3747  0.3905
 3786W        W 7850   3.178   6.837   7.244  0.1751 -0.0005  0.4140
 3787W        W 7851   7.834   0.884  10.496 -0.0570 -0.0406 -0.1291
 3788W        W 7852   0.229   8.185   0.876 -0.1454 -0.1460  0.3084
 3789W        W 7853   1.640   9.736   1.953 -0.0092 -0.0549  0.3010
 3790W        W 7854   4.873   3.346  10.245 -0.2174  0.0791 -0.2745
 3791W        W 7855   4.285  10.774   2.316  0.3055 -0.1529 -0.1002
 3792W        W 7856   6.404   6.081   8.318 -0.2433  0.2140  0.2365
 3793W        W 7857   2.406   7.961   9.898  0.0030 -0.0245 -0.0013
 3794W        W 7858  10.640  10.720   9.211 -0.1036 -0.1309 -0.0442
 3795W        W 7859   6.229   0.073   1.624  0.3922  0.1017  0.0254
 3796W        W 7860   9.527   9.675   8.321 -0.0990 -0.0167 -0.0342
 3797W        W 7861   1.027   2.820   7.933 -0.1439 -0.3024  0.0807
 3798W        W 7862   3.278   5.618   7.597 -0.2055 -0.0433 -0.1263
 3799W        W 7863   1.504   9.552  10.402 -0.0648  0.1901  0.0276
 3800W        W 7864  10.930   5.923   7.066 -0.3093 -0.2884  0.0636
 3801W        W 7865   5.050  10.647   8.806  0.2093  0.0286 -0.2714
 3802W        W 7866   3.476   3.979   8.247 -0.3917 -0.2991  0.2061
 3803W        W 7867   8.787   4.897   0.425 -0.0436  0.1800  0.2845
 3804W        W 7868   3.586   2.639   0.469 -0.2974  0.0787  0.1664
 3805W        W 7869   2.090   9.556  10.272 -0.0756  0.2292 -0.0217
 3806W        W 7870   6.654   2.483   1.232  0.0449  0.1097  0.0437
 3807W        W 7871   7.656   5.175   9.262 -0.4028 -0.1582 -0.1382
 3808W        W 7872   8.440   2.185   9.824  0.1196  0.0549 -0.0944
 3809W        W 7873   6.740   4.295   8.233 -0.0180 -0.2379  0.0523
 3810W        W 7874   3.820  10.393   3.072  0.0588 -0.0316  0.1497
 3811W        W 7875   2.006   7.484   1.281  0.0148  0.1355 -0.0039
 3812W        W 7876   2.301   7.554   1.669 -0.0898 -0.3423  0.0376
 3813W        W 7877   6.687   3.775   8.376 -0.0134  0.0421 -0.3747
 3814W        W 7878   8.536   2.144   0.006  0.1409 -0.2350  0.0776
 3815W        W 7879  10.921   1.666   1.139 -0.0668 -0.2571 -0.0850
 3816W        W 7880   4.142   4.057   9.509  0.1567  0.0519  0.2077
 3817W        W 7881   8.453   3.802   2.956 -0.0159  0.2106 -0.4741
 3818W        W 7882   4.829   2.700   9.558  0.0471  0.2001 -0.0391
 3819W        W 7883   0.145   4.561   8.239 -0.0189  0.0786 -0.1641
 3820W        W 7884   9.832   0.092   9.430 -0.2600  0.3008 -0.1062
 3821W        W 7885   2.386   8.276   3.724  0.2102  0.0896  0.0299
 3822W        W 7886   7.748   7.472   0.923 -0.0008 -0.1192 -0.1968
 3823W        W 7887   1.446   5.892   1.692  0.0029 -0.1848 -0.1283
 3824W        W 7888  10.849   9.738   9.956  0.1682 -0.0298 -0.1795
 3825W        W 7889   0.888   2.873  10.435  0.0102  0.0641  0.2068
 3826W        W 7890   8.916   2.336  10.705 -0.0867 -0.0445 -0.3271
 3827W        W 7891  10.312   6.315   2.610  0.0072  0.3234  0.1382
 3828W        W 7892   4.989   3.168   9.232 -0.1965  0.2187 -0.1671
 3829W        W 7893   3.850   2.208   9.569  0.2181 -0.1873  0.0255
 3830W        W 7894   3.660   9.437  10.404 -0.2804  0.0326  0.3114
 3831W        W 7895   4.031   4.957   1.294 -0.1223  0.1232 -0.1905
 3832W        W 7896   4.433   5.974   9.748  0.0846  0.3578 -0.0532
 3833W        W 7897   1.710   5.430   1.486 -0.3454  0.0956  0.1741
 3834W        W 7898   2.446   4.135   0.399 -0.2100  0.1510 -0.3516
 3835W        W 7899   5.346   0.686  10.830 -0.1721  0.0128 -0.0521
 3836W        W 7900  10.233   6.634   0.245  0.0837  0.1649  0.1318
 3837W        W 7901   1.723   0.564  10.711  0.3065 -0.0052  0.2626
 3838W        W 7902   5.028   4.271   0.986  0.5717 -0.2552 -0.4720
 3839W        W 7903   8.488  10.048  10.936  0.0202 -0.3620  0.1214
 3840W        W 7904   8.460   7.734   2.544  0.3705  0.0727 -0.1334
 3841W        W 7905   8.911   2.999   9.992  0.5280 -0.1745 -0.0248
 3842W        W 7906   7.674   6.546   9.682 -0.1522 -0.1865  0.1603
 3843W        W 7907   3.684   3.145  10.580  0.0220  0.2629  0.1775
 3844W        W 7908   9.884   4.975   0.205  0.2646  0.0957 -0.0907
 3845W        W 7909   8.903   9.137   1.681 -0.2263  0.1373 -0.1562
 3846W        W 7910   2.077   4.683   1.477 -0.0203 -0.2680 -0.1965
 3847W        W 7911   4.324   8.260  10.842 -0.0206 -0.1188 -0.0520
 3848W        W 7912   0.855   3.742   8.270 -0.0839 -0.1785 -0.1034
 3849W        W 7913   2.181   3.528   8.135  0.1863 -0.1984  0.1196
 3850W        W 7914   9.593   3.331   1.758 -0.3878  0.2893  0.2974
 3851W        W 7915   6.023  10.435   0.328  0.0701 -0.1503  0.1363
 3852W        W 7916   1.779   9.159  10.412  0.0942 -0.0463 -0.2595
 3853W        W 7917  10.660   5.536   1.094 -0.0499 -0.0940 -0.0643
 3854W        W 7918   2.535   0.547   1.989 -0.1730  0.0101 -0.2854
 3855W        W 7919   0.477   2.544  10.542 -0.1708  0.1323 -0.1487
 3856W        W 7920   9.870   4.714   9.774 -0.2587 -0.3132  0.3022
 3857W        W 7921   8.684   1.730   1.155  0.2423 -0.3227  0.1392
 3858W        W 7922   3.378   8.928  10.561  0.1567 -0.0799  0.0864
 3859W        W 7923   1.798   9.376   9.136 -0.0442  0.0893 -0.0863
 3860W        W 7924   3.114   2.885   0.132 -0.1281 -0.0033  0.1438
 3861W        W 7925   6.576   8.325   1.737  0.0042  0.1320  0.0199
 3862W        W 7926   0.126   3.579   8.898  0.0539 -0.0200  0.2917
 3863W        W 7927   8.490   5.973   1.344  0.1252  0.2520  0.2666
 3864W        W 7928  10.883   5.380   9.563 -0.1161  0.0290 -0.3448
 3865W        W 7929  10.112   4.864   1.585 -0.2023  0.2615 -0.0528
 3866W        W 7930   1.956   7.463   8.181 -0.2859  0.0985 -0.1322
 3867W        W 7931  10.646   4.645   2.919 -0.0362  0.4673 -0.0685
 3868W        W 7932   5.075   7.035   3.469 -0.2213 -0.0255  0.1675
 3869W        W 7933   7.496   0.527   8.032 -0.4107 -0.0060  0.0812
 3870W        W 7934   0.928  10.030   0.437  0.3400  0.0830 -0.4074
 3871W        W 7935   6.211   3.627   9.304 -0.0472 -0.4137  0.0759
 3872W        W 7936   6.860   8.228   0.085 -0.1537 -0.3405  0.0827
 3873W        W 7937   8.459   0.960   2.628 -0.2878 -0.1370 -0.1307
 3874W        W 7938   7.295   5.984  10.194 -0.1689  0.0593 -0.1114
 3875W        W 7939   3.950   0.975   8.411  0.1735  0.2530 -0.0220
 3876W        W 7940   8.557   8.549   8.230 -0.2144 -0.0410 -0.1415
 3877W        W 7941   9.789   9.074   7.683 -0.1814 -0.0234 -0.2675
 3878W        W 7942   2.484   2.301   7.596  0.0121 -0.3524 -0.0261
 3879W        W 7943   7.197   0.199  10.455 -0.2016  0.0477 -0.1564
 3880W        W 7944   4.435  10.775   1.848  0.0219  0.0859 -0.2506
 3881W        W 7945   9.486   1.901   2.090  0.2171 -0.0500 -0.0955
 3882W        W 7946   0.359   7.185   0.639  0.1823 -0.0739  0.0343
 3883W        W 7947   2.995   8.977   9.724  0.2042  0.1058 -0.1490
 3884W        W 7948   9.066  10.270   0.786  0.0718  0.1139  0.0073
 3885W        W 7949   6.970  10.797   3.809 -0.0577 -0.2287  0.0541
 3886W        W 7950   4.279   2.184  10.075 -0.0642  0.0989  0.1340
 3887W        W 7951   2.129   7.034   9.292 -0.0636  0.0533  0.1142
 3888W        W 7952   0.070   9.481   2.413 -0.3424  0.0651  0.0845
 3889W        W 7953   4.099   5.686   9.049  0.0457  0.1290 -0.4213
 3890W        W 7954   6.141   1.748   2.398  0.0313  0.0654 -0.1686
 3891W        W 7955   6.917   1.904   1.247  0.2710 -0.3969  0.3129
 3892W        W 7956   3.122   1.691   2.080  0.1245  0.0645 -0.2922
 3893W        W 7957   1.513   5.446  10.704 -0.0242  0.1932  0.1280
 3894W        W 7958   8.108   6.929   0.071  0.2782  0.1196 -0.1437
 3895W        W 7959   8.644   5.723  10.532 -0.0821  0.4631  0.1081
 3896W        W 7960   5.859  10.057   9.100 -0.0051 -0.5723  0.1210
 3897W        W 7961   4.915   8.737   1.009  0.0490 -0.1898  0.0163
 3898W        W 7962   8.621   1.431   8.613  0.0651  0.0792 -0.1876
 3899W        W 7963   5.743   3.300  10.307 -0.2647  0.0951 -0.2631
 3900W        W 7964   2.405   6.274   8.749 -0.3119  0.1130 -0.0358
 3901W        W 7965   0.648   6.475   7.075 -0.1076  0.0292  0.3352
 3902W        W 7966   3.502   8.539   3.125  0.0372  0.0938 -0.0778
 3903W        W 7967   5.772   6.991   2.024  0.0686 -0.0854  0.0104
 3904W        W 7968   3.641   9.616   0.307  0.2258  0.4096 -0.1448
 3905W        W 7969   3.098   1.446   0.295  0.1108 -0.3452  0.2537
 3906W        W 7970   1.673  10.814   8.569  0.0651  0.0910  0.0117
 3907W        W 7971   2.421   2.485   0.621  0.2342 -0.3648 -0.1176
 3908W        W 7972   5.447   4.085   0.725  0.3456 -0.1240 -0.2915
 3909W        W 7973   5.305   9.836  10.361 -0.1415  0.1670  0.0973
 3910W        W 7974   3.850   6.206  10.161  0.1424  0.0712  0.2015
 3911W        W 7975   7.550   1.713   1.922 -0.1509  0.3765  0.0473
 3912W        W 7976   6.721   9.685   0.432  0.1214 -0.0823  0.0292
 3913W        W 7977  10.837  10.695   9.703 -0.1342 -0.1583  0.1563
 3914W        W 7978  10.342   6.749  10.058 -0.2653 -0.0179 -0.0553
 3915W        W 7979   1.724   6.595   8.050  0.0454 -0.0071  0.0378
 3916W        W 7980   7.896   1.464   9.958  0.1420 -0.2228  0.0149
 3917W        W 7981   7.703   4.687  10.023  0.4471 -0.2345 -0.2036
 3918W        W 7982   9.392   5.856   0.974  0.3172 -0.1411  0.0088
 3919W        W 7983   2.129   9.591   9.453  0.2060 -0.3808 -0.2379
 3920W        W 7984   2.925   4.559   7.729  0.1987  0.0323 -0.0004
 3921W        W 7985   0.554   8.080   1.323 -0.0321 -0.4256  0.1247
 3922W        W 7986   0.784   7.845   2.434  0.4565 -0.2277  0.1045
 3923W        W 7987   9.013   3.102   0.726  0.0426 -0.2294  0.0041
 3924W        W 7988   8.487   2.274   7.481  0.1440  0.1199  0.0843
 3925W        W 7989   0.735  10.831   0.341 -0.1381 -0.2438 -0.1380
 3926W        W 7990   6.569   3.901  10.953  0.1206 -0.0126  0.0190
 3927W        W 7991   6.607   6.026   1.371 -0.1738  0.2634  0.1551
 3928W        W 7992  10.528   1.560   3.540 -0.0545  0.0034 -0.1339
 3929W        W 7993   1.501   4.553   1.505 -0.0022 -0.1581 -0.2071
 3930W        W 7994   8.420   9.158   2.900 -0.0462  0.1299 -0.1120
 3931W        W 7995   8.220  10.345   2.644 -0.2803 -0.0362  0.4222
 3932W        W 7996   5.244  10.676   8.325  0.1083 -0.0833  0.1653
 3933W        W 7997   9.902   5.320   1.472 -0.2766  0.2851  0.0119
 3934W        W 7998   6.144   8.715   3.363 -0.2693 -0.0914  0.0287
 3935W        W 7999   9.878   9.416   9.222  0.0867  0.3829  0.1418
 3936W        W 8000   4.785   6.045   7.295  0.1719  0.1851  0.0664
 3937W        W 8001   3.920   6.879   9.590 -0.0383 -0.1821  0.0698
 3938W        W 8002  10.844  10.012   9.294  0.0173 -0.2268  0.0267
 3939W        W 8003   4.488   2.208   2.651 -0.1373  0.1392 -0.1607
 3940W        W 8004   1.128   5.897   0.342 -0.2752  0.1565 -0.2133
 3941W        W 8005   2.576   4.665   8.262 -0.1492 -0.5583 -0.1465
 3942W        W 8006   9.970   2.107   9.902  0.2287 -0.0626 -0.0864
 3943W        W 8007   5.727   2.986   2.681 -0.0967  0.2612  0.1824
 3944W        W 8008   6.501   4.131   1.409  0.3910 -0.0620  0.0943
 3945W        W 8009   1.349   7.029   0.862  0.1728 -0.2882 -0.0908
 3946W        W 8010   7.615   6.856  10.884  0.1513 -0.2919  0.1615
 3947W        W 8011   6.963   2.439   8.252 -0.2189 -0.2450 -0.0903
 3948W        W 8012   8.256   2.499   7.980 -0.1297  0.0726  0.3356
 3949W        W 8013   7.516  10.599   1.922  0.2871  0.2504  0.0769
 3950W        W 8014   3.187   7.898   2.634 -0.0489 -0.1926  0.0117
 3951W        W 8015   3.270   1.611   8.981 -0.0621  0.0334  0.0957
 3952W        W 8016   1.590   3.184   0.973  0.0444  0.1821  0.1343
 3953W        W 8017   6.433   1.288   0.301 -0.1736 -0.2031 -0.0935
 3954W        W 8018   6.771   8.054   0.597  0.1276  0.1937  0.2093
 3955W        W 8019   2.803   1.908   0.278  0.0456  0.1366  0.0672
 3956W        W 8020   8.986   2.382   7.455 -0.1208 -0.1971  0.1145
 3957W        W 8021   2.862   3.657  10.836 -0.4602  0.0776 -0.3295
 3958W        W 8022   7.399   6.137   8.861 -0.1635 -0.1290 -0.0393
 3959W        W 8023   6.713   6.054   9.482 -0.3011  0.4493 -0.0082
 3960W        W 8024   6.578  10.466  10.094  0.1337 -0.1542  0.1025
 3961W        W 8025   2.788   5.305   2.452 -0.2841  0.2007 -0.4204
 3962W        W 8026   3.005   3.464   7.722  0.0116 -0.1133 -0.1128
 3963W        W 8027   2.086   0.564   0.675  0.4638 -0.1067 -0.1896
 3964W        W 8028   0.709   9.014   1.808  0.0438 -0.0594 -0.3042
 3965W        W 8029   3.346   0.950   2.630  0.3783  0.1212 -0.0406
 3966W        W 8030  10.669   3.182   2.967 -0.2247  0.2205 -0.0832
 3967W        W 8031   5.073   3.733   9.810 -0.2865  0.0444  0.0890
 3968W        W 8032   5.394   3.767  10.824 -0.1135  0.0840 -0.1474
 3969W        W 8033   0.474   4.405   1.339  0.0701  0.0314 -0.3606
 3970W        W 8034   5.278   3.637  10.347 -0.1336  0.1285 -0.0106
 3971W        W 8035   2.530   2.770   1.974 -0.0481  0.2444  0.0413
 3972W        W 8036   2.654  10.371   3.011  0.0278 -0.1663 -0.0042
 3973W        W 8037   3.576   9.209   8.339 -0.1926 -0.0467 -0.0271
 3974W        W 8038   3.110   4.218   0.543 -0.1042  0.1063 -0.1477
 3975W        W 8039   4.062  10.019   2.491 -0.0850 -0.0465 -0.0385
 3976W        W 8040   7.398   4.210   1.797 -0.1041 -0.2383  0.0310
 3977W        W 8041   3.137   6.783  10.287  0.0763  0.0671 -0.0222
 3978W        W 8042   1.371   4.101   8.464 -0.1245  0.0110  0.0827
 3979W        W 8043   0.995   5.638   8.817 -0.1648  0.4170  0.1674
 3980W        W 8044   7.406  10.806  10.128 -0.3070  0.0328 -0.1449
 3981W        W 8045   8.156   1.292  10.381 -0.1848  0.2096 -0.0826
 3982W        W 8046   2.019   8.841  10.924 -0.0153 -0.0685  0.1360
 3983W        W 8047   7.344   8.161   0.463 -0.5150  0.0336  0.2407
 3984W        W 8048   5.992   7.672   3.230  0.0293  0.2610  0.0432
 3985W        W 8049   4.583   4.364   0.081 -0.0984 -0.0792 -0.1294
 3986W        W 8050   1.051   1.704   8.838  0.0774 -0.0242  0.2669
 3987W        W 8051   7.928   5.713   1.526  0.0936  0.2687 -0.1591
 3988W        W 8052   2.826   7.040   9.180  0.0563  0.0242  0.3820
 3989W        W 8053   7.557   0.622   0.560 -0.4055  0.0298 -0.1637
 3990W        W 8054   3.165   3.810   9.753 -0.0645  0.0001  0.3409
 3991W        W 8055   5.745   7.095   0.170 -0.0407  0.4677  0.5470
 3992W        W 8056  10.929   7.831   1.168  0.1397  0.0909 -0.0416
 3993W        W 8057   0.923   7.214   0.612 -0.1534 -0.0357  0.0451
 3994W        W 8058   3.184   5.716   0.423 -0.3048 -0.1498 -0.0574
 3995W        W 8059   7.978   8.005  10.080 -0.1190 -0.4112 -0.2408
 3996W        W 8060   3.354  10.659   2.894  0.0116  0.1136  0.0880
 3997W        W 8061   7.857   2.122  10.766  0.0681  0.0985  0.1492
 3998W        W 8062   6.268   4.202   8.221 -0.2737 -0.3188  0.0984
 3999W        W 8063   1.901   4.371   7.709 -0.0354 -0.2053  0.0399
 4000W        W 8064   6.412   3.217  10.581 -0.0685 -0.0242  0.1299
 4001W        W 8065   9.991   3.812   2.914  0.2076  0.1030  0.1048
 4002W        W 8066   8.019   9.758   1.011 -0.1803  0.2081  0.3261
 4003W        W 8067   6.617   4.879   8.759 -0.1941 -0.0854 -0.1883
 4004W        W 8068   3.627   5.982  10.601 -0.0220 -0.2095  0.1651
 4005W        W 8069   5.059   6.592  10.303  0.1041 -0.0986 -0.0074
 4006W        W 8070   8.001   3.046   1.989  0.3457 -0.1789 -0.0377
 4007W        W 8071   7.673   6.818   3.347  0.0481 -0.0994  0.0908
 4008W        W 8072   5.097   9.016  10.930 -0.0601  0.3071  0.0595
 4009W        W 8073   8.036   2.550   9.194 -0.0944  0.4065 -0.1464
 4010W        W 8074  10.849   7.612  10.155  0.4860 -0.1838  0.2401
 4011W        W 8075   0.070   7.154  10.666 -0.1962  0.1111 -0.0892
 4012W        W 8076   1.745  10.490   0.167 -0.2406 -0.2460  0.0483
 4013W        W 8077   8.582   2.444   4.387  0.1536  0.3123  0.0404
 4014W        W 8078   7.414   6.477  10.233  0.1026 -0.1760 -0.0633
 4015W        W 8079   4.670   5.236   9.230 -0.0423 -0.2542  0.1061
 4016W        W 8080   6.640   4.465   3.554  0.0770  0.1937 -0.1868
 4017W        W 8081   9.366   0.893   0.066 -0.2517 -0.0389 -0.1276
 4018W        W 8082   7.836   5.645   3.131  0.1861  0.0054 -0.1099
 4019W        W 8083   7.182   8.054   0.961  0.0718 -0.1059  0.1864
 4020W        W 8084   0.785   7.933   9.809  0.1732 -0.1354  0.0986
 4021W        W 8085   5.522   3.822   3.104 -0.2913 -0.0094  0.0567
 4022W        W 8086   7.655   1.504   2.475 -0.1770 -0.1801 -0.0557
 4023W        W 8087   2.050   2.282   0.242  0.1455 -0.2625  0.0896
 4024W        W 8088   8.972   6.986   9.020 -0.1515  0.0982  0.0167
 4025W        W 8089   3.598   6.502   0.047  0.2115  0.1606 -0.0071
 4026W        W 8090   0.988   8.471   1.372  0.0872  0.4110  0.1896
 4027W        W 8091   1.850   8.149   9.854  0.0673  0.1943  0.3377
 4028W        W 8092   6.808   8.591  10.635 -0.0638  0.1076  0.0213
 4029W        W 8093   7.995   1.979   8.862 -0.0606  0.3932  0.2857
 4030W        W 8094   7.949   5.868   8.068  0.0460  0.0167  0.2343
 4031W        W 8095   4.504   1.204   9.442  0.1053  0.0814 -0.1183
 4032W        W 8096   4.199  10.232  10.830 -0.0462 -0.0285  0.2199
 4033W        W 8097   2.503   4.162   9.194  0.1929  0.0307  0.0930
 4034W        W 8098   1.617   0.962   8.034 -0.0478 -0.0835 -0.2238
 4035W        W 8099   2.193   6.188   2.986  0.2392  0.0923 -0.3463
 4036W        W 8100   9.069   7.205  10.658 -0.0799  0.2050 -0.0244
 4037W        W 8101   9.924   0.621   3.660  0.2774 -0.0180  0.1061
 4038W        W 8102   8.443   1.739   5.159  0.4497 -0.1312 -0.0749
 4039W        W 8103   1.022   8.724  10.696 -0.0634  0.2522  0.0505
 4040W        W 8104   5.301   5.002   0.128  0.0270 -0.0718  0.1403
 4041W        W 8105   9.140   2.188   1.762  0.0132 -0.0247  0.0937
 4042W        W 8106   9.635  10.837   4.187 -0.0144  0.2753  0.2339
 4043W        W 8107   9.935   0.887   2.622 -0.2597  0.0819 -0.0261
 4044W        W 8108   6.535   1.789   9.425  0.2651 -0.2800  0.3766
 4045W        W 8109   4.600   1.159  10.822 -0.0069 -0.4444  0.0464
 4046W        W 8110   1.864   5.121   8.421 -0.0936  0.0155 -0.0211
 4047W        W 8111   6.226   9.549   0.516 -0.3073 -0.1254  0.1647
 4048W        W 8112  10.528   5.955   1.894 -0.0802 -0.2333  0.1781
 4049W        W 8113  10.403   5.493  10.678  0.1346 -0.0956 -0.3442
 4050W        W 8114   9.762   2.198   8.353 -0.3530  0.0824  0.3691
 4051W        W 8115   7.709   6.499   1.231 -0.0227  0.2360 -0.0335
 4052W        W 8116   2.394   6.254  10.596  0.1287  0.0120  0.0911
 4053W        W 8117   9.258   8.118  10.605 -0.2133 -0.3174  0.0978
 4054W        W 8118  10.710   9.279   2.809  0.1455 -0.0321  0.0830
 4055W        W 8119   4.133   2.046   2.250  0.0917 -0.1042  0.0707
 4056W        W 8120   5.310  10.246   8.075  0.0310 -0.3094  0.1306
 4057W        W 8121   6.258   4.289   0.964  0.0367 -0.2802  0.1766
 4058W        W 8122   2.702   6.096   0.985 -0.3200 -0.0896  0.2510
 4059W        W 8123   3.757   5.121   0.938  0.4099 -0.0154  0.0155
 4060W        W 8124   5.920   4.732   3.096 -0.0433  0.0506  0.1488
 4061W        W 8125   0.170   0.684   1.326 -0.1616 -0.1685  0.1858
 4062W        W 8126   8.038   2.507   2.714  0.0793  0.0181  0.3507
 4063W        W 8127   7.007   3.769   3.144 -0.0648 -0.3333  0.1775
 4064W        W 8128   4.498   8.015   9.981  0.0179  0.1601  0.2253
 4065W        W 8129   8.967   4.476   0.911 -0.0124 -0.4149  0.1103
 4066W        W 8130   7.077   6.128   7.797  0.1590  0.0887 -0.1156
 4067W        W 8131   7.146   4.185   9.387  0.1454 -0.3573  0.0346
 4068W        W 8132   0.987   2.706   0.429  0.2769 -0.2006  0.2707
 4069W        W 8133   2.051   4.369   3.153 -0.2485  0.2880 -0.1719
 4070W        W 8134   6.418   0.275   2.126  0.4765  0.0914 -0.0206
 4071W        W 8135   1.399   3.960   0.898 -0.0996 -0.2278  0.0666
 4072W        W 8136   0.376   9.619   7.806 -0.2834  0.0732 -0.1502
 4073W        W 8137   3.094   0.790  10.745  0.3092 -0.0074  0.1285
 4074W        W 8138   7.305   0.253   3.670 -0.1578  0.0460 -0.4126
 4075W        W 8139   9.862   5.461   2.972  0.1124 -0.2223  0.0466
 4076W        W 8140   0.701   3.572   9.714  0.2995 -0.2906  0.0404
 4077W        W 8141   0.541   4.689   2.981  0.1031 -0.1427  0.0339
 4078W        W 8142   6.046   7.917   1.227 -0.1468 -0.0724 -0.2038
 4079W        W 8143   3.188   5.247   8.434 -0.0862 -0.0982  0.0638
 4080W        W 8144  10.303   8.980   2.467 -0.1785  0.0363 -0.1298
 4081W        W 8145   1.384   5.414   1.866  0.0914  0.3263  0.1869
 4082W        W 8146   9.960   1.616   2.108  0.0730 -0.1988  0.0179
 4083W        W 8147   4.124   2.531   2.293 -0.0754 -0.2286  0.2313
 4084W        W 8148   2.250   4.976  10.173 -0.0202  0.1412  0.2334
 4085W        W 8149   4.946   5.521   3.316  0.0093 -0.0424 -0.2261
 4086W        W 8150   2.895   4.976   1.583  0.0294 -0.1552 -0.0735
 4087W        W 8151   6.697   9.041   9.134  0.0412 -0.2024 -0.2201
 4088W        W 8152   6.806   4.247  10.548 -0.2252  0.1731 -0.0986
 4089W        W 8153   5.421   4.289   2.782  0.1221 -0.3345 -0.2513
 4090W        W 8154   0.843   7.368   2.638 -0.2557  0.2846 -0.2916
 4091W        W 8155   5.754   9.471   3.303  0.0765 -0.0918 -0.0134
 4092W        W 8156   9.859  10.887   1.149 -0.1046 -0.1309 -0.1107
 4093W        W 8157   0.352   4.729   7.716 -0.1875 -0.0360  0.3281
 4094W        W 8158   4.083   4.367   0.727  0.0376  0.1411 -0.0077
 4095W        W 8159   4.857   3.242   9.730  0.3501 -0.1840  0.1324
 4096W        W 8160   0.477   1.954   3.016 -0.2772  0.0068  0.0626
 4097W        W 8161   6.041   2.626   8.489  0.0190  0.1056  0.0351
 4098W        W 8162   3.811   9.137   2.444 -0.2032 -0.2731 -0.0375
 4099W        W 8163   9.450   4.931   9.919  0.0675 -0.1901 -0.4186
 4100W        W 8164   8.415   1.228   0.311 -0.1618  0.0522  0.0053
 4101W        W 8165   0.291   9.239   9.776  0.1762 -0.0816  0.3366
 4102W        W 8166   8.252   2.290   1.765  0.0757  0.2285 -0.1319
 4103W        W 8167   9.849   9.971  10.064 -0.0190 -0.1356 -0.0001
 4104W        W 8168   5.250   8.894   1.390  0.1481  0.0460  0.1508
 4105W        W 8169   8.074   9.716   2.194 -0.1475 -0.0936 -0.3446
 4106W        W 8170   0.190   5.554   2.993  0.0552 -0.3985  0.0910
 4107W        W 8171   0.079   7.477   3.064  0.1628  0.1815  0.0571
 4108W        W 8172   1.854   0.794   1.230  0.0944  0.1423 -0.1455
 4109W        W 8173   9.727   5.560   9.668  0.1402 -0.0413  0.0509
 4110W        W 8174   5.135   3.338   0.025 -0.1140  0.0792  0.1922
 4111W        W 8175  10.011   3.701   1.464  0.1622  0.0076  0.0626
 4112W        W 8176   5.004   4.510   2.548  0.1193 -0.4398 -0.3144
 4113W        W 8177   1.301  10.232   1.403  0.1341  0.0089  0.2255
 4114W        W 8178   0.085   9.911  10.422  0.2621 -0.0743  0.2319
 4115W        W 8179   7.947  10.819   0.066 -0.3050 -0.0317  0.0079
 4116W        W 8180   6.423   7.722   1.973 -0.0900  0.3287 -0.1559
 4117W        W 8181   6.131  10.114   2.853 -0.1185  0.1046 -0.0605
 4118W        W 8182   3.731  10.835   3.265  0.2072  0.2380 -0.1920
 4119W        W 8183   4.196   2.038   3.824 -0.0767 -0.1475 -0.0945
 4120W        W 8184   5.144   2.181   9.794  0.3533  0.0063 -0.0919
 4121W        W 8185   1.713   8.199   1.942  0.0571  0.2290 -0.0454
 4122W        W 8186   1.741   3.446   7.902  0.0824 -0.1449  0.0529
 4123W        W 8187   6.775   9.541   7.892  0.0972 -0.0034  0.3189
 4124W        W 8188   7.367   4.657   2.947 -0.0935 -0.2722 -0.1889
 4125W        W 8189   6.848   7.210   8.689 -0.1687  0.1187 -0.2130
 4126W        W 8190   7.876  10.920   1.866 -0.0060  0.2604  0.2851
 4127W        W 8191   9.521   8.044   9.089  0.0493 -0.1390 -0.0029
 4128W        W 8192   5.730  10.526   0.700  0.3116  0.2510 -0.0872
 4129W        W 8193   9.838  10.257   1.843 -0.0201 -0.1142  0.2112
 4130W        W 8194   5.823   5.188   2.848  0.1868 -0.2018 -0.1252
 4131W        W 8195   0.166   6.885   2.444 -0.1537 -0.2678  0.0098
 4132W        W 8196  10.467  10.467   0.597  0.2395  0.0889 -0.1090
 4133W        W 8197   2.291   1.900   0.226  0.2572  0.1801 -0.1725
 4134W        W 8198   1.026   9.503   1.981  0.0579  0.3446 -0.0839
 4135W        W 8199   3.795   1.526   8.809  0.1947 -0.1819 -0.3761
 4136W        W 8200   1.999   9.614   1.122 -0.1661  0.0926  0.0531
 4137W        W 8201   4.973   0.921   8.374  0.1270 -0.0928  0.0384
 4138W        W 8202   8.570  10.706   1.110 -0.0804 -0.3530 -0.1413
 4139W        W 8203   5.619   7.852   1.827  0.1942  0.0529  0.2736
 4140W        W 8204   4.500   2.115   0.965  0.1304 -0.1798 -0.0587
 4141W        W 8205   8.126   0.624   2.658  0.3342  0.0528  0.0270
 4142W        W 8206   8.053   1.743   2.806 -0.1035 -0.3354  0.1287
 4143W        W 8207  10.378   8.659   3.382 -0.1207 -0.0501  0.3407
 4144W        W 8208   2.571   7.005  10.056  0.0258 -0.1149 -0.0147
 4145W        W 8209   2.541   5.372  10.310  0.1010  0.3125 -0.2400
 4146W        W 8210   2.650   0.976   8.104 -0.0669  0.2691  0.2518
 4147W        W 8211   4.375   8.626   2.756  0.3062  0.1527 -0.0253
 4148W        W 8212   0.958   3.861   9.394  0.2365  0.1502  0.1678
 4149W        W 8213   5.185   7.753   9.102  0.1295  0.1223  0.1291
 4150W        W 8214   0.503   9.353   2.134 -0.0440 -0.0347 -0.1004
 4151W        W 8215   7.453   1.708   9.162 -0.0153 -0.1845  0.0611
 4152W        W 8216   5.340   1.541  10.683 -0.1348 -0.0225 -0.2773
 4153W        W 8217  10.612   7.514   0.927 -0.2888 -0.4615  0.0457
 4154W        W 8218  10.206   5.233   8.859  0.0268  0.0270 -0.2462
 4155W        W 8219   8.140   4.249   2.951  0.1147 -0.2790 -0.0589
 4156W        W 8220   9.628   2.431   1.924  0.3380  0.0988 -0.0145
 4157W        W 8221   6.432   1.021   8.156  0.0381 -0.0453 -0.0161
 4158W        W 8222   0.116   1.127   1.645 -0.0912  0.2663 -0.2544
 4159W        W 8223  10.508   2.182   0.395  0.0609 -0.0885  0.3024
 4160W        W 8224   7.784   9.277   1.052  0.0095 -0.0627  0.2974
 4161W        W 8225   1.771   8.048   9.278  0.4339  0.1933 -0.1205
 4162W        W 8226   7.932   8.977   0.690 -0.0703  0.0204  0.1576
 4163W        W 8227   2.222   6.705   7.901  0.0531  0.0692  0.2575
 4164W        W 8228   7.412   8.143   9.247  0.1190 -0.2025  0.0496
 4165W        W 8229   5.381   9.126   2.505 -0.1616 -0.2688 -0.0884
 4166W        W 8230   2.310   4.545  10.494  0.0815 -0.1960 -0.5159
 4167W        W 8231   8.238   4.384   0.194  0.0741 -0.1631  0.0041
 4168W        W 8232   3.336   6.258  10.252 -0.1705 -0.1610  0.3188
 4169W        W 8233  10.562   9.050   4.126 -0.1077  0.2249  0.0611
 4170W        W 8234   0.386   9.501   0.210 -0.0047 -0.1803  0.0621
 4171W        W 8235   4.431   9.511   3.445  0.3863  0.1496  0.0741
 4172W        W 8236   0.727   3.266   3.010  0.5850  0.1230  0.3686
 4173W        W 8237   8.786   2.893   1.178  0.1453 -0.4342 -0.1873
 4174W        W 8238   6.538   8.814   1.896  0.1476 -0.2525  0.4135
 4175W        W 8239  10.290   5.735   1.380  0.0175 -0.0942 -0.0535
 4176W        W 8240   7.805   1.324   1.093 -0.2288  0.3138 -0.1707
 4177W        W 8241   6.331   7.453   1.189  0.2022 -0.0521  0.1873
 4178W        W 8242   8.674   8.805   0.052 -0.2454  0.1969  0.1964
 4179W        W 8243   5.409   5.875   9.482  0.2199  0.1142 -0.1997
 4180W        W 8244   5.608   1.713   1.860 -0.3179 -0.0898 -0.0423
 4181W        W 8245   6.163  10.307   8.412 -0.0932  0.0581 -0.1214
 4182W        W 8246   1.484   8.814   9.149  0.2158 -0.1932 -0.1845
 4183W        W 8247   2.825   4.074   0.154  0.0026  0.2185 -0.0654
 4184W        W 8248   3.155   2.817   3.172  0.1605  0.0165  0.0810
 4185W        W 8249   9.708   1.544   0.098  0.1976 -0.1968  0.0159
 4186W        W 8250   7.240   9.832   3.376  0.0813 -0.1938 -0.0696
 4187W        W 8251   2.993   8.500   9.201  0.0292  0.1936  0.1113
 4188W        W 8252   7.346   7.351   9.722 -0.0689  0.0701  0.0764
 4189W        W 8253   7.746   1.360   1.604  0.1689  0.0160 -0.1869
 4190W        W 8254   4.303   5.043   9.449  0.0753 -0.0988 -0.2072
 4191W        W 8255   2.159   0.625   9.306  0.0616 -0.2158 -0.3894
 4192W        W 8256   2.391   5.716   0.763 -0.0258 -0.1164  0.2598
 4193W        W 8257   5.665   4.216   0.186  0.1898  0.1319  0.1327
 4194W        W 8258   6.798   4.186   2.644 -0.1665  0.0533  0.1308
 4195W        W 8259   2.454   1.461   7.876  0.0305 -0.0997  0.0909
 4196W        W 8260   3.615   3.141   8.385  0.0333 -0.1432  0.4555
 4197W        W 8261   9.381   5.905   9.884  0.0653 -0.0206 -0.0232
 4198W        W 8262   4.673   0.126   3.052  0.0856 -0.1594 -0.3254
 4199W        W 8263   1.751   5.930   2.188  0.1405 -0.0958  0.1113
 4200W        W 8264   3.147   6.622   0.273 -0.2621 -0.2196  0.0782
 4201W        W 8265   8.937   5.659   8.838  0.1441  0.1684  0.2304
 4202W        W 8266   8.907   9.030   3.075  0.2727 -0.0794  0.0277
 4203W        W 8267   9.567   1.283   8.721 -0.1624 -0.1318  0.2654
 4204W        W 8268   1.724   3.669   0.460 -0.0688  0.0908  0.0051
 4205W        W 8269   6.928   1.263   2.878  0.2600  0.0067  0.2797
 4206W        W 8270   8.179   7.782   9.664  0.3972  0.1810  0.1589
 4207W        W 8271   6.793   1.587   0.907  0.2699 -0.1054  0.0423
 4208W        W 8272   3.323   7.823   3.912 -0.1273 -0.0295  0.0575
 4209W        W 8273   1.680   2.296   9.048  0.2332  0.1311 -0.0849
 4210W        W 8274   4.905   9.438   3.381 -0.0758 -0.0033 -0.1708
 4211W        W 8275   7.157   9.646  10.920  0.1201 -0.1994  0.2352
 4212W        W 8276   1.156   7.869  10.608  0.0030 -0.1351  0.1007
 4213W        W 8277   7.231   5.470  10.164  0.1515  0.2267 -0.2596
 4214W        W 8278   8.159   9.529  10.736  0.1501 -0.0865  0.1266
 4215W        W 8279   0.168   6.233   0.634  0.1418  0.2483 -0.0562
 4216W        W 8280   4.553   5.264   8.156 -0.1230 -0.2630 -0.1516
 4217W        W 8281   0.631   5.254   8.950  0.0451  0.0248  0.2079
 4218W        W 8282   3.090   2.360   0.368  0.2434 -0.2096 -0.2088
 4219W        W 8283   2.475   0.049   3.321 -0.2215 -0.1770 -0.1523
 4220W        W 8284   0.878   0.023   2.089  0.2566 -0.0587  0.0602
 4221W        W 8285   9.556   8.382   1.398 -0.0428 -0.0572 -0.0246
 4222W        W 8286   4.441  10.088   9.081  0.0233  0.1375  0.0844
 4223W        W 8287   1.273   1.180   8.888 -0.3631  0.0131  0.1103
 4224W        W 8288  10.767   7.951   8.528  0.1250 -0.1735  0.0136
 4225W        W 8289   4.200   3.534   1.198 -0.1363 -0.1236  0.0786
 4226W        W 8290   8.356   1.791   8.361  0.0632 -0.0001  0.0086
 4227W        W 8291   6.430   1.983   1.084  0.1528 -0.1492 -0.2131
 4228W        W 8292   2.487   2.325   2.378 -0.3399 -0.0292  0.0422
 4229W        W 8293   8.161   4.887   7.291 -0.0615  0.0328 -0.1429
 4230W        W 8294   1.311   5.741   8.486 -0.0392 -0.4144  0.1540
 4231W        W 8295   1.935   9.986   9.898  0.0249  0.0155  0.0187
 4232W        W 8296   4.022   7.816   3.262 -0.1246 -0.1835 -0.0513
 4233W        W 8297   9.981   6.977   0.988  0.1852  0.1304  0.4592
 4234W        W 8298   2.926   3.933   9.188  0.0827  0.2021 -0.2698
 4235W        W 8299   2.775   3.622   2.445  0.0106  0.0867  0.0297
 4236W        W 8300   6.972   2.009   7.851  0.0694  0.3530  0.1090
 4237W        W 8301   8.421   9.567   9.377 -0.2836  0.1504  0.1214
 4238W        W 8302   7.011   0.523   8.096 -0.4394 -0.0523 -0.0282
 4239W        W 8303  10.616  10.150  10.153 -0.3207  0.0836 -0.2722
 4240W        W 8304  10.278   2.824   7.227 -0.0889  0.0314 -0.1233
 4241W        W 8305   9.105   1.059   7.947  0.0734 -0.1797 -0.0604
 4242W        W 8306   6.546   1.514   7.952 -0.0429 -0.1885 -0.0528
 4243W        W 8307   5.425   4.128  10.162 -0.0649  0.2052  0.2034
 4244W        W 8308   5.611   1.501   8.037 -0.2355  0.0633  0.0409
 4245W        W 8309   8.142   3.801   0.083  0.1850 -0.2390 -0.2061
 4246W        W 8310   3.853   3.052   3.068  0.0466 -0.1716  0.1672
 4247W        W 8311   2.519   3.786   8.857  0.1752  0.1633  0.2553
 4248W        W 8312   9.827   3.645  10.809 -0.0128 -0.1849 -0.2692
 4249W        W 8313   5.355   9.490   9.666  0.3422  0.0342  0.0149
 4250W        W 8314   4.098   4.665   2.105  0.1585 -0.0113 -0.0666
 4251W        W 8315   6.142   3.999   0.241 -0.1006 -0.0031  0.1789
 4252W        W 8316   3.942   2.367   8.038  0.2804 -0.1458  0.3336
 4253W        W 8317   9.994   1.652  10.166  0.2250 -0.3109 -0.2929
 4254W        W 8318   7.595   6.677   9.069  0.1648  0.0545 -0.1963
 4255W        W 8319   7.236   8.862  10.469  0.1891 -0.2141 -0.3623
 4256W        W 8320   7.458   5.342   0.390 -0.2446  0.1267  0.0183
 4257W        W 8321   4.172  10.589   8.208 -0.2565 -0.0818 -0.0911
 4258W        W 8322  10.248   2.370   8.590  0.1610 -0.2170 -0.1259
 4259W        W 8323   4.852   2.184  10.741 -0.0993 -0.2058  0.0801
 4260W        W 8324   9.344   2.345   3.244  0.2543  0.1975  0.1794
 4261W        W 8325   0.174   2.100   8.651 -0.0853  0.0448 -0.0354
 4262W        W 8326   6.521   5.361   9.095 -0.2770  0.1588 -0.0018
 4263W        W 8327  10.470   1.758   1.527 -0.1546 -0.1352 -0.0812
 4264W        W 8328   0.907   7.409   0.098 -0.0881 -0.2987 -0.3517
 4265W        W 8329   6.549  10.141   1.422 -0.3127 -0.0502  0.0307
 4266W        W 8330   9.011   3.664  10.970  0.0869 -0.2045 -0.0877
 4267W        W 8331   3.310   1.477  10.379  0.0557 -0.2458  0.0765
 4268W        W 8332   8.427  10.546   1.598  0.0800  0.1714  0.0975
 4269W        W 8333   8.850   6.517   8.827 -0.5547  0.0530  0.0142
 4270W        W 8334   5.364   3.826   9.347 -0.0165 -0.2098 -0.2508
 4271W        W 8335   1.105   9.717   3.866  0.1231 -0.1669 -0.0421
 4272W        W 8336   6.662  10.813   1.885  0.1142 -0.3499  0.1943
 4273W        W 8337   9.756   5.632   7.342  0.0335  0.1687 -0.2611
 4274W        W 8338   2.549   6.701   8.559  0.2151 -0.0658  0.0465
 4275W        W 8339   5.194   6.468  10.787  0.1837  0.0808  0.1557
 4276W        W 8340   3.622   6.591   7.173 -0.4404 -0.0086 -0.1590
 4277W        W 8341   7.023   6.134   1.723 -0.0743 -0.2372 -0.2161
 4278W        W 8342   7.678   2.918  10.307 -0.2346 -0.2080  0.0262
 4279W        W 8343   1.913   4.583   0.281  0.0612  0.2071  0.0485
 4280W        W 8344   5.685  10.316   8.365 -0.1793  0.1526 -0.1544
 4281W        W 8345   7.828   4.132   0.282 -0.0684 -0.1620  0.0354
 4282W        W 8346   4.592   2.227   7.345  0.2273  0.1622  0.2156
 4283W        W 8347   3.616   5.407   9.747  0.0016 -0.2179 -0.3062
 4284W        W 8348   7.990   9.460   0.606 -0.1078  0.1460  0.2072
 4285W        W 8349  10.915   6.176  10.209  0.1368  0.1107 -0.2904
 4286W        W 8350   6.095  10.279   1.048 -0.1174  0.2080  0.0352
 4287W        W 8351   1.982   7.963   8.006  0.0686  0.4682 -0.0214
 4288W        W 8352  10.072   3.781   0.780 -0.1408 -0.0361  0.1566
 4289W        W 8353   8.402   3.437   9.631  0.2643  0.0304  0.5032
 4290W        W 8354   0.056   2.048   0.196  0.1938  0.1098 -0.3331
 4291W        W 8355   9.848   1.795   7.001  0.0518 -0.3232  0.0664
 4292W        W 8356   0.925   2.307   9.709  0.1618 -0.4333 -0.1458
 4293W        W 8357   6.867   6.558   1.477 -0.1889  0.3020 -0.2426
 4294W        W 8358   5.119   8.646   9.003  0.3869  0.1990 -0.3241
 4295W        W 8359   1.100   3.572   2.748  0.4016 -0.0988  0.3472
 4296W        W 8360   8.255   5.237   0.752  0.2042  0.0250 -0.2384
 4297W        W 8361   6.062   9.464   9.695  0.0742 -0.0039 -0.0103
 4298W        W 8362   2.545   0.185   0.858  0.0061 -0.2359 -0.1307
 4299W        W 8363   1.690   9.025   2.472  0.4676  0.1240  0.1090
 4300W        W 8364   0.759   9.137  10.374 -0.0089 -0.1451  0.0305
 4301W        W 8365   8.643   7.425   2.923 -0.1838  0.3282 -0.1914
 4302W        W 8366   9.920   7.246   9.186  0.1449 -0.1339 -0.0243
 4303W        W 8367   9.709   4.545   1.430 -0.2106 -0.0380 -0.0243
 4304W        W 8368   5.973   3.467   8.852 -0.1438 -0.1045 -0.3041
 4305W        W 8369   8.566   6.821   1.843 -0.0608  0.2205 -0.0666
 4306W        W 8370   8.807   2.613   8.660 -0.1133 -0.1755  0.0786
 4307W        W 8371   1.234   1.357   0.867 -0.1793  0.0496  0.0956
 4308W        W 8372   2.608   1.798   2.476 -0.3368 -0.2704 -0.3324
 4309W        W 8373   9.233   8.793   3.844  0.1605  0.2392 -0.1889
 4310W        W 8374   2.103   4.725   0.934  0.3089 -0.4158 -0.0579
 4311W        W 8375   0.440   8.573   0.641  0.2527  0.0780  0.0274
 4312W        W 8376   6.092   9.060   1.947  0.1216  0.0672  0.0130
 4313W        W 8377   6.191   1.987   8.213  0.0968  0.0879 -0.1156
 4314W        W 8378  10.814   7.623   2.502  0.0233 -0.1920 -0.1127
 4315W        W 8379   5.036   1.194   1.750  0.0684 -0.0614  0.1792
 4316W        W 8380   6.547   0.014   2.498 -0.0694  0.0329  0.0418
 4317W        W 8381   3.652   2.002   9.003 -0.1764  0.4371 -0.1547
 4318W        W 8382   2.467  10.725   9.938 -0.2659 -0.1907  0.2312
 4319W        W 8383  10.417   7.272  10.536  0.0306 -0.2231 -0.1257
 4320W        W 8384   4.774   3.282   1.499  0.2261 -0.0578  0.0782
 4321W        W 8385  10.394   1.846   9.867 -0.0742 -0.2067  0.1925
 4322W        W 8386   5.163   2.683   8.107  0.0389 -0.3718 -0.1233
 4323W        W 8387   1.611   0.703   3.372  0.2988 -0.0618  0.1272
 4324W        W 8388   9.595   0.990   7.105 -0.2781 -0.1221  0.2327
 4325W        W 8389  10.698   3.843   0.760 -0.0237 -0.2660  0.2576
 4326W        W 8390   7.079   5.356   0.881  0.1528 -0.3392  0.4186
 4327W        W 8391   9.372   6.439   9.702 -0.2122  0.0410 -0.1350
 4328W        W 8392   9.796   2.554   8.737 -0.0030 -0.2403 -0.0085
 4329W        W 8393   9.215   0.441   9.092  0.0581  0.2763  0.0964
 4330W        W 8394   8.465   5.577   7.241  0.0635 -0.0727 -0.1150
 4331W        W 8395   8.450   2.406   8.948 -0.1800 -0.1734 -0.1974
 4332W        W 8396   9.573   1.503   7.755  0.0730  0.1292  0.0312
 4333W        W 8397   4.211   4.833   0.837  0.3751 -0.0206  0.2835
 4334W        W 8398   0.714   6.949   0.999  0.1606 -0.1542 -0.1045
 4335W        W 8399   7.379   2.959   3.842  0.0828 -0.2194 -0.0634
 4336W        W 8400  10.847   3.624   1.188 -0.0277 -0.1721 -0.2680
 4337W        W 8401   6.409   8.724   0.179  0.0432 -0.2558 -0.0553
 4338W        W 8402   3.705   5.991   8.439 -0.0239 -0.2835  0.2563
 4339W        W 8403   7.536   6.571   2.403  0.3099 -0.2495 -0.0569
 4340W        W 8404   0.345   2.810   9.366 -0.1492 -0.0930 -0.2342
 4341W        W 8405   2.290   0.436   7.287 -0.0537 -0.1651 -0.0584
 4342W        W 8406   3.019   8.520   8.199  0.2272 -0.0780  0.0811
 4343W        W 8407   2.911   1.423   0.779 -0.1124 -0.2008  0.1787
 4344W        W 8408   6.171   3.727   2.614  0.1103 -0.1653  0.2602
 4345W        W 8409   2.369   8.707   9.152  0.2185  0.0656  0.0688
 4346W        W 8410   8.960   3.203  10.821  0.0062 -0.0396 -0.0067
 4347W        W 8411   7.228  10.001   9.696 -0.0022  0.0680  0.1334
 4348W        W 8412   9.191   8.088   8.624 -0.0831  0.3829  0.0685
 4349W        W 8413   9.390   7.902   3.004 -0.2308  0.2946  0.1219
 4350W        W 8414   0.176   1.350   7.336 -0.1325  0.1012 -0.1336
 4351W        W 8415   0.432  10.207  10.154  0.0814 -0.0030  0.1683
 4352W        W 8416   9.975   3.537   0.334 -0.0433  0.2802  0.2308
 4353W        W 8417   7.203   1.702   2.749  0.4033 -0.1121  0.4025
 4354W        W 8418   1.534   7.835   8.278  0.1681  0.1150  0.1720
 4355W        W 8419   0.951   7.636  10.256 -0.1454  0.1909  0.3788
 4356W        W 8420   0.836   6.793   1.721 -0.0388 -0.1619  0.0071
 4357W        W 8421  10.045   5.437   8.157  0.2269 -0.0139 -0.1789
 4358W        W 8422   0.609   9.746   2.736  0.0822 -0.1368  0.1019
 4359W        W 8423   6.069   0.829   0.639  0.0550  0.0776  0.0339
 4360W        W 8424   9.211   2.662   3.843 -0.0165 -0.1667  0.1721
 4361W        W 8425   5.071   4.718   1.226 -0.0746  0.0266  0.1293
 4362W        W 8426   4.151   0.130   1.419 -0.0967 -0.1913  0.0985
 4363W        W 8427   5.416   6.386   0.852  0.0033 -0.2009 -0.1182
 4364W        W 8428   9.011   8.334   3.065 -0.0006  0.3026 -0.0825
 4365W        W 8429   8.334   0.174   9.922  0.0786 -0.0630 -0.0395
 4366W        W 8430   8.001   3.410  10.296  0.2418 -0.2465 -0.0507
 4367W        W 8431  10.047   1.589   3.340 -0.4482  0.0354  0.0032
 4368W        W 8432  10.846   7.863   9.703  0.0856 -0.0738  0.1914
 4369W        W 8433   7.198   4.084   1.106 -0.1447 -0.0337 -0.2121
 4370W        W 8434   3.495   7.091   9.993  0.0749 -0.1922  0.0605
 4371W        W 8435   9.929   5.607   0.493  0.0976  0.0367  0.0648
 4372W        W 8436   6.258   3.331   2.322  0.1782 -0.0862  0.2458
 4373W        W 8437   4.293   3.174   0.809 -0.2330 -0.0969  0.3172
 4374W        W 8438   1.270   3.012   1.335  0.4014 -0.0424 -0.0326
 4375W        W 8439  10.589  10.160   7.792  0.1117  0.0392 -0.1906
 4376W        W 8440   4.383   1.678   8.094 -0.2252  0.0902  0.1227
 4377W        W 8441   2.040   4.404   9.217  0.1162  0.0338  0.1407
 4378W        W 8442   1.370   3.104   9.726  0.3379  0.3538 -0.0012
 4379W        W 8443   7.152   5.742   0.555 -0.3521 -0.2003  0.2165
 4380W        W 8444   5.608   6.982  10.678  0.1666 -0.0625 -0.1242
 4381W        W 8445   3.497   1.156   9.029 -0.0644 -0.3981 -0.0072
 4382W        W 8446  10.027   9.481  10.250 -0.1673 -0.2825 -0.1938
 4383W        W 8447   7.120  10.284  10.177  0.1975 -0.1505 -0.1533
 4384W        W 8448   0.077  10.928   2.850 -0.2298  0.3913 -0.1045
 4385W        W 8449   2.496  10.403   0.911  0.3223  0.0362 -0.0839
 4386W        W 8450   9.883   6.776   9.019 -0.2436  0.0112  0.3649
 4387W        W 8451   3.266   3.304  10.805  0.1558 -0.4563 -0.1028
 4388W        W 8452   6.820   1.991   3.311 -0.0304 -0.3709 -0.2301
 4389W        W 8453   6.957   1.099   8.772  0.1228  0.1994  0.0937
 4390W        W 8454   3.994   2.975   0.460  0.1300  0.1509 -0.1684
 4391W        W 8455   0.036   0.738   0.280  0.0255  0.0181  0.1075
 4392W        W 8456   3.475   4.339   9.926  0.1230  0.0998 -0.0156
 4393W        W 8457   6.507   0.750  10.309  0.1149 -0.0112 -0.0768
 4394W        W 8458   0.046   4.043   8.499  0.3393  0.1246 -0.1404
 4395W        W 8459   4.152   6.420   9.764 -0.0951  0.0946 -0.1122
 4396W        W 8460   9.555   5.215   8.190 -0.0623 -0.0551 -0.1461
 4397W        W 8461   9.861   0.230  10.663  0.0891  0.2238  0.1394
 4398W        W 8462   7.611   1.506   2.953 -0.1413 -0.1714 -0.1978
 4399W        W 8463   3.544   4.162   0.886  0.0212  0.0411 -0.3077
 4400W        W 8464   8.418   7.780   0.135  0.4237  0.0043 -0.0690
 4401W        W 8465   5.124   2.665  10.690  0.0065  0.3534 -0.3501
 4402W        W 8466  10.253   0.017   7.661 -0.2636  0.0136  0.0056
 4403W        W 8467   5.454   7.986   2.316  0.2827  0.1218  0.2337
 4404W        W 8468   0.167   2.881   9.883  0.0276  0.5865 -0.1283
 4405W        W 8469   6.430   2.264   8.628  0.3788  0.0759 -0.2959
 4406W        W 8470   3.310   0.580  10.366  0.1707 -0.2287  0.3604
 4407W        W 8471   4.240  10.132   2.978 -0.2184  0.1090 -0.2888
 4408W        W 8472   3.885   4.659   7.857  0.1023 -0.0772 -0.2529
 4409W        W 8473   7.905   2.119   0.726 -0.0418  0.0807  0.0023
 4410W        W 8474   6.217   1.966  10.751 -0.0261 -0.0626  0.1639
 4411W        W 8475   3.872   7.998   1.448 -0.0217  0.0016 -0.1881
 4412W        W 8476   3.630   9.777   9.585  0.1965  0.1213  0.1296
 4413W        W 8477   0.932   9.870   9.499 -0.0900  0.2566  0.3424
 4414W        W 8478   5.904   4.136   0.662 -0.1977  0.2529 -0.0481
 4415W        W 8479   0.461   6.857   8.299 -0.1459  0.2892 -0.1265
 4416W        W 8480   2.983   2.167   2.486  0.0268 -0.2317  0.0497
 4417W        W 8481   0.629   5.197   2.280  0.1177 -0.3830  0.0154
 4418W        W 8482   3.389   5.370   9.278  0.1186 -0.3348  0.2293
 4419W        W 8483   5.599   7.090   8.828  0.2135 -0.0215  0.0805
 4420W        W 8484   3.139   5.160   9.661 -0.0357  0.1365 -0.1011
 4421W        W 8485   4.003  10.648   9.877 -0.2439  0.1287  0.3243
 4422W        W 8486   0.420   5.233   9.482 -0.0263  0.0263 -0.1505
 4423W        W 8487   7.071  10.586   0.655  0.0881 -0.3062 -0.1535
 4424W        W 8488   4.519   6.447   2.757 -0.0078  0.2958  0.2334
 4425W        W 8489   7.997   3.201   3.831 -0.0646 -0.0094  0.1667
 4426W        W 8490   0.954  10.434   3.007 -0.2115 -0.2181  0.3741
 4427W        W 8491   2.348   6.450   9.570  0.0652  0.3019 -0.1717
 4428W        W 8492  10.600   5.906   7.470 -0.3211  0.1010  0.2663
 4429W        W 8493   8.132   4.628   3.639  0.3027 -0.1930 -0.2378
 4430W        W 8494   6.817   7.102   7.918 -0.0281  0.1964 -0.0999
 4431W        W 8495   2.839   3.252   3.383  0.0192  0.2119 -0.5597
 4432W        W 8496   4.674   8.998   2.116  0.2490  0.0873 -0.2049
 4433W        W 8497   6.844   8.909   0.036  0.1153 -0.0390 -0.0965
 4434W        W 8498   5.974  10.537   8.807  0.0592 -0.1238  0.0525
 4435W        W 8499   9.722   4.107  10.626 -0.0924  0.1483  0.1504
 4436W        W 8500   0.879   8.049   0.897  0.0633  0.3834 -0.2645
 4437W        W 8501   0.525   2.308   2.681 -0.2075 -0.1437  0.0877
 4438W        W 8502   5.249   8.591   2.278  0.1510 -0.1579 -0.0240
 4439W        W 8503   1.629   8.648   8.716 -0.1413  0.0274 -0.0822
 4440W        W 8504   9.373   7.964   1.339  0.2957  0.0234  0.1870
 4441W        W 8505   0.828  10.398   2.210  0.1169 -0.0704  0.0267
 4442W        W 8506   5.886   8.221  10.552  0.1501 -0.1406 -0.1863
 4443W        W 8507   2.600   3.287   8.915  0.0990  0.0782  0.0925
 4444W        W 8508   2.831   3.156   8.144  0.2929  0.1477  0.1261
 4445W        W 8509   4.159   8.562   9.418 -0.1705 -0.0815  0.3256
 4446W        W 8510   3.499   8.364  10.563  0.1841  0.0754  0.0701
 4447W        W 8511   5.355  10.251   1.887 -0.0777 -0.1353 -0.0296
 4448W        W 8512   3.708  10.035   1.104 -0.0745  0.1009 -0.0898
 4449W        W 8513   1.351   2.963   9.141  0.0679  0.2151  0.1916
 4450W        W 8514   7.556   6.297   7.952 -0.0288  0.1538 -0.0852
 4451W        W 8515   6.940   0.503   9.438  0.3666 -0.4217  0.0285
 4452W        W 8516   3.358   1.096   9.962  0.1653 -0.0061 -0.1389
 4453W        W 8517   3.465   3.133   0.473  0.1530 -0.2202 -0.0896
 4454W        W 8518   3.955   2.817  10.174 -0.0424 -0.0454 -0.2161
 4455W        W 8519   7.683   9.428   0.225  0.0024  0.1764 -0.1835
 4456W        W 8520   4.244   8.215   1.221  0.1089 -0.1668  0.1279
 4457W        W 8521   6.787   2.887   0.243  0.0876 -0.1161 -0.1273
 4458W        W 8522   3.191   5.376   1.184 -0.0768  0.1651  0.0664
 4459W        W 8523   5.278   9.852   2.237 -0.2810 -0.1200  0.0563
 4460W        W 8524   6.316   7.113   2.129  0.0188 -0.0201 -0.0232
 4461W        W 8525   6.366   5.345   0.249 -0.1017 -0.2609 -0.2923
 4462W        W 8526   4.079   6.823   8.143 -0.2651 -0.0282  0.0579
 4463W        W 8527   3.402   5.399   0.722  0.1184 -0.1622 -0.3416
 4464W        W 8528   8.961  10.830   0.833  0.2379  0.1242 -0.0228
 4465W        W 8529   9.861   5.734   1.777 -0.0838  0.3592 -0.2344
 4466W        W 8530   5.492   5.683   8.908 -0.0869  0.0028 -0.1540
 4467W        W 8531   1.335   6.839   0.317  0.1236  0.2251  0.0584
 4468W        W 8532   0.206   8.157  10.020 -0.2402  0.4485 -0.0500
 4469W        W 8533   9.471   3.255  10.782 -0.1857 -0.0373 -0.1384
 4470W        W 8534   9.617   6.214   8.332  0.1270  0.0652 -0.0348
 4471W        W 8535   8.383   2.016   4.703 -0.2835 -0.1350  0.0672
 4472W        W 8536  10.784   9.285  10.355  0.0301  0.4113 -0.2926
 4473W        W 8537   9.773   5.266   2.530  0.3867 -0.0642  0.2583
 4474W        W 8538   4.189   8.026  10.372  0.1327  0.1968 -0.1973
 4475W        W 8539   3.606  10.237   2.658 -0.0516 -0.2637 -0.0127
 4476W        W 8540   7.788   5.048  10.771  0.0822 -0.2269  0.1788
 4477W        W 8541  10.439   8.265   0.280  0.0187  0.0281  0.1274
 4478W        W 8542   9.789   7.950  10.681  0.2156 -0.1919  0.1247
 4479W        W 8543   4.336   0.769   0.743 -0.1579  0.1394 -0.2542
 4480W        W 8544   9.887   4.259   9.488  0.1356 -0.0429 -0.2417
 4481W        W 8545   1.611   4.656   9.497 -0.0417 -0.2124 -0.0580
 4482W        W 8546   8.260   1.211   0.821 -0.0941  0.0164  0.0358
 4483W        W 8547   6.096  10.745   3.154 -0.1969  0.0735 -0.3060
 4484W        W 8548   0.379   6.311   3.735 -0.1094  0.1328  0.1405
 4485W        W 8549   5.478   0.246  10.081  0.0041 -0.2090 -0.3152
 4486W        W 8550   8.937   0.869   9.416 -0.0181  0.1842 -0.0906
 4487W        W 8551   9.801   2.818   9.217  0.2164  0.0370  0.1623
 4488W        W 8552   7.069   1.671   9.890 -0.2343  0.0805 -0.1171
 4489W        W 8553   8.570   5.682   0.094  0.0866 -0.0247  0.1943
 4490W        W 8554   2.808   5.763   3.681  0.1094 -0.0057  0.1044
 4491W        W 8555   1.900   5.655   3.543  0.0504  0.0437  0.2660
 4492W        W 8556   9.427   5.150  10.627 -0.2764 -0.1456  0.4103
 4493W        W 8557   1.632   1.822   9.888  0.0178 -0.0733  0.1694
 4494W        W 8558   0.478   1.401   7.972  0.0977  0.0541  0.0013
 4495W        W 8559   5.297   3.213   2.542 -0.3265  0.2039 -0.3131
 4496W        W 8560   6.449   2.041   7.769  0.1147 -0.0001  0.0997
 4497W        W 8561   5.307   3.318   7.978 -0.2618 -0.1224  0.2321
 4498W        W 8562   0.830   1.446   8.477  0.0167  0.0684 -0.2990
 4499W        W 8563   3.582  10.659   3.736  0.2504  0.0071  0.0874
 4500W        W 8564   5.628   6.516   2.226 -0.1613  0.0960 -0.0194
 4501W        W 8565   7.378   3.720   1.611 -0.0158 -0.0255  0.0359
 4502W        W 8566   3.384   4.924   0.271  0.0175  0.0615 -0.0151
 4503W        W 8567   6.350   8.559   7.933  0.1019 -0.0641 -0.0153
 4504W        W 8568   6.717   9.941  10.130 -0.1074 -0.1790 -0.4217
 4505W        W 8569   9.308   1.000   1.997 -0.1536 -0.3114 -0.4954
 4506W        W 8570   5.210   2.195   8.321 -0.2637  0.3460  0.0937
 4507W        W 8571  10.138   0.263   8.616 -0.1989 -0.3114 -0.1625
 4508W        W 8572   1.358   9.637   2.797  0.3086  0.0586 -0.0313
 4509W        W 8573   7.057   0.876   9.766 -0.4143 -0.1524  0.2811
 4510W        W 8574   6.197   2.400   1.109  0.1364  0.2000  0.2958
 4511W        W 8575   2.318   9.457   4.460  0.0115  0.1050 -0.0783
 4512W        W 8576   9.320   9.254   0.465  0.1245 -0.2270  0.0549
 4513W        W 8577   3.448   3.186   7.930 -0.1434 -0.3009  0.0110
 4514W        W 8578   4.641   8.571   1.873 -0.1318  0.2068 -0.5265
 4515W        W 8579   0.113   1.561   0.252  0.3470  0.4458  0.0778
 4516W        W 8580   6.386   2.670   9.001 -0.3345 -0.2123  0.1897
 4517W        W 8581   3.528  10.569   0.326  0.0270  0.0200  0.0430
 4518W        W 8582   4.468   5.986   2.927  0.2444 -0.0484  0.0571
 4519W        W 8583  10.238   3.410   8.624 -0.2912 -0.1835  0.0411
 4520W        W 8584   6.951   0.937   0.143  0.3011  0.2379  0.0956
 4521W        W 8585   6.345   8.078   8.859  0.1173  0.0482 -0.0414
 4522W        W 8586   2.403   9.844  10.012 -0.1132 -0.1675  0.2697
 4523W        W 8587   4.718   1.907   7.709 -0.1541  0.1245 -0.0215
 4524W        W 8588   9.234   0.524   7.863  0.0677 -0.1677  0.2522
 4525W        W 8589   4.472   1.500   8.987 -0.1403  0.0458 -0.0385
 4526W        W 8590   6.522   5.996   2.916  0.0765 -0.6173 -0.0009
 4527W        W 8591   4.786  10.452   3.042 -0.1027 -0.1165  0.1422
 4528W        W 8592   1.398   7.317   8.200 -0.3582 -0.5481 -0.0173
 4529W        W 8593   1.284   5.720   7.126 -0.3461 -0.0797  0.0139
 4530W        W 8594   5.692   3.750   0.428  0.2057  0.0011  0.0682
 4531W        W 8595   4.447   7.583  10.245  0.0661 -0.0149  0.1423
 4532W        W 8596   9.401   6.657   2.487 -0.0297  0.2367 -0.0881
 4533W        W 8597   7.460   7.112   7.899  0.1698  0.1764  0.0127
 4534W        W 8598  10.019   9.050   3.337 -0.0814  0.0251  0.1703
 4535W        W 8599   7.331   6.022   1.253  0.0597 -0.1285  0.1543
 4536W        W 8600   7.062   2.461   1.583  0.0486  0.2858  0.1888
 4537W        W 8601   5.215   0.144   2.615  0.2219 -0.0710 -0.0226
 4538W        W 8602   3.511   1.591   8.023 -0.2574 -0.1158 -0.1763
 4539W        W 8603   2.312   9.511   3.375 -0.0301  0.4209 -0.0630
 4540W        W 8604   7.665   1.396   8.189 -0.1082 -0.0527  0.0185
 4541W        W 8605   4.878   0.015   0.289  0.2781 -0.3491 -0.0309
 4542W        W 8606   2.348   3.185   2.282 -0.2232  0.1083  0.2150
 4543W        W 8607   2.517   6.333   2.219  0.0085 -0.0079 -0.0224
 4544W        W 8608   2.486   3.193   1.239 -0.0129  0.0148  0.0957
 4545W        W 8609   9.072   7.898   9.872  0.0104 -0.2339 -0.2410
 4546W        W 8610   4.859   1.788   2.328  0.4649  0.0653 -0.2158
 4547W        W 8611   9.115   2.420   8.310 -0.2544  0.0003 -0.1446
 4548W        W 8612   7.370   7.631   0.617  0.2692 -0.1202 -0.0313
 4549W        W 8613   2.205   4.038  10.602  0.1020  0.0756 -0.1128
 4550W        W 8614   6.360   2.621   0.430 -0.0137 -0.0213 -0.3853
 4551W        W 8615   6.160  10.332   1.588  0.2407  0.0258 -0.2015
 4552W        W 8616   7.275   5.392   8.285  0.0303  0.1548 -0.1573
 4553W        W 8617   6.016   4.487   8.926  0.5089  0.1304  0.0087
 4554W        W 8618   6.495  10.647   1.379 -0.0240 -0.0577  0.2774
 4555W        W 8619   1.996  10.752   9.795 -0.0914 -0.1495 -0.1220
 4556W        W 8620  10.133   6.716   2.821 -0.1663  0.0978 -0.0071
 4557W        W 8621   9.098  10.150   9.578  0.1095  0.2033 -0.0582
 4558W        W 8622   6.318   7.341   9.455  0.0094 -0.2307 -0.0610
 4559W        W 8623   3.499   3.622   8.567 -0.2283 -0.0384 -0.0467
 4560W        W 8624   2.072   3.686   3.785  0.0770 -0.0571 -0.0376
 4561W        W 8625   0.846   6.024   2.384 -0.1499  0.0752 -0.1712
 4562W        W 8626   5.560   7.769   1.108  0.0299 -0.2311 -0.1570
 4563W        W 8627   2.007   8.389  10.629 -0.2038  0.1416 -0.0396
 4564W        W 8628   7.573   9.828  10.684 -0.0754 -0.3223  0.1076
 4565W        W 8629   1.619   0.407   7.853 -0.1148 -0.1432  0.0977
 4566W        W 8630   6.102   7.928   9.590 -0.1750  0.2438 -0.0283
 4567W        W 8631   4.169   7.640   7.497 -0.0451  0.0197  0.1918
 4568W        W 8632   2.998   9.893   8.791  0.2037  0.0186  0.3072
 4569W        W 8633   8.266   6.441   8.745 -0.3531 -0.0944 -0.0474
 4570W        W 8634   4.691   2.951   8.297  0.3846 -0.1471 -0.1985
 4571W        W 8635   9.621   5.195   0.580 -0.1093 -0.0168  0.1331
 4572W        W 8636   0.513   9.633  10.293  0.2592  0.1396  0.1519
 4573W        W 8637   2.414   1.668   2.972  0.2944 -0.0309  0.2191
 4574W        W 8638   8.340   1.486   9.040 -0.1663  0.1411 -0.0388
 4575W        W 8639   4.728   5.265   2.105  0.0219  0.0574  0.0258
 4576W        W 8640   6.018   5.874  10.411 -0.3212 -0.1148  0.0916
 4577W        W 8641  10.229   5.621   2.135 -0.1797 -0.0056 -0.0320
 4578W        W 8642  10.669   8.922   8.669  0.0174 -0.3021  0.1588
 4579W        W 8643   2.287   4.090   7.621 -0.0134 -0.1446  0.1024
 4580W        W 8644   8.977   6.676  10.655 -0.1476 -0.1012 -0.3084
 4581W        W 8645   6.078   7.530   7.099 -0.0134 -0.1532 -0.2883
 4582W        W 8646   7.370   6.464   2.974 -0.1774  0.0241  0.1200
 4583W        W 8647   6.760   4.323   1.013  0.1556 -0.0582  0.0360
 4584W        W 8648   9.591   1.417  10.164  0.0575  0.1248 -0.2106
 4585W        W 8649   4.847   8.153   3.609 -0.0598  0.1004 -0.0036
 4586W        W 8650   1.141   3.048   2.618 -0.1126 -0.1985  0.0554
 4587W        W 8651   0.955   0.059   1.524  0.0725 -0.0099 -0.2074
 4588W        W 8652   3.030   8.229   7.418 -0.1306 -0.2058  0.1383
 4589W        W 8653   4.948  10.220   9.025 -0.0721  0.4559  0.0110
 4590W        W 8654   4.334   9.832  10.291 -0.0387 -0.1855 -0.1875
 4591W        W 8655   9.412   2.262   7.276 -0.2215  0.1000 -0.0704
 4592W        W 8656   9.415   7.438   2.559 -0.4420  0.0081  0.2523
 4593W        W 8657   9.678   5.751   2.598 -0.1187 -0.0286  0.0244
 4594W        W 8658   1.333   8.088   9.562 -0.0688  0.0293  0.0468
 4595W        W 8659   1.301   9.060   2.770  0.1706  0.0977 -0.0563
 4596W        W 8660   2.310   3.871   2.962  0.1131  0.2451 -0.1676
 4597W        W 8661  10.744   8.021   2.179 -0.0773 -0.0936 -0.2547
 4598W        W 8662   4.949   7.054   0.416 -0.0089 -0.0690  0.1434
 4599W        W 8663   1.510   2.603   7.960  0.0050 -0.0177  0.1844
 4600W        W 8664   8.943   6.060   0.880  0.0253 -0.0882 -0.0607
 4601W        W 8665  10.734   2.519   1.311  0.1037 -0.1701 -0.3254
 4602W        W 8666   5.256  10.668   3.558  0.1825  0.1298  0.1669
 4603W        W 8667   5.966   5.878   8.129  0.1935 -0.2318  0.3827
 4604W        W 8668   4.438   6.680   1.691  0.2676  0.3861  0.0042
 4605W        W 8669   8.439   1.491   7.665 -0.2371 -0.2182 -0.1203
 4606W        W 8670   9.921   6.456   1.225  0.1695  0.1652 -0.0868
 4607W        W 8671   9.226   4.400   8.572  0.1490  0.2697 -0.0002
 4608W        W 8672   6.748   0.796   8.432  0.0575 -0.0507 -0.1008
 4609W        W 8673   5.225   6.645   2.535  0.3715 -0.1233 -0.0594
 4610W        W 8674   4.615   7.690   1.984 -0.0477 -0.0810  0.1637
 4611W        W 8675   8.418   7.254   8.833 -0.2379 -0.1384 -0.0151
 4612W        W 8676   4.637   9.418   2.875  0.1064  0.0539 -0.4624
 4613W        W 8677   9.039   9.236   9.730  0.0599  0.0299  0.1188
 4614W        W 8678   2.834   4.625  10.400  0.0828 -0.3193 -0.2887
 4615W        W 8679   8.863   3.480   3.158  0.0492  0.2007  0.0300
 4616W        W 8680   3.605  10.337   1.827  0.0643  0.0421 -0.2075
 4617W        W 8681   5.880   5.576   0.344  0.0515 -0.2517 -0.2153
 4618W        W 8682   5.142   0.489   8.420  0.0121 -0.1867  0.0187
 4619W        W 8683   8.236   4.993   4.001 -0.0672 -0.2268  0.0176
 4620W        W 8684   7.016  10.657   8.790  0.1680  0.0397  0.1462
 4621W        W 8685   7.446   5.980   2.856 -0.2137 -0.3304 -0.0941
 4622W        W 8686   5.992   0.384   3.306  0.2109  0.1061  0.0258
 4623W        W 8687   8.879   8.930   8.340 -0.1256 -0.0956 -0.1515
 4624W        W 8688   2.780   1.305   3.290  0.1801  0.0606  0.0503
 4625W        W 8689   0.980   9.120   9.206 -0.0105 -0.2664  0.0339
 4626W        W 8690   6.020   6.635   1.209  0.5167 -0.1008 -0.1007
 4627W        W 8691   9.744   5.835   7.952  0.0626 -0.2422  0.3242
 4628W        W 8692  10.919   5.499   8.601 -0.0986  0.0852  0.1405
 4629W        W 8693   9.655  10.481   8.342 -0.0368 -0.1807  0.4523
 4630W        W 8694   1.014   8.445   2.398 -0.0184  0.0249 -0.1817
 4631W        W 8695   2.734   9.463   7.946  0.0329 -0.0024 -0.1959
 4632W        W 8696   4.578   3.912   9.810 -0.0778  0.0009  0.0082
 4633W        W 8697   8.312   4.559   9.860  0.1171 -0.0423 -0.0833
 4634W        W 8698   9.571   7.208  10.654 -0.0066 -0.2379  0.3640
 4635W        W 8699   5.875   9.001   9.789 -0.1793  0.0245  0.0273
 4636W        W 8700  10.916   6.187   8.186  0.2492  0.2662 -0.0163
 4637W        W 8701   8.331  10.084   3.072 -0.1897 -0.0067  0.0438
 4638W        W 8702   1.377   0.446   1.320  0.0644  0.0141 -0.3088
 4639W        W 8703   9.402  10.861   9.244  0.0280 -0.0035  0.2407
 4640W        W 8704   9.754   9.225   8.185 -0.3542 -0.3050 -0.0607
 4641W        W 8705   4.592   6.454   2.214  0.0387  0.0051 -0.3790
 4642W        W 8706   3.575   2.993   9.417  0.1605 -0.1275 -0.1110
 4643W        W 8707   0.960   2.777   9.505 -0.1427  0.4320 -0.0643
 4644W        W 8708   5.321   2.187   0.610 -0.0237  0.2770 -0.0344
 4645W        W 8709   3.094   3.075   9.158 -0.0772 -0.1754  0.1017
 4646W        W 8710   8.545   7.260   1.621 -0.0760 -0.1953 -0.2550
 4647W        W 8711   5.459   5.023  10.657  0.0001  0.0416  0.1949
 4648W        W 8712   7.121   6.279   9.735  0.1815 -0.0725 -0.0298
 4649W        W 8713   7.972   9.375   8.247 -0.1398  0.0239 -0.0053
 4650W        W 8714   0.489   9.713  10.752 -0.1771  0.0762 -0.2975
 4651W        W 8715   2.917   8.339   2.054 -0.1611  0.0690  0.0817
 4652W        W 8716   3.219   9.393   0.347 -0.0467  0.3280 -0.1782
 4653W        W 8717   3.016   0.497   0.239 -0.0898 -0.0772  0.1254
 4654W        W 8718  10.402   6.713   2.239  0.1131 -0.1689  0.0124
 4655W        W 8719   1.069   2.090   3.322  0.1165  0.2455 -0.1216
 4656W        W 8720   1.400   6.813   1.300 -0.2565  0.1057 -0.0180
 4657W        W 8721   2.158   7.120  10.415  0.1606  0.2314 -0.2638
 4658W        W 8722   1.845   6.329  10.452 -0.2958 -0.1067  0.1963
 4659W        W 8723   4.144   0.131   2.721 -0.1182 -0.0736 -0.2153
 4660W        W 8724   1.684  10.825   2.892 -0.3077 -0.0102 -0.0427
 4661W        W 8725   8.529   9.779   8.255  0.2364  0.0536 -0.1072
 4662W        W 8726  10.488   4.926   0.301  0.3624  0.0520 -0.2275
 4663W        W 8727   7.650   5.566  10.565 -0.4048 -0.2492 -0.0151
 4664W        W 8728  10.703   9.514   0.939  0.2211 -0.2060  0.2590
 4665W        W 8729  10.056   8.203   9.037 -0.0171 -0.0256  0.2171
 4666W        W 8730   5.372   5.515   9.836 -0.2837  0.1246 -0.1416
 4667W        W 8731   7.229   2.157   3.027 -0.4711 -0.0434 -0.7590
 4668W        W 8732   5.219  10.761   1.771  0.1834  0.2435  0.0825
 4669W        W 8733   0.757   5.725   3.240  0.1384  0.2018 -0.1763
 4670W        W 8734   5.642   8.103   9.886  0.1483 -0.1942  0.1554
 4671W        W 8735   6.332   4.179   2.493 -0.1886 -0.2590  0.1125
 4672W        W 8736   9.998   9.335   2.637 -0.1621 -0.0237  0.0531
 4673W        W 8737   6.241  10.020   9.930 -0.1300 -0.0810 -0.2971
 4674W        W 8738   2.958   7.306   0.345 -0.0394 -0.2002 -0.0945
 4675W        W 8739   8.353   9.968   9.866 -0.0040 -0.2336  0.2568
 4676W        W 8740   3.635   4.021   9.551 -0.3675  0.0131 -0.1514
 4677W        W 8741   7.685   3.198   1.536  0.0517  0.2037 -0.2391
 4678W        W 8742   1.883   9.311   1.554  0.1083 -0.3348  0.0717
 4679W        W 8743   6.425   7.686   0.716  0.2014  0.1919 -0.1175
 4680W        W 8744   9.214   9.876   3.048 -0.0108  0.1283  0.2353
 4681W        W 8745   3.858   0.454   1.949  0.0865 -0.2087 -0.3164
 4682W        W 8746   5.758   6.550   8.874  0.0922 -0.2312 -0.2368
 4683W        W 8747   5.437   9.221   8.717  0.0681 -0.1135  0.3557
 4684W        W 8748   2.669   0.064   0.054  0.0149 -0.4604  0.0778
 4685W        W 8749   8.777   8.254   7.873  0.0463 -0.2901  0.1150
 4686W        W 8750   1.379   2.284   2.188  0.0074 -0.3757 -0.0989
 4687W        W 8751   6.665   4.887   1.882  0.0572  0.2107 -0.1847
 4688W        W 8752   6.618   4.947   6.965  0.1145  0.1633 -0.0201
 4689W        W 8753   2.788  10.130   9.797 -0.0792 -0.1215  0.1090
 4690W        W 8754   0.496   7.749   0.913  0.3810 -0.0338  0.1825
 4691W        W 8755   1.559  10.921   0.651 -0.2287  0.1174  0.0740
 4692W        W 8756   0.358  10.159   8.912 -0.0143  0.0734  0.1096
 4693W        W 8757   6.649   1.832   8.874 -0.0197  0.0125 -0.0034
 4694W        W 8758   3.517   4.916   9.914  0.1407 -0.2608  0.2183
 4695W        W 8759   8.204   3.023   9.355 -0.2888  0.1236 -0.0274
 4696W        W 8760   7.329   2.961   8.900 -0.1014 -0.0371  0.3720
 4697W        W 8761   9.118   0.560   8.357  0.1239  0.0689 -0.1850
 4698W        W 8762   4.565   4.373   2.784 -0.1052  0.1975 -0.1552
 4699W        W 8763   7.832   6.042   0.403 -0.1693 -0.2601 -0.1416
 4700W        W 8764   0.923   9.469   2.499  0.0414 -0.0426  0.1947
 4701W        W 8765   9.441   8.853   1.951 -0.1883  0.1724  0.1118
 4702W        W 8766   9.379   7.539   1.543  0.0759 -0.0219  0.1733
 4703W        W 8767   4.130  10.109   9.752  0.0064  0.1425  0.0500
 4704W        W 8768   7.280   6.465  10.784  0.0980  0.2491  0.0001
 4705W        W 8769   0.051   8.049   2.805 -0.1586 -0.2367  0.0131
 4706W        W 8770   2.857   5.602   0.886  0.2689  0.0255 -0.1518
 4707W        W 8771  10.748   4.619   9.236 -0.2786  0.1416 -0.0756
 4708W        W 8772  10.334   2.430   9.672 -0.0689 -0.1264 -0.1319
 4709W        W 8773   6.059   1.926  10.092 -0.1063  0.0747 -0.0360
 4710W        W 8774   6.000   5.463   9.109 -0.1766 -0.1684  0.3775
 4711W        W 8775   6.353   2.969   0.052  0.3942  0.0395  0.2796
 4712W        W 8776   2.526   4.024  10.190  0.0597  0.1034  0.1212
 4713W        W 8777   7.452  10.363   8.829  0.0596  0.0229  0.1841
 4714W        W 8778  10.827   0.201   2.282 -0.2777 -0.3668 -0.1955
 4715W        W 8779   5.548   2.771  10.303  0.1111 -0.0546 -0.1226
 4716W        W 8780   1.306   6.923   8.745  0.1133  0.0369  0.1184
 4717W        W 8781   0.635   3.208   1.475  0.1901  0.0326  0.0876
 4718W        W 8782   5.208   1.125   2.239  0.1257  0.2359  0.0989
 4719W        W 8783   1.764  10.200   3.347  0.3641  0.1650 -0.4616
 4720W        W 8784   9.844   4.259   0.861  0.0411 -0.1255 -0.1576
 4721W        W 8785   3.572   7.963   0.760 -0.0659 -0.2516 -0.1848
 4722W        W 8786   6.350   5.422   9.601  0.1916  0.2236 -0.0290
 4723W        W 8787   1.972   6.924   2.385  0.0023  0.3442  0.3492
 4724W        W 8788   9.524   4.391   8.973  0.2726  0.0401 -0.2633
 4725W        W 8789   0.379   6.039   9.124 -0.1888 -0.0864  0.2393
 4726W        W 8790   0.079   1.864   9.662 -0.0731  0.0661 -0.0820
 4727W        W 8791   2.254   8.450   9.925 -0.1055 -0.2087  0.0440
 4728W        W 8792   4.487   5.386   7.631 -0.5748 -0.0138  0.3692
 4729W        W 8793   3.153   3.518   8.224  0.0585 -0.1032  0.0468
 4730W        W 8794   6.211   8.972  10.215 -0.1441 -0.1088 -0.0234
 4731W        W 8795   1.577  10.841   8.010 -0.1467 -0.2458 -0.0813
 4732W        W 8796   3.552   1.708   9.414 -0.0279 -0.0101  0.1346
 4733W        W 8797  10.216   1.902   9.258 -0.2447 -0.1130 -0.0576
 4734W        W 8798   8.415   4.627   3.203  0.0148 -0.2511  0.3526
 4735W        W 8799   4.364   9.084   2.619  0.0248 -0.4343 -0.0063
 4736W        W 8800   5.495   2.935   9.390  0.1051 -0.1199  0.4673
 4737W        W 8801   0.815   7.963   3.173  0.2391 -0.0869  0.0071
 4738W        W 8802   0.391   8.502   0.117  0.1047  0.1417  0.2472
 4739W        W 8803   2.414   3.760   2.066 -0.2825  0.2587  0.2680
 4740W        W 8804   7.771   1.272  10.881  0.2713  0.0742  0.1403
 4741W        W 8805   6.005   0.814   7.366 -0.1650  0.0211  0.0919
 4742W        W 8806   6.887   0.336   2.888  0.0972  0.2011  0.1371
 4743W        W 8807   2.335   1.556   3.443  0.1379 -0.1251  0.1080
 4744W        W 8808  10.691   3.666   2.736  0.0670 -0.2437 -0.1554
 4745W        W 8809   0.345   2.827   1.201  0.0835  0.0022  0.1030
 4746W        W 8810   5.193  10.042  10.822 -0.0160  0.0480  0.2111
 4747W        W 8811   4.904   6.741   1.984 -0.1203  0.1769  0.0323
 4748W        W 8812  10.056  10.372   2.399  0.3796 -0.1770  0.2000
 4749W        W 8813   6.167   4.868   2.149 -0.0955  0.0130  0.0893
 4750W        W 8814   2.166  10.837  10.308  0.3511  0.0799  0.0904
 4751W        W 8815   9.169   5.544   7.348  0.0050  0.3903  0.0644
 4752W        W 8816   8.176   4.990   2.928  0.2306 -0.2284 -0.0607
 4753W        W 8817   7.873   2.911   1.223 -0.0977 -0.0381  0.1898
 4754W        W 8818   2.335   8.051   1.368  0.0391  0.2039  0.2588
 4755W        W 8819   3.611   7.429   8.768 -0.1771 -0.2948 -0.0260
 4756W        W 8820   9.074   5.301   0.265  0.1900  0.1534 -0.2440
 4757W        W 8821   9.642   2.265  10.278  0.0774 -0.0488  0.5786
 4758W        W 8822   2.976   9.163   3.813  0.1150  0.2235  0.2850
 4759W        W 8823   6.106   1.846   1.915  0.1081  0.0434 -0.0574
 4760W        W 8824   9.847   3.841   1.911  0.2514 -0.0480 -0.1136
 4761W        W 8825   9.390   5.689   8.292 -0.0701  0.0564 -0.4419
 4762W        W 8826  10.530   3.636   7.759 -0.3038  0.2269  0.1922
 4763W        W 8827  10.052   0.345   0.762 -0.3626  0.1909 -0.1534
 4764W        W 8828   0.919   0.949   9.253 -0.0119  0.0048  0.1962
 4765W        W 8829   8.221   2.901   2.449 -0.0702  0.2982  0.0592
 4766W        W 8830   1.800   8.796   1.381  0.0151  0.4174 -0.2173
 4767W        W 8831   8.440   1.817   0.350  0.0868 -0.0495 -0.6370
 4768W        W 8832   3.827   0.945   7.064  0.0114 -0.1164  0.1674
 4769W        W 8833  10.859   6.342   7.701 -0.1321 -0.1617 -0.0443
 4770W        W 8834   0.529   3.711  10.813 -0.0363 -0.2217 -0.0917
 4771W        W 8835   5.259   7.338   0.230 -0.0393  0.0417 -0.2723
 4772W        W 8836   1.215   1.102   8.415 -0.5828  0.0368  0.1783
 4773W        W 8837   0.979   6.011   9.970 -0.2210  0.3054  0.1104
 4774W        W 8838   8.954   3.846   2.269  0.0371  0.0539 -0.2320
 4775W        W 8839   7.408   3.292  10.065  0.3259  0.0234 -0.1124
 4776W        W 8840   5.422   5.472   0.429  0.0723  0.2512  0.0642
 4777W        W 8841   7.903   9.866   0.093 -0.1785  0.1622 -0.0715
 4778W        W 8842   7.711   2.962   2.422  0.0277 -0.0116 -0.1270
 4779W        W 8843   2.210   5.687   8.814  0.2401 -0.0709  0.3305
 4780W        W 8844   1.701   2.760   1.397  0.0049  0.0056  0.1076
 4781W        W 8845   5.911   8.241   3.062  0.0191  0.1934  0.3002
 4782W        W 8846   3.666   8.506   8.166 -0.0581  0.0356  0.0196
 4783W        W 8847   6.143   8.103   3.545  0.1080 -0.0309 -0.3800
 4784W        W 8848   8.421   2.032   7.906  0.4364 -0.2065 -0.1035
 4785W        W 8849   1.508   4.033  10.049 -0.2490 -0.0082 -0.2448
 4786W        W 8850   1.865   7.574  10.181  0.1479 -0.2346  0.1697
 4787W        W 8851   4.196   1.121   3.648  0.0486  0.1951 -0.1602
 4788W        W 8852  10.763  10.273   1.960  0.2507 -0.4615 -0.0120
 4789W        W 8853   6.306   7.242   3.088 -0.1275 -0.1436 -0.1430
 4790W        W 8854   6.013  10.563   7.975  0.0916  0.1118  0.1899
 4791W        W 8855   7.148   4.568   2.510  0.1888  0.1759 -0.0280
 4792W        W 8856   0.771   1.328   0.682  0.0390 -0.1117  0.2274
 4793W        W 8857   3.960   4.410   0.107 -0.1039 -0.0050  0.3562
 4794W        W 8858   4.898   4.276   7.001 -0.1509  0.1748 -0.0831
 4795W        W 8859   3.103   6.968   0.708  0.1316 -0.0504  0.0725
 4796W        W 8860  10.197   3.914   8.509 -0.0756  0.1809 -0.2038
 4797W        W 8861  10.688   9.181  10.914  0.1751 -0.1344  0.0216
 4798W        W 8862   5.633   4.925   2.098  0.0202 -0.1750  0.0870
 4799W        W 8863   1.572   6.594   0.931  0.1417  0.2967 -0.1416
 4800W        W 8864   2.796   4.718   3.312 -0.2304 -0.2476  0.1204
 4801W        W 8865   7.356   7.154   0.882  0.1483  0.1435 -0.0571
 4802W        W 8866   5.022   5.596   7.763  0.2418 -0.0424 -0.2723
 4803W        W 8867   1.683   7.839   0.500  0.3627 -0.0651 -0.2600
 4804W        W 8868   9.757   3.932   7.685 -0.2162  0.3021 -0.0623
 4805W        W 8869   6.736   4.597   1.448 -0.3427 -0.2199 -0.1838
 4806W        W 8870   6.141   6.223   1.490  0.3229  0.1302 -0.1549
 4807W        W 8871   0.316   8.698   9.854 -0.1610  0.1718  0.0282
 4808W        W 8872   0.490   3.882   8.732 -0.1139 -0.2083  0.0558
 4809W        W 8873   4.344   0.131   9.608  0.0461 -0.2702 -0.0489
 4810W        W 8874   1.212   1.343   3.268 -0.0052 -0.2354 -0.0356
 4811W        W 8875   4.924   7.781   8.697 -0.4978 -0.0060  0.2473
 4812W        W 8876   8.827   2.507   9.744  0.1995  0.2512 -0.0925
 4813W        W 8877   9.288   0.148   2.492 -0.3383  0.2266 -0.0140
 4814W        W 8878   4.513   8.198   4.004  0.0022  0.0475 -0.1156
 4815W        W 8879   5.029   7.596   0.634 -0.2392  0.1327 -0.1112
 4816W        W 8880   5.896  10.775   8.382  0.1594 -0.0287 -0.1519
 4817W        W 8881   3.575   8.984   0.153 -0.2699  0.1027 -0.2929
 4818W        W 8882   2.319   8.397   0.044 -0.2028 -0.1570  0.2733
 4819W        W 8883   8.943   2.971   8.242  0.0657 -0.0140  0.0495
 4820W        W 8884   6.950   6.059   3.584 -0.1878  0.2437 -0.0684
 4821W        W 8885   5.264  10.894   0.524 -0.2304  0.1015 -0.1045
 4822W        W 8886   8.314   8.291   1.266  0.2561 -0.0247  0.0415
 4823W        W 8887   1.155   0.168   8.091 -0.1844  0.1345 -0.0443
 4824W        W 8888   0.980   7.479   9.568  0.1630 -0.0617  0.0304
 4825W        W 8889   4.189   7.810   1.755  0.0977  0.2075  0.4007
 4826W        W 8890   8.915   1.177   2.906 -0.0527  0.0863  0.0630
 4827W        W 8891   1.838   8.523  10.174  0.2975  0.0665 -0.2129
 4828W        W 8892  10.026   9.865   0.814 -0.1847  0.1269 -0.1026
 4829W        W 8893   3.550   6.584   2.994  0.1308  0.0151 -0.0583
 4830W        W 8894   8.870   6.226   1.557 -0.2123  0.1629  0.1790
 4831W        W 8895   1.070   8.317  10.395 -0.1910 -0.0353  0.2842
 4832W        W 8896   1.414   4.375  10.411 -0.1149 -0.2157  0.0059
 4833W        W 8897   4.673   9.431   2.364  0.1492  0.1150  0.0064
 4834W        W 8898   8.476   1.239   8.151  0.2674  0.4131 -0.0575
 4835W        W 8899   9.133   7.788   9.365 -0.0557 -0.0164  0.3116
 4836W        W 8900   4.207   9.153   3.112  0.1579  0.4485 -0.0879
 4837W        W 8901   4.601   5.026   0.005 -0.2187 -0.1758 -0.0729
 4838W        W 8902   4.130  10.553   9.044  0.0338  0.4032  0.2656
 4839W        W 8903   2.509   6.657   9.107  0.2453  0.2684 -0.1820
 4840W        W 8904   4.226  10.098   8.591  0.1862  0.0103  0.0080
 4841W        W 8905   9.050   0.493   0.189 -0.0336  0.2286 -0.1205
 4842W        W 8906   6.777   5.395   2.063  0.1086 -0.4660  0.0732
 4843W        W 8907   3.295   1.057   7.624 -0.1159  0.0797  0.2264
 4844W        W 8908   9.615   9.335  10.040 -0.1980 -0.3484 -0.0809
 4845W        W 8909  10.547   9.015   0.743 -0.0018  0.1825 -0.2887
 4846W        W 8910   5.575   4.322   1.168  0.1745  0.1142  0.2483
 4847W        W 8911  10.349   7.608   2.659  0.1842 -0.1009  0.0083
 4848W        W 8912   2.378   2.415   3.591  0.1437  0.0818 -0.0387
 4849W        W 8913   4.609   4.611   2.339 -0.0385  0.5360  0.0628
 4850W        W 8914  10.117   5.685   8.657 -0.0844  0.3427  0.0556
 4851W        W 8915   8.819   5.359   8.198 -0.1858  0.0192 -0.1434
 4852W        W 8916   1.118   7.764   2.792  0.1344 -0.4153 -0.2075
 4853W        W 8917   0.095   5.056   8.416 -0.2366  0.2393  0.1253
 4854W        W 8918   4.041   5.876   3.669 -0.0868 -0.1079 -0.1710
 4855W        W 8919   1.835   0.278   9.903  0.2493  0.1346  0.1148
 4856W        W 8920   1.812   8.379   0.570 -0.2959  0.1334  0.2567
 4857W        W 8921  10.179   0.435   2.746  0.2853 -0.1535  0.0036
 4858W        W 8922   7.659   8.719  10.674  0.0645  0.0261 -0.2929
 4859W        W 8923   0.508   1.308   1.846  0.1836  0.1055  0.0530
 4860W        W 8924   2.829   9.858  10.327  0.2283  0.2123 -0.1151
 4861W        W 8925   9.482   9.714  10.368 -0.0787 -0.1322 -0.2822
 4862W        W 8926   7.514   7.725   0.173  0.1769  0.0138  0.2196
 4863W        W 8927   4.244   0.189   8.335  0.0660 -0.2186  0.2463
 4864W        W 8928   1.157   3.467   1.019  0.1087  0.0945 -0.2338
 4865W        W 8929   5.584   0.276   9.605 -0.2678 -0.0238 -0.1890
 4866W        W 8930  10.486   4.512   1.663  0.2075 -0.0041  0.0334
 4867W        W 8931   5.379  10.067   9.383  0.1773  0.0531  0.1086
 4868W        W 8932   9.848   8.739   1.629  0.1902  0.0325 -0.3402
 4869W        W 8933  10.621   6.730   9.656  0.3549 -0.2320  0.2457
 4870W        W 8934   7.854   4.031   7.668  0.3024  0.1796 -0.0074
 4871W        W 8935   1.524   5.663   7.604  0.0824  0.0207 -0.0588
 4872W        W 8936   2.995   3.468   2.959 -0.4324 -0.0966  0.3071
 4873W        W 8937   0.788   7.907   0.006  0.2514 -0.0629  0.2990
 4874W        W 8938   0.026   4.540   3.328  0.0446  0.1793 -0.1877
 4875W        W 8939   2.646   1.934   2.033 -0.3106 -0.2083  0.0131
 4876W        W 8940  10.609   0.439   7.442 -0.1130  0.0861  0.0995
 4877W        W 8941   7.527   9.631   1.443 -0.2052  0.0160  0.0344
 4878W        W 8942   2.504   0.704   1.077 -0.0013  0.1368 -0.1486
 4879W        W 8943   6.925   5.981   0.980  0.0296 -0.0337 -0.0721
 4880W        W 8944   2.663   5.333   1.323 -0.0302  0.1138  0.0439
 4881W        W 8945   8.878   5.285   1.457  0.0643  0.1252 -0.1866
 4882W        W 8946   8.247   1.419   2.515 -0.4204 -0.0597 -0.0674
 4883W        W 8947   7.476   5.793   8.030 -0.1881 -0.2712 -0.2710
 4884W        W 8948   0.378   5.289   1.852 -0.1424  0.3516 -0.1162
 4885W        W 8949   0.323   4.640   0.186  0.0556 -0.1974 -0.1192
 4886W        W 8950   5.541   2.351  10.035  0.0368  0.1311 -0.2489
 4887W        W 8951   2.059   0.961   3.555 -0.1764  0.0461  0.1311
 4888W        W 8952   2.853   0.270   2.238 -0.0726  0.0513 -0.2412
 4889W        W 8953   2.922  10.698   2.134  0.3842  0.0384 -0.0246
 4890W        W 8954   9.243   6.942   9.685  0.1854  0.1622 -0.2222
 4891W        W 8955   3.488   9.826   1.792 -0.2797 -0.2154  0.2300
 4892W        W 8956   8.832   3.045   3.700  0.0143 -0.1484  0.0688
 4893W        W 8957   7.790   7.342   2.111  0.0496  0.2280 -0.1732
 4894W        W 8958   1.590   4.251   8.913  0.1365 -0.0933 -0.2805
 4895W        W 8959   6.654   8.269   7.658 -0.0886  0.1080 -0.0607
 4896W        W 8960   2.613   0.578  10.948  0.0403  0.0598 -0.3778
 4897W        W 8961   4.914   1.221   9.774 -0.2034  0.2084 -0.1933
 4898W        W 8962   9.804   8.361   7.622  0.3670 -0.1261 -0.1332
 4899W        W 8963   7.532   3.350  10.625  0.0772  0.0891  0.0837
 4900W        W 8964   0.121   6.467   2.784 -0.0259 -0.0092 -0.1282
 4901W        W 8965  10.863   9.863   1.657 -0.2159  0.2141  0.0380
 4902W        W 8966   6.872   7.319   0.883  0.0335 -0.2899  0.1738
 4903W        W 8967   1.560  10.063   2.504 -0.0160 -0.2593 -0.2473
 4904W        W 8968   9.011   8.383   2.082 -0.2782  0.0199  0.0011
 4905W        W 8969  10.908   8.993   8.228  0.0013  0.0787  0.1521
 4906W        W 8970   2.024   1.079   0.840 -0.3832 -0.2321 -0.2230
 4907W        W 8971   3.925   4.953  10.975  0.0771 -0.0338 -0.1990
 4908W        W 8972  10.258   7.585   9.389  0.0378  0.1119  0.0214
 4909W        W 8973   1.136   7.693   3.537  0.1888  0.0608  0.0525
 4910W        W 8974   5.521   7.059   7.263 -0.1582  0.0472 -0.0861
 4911W        W 8975   4.659   7.905   2.433  0.0548  0.1472  0.1020
 4912W        W 8976   8.318   1.145   9.947  0.0599  0.4781  0.1943
 4913W        W 8977  10.458   2.498   6.435  0.1750  0.0628  0.0759
 4914W        W 8978   5.698   4.500   1.804  0.0485 -0.0896  0.0275
 4915W        W 8979   5.069   9.745   1.801 -0.0491  0.2106 -0.0585
 4916W        W 8980   3.303   9.241   1.585  0.2028 -0.0475  0.2621
 4917W        W 8981   3.479   5.214  10.815 -0.1497  0.1034  0.0859
 4918W        W 8982   0.347   9.970   8.136  0.2394  0.2491 -0.1173
 4919W        W 8983   8.349   7.794   9.109 -0.1529  0.2245 -0.1497
 4920W        W 8984   5.174   0.827   9.006  0.1468  0.1027 -0.2077
 4921W        W 8985   7.397   0.707   1.784  0.0331  0.2860  0.1420
 4922W        W 8986   6.207   8.408   1.340  0.2352 -0.0739 -0.0772
 4923W        W 8987   3.882   1.992  10.944 -0.0843  0.0390  0.0310
 4924W        W 8988   2.221  10.646   9.302  0.0676 -0.2766 -0.4478
 4925W        W 8989   6.770   7.962   2.820 -0.0288  0.0132  0.3432
 4926W        W 8990   8.089   0.994   1.308 -0.1247  0.2085  0.0065
 4927W        W 8991  10.532  10.314   9.674 -0.1505  0.0648 -0.2430
 4928W        W 8992   0.292   7.701   8.468  0.1765  0.1728  0.0813
 4929W        W 8993   7.467   3.427   8.992  0.0151  0.0193 -0.3203
 4930W        W 8994   9.420   4.711  10.388 -0.2206  0.2344 -0.1763
 4931W        W 8995   3.073   5.798   9.099 -0.1466 -0.2198 -0.0143
 4932W        W 8996   1.843   3.380  10.464 -0.2372  0.1264  0.0916
 4933W        W 8997   1.545   5.785   0.661 -0.0326  0.1245 -0.1121
 4934W        W 8998   5.196   3.907   7.981  0.1622 -0.0074  0.1302
 4935W        W 8999   8.657   7.317   9.297  0.0969 -0.1020  0.0683
 4936W        W 9000   7.718   7.569   7.823  0.0781 -0.2237  0.1526
 4937W        W 9001   8.163   6.862   9.495  0.0463 -0.0894  0.2685
 4938W        W 9002  10.427   8.916  10.224 -0.0527 -0.0958 -0.0281
 4939W        W 9003   7.370  10.366   7.416  0.3477  0.0500  0.0788
 4940W        W 9004   2.696   5.127   8.134 -0.1363  0.2733  0.0206
 4941W        W 9005   6.419   0.504   8.205 -0.1675  0.1504  0.0712
 4942W        W 9006   1.337   3.637   9.696  0.3095 -0.0240  0.1149
 4943W        W 9007   3.768   4.521   9.510  0.1083  0.0823  0.0271
 4944W        W 9008   5.182   1.083  10.594 -0.5333  0.2731  0.0602
 4945W        W 9009   5.169   4.135  10.547  0.0528 -0.2020 -0.1322
 4946W        W 9010   7.031   5.869   2.117  0.1750  0.1022 -0.0193
 4947W        W 9011  10.081   6.134   8.438 -0.1080  0.1241 -0.1081
 4948W        W 9012   6.101   7.435  10.399  0.0802 -0.2279  0.0987
 4949W        W 9013   1.046   4.627   2.900 -0.1210 -0.3321  0.2034
 4950W        W 9014   2.739   9.529   0.323  0.3156  0.0740 -0.2429
 4951W        W 9015  10.248   4.035  10.602  0.2563  0.0907  0.1630
 4952W        W 9016   1.180   4.934   1.130  0.2107 -0.2869  0.1206
 4953W        W 9017   4.088   7.395   2.027  0.1267 -0.0698 -0.0743
 4954W        W 9018   8.839   9.667   0.564  0.0565 -0.0654  0.0564
 4955W        W 9019   3.678   5.848   0.542  0.2174  0.3106 -0.0473
 4956W        W 9020  10.677   4.294   7.223 -0.2520 -0.1196 -0.2590
 4957W        W 9021   7.881  10.336   7.186  0.1122 -0.0138 -0.0520
 4958W        W 9022   4.247   5.930   1.013 -0.0644  0.4376  0.3097
 4959W        W 9023   7.461   2.255   0.577 -0.3589  0.2049  0.2170
 4960W        W 9024   3.167   6.963   2.430 -0.0565 -0.0924 -0.1492
 4961W        W 9025   5.177   4.223   0.267 -0.4171 -0.1294 -0.1302
 4962W        W 9026   9.539   3.490   1.300 -0.2409 -0.0990  0.2077
 4963W        W 9027   0.294   1.555   0.756 -0.0839  0.0253  0.1650
 4964W        W 9028   4.761   9.131   0.677 -0.0000 -0.2117 -0.2076
 4965W        W 9029   0.492   6.640   9.698  0.2445  0.2194 -0.2234
 4966W        W 9030   4.335   2.869   2.643 -0.1638 -0.1892 -0.0439
 4967W        W 9031   8.019   9.098   7.835  0.0759 -0.1543 -0.1716
 4968W        W 9032   6.476   4.389   3.005 -0.0884 -0.2988  0.0043
 4969W        W 9033   5.843   4.531  10.362  0.1117 -0.0662  0.4433
 4970W        W 9034   9.563   1.942   1.548 -0.1433 -0.1186  0.0252
 4971W        W 9035   6.773   3.742   9.104  0.5207 -0.0297 -0.1393
 4972W        W 9036   7.438   1.155   8.795 -0.0023 -0.0279 -0.3026
 4973W        W 9037   2.609   2.779   7.725  0.3166  0.1152 -0.1416
 4974W        W 9038   8.876   2.491   2.626 -0.2943 -0.1188 -0.0280
 4975W        W 9039  10.594   0.754   9.744 -0.0550  0.1033  0.2038
 4976W        W 9040   4.141   1.306   1.599  0.2403  0.2674 -0.1593
 4977W        W 9041  10.757   3.675   9.330 -0.1267  0.1684 -0.0849
 4978W        W 9042   5.655   1.810   0.607 -0.1074  0.0159  0.1728
 4979W        W 9043   5.782   9.811   2.329 -0.1040  0.0259  0.1053
 4980W        W 9044   1.652   4.395   1.010 -0.0481 -0.0170  0.4554
 4981W        W 9045   5.891   1.530   3.302  0.1076 -0.0410 -0.0682
 4982W        W 9046   7.846   9.927   9.939 -0.0172  0.1493  0.2364
 4983W        W 9047   8.614   2.739   4.003  0.2597  0.2630 -0.0877
 4984W        W 9048   5.858   0.018  10.444  0.1082 -0.0387 -0.1669
 4985W        W 9049   6.437   4.382  10.866  0.1655  0.1700 -0.1515
 4986W        W 9050   9.325   5.709   9.352 -0.0032 -0.2117  0.1525
 4987W        W 9051   7.027  10.559   0.089 -0.0534 -0.2428 -0.2041
 4988W        W 9052  10.395   5.925   2.952 -0.0100 -0.1793 -0.0657
 4989W        W 9053   0.547   7.307   8.632 -0.0087 -0.0152  0.1249
 4990W        W 9054   7.733   6.017  10.877 -0.2235  0.2150 -0.3843
 4991W        W 9055   1.170   8.226   3.484 -0.0461 -0.0269 -0.1455
 4992W        W 9056   2.981   1.962   1.600  0.2885 -0.2828 -0.1744
 4993W        W 9057   3.579   2.459   9.120 -0.1634  0.1563  0.2089
 4994W        W 9058   7.325   4.187   2.761  0.1029  0.0614  0.2229
 4995W        W 9059   0.475   4.091   8.255  0.0075 -0.1906  0.2806
 4996W        W 9060   9.941   4.856   8.265 -0.0585  0.0921  0.2607
 4997W        W 9061   4.008   2.055   3.356 -0.1450  0.0510 -0.0460
 4998W        W 9062   7.364   6.933   1.354 -0.2116 -0.0190  0.0924
 4999W        W 9063   3.092   9.572   2.161  0.2293  0.0604 -0.2503
 5000W        W 9064   2.732   7.892   2.888  0.0614  0.1831 -0.0246
 5001W        W 9065  10.052   7.987  10.139  0.1775  0.2334 -0.2058
 5002W        W 9066   5.535  10.657   0.159  0.1705 -0.0430 -0.1552
 5003W        W 9067   9.670   0.568   8.161 -0.0792 -0.1083 -0.2262
 5004W        W 9068   7.468   3.221   0.458  0.0769  0.1334 -0.1592
 5005W        W 9069   6.574   3.737   2.378  0.4604  0.0461 -0.1377
 5006W        W 9070   0.952   1.537   0.093  0.2241  0.2076 -0.3155
 5007W        W 9071   6.358   1.683   0.689  0.1058  0.1028  0.3184
 5008W        W 9072   7.704   2.060   2.960 -0.3542  0.0508 -0.0076
 5009W        W 9073   6.662   2.193   9.829 -0.1282 -0.0811 -0.0391
 5010W        W 9074   2.317   8.027   3.166  0.0484  0.0689  0.1200
 5011W        W 9075   1.980   1.078   3.990  0.4573 -0.1384 -0.0813
 5012W        W 9076   4.104  10.340  10.334  0.0404 -0.0630  0.1127
 5013W        W 9077  10.871   5.095   0.953 -0.2241 -0.1492  0.0118
 5014W        W 9078   0.661   4.542   8.093 -0.1044 -0.0493  0.4096
 5015W        W 9079   6.591   5.060   0.624 -0.4885 -0.0659  0.1398
 5016W        W 9080   9.020   8.929   8.874 -0.1470 -0.3326 -0.0597
 5017W        W 9081   2.383   4.778   2.478  0.2891  0.2724  0.0864
 5018W        W 9082   1.249   7.061   9.212  0.2441 -0.0222  0.2615
 5019W        W 9083   3.315   8.133   9.365 -0.4211  0.2815 -0.3251
 5020W        W 9084   9.110   8.820   2.283 -0.0242  0.0802 -0.2930
 5021W        W 9085   1.355  10.075   0.118  0.0324 -0.0410 -0.0126
 5022W        W 9086   9.092   0.856  10.600 -0.0591 -0.4410  0.0562
 5023W        W 9087   7.849   9.690   9.414 -0.1842 -0.1055 -0.2547
 5024W        W 9088   0.364  10.733  10.722  0.3351 -0.0415 -0.0285
 5025W        W 9089   1.215   7.011   7.836  0.0278 -0.4996 -0.0877
 5026W        W 9090   4.986  10.355  10.080  0.0481  0.0943 -0.0033
 5027W        W 9091   5.273   8.661   2.893  0.0779  0.0767  0.0691
 5028W        W 9092  10.273  10.743   9.521  0.1157  0.0517 -0.1298
 5029W        W 9093   8.137   0.374   1.960 -0.2486  0.0317  0.2426
 5030W        W 9094   4.494   0.207   7.913 -0.1271  0.0641 -0.0164
 5031W        W 9095   2.313   5.007   8.563 -0.1898  0.1888  0.0264
 5032W        W 9096   9.196   7.173   3.664  0.0373 -0.0576  0.0839
 5033W        W 9097   4.649   1.434   1.518 -0.5480  0.3856 -0.1232
 5034W        W 9098   8.588   1.325  10.775 -0.1114  0.3299 -0.1668
 5035W        W 9099   6.010   2.714   1.949  0.0617  0.1188  0.0132
 5036W        W 9100   1.014   3.030   7.403 -0.3293  0.1011  0.1762
 5037W        W 9101   1.160   8.846   8.740 -0.4362 -0.1605 -0.1152
 5038W        W 9102   5.256   7.796  10.387  0.0756 -0.1605  0.2411
 5039W        W 9103   8.903   0.058   9.052  0.2170  0.1392  0.0759
 5040W        W 9104  10.075   2.588  10.117  0.1115  0.5396 -0.0673
 5041W        W 9105   6.039   9.898   7.397  0.0746  0.2075 -0.2072
 5042W        W 9106   9.036   6.297   7.366 -0.4521  0.0518  0.0680
 5043W        W 9107   3.336   0.689   4.052 -0.3216 -0.2665  0.0555
 5044W        W 9108   9.008   5.765   1.307  0.1165  0.0925  0.3976
 5045W        W 9109   1.449   9.809   9.957  0.1187 -0.2492  0.0484
 5046W        W 9110   8.547   0.512   2.378  0.0052 -0.1683  0.1989
 5047W        W 9111   0.669   2.629  10.029  0.4509 -0.3592  0.1415
 5048W        W 9112   3.840   1.696   1.543  0.0252  0.2515  0.0778
 5049W        W 9113  10.561   3.574   9.807  0.1687 -0.1927 -0.0762
 5050W        W 9114   9.174   2.756   7.826  0.3465  0.0704 -0.4147
 5051W        W 9115   9.515   0.205   0.908 -0.1110  0.2771  0.3470
 5052W        W 9116   1.543   1.407   0.268 -0.3789  0.1059 -0.4337
 5053W        W 9117   8.177   9.066   2.362 -0.0270  0.3000 -0.2910
 5054W        W 9118   3.681  10.886   8.308 -0.2410 -0.0935 -0.0718
 5055W        W 9119  10.898  10.477   8.020  0.2216 -0.0996 -0.0551
 5056W        W 9120   4.927   6.610   0.710  0.0742 -0.0118 -0.0192
 5057W        W 9121   7.364   3.180   2.119 -0.1440 -0.0413  0.2279
 5058W        W 9122   0.042   0.598  10.787  0.1176 -0.0066 -0.2015
 5059W        W 9123   2.317  10.297  10.780 -0.2134  0.1120  0.1127
 5060W        W 9124   2.828   4.419   2.340  0.0259 -0.0208  0.0560
 5061W        W 9125   6.810   7.330   9.245  0.2196  0.3071  0.6805
 5062W        W 9126   4.826   0.104   2.073  0.0464  0.1539 -0.0598
 5063W        W 9127   6.619   2.973   1.921  0.2706  0.2244  0.0621
 5064W        W 9128   1.857  10.611  10.657 -0.2619 -0.1158 -0.1424
 5065W        W 9129   0.301  10.799   0.687 -0.0884 -0.5319  0.0262
 5066W        W 9130   8.907   2.247   7.881  0.0953 -0.0737  0.0624
 5067W        W 9131   4.137   4.259   9.028  0.2728  0.0735  0.0218
 5068W        W 9132   7.120   4.866   8.402  0.2014  0.0334  0.0275
 5069W        W 9133   8.464   5.947   9.718  0.0526  0.2036 -0.1042
 5070W        W 9134   7.960   1.079   3.549 -0.3949  0.2253 -0.0115
 5071W        W 9135   6.081   5.389   1.396 -0.0892 -0.3277  0.2400
 5072W        W 9136   9.507   4.491  10.895  0.2353 -0.1207 -0.2165
 5073W        W 9137   8.945   4.766   8.749 -0.1508  0.2175  0.1021
 5074W        W 9138   7.439   6.206   2.084 -0.2385  0.0724  0.1535
 5075W        W 9139   6.972  10.035   0.894  0.1052 -0.1803 -0.0652
 5076W        W 9140   6.659   2.435   2.057  0.1591  0.3573  0.3514
 5077W        W 9141   4.403   2.916   0.182 -0.0269  0.0152 -0.1697
 5078W        W 9142   8.028   4.814   2.479  0.0564 -0.3807 -0.0025
 5079W        W 9143   5.442  10.357   9.023 -0.1208  0.1361  0.0427
 5080W        W 9144  10.904   6.436   9.053  0.0223  0.0836 -0.2473
 5081W        W 9145   8.712  10.731   0.441  0.3053 -0.0981 -0.0197
 5082W        W 9146   1.172   8.265   2.901  0.2750 -0.0480  0.0534
 5083W        W 9147   5.347   3.663   2.673 -0.1749 -0.1757 -0.0992
 5084W        W 9148   8.591   4.173   9.697  0.0507  0.1028 -0.0588
 5085W        W 9149  10.875  10.667   0.949  0.1508  0.2639 -0.1670
 5086W        W 9150   1.870  10.749   4.168 -0.0432  0.2319  0.0539
 5087W        W 9151   8.587   3.974   8.880 -0.0086 -0.2012 -0.1396
 5088W        W 9152   2.211   7.903   9.041  0.0328  0.2346  0.2992
 5089W        W 9153   8.344   8.609   2.304  0.1196  0.2459 -0.1715
 5090W        W 9154   8.531   7.653   1.178  0.1765  0.2062 -0.0605
 5091W        W 9155   1.627   6.886   2.756 -0.1018 -0.1017 -0.1934
 5092W        W 9156   5.416   7.959   0.667 -0.0910  0.1891  0.2301
 5093W        W 9157   6.660   1.447   3.382 -0.3426 -0.1530  0.1298
 5094W        W 9158   7.572  10.267  10.418 -0.3088  0.1052 -0.0828
 5095W        W 9159   2.671   2.193   8.446  0.1620 -0.3230  0.0553
 5096W        W 9160   1.384   7.693   2.303 -0.1732  0.1538  0.2319
 5097W        W 9161   5.848  10.124   1.965 -0.2849 -0.1725  0.1949
 5098W        W 9162   9.952   2.245   3.961  0.0809  0.3948 -0.1518
 5099W        W 9163   0.443  10.670   9.640  0.0050 -0.2775  0.2939
 5100W        W 9164  10.037   4.267   0.047  0.0354 -0.0578  0.0948
 5101W        W 9165   2.717   5.468   8.525 -0.2040  0.1777  0.0479
 5102W        W 9166   2.543   3.296   7.619  0.0511 -0.1840  0.0570
 5103W        W 9167   8.002   0.970   0.384 -0.3663  0.1933  0.2950
 5104W        W 9168   5.958   0.508   1.382 -0.0864  0.3169 -0.1191
 5105W        W 9169   0.429   2.605   8.739 -0.2777 -0.1530 -0.1189
 5106W        W 9170   7.263   0.235   0.700  0.0987  0.2765 -0.3950
 5107W        W 9171  10.186   5.432   7.562 -0.5561 -0.0396  0.1538
 5108W        W 9172   6.492   4.091  10.136  0.2897  0.2626  0.0729
 5109W        W 9173   2.157   2.146   8.506 -0.0025 -0.0870 -0.1187
 5110W        W 9174   3.977   8.292   3.002  0.2013  0.0905 -0.2949
 5111W        W 9175   7.420   6.555   0.253  0.0786  0.0841 -0.1387
 5112W        W 9176   1.254   9.687   0.469 -0.0379 -0.0970 -0.0345
 5113W        W 9177   1.985   3.020   0.621  0.1069 -0.2571 -0.2572
 5114W        W 9178   5.741   6.790   7.981 -0.2189  0.1370  0.2233
 5115W        W 9179   2.784   4.171   9.736  0.4050  0.0540  0.0580
 5116W        W 9180   4.811   3.888  10.263 -0.0640 -0.1393  0.0529
 5117W        W 9181   4.593   8.306   9.605  0.2621 -0.0522  0.0635
 5118W        W 9182   2.915   3.203   2.092 -0.2158  0.1119  0.1450
 5119W        W 9183   7.927   6.364   0.825  0.3283 -0.0535  0.2512
 5120W        W 9184   4.687   0.323  10.118  0.1838  0.4344  0.1195
 5121W        W 9185   5.958   7.517   9.808  0.2436  0.2576 -0.0421
 5122W        W 9186   2.741   9.270   1.244  0.1018 -0.1095  0.1007
 5123W        W 9187   0.944   2.161   2.886  0.0961  0.2021  0.0849
 5124W        W 9188   0.107   8.467   2.401 -0.0997  0.3469 -0.0279
 5125W        W 9189   6.142   9.444   2.830  0.2777  0.0923 -0.0679
 5126W        W 9190   0.217   8.901   1.510  0.2806 -0.1885 -0.3903
 5127W        W 9191   4.392   7.073  10.464  0.1539  0.1172  0.3772
 5128W        W 9192  10.722   6.470   0.879  0.3903  0.0305 -0.2717
 5129W        W 9193   4.714  10.819   9.881 -0.0057 -0.0484 -0.5055
 5130W        W 9194   1.065   5.861   2.007  0.0542 -0.0259  0.0616
 5131W        W 9195   3.169   7.484   9.015  0.0180  0.1955 -0.0468
 5132W        W 9196   2.316   1.783   8.216  0.0607  0.2387  0.0481
 5133W        W 9197   7.406  10.821   0.333  0.0690 -0.1385 -0.3276
 5134W        W 9198  10.191   8.675   8.867 -0.0392 -0.2509  0.0092
 5135W        W 9199   5.724   0.609   9.175  0.3220  0.1212  0.1416
 5136W        W 9200   4.265   0.622  10.157  0.1325  0.2622 -0.3132
 5137W        W 9201   6.672   3.359   0.099 -0.1879 -0.1657 -0.2204
 5138W        W 9202   5.435   8.103   2.933 -0.0456  0.0419  0.1322
 5139W        W 9203  10.750   6.699  10.466  0.1080  0.2441  0.4277
 5140W        W 9204  10.168   1.682   7.944 -0.0361 -0.3531 -0.0511
 5141W        W 9205   4.974   4.848   2.077  0.1524  0.1510 -0.2346
 5142W        W 9206   6.444   4.729   1.000  0.0227 -0.3347 -0.0735
 5143W        W 9207   2.097   8.978   9.942  0.0299 -0.2628  0.0987
 5144W        W 9208   0.236   9.255  10.646  0.0610  0.0433 -0.4005
 5145W        W 9209   4.298  10.303   1.964  0.0531 -0.2706  0.0064
 5146W        W 9210  10.104   1.322   1.727  0.2953 -0.0067  0.1807
 5147W        W 9211   8.803   1.870   7.531 -0.1633  0.2828  0.0440
 5148W        W 9212   4.218   0.059   7.504 -0.1128  0.3278  0.0291
 5149W        W 9213  10.145   6.137   1.657 -0.0133  0.1923 -0.1793
 5150W        W 9214   3.499   0.675   9.761  0.2730 -0.0330 -0.1624
 5151W        W 9215   8.215   9.205  10.267 -0.1599  0.0416 -0.0074
 5152W        W 9216   1.215   5.810  10.848  0.1195 -0.2483  0.0909
 5153W        W 9217   1.963   6.425   3.684 -0.3686 -0.1401  0.4590
 5154W        W 9218   8.838   9.081   1.193  0.3131  0.1588  0.0107
 5155W        W 9219   5.671   6.990   9.771 -0.0410 -0.1189  0.4032
 5156W        W 9220   8.468   1.915   8.839  0.2451  0.1018 -0.2689
 5157W        W 9221   8.878   9.355   8.595 -0.0232  0.0655 -0.2389
 5158W        W 9222   1.088  10.524   1.787  0.1161 -0.0809 -0.1779
 5159W        W 9223   3.955  10.446   1.131  0.1103  0.0764 -0.3463
 5160W        W 9224   5.225   3.553   8.438  0.3621  0.0008 -0.0016
 5161W        W 9225  10.521  10.192  10.704  0.5237  0.0368 -0.1210
 5162W        W 9226  10.831   0.228   1.056  0.1157 -0.2501 -0.2592
 5163W        W 9227   7.228   1.689   2.253  0.0627  0.0651  0.2117
 5164W        W 9228   8.694   5.214   8.744 -0.4033 -0.1983 -0.2852
 5165W        W 9229   2.253   6.247   1.690  0.0340  0.2957  0.0512
 5166W        W 9230   6.433   3.206   0.602  0.0407  0.0240 -0.2864
 5167W        W 9231   2.755   1.146   1.142  0.0060  0.1363 -0.1986
 5168W        W 9232   9.430   3.519   0.215 -0.1759 -0.0167 -0.0257
 5169W        W 9233   0.924   2.484  10.787 -0.0412  0.0094  0.1958
 5170W        W 9234   6.900   1.022   7.968  0.2755  0.0355  0.1016
 5171W        W 9235   0.811  10.799   2.561  0.0671 -0.2507  0.2635
 5172W        W 9236   1.886   3.239   1.410 -0.0570  0.0287 -0.0750
 5173W        W 9237   9.990   5.860   0.066  0.0096  0.3192  0.2822
 5174W        W 9238   7.584   9.001   8.696  0.1415 -0.0582 -0.1228
 5175W        W 9239   0.774   2.248   0.508 -0.0621 -0.0165  0.2024
 5176W        W 9240   5.249   1.687   8.488  0.0193  0.2431  0.0825
 5177W        W 9241   4.451  10.389   9.957 -0.0746 -0.2394 -0.0402
 5178W        W 9242   4.552   7.545   9.763  0.2157  0.0995 -0.2243
 5179W        W 9243   4.904   3.725  10.707  0.0618 -0.1352  0.2062
 5180W        W 9244   0.539   2.048   9.871 -0.0126  0.1750  0.0274
 5181W        W 9245  10.799   2.488   8.447  0.0976 -0.1429 -0.0509
 5182W        W 9246   4.218   6.206   8.410  0.2716  0.0772 -0.0487
 5183W        W 9247   2.023   4.077   0.182  0.1171  0.1436 -0.0797
 5184W        W 9248   6.466  10.164   3.273 -0.1663  0.0917  0.0840
 5185W        W 9249   3.415   5.018   8.859 -0.2999  0.1246 -0.1764
 5186W        W 9250   6.536   1.191   9.987 -0.1289  0.0474 -0.0173
 5187W        W 9251  10.155   6.416   8.897 -0.0458  0.0377 -0.0324
 5188W        W 9252   8.175   6.422   9.711  0.2877  0.1826 -0.1051
 5189W        W 9253   9.919   3.084   1.347 -0.1226 -0.0035  0.0094
 5190W        W 9254   8.177   5.512   9.045 -0.1344  0.3482 -0.0424
 5191W        W 9255   6.144   2.335   0.081  0.2800 -0.0820  0.0778
 5192W        W 9256   6.299   1.524   1.168 -0.0261  0.4583  0.1396
 5193W        W 9257   1.389   9.653  10.870  0.1505 -0.3048  0.2401
 5194W        W 9258   4.206   4.155   2.363 -0.1937 -0.0444  0.2280
 5195W        W 9259   3.319   8.402   2.579 -0.0381 -0.0144  0.0541
 5196W        W 9260   6.102   3.156   3.798 -0.2939  0.4358 -0.1051
 5197W        W 9261   8.781   0.052  10.033 -0.0111 -0.0133  0.1477
 5198W        W 9262   2.866   9.954   7.284  0.0189  0.3503  0.0746
 5199W        W 9263   1.212   0.330   9.776 -0.4830  0.0453  0.0467
 5200W        W 9264   3.232   5.499   1.684  0.0966  0.1329 -0.1718
 5201W        W 9265  10.004   4.236   8.929 -0.2810  0.1273  0.0852
 5202W        W 9266   1.725   0.017   1.177 -0.2043  0.1672  0.0536
 5203W        W 9267   9.504   9.807   1.612  0.2990 -0.0975 -0.1730
 5204W        W 9268   3.861   0.897  10.073 -0.3746  0.2027  0.0855
 5205W        W 9269   3.508   7.686   3.438  0.2020 -0.3821 -0.1290
 5206W        W 9270   2.043   2.002   7.332 -0.1442  0.1839 -0.0294
 5207W        W 9271   2.520   5.201   8.961  0.0357 -0.2367 -0.0448
 5208W        W 9272   5.067  10.473   0.171  0.1314 -0.0653  0.1986
 5209W        W 9273   5.485   7.390   0.706 -0.0315  0.3242  0.2386
 5210W        W 9274   5.254   8.413   0.284  0.1438  0.3854  0.0463
 5211W        W 9275   6.998   2.091   8.654  0.1945 -0.1989 -0.0930
 5212W        W 9276   8.699   6.394  10.342  0.0361 -0.0934  0.0168
 5213W        W 9277   7.552   6.708   0.743 -0.1728 -0.1013  0.4197
 5214W        W 9278   5.056  10.546   2.256  0.2974 -0.1007 -0.0170
 5215W        W 9279   4.937   8.189   0.587  0.2481 -0.2685  0.0823
 5216W        W 9280   6.966   4.196   1.559 -0.0513 -0.0574 -0.4874
 5217W        W 9281   1.159   7.836   8.753 -0.1398 -0.2509 -0.1819
 5218W        W 9282   4.140   5.750   0.435 -0.1280  0.0462 -0.3020
 5219W        W 9283   4.335   1.582  10.093 -0.0778 -0.0430 -0.3476
 5220W        W 9284   6.597   6.411   1.016  0.0414  0.0660 -0.3466
 5221W        W 9285   1.843   9.799   3.023  0.0579 -0.0873 -0.2437
 5222W        W 9286   1.921   5.010   9.718 -0.2202 -0.0008  0.0316
 5223W        W 9287   5.298   3.092   8.402  0.0085  0.0393 -0.1094
 5224W        W 9288   6.114   1.428   8.196 -0.1798  0.0116  0.0865
 5225W        W 9289   6.493   2.235  10.289 -0.0525 -0.0435  0.1751
 5226W        W 9290   5.118   5.182   2.995  0.2029  0.0049 -0.3397
 5227W        W 9291   6.306   3.153   9.163 -0.2874 -0.3681 -0.2268
 5228W        W 9292   0.837   1.309   1.301  0.2064 -0.0014 -0.1548
 5229W        W 9293   4.807   7.991   0.009 -0.2486  0.1468  0.0819
 5230W        W 9294   8.897   6.463   2.356  0.3328 -0.0894 -0.1502
 5231W        W 9295   8.484   2.024   2.807 -0.0793  0.0445 -0.0763
 5232W        W 9296   4.589  10.872  10.494 -0.1423  0.1456  0.3030
 5233W        W 9297   8.516   5.838   0.560 -0.1391  0.1443 -0.0843
 5234W        W 9298   7.808   2.687   8.831 -0.2072  0.0032 -0.1255
 5235W        W 9299   3.141   4.118   8.724 -0.1546 -0.0426 -0.1178
 5236W        W 9300  10.717  10.708   1.454  0.5218  0.0733  0.0217
 5237W        W 9301   2.057   1.440   0.417 -0.3239 -0.3926 -0.2531
 5238W        W 9302   7.157   4.419  10.223 -0.1838  0.2914  0.0002
 5239W        W 9303   5.234   5.136   1.055  0.0787 -0.2907  0.0752
 5240W        W 9304  10.369  10.882   0.954 -0.2385 -0.1848 -0.1636
 5241W        W 9305   1.866   8.704   7.909  0.0475 -0.1033 -0.1327
 5242W        W 9306   8.486   0.594   8.467  0.0373  0.1054 -0.0971
 5243W        W 9307   7.589   7.895   1.122 -0.0719  0.1819  0.0181
 5244W        W 9308   9.213   6.025   4.057  0.1002 -0.2210 -0.0792
 5245W        W 9309   5.225   7.699   2.720  0.2387  0.0488 -0.0363
 5246W        W 9310   4.049   2.404   9.077 -0.0085 -0.0407 -0.1029
 5247W        W 9311   2.729   7.913  10.231 -0.4231  0.0843 -0.0567
 5248W        W 9312   1.258   6.996   9.728 -0.1532  0.2348  0.1242
 5249W        W 9313   5.906   1.025   9.447 -0.0038  0.0081  0.1315
 5250W        W 9314   3.679   9.788   3.667 -0.1301  0.0604 -0.0146
 5251W        W 9315  10.119   7.195   8.216 -0.1054 -0.0412  0.0981
 5252W        W 9316  10.697   4.064   1.453  0.2036  0.3912 -0.1785
 5253W        W 9317   1.229   4.909   9.253 -0.1602  0.1285 -0.0709
 5254W        W 9318   0.811   4.595   0.288 -0.2897 -0.3026  0.0910
 5255W        W 9319   6.790  10.174  10.561  0.0474  0.1077 -0.0230
 5256W        W 9320   7.839   6.984   1.037  0.1365 -0.0013 -0.1638
 5257W        W 9321   0.939   4.520   1.489 -0.1351  0.0229 -0.0194
 5258W        W 9322   5.529   1.920   2.293  0.0938  0.1051  0.1474
 5259W        W 9323   4.367   8.600   7.969  0.2768  0.1909  0.0877
 5260W        W 9324   2.113   6.560   2.677 -0.0947 -0.0503 -0.0087
 5261W        W 9325   5.609  10.151   2.883  0.1756  0.1321  0.2158
 5262W        W 9326   9.241   5.453   9.773  0.2917  0.0564  0.2565
 5263W        W 9327   1.197   4.969   1.618 -0.0349 -0.0177 -0.0435
 5264W        W 9328   4.044   6.295   1.409 -0.0819 -0.0224  0.0522
 5265W        W 9329   9.438   0.731   2.405  0.1361  0.1067  0.0035
 5266W        W 9330   4.327   0.804   2.132  0.0322 -0.0636 -0.0583
 5267W        W 9331   4.723   4.778   9.482  0.2577  0.2015  0.0503
 5268W        W 9332   4.110   5.961   8.022 -0.0146  0.0888 -0.2206
 5269W        W 9333   2.884  10.369   8.549  0.1292  0.1473 -0.0728
 5270W        W 9334   1.529   3.794   2.135  0.1461 -0.0309  0.1149
 5271W        W 9335   4.220   0.873   9.693  0.2911  0.1516  0.0579
 5272W        W 9336   3.083   8.166   0.501  0.0812  0.0682 -0.4571
 5273W        W 9337   7.303   2.382   7.834  0.0385  0.1682  0.0397
 5274W        W 9338   2.616   8.420   3.144 -0.0869  0.3904  0.1637
 5275W        W 9339   6.911   8.432   3.172 -0.3350  0.1242  0.1356
 5276W        W 9340   8.117  10.693   8.116  0.0780  0.1132 -0.1694
 5277W        W 9341   0.384   5.950   8.295  0.0810  0.3406  0.1981
 5278W        W 9342   6.070   3.740   7.840 -0.0304 -0.0677  0.0415
 5279W        W 9343   0.270   1.890   3.504  0.1081  0.0515 -0.0738
 5280W        W 9344   3.810   7.036  10.314  0.0075  0.2423 -0.1501
 5281W        W 9345   2.819   8.703   8.746 -0.1822 -0.1477  0.3254
 5282W        W 9346   4.771  10.731   2.656  0.0174 -0.6087 -0.0908
 5283W        W 9347   2.639   4.231   8.704 -0.3917 -0.1378  0.0181
 5284W        W 9348   0.601   0.538   9.349  0.4184  0.2485  0.0567
 5285W        W 9349   5.546   0.796   8.750 -0.1329 -0.1651  0.0440
 5286W        W 9350   0.180   8.923   0.119  0.1617  0.0013  0.0136
 5287W        W 9351   8.758   4.993   2.325  0.0021  0.0653 -0.0990
 5288W        W 9352   2.159  10.724   1.022  0.1961 -0.0337 -0.1242
 5289W        W 9353  10.363   3.770   1.142 -0.1670 -0.1363  0.0205
 5290W        W 9354   0.939   4.832   3.381  0.0044  0.0655  0.0216
 5291W        W 9355   3.357   3.268   1.845 -0.2116  0.0290  0.1183
 5292W        W 9356   0.634   0.685   2.689  0.0894  0.1377 -0.1996
 5293W        W 9357   8.927   4.152   0.038 -0.3385 -0.0364 -0.1442
 5294W        W 9358   7.240   5.464   9.126 -0.3767 -0.0502  0.0275
 5295W        W 9359   5.621   8.130  10.964 -0.1706 -0.3141 -0.1779
 5296W        W 9360   0.989  10.752   9.913  0.0928 -0.1089  0.2550
 5297W        W 9361   9.337   3.174   9.371 -0.0138  0.3717  0.1397
 5298W        W 9362   8.486   3.550   0.837 -0.1096  0.1110 -0.1527
 5299W        W 9363   7.780   5.797   1.998  0.2472  0.1889  0.2529
 5300W        W 9364  10.868   1.909   0.661 -0.2361  0.0638  0.0878
 5301W        W 9365   5.526   8.843   0.181  0.1457 -0.0933 -0.2712
 5302W        W 9366   9.507   5.553   2.018  0.0343 -0.0436 -0.0551
 5303W        W 9367   8.829   5.554   3.130  0.0503 -0.2405  0.1828
 5304W        W 9368   6.800   4.095   8.743 -0.1487  0.1634  0.0023
 5305W        W 9369   1.466   2.102   7.292  0.2717 -0.1958 -0.5129
 5306W        W 9370  10.061   5.458  10.319  0.2741  0.0315  0.1042
 5307W        W 9371   8.083   3.059   7.792 -0.1619 -0.2513 -0.0653
 5308W        W 9372   6.910   2.528   8.915 -0.0119 -0.1436 -0.1851
 5309W        W 9373   5.706   5.435   8.199  0.1151 -0.0658 -0.0630
 5310W        W 9374   1.510   3.646   3.630 -0.3740 -0.0310 -0.1172
 5311W        W 9375   1.368   7.701   9.218  0.2049  0.0597 -0.0924
 5312W        W 9376   4.423   2.949   2.088  0.0490  0.0374 -0.1082
 5313W        W 9377   1.979   1.467   1.330  0.2174 -0.0485  0.0097
 5314W        W 9378   3.539   9.105   1.112  0.0449  0.1534 -0.2234
 5315W        W 9379   1.322   8.912   1.515 -0.0811  0.0217  0.2643
 5316W        W 9380   9.605   2.957   7.911 -0.3180  0.0961  0.3143
 5317W        W 9381   8.921   2.483   2.082 -0.1288 -0.0938 -0.0571
 5318W        W 9382   0.780   1.503  10.095 -0.1126 -0.2645  0.1696
 5319W        W 9383   9.769   8.237   2.558  0.3526  0.2571  0.1359
 5320W        W 9384   0.681   9.302  10.874 -0.2213  0.1267  0.0683
 5321W        W 9385  10.918   5.507   8.119  0.1259 -0.1876  0.2813
 5322W        W 9386   1.741   2.681   0.301 -0.4209  0.3473 -0.2680
 5323W        W 9387   4.855   4.331   8.208  0.1228 -0.0535 -0.4955
 5324W        W 9388   9.502   9.243  10.557 -0.1457  0.4293  0.0555
 5325W        W 9389   0.032   8.874   3.716  0.1671  0.1099 -0.3689
 5326W        W 9390   3.675   9.251   1.919  0.2851 -0.2921 -0.1533
 5327W        W 9391  10.562   8.932   7.800  0.4772  0.0705 -0.2091
 5328W        W 9392   7.852   8.307   0.943 -0.0325  0.3290 -0.0720
 5329W        W 9393  10.818   2.934   1.045 -0.2523 -0.3672  0.0641
 5330W        W 9394   6.569   5.082   2.412  0.1138  0.4876  0.0949
 5331W        W 9395   0.804  10.103   9.044 -0.1328 -0.1533 -0.0576
 5332W        W 9396   4.555   0.748   3.404 -0.1194  0.1372 -0.0870
 5333W        W 9397  10.239   8.807   1.894 -0.3877  0.3482 -0.2593
 5334W        W 9398   0.794  10.349   1.384 -0.0979 -0.0113 -0.2125
 5335W        W 9399   6.978   8.937   2.924 -0.0250 -0.1109  0.0141
 5336W        W 9400   4.356   5.245   1.697  0.0616  0.0788 -0.1881
 5337W        W 9401   2.630   0.116   2.831 -0.1091  0.0484  0.1462
 5338W        W 9402  10.084  10.800   0.554 -0.2919 -0.3002 -0.3072
 5339W        W 9403   0.511   7.211   1.747 -0.0195 -0.1428  0.0198
 5340W        W 9404   1.760   1.347   9.040  0.0392 -0.1169  0.1584
 5341W        W 9405   2.658   5.442   1.805 -0.1964 -0.1531 -0.0947
 5342W        W 9406   1.658   4.561   9.997 -0.1184 -0.1528 -0.0356
 5343W        W 9407   9.985   8.971   9.665 -0.3058  0.1208  0.1693
 5344W        W 9408   9.880   7.766   2.694  0.0583 -0.2860 -0.1828
 5345W        W 9409  10.673   2.457   1.811  0.0711  0.1850  0.1586
 5346W        W 9410   0.869  10.877   8.861  0.0258  0.1240  0.0486
 5347W        W 9411   1.255   3.616   0.510 -0.2115 -0.2542 -0.0215
 5348W        W 9412   8.298   1.778   3.829 -0.2844  0.2804 -0.1151
 5349W        W 9413   4.182   0.554   3.655  0.2426  0.0783 -0.3523
 5350W        W 9414  10.602   2.915   0.598 -0.2433  0.1502 -0.0933
 5351W        W 9415   9.324   7.561   8.926  0.0038 -0.4565 -0.0932
 5352W        W 9416   5.636   1.077  10.816  0.1737  0.5477  0.1545
 5353W        W 9417   2.140   2.519   8.999 -0.2209 -0.0232 -0.0530
 5354W        W 9418   8.286   1.192   1.741 -0.6282 -0.2789 -0.2506
 5355W        W 9419   1.035   3.599   1.957 -0.0016 -0.1442  0.1923
 5356W        W 9420   6.681   8.015   8.262 -0.2346  0.0191  0.0502
 5357W        W 9421   3.911   1.726   8.322  0.0568 -0.0578  0.0867
 5358W        W 9422  10.275   0.226   9.758 -0.0710 -0.1106 -0.1144
 5359W        W 9423   1.601   4.229   0.427  0.0419  0.0129 -0.0915
 5360W        W 9424   4.176   7.715   8.156 -0.1821  0.1075  0.3561
 5361W        W 9425   8.911   4.538   9.698  0.0028 -0.0237 -0.2145
 5362W        W 9426   0.697   9.990   7.809  0.2652 -0.1430  0.0772
 5363W        W 9427   6.225  10.643   2.055  0.0052  0.1511 -0.1679
 5364W        W 9428   4.371  10.223   1.367 -0.1797  0.3100  0.3180
 5365W        W 9429   8.194   1.457   7.172 -0.1552  0.0397  0.0167
 5366W        W 9430   5.168   7.596   1.950  0.3007  0.1682  0.1078
 5367W        W 9431   7.153   1.596  10.659 -0.1191  0.1197 -0.0730
 5368W        W 9432   9.496   8.813   9.876 -0.1075  0.0154  0.0248
 5369W        W 9433   3.829   8.034   4.268  0.0117  0.1692 -0.1353
 5370W        W 9434   9.343  10.242  10.170 -0.0181  0.0498 -0.1357
 5371W        W 9435   0.945   0.982   3.810 -0.3201 -0.2945  0.1932
 5372W        W 9436   0.113   4.534   2.709  0.2485 -0.0529  0.0245
 5373W        W 9437   5.810   5.552   9.603  0.0132 -0.0477 -0.2487
 5374W        W 9438   5.913   8.655   8.307  0.0147 -0.0150 -0.0915
 5375W        W 9439   4.103   5.330   0.673 -0.1054 -0.2055 -0.3501
 5376W        W 9440   6.741   7.034   9.744 -0.1613  0.3988  0.1281
 5377W        W 9441   5.908   7.900   8.652  0.0926 -0.1312 -0.0031
 5378W        W 9442   6.377  10.054   0.442  0.1396  0.1788  0.2289
 5379W        W 9443   8.233   0.663  10.132 -0.2314  0.0401 -0.2504
 5380W        W 9444   3.515   3.635  10.568 -0.1318  0.0075 -0.1169
 5381W        W 9445   2.528   2.780  10.693 -0.2216 -0.0031  0.0501
 5382W        W 9446   6.722   5.237   2.873  0.1604 -0.3854  0.0895
 5383W        W 9447   2.688   4.045   1.399  0.0728 -0.0096  0.1488
 5384W        W 9448   7.099   2.316   2.504  0.1733  0.0574  0.1095
 5385W        W 9449   7.010   3.282   0.572 -0.2556  0.0427  0.4270
 5386W        W 9450   9.661  10.547   3.073  0.0485 -0.0186 -0.2125
 5387W        W 9451   5.336   4.334   7.289 -0.4980  0.1619 -0.2067
 5388W        W 9452   0.701   8.614  10.269 -0.0580 -0.3610 -0.1568
 5389W        W 9453   0.475   0.435   0.190 -0.0191 -0.2288  0.0910
 5390W        W 9454   0.399   4.611   6.844  0.0547  0.1951  0.2413
 5391W        W 9455   4.406   8.037   0.651  0.0113 -0.1460 -0.1227
 5392W        W 9456  10.065   8.604   9.388 -0.1071 -0.0291 -0.2373
 5393W        W 9457   7.336   0.164   1.617 -0.0746  0.0782 -0.0559
 5394W        W 9458   4.433   5.434   2.994  0.4428 -0.0764 -0.2614
 5395W        W 9459   8.282   4.713   7.919 -0.4014  0.1566 -0.1381
 5396W        W 9460   2.367   2.251   7.102 -0.1035  0.1402 -0.2757
 5397W        W 9461   7.672   2.114   1.729 -0.1893  0.0037  0.2453
 5398W        W 9462   5.952   4.375   2.232  0.0441 -0.1866  0.1566
 5399W        W 9463   5.202   3.055   2.032 -0.2512 -0.1036 -0.2814
 5400W        W 9464   6.040   2.880  10.249 -0.2865 -0.3134 -0.0878
 5401W        W 9465   2.044  10.180   7.585  0.2595 -0.0069  0.3240
 5402W        W 9466   0.941   7.190   1.404 -0.1019  0.1308 -0.0599
 5403W        W 9467   9.950  10.166   1.304 -0.0374  0.1104  0.1695
 5404W        W 9468   0.127   2.318   3.022 -0.0748 -0.0858  0.1552
 5405W        W 9469   7.926   3.554   9.310  0.0419  0.0513  0.0634
 5406W        W 9470  10.729   6.341   0.300  0.0773  0.0305  0.0562
 5407W        W 9471  10.064   2.731  10.939  0.0563 -0.3442 -0.1363
 5408W        W 9472   8.756   6.392   0.372 -0.3052  0.1508 -0.0489
 5409W        W 9473   0.215   9.536   0.746  0.0409 -0.0098  0.0291
 5410W        W 9474  10.286   3.094   8.026  0.1231 -0.2026 -0.2708
 5411W        W 9475   5.467   7.647   9.931 -0.0523 -0.3158  0.1223
 5412W        W 9476   3.237   1.242  10.832  0.1112  0.0331 -0.3290
 5413W        W 9477   9.742   4.137   7.232  0.4394 -0.1674 -0.0503
 5414W        W 9478   9.621   2.834   3.157 -0.2320  0.1101  0.0275
 5415W        W 9479   5.792   5.424   1.925 -0.2294 -0.1518  0.0062
 5416W        W 9480   8.413   5.064   9.797  0.3956  0.1095  0.0659
 5417W        W 9481   4.366   3.688   8.098 -0.0020 -0.1142  0.1354
 5418W        W 9482   1.820   1.661   8.123 -0.2313 -0.0661  0.3450
 5419W        W 9483   0.675   4.903   8.572  0.1109  0.2932  0.0461
 5420W        W 9484   1.247   8.281  10.892  0.1458 -0.1152 -0.0778
 5421W        W 9485  10.678   2.795  10.870  0.1116 -0.3643  0.0103
 5422W        W 9486   9.676   4.233   8.528  0.0526 -0.2236 -0.0230
 5423W        W 9487   3.149   1.913   0.773 -0.1554  0.1143 -0.1621
 5424W        W 9488   3.325   1.603   1.597 -0.2334 -0.1416  0.1866
 5425W        W 9489   0.678   9.910   2.263 -0.2934  0.0565 -0.4096
 5426W        W 9490   0.187   1.715   7.728  0.0871  0.0557 -0.1644
 5427W        W 9491   2.654   6.792  10.564 -0.0420  0.1286  0.0417
 5428W        W 9492   4.861   3.250   3.294  0.2255 -0.3070 -0.0100
 5429W        W 9493   5.378   1.466   4.149  0.2372 -0.0043  0.0936
 5430W        W 9494   3.831   3.356   0.825 -0.2751 -0.0009 -0.0670
 5431W        W 9495   5.114   5.585   0.890 -0.0038  0.1123  0.1395
 5432W        W 9496   5.792   3.167   8.477  0.0903  0.0092 -0.1807
 5433W        W 9497   9.512   1.056   2.730  0.4689 -0.4245 -0.1819
 5434W        W 9498   6.358   9.316   1.552  0.1849  0.0295  0.0328
 5435W        W 9499   7.543   3.694  10.280  0.1083  0.0601 -0.3623
 5436W        W 9500   4.523   6.480  10.617 -0.2810  0.4097 -0.1714
 5437W        W 9501   2.881   9.554   9.898 -0.3205 -0.1503 -0.2743
 5438W        W 9502   5.564   3.887   1.430 -0.0038 -0.0995  0.2890
 5439W        W 9503   2.775  10.322  10.643  0.0553 -0.0860 -0.0646
 5440W        W 9504   6.749   3.351   2.808  0.1452 -0.1286 -0.0054
 5441W        W 9505   3.940   8.122   2.110  0.3241  0.3407 -0.2193
 5442W        W 9506   3.713   2.590  10.578  0.0423 -0.0548 -0.3974
 5443W        W 9507   8.007  10.258   0.835  0.0455  0.0439 -0.1285
 5444W        W 9508   0.658   0.022  10.291  0.3176 -0.1719 -0.2995
 5445W        W 9509   2.650   4.440   0.855  0.3587  0.3310  0.1596
 5446W        W 9510   8.143   7.695   2.935 -0.0291  0.2289  0.0273
 5447W        W 9511   2.726   1.207   7.522  0.1729  0.0917  0.1386
 5448W        W 9512   3.680   2.991   3.765 -0.1764 -0.0573 -0.1277
 5449W        W 9513   0.535   5.750   1.636  0.0701 -0.0524  0.0281
 5450W        W 9514   4.216   7.784   2.792  0.0871 -0.0723  0.0986
 5451W        W 9515   3.890  10.889   2.021 -0.1579  0.2022 -0.0887
 5452W        W 9516   4.587   5.850   7.832 -0.0480 -0.0599 -0.3597
 5453W        W 9517   1.441   2.178   2.679  0.2664 -0.0926 -0.3589
 5454W        W 9518   8.391   2.584   1.346 -0.2535  0.1605  0.0734
 5455W        W 9519   3.727   0.858   3.764  0.3035  0.5133  0.0771
 5456W        W 9520  10.153   1.804   2.538  0.1923  0.2421 -0.2548
 5457W        W 9521   7.193   5.573   0.022  0.0521  0.1637  0.0055
 5458W        W 9522   7.887   9.962   2.648 -0.1217 -0.2560 -0.2420
 5459W        W 9523   9.676   4.951   1.066 -0.2631  0.2088 -0.0407
 5460W        W 9524   4.518   8.984   0.191 -0.1919 -0.1207  0.0151
 5461W        W 9525  10.422   9.740   0.127  0.2855 -0.2192 -0.0591
 5462W        W 9526  10.386   0.614   3.270  0.0624  0.1014  0.2007
 5463W        W 9527   1.164   4.490   2.418 -0.0233  0.2022  0.1563
 5464W        W 9528   9.119   4.675   2.287  0.2031 -0.1358 -0.1778
 5465W        W 9529   0.591   3.834   2.001  0.0389 -0.0127  0.4405
 5466W        W 9530   6.042   6.031   4.015 -0.1924  0.0341 -0.0708
 5467W        W 9531   6.791   9.066   8.110 -0.1819 -0.1065 -0.2216
 5468W        W 9532   8.841   0.977   0.068  0.0316  0.1894 -0.3153
 5469W        W 9533   2.761   0.123   8.638  0.3055  0.4139 -0.0066
 5470W        W 9534   6.265   5.524   2.795 -0.1207  0.1692  0.1105
 5471W        W 9535   2.549   3.462   8.449  0.1367  0.1386  0.3608
 5472W        W 9536   3.206   0.365   7.733 -0.0858 -0.1324 -0.0268
 5473W        W 9537   5.657   1.378   2.328  0.2118 -0.0049 -0.2010
 5474W        W 9538  10.298   7.929   3.033 -0.2488  0.0414  0.2563
 5475W        W 9539   4.273   8.807   8.931 -0.2546 -0.2243 -0.0079
 5476W        W 9540   6.928   4.367   0.095  0.2540  0.2622  0.1692
 5477W        W 9541   6.668   6.603   3.652  0.0962  0.1954 -0.4136
 5478W        W 9542   8.835   1.450   1.670 -0.2120  0.0293  0.0342
 5479W        W 9543   1.398  10.637   3.245 -0.0854 -0.0964 -0.0372
 5480W        W 9544   2.069   0.069   0.488  0.1502 -0.0768 -0.1411
 5481W        W 9545   0.173   2.136  10.630  0.0175  0.2215 -0.0731
 5482W        W 9546  10.124   8.309   1.437  0.1481 -0.0412  0.2418
 5483W        W 9547  10.225   9.864   2.002 -0.2332 -0.0407  0.0651
 5484W        W 9548   9.420   6.083   1.565  0.3198  0.0972  0.1174
 5485W        W 9549   6.195   5.440   0.825 -0.2602 -0.2817 -0.0924
 5486W        W 9550   0.653   6.952   2.350 -0.1350  0.0765 -0.2349
 5487W        W 9551  10.774   1.158   1.177 -0.0253 -0.1352  0.0872
 5488W        W 9552   0.911   8.528   0.817  0.0877  0.3413 -0.0357
 5489W        W 9553   7.369   0.711  10.664  0.1789  0.2256  0.1356
 5490W        W 9554   4.328   3.365   2.857 -0.1143 -0.0437 -0.0341
 5491W        W 9555   0.974   0.351   0.238 -0.0090 -0.1240 -0.3262
 5492W        W 9556   4.671   7.189   3.112  0.0158  0.0620 -0.1231
 5493W        W 9557   9.554   7.090   1.742  0.0045  0.0644  0.0644
 5494W        W 9558   5.650   0.828  10.330 -0.0211  0.1312 -0.2386
 5495W        W 9559   6.012   0.186   7.964 -0.1958 -0.0175  0.0335
 5496W        W 9560   5.134   1.082   2.806 -0.0787 -0.1039  0.0868
 5497W        W 9561   8.059   6.420   8.187  0.1333  0.0613 -0.1922
 5498W        W 9562   6.282   2.774   1.557 -0.0021  0.1103  0.3544
 5499W        W 9563   0.621   1.762   0.417  0.0002  0.0396  0.0760
 5500W        W 9564   3.646   3.720   1.156 -0.2656  0.1058  0.0482
 5501W        W 9565  10.697   9.746   8.938  0.1691 -0.0144  0.0125
 5502W        W 9566   1.660   4.934   1.191  0.0024 -0.1770  0.2407
 5503W        W 9567   4.483   3.381   7.689 -0.1334  0.1819 -0.1128
 5504W        W 9568   6.042   0.057   2.381  0.2780  0.4189 -0.0581
 5505W        W 9569   7.706   5.724   0.760 -0.0740 -0.3321  0.1821
 5506W        W 9570   0.870   5.060   9.904  0.0485  0.2645 -0.1778
 5507W        W 9571   1.277   0.195   8.626  0.1561 -0.0567 -0.3311
 5508W        W 9572   7.574   2.436   1.006 -0.1487 -0.1401 -0.0791
 5509W        W 9573   9.813   9.563   7.826  0.2415 -0.2398  0.0001
 5510W        W 9574   5.609   1.708   2.786 -0.2389  0.2178  0.1090
 5511W        W 9575   0.415   1.661   8.871  0.2022  0.2287 -0.0300
 5512W        W 9576   3.767   7.990   2.563  0.3840 -0.1656  0.0776
 5513W        W 9577   0.400   6.322   7.917  0.0533 -0.0061 -0.0382
 5514W        W 9578   9.839   0.590   0.044  0.3312  0.1390 -0.1297
 5515W        W 9579   5.131   1.286   0.638 -0.0411  0.0380  0.0020
 5516W        W 9580   5.302   4.748   1.694  0.0827 -0.1318 -0.1492
 5517W        W 9581   9.754   4.325  10.191  0.1073  0.1105  0.3705
 5518W        W 9582   3.905   9.551   1.550  0.1340  0.1018 -0.0273
 5519W        W 9583   0.352   8.510   8.016  0.0543  0.0690  0.4562
 5520W        W 9584   1.825   4.398   3.583 -0.1580  0.1626 -0.2270
 5521W        W 9585   3.238   3.859   7.373 -0.1811 -0.0405 -0.1119
 5522W        W 9586   1.689   5.158   9.322 -0.0918  0.0560  0.0060
 5523W        W 9587   8.430   7.806  10.096 -0.2081  0.2228 -0.3206
 5524W        W 9588  10.122   6.133   2.159 -0.2933  0.1939  0.1356
 5525W        W 9589   5.260   9.772   3.540  0.2391 -0.1249 -0.0826
 5526W        W 9590   9.843   7.575   8.133  0.0924  0.2930  0.1105
 5527W        W 9591   8.763   8.090   8.395 -0.0593  0.2225  0.2309
 5528W        W 9592   0.487   6.483  10.194 -0.1175 -0.0021 -0.1349
 5529W        W 9593   6.533   3.503   8.767  0.0246 -0.0442 -0.0368
 5530W        W 9594   9.181   5.192   7.789 -0.3061 -0.0570  0.1481
 5531W        W 9595   5.961   8.729   9.151  0.0817 -0.3831  0.2310
 5532W        W 9596   1.571   9.153   8.465 -0.1430 -0.0768  0.2229
 5533W        W 9597   5.201  10.114   1.378  0.0814  0.0359 -0.1111
 5534W        W 9598  10.588   8.443   1.480 -0.0161 -0.2410  0.0563
 5535W        W 9599   1.895   6.396   9.907 -0.0868  0.1242 -0.1817
 5536W        W 9600   3.563   8.257   8.581 -0.0150 -0.0182  0.2129
 5537W        W 9601  10.713   2.379  10.497 -0.1777  0.1884  0.2797
 5538W        W 9602  10.439   8.819   9.742 -0.2699  0.0782 -0.0470
 5539W        W 9603   8.886   3.016   2.817 -0.0230 -0.3341  0.1401
 5540W        W 9604   6.022   1.949   1.447  0.1868  0.1477  0.0610
 5541W        W 9605   0.633   2.435   9.229  0.2087 -0.1784  0.1642
 5542W        W 9606   8.137   7.027   1.944  0.2292  0.5129 -0.0927
 5543W        W 9607   7.406   9.794  10.100 -0.0623  0.0995  0.0964
 5544W        W 9608   5.479  10.634   7.406 -0.1974  0.1824 -0.2558
 5545W        W 9609   7.768   9.753   7.938 -0.2002  0.2675 -0.0055
 5546W        W 9610   7.660  10.219   9.383  0.0878  0.0500  0.0165
 5547W        W 9611   2.588   2.396   0.099  0.0157 -0.0727  0.0123
 5548W        W 9612   2.687  10.461   0.115  0.1131 -0.1875 -0.1248
 5549W        W 9613   8.483   3.713   2.325 -0.1274  0.0165 -0.0074
 5550W        W 9614   1.264   7.044  10.793  0.1343 -0.0917  0.1585
 5551W        W 9615   9.143   8.281   8.190 -0.1342  0.0621 -0.0903
 5552W        W 9616   8.904   3.614   8.695  0.1647  0.1045 -0.0420
 5553W        W 9617   8.582   0.195   3.835 -0.3388  0.1342  0.2162
 5554W        W 9618   6.657   6.374   9.057 -0.0660  0.2346  0.2223
 5555W        W 9619   7.198   8.859   1.456  0.2478  0.0645 -0.0889
 5556W        W 9620   0.557   2.085   1.325 -0.0294  0.1155  0.2400
 5557W        W 9621   4.832   5.670   2.700  0.0871  0.2908 -0.0065
 5558W        W 9622   3.481   2.164   1.563 -0.2751 -0.3941 -0.0253
 5559W        W 9623   7.536   3.871   9.381 -0.0242 -0.0824 -0.0110
 5560W        W 9624   7.219   2.350   7.289 -0.3173 -0.1061  0.2010
 5561W        W 9625   4.958  10.896  10.792 -0.1866 -0.2537  0.1862
 5562W        W 9626   6.183   9.744   3.234 -0.3076 -0.1291 -0.1617
 5563W        W 9627  10.587   6.414   3.065  0.0846  0.1313 -0.0923
 5564W        W 9628   2.114   8.048  10.304  0.1589  0.3201 -0.2105
 5565W        W 9629   0.756   1.712   3.432 -0.1668  0.1064 -0.1609
 5566W        W 9630   3.067   9.463  10.517  0.2574 -0.0492  0.0511
 5567W        W 9631   5.188   0.226   1.540  0.1620  0.0004  0.1457
 5568W        W 9632   5.431   7.704   8.454  0.1272 -0.2196 -0.4585
 5569W        W 9633   4.243   3.192   8.115  0.0220  0.2375 -0.1812
 5570W        W 9634   0.978   3.737   0.073 -0.2633 -0.0951 -0.0989
 5571W        W 9635   5.179   1.988   7.853  0.1240  0.0643  0.0259
 5572W        W 9636   4.055   0.838   1.662 -0.0206  0.0297 -0.0961
 5573W        W 9637   4.569   1.347   2.080 -0.1631 -0.0413  0.1778
 5574W        W 9638   9.144   3.829   1.529 -0.0727  0.0151  0.4428
 5575W        W 9639   4.796   4.408  10.375  0.0583 -0.0216 -0.0767
 5576W        W 9640   0.787   9.109   7.756  0.0935 -0.1446  0.1608
 5577W        W 9641   4.606   7.745   9.135 -0.0047 -0.1885 -0.2270
 5578W        W 9642   0.301   7.044  10.263  0.0631 -0.0612 -0.2067
 5579W        W 9643  10.809   8.937   3.179  0.0363 -0.1157 -0.0687
 5580W        W 9644   7.121   4.890   7.044 -0.1162  0.0863  0.0433
 5581W        W 9645   5.119   9.379   2.157  0.0711  0.2083  0.0050
 5582W        W 9646   0.695   2.118   8.852  0.1392  0.1184 -0.1222
 5583W        W 9647   7.654   8.625   1.717 -0.0241 -0.1642  0.3448
 5584W        W 9648   9.696   8.120   8.612  0.2578  0.0252  0.0244
 5585W        W 9649   8.075  10.594   1.247  0.0575  0.1701  0.1968
 5586W        W 9650   8.244   7.841   4.196 -0.3215 -0.0621  0.0632
 5587W        W 9651   1.258  10.410  10.263  0.1242  0.2391 -0.3161
 5588W        W 9652   6.231   4.442   0.428 -0.1283  0.0195 -0.0732
 5589W        W 9653   3.881   2.785   8.798 -0.2253  0.0850 -0.5503
 5590W        W 9654   5.503   5.026   9.663 -0.0700 -0.0737  0.1327
 5591W        W 9655   3.969   8.480  10.453 -0.2508 -0.0850 -0.2292
 5592W        W 9656   3.337   3.324   0.968  0.1821 -0.2958 -0.1218
 5593W        W 9657   7.051   1.092  10.677 -0.1351 -0.6725 -0.1848
 5594W        W 9658   9.145   1.710   4.134 -0.0552 -0.0323 -0.2442
 5595W        W 9659   1.295   5.630   9.291 -0.0587  0.1452  0.3259
 5596W        W 9660  10.721   5.818   2.411  0.0692  0.3238 -0.3396
 5597W        W 9661   1.664   4.348  10.856 -0.1528  0.0883 -0.0937
 5598W        W 9662   5.686   5.761   1.510 -0.0102  0.1261 -0.0787
 5599W        W 9663  10.216   4.673   1.135 -0.0455 -0.3055  0.3953
 5600W        W 9664   7.408   9.839   2.462 -0.0158  0.0810  0.2504
 5601W        W 9665   7.042   6.722   2.740  0.0713  0.1141 -0.0450
 5602W        W 9666   3.970   8.890   8.082  0.0141  0.0710 -0.3682
 5603W        W 9667   7.277   0.828   0.902 -0.0503 -0.2043 -0.2384
 5604W        W 9668   7.327   0.286   9.834  0.1362 -0.0103  0.2742
 5605W        W 9669   2.075   7.031   2.927 -0.0989 -0.0242  0.2275
 5606W        W 9670   0.549  10.646   3.021  0.1843 -0.0482  0.0576
 5607W        W 9671   1.646   6.538  10.868 -0.3585 -0.0753  0.0492
 5608W        W 9672   9.743   3.767   2.456  0.2026  0.2297 -0.0359
 5609W        W 9673   9.189   3.982   8.916  0.0476 -0.1894  0.2765
 5610W        W 9674   4.657   5.694   1.165  0.1175  0.1130  0.2219
 5611W        W 9675   6.603   4.583   2.287 -0.1086  0.0634 -0.0843
 5612W        W 9676   9.764   3.108   0.135  0.0939  0.1277  0.1209
 5613W        W 9677   7.259   4.806   0.035 -0.0334 -0.2817  0.0850
 5614W        W 9678   2.106   3.570   8.696 -0.0732  0.3405  0.2650
 5615W        W 9679   4.996   9.107   8.943  0.2491 -0.1605 -0.3533
 5616W        W 9680   3.295   0.833   8.555  0.3107 -0.0944 -0.2187
 5617W        W 9681   9.674  10.042   3.224 -0.0516  0.0944  0.3580
 5618W        W 9682   5.926   9.654   0.919 -0.1859 -0.1708 -0.2086
 5619W        W 9683   2.193   3.770   0.557 -0.0227 -0.0650  0.0493
 5620W        W 9684   2.026   1.892   1.682  0.0030 -0.0021  0.4697
 5621W        W 9685   4.445  10.608   7.749 -0.0668  0.2069  0.0717
 5622W        W 9686   7.192  10.303   9.228 -0.3075 -0.2355  0.1219
 5623W        W 9687   1.032   8.459   9.368 -0.0436 -0.2266 -0.0837
 5624W        W 9688  10.025   0.868   7.589  0.1521  0.0627  0.0692
 5625W        W 9689   8.494   3.290  10.116 -0.0415 -0.1446 -0.1177
 5626W        W 9690   5.464   6.407   9.719 -0.1735 -0.0418  0.0422
 5627W        W 9691   8.843   7.676   1.605  0.0117 -0.1797  0.0446
 5628W        W 9692  10.360   6.789  10.772 -0.3257  0.0394 -0.1022
 5629W        W 9693   4.595   5.406   8.704  0.1110 -0.1710 -0.1375
 5630W        W 9694   2.637   1.046   9.799 -0.1513 -0.0260  0.3470
 5631W        W 9695  10.349   4.393   2.126  0.2614  0.1388 -0.1281
 5632W        W 9696   9.408  10.156   9.159 -0.0048 -0.1977 -0.0556
 5633W        W 9697   4.027   8.202   0.324  0.2688 -0.0785 -0.0024
 5634W        W 9698  10.926  10.711   1.996  0.0175  0.1826 -0.1059
 5635W        W 9699   0.980   5.907   1.413 -0.2560  0.4148 -0.2083
 5636W        W 9700   6.081   1.335   9.102 -0.2999 -0.2261 -0.0009
 5637W        W 9701  10.671   2.773  10.071  0.1423 -0.0450  0.2186
 5638W        W 9702  10.364   5.041  10.285 -0.2412  0.0462  0.0069
 5639W        W 9703   7.477   2.049   8.754 -0.0034 -0.4220 -0.0091
 5640W        W 9704   8.861   0.077   2.219 -0.0304  0.0529 -0.1763
 5641W        W 9705   8.618  10.583   2.403 -0.1559  0.1550 -0.0802
 5642W        W 9706   8.963   1.054   2.342 -0.2302 -0.1652  0.0637
 5643W        W 9707   0.517   9.949   0.730 -0.1213 -0.0198 -0.0404
 5644W        W 9708   4.831   0.125   7.569 -0.1570 -0.2660 -0.0686
 5645W        W 9709   1.105   4.093   0.388  0.0438  0.1106  0.0023
 5646W        W 9710  10.224   0.097   9.116 -0.0829  0.2769 -0.1205
 5647W        W 9711   9.577   6.029   2.153 -0.1357  0.2196  0.3640
 5648W        W 9712   1.003   6.472   3.155  0.1479  0.1345  0.2092
 5649W        W 9713   9.171   0.585   7.031  0.1650  0.2291  0.4579
 5650W        W 9714   3.434   0.209   2.968  0.0305  0.3492  0.0372
 5651W        W 9715   6.199   5.292   3.335  0.0756 -0.2792 -0.0230
 5652W        W 9716   0.626   4.224   0.882  0.1691  0.3442 -0.3145
 5653W        W 9717   4.442   1.106  10.041 -0.2176 -0.0946 -0.0247
 5654W        W 9718   6.460   7.046  10.399 -0.0071  0.2763 -0.1018
 5655W        W 9719   4.105   0.653   8.095 -0.0184  0.1445 -0.0001
 5656W        W 9720   3.749   0.396   1.475  0.1382  0.0375  0.0158
 5657W        W 9721   5.507   6.282   8.126  0.2980 -0.0648  0.2114
 5658W        W 9722   9.212   3.772  10.153  0.2022  0.3204  0.0775
 5659W        W 9723   5.783   2.076   3.119  0.0461 -0.2441 -0.1725
 5660W        W 9724   8.179   5.296  10.950  0.1196  0.3615  0.1815
 5661W        W 9725  10.619   3.673   8.310 -0.0006  0.1434  0.2041
 5662W        W 9726   6.718   9.544   9.251 -0.0877  0.1437 -0.0779
 5663W        W 9727   1.167   1.767   7.595 -0.0678 -0.2277 -0.2361
 5664W        W 9728   7.278   9.670   7.974  0.3835  0.1974 -0.0437
 5665W        W 9729   6.161   1.627   2.904  0.1431  0.2226  0.1222
 5666W        W 9730   4.392  10.425   9.486  0.2266 -0.2004 -0.1183
 5667W        W 9731   1.766   5.010   1.741  0.0103  0.0397 -0.0490
 5668W        W 9732   2.244   7.088   0.519 -0.2959 -0.0620  0.0712
 5669W        W 9733   1.974   9.873   4.056  0.1426  0.1491  0.0626
 5670W        W 9734   6.936   7.936  10.055 -0.1313 -0.0408 -0.0841
 5671W        W 9735   1.405   1.620   8.478 -0.0633  0.0585 -0.0817
 5672W        W 9736   9.247   9.922   0.439 -0.2430 -0.0535 -0.4033
 5673W        W 9737   1.327   4.310   1.935  0.3796 -0.0118  0.0516
 5674W        W 9738   8.904   4.018  10.548  0.3076  0.1076 -0.0007
 5675W        W 9739   9.790  10.679   0.143 -0.1678  0.0175  0.0939
 5676W        W 9740   8.070   8.138   2.672  0.0309  0.0855 -0.1003
 5677W        W 9741   0.734   1.214   3.454  0.1266  0.0197 -0.0114
 5678W        W 9742   7.304   2.262   3.586  0.2492 -0.0907  0.0038
 5679W        W 9743   4.807  10.338   1.623 -0.0312  0.1655 -0.1496
 5680W        W 9744   9.886   2.051   1.094 -0.2725  0.1233 -0.0512
 5681W        W 9745   7.392   4.408   3.459 -0.1558  0.1341 -0.0538
 5682W        W 9746   7.588   2.592   1.475 -0.0612 -0.0417  0.0084
 5683W        W 9747   4.653   2.976  10.761 -0.3900  0.1139  0.1604
 5684W        W 9748   7.982   6.155   2.280  0.0841 -0.3972 -0.4446
 5685W        W 9749   3.781   2.115   0.507 -0.0771 -0.3234 -0.3409
 5686W        W 9750   0.945  10.021   8.240 -0.1923  0.1680 -0.1177
 5687W        W 9751   7.177   1.989   0.108  0.1117  0.0050 -0.1524
 5688W        W 9752   6.076   5.586  10.008 -0.0426  0.0109  0.0706
 5689W        W 9753   9.725   1.236   0.505  0.0101  0.0331  0.0906
 5690W        W 9754   6.951   4.803   1.012  0.1330  0.0298 -0.3662
 5691W        W 9755   7.346   8.544   8.922  0.0550  0.0043 -0.1815
 5692W        W 9756  10.654   0.168  10.053 -0.0355  0.0998 -0.0410
 5693W        W 9757   0.698   4.121  10.390  0.0770 -0.1636 -0.0132
 5694W        W 9758   8.993   2.184   0.234  0.0939 -0.1531 -0.3016
 5695W        W 9759   3.496   8.372   0.357  0.0390  0.2727 -0.2541
 5696W        W 9760   3.198   0.106   2.560  0.1237  0.0701 -0.2089
 5697W        W 9761   1.262   2.527   1.587 -0.1354  0.1630  0.0688
 5698W        W 9762   6.549   3.908   9.564  0.1628 -0.1456  0.0777
 5699W        W 9763   9.692  10.025   9.606  0.0381 -0.0563 -0.2590
 5700W        W 9764   3.784   7.367   9.672  0.0995  0.1308 -0.4096
 5701W        W 9765   2.397   9.019   8.624 -0.0196 -0.0889  0.0894
 5702W        W 9766   5.735   3.967   2.510  0.3417 -0.4125  0.1934
 5703W        W 9767   1.907  10.413   2.379 -0.0305 -0.2289  0.2478
 5704W        W 9768   7.072   6.711   8.856  0.0859 -0.1433  0.1679
 5705W        W 9769   3.506   7.638   8.188 -0.0025 -0.3876 -0.0660
 5706W        W 9770  10.793   4.379   7.723 -0.1405  0.3743  0.1027
 5707W        W 9771   5.083  10.822  10.204  0.0713  0.1262 -0.1275
 5708W        W 9772   1.813   9.304   2.860  0.1519 -0.0996 -0.1912
 5709W        W 9773   2.817   8.964  10.514  0.3178  0.1483 -0.1462
 5710W        W 9774   5.676   7.968   7.691 -0.1366 -0.1271 -0.0069
 5711W        W 9775   9.226   7.139  10.195 -0.0509  0.3330 -0.0378
 5712W        W 9776  10.930   8.826  10.619  0.0196 -0.1560  0.0417
 5713W        W 9777   0.902   2.562   8.751 -0.0316 -0.0636  0.5043
 5714W        W 9778   3.360   2.501   2.400  0.1782  0.0043 -0.2963
 5715W        W 9779   7.200   7.988   8.801  0.1829 -0.0251  0.0418
 5716W        W 9780   0.696   7.701   0.448 -0.1774  0.1077  0.0088
 5717W        W 9781   9.277   2.423   6.571 -0.2067  0.0256 -0.2972
 5718W        W 9782   2.167   0.158   2.988 -0.0023 -0.2352  0.2001
 5719W        W 9783   0.164   1.419   9.321  0.0006  0.0792  0.5789
 5720W        W 9784   4.705   0.249   2.580 -0.1719 -0.1378  0.3327
 5721W        W 9785   5.314   2.845   7.659  0.0240  0.1451 -0.0611
 5722W        W 9786  10.266   2.140  10.356 -0.2419 -0.1912  0.0514
 5723W        W 9787  10.689   0.976  10.544 -0.0379 -0.0920  0.1320
 5724W        W 9788   9.586   0.699   0.552  0.1886 -0.0758 -0.1516
 5725W        W 9789   8.397  10.869   2.036 -0.2266 -0.1511  0.1807
 5726W        W 9790   9.200   2.732   9.580  0.2126 -0.2440 -0.1075
 5727W        W 9791   4.790   6.467   7.608  0.0593 -0.0702 -0.3419
 5728W        W 9792   7.837   8.517   2.284 -0.2974  0.1388 -0.1518
 5729W        W 9793   4.007  10.570   1.604  0.3673 -0.0294 -0.1661
 5730W        W 9794   9.100   5.233   9.093  0.1099 -0.2185  0.1431
 5731W        W 9795   7.778   5.511   0.055  0.1658 -0.2843  0.1384
 5732W        W 9796   3.182  10.890   1.292 -0.1886  0.2368 -0.1095
 5733W        W 9797   0.113  10.765   3.319 -0.1516 -0.0896 -0.4090
 5734W        W 9798   3.975   7.381   8.397  0.3245 -0.1615 -0.4977
 5735W        W 9799   3.496   7.924   8.902 -0.2365 -0.2592  0.0479
 5736W        W 9800   5.414   5.941   0.612  0.0287  0.1689 -0.3315
 5737W        W 9801   6.112   0.238   2.828 -0.0549  0.1223 -0.2020
 5738W        W 9802  10.309   1.844   0.709 -0.1537  0.0940 -0.1699
 5739W        W 9803  10.587   6.635   8.129  0.2320  0.1985 -0.0818
 5740W        W 9804   6.347   0.834   1.892  0.5081  0.0590 -0.2069
 5741W        W 9805   4.332   4.903   7.786 -0.1071  0.1036 -0.0856
 5742W        W 9806   2.038   2.052  10.771  0.0586  0.1671  0.1901
 5743W        W 9807   8.625   6.011   8.738  0.1786 -0.3631  0.2892
 5744W        W 9808   3.649   1.895   3.764 -0.0373  0.0303  0.0935
 5745W        W 9809   2.473   8.397  10.491  0.4586  0.0818 -0.0617
 5746W        W 9810   0.626   9.872   8.617  0.0668  0.3158  0.0663
 5747W        W 9811   5.960   0.397  10.121  0.2922  0.0612  0.3285
 5748W        W 9812   8.158   5.052   9.330 -0.1606  0.2864 -0.0000
 5749W        W 9813   7.323   8.615   9.461  0.1168  0.1040  0.0714
 5750W        W 9814   5.011  10.700   1.347  0.1867  0.0832 -0.1570
 5751W        W 9815   9.216   1.516   2.670  0.2218 -0.0924 -0.1023
 5752W        W 9816  10.864   8.473   8.430 -0.2712 -0.2675  0.1288
 5753W        W 9817   8.089  10.675   9.334 -0.2769  0.0341  0.1015
 5754W        W 9818   6.471   0.886  10.929  0.3410 -0.1308  0.4487
 5755W        W 9819   1.818   7.023   1.105  0.1720  0.0109  0.1186
 5756W        W 9820   3.342  10.495   2.247  0.1889  0.1108 -0.0626
 5757W        W 9821   4.974   2.697   8.578  0.2410 -0.0712  0.0675
 5758W        W 9822   9.444   2.191   3.986 -0.0357  0.0203  0.1129
 5759W        W 9823   8.543   5.626   1.656 -0.1068 -0.0680 -0.2352
 5760W        W 9824   4.419   2.988  10.271 -0.0048 -0.2403  0.2251
 5761W        W 9825  10.529   5.816   0.131  0.2932  0.1771  0.0199
 5762W        W 9826   8.839   1.978   0.631 -0.1971  0.0363 -0.1014
 5763W        W 9827   1.805   5.674   8.523  0.0200  0.0249 -0.3667
 5764W        W 9828   6.095   9.561   0.012 -0.1559 -0.1005  0.0582
 5765W        W 9829  10.183   5.164   2.311 -0.3450  0.3038  0.1003
 5766W        W 9830  10.055   0.186   8.121 -0.3170 -0.1625  0.0835
 5767W        W 9831   3.993   5.874   9.863  0.0466  0.2350  0.3131
 5768W        W 9832   6.478   8.583   8.988  0.2661  0.0673  0.0873
 5769W        W 9833   8.480   2.969   8.188  0.3491  0.1666  0.1778
 5770W        W 9834  10.637   8.836   0.261 -0.1530  0.2018 -0.0607
 5771W        W 9835   3.733   1.112   3.376 -0.2997  0.4232 -0.1845
 5772W        W 9836   8.968   9.750   1.788 -0.4151 -0.2816 -0.1868
 5773W        W 9837   6.029   5.775   3.180  0.1916  0.0167 -0.1143
 5774W        W 9838   7.715   5.620   8.970 -0.0471  0.2305 -0.3318
 5775W        W 9839   5.794  10.637   1.810  0.0645 -0.0391 -0.2178
 5776W        W 9840   3.469   5.420   2.529 -0.1335 -0.0197  0.1987
 5777W        W 9841   6.298   5.792   0.498  0.0292 -0.0129  0.2470
 5778W        W 9842   3.418   1.871   2.494  0.1292  0.0986  0.0541
 5779W        W 9843   6.341  10.022   3.709 -0.0530 -0.2279  0.3485
 5780W        W 9844   6.059   9.033   8.590 -0.0386  0.1723  0.1062
 5781W        W 9845   2.911   5.775  10.977  0.0362  0.0298 -0.1478
 5782W        W 9846   1.598   0.613   9.563  0.1458  0.2015 -0.0220
 5783W        W 9847  10.710   4.247   9.635 -0.2061 -0.3268  0.0676
 5784W        W 9848   7.466   6.217   0.654  0.0005  0.0088 -0.4928
 5785W        W 9849   9.055   7.251   8.581 -0.2308 -0.2449 -0.1999
 5786W        W 9850   8.863   9.723   7.741 -0.0188  0.1447  0.1388
 5787W        W 9851   0.130   3.247   9.334 -0.0719 -0.0586 -0.0770
 5788W        W 9852   4.473  10.795   8.718  0.1495  0.0088  0.4055
 5789W        W 9853   8.569   6.530   3.244 -0.1912  0.1874 -0.0508
 5790W        W 9854   5.366   6.354   1.355  0.0191  0.0933  0.1439
 5791W        W 9855   6.307  10.873   0.169 -0.1121 -0.5444  0.1356
 5792W        W 9856   5.596   9.094   8.255 -0.2369 -0.0058 -0.0684
 5793W        W 9857   3.112   5.728   3.229 -0.0719  0.0186 -0.2792
 5794W        W 9858   7.264   5.740   8.622  0.0880 -0.1012  0.2253
 5795W        W 9859   9.911   9.419   3.693 -0.1005 -0.0830 -0.1357
 5796W        W 9860   8.741   1.493   7.040  0.1940  0.0210 -0.0576
 5797W        W 9861   3.111   0.818   1.174 -0.3678  0.0059  0.3484
 5798W        W 9862   9.199  10.370   3.060 -0.2341 -0.4418  0.1357
 5799W        W 9863   0.944   8.098   1.871  0.0244 -0.1774  0.0447
 5800W        W 9864   4.706   6.990   0.831  0.1853  0.1779 -0.0332
 5801W        W 9865   4.925   1.465   8.054  0.2374  0.0574 -0.0507
 5802W        W 9866   4.949   9.039   2.794 -0.0190 -0.2164  0.1344
 5803W        W 9867   6.957   2.411   0.437 -0.0106 -0.0068 -0.0186
 5804W        W 9868   0.499  10.188  10.667 -0.0572 -0.0992  0.0523
 5805W        W 9869   0.128   8.324   1.431  0.0719 -0.0487 -0.0636
 5806W        W 9870   3.060   2.155  10.870 -0.0575 -0.3765  0.1297
 5807W        W 9871   0.328   6.156  10.599  0.0266  0.0188  0.1051
 5808W        W 9872   7.369   5.065   7.954  0.0617  0.0410 -0.0563
 5809W        W 9873   8.294   0.031   2.512 -0.0903  0.0935 -0.0133
 5810W        W 9874   0.737   4.360   2.060 -0.2561 -0.4053  0.2445
 5811W        W 9875   3.672   5.374  10.312 -0.0428  0.0546 -0.3109
 5812W        W 9876   3.239   1.974   7.747 -0.1239 -0.1468  0.4252
 5813W        W 9877   9.036   3.543   3.625  0.1506  0.2512 -0.2736
 5814W        W 9878   5.263   5.679  10.453  0.0052  0.1057 -0.1103
 5815W        W 9879   4.614   9.840   2.616  0.1155  0.0470 -0.0778
 5816W        W 9880   5.373  10.216   3.365 -0.2895  0.3959  0.0518
 5817W        W 9881   1.503   9.230   0.657  0.1945 -0.1034  0.0372
 5818W        W 9882   2.123   7.787   9.530  0.0389 -0.1061  0.1948
 5819W        W 9883   8.280   0.923  10.739 -0.3079 -0.0992  0.0757
 5820W        W 9884   1.195  10.123   8.701 -0.1523 -0.0142  0.1096
 5821W        W 9885   8.298   2.773   0.476  0.0690  0.3269  0.1065
 5822W        W 9886   1.592   8.894   9.877 -0.0155  0.1547  0.2744
 5823W        W 9887   2.657   1.353   2.149  0.2951 -0.3264 -0.3926
 5824W        W 9888   5.594   1.905   9.754 -0.3284 -0.3230  0.1486
 5825W        W 9889   1.485   1.961   0.814  0.2939 -0.2661 -0.1954
 5826W        W 9890   8.042   2.717   1.646 -0.2320  0.5094 -0.1643
 5827W        W 9891  10.334   0.626  10.180  0.3411 -0.1457  0.1069
 5828W        W 9892   2.766   6.897   0.057  0.0006 -0.0179  0.2682
 5829W        W 9893   6.184   1.939   9.031 -0.1238  0.2023 -0.0342
 5830W        W 9894  10.169   1.868   8.568 -0.1289  0.1347 -0.0873
 5831W        W 9895   9.349   6.896   3.253 -0.1382 -0.3516 -0.1035
 5832W        W 9896  10.467   0.587   1.070 -0.0328  0.4001  0.1603
 5833W        W 9897   4.381   1.797   1.847  0.1332 -0.3432 -0.2682
 5834W        W 9898   9.505   7.095   1.197 -0.1117 -0.1227 -0.1655
 5835W        W 9899   4.405   7.107   8.440 -0.4144 -0.2378  0.1380
 5836W        W 9900   6.175   8.232   9.991 -0.0514 -0.0394  0.5242
 5837W        W 9901   9.843   2.343   0.698 -0.0723  0.0658 -0.0962
 5838W        W 9902   7.891   1.218   9.527  0.1673 -0.1716  0.0133
 5839W        W 9903   5.734   2.654   3.561  0.0423  0.3139 -0.0426
 5840W        W 9904   7.295   5.557   9.635 -0.0524 -0.3038 -0.0017
 5841W        W 9905   1.349  10.003   0.884  0.0147  0.0545 -0.3914
 5842W        W 9906   9.566  10.236   2.234  0.0534 -0.2287  0.0113
 5843W        W 9907  10.210   2.931   6.666 -0.3679  0.0496 -0.1801
 5844W        W 9908   9.890   2.082   8.943  0.1878  0.1437 -0.3610
 5845W        W 9909   5.426   2.143  10.546 -0.0463 -0.0470 -0.1657
 5846W        W 9910   1.731   6.909   1.674  0.2899 -0.3377  0.2361
 5847W        W 9911   0.841   7.491   9.058  0.2004 -0.0060  0.1241
 5848W        W 9912   7.039   9.475   9.700 -0.4497  0.1072 -0.2594
 5849W        W 9913   7.873   5.382   7.934 -0.0591  0.0381  0.2136
 5850W        W 9914   8.276   7.375   3.368 -0.3452  0.0473 -0.1607
 5851W        W 9915   1.391   0.046   1.723 -0.1702  0.3058  0.2374
 5852W        W 9916   9.717   3.299   2.203 -0.1944  0.1713 -0.1080
 5853W        W 9917   9.176   6.331   0.084 -0.0810  0.0565 -0.0978
 5854W        W 9918   7.015   3.290   9.177  0.2144  0.2511 -0.0616
 5855W        W 9919   5.024   9.684   7.319 -0.3138  0.0858  0.0815
 5856W        W 9920   3.590   4.313   1.431 -0.0231 -0.1268  0.1922
 5857W        W 9921   8.316   5.261   7.644  0.3055 -0.4946  0.1898
 5858W        W 9922   1.648   0.070  10.444  0.3138 -0.0407 -0.1312
 5859W        W 9923  10.722   5.868  10.636 -0.1357  0.0273 -0.1485
 5860W        W 9924   7.886   5.959  10.403 -0.0803 -0.2227 -0.2819
 5861W        W 9925   3.715  10.923   1.172  0.2970 -0.1517 -0.2436
 5862W        W 9926   0.995   1.705  10.600  0.1062  0.1924 -0.0463
 5863W        W 9927   3.856   9.703   2.142 -0.0854 -0.2054  0.2445
 5864W        W 9928   4.473   3.459  10.538  0.0318 -0.1595 -0.0933
 5865W        W 9929   8.188   6.013   8.443 -0.0054  0.2388 -0.2638
 5866W        W 9930  10.184   1.097  10.525  0.0180 -0.1604  0.2883
 5867W        W 9931   2.524   1.248   2.638 -0.0243  0.1365  0.1122
 5868W        W 9932   1.294   7.711   1.775 -0.0202  0.0958 -0.1476
 5869W        W 9933   6.950   8.604   4.009  0.0366  0.0331  0.1261
 5870W        W 9934   9.467   3.769   3.229  0.2163  0.0857  0.3287
 5871W        W 9935   3.443   1.874  10.724 -0.0374 -0.0791  0.3492
 5872W        W 9936   4.958   9.737   9.457 -0.2885  0.2378 -0.0851
 5873W        W 9937   7.295   5.949  10.703 -0.1949  0.1814  0.0648
 5874W        W 9938   8.587   6.589   1.320 -0.1569  0.0907  0.1631
 5875W        W 9939   7.350   1.293   9.306 -0.1224  0.0433 -0.0545
 5876W        W 9940   9.803   6.324   2.577  0.1258  0.0108  0.0884
 5877W        W 9941  10.282   9.192   8.926  0.2166 -0.2516  0.1268
 5878W        W 9942   8.700   3.563   7.335  0.2110  0.0465  0.3417
 5879W        W 9943   4.022   6.291  10.677  0.3216  0.1657  0.1689
 5880W        W 9944   1.706   3.914  10.482 -0.3607 -0.0043 -0.1426
 5881W        W 9945   4.981   5.142   9.659 -0.0710 -0.0438  0.2004
 5882W        W 9946   0.718  10.287   9.759 -0.0879 -0.3727 -0.0971
 5883W        W 9947   1.333   1.609   9.489  0.1362 -0.0070 -0.1771
 5884W        W 9948   7.708   7.051   9.439  0.0504  0.1738 -0.2859
 5885W        W 9949   4.329   7.726   8.645  0.0199 -0.0019 -0.0108
 5886W        W 9950   6.801   3.788   0.886  0.2030 -0.0663  0.2239
 5887W        W 9951   1.887  10.063  10.928  0.0680  0.2862 -0.0112
 5888W        W 9952   6.947   5.686  10.513  0.1176  0.0347 -0.3879
 5889W        W 9953   1.543   3.259   2.869  0.1247  0.0729  0.1618
 5890W        W 9954  10.457   8.096  10.791 -0.2909  0.0328 -0.0039
 5891W        W 9955   6.036   4.760   7.569 -0.1248 -0.0101  0.2923
 5892W        W 9956   0.393  10.046   9.391 -0.1374 -0.0401 -0.1415
 5893W        W 9957   1.511   0.944   0.846 -0.0126 -0.2199 -0.2654
 5894W        W 9958   5.775   4.690   0.305 -0.1996 -0.2015 -0.1393
 5895W        W 9959   3.911   7.986  10.758 -0.0534  0.1361 -0.3551
 5896W        W 9960   8.135   4.340   2.438 -0.1955 -0.1565 -0.0523
 5897W        W 9961   5.160   7.268   9.571  0.1821 -0.1811 -0.0503
 5898W        W 9962   4.167   6.666  10.266 -0.0846 -0.1463 -0.0817
 5899W        W 9963   9.696   4.053   1.284 -0.0582  0.1174 -0.0913
 5900W        W 9964   1.078   4.916   2.165 -0.0812  0.4581  0.1451
 5901W        W 9965   4.628   9.553   7.706  0.1563 -0.1394  0.2649
 5902W        W 9966   7.810   4.959   0.300 -0.2376 -0.0877  0.0253
 5903W        W 9967   9.435   1.137   0.914  0.1273  0.1825 -0.1904
 5904W        W 9968   8.300   2.621   9.625  0.4023 -0.0430 -0.1703
 5905W        W 9969   2.064   4.433   2.625  0.3595 -0.0890  0.1838
 5906W        W 9970   2.930  10.603   2.654  0.2748 -0.2885  0.4007
 5907W        W 9971   5.537  10.473   1.388 -0.1470 -0.1949 -0.3076
 5908W        W 9972  10.218   4.409   7.431  0.1411  0.0694 -0.0943
 5909W        W 9973   4.397   6.902   9.042  0.0802  0.1474 -0.2108
 5910W        W 9974   0.237   9.544   8.854  0.2351  0.1478  0.0267
 5911W        W 9975   6.515   6.918   9.246 -0.2294  0.0208 -0.0656
 5912W        W 9976  10.543   5.312   0.627  0.2841  0.1758  0.0426
 5913W        W 9977   3.465   7.015   9.372  0.1335  0.0444 -0.1847
 5914W        W 9978   8.276   7.509   2.019  0.0931 -0.0669 -0.2848
 5915W        W 9979   6.227   0.550   2.496  0.1799  0.1266 -0.1099
 5916W        W 9980   8.231   6.099   3.044  0.4539 -0.1590  0.1347
 5917W        W 9981   3.963   1.883  10.438 -0.0447 -0.1235 -0.1615
 5918W        W 9982   2.253   9.163   1.147  0.0818 -0.0957  0.4386
 5919W        W 9983   0.435   1.163   1.006  0.0422 -0.3292 -0.1249
 5920W        W 9984   8.958   0.049  10.730  0.1965  0.2014 -0.2810
 5921W        W 9985   7.643   0.424   8.573 -0.1596 -0.1383  0.1318
 5922W        W 9986   9.425   0.097  10.951 -0.3070 -0.2776  0.0010
 5923W        W 9987   1.297   7.414   3.101  0.1456  0.1177 -0.1369
 5924W        W 9988   7.205   3.340   1.353  0.2010  0.0123  0.0603
 5925W        W 9989  10.364   9.598   9.300 -0.0888  0.1796  0.0798
 5926W        W 9990   2.806   6.085   0.393  0.1532  0.0172 -0.0424
 5927W        W 9991   8.128   2.631   7.404 -0.0396  0.0387  0.0446
 5928W        W 9992   1.951   6.599   3.168  0.1594 -0.0059 -0.2246
 5929W        W 9993   8.748   6.098  10.898  0.0172 -0.0638 -0.4869
 5930W        W 9994   5.851   7.825  10.225 -0.0697  0.1235  0.0997
 5931W        W 9995   5.505   6.111   2.525  0.1918 -0.0963 -0.0286
 5932W        W 9996  10.387   1.475   1.091 -0.4867  0.0953  0.0617
 5933W        W 9997   1.051   5.440   2.351  0.0248 -0.3690  0.3868
 5934W        W 9998   8.106   3.025   9.948  0.0543  0.0932  0.1128
 5935W        W 9999   5.963   4.942   7.099  0.1078  0.1447  0.3378
 5936W        W10000   9.428   7.006   8.872  0.3618 -0.1530 -0.2234
 5937W        W10001   5.085   8.294   8.586  0.0320  0.3256 -0.0340
 5938W        W10002   0.021   8.501   1.923  0.2899  0.0022 -0.0308
 5939W        W10003   4.956   7.521  10.126 -0.1988 -0.1176  0.3116
 5940W        W10004   2.317   9.217   9.105  0.0052  0.1454  0.1807
 5941W        W10005   2.811   9.890   7.751 -0.1140 -0.2707 -0.0519
 5942W        W10006   8.848   9.756   2.539 -0.2251  0.0521  0.1082
 5943W        W10007   9.538   7.582   1.043 -0.1973  0.0507 -0.1482
 5944W        W10008   0.579   6.799   0.487  0.0068 -0.1017 -0.2328
 5945W        W10009   7.018   0.401   1.870  0.2423 -0.4000  0.1401
 5946W        W10010   1.183   9.240  10.689  0.2252 -0.1451 -0.2640
 5947W        W10011   9.378   8.273   9.536 -0.2141  0.0725 -0.0182
 5948W        W10012   5.730   8.216   1.498  0.0837  0.1268  0.2505
 5949W        W10013   4.347   0.715   2.762 -0.2606 -0.1415  0.0365
 5950W        W10014   7.024   9.301   0.293 -0.0011  0.0135  0.1631
 5951W        W10015   8.576   4.634   2.686 -0.0199  0.1270  0.2850
 5952W        W10016   6.426   7.139   8.282  0.1867  0.2318 -0.0112
 5953W        W10017  10.157   1.235   9.191 -0.0148  0.0232  0.4613
 5954W        W10018   3.513   9.692   0.762 -0.1212  0.3542 -0.3086
 5955W        W10019   3.012   7.938   9.048  0.4259  0.1095 -0.3497
 5956W        W10020   8.272   2.991  10.975  0.0510 -0.2982  0.2841
 5957W        W10021   2.656   2.844   9.822  0.1497  0.0309  0.2853
 5958W        W10022   2.231   8.502   8.635 -0.0535 -0.3929 -0.2889
 5959W        W10023   3.684   9.018  10.147 -0.5050  0.0098 -0.0189
 5960W        W10024   5.517   3.682   7.663 -0.3154  0.0599 -0.0527
 5961W        W10025  10.013   0.784   8.858  0.0219 -0.2898  0.0206
 5962W        W10026   2.513   4.993  10.638  0.3733  0.0337  0.0049
 5963W        W10027   7.236   9.819   0.445 -0.0379 -0.0520  0.1091
 5964W        W10028   4.614   6.627  10.052  0.0846  0.2127  0.0989
 5965W        W10029   8.624   6.968   2.596 -0.0523  0.0968  0.2093
 5966W        W10030   6.518   5.280   1.154  0.2253  0.2584 -0.1259
 5967W        W10031  10.607   8.667   2.237 -0.0387  0.0379 -0.1029
 5968W        W10032  10.208   7.127   0.458  0.1757  0.0049  0.3984
 5969W        W10033   5.422   9.602   1.197  0.1432  0.1368 -0.0800
 5970W        W10034   1.877   1.656   3.138 -0.0570 -0.0369 -0.1343
 5971W        W10035   7.533   4.306   9.048  0.1459  0.0441  0.0219
 5972W        W10036   7.391   5.881   3.350 -0.1998  0.2032 -0.3329
 5973W        W10037   6.922   3.339   1.782 -0.3989  0.1571  0.4431
 5974W        W10038   1.170   2.567   2.643 -0.0803  0.2867 -0.0860
 5975W        W10039   5.590   9.104   1.873 -0.0960  0.0597 -0.2980
 5976W        W10040   3.147   4.674   1.821 -0.5050 -0.1040  0.2379
 5977W        W10041   4.962  10.037   0.314  0.3297 -0.0862  0.0127
 5978W        W10042   4.837   6.930   8.734 -0.0491 -0.0996 -0.1855
 5979W        W10043   6.735   6.475   7.992  0.1591 -0.4013  0.1311
 5980W        W10044   0.225   8.472  10.393  0.1309  0.2346  0.2976
 5981W        W10045   7.167   2.869  10.202 -0.0437  0.1566  0.2265
 5982W        W10046   2.645   5.521   0.350 -0.1216  0.1195  0.1029
 5983W        W10047   6.300   7.675   8.341  0.2058  0.0514 -0.1883
 5984W        W10048   1.426   6.054   8.930  0.1935  0.1329 -0.0452
 5985W        W10049   2.965  10.261   9.113 -0.2887 -0.0594  0.1436
 5986W        W10050   3.572   5.716   2.940 -0.0246  0.2226  0.1621
 5987W        W10051   2.350   2.419   8.079 -0.0487  0.2723  0.2978
 5988W        W10052   8.440   5.654   8.055  0.1228  0.0629  0.2948
 5989W        W10053   2.551   9.352  10.331 -0.1255  0.1503  0.0984
 5990W        W10054   1.393  10.573  10.779  0.1317  0.3156 -0.0461
 5991W        W10055  10.404   0.133   3.586 -0.2893 -0.1427 -0.0844
 5992W        W10056   1.535   8.669  10.562  0.1326  0.2422  0.0883
 5993W        W10057   8.469   2.576  10.604 -0.1136 -0.1293 -0.3195
 5994W        W10058   1.109   8.704   7.773 -0.0496  0.1232 -0.0205
 5995W        W10059   9.172   9.234  10.203  0.0626 -0.0352  0.2406
 5996W        W10060   1.340  10.729   2.164  0.0944  0.0345 -0.0062
 5997W        W10061   5.641   2.516   0.349  0.1906  0.2267  0.1056
 5998W        W10062   5.495   9.606   0.131 -0.0689 -0.2164 -0.0566
 5999W        W10063   3.766   7.630   7.756  0.0613 -0.0704  0.2471
 6000W        W10064   4.208   3.152   9.693  0.0803  0.0835 -0.0234
 6001W        W10065   5.688   8.463   2.583  0.0651  0.0332 -0.0232
 6002W        W10066   3.042   7.982  10.754 -0.1519 -0.1117  0.0915
 6003W        W10067   6.540  10.371   7.992 -0.0246 -0.0590  0.1190
 6004W        W10068   1.713   1.271   8.415 -0.1610 -0.1155  0.1622
 6005W        W10069   5.456   5.064   8.381  0.0158  0.1138 -0.0481
 6006W        W10070  10.691   2.130   9.414 -0.0865  0.0206 -0.1562
 6007W        W10071  10.207  10.474   2.898 -0.0500 -0.1429 -0.1851
 6008W        W10072   4.091   6.493   9.223 -0.3281  0.0854  0.0215
 6009W        W10073   3.536   0.640  10.952 -0.4759  0.0422 -0.0085
 6010W        W10074   8.067   8.794   8.523  0.0883 -0.0589  0.0098
 6011W        W10075   0.214   6.836   3.695  0.0712 -0.1653  0.1732
 6012W        W10076   0.726   3.182   7.763 -0.1995  0.0959  0.3166
 6013W        W10077   4.713   0.648   7.988  0.5055 -0.3148  0.0644
 6014W        W10078   9.792   1.907   7.576 -0.0501 -0.1276 -0.4648
 6015W        W10079   4.497   6.192   0.512  0.1972  0.1240 -0.1448
 6016W        W10080   7.456  10.801  10.765  0.3400 -0.0073 -0.1660
 6017W        W10081   0.072   0.637   2.427 -0.1124  0.2303 -0.0880
 6018W        W10082   4.812   2.160   0.235  0.1583  0.1135 -0.0695
 6019W        W10083   8.662   3.754   1.757  0.2354 -0.1507 -0.0679
 6020W        W10084   1.765   8.926   0.398 -0.0036 -0.0501  0.5344
 6021W        W10085   6.826   5.566   9.485 -0.0714  0.1122  0.2101
 6022W        W10086   4.093   1.347   9.722 -0.0839  0.3328  0.1630
 6023W        W10087  10.850   2.913   7.388  0.1062 -0.0932 -0.3511
 6024W        W10088   1.643   5.951   0.082 -0.2053  0.0505 -0.1370
 6025W        W10089   1.682   5.863   3.922  0.1028 -0.0593  0.0478
 6026W        W10090   2.947   1.869  10.387 -0.1468  0.1909  0.3826
 6027W        W10091   2.967   9.677   1.597 -0.0090  0.3376  0.1267
 6028W        W10092   2.481   1.804   8.732 -0.0679 -0.1494  0.3012
 6029W        W10093   3.115   4.045   2.444  0.1224  0.3306  0.2545
 6030W        W10094   7.823   2.079  10.281  0.0035 -0.1743 -0.0364
 6031W        W10095   0.179   2.604  10.901  0.0142 -0.1069  0.0871
 6032W        W10096   8.113   7.888   1.055  0.2491 -0.0657  0.1771
 6033W        W10097   2.468   6.339   8.186  0.0855 -0.1222 -0.0763
 6034W        W10098  10.572   1.299   1.611  0.1919  0.0763 -0.0315
 6035W        W10099   1.883   2.362   3.897  0.2231  0.2507 -0.1170
 6036W        W10100   9.622   5.433  10.113  0.0465  0.1542 -0.1006
 6037W        W10101   2.389   1.579   1.685  0.0187 -0.0891  0.0712
 6038W        W10102   1.186   1.872   1.880 -0.0317  0.3973  0.0027
 6039W        W10103   8.551   0.228   0.864 -0.0032 -0.0604 -0.1833
 6040W        W10104   2.870  10.384   1.268  0.1941  0.2108 -0.0908
 6041W        W10105   1.125   6.414   2.615 -0.0939 -0.0349 -0.1574
 6042W        W10106   2.494   7.117   7.268 -0.2367 -0.2669  0.1125
 6043W        W10107   6.609   6.308   9.945  0.3047  0.0696  0.3719
 6044W        W10108   0.063   6.840   9.315  0.0445  0.0893 -0.0136
 6045W        W10109   7.989   4.509   0.814 -0.2234  0.0402  0.0501
 6046W        W10110   2.291   9.695   7.985  0.0847  0.0148  0.3338
 6047W        W10111   6.208   3.316   9.724  0.3137 -0.0931  0.1890
 6048W        W10112   0.491   8.243   9.613 -0.3946  0.3481  0.1011
 6049W        W10113   1.250   1.428   2.230 -0.1271 -0.2562 -0.2730
 6050W        W10114   2.250   8.400   2.817  0.4378 -0.2347 -0.0364
 6051W        W10115  10.650   1.955  10.852 -0.2583  0.0924  0.1825
 6052W        W10116   5.448   6.144   1.848 -0.0654  0.0054  0.2848
 6053W        W10117  10.343   7.631  10.907  0.0062  0.1831  0.2741
 6054W        W10118   7.910   6.465   0.122 -0.2576  0.0536  0.0645
 6055W        W10119   0.253   3.418   9.834 -0.0270 -0.1199 -0.0728
 6056W        W10120   8.739   3.198   0.310 -0.0644 -0.0791 -0.0672
 6057W        W10121   9.332   9.611   8.809 -0.1450 -0.0511  0.3486
 6058W        W10122   7.202   6.705   7.959  0.0312  0.1844 -0.0690
 6059W        W10123   6.517   0.978   2.797  0.0965 -0.0518  0.0314
 6060W        W10124   0.846   6.936   9.497  0.0605 -0.1117  0.1086
 6061W        W10125   2.185   9.727   0.609 -0.1453 -0.0301  0.1660
 6062W        W10126   9.512   1.544   1.232 -0.0178 -0.0731 -0.1526
 6063W        W10127   5.331   8.905   7.759 -0.0776  0.1266 -0.2275
 6064W        W10128   7.823   7.707   1.706  0.0150  0.0553 -0.0201
 6065W        W10129   0.745   3.556   0.693 -0.0788 -0.3061 -0.0069
 6066W        W10130   7.523   3.873  10.798 -0.1358  0.0103  0.2752
 6067W        W10131   4.475   3.497   8.516 -0.1622 -0.0326 -0.0525
 6068W        W10132   5.286   3.481   1.575  0.1585 -0.3693  0.1104
 6069W        W10133   8.988   2.987   6.656  0.2708  0.0986  0.2964
 6070W        W10134   3.843   8.020   6.896  0.1102  0.2327 -0.2082
 6071W        W10135   4.741   2.403   9.945 -0.2688  0.4512  0.0671
 6072W        W10136   2.028   8.859   8.329  0.0138 -0.0551  0.2900
 6073W        W10137   0.313   5.565   6.796 -0.0303  0.2708  0.0879
 6074W        W10138   4.494   3.305   7.133 -0.0454 -0.2642  0.0548
 6075W        W10139   2.048   9.969   2.170 -0.1521 -0.1792  0.2121
 6076W        W10140   1.588   2.766   2.774 -0.1225 -0.0196  0.2182
 6077W        W10141   5.497   5.796   7.883 -0.2609  0.2073 -0.0005
 6078W        W10142   7.707   4.207   8.593  0.1658  0.0285  0.0465
 6079W        W10143   5.784   8.343   7.962 -0.0539  0.1264 -0.1737
 6080W        W10144   3.902   0.702  10.568  0.4460  0.2550 -0.3427
 6081W        W10145   8.792   6.353   9.851  0.0451 -0.0402 -0.3429
 6082W        W10146   0.929   4.429   8.529  0.2260  0.1704 -0.0690
 6083W        W10147   7.987   3.400   2.356  0.1679  0.0956 -0.1409
 6084W        W10148   9.943   0.729   3.142  0.0206 -0.2730  0.2478
 6085W        W10149   5.827   0.125  10.952  0.0422  0.0103  0.1914
 6086W        W10150   7.452   5.806   2.379  0.0781 -0.2118 -0.3334
 6087W        W10151   0.903   1.799   9.634 -0.2011 -0.2073  0.0496
 6088W        W10152   1.030   8.633   1.881  0.0589 -0.0174 -0.0731
 6089W        W10153   4.780   8.994   1.515  0.1203 -0.1474  0.0092
 6090W        W10154   3.965   2.154   1.146 -0.1024  0.2360  0.1557
 6091W        W10155   5.471   8.622   9.774 -0.1565 -0.2280 -0.0834
 6092W        W10156   2.914   8.734   2.376  0.1202  0.0993 -0.2595
 6093W        W10157   9.232   7.509   2.080  0.1897  0.3497  0.0988
 6094W        W10158  10.393   6.648   1.182  0.0220 -0.0798 -0.0774
 6095W        W10159   1.173   4.832   8.178  0.0651  0.2688  0.2374
 6096W        W10160   8.913   8.165   1.269  0.2126  0.0883 -0.1505
 6097W        W10161   4.059   9.540   9.491  0.0732 -0.0166 -0.3717
 6098W        W10162  10.647   7.175   9.181 -0.1119 -0.0073  0.0590
 6099W        W10163   1.232   4.176   1.314  0.2510 -0.0079 -0.2526
 6100W        W10164   9.957   7.397   1.407  0.0240 -0.1386 -0.0924
 6101W        W10165   1.522   3.162   0.390  0.0396 -0.1704  0.1454
 6102W        W10166   3.585   8.147   9.745 -0.1003  0.1050 -0.3415
 6103W        W10167   0.583   7.982  10.372 -0.1348  0.1850  0.0340
 6104W        W10168   7.191   1.128   8.340  0.0974  0.0826  0.0024
 6105W        W10169   0.049   1.598   8.453 -0.0979  0.2396 -0.0668
 6106W        W10170   4.713   8.883  10.626 -0.0369  0.0188  0.1162
 6107W        W10171   5.912  10.653   4.069 -0.0945  0.0117  0.0506
 6108W        W10172   4.037   7.497   7.009  0.1362  0.1279  0.1373
 6109W        W10173   0.571   2.333   3.257  0.0522 -0.1035  0.0015
 6110W        W10174   8.585   9.618   7.266  0.2233 -0.0023 -0.0114
 6111W        W10175   7.322   2.095  10.609 -0.2058  0.2034  0.0279
 6112W        W10176   0.550  10.595   1.733 -0.0990 -0.4396  0.0303
 6113W        W10177   8.840   3.944   0.753  0.0572  0.0201 -0.2422
 6114W        W10178   8.186   5.986   9.338  0.2409 -0.0257 -0.1123
 6115W        W10179   1.902   8.942   9.391  0.2864  0.1198 -0.2696
 6116W        W10180   9.631   1.425   2.393  0.2071  0.1472 -0.1522
 6117W        W10181   0.123   8.636   8.935 -0.1615  0.0826 -0.2167
 6118W        W10182   5.823   1.461   3.842  0.1239  0.1926  0.2219
 6119W        W10183   3.669   4.209   2.366  0.1026 -0.0119 -0.1900
 6120W        W10184   4.676   5.903   8.375 -0.2104 -0.0892 -0.1800
 6121W        W10185   9.156   0.132   1.790  0.0944 -0.0168  0.1203
 6122W        W10186   1.486   5.371   8.854 -0.1902 -0.2763 -0.0695
 6123W        W10187   2.396   7.162   7.849  0.0093 -0.0096  0.1032
 6124W        W10188   5.815   6.208   1.074 -0.0049 -0.0528  0.1768
 6125W        W10189   7.516   1.705   9.697  0.0228 -0.1561 -0.2671
 6126W        W10190   8.801   4.793   9.211 -0.3685 -0.1450 -0.0621
 6127W        W10191   7.334   1.635   1.476 -0.2981 -0.0051 -0.2185
 6128W        W10192   4.854  10.777   0.848  0.1199 -0.1626  0.0140
 6129W        W10193   0.869   6.168  10.401 -0.2518  0.0723  0.1416
 6130W        W10194   2.139   0.333   1.130 -0.2231 -0.1324 -0.4186
 6131W        W10195   7.251   2.790   3.361  0.2901  0.2603  0.2019
 6132W        W10196   6.076  10.029   7.932  0.0226  0.1297 -0.2018
 6133W        W10197   2.591   0.052   3.953 -0.4305  0.2121 -0.1563
 6134W        W10198   0.838   9.186   3.053 -0.2567 -0.1986 -0.0378
 6135W        W10199   7.613   3.752   1.152  0.1991  0.4936  0.0825
 6136W        W10200   2.282   6.903   3.447 -0.0158 -0.0035 -0.2260
 6137W        W10201   9.896   3.172   8.314  0.0204  0.2774  0.0774
 6138W        W10202   2.282   3.700   1.291  0.0662  0.1536  0.2856
 6139W        W10203   9.955   7.543   9.791 -0.0155 -0.0896  0.4394
 6140W        W10204   0.605   9.597   1.602 -0.0353 -0.1178  0.1111
 6141W        W10205   1.202   1.779  10.105 -0.0445 -0.1685  0.2006
 6142W        W10206   0.088   0.712   9.325 -0.1739 -0.0143 -0.0844
 6143W        W10207   9.445   6.193   9.305  0.0105  0.0073  0.0894
 6144W        W10208   3.811   2.273  10.094 -0.1499  0.2911  0.2173
 6145W        W10209   8.219   7.225   2.542 -0.5752  0.0622  0.2617
 6146W        W10210   9.673   2.019   3.598  0.0538  0.0337 -0.0608
 6147W        W10211   1.046   3.327   9.468  0.1614  0.0309  0.1436
 6148W        W10212   6.695   9.849  10.960  0.2986 -0.1973  0.0625
 6149W        W10213   5.292   2.317   7.420  0.2259  0.3013  0.2162
 6150W        W10214   4.619   8.571   9.211  0.1586  0.2340  0.1547
 6151W        W10215   4.464   4.066  10.687 -0.2573  0.4693  0.5314
 6152W        W10216   9.501   7.674   8.499 -0.3027  0.4736  0.0064
 6153W        W10217   5.919   2.369  10.331 -0.0583 -0.0221  0.1579
 6154W        W10218   1.082   4.980   0.105  0.1135 -0.0778 -0.1144
 6155W        W10219   7.626   8.946   9.677  0.0630 -0.0455  0.1370
 6156W        W10220   1.708   0.883   9.143 -0.3534  0.1522  0.0630
 6157W        W10221   4.294   4.399   7.880  0.0493  0.1179 -0.0447
 6158W        W10222  10.445   5.359   9.822  0.6325  0.1711  0.2577
 6159W        W10223   2.119   4.058   8.810  0.0577  0.2153  0.0018
 6160W        W10224   4.274   2.436   3.556 -0.0397 -0.0218 -0.0217
 6161W        W10225   5.686   5.436  10.383 -0.0990 -0.1317 -0.4669
 6162W        W10226   0.164  10.654   8.809 -0.0064 -0.2135  0.1498
 6163W        W10227   7.453   4.560   8.261 -0.1508  0.0474 -0.2382
 6164W        W10228   6.488   2.293   2.483 -0.3970 -0.0117 -0.2178
 6165W        W10229   8.168   6.531   1.739 -0.1040 -0.0009 -0.0068
 6166W        W10230   9.731   3.416   2.958 -0.1701  0.0856 -0.2050
 6167W        W10231   7.781   0.044   1.355  0.0117 -0.0259  0.1356
 6168W        W10232   8.492   9.411   2.467 -0.0156 -0.2530  0.4432
 6169W        W10233   6.994   8.393   9.861 -0.1899 -0.2883 -0.1795
 6170W        W10234   1.025   6.875   2.817 -0.1536 -0.1478 -0.0340
 6171W        W10235  10.617   3.598   3.266 -0.5128  0.0765 -0.0532
 6172W        W10236   8.156   7.345   9.333 -0.1714 -0.0165  0.2480
 6173W        W10237   1.710   8.143   0.084  0.1801  0.0841 -0.0839
 6174W        W10238   7.735   9.896   8.990  0.0256  0.0061 -0.1720
 6175W        W10239   6.790   0.454   1.036  0.0048  0.1750  0.2044
 6176W        W10240   3.107   9.448   9.092 -0.2582 -0.0341 -0.2445
 6177W        W10241   6.628   7.569  10.301 -0.0709  0.2396 -0.2492
 6178W        W10242   3.440   8.778   1.502 -0.0785  0.1398  0.0573
 6179W        W10243   9.332   1.461   3.169 -0.2544  0.0152  0.0274
 6180W        W10244   4.690   9.356   1.810 -0.3694  0.0392  0.1143
 6181W        W10245   1.996   7.831  10.795  0.2021  0.0707 -0.2254
 6182W        W10246   8.232   4.801   1.583 -0.1582  0.1946 -0.1519
 6183W        W10247   3.800   8.792   8.624 -0.1353  0.0339  0.2195
 6184W        W10248   0.953   5.314   0.911 -0.2302  0.0328 -0.1814
 6185W        W10249   7.662   2.390   8.235 -0.1379 -0.0321  0.0775
 6186W        W10250   2.900   9.014   8.321 -0.5640 -0.0241  0.0467
 6187W        W10251   7.894  10.399   1.732  0.1034 -0.3262 -0.0398
 6188W        W10252   3.067   3.677   2.021 -0.1333 -0.5100  0.1548
 6189W        W10253   5.841   4.579   0.791 -0.0119 -0.2034 -0.0863
 6190W        W10254   5.205   8.118  10.741 -0.1409  0.0396  0.1843
 6191W        W10255   4.766  10.348   1.106 -0.0476  0.2294 -0.1263
 6192W        W10256   5.340   3.337   0.492 -0.3940  0.3435 -0.2358
 6193W        W10257   5.016   9.533  10.960  0.1083 -0.0883 -0.3403
 6194W        W10258   7.974   3.985  10.604 -0.4035 -0.0767 -0.1503
 6195W        W10259   9.339   0.903   3.176  0.3552  0.1917 -0.1557
 6196W        W10260   9.548   0.973   3.620 -0.0270  0.0762 -0.1709
 6197W        W10261   0.329   7.216   3.409  0.0383 -0.0172  0.0263
 6198W        W10262   7.276   2.950  10.669 -0.0667 -0.0569  0.4237
 6199W        W10263   3.256   0.664   3.055 -0.2451 -0.3500 -0.0283
 6200W        W10264   9.695   7.163  10.135  0.0219 -0.2280 -0.0298
 6201W        W10265   1.732   4.101   1.370  0.3266  0.0464 -0.1478
 6202W        W10266   2.046   0.036   8.088  0.0304  0.0407 -0.3070
 6203W        W10267   5.105   8.879   8.480 -0.0563  0.0490  0.1257
 6204W        W10268   5.536   1.267   1.829 -0.4932 -0.1277  0.6761
 6205W        W10269   2.311   0.228  10.674 -0.3111 -0.3180 -0.3878
 6206W        W10270   3.052   6.735   8.507 -0.0655  0.1188  0.3696
 6207W        W10271   4.623   1.085   3.059  0.0067 -0.1281  0.3662
 6208W        W10272   6.438   6.786   1.457  0.1014  0.0180  0.1095
 6209W        W10273   6.179   4.250   9.684  0.1956 -0.1861  0.0078
 6210W        W10274   1.895  10.440   8.010  0.3350 -0.3311  0.0168
 6211W        W10275   0.959   0.455  10.203 -0.3115  0.4480 -0.2037
 6212W        W10276   7.486  10.783   8.569  0.0294 -0.1320  0.1003
 6213W        W10277   3.995   0.879   1.058  0.0420  0.1534 -0.3773
 6214W        W10278   8.179   3.759   9.990  0.2341 -0.2122  0.0922
 6215W        W10279   2.450   9.678   2.497 -0.0364 -0.0832  0.1470
 6216W        W10280   1.174   2.445   8.319 -0.0357  0.1536  0.0991
 6217W        W10281   9.969   7.499  10.402  0.2254  0.1064 -0.1293
 6218W        W10282   0.944   6.665  10.611  0.2570 -0.0569 -0.0857
 6219W        W10283  10.743   2.286   9.885 -0.0598 -0.1126 -0.2095
 6220W        W10284   1.288   8.883   1.024 -0.1873  0.0776  0.3734
 6221W        W10285   8.941   3.456   8.221 -0.1208 -0.1505  0.1484
 6222W        W10286   1.613   7.412   8.702  0.0447 -0.1824 -0.0304
 6223W        W10287   4.435   5.984   8.810 -0.1365 -0.0400 -0.1307
 6224W        W10288   7.244   7.885   1.467  0.1662  0.2753  0.1049
 6225W        W10289   5.053   9.940   0.888 -0.2096  0.0205 -0.0884
 6226W        W10290   7.176   4.409   0.708 -0.1895 -0.0215 -0.2719
 6227W        W10291   6.867   5.830   7.433 -0.1672 -0.0401 -0.1848
 6228W        W10292   1.886   7.828   2.314 -0.2376  0.3779 -0.4072
 6229W        W10293   0.596   5.631   1.110 -0.0374 -0.4538  0.1051
 6230W        W10294   7.852  10.348   8.382 -0.1836  0.2258  0.1152
 6231W        W10295   2.576   1.802  10.005 -0.0698  0.0930 -0.0878
 6232W        W10296   4.455   2.926   9.186 -0.0900  0.2848 -0.0231
 6233W        W10297   7.291   9.743   9.289  0.2456 -0.2173  0.1398
 6234W        W10298   2.702   8.394   1.606  0.0532 -0.0300 -0.0194
 6235W        W10299   1.186  10.178   9.760 -0.0181  0.0926  0.4124
 6236W        W10300   7.716   3.632   1.947 -0.2211  0.2114 -0.0307
 6237W        W10301   2.771   2.426   9.468  0.0016 -0.1538 -0.0855
 6238W        W10302   7.849   3.913   8.946  0.0922 -0.0530  0.0043
 6239W        W10303   6.773   9.343   3.163  0.2380  0.1354  0.0211
 6240W        W10304   6.525   3.934   7.881  0.3059  0.4936 -0.1802
 6241W        W10305   4.578   7.724   3.837  0.1903  0.0173  0.2082
 6242W        W10306   9.840   5.548   9.112 -0.0058  0.2018 -0.0168
 6243W        W10307   6.627   1.684   2.971  0.1091 -0.2597 -0.1317
 6244W        W10308  10.315   5.731   9.354 -0.0193  0.2321  0.1707
 6245W        W10309   0.134   5.795   0.956 -0.1522 -0.0582  0.2280
 6246W        W10310   2.809   4.942   8.621 -0.0476  0.0064 -0.0390
 6247W        W10311   7.088  10.665   1.682  0.0359 -0.0191  0.0675
 6248W        W10312   3.182   6.060   1.807  0.0532  0.1142 -0.1484
 6249W        W10313   0.840   3.278   2.285  0.2135 -0.0249 -0.0820
 6250W        W10314   5.514   0.162   8.301  0.1022 -0.0843  0.0957
 6251W        W10315  10.437   1.670   2.944  0.3087 -0.1161 -0.2064
 6252W        W10316   3.632   0.073   9.760  0.0119  0.0100  0.0768
 6253W        W10317   1.526   7.435   7.706  0.3641  0.1187  0.0581
 6254W        W10318   0.589   6.146   1.971  0.0701  0.3325  0.2233
 6255W        W10319  10.291   1.048   1.283 -0.0597  0.0075  0.0584
 6256W        W10320   7.904   1.161   9.040 -0.1275  0.0780 -0.1048
 6257W        W10321   5.076   7.201   2.749 -0.0584 -0.1678 -0.4705
 6258W        W10322   2.765   1.762   9.159  0.1205  0.1494  0.3154
 6259W        W10323   3.157   6.194  10.844 -0.0548  0.1650  0.3500
 6260W        W10324   0.503   0.748   0.860 -0.3335 -0.0100  0.1719
 6261W        W10325   5.728   8.822   0.709 -0.3391 -0.2727 -0.1529
 6262W        W10326   0.780   8.746   2.756  0.2103 -0.1794 -0.3006
 6263W        W10327   4.330   1.559  10.633 -0.1053 -0.0275 -0.0439
 6264W        W10328   7.918   4.237   7.020  0.0699  0.1808  0.0485
 6265W        W10329   4.806   9.019   3.851 -0.0733 -0.3020 -0.2394
 6266W        W10330   4.153   7.361   3.054 -0.2097 -0.1038 -0.0542
 6267W        W10331   1.362   4.559   7.707 -0.2067 -0.0523 -0.2635
 6268W        W10332   6.616   6.248  10.974  0.1468 -0.1428 -0.3965
 6269W        W10333   6.910   7.971  10.608 -0.0212 -0.0361 -0.3613
 6270W        W10334   9.313   9.006   1.448 -0.2672 -0.2065 -0.0208
 6271W        W10335   1.647   0.317   8.332 -0.0889 -0.3759  0.1743
 6272W        W10336   7.633   7.960   8.387  0.0774  0.0882  0.1258
 6273W        W10337   9.646   2.529   3.676  0.1434  0.2539 -0.2453
 6274W        W10338   2.583   0.802   2.406 -0.1436 -0.2915 -0.1973
 6275W        W10339   2.531   7.471   2.695  0.0489  0.3512 -0.1509
 6276W        W10340   4.757   8.541   2.350  0.0538  0.1206 -0.1900
 6277W        W10341   7.966   5.299   2.634  0.0616 -0.3199 -0.1036
 6278W        W10342   3.258  10.218   9.595 -0.4296 -0.0286  0.1175
 6279W        W10343   7.534   6.048   9.714  0.1495 -0.3496  0.0425
 6280W        W10344   5.641   0.602   8.224 -0.2099 -0.1111  0.0429
 6281W        W10345   1.491   9.007   3.644  0.2919 -0.2848 -0.0371
 6282W        W10346   9.448   0.968   8.374 -0.0180  0.0082  0.0020
 6283W        W10347   1.971   6.410   2.226 -0.0778  0.0406 -0.0453
 6284W        W10348   5.206   6.956   0.975  0.1158 -0.0936  0.3077
 6285W        W10349   2.863   7.473   1.661 -0.0767  0.0403  0.3843
 6286W        W10350   8.613   0.587   3.511  0.0339  0.0639 -0.0905
 6287W        W10351   3.917   9.054   9.318 -0.2298  0.1440 -0.0392
 6288W        W10352   7.843   0.960   9.954 -0.0889  0.2092 -0.2168
 6289W        W10353   3.682   6.634  10.014 -0.0837 -0.0512  0.2594
 6290W        W10354  10.399   5.140   7.985  0.0561 -0.0929 -0.0053
 6291W        W10355   0.694   5.573   9.744  0.0977 -0.1808 -0.0079
 6292W        W10356   7.624   6.085   8.413 -0.0428 -0.0947 -0.5740
 6293W        W10357   9.225   0.061   3.013 -0.2164  0.1571 -0.1832
 6294W        W10358   7.599  10.371   2.595 -0.1229  0.0290  0.1325
 6295W        W10359   3.892   9.748  10.070 -0.3123 -0.1653 -0.2042
 6296W        W10360   4.828   7.574   1.556 -0.0610  0.2435 -0.1252
 6297W        W10361   3.613   3.496   0.151  0.0477 -0.1327 -0.1686
 6298W        W10362   2.599   6.156   2.731  0.0252 -0.1319  0.1317
 6299W        W10363   2.244   8.351   0.822 -0.2312 -0.0100 -0.0970
 6300W        W10364   5.486  10.295   2.367 -0.2499  0.1193  0.1309
 6301W        W10365   4.515   4.552   3.342 -0.1862 -0.2496  0.1445
 6302W        W10366   0.463   0.971   2.220  0.0025 -0.0029  0.1620
 6303W        W10367   0.326   3.629  10.285 -0.0569  0.0191  0.2978
 6304W        W10368  10.307   6.162   0.487  0.2426  0.1499  0.0428
 6305W        W10369   8.164  10.164   8.733  0.0496  0.2808  0.1943
 6306W        W10370  10.861   7.034   0.975 -0.0604  0.0244 -0.3635
 6307W        W10371   0.271   0.433   7.627  0.1476  0.0524 -0.1429
 6308W        W10372   1.224   6.210   0.837 -0.3546  0.2476 -0.0367
 6309W        W10373   6.824   7.386   7.498 -0.1016 -0.0725  0.0167
 6310W        W10374  10.609   7.124   8.164 -0.0771  0.0520  0.0838
 6311W        W10375   5.062   9.560   2.646  0.1296 -0.2590  0.0513
 6312W        W10376   5.589   6.598  10.142 -0.2264 -0.2233 -0.0956
 6313W        W10377   7.119   4.598   9.711  0.0968  0.0814 -0.1727
 6314W        W10378   4.691   0.671   8.919 -0.2351 -0.0759  0.2063
 6315W        W10379   3.744   6.959   8.554  0.1119 -0.0512 -0.4698
 6316W        W10380   2.203   3.210   9.286 -0.2698 -0.0551  0.0353
 6317W        W10381   2.520   0.485   0.457 -0.0861 -0.0264  0.1510
 6318W        W10382   5.089   7.504   8.096 -0.0882  0.1393 -0.1800
 6319W        W10383   4.934   4.681   0.304 -0.1140  0.0575  0.1409
 6320W        W10384   7.522   4.336   9.663 -0.0555 -0.0232 -0.0422
 6321W        W10385   5.263  10.588   2.771 -0.0883 -0.0908  0.0076
 6322W        W10386   4.258   8.650   3.252  0.1349  0.1699 -0.2139
 6323W        W10387   3.983   1.385   1.090  0.0481 -0.0191 -0.0901
 6324W        W10388   7.341   4.951   3.374 -0.0145  0.0634 -0.2680
 6325W        W10389   9.217   2.044  10.289  0.0289 -0.2794 -0.1799
 6326W        W10390   9.741   1.786   0.672  0.2590  0.0667  0.0821
 6327W        W10391   2.078   4.291   0.681  0.2416 -0.3097 -0.0304
 6328W        W10392   2.026   5.683  10.868  0.0679 -0.1129  0.1940
 6329W        W10393   0.660   2.679   0.817  0.2260  0.2950 -0.0676
 6330W        W10394   3.196   7.630   2.073  0.3031 -0.1860 -0.2276
 6331W        W10395  10.188  10.673   1.512  0.0382  0.0183 -0.2173
 6332W        W10396   2.073   6.888   9.882  0.0327 -0.2276  0.1162
 6333W        W10397   7.011   3.759  10.818  0.1710  0.3858  0.0444
 6334W        W10398   6.835  10.308   9.715  0.3129 -0.5642  0.3207
 6335W        W10399   2.012   0.715   3.072  0.1794 -0.0550 -0.3662
 6336W        W10400   6.073   8.021   0.260 -0.1759  0.2153 -0.0390
 6337W        W10401   3.989   3.765   9.067 -0.3655 -0.0921 -0.0906
 6338W        W10402   9.568   1.710   4.553  0.0016 -0.1606  0.0399
 6339W        W10403   0.869   0.943   8.669 -0.1112  0.0676 -0.0433
 6340W        W10404   8.153   6.816   7.833 -0.0694  0.3140 -0.0438
 6341W        W10405   6.775   5.355  10.855  0.2447  0.1432 -0.1551
 6342W        W10406   5.505   5.315   9.237  0.0830  0.0218  0.0750
 6343W        W10407   9.208   1.978   9.384  0.2453  0.0781 -0.0741
 6344W        W10408   2.218   6.260   1.106  0.2224 -0.1407  0.1744
 6345W        W10409   0.233  10.717  10.098 -0.1218 -0.1817 -0.4276
 6346W        W10410   3.124   8.082   0.967  0.0576 -0.0786  0.0715
 6347W        W10411   7.394   9.409  10.372  0.3371  0.1904 -0.1482
 6348W        W10412   6.654   2.157   1.633 -0.2337 -0.0624 -0.1506
 6349W        W10413   3.831   9.038  10.686 -0.0081 -0.3039 -0.1096
 6350W        W10414   4.299   4.712   7.296  0.0610 -0.1274 -0.3077
 6351W        W10415   7.863   3.313   8.138  0.0785 -0.2036 -0.2758
 6352W        W10416   7.881   3.612   0.725 -0.2547 -0.2669  0.1149
 6353W        W10417   7.554   2.442   2.691 -0.0710 -0.0663 -0.1849
 6354W        W10418   3.023   5.625   2.118 -0.1322 -0.2230 -0.4574
 6355W        W10419   5.088   0.203   1.022  0.0686  0.1482 -0.1851
 6356W        W10420   4.976   0.676   1.962 -0.1148  0.1424 -0.1442
 6357W        W10421   0.522   5.452   8.319 -0.4857  0.0195  0.0252
 6358W        W10422   0.771   1.679   2.087  0.0763 -0.3489 -0.2078
 6359W        W10423   2.352   6.684   0.234 -0.2406 -0.0603 -0.0138
 6360W        W10424   3.955   6.915   0.725  0.3923 -0.3676  0.0882
 6361W        W10425   7.354   4.876   7.495 -0.0217 -0.1908 -0.0807
 6362W        W10426   4.829   3.429   8.146  0.0934  0.1712 -0.0754
 6363W        W10427   4.020   6.796   7.667  0.0773 -0.2079  0.0695
 6364W        W10428   4.844   8.585   3.053  0.0688  0.2188  0.2188
 6365W        W10429   4.800   0.926   0.560  0.0856  0.1182 -0.2878
 6366W        W10430   7.946   7.495   0.337 -0.1339 -0.0525 -0.0697
 6367W        W10431   7.384   1.038   3.286 -0.3623  0.1899  0.1063
 6368W        W10432   4.881   3.637   9.386  0.1542 -0.0090  0.0300
 6369W        W10433   2.895   9.198   8.788  0.1745 -0.6232  0.0989
 6370W        W10434   1.316   2.100  10.584  0.1760  0.3098 -0.0706
 6371W        W10435   8.791  10.476  10.885  0.0727  0.0513 -0.2955
 6372W        W10436   6.281  10.187  10.537  0.0865  0.0599  0.0074
 6373W        W10437   3.484   1.576   9.910  0.0944  0.3183 -0.0170
 6374W        W10438   4.486   0.447   1.797 -0.0202  0.2661  0.0842
 6375W        W10439   5.953   8.179   9.142 -0.0300  0.1821 -0.3134
 6376W        W10440   4.764   2.335   3.533  0.0661  0.1074  0.2169
 6377W        W10441   2.182   5.725  10.402  0.4496  0.0438 -0.1879
 6378W        W10442   4.774   3.849   8.382 -0.1375 -0.1145 -0.2510
 6379W        W10443   1.166   8.791  10.192  0.2680 -0.1805  0.3705
 6380W        W10444   2.038   1.106   9.456 -0.1451 -0.1053 -0.0398
 6381W        W10445  10.336   2.800  10.445 -0.0903 -0.0621 -0.0338
 6382W        W10446   0.309   9.834   1.969 -0.0653  0.0322  0.3569
 6383W        W10447   9.536  10.450   0.552 -0.3082 -0.2628 -0.2489
 6384W        W10448   4.991   2.363   1.613 -0.0914  0.1289  0.1385
 6385W        W10449   9.000   6.512   9.349 -0.0717  0.0149 -0.0968
 6386W        W10450   4.185   3.851   8.614 -0.3254  0.0764 -0.1631
 6387W        W10451   2.928   2.617   2.718 -0.3584  0.2423 -0.0070
 6388W        W10452  10.343   8.319   1.905 -0.1314 -0.0835 -0.3258
 6389W        W10453   1.914   6.104   8.799 -0.1383  0.2559  0.0564
 6390W        W10454   5.627   8.608   3.220 -0.0986  0.0999  0.0162
 6391W        W10455  10.257   5.390   0.172  0.2770  0.2286 -0.2686
 6392W        W10456   6.498   9.820   0.918  0.2748  0.0542 -0.2711
 6393W        W10457  10.047   2.342   0.273 -0.1148 -0.0287  0.0675
 6394W        W10458   9.197   5.262   2.451 -0.1764 -0.0355 -0.0444
 6395W        W10459   2.534   7.807  10.810  0.1282 -0.1587  0.2503
 6396W        W10460  10.528   8.099   8.042 -0.1254 -0.2390 -0.0108
 6397W        W10461   1.096   0.488   1.767 -0.1468 -0.1153  0.2631
 6398W        W10462   2.099   6.683   0.854  0.1086  0.0264  0.0090
 6399W        W10463   5.734   2.529   9.084  0.1510 -0.1657  0.1115
 6400W        W10464   5.349   4.662   3.466 -0.0278 -0.0413 -0.1637
 6401W        W10465   1.857   8.023   2.859 -0.0054 -0.1238 -0.0583
 6402W        W10466  10.463   0.460   1.928  0.3104  0.0642  0.2001
 6403W        W10467   2.666   0.593  10.446  0.1835 -0.3163 -0.1728
 6404W        W10468   6.607   3.303   8.315 -0.2209  0.5154  0.0434
 6405W        W10469   2.151   5.982   8.379 -0.0987 -0.0341 -0.2173
 6406W        W10470   2.295   9.207  10.717  0.0379  0.0913  0.0315
 6407W        W10471   1.482   3.407   1.738 -0.1512  0.1658  0.0355
 6408W        W10472   0.734   9.409   9.555  0.0881 -0.1235  0.0385
 6409W        W10473   2.275   4.830   3.058  0.0526 -0.0249 -0.1064
 6410W        W10474   1.197   3.236   0.036 -0.0196 -0.0808  0.0559
 6411W        W10475   7.381  10.170   1.670  0.2964 -0.2032 -0.1026
 6412W        W10476   7.885   4.219   9.350  0.1454 -0.0065  0.1309
 6413W        W10477   1.947   2.858  10.448  0.0225  0.1908 -0.0849
 6414W        W10478   9.499   0.494   8.659 -0.0164 -0.1356 -0.1656
 6415W        W10479   6.962   0.258   2.379 -0.3211 -0.3272 -0.0646
 6416W        W10480   0.430   1.974   1.865  0.0958 -0.1160 -0.3350
 6417W        W10481   0.128   9.381   1.770 -0.1919 -0.1524  0.1279
 6418W        W10482   8.127   6.912  10.056 -0.0395 -0.3217 -0.0060
 6419W        W10483   2.147   2.011   7.809  0.0165  0.1620  0.1318
 6420W        W10484   8.566   0.993   3.224  0.2600  0.2045  0.1019
 6421W        W10485   4.244   2.232   0.366  0.1163  0.3589 -0.0935
 6422W        W10486   3.757   7.455   3.834 -0.1164  0.2389  0.0517
 6423W        W10487   9.160   1.469   2.135  0.5212  0.2296 -0.1214
 6424W        W10488   8.663   7.755   9.589 -0.3228 -0.5036  0.1796
 6425W        W10489  10.754  10.303   8.832 -0.2675  0.0305  0.1679
 6426W        W10490   7.212   0.059   1.163 -0.2444 -0.2565 -0.0237
 6427W        W10491   9.451   0.546  10.703 -0.0342 -0.2998  0.3670
 6428W        W10492   0.621   2.301   8.363 -0.0600  0.3454 -0.1199
 6429W        W10493   8.751   9.583  10.528 -0.1016  0.4552  0.2270
 6430W        W10494  10.565   2.744   9.023 -0.1829  0.4794  0.1502
 6431W        W10495   5.174   1.560   1.379  0.4776  0.1192  0.2428
 6432W        W10496   4.008   4.181   1.171  0.0360  0.0758  0.0367
 6433W        W10497   7.882   1.051   2.481 -0.0541 -0.0385 -0.2509
 6434W        W10498   6.160   7.508   0.310 -0.2802  0.0598  0.0987
 6435W        W10499   5.558   9.580   1.917 -0.1191  0.0828 -0.0297
 6436W        W10500   0.523   2.639   0.314  0.3187  0.0783 -0.1887
 6437W        W10501   9.140   0.078   8.430  0.0980  0.0713  0.2735
 6438W        W10502  10.115   9.929   2.866  0.2588  0.3186 -0.1477
 6439W        W10503   1.686   6.312   2.632 -0.1186  0.0343 -0.1567
 6440W        W10504   2.448   0.478   9.954  0.4024  0.0743 -0.1322
 6441W        W10505   9.663   6.723   8.549  0.0426 -0.1816  0.2354
 6442W        W10506   2.695   6.046   3.196  0.0467 -0.3332 -0.0269
 6443W        W10507   6.108   3.440   0.249 -0.0387 -0.1023  0.2336
 6444W        W10508   5.862   7.948   7.221  0.1515  0.0819 -0.0289
 6445W        W10509   5.564   3.669   9.924 -0.0791  0.2125  0.3343
 6446W        W10510   8.141   2.169   7.104 -0.2102 -0.2647 -0.4761
 6447W        W10511   7.339   8.069   7.901  0.2657  0.0481  0.0848
 6448W        W10512   8.652  10.616  10.352 -0.0496 -0.1452  0.0341
 6449W        W10513   2.950   1.504   9.952  0.0019 -0.2724  0.2114
 6450W        W10514   3.331   0.269   2.101 -0.6124 -0.0033  0.1644
 6451W        W10515   6.776   2.947  10.735  0.3081  0.0037 -0.0480
 6452W        W10516   6.379   8.321   0.493  0.1816  0.1197  0.0863
 6453W        W10517   1.668  10.558   9.128  0.2457  0.1616  0.0116
 6454W        W10518   1.925  10.557   0.637 -0.1399 -0.1774  0.2557
 6455W        W10519   6.623   8.094   9.721 -0.1203  0.2387 -0.0967
 6456W        W10520   6.373   7.358   8.854 -0.1813 -0.1580 -0.0393
 6457W        W10521   9.317   7.053   7.761  0.1547  0.1718  0.1300
 6458W        W10522  10.446   5.353   8.440 -0.3094  0.4545 -0.2209
 6459W        W10523   3.688   2.657   9.820  0.0020  0.1978  0.2948
 6460W        W10524   0.206   4.850   1.297 -0.3918  0.0907  0.0656
 6461W        W10525   7.885   0.692   0.006  0.2665 -0.1780  0.1058
 6462W        W10526   6.970   5.591   1.284 -0.4253  0.3091 -0.2136
 6463W        W10527   5.756   8.844   2.265 -0.2048  0.0439  0.1139
 6464W        W10528   8.397   9.592   3.296  0.3276  0.2605 -0.1505
 6465W        W10529   5.666   8.579   7.535  0.2503  0.2621  0.0706
 6466W        W10530   0.530   5.924   0.603 -0.2667  0.0400  0.1119
 6467W        W10531   3.078   2.780   9.620  0.1371 -0.0957 -0.1794
 6468W        W10532   4.104   6.406   0.869  0.0625  0.2408  0.1765
 6469W        W10533   6.144   3.944   2.081  0.2000  0.0718  0.1488
 6470W        W10534   7.718   4.476   2.622 -0.0040 -0.0557 -0.1558
 6471W        W10535   0.799   1.351   2.424 -0.0007  0.3079 -0.0575
 6472W        W10536   5.144   9.904   3.019  0.1414 -0.1184  0.0094
 6473W        W10537   0.776   0.758   9.829  0.0435 -0.1642 -0.4326
 6474W        W10538   8.514   9.243   9.001 -0.5110  0.2152  0.1722
 6475W        W10539   8.240   5.494   9.541  0.0116 -0.1709  0.0369
 6476W        W10540  10.369   3.907   0.336  0.1252 -0.1895 -0.0891
 6477W        W10541   1.651  10.283   8.555  0.0800  0.0683  0.0578
 6478W        W10542   9.263   8.956   0.041 -0.2232 -0.0155 -0.0651
 6479W        W10543   1.806  10.795   1.990  0.0627  0.0106  0.0069
 6480W        W10544   4.957   6.918  10.614  0.1476 -0.1130  0.4582
 6481W        W10545   1.114   0.818   3.320  0.0463  0.0501 -0.2795
 6482W        W10546   3.981   6.448   1.891 -0.0100 -0.3614  0.0582
 6483W        W10547   9.181   1.346   9.264 -0.1435  0.4385  0.5478
 6484W        W10548   7.031   3.382  10.417 -0.0072  0.1804 -0.1759
 6485W        W10549   3.046   8.184   3.784 -0.0848  0.0473 -0.0632
 6486W        W10550   6.351   9.082   7.602 -0.0712 -0.1094  0.1697
 6487W        W10551   8.801   4.513   8.006  0.0044  0.0611  0.0213
 6488W        W10552   6.252   9.790   9.284 -0.0577  0.1800  0.0647
 6489W        W10553   0.656   6.584   2.780  0.0867 -0.1791  0.1404
 6490W        W10554   1.306   2.765   0.021 -0.1107  0.2243  0.0770
 6491W        W10555   1.820   0.789   2.119  0.0467 -0.0628  0.5004
 6492W        W10556   5.189   6.062   7.540 -0.0131  0.2280 -0.3414
 6493W        W10557   3.434   3.923   9.100 -0.0134 -0.1980  0.0699
 6494W        W10558  10.507   9.951   0.623 -0.0143  0.0462  0.0637
 6495W        W10559   1.643  10.389   9.674 -0.3274  0.0992 -0.0629
 6496W        W10560   2.269   9.294   0.225 -0.1137  0.0131 -0.1557
 6497W        W10561   8.003   1.933   2.364 -0.2919 -0.3354 -0.0901
 6498W        W10562   0.058   3.379   7.396 -0.0675  0.0539  0.0592
 6499W        W10563   9.769  10.507  10.090 -0.0428  0.1002 -0.0883
 6500W        W10564   1.183   0.672   8.029  0.1304  0.0830  0.3903
 6501W        W10565   8.414   5.569   8.569  0.2777 -0.1342  0.0045
 6502W        W10566   3.835   3.282   1.566  0.3248  0.1058  0.2319
 6503W        W10567   2.400   8.333   2.328  0.0939 -0.0965 -0.1237
 6504W        W10568   7.398   1.055   7.902  0.1530  0.3235  0.1573
 6505W        W10569   3.482   3.610  10.053 -0.1554  0.2735  0.0224
 6506W        W10570   6.885   6.818   0.990  0.3091 -0.1738  0.1076
 6507W        W10571   3.013   9.748   1.113 -0.1676  0.0422 -0.0133
 6508W        W10572   3.317   8.962   9.282  0.1802  0.1082 -0.1427
 6509W        W10573   4.980   1.454   3.085  0.0897  0.1278 -0.3424
 6510W        W10574   0.231   2.514   1.581 -0.1463 -0.1304  0.2643
 6511W        W10575   1.917   9.664   2.518 -0.4688 -0.0997  0.0496
 6512W        W10576   2.479   7.448   9.338  0.1758  0.1816 -0.1644
 6513W        W10577   8.902   7.182   8.103 -0.1283  0.1611  0.1770
 6514W        W10578   0.427   9.234   9.158  0.0690  0.2381  0.1904
 6515W        W10579   7.624   5.144  10.285 -0.0347  0.2254  0.0400
 6516W        W10580   7.541   4.701  10.545  0.2455 -0.0284  0.0786
 6517W        W10581   2.100   3.082   7.605 -0.1320  0.3280  0.0306
 6518W        W10582   4.382   1.888   0.018 -0.3422 -0.5195 -0.1208
 6519W        W10583   3.958   2.465   0.063 -0.2301  0.2819  0.2229
 6520W        W10584   9.583   4.645   2.477  0.0529 -0.1547 -0.0388
 6521W        W10585   8.112   4.357   1.400  0.3203  0.1619 -0.1930
 6522W        W10586   5.631   7.818   9.403 -0.1011 -0.0996  0.0594
 6523W        W10587   2.745   7.276  10.618 -0.0695 -0.0534 -0.2081
 6524W        W10588   8.508  10.313   8.984 -0.2765  0.4202 -0.0064
 6525W        W10589   6.533   1.603  10.872 -0.0935  0.1435 -0.2615
 6526W        W10590   0.691   0.287   9.784 -0.1841 -0.0066  0.0799
 6527W        W10591   7.412   7.962  10.189  0.0995  0.1365 -0.0199
 6528W        W10592   7.603  10.207   3.525 -0.2987 -0.0207  0.1810
 6529W        W10593   7.245   0.016   3.261  0.1599 -0.2573  0.3356
 6530W        W10594   4.572   3.684   0.527 -0.0454  0.0659  0.3796
 6531W        W10595   5.215   2.708   0.656  0.0503  0.2824 -0.0169
 6532W        W10596   8.966   5.709   1.869 -0.0858 -0.2835  0.0082
 6533W        W10597   3.386   2.824   0.889 -0.0201 -0.3117  0.2428
 6534W        W10598   8.446   8.172   2.988  0.1605  0.0433 -0.1549
 6535W        W10599   7.076   1.825   4.197  0.2565 -0.4853 -0.0130
 6536W        W10600   2.092   8.741   2.232 -0.0832 -0.3558 -0.1300
 6537W        W10601   6.887   7.110   1.471 -0.1551  0.1578  0.2406
 6538W        W10602  10.492   6.053   8.852 -0.0137 -0.0337 -0.1160
 6539W        W10603   3.092   1.340   7.981 -0.0801  0.0598  0.1404
 6540W        W10604   1.271  10.899   0.205  0.0409  0.2398  0.3548
 6541W        W10605   5.590   4.061   1.978 -0.0004 -0.3179  0.1972
 6542W        W10606   2.157   3.316   0.259 -0.2189 -0.1796  0.1162
 6543W        W10607   3.310   6.655   9.737 -0.2460 -0.2179 -0.1065
 6544W        W10608   1.358   8.729   8.304  0.0835 -0.0917 -0.0756
 6545W        W10609   8.798   9.271   3.486 -0.1403 -0.2057  0.0810
 6546W        W10610   4.990   3.515   7.653  0.3381 -0.2196  0.0321
 6547W        W10611  10.510   1.620   8.800  0.1227 -0.0429  0.1530
 6548W        W10612   2.953   0.914   8.993  0.1512  0.1419  0.0076
 6549W        W10613   6.316   3.055   8.637  0.2087  0.0828 -0.2184
 6550W        W10614   4.663   0.198   1.348 -0.0369  0.1624  0.0114
 6551W        W10615   2.354   3.326   1.747  0.2495  0.1679  0.0271
 6552W        W10616   6.776   7.704   2.387  0.0817  0.4406  0.1134
 6553W        W10617   4.269   9.542   8.982  0.2488  0.0011  0.0227
 6554W        W10618   1.443   8.459   1.629 -0.0859 -0.1584  0.0729
 6555W        W10619   2.438   0.313   1.544 -0.0379 -0.1037 -0.2317
 6556W        W10620   4.446   8.650   1.345 -0.0323  0.2012 -0.1199
 6557W        W10621   3.254  10.173   7.755  0.0516 -0.1718 -0.0472
 6558W        W10622   3.077   6.902   3.917  0.0229  0.1708  0.0720
 6559W        W10623   2.059   8.835   2.824 -0.0157 -0.1813  0.1189
 6560W        W10624   9.695   1.754   8.560  0.0722 -0.0623 -0.1261
 6561W        W10625   8.154   3.474   1.777 -0.2383 -0.2361  0.1008
 6562W        W10626   9.991   6.106   9.262 -0.1910  0.0451 -0.0353
 6563W        W10627   6.906   6.756  10.188  0.0649 -0.2968  0.1565
 6564W        W10628   8.774   2.927  10.451 -0.3878  0.0192 -0.0838
 6565W        W10629   5.722   3.429   9.335 -0.2948 -0.1390 -0.1751
 6566W        W10630   7.572   8.862   1.098  0.0421  0.0353 -0.0370
 6567W        W10631   8.231   8.585   0.850  0.1636  0.1218 -0.0929
 6568W        W10632   1.988  10.014  10.409  0.2601  0.0370  0.2762
 6569W        W10633   2.493   2.965   0.808 -0.1200 -0.1314 -0.0557
 6570W        W10634   3.105   2.014   3.672  0.1713  0.2174 -0.0390
 6571W        W10635  10.689   1.157   0.267  0.1039  0.2743 -0.0125
 6572W        W10636   6.598   5.527   7.093  0.2426 -0.4294  0.2297
 6573W        W10637   1.044   1.378   1.754  0.0437  0.1319  0.1149
 6574W        W10638  10.789   3.270  10.159  0.1069  0.1750  0.3107
 6575W        W10639   5.839   3.586   1.804 -0.0889 -0.1415  0.0330
 6576W        W10640   7.041   9.773  10.473  0.2890 -0.4755  0.1108
 6577W        W10641   1.897   1.189   1.750 -0.2402 -0.1939  0.0678
 6578W        W10642   6.662   6.833   2.430  0.2261 -0.0821  0.0635
 6579W        W10643   2.123   3.048   8.698  0.1132 -0.0911  0.1663
 6580W        W10644   8.414   8.327  10.380  0.0011  0.0024  0.2259
 6581W        W10645   2.670   4.175  10.610  0.1530  0.1445 -0.1667
 6582W        W10646   2.913   3.017   8.614 -0.1314  0.1172 -0.0363
 6583W        W10647   5.844   9.131   1.078 -0.0836 -0.0294 -0.1062
 6584W        W10648   5.790   1.318  10.313 -0.1363 -0.0140 -0.2014
 6585W        W10649   8.986   5.908   0.323  0.1108 -0.0321 -0.0464
 6586W        W10650   7.691   1.603   8.706 -0.0039  0.0466 -0.1176
 6587W        W10651   5.258   4.070   2.367 -0.0136 -0.1175 -0.0258
 6588W        W10652   1.496   9.079   7.239 -0.3742 -0.0580  0.0635
 6589W        W10653   5.877   9.994   0.538 -0.0049 -0.0499  0.2563
 6590W        W10654   7.954   2.302   1.308 -0.0050 -0.2695 -0.0573
 6591W        W10655   1.758   9.590   0.259 -0.1246 -0.0524  0.2736
 6592W        W10656   3.504   8.515   9.026 -0.1932 -0.0383  0.2433
 6593W        W10657   3.776   0.581   2.975  0.2421  0.0977  0.0950
 6594W        W10658   3.138   4.481   2.735 -0.0068  0.0868 -0.1367
 6595W        W10659   9.004   3.939   8.071 -0.1777 -0.1782  0.2759
 6596W        W10660   1.505   3.754   3.017 -0.1271  0.0521  0.0781
 6597W        W10661   4.525   6.332   9.379 -0.3145 -0.1322  0.0899
 6598W        W10662   9.465   4.440   9.771  0.2026  0.2555  0.2448
 6599W        W10663   1.809   8.809   0.879  0.3722  0.2738  0.1359
 6600W        W10664   0.865   6.867   0.111 -0.1672  0.1522  0.0841
 6601W        W10665   6.785   4.742   7.454 -0.0300 -0.0809  0.1664
 6602W        W10666   7.192   1.548   3.228  0.1302  0.0859 -0.1316
 6603W        W10667   3.549   4.854   8.173  0.2904  0.2754  0.4067
 6604W        W10668   4.985   9.399   1.089  0.2334  0.1182 -0.1828
 6605W        W10669   7.898   3.113   0.264 -0.1453 -0.1302 -0.0324
 6606W        W10670   6.840   9.421  10.158 -0.0523 -0.2366 -0.0093
 6607W        W10671   3.964   3.499  10.300 -0.2255 -0.0309  0.1970
 6608W        W10672   5.292   2.876   0.115  0.1575 -0.1335  0.1642
 6609W        W10673   4.360   6.040   2.430 -0.1223 -0.2138  0.2048
 6610W        W10674   9.799   7.248   8.639 -0.2225  0.0098 -0.2600
 6611W        W10675   5.674   0.126   1.590 -0.2284  0.1435 -0.1238
 6612W        W10676   0.270   4.398   9.678 -0.2752  0.0044  0.2487
 6613W        W10677   0.902   3.459  10.566  0.1672 -0.2228  0.0112
 6614W        W10678   1.681   9.696   8.479  0.3245  0.1970  0.0723
 6615W        W10679   4.674   1.378   0.378 -0.2919  0.0631  0.0458
 6616W        W10680   8.054   5.561   0.432  0.0193 -0.0655 -0.0407
 6617W        W10681   2.965   1.619   1.198 -0.0193 -0.0088 -0.4091
 6618W        W10682  10.630   4.648  10.061 -0.0706  0.2917  0.0475
 6619W        W10683   5.174   7.985   1.577  0.0114 -0.1542 -0.0856
 6620W        W10684   9.051   4.024   9.740 -0.1356 -0.0235  0.1041
 6621W        W10685   2.197   1.170   3.070 -0.1324  0.2953 -0.4949
 6622W        W10686   8.073   6.893   8.971 -0.0158 -0.0020  0.2271
 6623W        W10687   2.699   1.916   3.341 -0.0689  0.1579  0.1334
 6624W        W10688   4.544   9.609   0.336 -0.1925  0.3515  0.4571
 6625W        W10689   3.672  10.139   9.951 -0.0976 -0.2655  0.0233
 6626W        W10690   6.130   6.372   3.116  0.2829  0.0353  0.0201
 6627W        W10691   8.691   8.438   0.433  0.3097  0.0916  0.0062
 6628W        W10692   8.696   2.226  10.237 -0.1999  0.1866 -0.1822
 6629W        W10693   3.654   7.719   1.873 -0.0495  0.0684 -0.0948
 6630W        W10694   2.186   7.056   1.481  0.0838 -0.1638 -0.0946
 6631W        W10695   1.366   4.999   2.552  0.0216  0.0231  0.2425
 6632W        W10696   8.600   0.980   8.823  0.1422 -0.4313 -0.1270
 6633W        W10697   2.369   2.228   1.049 -0.1520  0.3275 -0.1485
 6634W        W10698  10.656   1.813   7.902 -0.3915  0.1015  0.0140
 6635W        W10699   9.171   0.659   9.810 -0.0551  0.1225 -0.0760
 6636W        W10700  10.326   0.033   3.070  0.0474 -0.1961 -0.1014
 6637W        W10701   7.396   4.707   9.263 -0.0008  0.1058 -0.1823
 6638W        W10702   2.156   8.033   0.380  0.0423 -0.0854  0.0677
 6639W        W10703   5.434   8.109   8.885 -0.0351 -0.3620  0.0757
 6640W        W10704   8.846  10.012   1.273 -0.1873 -0.0384  0.0576
 6641W        W10705   7.063   9.649   2.896 -0.4756 -0.0843 -0.0705
 6642W        W10706   3.141   2.091   2.995  0.0505  0.0421  0.0086
 6643W        W10707   8.018   2.561   2.146  0.0472 -0.0005  0.0388
 6644W        W10708   5.652   0.583   0.229  0.1063  0.1388  0.2710
 6645W        W10709   2.666   9.970   8.303  0.0527  0.1608 -0.0137
 6646W        W10710   6.333   4.488   1.784  0.2124  0.0474  0.2330
 6647W        W10711   6.780   2.461   7.728  0.0054 -0.0391  0.2498
 6648W        W10712   4.791   4.713   0.766  0.0530  0.0790  0.0163
 6649W        W10713  10.690   8.043   0.726  0.2414  0.1215 -0.0994
 6650W        W10714   2.475   4.057   2.499  0.0800  0.3510  0.1730
 6651W        W10715   2.992   8.780   1.699 -0.1146  0.3266  0.0363
 6652W        W10716   2.138   4.557   9.678 -0.0246  0.3149  0.1545
 6653W        W10717   2.786   0.068   9.599 -0.2537  0.1038  0.3547
 6654W        W10718   5.616   8.101   3.418  0.1958 -0.2026  0.0048
 6655W        W10719   8.935   9.185   3.947 -0.1268 -0.1405  0.0524
 6656W        W10720   6.185   8.064   1.781  0.0503  0.1514  0.0144
 6657W        W10721   2.698   3.211   9.457 -0.3483  0.1349 -0.2480
 6658W        W10722  10.641  10.538   8.463  0.0650 -0.0426  0.2603
 6659W        W10723   6.772   0.884   3.286 -0.2191  0.3429 -0.0660
 6660W        W10724   6.199   3.639  10.187  0.1139  0.1068  0.0167
 6661W        W10725   6.020   5.971   7.601  0.2735  0.1507  0.1593
 6662W        W10726   8.691   8.810   1.993  0.0237 -0.0753  0.3205
 6663W        W10727   8.217   6.729  10.495 -0.0975 -0.1320  0.1518
 6664W        W10728   1.171   6.206   8.536  0.1174 -0.0636 -0.3233
 6665W        W10729   0.975   3.262  10.037 -0.2153 -0.0372 -0.1518
 6666W        W10730  10.138   3.576   8.165  0.1041 -0.1179 -0.0332
 6667W        W10731   0.879   0.506  10.707 -0.1315 -0.0246  0.1030
 6668W        W10732   9.039   7.188   1.683  0.1021 -0.1090  0.2917
 6669W        W10733   9.268   4.736   9.245 -0.2351  0.0712 -0.0693
 6670W        W10734   2.146   1.047   8.913 -0.0677  0.3108  0.8988
 6671W        W10735  10.381   1.027   2.028  0.0704 -0.0073  0.2609
 6672W        W10736   3.688   4.287   3.285 -0.1426 -0.0951  0.1819
 6673W        W10737  10.209   2.929   9.419  0.0375  0.1473 -0.3030
 6674W        W10738   3.356   4.204   1.887 -0.0882  0.1242 -0.0176
 6675W        W10739   3.772   5.602   7.565 -0.1506  0.1144  0.0479
 6676W        W10740   0.595   1.232   0.164 -0.1258  0.2372  0.0416
 6677W        W10741   3.426   5.921   2.419  0.1866  0.1015 -0.0229
 6678W        W10742   6.465   7.927   1.453  0.2653  0.2594  0.2699
 6679W        W10743   6.966   6.431   0.637  0.0699 -0.1328 -0.0727
 6680W        W10744   3.167   6.256   1.272 -0.0927  0.1403  0.1203
 6681W        W10745   1.638   4.509   8.487  0.2437  0.1614 -0.0220
 6682W        W10746   2.697   2.023   7.955  0.2479 -0.1431  0.1686
 6683W        W10747   1.634  10.263   4.241  0.1840 -0.4460 -0.2569
 6684W        W10748   3.646   6.985  10.846  0.1270  0.0931  0.0849
 6685W        W10749   0.737   4.773   1.040 -0.0490 -0.1002 -0.4439
 6686W        W10750   8.330   2.097   1.078  0.1336 -0.0241 -0.1565
 6687W        W10751   4.805   1.970   8.181  0.1508  0.1228  0.0168
 6688W        W10752   0.814   0.895   1.856 -0.1466  0.0312  0.0764
 6689W        W10753   3.085   4.862  10.769  0.0411  0.1995 -0.1508
 6690W        W10754   4.545   0.254   3.504  0.0455 -0.1477  0.1264
 6691W        W10755   8.710   7.996   3.760 -0.1013  0.0957  0.1254
 6692W        W10756   4.632   1.823   2.957 -0.0345  0.0840  0.0936
 6693W        W10757   1.769   4.156   9.592 -0.0207  0.2371 -0.1751
 6694W        W10758   0.568  10.154   3.111  0.0010 -0.2231  0.2412
 6695W        W10759   9.525   3.617   0.755 -0.0361  0.2467 -0.1675
 6696W        W10760   8.426  10.612   9.904 -0.0722 -0.2028 -0.0773
 6697W        W10761   7.509   1.702  10.186 -0.3522 -0.2324 -0.0777
 6698W        W10762   6.257   9.129   2.420 -0.1200 -0.3089 -0.2269
 6699W        W10763   4.671   0.321   8.536 -0.0629  0.3173  0.1456
 6700W        W10764   8.228   1.706   0.806 -0.1019  0.0333 -0.1744
 6701W        W10765   6.868   7.728   1.128 -0.3863 -0.0798  0.1742
 6702W        W10766   1.175   8.681   3.160  0.1448 -0.0687  0.1936
 6703W        W10767   9.553  10.906   3.421 -0.0965 -0.4854 -0.2624
 6704W        W10768   6.141   5.216   3.797 -0.0462  0.2717  0.2591
 6705W        W10769   9.046   4.275   1.915 -0.1219  0.1818 -0.2628
 6706W        W10770   2.998  10.799   8.313 -0.0750 -0.0939 -0.1124
 6707W        W10771  10.792   3.299   8.566 -0.3540  0.1887 -0.2101
 6708W        W10772   8.008   0.534   8.225 -0.1453  0.3795 -0.0639
 6709W        W10773   3.634   7.761   9.363  0.1411  0.2630 -0.1041
 6710W        W10774   5.594   7.461   7.851  0.2849  0.1287  0.1156
 6711W        W10775   5.194   1.421  10.182 -0.1071 -0.3007  0.2546
 6712W        W10776   1.096   4.253  10.047  0.1329  0.1501  0.2110
 6713W        W10777  10.272   6.835   7.762  0.3342 -0.1856 -0.1976
 6714W        W10778   8.244   8.716  10.630 -0.0735  0.0383 -0.0633
 6715W        W10779   4.898   1.183   1.142  0.2891  0.0825 -0.1291
 6716W        W10780   2.208   8.350   8.052 -0.3256 -0.2054  0.1024
 6717W        W10781   6.349   0.715   0.998  0.3289 -0.1178 -0.4183
 6718W        W10782   0.331   2.189   7.583 -0.2294 -0.4457  0.0625
 6719W        W10783   7.048   2.073  10.160 -0.3114  0.1637 -0.1436
 6720W        W10784   1.353   6.280   2.182  0.2181 -0.1685  0.0703
 6721W        W10785   0.956   9.682  10.572 -0.0378 -0.1465 -0.0251
 6722W        W10786   8.529   6.799   9.149 -0.1995  0.2048  0.0997
 6723W        W10787   8.848   9.796   3.492  0.2224 -0.0498  0.1014
 6724W        W10788   3.392   6.146   7.348 -0.2460  0.0908  0.0408
 6725W        W10789   8.472   2.758  10.083  0.0517  0.0554 -0.3743
 6726W        W10790   0.297   0.699   9.776 -0.0934 -0.4239 -0.2075
 6727W        W10791   6.881   1.378   1.392 -0.0223 -0.0900  0.1581
 6728W        W10792   8.599   6.486   7.606  0.0270 -0.1302 -0.1647
 6729W        W10793   9.487   5.743   0.468 -0.3159 -0.2198 -0.0240
 6730W        W10794   8.667   1.943   4.243  0.0616 -0.0758 -0.1317
 6731W        W10795   2.799   6.298   3.679 -0.0304  0.0690 -0.1080
 6732W        W10796   4.294   8.938   1.764  0.3172 -0.1845 -0.1663
 6733W        W10797   7.619   2.518   3.863 -0.3784  0.2095 -0.0983
 6734W        W10798   0.035   8.703   0.977 -0.1801  0.2255 -0.1318
 6735W        W10799  10.392   9.606   2.537  0.1423 -0.1233  0.2610
 6736W        W10800   7.614   4.238  10.373 -0.2797 -0.0888 -0.0180
 6737W        W10801  10.614   3.248   9.021  0.0651 -0.0971 -0.1458
 6738W        W10802   3.925   3.190   2.437  0.1202  0.3291 -0.1404
 6739W        W10803   3.199   2.553   1.366 -0.2710  0.1927  0.0243
 6740W        W10804   9.051   8.716   2.750 -0.3153 -0.0229 -0.1308
 6741W        W10805   7.742   7.840   3.351  0.2611 -0.1955 -0.0827
 6742W        W10806   6.041   5.037   1.063  0.2700 -0.0609 -0.1536
 6743W        W10807   7.935   4.437   8.063 -0.0209 -0.0569  0.2504
 6744W        W10808   9.707  10.157  10.574  0.0828  0.0297  0.0770
 6745W        W10809   5.114   5.511   1.393  0.2323 -0.0323 -0.2084
 6746W        W10810   3.928   7.326   2.582  0.2918  0.1975 -0.4232
 6747W        W10811   3.324   7.169  10.448 -0.0599  0.1992 -0.0910
 6748W        W10812   5.624   4.472   7.712  0.2252 -0.0134  0.0599
 6749W        W10813   9.775   3.995   0.436 -0.2131  0.0605  0.1969
 6750W        W10814   6.751   8.760   7.669  0.0102  0.1535  0.0094
 6751W        W10815   1.481   8.373   7.934 -0.0806 -0.1086 -0.3182
 6752W        W10816   5.114  10.929   3.154 -0.0496  0.0941 -0.4232
 6753W        W10817   5.988   7.690  10.839  0.0584  0.1094 -0.0360
 6754W        W10818   4.108   1.589   0.308  0.2154 -0.0836  0.0319
 6755W        W10819   8.016   9.183   8.861 -0.1834  0.0103  0.3393
 6756W        W10820   5.889   8.170   2.177  0.1215  0.3842 -0.0573
 6757W        W10821   5.364   4.519   2.162 -0.2012 -0.2375 -0.1742
 6758W        W10822   2.277   2.243   9.979 -0.0464 -0.2367 -0.0944
 6759W        W10823   3.115  10.074   1.935  0.0976  0.2742 -0.0913
 6760W        W10824   7.507   2.030   2.442 -0.0162  0.0527 -0.0045
 6761W        W10825   9.229   3.740   7.597  0.1878  0.0023 -0.0937
 6762W        W10826   8.995   5.426  10.727 -0.0356 -0.1392  0.0495
 6763W        W10827   9.775   3.576   8.552 -0.1527 -0.4546  0.0323
 6764W        W10828   5.698  10.276   7.644  0.2455 -0.4569  0.0678
 6765W        W10829   5.614   0.125   2.953 -0.4719 -0.1030 -0.2828
 6766W        W10830   4.615   6.284   8.052  0.0949 -0.0078  0.0164
 6767W        W10831   7.567   8.626   0.590  0.1439 -0.2513  0.0779
 6768W        W10832  10.462   8.710   8.255  0.1077  0.1647  0.0274
 6769W        W10833   8.633   6.917  10.270  0.2248 -0.3497  0.0263
 6770W        W10834   0.557   9.054   8.250 -0.0539  0.1223 -0.1110
 6771W        W10835   1.584   4.916   0.071 -0.3289  0.1343  0.0204
 6772W        W10836   3.562   5.827  10.092 -0.2282  0.2306 -0.1026
 6773W        W10837   0.960   4.262   9.109 -0.1980 -0.0035  0.0618
 6774W        W10838   9.145   4.853   1.235  0.0097  0.0373 -0.2121
 6775W        W10839   7.172   3.225   0.089 -0.3367  0.1741  0.0287
 6776W        W10840  10.393   4.807   8.463  0.3043  0.0188  0.0231
 6777W        W10841   7.303   1.417   0.231 -0.0138 -0.0135 -0.1453
 6778W        W10842   4.588   4.790   1.771  0.2045  0.1177 -0.0700
 6779W        W10843   6.784  10.257   1.858 -0.2986  0.3090  0.1981
 6780W        W10844   6.575  10.319   0.902 -0.4461  0.0482 -0.0239
 6781W        W10845   7.140   7.803   8.290 -0.1782 -0.2097 -0.0535
 6782W        W10846   7.526   1.149   2.152 -0.1453  0.2567 -0.0224
 6783W        W10847   3.517   8.172   7.354  0.3212  0.3566 -0.1023
 6784W        W10848   6.642   4.141   2.037  0.1183 -0.2176  0.3777
 6785W        W10849   0.984   0.933   0.909 -0.1136 -0.1996  0.0887
 6786W        W10850   9.192   8.453   9.044 -0.1082  0.0707  0.2155
 6787W        W10851  10.884   1.787   9.128 -0.1024  0.0166  0.0360
 6788W        W10852   6.334   2.906   1.072 -0.3716 -0.0625 -0.2211
 6789W        W10853   5.694   5.274   8.782 -0.2520  0.2928  0.0527
 6790W        W10854   5.182   1.156   0.151  0.0059 -0.1621  0.0680
 6791W        W10855   2.566   8.862   2.888 -0.0349  0.0097  0.2308
 6792W        W10856   2.631  10.800  10.439 -0.0892  0.0711 -0.0103
 6793W        W10857   1.852   2.219  10.264  0.2007  0.5436  0.0598
 6794W        W10858   0.467   3.175   2.572 -0.1531  0.0257 -0.0301
 6795W        W10859   2.308  10.274   9.714  0.1441 -0.1021  0.1116
 6796W        W10860   9.245  10.013   2.566 -0.2642  0.0832 -0.0858
 6797W        W10861   9.766   6.800   0.315  0.0126 -0.0332 -0.2464
 6798W        W10862   8.960   1.895   8.556  0.1225  0.2285  0.1379
 6799W        W10863   8.974   6.619   7.907  0.0609 -0.2745  0.0758
 6800W        W10864   1.130  10.894   2.885 -0.0907  0.1343 -0.2088
 6801W        W10865   6.949   5.695   2.905  0.1433 -0.5100 -0.0449
 6802W        W10866   1.137  10.876  10.366  0.0194  0.1926 -0.2069
 6803W        W10867   5.192   7.080  10.104 -0.0767  0.1302  0.1237
 6804W        W10868   9.271   8.397   3.526 -0.0571  0.0985 -0.1337
 6805W        W10869   6.040   7.623   9.184  0.2554 -0.0706  0.0044
 6806W        W10870   7.976  10.690   2.257  0.0065  0.3400 -0.0013
 6807W        W10871   0.254   6.491   8.637 -0.1281 -0.0063  0.0535
 6808W        W10872   5.260   9.307   1.600 -0.0845 -0.0905 -0.0486
 6809W        W10873   9.444   9.251   2.325 -0.1461 -0.0943 -0.0184
 6810W        W10874   8.151   1.551  10.942 -0.0228  0.0374 -0.3596
 6811W        W10875   2.857   2.117   1.119 -0.3035  0.3604 -0.2463
 6812W        W10876   3.695   7.110   8.019 -0.0928  0.0128  0.2390
 6813W        W10877   4.452  10.772   0.523 -0.1156 -0.0096  0.2998
 6814W        W10878   4.831   3.506   1.998  0.0865 -0.0438  0.1557
 6815W        W10879   2.779   5.012  10.080 -0.0832 -0.1080 -0.0301
 6816W        W10880   8.646   1.011   7.638 -0.0760 -0.0797  0.0823
 6817W        W10881   1.336   9.296   8.861  0.0765 -0.1512 -0.0710
 6818W        W10882   3.713   9.419   4.186 -0.3960 -0.2072 -0.1313
 6819W        W10883   0.423   7.788   9.300 -0.2098 -0.0502 -0.0933
 6820W        W10884   2.323   4.559   3.519  0.0884  0.2127 -0.4784
 6821W        W10885   4.196   7.280  10.952 -0.0217  0.3469 -0.0333
 6822W        W10886   7.920   7.316   9.870  0.2374 -0.0232  0.0748
 6823W        W10887   7.770   6.444   8.682  0.4072 -0.1026  0.0387
 6824W        W10888   8.702   2.113   9.407  0.0302  0.0410 -0.1339
 6825W        W10889   5.947   6.527   9.824  0.0999  0.1188  0.0855
 6826W        W10890   5.241   9.973   9.881 -0.0081 -0.1741 -0.2293
 6827W        W10891   3.889   6.286   0.425 -0.0327 -0.0210  0.0211
 6828W        W10892   8.108   1.364   8.450 -0.1350  0.2469  0.2031
 6829W        W10893   3.526   6.628   0.625  0.0460 -0.5353 -0.1140
 6830W        W10894   4.724   9.829   1.306 -0.0730  0.1062  0.1347
 6831W        W10895   9.797   9.428   8.696  0.1340  0.1102  0.0823
 6832W        W10896   7.987   7.658   2.475  0.2888  0.2874 -0.1106
 6833W        W10897   9.330   2.364   2.390 -0.1205 -0.0491  0.2003
 6834W        W10898   8.650   6.008   3.325 -0.0447  0.2139  0.1496
 6835W        W10899   2.261   5.493   8.293 -0.2490  0.0614 -0.2388
 6836W        W10900   4.327   1.062   0.223 -0.2466  0.2264  0.0194
 6837W        W10901   1.559   8.584   2.769  0.2849 -0.2105  0.0011
 6838W        W10902   8.979   4.725   1.698  0.2869  0.0687  0.0778
 6839W        W10903   3.997   7.426  10.515  0.0675  0.2025  0.0874
 6840W        W10904   3.532   1.368   2.276  0.0875  0.1315  0.0779
 6841W        W10905   2.234   7.377   9.852 -0.1192  0.1217  0.1945
 6842W        W10906   0.817   1.006   8.193  0.1339  0.1775  0.1160
 6843W        W10907   7.504   8.374   3.205 -0.3203  0.3025  0.0952
 6844W        W10908   7.708   6.747   8.246  0.1479  0.2785  0.0713
 6845W        W10909  10.034  10.855   2.663  0.0355  0.0582 -0.2018
 6846W        W10910   3.360   7.890   7.716  0.0753 -0.4008  0.0533
 6847W        W10911   7.964   2.833   8.203  0.2376  0.1023  0.1173
 6848W        W10912   6.085   2.386   3.352  0.4306 -0.0950  0.0123
 6849W        W10913   7.138  10.555   7.834  0.3935  0.2019 -0.2151
 6850W        W10914   0.689   6.385   8.325  0.0521 -0.1606  0.0164
 6851W        W10915   8.435   4.333   1.048  0.0447 -0.0175 -0.0046
 6852W        W10916   8.893   8.532   8.593  0.0378  0.2919 -0.3403
 6853W        W10917   2.386   9.848   7.497 -0.1296 -0.0188 -0.3811
 6854W        W10918   6.094   0.925  10.551 -0.2166 -0.0855  0.2083
 6855W        W10919   5.462   5.857   1.097 -0.1001  0.1728 -0.0332
 6856W        W10920   6.983   1.560   9.140 -0.1858 -0.2150 -0.1336
 6857W        W10921   9.652   6.162  10.746 -0.1270  0.0862  0.2780
 6858W        W10922   2.139   3.422   0.910  0.0892 -0.1822  0.3299
 6859W        W10923   4.585   1.138   8.104  0.0205 -0.0559 -0.0212
 6860W        W10924   6.331   0.204   1.172 -0.0179  0.0708  0.1189
 6861W        W10925   7.702   9.086   1.514 -0.1746  0.0130  0.1539
 6862W        W10926   8.124   5.098   3.414  0.0481 -0.1005 -0.0600
 6863W        W10927   0.828   7.429   6.983  0.1887 -0.2940  0.0526
 6864W        W10928   4.295  10.091   7.650 -0.2541  0.1863 -0.0516
 6865W        W10929   9.478   0.909  10.155  0.0245  0.4795 -0.2095
 6866W        W10930   5.359   9.607   8.323  0.1444  0.1619 -0.0690
 6867W        W10931   0.086   7.680   0.646  0.0499  0.0913  0.0214
 6868W        W10932  10.599   5.844   8.398 -0.0767  0.1024 -0.0882
 6869W        W10933   1.087  10.439   7.821  0.0936 -0.3272  0.2791
 6870W        W10934   6.109   6.935   0.403  0.2544  0.2564  0.0431
 6871W        W10935   4.070   8.443   3.964  0.1992  0.0091 -0.2576
 6872W        W10936   0.782   8.177   0.412  0.1146 -0.0869 -0.3106
 6873W        W10937   9.031   4.895   8.219 -0.1294  0.1768  0.2835
 6874W        W10938   2.177   4.962   8.098  0.0108 -0.1526 -0.0106
 6875W        W10939   7.436   0.440   2.624  0.1927 -0.1566 -0.1780
 6876W        W10940   8.013  10.323   9.683  0.0662  0.0806  0.1010
 6877W        W10941   0.931   9.141   0.753 -0.2577 -0.3016 -0.1504
 6878W        W10942   0.192   5.694  10.350 -0.0347 -0.2870 -0.2160
 6879W        W10943   6.343   9.320   1.002  0.0680  0.0494  0.0801
 6880W        W10944   9.699   0.495   6.840 -0.1119 -0.1576 -0.3441
 6881W        W10945   9.339   4.151   2.358  0.1900 -0.2142 -0.0383
 6882W        W10946   3.632   9.270   7.699  0.0016 -0.3048  0.5377
 6883W        W10947   9.895   9.573   9.669 -0.0907  0.1335  0.2163
 6884W        W10948   9.549   4.985   3.415 -0.1467  0.4555  0.1565
 6885W        W10949   0.269   1.830   7.119 -0.2461  0.1232 -0.0736
 6886W        W10950   8.596   7.038   7.771  0.0447 -0.1610  0.0937
 6887W        W10951   1.475  10.789   9.974  0.0956 -0.0703 -0.0246
 6888W        W10952   2.833   1.349   1.601 -0.2848  0.0900 -0.0946
 6889W        W10953   1.104   4.202   8.067 -0.1387 -0.0769  0.0378
 6890W        W10954  10.235   0.190   2.291 -0.0170  0.2801 -0.1515
 6891W        W10955  10.290   2.405   1.001  0.0197  0.2093 -0.1855
 6892W        W10956   0.469   0.049   9.215  0.1573 -0.0991  0.0280
 6893W        W10957   7.041   4.685   7.918  0.1532  0.0215  0.0695
 6894W        W10958   5.069   5.587   9.211 -0.1636  0.0728 -0.3234
 6895W        W10959   3.768  10.747   2.587 -0.0820  0.1549 -0.1262
 6896W        W10960   3.022   3.749  10.273  0.1473  0.0653  0.0369
 6897W        W10961   2.566   1.999  10.793 -0.2235 -0.4152  0.0596
 6898W        W10962   6.084   6.330  10.224 -0.2508  0.1950 -0.0015
 6899W        W10963   3.044   0.706   2.053  0.4744  0.2613  0.2205
 6900W        W10964   1.291   2.579   7.465  0.1060 -0.3702  0.2166
 6901W        W10965   8.918   1.001   8.407  0.1872 -0.0649 -0.1111
 6902W        W10966   5.090   5.050   0.599 -0.2923  0.1661  0.0097
 6903W        W10967  10.266   3.128   0.185  0.0814  0.2233 -0.3488
 6904W        W10968   8.494   6.551  10.961 -0.1874 -0.4538 -0.0880
 6905W        W10969  10.874   1.090   2.111  0.0377 -0.1202  0.2025
 6906W        W10970  10.665   5.334   2.185 -0.3563 -0.0499  0.0854
 6907W        W10971   0.979   9.781   3.120 -0.0312 -0.2279 -0.1528
 6908W        W10972   4.401   7.261   0.426  0.2382 -0.2752 -0.0394
 6909W        W10973   3.026   8.531  10.531 -0.1461 -0.1503  0.0537
 6910W        W10974   9.970   0.946   8.386 -0.2199  0.2289  0.1611
 6911W        W10975   5.811   0.952   1.131 -0.1701 -0.5494  0.0112
 6912W        W10976   7.451   2.354  10.073 -0.1112  0.0726  0.0306
 6913W        W10977   3.287   6.231   8.270 -0.1150 -0.0151  0.0265
 6914W        W10978   3.313  10.730   8.729  0.1237 -0.0493  0.0018
 6915W        W10979   0.433   9.756   9.779 -0.1787  0.0268  0.0793
 6916W        W10980   7.655   2.136   9.295 -0.0050 -0.0024  0.1688
 6917W        W10981  10.170   2.653   2.971  0.1337  0.3480  0.1872
 6918W        W10982   9.506   7.038   2.260 -0.0580 -0.3962  0.0098
 6919W        W10983   4.583   6.884  10.912 -0.0082  0.1789 -0.0482
 6920W        W10984   8.532   5.170  10.504 -0.1219  0.3286  0.0110
 6921W        W10985   0.111   5.941   0.142 -0.0298 -0.1018 -0.0241
 6922W        W10986   0.754  10.410   8.653 -0.2649 -0.1518 -0.3068
 6923W        W10987   7.870   0.123   9.063  0.1743  0.1110 -0.0741
 6924W        W10988  10.928   0.084  10.471 -0.1857  0.1474 -0.0223
 6925W        W10989   2.666   7.952   7.208  0.3781  0.0313  0.2561
 6926W        W10990   4.179   8.239   8.251 -0.1730  0.1121 -0.0121
 6927W        W10991   7.958   7.964   0.037  0.0166 -0.0986  0.0204
 6928W        W10992   1.238   6.622   8.249  0.1661 -0.2038  0.1580
 6929W        W10993  10.801   2.902   3.367  0.3591  0.0443  0.2171
 6930W        W10994   9.470   5.015   2.127  0.2001 -0.2287  0.0799
 6931W        W10995   6.468   8.958  10.682  0.1621 -0.0858  0.0246
 6932W        W10996   4.200  10.530   2.734 -0.2498 -0.3640  0.0153
 6933W        W10997   1.326   2.052   7.968 -0.2595 -0.3382 -0.4018
 6934W        W10998   3.635   1.284   1.784  0.1364 -0.0915 -0.0026
 6935W        W10999   9.561   0.693   1.104 -0.2541 -0.1090 -0.1526
 6936W        W11000   7.838   0.163   0.490 -0.2515  0.6289  0.1011
 6937W        W11001   7.643   8.484   8.071  0.0708 -0.0956 -0.0565
 6938W        W11002   8.755   5.483   2.220 -0.1417  0.0810 -0.2293
 6939W        W11003   7.955   8.288  10.587  0.2602  0.1205  0.4675
 6940W        W11004   7.028   0.289   7.581  0.1195  0.1487 -0.0090
 6941W        W11005   0.026   6.416   1.745  0.0310  0.3293 -0.2428
 6942W        W11006   6.694   9.483   2.581  0.0620 -0.1020 -0.0749
 6943W        W11007   5.962   2.812   0.717  0.3179  0.2138 -0.3838
 6944W        W11008   7.483   5.247   8.740 -0.0175 -0.0153  0.0661
 6945W        W11009  10.651   4.320   8.225 -0.0818 -0.2365 -0.2387
 6946W        W11010   3.898   1.818   9.867 -0.4566 -0.0326 -0.1388
 6947W        W11011   1.407   3.482  10.655 -0.1167 -0.3546  0.1434
 6948W        W11012   6.523  10.576   8.741  0.1372  0.2633  0.0309
 6949W        W11013   8.205   6.222  10.638 -0.1004  0.1657 -0.1555
 6950W        W11014   6.952   4.099   9.858  0.1091 -0.0831 -0.0271
 6951W        W11015   2.793   3.192  10.428  0.0403  0.1147  0.0954
 6952W        W11016   3.520   5.587   8.199  0.1562 -0.1895 -0.0864
 6953W        W11017  10.037   1.433   4.447  0.2029 -0.2094 -0.1584
 6954W        W11018   1.196   3.487   9.056 -0.1533 -0.0425  0.2540
 6955W        W11019   1.639   3.628   1.229 -0.2179  0.0413 -0.0023
 6956W        W11020   3.741   7.600   1.084 -0.1323 -0.4811  0.1963
 6957W        W11021   9.417   7.970   0.393  0.0952 -0.0209 -0.1090
 6958W        W11022   5.683   8.373   0.485 -0.2430 -0.1363 -0.2396
 6959W        W11023   0.989   2.006   9.218 -0.1297 -0.0194 -0.0754
 6960W        W11024   4.622  10.549  10.964  0.0967  0.0166  0.0068
 6961W        W11025  10.926  10.459  10.456 -0.2978  0.1180 -0.0975
 6962W        W11026   0.078   6.048   8.693 -0.2079  0.3356 -0.0552
 6963W        W11027   5.549   8.478   9.208  0.0576  0.2556  0.3444
 6964W        W11028   6.878   6.734  10.684 -0.0005  0.1954 -0.2388
 6965W        W11029   5.795   2.668   7.609 -0.1839 -0.0351 -0.2234
 6966W        W11030   4.404   6.872   9.598  0.1044  0.0058 -0.1491
 6967W        W11031   5.602   6.033   3.030 -0.2296 -0.1387 -0.1579
 6968W        W11032   0.069  10.540   2.489  0.1839  0.3341  0.0806
 6969W        W11033   6.390   7.251   9.987 -0.0911  0.2387 -0.1829
 6970W        W11034   7.083   4.989   2.229 -0.4602  0.2264 -0.3848
 6971W        W11035   2.667   2.160   2.901  0.0840 -0.0765 -0.1249
 6972W        W11036   9.552   2.384   9.306  0.0342  0.0942 -0.1123
 6973W        W11037   3.557   8.024   3.038  0.0209  0.1642  0.3150
 6974W        W11038   8.312   7.495   3.890 -0.1470  0.1037 -0.2071
 6975W        W11039  10.774   7.903   0.198  0.0141 -0.1201 -0.1985
 6976W        W11040  10.812   9.205   9.046 -0.3199  0.0878  0.2288
 6977W        W11041   0.402   0.279   1.106  0.2228  0.2856 -0.1278
 6978W        W11042   3.559   6.205   9.724  0.0757 -0.0513  0.0284
 6979W        W11043   1.152   0.946   1.460  0.1478  0.3888  0.0011
 6980W        W11044   0.295   8.685   2.942 -0.1720 -0.0751 -0.0612
 6981W        W11045  10.758   9.295   9.564 -0.1918 -0.0705 -0.0245
 6982W        W11046   2.684   5.519   9.308  0.0695 -0.2725 -0.0863
 6983W        W11047   1.203   4.089   7.481 -0.2704  0.0257  0.2404
 6984W        W11048   1.986   4.006   2.222 -0.2095  0.0561 -0.4340
 6985W        W11049   8.462   7.867   3.343 -0.1786 -0.1104 -0.3619
 6986W        W11050   5.913   2.089   2.640  0.6738 -0.0613 -0.0601
 6987W        W11051   2.900   4.679   0.373 -0.0745  0.1148 -0.0342
 6988W        W11052   3.696   4.875  10.415  0.1839  0.0922  0.0957
 6989W        W11053   8.582   5.323   2.664 -0.1345  0.1217 -0.0890
 6990W        W11054   9.530   8.756   2.495 -0.0188  0.2678 -0.1482
 6991W        W11055   3.745   4.029   8.688 -0.2311  0.1795 -0.0392
 6992W        W11056   6.083   5.791   1.785 -0.3229  0.0862 -0.0236
 6993W        W11057   6.769   6.337   8.554  0.1034 -0.0465 -0.1040
 6994W        W11058   0.438  10.752   2.259  0.0017  0.1891 -0.0762
 6995W        W11059   3.675   2.636   8.354 -0.0425  0.1316  0.1742
 6996W        W11060   9.537   9.630   2.672  0.1473 -0.2475  0.0616
 6997W        W11061   4.025   6.474   2.389 -0.0522  0.1714  0.2040
 6998W        W11062   0.413   6.651   1.993 -0.0748  0.0079  0.0104
 6999W        W11063   6.831   5.283  10.325  0.1208  0.0225  0.0272
 7000W        W11064   5.527   3.061   0.894  0.2534 -0.1633  0.0947
 7001W        W11065   1.237   8.799   0.493  0.1096  0.1643 -0.1242
 7002W        W11066   1.354   4.946  10.614 -0.0984  0.1394 -0.2229
 7003W        W11067   8.672   6.885   8.609 -0.2016 -0.4182 -0.0921
 7004W        W11068   1.998   1.422   2.671 -0.4072  0.0192 -0.2356
 7005W        W11069   4.136   9.419  10.554 -0.1093 -0.0909  0.1434
 7006W        W11070   6.181   2.034   7.016  0.3577 -0.0850  0.2058
 7007W        W11071   7.851   9.548  10.326 -0.1580  0.0207  0.0512
 7008W        W11072   8.788   2.310   3.137 -0.3803 -0.1403  0.1719
 7009W        W11073   5.448   8.268  10.295 -0.4682  0.2068  0.0723
 7010W        W11074   7.818  10.729  10.442 -0.1247 -0.3445 -0.3142
 7011W        W11075   6.592   3.658   1.847  0.1875 -0.0982 -0.1511
 7012W        W11076   6.019   0.360   0.827 -0.1447  0.0179 -0.3114
 7013W        W11077   1.291   7.876   7.818 -0.0289  0.1417 -0.1335
 7014W        W11078  10.095   2.946   8.838 -0.0660 -0.1708 -0.0232
 7015W        W11079   2.231   2.350   1.906  0.2258 -0.1697 -0.0655
 7016W        W11080   5.719   4.025   7.974 -0.2911  0.1823 -0.0439
 7017W        W11081   2.535   1.010   9.297  0.2683  0.1361 -0.2080
 7018W        W11082   0.451   9.057   0.942  0.1285  0.0652  0.1757
 7019W        W11083   9.296  10.669   2.143  0.4931 -0.1795 -0.1632
 7020W        W11084   3.745   3.844   7.486  0.2780 -0.0943 -0.0035
 7021W        W11085   5.581   7.002   2.574 -0.0835  0.2940  0.1906
 7022W        W11086   7.545   3.355   3.320 -0.0213  0.1413  0.0711
 7023W        W11087   2.357   9.155   8.069  0.1250 -0.0327 -0.0541
 7024W        W11088   9.376   1.948   6.752  0.2382  0.1943 -0.0983
 7025W        W11089  10.846   8.333   9.554  0.2355 -0.1402  0.2602
 7026W        W11090   5.883   1.234   8.616  0.0995  0.2352  0.2020
 7027W        W11091   0.320  10.281   2.123  0.0063  0.1650 -0.0122
 7028W        W11092   7.443   1.243   9.901  0.1890  0.0158  0.0107
 7029W        W11093   4.270   0.977   8.872  0.0061 -0.2213 -0.1107
 7030W        W11094   3.602   1.673   0.577  0.0379 -0.0091 -0.0171
 7031W        W11095   2.300   0.933   0.245 -0.1229  0.0296 -0.6552
 7032W        W11096   3.833   6.303   7.560  0.1112 -0.0843 -0.0052
 7033W        W11097  10.303  10.106   8.722  0.1294  0.1297 -0.0867
 7034W        W11098   0.885   6.482   2.144  0.2478 -0.0832  0.1361
 7035W        W11099   7.012   0.631   0.518 -0.2108 -0.1269  0.3061
 7036W        W11100   1.430   8.730   0.055 -0.0224 -0.0116 -0.1435
 7037W        W11101   4.416   6.652   0.527 -0.0884 -0.0166  0.0967
 7038W        W11102   7.983   5.114   8.748 -0.1873 -0.0758 -0.0939
 7039W        W11103   4.803   5.949   2.149  0.0522 -0.3311 -0.3492
 7040W        W11104   5.131   9.179   8.056  0.2042 -0.3785 -0.1387
 7041W        W11105  10.082   7.987   2.276 -0.2769  0.1703  0.0314
 7042W        W11106  10.158   0.319   0.269 -0.0809  0.0736 -0.1284
 7043W        W11107   4.720   2.763   1.653  0.0852  0.1763 -0.1548
 7044W        W11108   8.296   0.821   9.179  0.0899  0.0015  0.2973
 7045W        W11109   3.999   3.290   9.200  0.1586 -0.1676 -0.1303
 7046W        W11110   2.048   0.557   7.987 -0.0630  0.0972  0.2207
 7047W        W11111   1.938   5.686   1.004  0.0314 -0.1155  0.1007
 7048W        W11112   9.058   9.487   1.385 -0.0339 -0.2509  0.3009
 7049W        W11113   7.925   3.317   2.857  0.2157 -0.0407  0.1899
 7050W        W11114   8.075   4.677   8.485 -0.1144 -0.0687 -0.1204
 7051W        W11115   9.181   1.348  10.867  0.3145 -0.0047  0.1428
 7052W        W11116   3.148   3.393   1.430  0.3929 -0.1981  0.1960
 7053W        W11117   7.855   8.159   1.460 -0.2118  0.0292  0.0128
 7054W        W11118   7.317   5.093   1.233 -0.4362 -0.2717 -0.1427
 7055W        W11119   8.881   5.420  10.150 -0.0183  0.1224 -0.1179
 7056W        W11120   7.188   6.463   1.081  0.0614  0.0661 -0.1640
 7057W        W11121   4.719   0.750   9.873  0.4211 -0.0430 -0.1378
 7058W        W11122   9.648   6.378   3.477 -0.0323 -0.1068 -0.1705
 7059W        W11123   9.115   6.709   8.416  0.0336 -0.2470 -0.0560
 7060W        W11124   3.668   5.167   7.773  0.3203 -0.0362  0.0086
 7061W        W11125   6.204   8.210   8.332 -0.0493 -0.0740  0.0817
 7062W        W11126   6.766   7.712   8.738  0.1271  0.0939 -0.3946
 7063W        W11127   2.512   7.549   0.424  0.1596 -0.0518 -0.2778
 7064W        W11128   6.142   5.406  10.607 -0.0228 -0.0515  0.1992
 7065W        W11129   3.169   8.595   0.843  0.0875  0.0539  0.0804
 7066W        W11130   8.998   8.406   0.015  0.2971 -0.0970 -0.1008
 7067W        W11131  10.713   8.982   1.320 -0.0183  0.0161  0.2556
 7068W        W11132   9.383   2.326   9.797  0.4909  0.2059 -0.0837
 7069W        W11133   9.447   5.404   6.933  0.2886  0.0230  0.0242
 7070W        W11134   6.352   7.698   2.903 -0.1191 -0.1838  0.0429
 7071W        W11135   8.097   1.783   1.785  0.0757 -0.0441  0.1282
 7072W        W11136   8.045   7.411   1.351 -0.2389  0.0227  0.0104
 7073W        W11137   3.113   4.590   8.704 -0.1022 -0.3126 -0.0920
 7074W        W11138   1.793   6.073   3.254 -0.0951  0.3313  0.2360
 7075W        W11139   5.445   0.449   0.738  0.1136 -0.0063 -0.1120
 7076W        W11140   3.958   3.309   8.712 -0.1672  0.0017 -0.0545
 7077W        W11141   9.895  10.369   0.862  0.1354 -0.0888 -0.1756
 7078W        W11142   1.832   7.548   1.777 -0.0403  0.1222 -0.1503
 7079W        W11143   1.905   8.311   7.627 -0.3055  0.1464 -0.0430
 7080W        W11144   3.063   7.530  10.267 -0.0588 -0.0030  0.4179
 7081W        W11145   9.459   5.992   3.046 -0.0660 -0.1915  0.0588
 7082W        W11146   2.315   8.042   7.599  0.1599  0.3309 -0.1527
 7083W        W11147   1.839   1.637   9.436  0.0253 -0.2449  0.1326
 7084W        W11148   5.925   8.742   7.092 -0.2632  0.1063 -0.1884
 7085W        W11149  10.669   8.470   3.021 -0.0374  0.1467  0.1077
 7086W        W11150   3.862   5.261   9.030  0.0565 -0.3998  0.0478
 7087W        W11151   1.751   5.075  10.175  0.1157 -0.0833 -0.2638
 7088W        W11152   7.816  10.542   0.443  0.0658 -0.0616 -0.3051
 7089W        W11153   9.455  10.490   9.620 -0.2314  0.0771  0.1330
 7090W        W11154   8.992   8.812   9.942  0.2111 -0.0628 -0.2205
 7091W        W11155   4.419   3.477  10.034 -0.2315  0.0613 -0.0318
 7092W        W11156   3.995   9.404   1.075 -0.0379  0.0641  0.0021
 7093W        W11157   6.047   2.657   2.451  0.1315 -0.1235 -0.2083
 7094W        W11158   8.335   6.693   2.271 -0.1158 -0.0981 -0.1532
 7095W        W11159   9.030   7.400   1.193 -0.1697 -0.0704 -0.0115
 7096W        W11160  10.763   2.479   0.816 -0.2243  0.1077 -0.3487
 7097W        W11161   8.659   9.211  10.183 -0.0011 -0.2158 -0.1165
 7098W        W11162   4.339   8.944  10.284 -0.0772 -0.4777 -0.3467
 7099W        W11163   2.208   3.200  10.740 -0.1864  0.0544 -0.0174
 7100W        W11164   2.275   3.269  10.267 -0.1299  0.0305 -0.1920
 7101W        W11165   6.009   0.853   8.902 -0.2464  0.4516  0.0831
 7102W        W11166   0.438   0.346  10.622  0.1113  0.1420 -0.1901
 7103W        W11167   4.135   5.088  10.518  0.0234 -0.3123  0.1439
 7104W        W11168   0.965   0.819   2.351 -0.3171 -0.0580 -0.1192
 7105W        W11169   2.431   0.641   8.861 -0.2305  0.0031 -0.0049
 7106W        W11170   4.786   0.601   2.921 -0.4404 -0.1060  0.1409
 7107W        W11171   9.447   4.307   8.068 -0.0803 -0.0496 -0.0825
 7108W        W11172   2.757   3.541   1.047 -0.1514 -0.1027  0.1184
 7109W        W11173   4.860   8.559   4.032 -0.0101  0.1736  0.1540
 7110W        W11174   0.931   5.242   9.461  0.1743  0.0128  0.1386
 7111W        W11175   8.310   6.574   0.479 -0.1884  0.1086  0.1411
 7112W        W11176   2.606  10.800   1.257 -0.2326 -0.0610 -0.1061
 7113W        W11177   8.325   0.697   1.646  0.1379 -0.1882  0.3422
 7114W        W11178   0.999   0.984  10.880 -0.1710 -0.4049  0.1726
 7115W        W11179   2.392   9.310   2.910  0.0115  0.0393 -0.0942
 7116W        W11180   2.613   7.541   3.273  0.1561 -0.1719  0.1153
 7117W        W11181   7.219   3.336   7.369 -0.0426 -0.2739  0.0070
 7118W        W11182   5.381   5.894   6.737  0.1705 -0.1625  0.2318
 7119W        W11183   3.099   7.098   1.870 -0.1713  0.3334  0.0057
 7120W        W11184  10.760   3.246   0.177 -0.1401 -0.1564 -0.0087
 7121W        W11185   3.252   2.649   3.685 -0.1584 -0.0515  0.0969
 7122W        W11186   5.423   4.507   8.179 -0.0819 -0.1124 -0.0114
 7123W        W11187  10.792   2.972   1.548  0.0786 -0.0615  0.1756
 7124W        W11188   5.327   6.181  10.203  0.1318  0.1333  0.0742
 7125W        W11189   0.187   5.370   1.376  0.1641  0.0817  0.3368
 7126W        W11190   9.739   3.053   9.639  0.0756  0.0455  0.1385
 7127W        W11191   2.694   2.947   3.051  0.0836 -0.0642  0.2081
 7128W        W11192   7.184   4.904   0.617 -0.0345  0.0757  0.1381
 7129W        W11193   9.927   4.791   2.141 -0.0782 -0.0328 -0.0068
 7130W        W11194   6.802   6.824   8.342 -0.1878 -0.1640 -0.0882
 7131W        W11195   0.109   1.656  10.589 -0.1274 -0.2528  0.0085
 7132W        W11196   4.410   2.657   0.682 -0.2658 -0.0007  0.1049
 7133W        W11197   3.469   2.298   0.910 -0.0748 -0.2291 -0.1217
 7134W        W11198   1.869   3.541   9.723  0.1359 -0.0338  0.0550
 7135W        W11199   4.282  10.807   3.192  0.0103  0.1927 -0.0455
 7136W        W11200   3.355   2.677   1.841 -0.2423  0.0709  0.0569
 7137W        W11201   3.400   8.075   2.183  0.1619 -0.0324 -0.2189
 7138W        W11202   9.575  10.817  10.387 -0.0809 -0.1108  0.0071
 7139W        W11203  10.159   1.282   2.425 -0.0540 -0.2282  0.0875
 7140W        W11204   7.895   8.531   9.472 -0.2223  0.1785 -0.0303
 7141W        W11205   2.126   3.591   7.654 -0.1645 -0.0818 -0.1453
 7142W        W11206   0.392   3.306   0.997  0.0282  0.1021  0.2637
 7143W        W11207   5.736   3.354   1.295  0.0368  0.0045  0.0998
 7144W        W11208   8.839   2.574   9.247 -0.2529  0.2295  0.1340
 7145W        W11209   6.187  10.779   0.772 -0.0347 -0.0344  0.3685
 7146W        W11210   6.119   0.527   9.586  0.0211 -0.0646 -0.0192
 7147W        W11211   2.021   0.816   9.854 -0.0529  0.0007 -0.0064
 7148W        W11212   4.252   8.806  10.742  0.1738 -0.2300 -0.0717
 7149W        W11213   9.935   8.549   8.422  0.0705  0.1094  0.2365
 7150W        W11214   4.257   4.533   9.585 -0.0761 -0.2675 -0.0040
 7151W        W11215   1.966   3.513   2.946 -0.2397  0.2894 -0.0572
 7152W        W11216   3.349   0.133  10.208 -0.0209 -0.1135 -0.0858
 7153W        W11217   5.253   1.761   0.277  0.0271 -0.2078  0.0004
 7154W        W11218   4.249  10.229   0.839  0.0987  0.1564 -0.0355
 7155W        W11219   6.833  10.619   8.261 -0.4095  0.1817 -0.2755
 7156W        W11220   7.231   7.958   3.177  0.2252 -0.1280 -0.0814
 7157W        W11221   8.923   5.040   9.646  0.2727 -0.1237 -0.0333
 7158W        W11222   6.724   2.913   3.342 -0.1551  0.1123  0.3314
 7159W        W11223   9.884   8.903  10.757  0.4311 -0.0221 -0.1572
 7160W        W11224   8.039   6.569   3.126  0.1341 -0.1477  0.0635
 7161W        W11225   7.217   9.243   3.297  0.0340  0.4434  0.2271
 7162W        W11226   8.930   9.814   9.249 -0.1857  0.1347  0.1078
 7163W        W11227   2.152   9.782   8.965  0.1086 -0.2646  0.6586
 7164W        W11228   5.043   7.140   1.742  0.0924 -0.0792  0.2948
 7165W        W11229   1.445   5.821   1.195 -0.0646 -0.0228  0.0374
 7166W        W11230   8.924   4.315   9.200 -0.2161 -0.1995 -0.1778
 7167W        W11231   7.117   5.464   3.306  0.2981  0.0459 -0.0067
 7168W        W11232   4.905   5.266  10.153 -0.0060  0.1514  0.2584
 7169W        W11233  10.182   9.636   8.207  0.0571 -0.1147 -0.1984
 7170W        W11234   1.059  10.544   9.445 -0.2300  0.1167 -0.0261
 7171W        W11235   2.269   7.875   8.411  0.2659 -0.0967 -0.3993
 7172W        W11236   4.855  10.105   2.090 -0.3118  0.0017  0.3083
 7173W        W11237  10.776   7.896   1.649  0.1198 -0.1259 -0.4479
 7174W        W11238   6.923   8.944   9.664 -0.2290  0.0791 -0.3431
 7175W        W11239   7.884  10.309   3.082  0.1269 -0.0745  0.0226
 7176W        W11240   9.873   9.006   2.202 -0.0437  0.1125 -0.0037
 7177W        W11241   6.933   8.075   9.246  0.2673  0.0591 -0.1236
 7178W        W11242   4.075   5.166   9.993  0.0166 -0.2145  0.1860
 7179W        W11243   0.351   5.936   2.666 -0.1984  0.1412  0.2326
 7180W        W11244   1.163  10.498   7.294 -0.1113 -0.1413  0.1810
 7181W        W11245   9.773   1.191   3.221  0.2183  0.4079 -0.2716
 7182W        W11246  10.636   3.089   9.670  0.1297 -0.2022 -0.0800
 7183W        W11247   9.659   1.005   9.625 -0.1964  0.3506  0.1997
 7184W        W11248   6.069  10.312   2.428 -0.0986  0.3545 -0.1439
 7185W        W11249   2.504   5.132   0.797  0.4078 -0.0825  0.1960
 7186W        W11250   7.202   8.324  10.422  0.1972  0.1570  0.1584
 7187W        W11251   2.827   8.948   7.804  0.0437 -0.2767  0.0096
 7188W        W11252   7.573   0.926   1.334  0.2860  0.4054  0.1708
 7189W        W11253   0.416   5.285  10.523 -0.0986  0.3801 -0.0913
 7190W        W11254   8.387   3.428   9.047  0.4721  0.1480  0.2122
 7191W        W11255  10.234   5.117   2.822 -0.1979 -0.2270 -0.1885
 7192W        W11256   1.534   0.382   2.032  0.0145  0.0403  0.1890
 7193W        W11257   0.095   8.185   7.699  0.1454 -0.2764 -0.0279
 7194W        W11258   1.888   5.474   1.955  0.0071  0.2446  0.1722
 7195W        W11259   8.889   2.592   0.483 -0.1362  0.1359  0.0363
 7196W        W11260   7.345   4.307  10.817 -0.1843 -0.0706 -0.1928
 7197W        W11261   0.573   4.972  10.894  0.0342 -0.3068  0.3218
 7198W        W11262   6.788   8.256   8.716  0.0927  0.0748  0.1027
 7199W        W11263   1.393   8.343   1.021  0.0734  0.1213  0.0288
 7200W        W11264   5.265   5.245   1.908 -0.1728  0.0724 -0.0133
 7201W        W11265   8.603   4.374   0.516  0.0165  0.0171  0.0392
 7202W        W11266   7.644   4.133   0.777 -0.2082 -0.0214 -0.1945
 7203W        W11267   2.017   3.915   7.266  0.2077  0.0454 -0.0359
 7204W        W11268   4.332   9.314   1.435 -0.2012  0.0316 -0.2210
 7205W        W11269   3.973   4.165   2.768 -0.1265  0.0482 -0.1615
 7206W        W11270   7.012  10.661   2.239 -0.1059 -0.1870 -0.1857
 7207W        W11271   3.907   3.377   3.445  0.4102  0.2092 -0.0968
 7208W        W11272   2.913   1.899   9.627  0.0805  0.1817  0.2007
 7209W        W11273   9.881   7.935   1.227 -0.1672  0.1071 -0.4004
 7210W        W11274   4.655   4.435   9.885  0.2218  0.0334 -0.3164
 7211W        W11275   0.322   4.105   3.323 -0.0839 -0.0617  0.1485
 7212W        W11276   8.139   3.496   8.636 -0.1117 -0.2765  0.0939
 7213W        W11277   8.444   3.089   5.690 -0.1833 -0.0652 -0.3641
 7214W        W11278   4.410   7.693  10.697 -0.5366  0.2844 -0.1041
 7215W        W11279   9.407   2.788   1.487 -0.0007 -0.0875 -0.0584
 7216W        W11280   8.315   4.272   8.318  0.2465  0.0835  0.0750
 7217W        W11281   9.396  10.657   1.129  0.2010 -0.0318 -0.1229
 7218W        W11282   8.915   3.337   1.992 -0.0334 -0.0323 -0.0692
 7219W        W11283   6.696  10.312   2.360 -0.1967  0.1054 -0.0862
 7220W        W11284   8.338   8.938   3.356 -0.0477 -0.1394 -0.0663
 7221W        W11285   5.901   3.017   8.991  0.1758  0.3242 -0.1052
 7222W        W11286   2.358   5.370   7.807 -0.0658 -0.0426  0.3457
 7223W        W11287   6.948   4.364   3.140 -0.1929  0.2688 -0.1742
 7224W        W11288   3.574   4.659  10.842 -0.1738  0.0416 -0.3180
 7225W        W11289   7.869  10.723   2.793  0.3191  0.1095  0.2362
 7226W        W11290   0.737   6.981   9.024  0.5401 -0.1836  0.0415
 7227W        W11291   7.151   5.109   2.941  0.0526  0.1182  0.0570
 7228W        W11292   6.738   5.186   8.322 -0.0983  0.2030 -0.0892
 7229W        W11293   3.327   9.878  10.557  0.0922 -0.0374  0.2655
 7230W        W11294   1.634   1.789   2.548 -0.2313  0.0136  0.1829
 7231W        W11295   3.591   0.224  10.624  0.3515  0.0778 -0.5790
 7232W        W11296   4.396   1.073   1.233  0.0506 -0.2559  0.0678
 7233W        W11297   8.293   6.806   0.903 -0.2993 -0.1387  0.0141
 7234W        W11298   8.458   2.292   0.492 -0.0764  0.0626  0.0842
 7235W        W11299   9.731   8.352  10.385 -0.0760 -0.2653 -0.1094
 7236W        W11300   1.942   5.194   0.776 -0.2023 -0.0359 -0.0813
 7237W        W11301   0.950   6.416   9.502 -0.1745  0.1574 -0.1086
 7238W        W11302   9.418   5.066   1.634 -0.1611 -0.0245  0.3297
 7239W        W11303   6.736   3.654   9.971  0.0109  0.2182  0.0858
 7240W        W11304   1.984   5.909   0.465  0.1307 -0.1375  0.1541
 7241W        W11305   1.806  10.481  10.176 -0.0901  0.1880 -0.1549
 7242W        W11306   6.085   1.709   0.222 -0.3060 -0.0805  0.0212
 7243W        W11307   6.320   5.847   9.300 -0.2260  0.2327 -0.2605
 7244W        W11308   9.943   4.340   2.730  0.3234  0.0540 -0.0553
 7245W        W11309   9.122   2.545  10.171  0.1881  0.1642 -0.2565
 7246W        W11310   0.099   5.045  10.898 -0.1551  0.3718 -0.3585
 7247W        W11311   2.414   7.713   7.924 -0.1789 -0.1780  0.2705
 7248W        W11312   7.483   8.869   3.065  0.1890  0.0566 -0.0808
 7249W        W11313   1.937   3.945   7.937  0.3036 -0.1251 -0.0259
 7250W        W11314   8.578   2.974   8.962 -0.0433 -0.2028 -0.3110
 7251W        W11315   6.777   2.898   1.447 -0.2367  0.0886 -0.2543
 7252W        W11316   2.354   7.786   3.560  0.1840 -0.0189 -0.2690
 7253W        W11317   9.639   2.096   0.215 -0.1996  0.0374 -0.1192
 7254W        W11318   4.787   2.190   9.419  0.0854  0.0041 -0.2668
 7255W        W11319   7.908   6.037   8.854 -0.2331  0.2731  0.0411
 7256W        W11320   5.000   0.715   1.454  0.2789 -0.0462 -0.0322
 7257W        W11321   6.204   8.883   1.408 -0.1367 -0.0684  0.3277
 7258W        W11322   3.327  10.222   8.631 -0.0861 -0.0711  0.0726
 7259W        W11323   1.624  10.758   7.147  0.0494  0.0886 -0.0695
 7260W        W11324   0.549   1.806   8.333  0.1151 -0.0999 -0.0402
 7261W        W11325  10.782   8.523   7.936 -0.1426  0.1738 -0.1709
 7262W        W11326   7.643   6.897  10.078  0.1981 -0.1951 -0.2384
 7263W        W11327   3.424   3.029   2.787  0.0209  0.0160 -0.0155
 7264W        W11328   0.999   3.797  10.096  0.0584 -0.2961  0.2580
 7265W        W11329   9.516   0.474   3.363 -0.2290 -0.1635  0.0250
 7266W        W11330   5.790   0.116   9.150 -0.1360  0.1765  0.2828
 7267W        W11331   0.626   3.713   2.512 -0.3413 -0.3457 -0.0171
 7268W        W11332  10.881   0.831   8.365 -0.1051 -0.1618 -0.2813
 7269W        W11333  10.439   4.366   8.709 -0.0391 -0.2136  0.1374
 7270W        W11334   9.658   2.585   0.210 -0.1442 -0.2096  0.1966
 7271W        W11335   7.921   1.646   9.277 -0.1448  0.1199  0.0045
 7272W        W11336   0.672   4.865   1.909  0.1248 -0.1303  0.2832
 7273W        W11337   7.835   4.717   9.573 -0.2807  0.5065  0.1294
 7274W        W11338   3.738   7.486  10.962 -0.0329 -0.1146 -0.3385
 7275W        W11339   0.325   7.654   1.524  0.0275 -0.0639 -0.1268
 7276W        W11340   8.623   0.892  10.424  0.3044 -0.2782 -0.0080
 7277W        W11341   8.731   8.133   1.748 -0.1507 -0.1494 -0.0721
 7278W        W11342   2.255   5.137   2.159  0.1927  0.1733  0.1339
 7279W        W11343   6.496  10.448   2.841  0.1676 -0.4777 -0.1469
 7280W        W11344   6.409   8.377   3.108  0.1036  0.1025  0.2615
 7281W        W11345   5.665   3.610   8.206  0.3957 -0.3089 -0.0869
 7282W        W11346   1.377   7.891   0.964 -0.3342 -0.0631  0.1024
 7283W        W11347   6.198   4.025   8.834  0.0575 -0.1362 -0.4752
 7284W        W11348   2.011   2.909   1.871  0.1710  0.0323 -0.3346
 7285W        W11349   4.990   9.470   8.569 -0.1547 -0.0637  0.0989
 7286W        W11350   4.025   3.692   9.820  0.0135 -0.0591 -0.0208
 7287W        W11351   8.775   1.546   2.572 -0.2513 -0.2755  0.2099
 7288W        W11352   5.033   3.770   0.684 -0.1058 -0.0788  0.1018
 7289W        W11353   0.981   6.665   0.729 -0.0693  0.1886  0.0842
 7290W        W11354   5.674   1.427   0.217  0.0553  0.0873 -0.1879
 7291W        W11355   5.933   7.917   0.746 -0.0095 -0.2239 -0.0356
 7292W        W11356   5.957   7.026   1.547 -0.2657 -0.0688  0.1816
 7293W        W11357   9.062   0.362   0.711 -0.3535 -0.1334 -0.2547
 7294W        W11358   1.408  10.505   2.647 -0.0074 -0.0647  0.0211
 7295W        W11359   8.664   1.763   5.730 -0.2435  0.2573 -0.0623
 7296W        W11360   4.727   7.219   9.340  0.0450  0.1608  0.1622
 7297W        W11361   3.715  10.197   0.020 -0.2387 -0.1441  0.3708
 7298W        W11362   7.004   2.590   9.811 -0.0715  0.0309  0.0020
 7299W        W11363   2.938   5.168   0.586  0.0575 -0.0186 -0.1580
 7300W        W11364  10.323   4.058   7.947  0.1581  0.0087 -0.0004
 7301W        W11365   9.803   2.910   7.050 -0.2364 -0.0076  0.0882
 7302W        W11366   0.557   4.242   2.707 -0.1042  0.1693  0.2379
 7303W        W11367   2.078   6.454   9.118 -0.1331  0.0374  0.1302
 7304W        W11368   3.215   1.629   3.301 -0.1031 -0.1786  0.0630
 7305W        W11369   3.089   9.249   0.808 -0.0481 -0.0006  0.2648
 7306W        W11370   5.208   4.796   7.820  0.0768  0.0804 -0.0766
 7307W        W11371   6.526   7.837   0.237  0.1937 -0.1043 -0.0888
 7308W        W11372   9.565   6.613   0.929 -0.0199 -0.1471 -0.4309
 7309W        W11373   3.847   9.844  10.617 -0.1339  0.0636 -0.0193
 7310W        W11374   0.732  10.841   0.964 -0.1699  0.2411 -0.0452
 7311W        W11375  10.486   5.686  10.171 -0.2905  0.0882 -0.0848
 7312W        W11376   5.830   7.820   2.598  0.0138  0.0153 -0.0267
 7313ION    NA+11377   7.275   9.101  10.031 -0.0957 -0.0611  0.1935
 7314ION    NA+11378   7.855   9.147  10.720 -0.1338 -0.1516  0.0932
 7315ION    NA+11379   0.182   4.481   7.293 -0.2316 -0.0253  0.1073
 7316ION    NA+11380   6.031   8.263   7.518  0.3536  0.1030 -0.0967
 7317ION    NA+11381   7.630   8.038   2.396  0.3958  0.0438 -0.1752
 7318ION    NA+11382   6.838   3.196   1.025  0.1156  0.5338  0.2795
 7319ION    NA+11383   4.401   3.569   9.430  0.0082 -0.0178 -0.1311
 7320ION    NA+11384   4.538   5.643   0.173  0.0197 -0.0117 -0.2354
 7321ION    NA+11385   1.209   5.231  10.259 -0.0018 -0.5397 -0.0732
 7322ION    NA+11386   9.855   6.293   0.303  0.0300  0.0432  0.0597
 7323ION    NA+11387   0.029   3.336   0.613  0.1878  0.1007  0.2137
 7324ION    NA+11388   7.094   4.568   1.911  0.2509 -0.1346  0.1126
 7325ION    NA+11389   4.171   9.532   2.444  0.2260 -0.2310 -0.2239
 7326ION    NA+11390   3.793   2.232   2.551  0.1155 -0.0321  0.1711
 7327ION    NA+11391   6.145   0.487   0.268 -0.2631  0.4005 -0.0666
 7328ION    NA+11392   0.508   1.197   8.921  0.2989 -0.0134 -0.0589
 7329ION    NA+11393   7.922   8.048   9.330  0.2757 -0.2454 -0.0039
 7330ION    NA+11394   4.088   5.751  10.350 -0.0471  0.3666  0.1249
 7331ION    NA+11395   4.161   7.905   9.578 -0.2883  0.1917  0.0123
 7332ION    NA+11396   7.634   9.547   8.656  0.3471  0.0622  0.0520
 7333ION    NA+11397   2.580   4.523   1.642 -0.0674  0.1973  0.1221
 7334ION    NA+11398   7.211   8.799   8.448 -0.0561 -0.0833  0.0083
 7335ION    NA+11399   6.750   9.013   8.586 -0.1909  0.0795 -0.0769
 7336ION    NA+11400   4.017   4.335   7.478  0.1788  0.2392  0.4463
 7337ION    NA+11401   1.697   3.239   8.858 -0.0169 -0.1579 -0.3008
 7338ION    NA+11402   7.744   2.672   7.708  0.0184 -0.0631  0.1170
 7339ION    NA+11403   0.199   2.333   1.070 -0.0302  0.1466  0.0064
 7340ION    NA+11404   2.005   9.836   1.657  0.0870  0.0145  0.5192
 7341ION    NA+11405   3.451  10.642   0.828 -0.1769 -0.0315 -0.0591
 7342ION    NA+11406   7.900   4.681   9.046 -0.0107 -0.1358 -0.1108
 7343ION    NA+11407  10.846  10.637   3.764  0.0044  0.1118 -0.0495
 7344ION    NA+11408   5.866   0.438   8.663  0.2538  0.0192  0.0554
 7345ION    NA+11409   6.535   9.602   3.519 -0.1018  0.3079  0.1639
 7346ION    NA+11410   7.978   1.470   3.917  0.0715 -0.0288  0.1566
 7347ION    NA+11411   6.547   4.960   9.646 -0.1178 -0.1676  0.0898
 7348ION    NA+11412   9.678  10.879   7.501  0.4131  0.0873 -0.3214
 7349ION    NA+11413   5.305   3.118  10.021 -0.1816 -0.1128 -0.0780
 7350ION    NA+11414   5.654  10.205   0.056  0.1848  0.1080  0.0001
 7351ION    NA+11415   5.267   4.618   9.512 -0.2776  0.0193 -0.0546
 7352ION    NA+11416   9.662   8.533   8.895 -0.0088  0.1372 -0.1306
 7353ION    NA+11417   3.557  10.846   1.648 -0.0473  0.0056  0.2139
 7354ION    NA+11418   2.450   3.333   2.744  0.0832  0.1177 -0.0834
 7355ION    NA+11419   5.452   2.242   3.474  0.4529  0.0929 -0.0425
 7356ION    NA+11420   3.650   5.699   3.439 -0.1737 -0.3582  0.0945
 7357ION    NA+11421   0.388   8.654   3.509 -0.2226 -0.0238  0.3427
 7358ION    NA+11422   4.283   1.193   2.534  0.3277 -0.1198 -0.2305
 7359ION    NA+11423   4.589   2.534  10.409  0.2019 -0.0860  0.1652
 7360ION    NA+11424   0.039   0.254   9.067 -0.1793  0.1906  0.1680
 7361ION    NA+11425   3.497   6.536   8.625  0.0752  0.2322 -0.2313
 7362ION    NA+11426   5.293   5.999  10.876 -0.0355 -0.0140 -0.1532
 7363ION    NA+11427   9.547   0.280   1.524 -0.2732 -0.2427  0.0911
 7364ION    NA+11428   4.927   3.497   7.182  0.0652 -0.3862  0.2476
 7365ION    NA+11429  10.217  10.500   7.456  0.2540  0.2695  0.1376
 7366ION    NA+11430   4.109   3.540   0.433 -0.0056  0.0912 -0.2662
 7367ION    NA+11431   8.758   0.008   1.498 -0.2451  0.1388  0.1868
 7368ION    NA+11432   7.186   0.761   7.558  0.0731  0.0957 -0.1073
 7369ION    NA+11433   3.317   8.582  10.929 -0.0844 -0.0245 -0.2599
 7370ION    NA+11434   2.005   5.262   8.893  0.1096  0.3576  0.0332
 7371ION    NA+11435   9.071   0.613   1.659 -0.1674 -0.3504  0.0359
 7372ION    NA+11436   6.044   6.728  10.623  0.0427  0.1616 -0.3018
 7373ION    NA+11437   9.216   4.894   0.701  0.3156  0.1736 -0.0373
 7374ION    NA+11438   7.197   8.227   3.638  0.1810  0.3527  0.0987
 7375ION    NA+11439   8.711  10.207   0.382 -0.1387  0.1017  0.1909
 7376ION    NA+11440  10.721   7.300   7.285  0.0182  0.1966  0.2566
 7377ION    NA+11441   8.864   9.209   0.735  0.2787 -0.0941  0.0416
 7378ION    NA+11442   3.363   2.284   3.987 -0.2531  0.1557 -0.0955
 7379ION    NA+11443   7.521   8.929   2.091  0.0788  0.1352  0.0524
 7380ION    NA+11444   2.330   9.828   2.971  0.2867 -0.2266  0.1591
 7381ION    NA+11445   0.509   1.927  10.388  0.1527 -0.3737 -0.2234
 7382ION    NA+11446  10.023   6.901  10.413  0.1041 -0.2629  0.1061
 7383ION    NA+11447   3.495   9.589   1.251  0.0070 -0.0438 -0.0104
 7384ION    NA+11448   2.672   9.897   2.030  0.4201 -0.0092  0.1371
 7385ION    NA+11449   3.415   0.166   0.142  0.1750 -0.2147 -0.0950
 7386ION    NA+11450   2.526   9.457   8.462 -0.1203 -0.1943 -0.1135
 7387ION    NA+11451   8.604   8.656   3.092  0.1608 -0.2450 -0.0529
 7388ION    NA+11452   9.438   4.586   3.024 -0.1485  0.0311 -0.0034
 7389ION    NA+11453   3.454   4.039   2.828  0.0150  0.3228  0.2927
 7390ION    CL-11454   0.487   1.361   2.887 -0.3345 -0.1360 -0.1465
 7391ION    CL-11455   9.566   7.893   2.225  0.1680 -0.2833 -0.3653
 7392ION    CL-11456   2.977   9.543   8.404 -0.0391 -0.0190  0.3224
 7393ION    CL-11457   3.829   6.367   8.058 -0.1474 -0.0426  0.0971
 7394ION    CL-11458   6.126   6.831   2.839 -0.3950 -0.0202  0.0424
 7395ION    CL-11459   7.746   7.571   9.480 -0.2196 -0.0844  0.0253
 7396ION    CL-11460   3.346   6.092   8.845 -0.0585 -0.2267  0.2901
 7397ION    CL-11461   1.041  10.044   2.707  0.4211 -0.0829 -0.0313
 7398ION    CL-11462   9.619   5.061   8.974  0.2534  0.2631  0.1206
 7399ION    CL-11463   7.736   9.048  10.205  0.0426 -0.0931  0.1852
 7400ION    CL-11464   7.051   3.206   7.903 -0.2661  0.0794 -0.1240
 7401ION    CL-11465   8.878   3.435   2.516 -0.3366 -0.0878 -0.1026
 7402ION    CL-11466   3.576   2.078   8.166  0.0662 -0.1241 -0.1125
 7403ION    CL-11467   4.442   2.259   3.130  0.3079  0.4382 -0.1717
 7404ION    CL-11468   8.959   4.676   3.215 -0.1207 -0.1287 -0.0051
 7405ION    CL-11469   7.044   2.707   2.119 -0.0757  0.1160 -0.3667
 7406ION    CL-11470   4.640   3.414   9.034  0.0076  0.2667 -0.2350
 7407ION    CL-11471   6.287   9.040   8.130  0.2666 -0.1663 -0.3467
 7408ION    CL-11472   2.314  10.172   2.604  0.1843 -0.1125 -0.2959
 7409ION    CL-11473   8.684   4.614   0.039  0.1853 -0.0217  0.1079
 7410ION    CL-11474   7.149   9.564   8.797  0.0332  0.0048  0.1180
 7411ION    CL-11475   7.365   8.442   2.128  0.0546 -0.1733 -0.1971
 7412ION    CL-11476  10.486   1.487   2.071 -0.0365  0.0571  0.2524
 7413ION    CL-11477   6.631   9.868   2.917 -0.0621  0.2018 -0.1231
 7414ION    CL-11478  10.266   6.244  10.905 -0.1965  0.1036  0.0016
 7415ION    CL-11479   2.844   9.545   3.010 -0.3453 -0.0863  0.4916
 7416ION    CL-11480   6.287   4.701   9.304  0.1268  0.1366 -0.2288
 7417ION    CL-11481   2.635   4.821   2.066 -0.0409 -0.2092  0.0965
 7418ION    CL-11482   2.356   3.971   8.369  0.2214 -0.0585  0.2369
 7419ION    CL-11483   0.484   1.738  10.915  0.2609 -0.0140 -0.0759
 7420ION    CL-11484   9.451   5.189   2.924 -0.0358 -0.3686  0.1476
 7421ION    CL-11485   3.079  10.776   0.117 -0.0106  0.0452 -0.2591
 7422ION    CL-11486   5.807   1.028   8.063  0.2779 -0.0320  0.1247
 7423ION    CL-11487   9.508   0.396   2.035 -0.0145 -0.0955  0.1476
 7424ION    CL-11488   3.069   4.814   8.141  0.3882  0.2881  0.1145
 7425ION    CL-11489   2.167   3.624   2.523 -0.1550  0.0044 -0.0514
 7426ION    CL-11490  10.688   6.554   3.537 -0.1756 -0.0331  0.1585
 7427ION    CL-11491   3.199   4.848   3.103 -0.0403  0.1521  0.2925
 7428ION    CL-11492   1.149   3.952  10.566 -0.0434  0.1049 -0.1355
 7429ION    CL-11493   9.483   4.567   1.950  0.1076  0.0885 -0.0047
 7430ION    CL-11494   9.295   9.149   0.953 -0.1169 -0.2149 -0.1462
 7431ION    CL-11495   8.673   0.500   1.368 -0.0811  0.2831 -0.1171
 7432ION    CL-11496  10.464   3.377   0.570 -0.2314 -0.1951 -0.3909
 7433ION    CL-11497   7.197   9.263   8.393  0.0828 -0.2710  0.4300
 7434ION    CL-11498   0.831   0.479   8.880  0.1557  0.0421  0.2111
 7435ION    CL-11499   3.909   5.496  10.756 -0.2311 -0.4143 -0.0794
 7436ION    CL-11500   3.123   2.259   8.212  0.0587 -0.3170  0.3647
 7437ION    CL-11501   5.325   2.705   9.780 -0.4911  0.1639 -0.1807
 7438ION    CL-11502  10.387   6.189   8.007 -0.1360  0.2931  0.3192
 7439ION    CL-11503   3.646   0.080   0.644  0.1150 -0.1384 -0.2134
 7440ION    CL-11504   6.621   0.437   0.137  0.2426  0.2647  0.0639
 7441ION    CL-11505   9.015   3.577   0.470  0.1652  0.0111 -0.0392
 7442ION    CL-11506   7.649  10.771   0.867  0.1103 -0.1881  0.1729
 7443ION    CL-11507   3.499  10.441   1.326  0.0811 -0.1513 -0.0428
 7444ION    CL-11508   9.427  10.087   8.625  0.3248  0.2756 -0.1633
 7445ION    CL-11509   8.010   9.833   8.413 -0.0132 -0.2280 -0.2577
 7446ION    CL-11510   7.571   4.765   8.722 -0.2744  0.1053 -0.1690
 7447ION    CL-11511   2.808   7.805   8.244 -0.0141  0.0341 -0.2413
 7448ION    CL-11512   6.377   2.621   2.968  0.4541  0.2238 -0.1968
 7449ION    CL-11513   1.182   5.574   9.854  0.0896 -0.0792 -0.1707
 7450ION    CL-11514   5.611   1.246   9.817  0.1697 -0.0498 -0.2066
 7451ION    CL-11515   7.161   2.828   7.567  0.0259 -0.2638  0.1859
 7452ION    CL-11516   5.351   5.471  10.929  0.0388 -0.1388  0.2437
 7453ION    CL-11517   0.369   3.907   1.441 -0.1612 -0.3301  0.2203
 7454ION    CL-11518   1.576   6.480   8.702 -0.0330 -0.1269  0.0397
 7455ION    CL-11519  10.730   4.200   2.509  0.0687  0.2083 -0.1338
 7456ION    CL-11520   2.542   9.929   1.563  0.0282 -0.2746 -0.2367
 7457ION    CL-11521   2.518   8.699   8.209  0.2522 -0.3121  0.1047
 7458ION    CL-11522   5.143   4.771   9.932 -0.0207 -0.2323 -0.2328
 7459ION    CL-11523   7.711  10.159   2.153 -0.1324 -0.0349  0.0944
 7460ION    CL-11524   1.644   3.360   9.320  0.0117 -0.2872  0.0756
 7461ION    CL-11525   5.119   0.160   7.979  0.2251 -0.0714 -0.0793
 7462ION    CL-11526  10.093   6.506   0.769 -0.0188 -0.3390 -0.2938
 7463ION    CL-11527   6.201   0.076   8.728 -0.0397  0.0228 -0.0258
 7464ION    CL-11528   8.834   9.264   0.201 -0.3484  0.1182 -0.1775
 7465ION    CL-11529   0.414   6.320   2.420  0.1323 -0.1081  0.1207
 7466ION    CL-11530   3.880   4.035   7.934 -0.1893  0.0837 -0.0932
  10.93167  10.93167  10.97957
