Protein in INSANE! Membrane UpperLeaflet>POPC=1.0 LowerLeaflet>POPC=1.0
10365
    1AU     AUC    1   8.365   0.217   5.436 -0.0525 -0.0260 -0.0911
    1AU     AUC    2   8.666   0.102   5.367  0.0009  0.0134  0.1231
    1AU     AUC    3   8.435   0.221   5.140 -0.0279  0.0321  0.0353
    1AU     AUC    4   8.293   0.264   5.739 -0.0301 -0.0376  0.0526
    1AU     AUC    5   8.063   0.339   5.515  0.0239 -0.1064  0.0011
    1AU     AUC    6   8.161   0.047   5.558  0.0043 -0.0276 -0.0928
    1AU     AUC    7   8.354  -0.054   5.296 -0.0555 -0.0250 -0.0647
    1AU     AUC    8   8.359   0.512   5.566  0.0844  0.0189 -0.0194
    1AU     AUC    9   8.597   0.431   5.308  0.1113 -0.0027  0.0098
    1AU     AUC   10   8.277   0.477   5.225  0.0907  0.0219 -0.0784
    1AU     AUC   11   8.110   0.186   5.229  0.0498 -0.0024 -0.1150
    1AU     AUC   12   8.590   0.313   5.645  0.0027 -0.0514 -0.0864
    1AU     AUC   13   8.500   0.011   5.631  0.0736 -0.0026  0.0041
    1AU     AUC   14   8.985  -0.040   5.277 -0.0439 -0.1008  0.0231
    1AU     AUC   15   8.782   0.065   5.009  0.0564 -0.0231  0.0150
    1AU     AUC   16   8.501   0.191   4.794 -0.0918  0.0985  0.0729
    1AU     AUC   17   8.194   0.276   6.065  0.0174  0.1018  0.0458
    1AU     AUC   18   7.928   0.327   5.837 -0.0163 -0.0736 -0.0747
    1AU     AUC   19   7.725   0.444   5.567 -0.0407  0.0158  0.0691
    1AU     AUC   20   7.934  -0.201   5.664 -0.0701 -0.0237 -0.0495
    1AU     AUC   21   8.122  -0.320   5.436  0.1306 -0.0657  0.0014
    1AU     AUC   22   8.351  -0.372   5.200  0.0006 -0.0343  0.0474
    1AU     AUC   23   8.360   0.838   5.737 -0.0369  0.0003 -0.1019
    1AU     AUC   24   8.630   0.787   5.467 -0.0068  0.0744 -0.0084
    1AU     AUC   25   8.860   0.640   5.216  0.0523  0.0374  0.0656
    1AU     AUC   26   8.180   0.751   5.030  0.1081  0.0135  0.0223
    1AU     AUC   27   8.001   0.460   4.973  0.1072 -0.0056 -0.0896
    1AU     AUC   28   7.865   0.101   5.006  0.0532 -0.0515  0.0061
    1AU     AUC   29   8.861   0.380   5.851  0.0065  0.0189 -0.0256
    1AU     AUC   30   8.771   0.094   5.879 -0.0167  0.0341 -0.0680
    1AU     AUC   31   8.644  -0.221   5.825  0.0762 -0.1111 -0.0067
    1AU     AUC   32   8.352   0.500   4.871  0.0823 -0.0352 -0.0018
    1AU     AUC   33   8.176   0.160   4.843  0.0665  0.0549 -0.0065
    1AU     AUC   34   8.960   0.169   5.564 -0.0138  0.0119  0.0774
    1AU     AUC   35   8.818  -0.128   5.551 -0.0134 -0.0452 -0.0022
    1AU     AUC   36   7.924   0.649   5.306 -0.0900  0.0087 -0.0215
    1AU     AUC   37   7.792   0.310   5.263  0.0519  0.1160 -0.0079
    1AU     AUC   38   8.524   0.366   5.978 -0.0683 -0.1088 -0.1177
    1AU     AUC   39   8.441   0.026   5.993  0.0441 -0.0452  0.1557
    1AU     AUC   40   8.714  -0.244   5.238  0.0046 -0.0225  0.0434
    1AU     AUC   41   8.437  -0.110   4.997 -0.0963 -0.0389 -0.0938
    1AU     AUC   42   8.065   0.009   5.891 -0.0620  0.1003 -0.0208
    1AU     AUC   43   7.791   0.115   5.629  0.0155  0.0267  0.0046
    1AU     AUC   44   8.909   0.293   5.216  0.0671 -0.0214 -0.0733
    1AU     AUC   45   8.712   0.444   4.993  0.0568  0.1355  0.0309
    1AU     AUC   46   8.239   0.577   5.935  0.0114  0.0666  0.0184
    1AU     AUC   47   8.031   0.642   5.640 -0.0628  0.0975 -0.0295
    1AU     AUC   48   7.862  -0.058   5.335  0.0021  0.0716 -0.0274
    1AU     AUC   49   8.099  -0.155   5.107 -0.0026 -0.0313  0.0009
    1AU     AUC   50   8.281   0.787   5.409 -0.0108 -0.1221  0.0183
    1AU     AUC   51   8.523   0.754   5.108  0.0810 -0.0263 -0.0338
    1AU     AUC   52   8.308  -0.209   5.759  0.0390  0.0990  0.0449
    1AU     AUC   53   8.537  -0.324   5.534  0.0630 -0.0550  0.0681
    1AU     AUC   54   8.612   0.644   5.800  0.0398 -0.0355  0.0280
    1AU     AUC   55   8.846   0.497   5.511 -0.0534 -0.0429 -0.1288
    1AU    AUSL   56   8.318   0.411   4.491  0.0647 -0.0558 -0.0072
    1AU    AUSL   57   8.452   0.817   4.711  0.0344 -0.1009 -0.0220
    1AU     AUL   58   8.480   0.699   4.354 -0.0442  0.0693 -0.0765
    1AU       S   59   8.841   0.897   4.505  0.1551 -0.0523 -0.0905
    1AU     LIG   60   9.052   1.295   4.305 -0.1591 -0.2417 -0.1051
    1AU     LIG   61   9.095   1.745   4.354  0.2959  0.0952 -0.0888
    1AU     LIG   62   9.051   1.910   4.716 -0.1758 -0.3114  0.1078
    1AU       S   63   7.987   0.598   4.249  0.1401  0.4423 -0.0260
    1AU     LIG   64   7.609   0.822   4.052  0.1812  0.2963 -0.0497
    1AU     LIG   65   7.414   1.144   4.044 -0.1375  0.1191 -0.2246
    1AU     LIG   66   7.163   1.468   4.016 -0.1461  0.2220 -0.4463
    1AU    AUSL   67   8.056   0.652   4.742  0.0114  0.0073 -0.0162
    1AU    AUSL   68   7.698   0.413   4.871 -0.1425  0.0659  0.0461
    1AU     AUL   69   7.650   0.610   4.594  0.0135  0.0409 -0.0473
    1AU       S   70   8.028   0.826   4.406 -0.2355  0.4527  0.0485
    1AU     LIG   71   7.893   1.260   4.258 -0.1146  0.3024 -0.1438
    1AU     LIG   72   7.774   1.652   4.497  0.1621  0.1948 -0.0185
    1AU     LIG   73   7.570   2.025   4.584  0.2886 -0.0573 -0.2804
    1AU       S   74   7.309   0.805   4.792 -0.1098 -0.4637  0.1728
    1AU     LIG   75   6.879   0.846   5.005 -0.3598  0.2040  0.2154
    1AU     LIG   76   6.515   0.808   4.955  0.4234 -0.0816  0.2996
    1AU     LIG   77   6.122   0.831   5.216 -0.2639 -0.0379 -0.0447
    1AU    AUSL   78   7.923   0.220   4.557 -0.0620 -0.0117 -0.0259
    1AU    AUSL   79   8.296  -0.029   4.548 -0.0634  0.0062  0.0112
    1AU     AUL   80   8.171   0.145   4.309 -0.0789 -0.0072  0.0623
    1AU       S   81   7.791   0.350   4.224  0.1026 -0.4016 -0.2406
    1AU     LIG   82   7.373   0.310   4.036  0.0835  0.2273  0.2404
    1AU     LIG   83   7.097   0.479   4.332 -0.0683  0.2424  0.1627
    1AU     LIG   84   6.816   0.619   4.534 -0.2367 -0.0755  0.0430
    1AU       S   85   8.112  -0.330   4.354 -0.1969 -0.0973  0.0982
    1AU     LIG   86   8.034  -0.588   4.050 -0.1316  0.1964  0.0375
    1AU     LIG   87   7.894  -1.013   4.082 -0.0139 -0.1616 -0.0726
    1AU     LIG   88   7.688  -1.301   3.948  0.0709 -0.2313  0.5659
    1AU    AUSL   89   9.116  -0.113   5.567 -0.1351 -0.0137  0.0156
    1AU    AUSL   90   8.894  -0.499   5.663 -0.0815  0.0445  0.0583
    1AU     AUL   91   9.312  -0.372   5.545  0.0152  0.0541 -0.0422
    1AU       S   92   9.265  -0.388   6.002  0.2761  0.3298 -0.1832
    1AU     LIG   93   9.407  -0.787   6.108 -0.0692 -0.0711 -0.1186
    1AU     LIG   94   9.667  -0.888   5.768  0.3057  0.1601  0.0357
    1AU     LIG   95   9.952  -0.674   5.681 -0.3731  0.0384  0.2828
    1AU       S   96   9.074  -0.747   5.693 -0.0647 -0.1410  0.1364
    1AU     LIG   97   9.088  -1.144   5.935 -0.2438 -0.1530  0.1579
    1AU     LIG   98   9.109  -1.499   5.750  0.1085  0.6234  0.0767
    1AU     LIG   99   9.146  -1.830   5.442  0.0368 -0.1854 -0.2489
    1AU    AUSL  100   9.201   0.119   5.925  0.0125 -0.0002 -0.0597
    1AU    AUSL  101   9.371   0.148   5.350  0.0256  0.1280  0.0371
    1AU     AUL  102   9.429   0.061   5.711  0.0271  0.0044 -0.0629
    1AU       S  103   9.716   0.247   5.368 -0.0449  0.1898  0.2918
    1AU     LIG  104  10.105   0.234   5.636 -0.2525  0.0696  0.0534
    1AU     LIG  105  10.449   0.367   5.797 -0.2393 -0.1608  0.0880
    1AU     LIG  106  10.816   0.667   5.695 -0.1312  0.0006  0.3150
    1AU       S  107   9.422  -0.282   6.059 -0.2619 -0.4557  0.0478
    1AU     LIG  108   9.860  -0.200   6.073  0.0885  0.2057  0.2033
    1AU     LIG  109  10.132  -0.454   6.063 -0.0542  0.1416 -0.0230
    1AU     LIG  110  10.492  -0.737   6.006 -0.2700  0.3583  0.0187
    1AU    AUSL  111   8.858  -0.158   5.913 -0.0146 -0.0044  0.0262
    1AU    AUSL  112   8.869   0.270   6.159 -0.0409  0.0418  0.0037
    1AU     AUL  113   9.094   0.035   6.188 -0.0194 -0.0706  0.0096
    1AU       S  114   8.979   0.144   6.605  0.3372  0.1102  0.2901
    1AU     LIG  115   9.404   0.026   6.702 -0.0349  0.1456 -0.0457
    1AU     LIG  116   9.773  -0.143   6.620  0.2809 -0.1164 -0.4208
    1AU     LIG  117  10.132  -0.332   6.875  0.1098 -0.2780  0.0692
    1AU       S  118   9.003  -0.429   6.112 -0.4829  0.0813  0.0140
    1AU     LIG  119   8.961  -0.737   6.264  0.1351  0.0905  0.0912
    1AU     LIG  120   8.919  -1.195   6.394  0.2180  0.1758 -0.3380
    1AU     LIG  121   9.080  -1.576   6.260  0.0315 -0.2206  0.0690
    1AU    AUSL  122   7.674   0.509   5.294  0.0193 -0.1008 -0.0167
    1AU    AUSL  123   7.549   0.097   5.133  0.0258  0.0331  0.0420
    1AU     AUL  124   7.413   0.393   4.976 -0.0158 -0.0203  0.0266
    1AU       S  125   7.331   1.008   4.947 -0.2946  0.3004  0.1367
    1AU     LIG  126   7.292   1.399   5.121 -0.1172  0.1326 -0.1693
    1AU     LIG  127   7.301   1.796   5.256 -0.3881  0.3748  0.0202
    1AU     LIG  128   7.010   2.106   5.469  0.0516 -0.3270  0.1579
    1AU       S  129   7.130   0.067   5.096 -0.0461  0.0977 -0.0576
    1AU     LIG  130   6.799  -0.224   5.009 -0.1479 -0.0768  0.0301
    1AU     LIG  131   6.626  -0.740   4.936 -0.2014 -0.1176 -0.1795
    1AU     LIG  132   6.388  -1.162   4.858 -0.8472 -0.0018  0.0991
    1AU    AUSL  133   7.754   0.832   5.008  0.0454 -0.0054  0.0684
    1AU    AUSL  134   7.701   0.904   5.472 -0.0296  0.0997 -0.0174
    1AU     AUL  135   7.442   0.765   5.296 -0.0319  0.0545  0.0753
    1AU       S  136   7.668   1.211   5.344 -0.0994  0.3665 -0.5092
    1AU     LIG  137   7.316   1.414   5.643  0.2768 -0.2713 -0.0474
    1AU     LIG  138   7.026   1.444   5.952  0.0994 -0.0124  0.3610
    1AU     LIG  139   6.858   1.212   6.225  0.0914 -0.1692 -0.1604
    1AU       S  140   7.611   0.950   4.898 -0.2539  0.0006  0.1715
    1AU     LIG  141   7.422   1.302   4.599 -0.2614 -0.2585 -0.2339
    1AU     LIG  142   7.206   1.687   4.734  0.0439  0.1086  0.3856
    1AU     LIG  143   6.933   2.083   4.937 -0.0150  0.0156  0.1296
    1AU    AUSL  144   8.448   0.240   6.179  0.0107 -0.0090  0.0725
    1AU    AUSL  145   8.677   0.657   6.089 -0.0090  0.0642 -0.0666
    1AU     AUL  146   8.704   0.491   6.411 -0.0367 -0.0315 -0.0545
    1AU       S  147   8.766   0.115   6.682 -0.0680 -0.3896  0.1839
    1AU     LIG  148   9.068  -0.074   7.064  0.0307  0.0422  0.3740
    1AU     LIG  149   9.568  -0.138   7.101  0.2822  0.1597 -0.0536
    1AU     LIG  150   9.992   0.054   7.277 -0.2381 -0.2149  0.6026
    1AU       S  151   8.519   0.933   6.482  0.1695  0.0238  0.0017
    1AU     LIG  152   8.572   1.320   6.599 -0.2736 -0.0345 -0.0148
    1AU     LIG  153   8.325   1.604   6.819 -0.1927  0.2132 -0.5592
    1AU     LIG  154   8.364   2.142   6.932  0.0504 -0.1282 -0.1757
    1AU    AUSL  155   8.679  -0.118   6.299  0.1059 -0.1630  0.0661
    1AU    AUSL  156   8.193  -0.041   6.364 -0.0236 -0.0565 -0.0745
    1AU     AUL  157   8.359   0.154   6.486 -0.0061  0.1470  0.1251
    1AU       S  158   8.265  -0.336   6.497 -0.0940  0.1254  0.2042
    1AU     LIG  159   8.423  -0.582   6.833 -0.0254  0.2167  0.0118
    1AU     LIG  160   8.550  -1.027   6.841 -0.0727 -0.0616 -0.2093
    1AU     LIG  161   8.805  -1.476   6.785 -0.2765 -0.1082  0.1042
    1AU       S  162   8.810  -0.131   6.545  0.1841  0.2008 -0.3109
    1AU     LIG  163   8.884  -0.529   6.776 -0.2184 -0.1365 -0.1090
    1AU     LIG  164   9.061  -0.965   6.844  0.1789 -0.0655 -0.2029
    1AU     LIG  165   9.056  -1.085   7.214 -0.1371 -0.4137  0.0085
    1AU    AUSL  166   8.635  -0.490   4.937 -0.0283 -0.0817 -0.0255
    1AU    AUSL  167   8.972  -0.368   5.248  0.0575  0.0784  0.0848
    1AU     AUL  168   8.767  -0.722   5.069 -0.0690  0.0562  0.0878
    1AU       S  169   9.169  -0.694   5.266  0.1059 -0.0293  0.0314
    1AU     LIG  170   9.499  -1.099   5.369 -0.2971  0.3037 -0.1606
    1AU     LIG  171   9.641  -1.427   5.628 -0.0982 -0.1364 -0.2823
    1AU     LIG  172   9.666  -1.884   5.578  0.0252  0.3458 -0.1468
    1AU       S  173   8.937  -0.678   4.635 -0.0143 -0.0291 -0.4291
    1AU     LIG  174   9.233  -1.099   4.862 -0.1487  0.0376  0.1222
    1AU     LIG  175   9.467  -1.455   4.832  0.1342  0.0713 -0.1240
    1AU     LIG  176   9.458  -1.843   5.093  0.1054  0.2847 -0.1090
    1AU    AUSL  177   9.011  -0.243   4.847  0.0304 -0.0332  0.0325
    1AU    AUSL  178   8.907   0.158   4.646 -0.0154 -0.0476  0.0044
    1AU     AUL  179   8.951  -0.120   4.445 -0.0621  0.0158 -0.0279
    1AU       S  180   9.155  -0.465   4.757 -0.0228  0.2934  0.2679
    1AU     LIG  181   9.483  -0.660   4.893 -0.3306 -0.0845  0.1386
    1AU     LIG  182   9.788  -0.524   5.210  0.0411 -0.2260  0.1543
    1AU     LIG  183   9.916  -0.175   5.436 -0.0826  0.0153  0.0271
    1AU       S  184   9.312   0.228   4.508  0.0575  0.0539  0.1555
    1AU     LIG  185   9.678   0.198   4.370 -0.1401  0.3185 -0.1566
    1AU     LIG  186  10.068   0.104   4.148 -0.0416 -0.0678 -0.1832
    1AU     LIG  187  10.457   0.044   3.948 -0.1334 -0.1270  0.2681
    1AU    AUSL  188   8.595  -0.073   4.841  0.0614 -0.0725  0.0357
    1AU    AUSL  189   8.240  -0.402   4.792 -0.0032  0.0637 -0.0608
    1AU     AUL  190   8.531  -0.321   4.599 -0.0192 -0.0063 -0.0036
    1AU       S  191   8.142  -0.538   4.495 -0.1793  0.0445  0.1345
    1AU     LIG  192   8.011  -0.981   4.575  0.1824  0.0487 -0.0729
    1AU     LIG  193   8.240  -1.341   4.749  0.3414 -0.0751 -0.1873
    1AU     LIG  194   8.525  -1.349   5.135  0.4627  0.3300  0.2732
    1AU       S  195   8.916  -0.588   4.553 -0.2211 -0.3492 -0.4198
    1AU     LIG  196   8.862  -0.968   4.238 -0.2954 -0.0474  0.0968
    1AU     LIG  197   8.789  -1.325   4.149 -0.1950 -0.2196  0.1377
    1AU     LIG  198   8.819  -1.672   3.714 -0.2983 -0.0034 -0.2029
    1AU    AUSL  199   7.654  -0.180   5.881  0.0184  0.0926 -0.1236
    1AU    AUSL  200   7.438   0.254   5.535  0.0636 -0.0812 -0.0008
    1AU     AUL  201   7.350  -0.081   5.710  0.0330  0.0846 -0.0371
    1AU       S  202   7.227   0.376   5.446 -0.2319  0.4513  0.3301
    1AU     LIG  203   6.792   0.577   5.413 -0.0252  0.1979 -0.0929
    1AU     LIG  204   6.520   0.847   5.536  0.1108 -0.2814  0.2010
    1AU     LIG  205   6.226   1.069   5.685  0.0536 -0.0329  0.2123
    1AU       S  206   7.402  -0.241   6.140  0.0016  0.1031  0.0624
    1AU     LIG  207   6.952  -0.282   6.139 -0.1175  0.2143 -0.2325
    1AU     LIG  208   6.617  -0.108   6.076  0.2243  0.1973  0.3579
    1AU     LIG  209   6.169   0.022   5.966  0.0545 -0.4214  0.2266
    1AU    AUSL  210   7.958   0.115   6.069 -0.0064 -0.0045  0.0142
    1AU    AUSL  211   8.004  -0.343   6.091 -0.0203  0.0023 -0.0072
    1AU     AUL  212   7.824  -0.149   6.255 -0.0007  0.0751  0.0498
    1AU       S  213   7.412  -0.023   6.350  0.0888 -0.4431  0.0504
    1AU     LIG  214   6.969   0.214   6.440 -0.2055  0.1085  0.1772
    1AU     LIG  215   6.475   0.267   6.472 -0.1654  0.0220 -0.4744
    1AU     LIG  216   6.219   0.594   6.294 -0.0909  0.0901 -0.2901
    1AU       S  217   8.047  -0.541   6.414 -0.0645  0.0716  0.3714
    1AU     LIG  218   7.872  -0.932   6.454 -0.1594 -0.0271  0.2642
    1AU     LIG  219   7.778  -1.404   6.537  0.2256 -0.3307  0.1170
    1AU     LIG  220   7.976  -1.878   6.404 -0.1591  0.0313  0.0150
    1AU    AUSL  221   7.557   0.239   5.961 -0.0679  0.0126  0.0110
    1AU    AUSL  222   7.859   0.508   6.168 -0.0168  0.0480  0.0412
    1AU     AUL  223   7.711   0.307   6.306 -0.1413 -0.0118 -0.0955
    1AU       S  224   7.477   0.692   6.200 -0.4157  0.2809  0.1399
    1AU     LIG  225   7.214   0.969   6.512  0.0213  0.0122  0.0981
    1AU     LIG  226   7.198   1.373   6.551 -0.1200 -0.2422  0.0012
    1AU     LIG  227   6.901   1.729   6.670  0.2275  0.0685 -0.3210
    1AU       S  228   7.324   0.170   6.068  0.2685  0.2489 -0.0584
    1AU     LIG  229   6.946   0.394   5.958 -0.1750  0.0853  0.3124
    1AU     LIG  230   6.590   0.627   5.962  0.4460 -0.0053 -0.0115
    1AU     LIG  231   6.500   0.981   6.052 -0.0058 -0.0398 -0.1854
    1AU    AUSL  232   9.053   0.496   4.893 -0.1260  0.0459  0.0653
    1AU    AUSL  233   8.624   0.439   4.769 -0.0969  0.0467 -0.0042
    1AU     AUL  234   8.842   0.434   4.499  0.1350  0.1195 -0.1037
    1AU       S  235   9.332   0.447   4.615  0.4742 -0.0170 -0.1163
    1AU     LIG  236   9.754   0.648   4.588  0.1771  0.1518 -0.2420
    1AU     LIG  237   9.921   0.763   5.024 -0.2014 -0.2014  0.2463
    1AU     LIG  238  10.035   1.117   5.221  0.0339  0.3279 -0.0942
    1AU       S  239   8.951   0.865   4.602 -0.2561  0.2213  0.2241
    1AU     LIG  240   9.388   0.989   4.518  0.2086 -0.3852 -0.1094
    1AU     LIG  241   9.781   1.072   4.230 -0.1760  0.0317  0.0068
    1AU     LIG  242  10.092   0.983   3.923  0.4564  0.1656  0.1140
    1AU    AUSL  243   9.019   0.109   5.085 -0.0154 -0.0036  0.0714
    1AU    AUSL  244   9.241   0.589   5.271  0.0560  0.1108 -0.0779
    1AU     AUL  245   9.341   0.300   5.061  0.0013 -0.0620  0.0282
    1AU       S  246   9.369   0.056   4.675  0.1078  0.0203 -0.0254
    1AU     LIG  247   9.759  -0.163   4.754 -0.0167  0.0758  0.0837
    1AU     LIG  248  10.205  -0.168   4.980 -0.1034 -0.0411  0.1944
    1AU     LIG  249  10.384  -0.028   5.273 -0.2060 -0.3089  0.1859
    1AU       S  250   9.616   0.592   5.312 -0.6376  0.2428  0.3035
    1AU     LIG  251   9.708   0.966   5.590  0.0757 -0.1380 -0.1677
    1AU     LIG  252   9.967   1.189   5.853 -0.1959 -0.1005  0.4214
    1AU     LIG  253  10.351   1.356   5.968 -0.1425 -0.0779 -0.3220
    1AU    AUSL  254   8.070   0.757   5.857 -0.0287  0.1050  0.0290
    1AU    AUSL  255   8.258   0.620   6.250 -0.0828 -0.0644 -0.0041
    1AU     AUL  256   7.978   0.856   6.179  0.1272  0.0577 -0.0950
    1AU       S  257   8.354   0.829   6.486  0.2552 -0.0167  0.1490
    1AU     LIG  258   8.070   1.195   6.672 -0.0788  0.1069 -0.1226
    1AU     LIG  259   7.943   1.686   6.531  0.1486 -0.0107  0.4120
    1AU     LIG  260   8.164   2.081   6.404  0.0229 -0.2112 -0.3563
    1AU       S  261   7.529   0.877   6.119 -0.3874 -0.2693 -0.2954
    1AU     LIG  262   7.460   1.295   6.180  0.2561 -0.1776 -0.2211
    1AU     LIG  263   7.561   1.686   5.962 -0.1759  0.2747 -0.1072
    1AU     LIG  264   7.938   1.960   5.954 -0.1103 -0.0871  0.2340
    1AU    AUSL  265   7.676   0.599   5.749 -0.0589  0.0052 -0.1130
    1AU    AUSL  266   8.048   1.117   5.647  0.0049 -0.0110 -0.0993
    1AU     AUL  267   7.772   0.987   5.749  0.1325  0.0079  0.0429
    1AU       S  268   7.793   1.396   5.465 -0.2270 -0.2285  0.2730
    1AU     LIG  269   7.827   1.837   5.513  0.0565 -0.2782  0.0332
    1AU     LIG  270   7.855   2.285   5.328  0.0683  0.0269 -0.1752
    1AU     LIG  271   7.535   2.595   5.415 -0.0524 -0.1425  0.1052
    1AU       S  272   7.473   0.695   5.958 -0.0450 -0.2490  0.3777
    1AU     LIG  273   7.047   0.893   5.864 -0.1375  0.1221  0.4862
    1AU     LIG  274   6.931   1.171   5.495  0.2527 -0.2301 -0.1270
    1AU     LIG  275   6.850   1.654   5.411  0.0463  0.1197  0.2887
    1AU    AUSL  276   7.674  -0.294   5.050 -0.0644  0.0472 -0.0886
    1AU    AUSL  277   7.738  -0.067   5.480 -0.0412 -0.0571 -0.0331
    1AU     AUL  278   7.451  -0.264   5.242  0.0214  0.0490 -0.0134
    1AU       S  279   7.122   0.051   5.295 -0.2376 -0.1619 -0.2448
    1AU     LIG  280   6.777   0.036   5.539  0.4878 -0.4181  0.1425
    1AU     LIG  281   6.399  -0.116   5.594 -0.0798  0.0104  0.2834
    1AU     LIG  282   6.021  -0.078   5.430  0.1520  0.3842  0.0078
    1AU       S  283   7.526  -0.713   4.995  0.0285 -0.2622 -0.2798
    1AU     LIG  284   7.507  -1.156   4.872  0.1074  0.0683 -0.1140
    1AU     LIG  285   7.190  -1.454   4.752  0.3704  0.0259  0.0866
    1AU     LIG  286   6.995  -1.851   4.553 -0.5892  0.5238 -0.2529
    1AU    AUSL  287   7.750  -0.502   5.476 -0.0144 -0.0124  0.0134
    1AU    AUSL  288   8.241  -0.735   5.434  0.0548 -0.0189  0.1026
    1AU     AUL  289   7.872  -0.805   5.610  0.0094 -0.0150  0.0325
    1AU       S  290   7.557  -0.732   5.272  0.2664  0.3519 -0.0424
    1AU     LIG  291   7.080  -0.781   5.191  0.0085  0.2561  0.4118
    1AU     LIG  292   6.776  -0.581   5.405  0.0974 -0.0663 -0.0658
    1AU     LIG  293   6.650  -0.508   5.751 -0.1706  0.0419 -0.0638
    1AU       S  294   8.286  -1.077   5.536  0.2507  0.1723  0.2980
    1AU     LIG  295   8.159  -1.489   5.575 -0.2227 -0.1626  0.0418
    1AU     LIG  296   8.152  -1.939   5.482  0.0805 -0.1440  0.0315
    1AU     LIG  297   7.758  -2.351   5.449 -0.4731  0.3677 -0.2387
    1AU    AUSL  298   8.089  -0.420   5.186  0.0008 -0.0061  0.0153
    1AU    AUSL  299   7.984  -0.059   4.866  0.1045  0.0100 -0.0887
    1AU     AUL  300   7.876  -0.434   4.874  0.0942 -0.0821  0.0155
    1AU       S  301   7.880  -0.290   4.441 -0.2348 -0.3715 -0.3765
    1AU     LIG  302   7.520  -0.516   4.336 -0.1151 -0.2506 -0.1585
    1AU     LIG  303   7.197  -0.635   4.498  0.1249 -0.2521 -0.0904
    1AU     LIG  304   6.780  -0.515   4.517 -0.2104 -0.1739  0.1874
    1AU       S  305   7.860  -0.799   5.125 -0.0816 -0.0273 -0.0662
    1AU     LIG  306   7.957  -1.249   5.143  0.0171  0.1236  0.1448
    1AU     LIG  307   8.042  -1.624   5.069 -0.3670  0.2479  0.1699
    1AU     LIG  308   8.355  -1.869   4.868 -0.0449 -0.4325  0.4122
    1AU    AUSL  309   8.380   1.076   5.072 -0.0362  0.0440 -0.0404
    1AU    AUSL  310   8.765   0.785   5.012 -0.0175 -0.0449 -0.0626
    1AU     AUL  311   8.505   1.093   4.759  0.0889  0.1195 -0.0230
    1AU       S  312   8.535   1.450   5.070 -0.4721  0.6073 -0.1534
    1AU     LIG  313   8.212   1.627   4.781  0.1887  0.1610  0.0993
    1AU     LIG  314   8.053   2.008   4.694 -0.3286 -0.2773 -0.2144
    1AU     LIG  315   7.832   2.431   4.841 -0.2830 -0.0889  0.2026
    1AU       S  316   8.954   0.980   4.855  0.2073  0.0610 -0.1059
    1AU     LIG  317   9.195   1.356   4.778 -0.0780  0.1166 -0.2727
    1AU     LIG  318   9.517   1.700   4.813  0.2027  0.1269  0.2757
    1AU     LIG  319   9.530   1.950   4.491  0.0879 -0.1686  0.0858
    1AU    AUSL  320   8.442   0.973   5.520 -0.0325  0.1199 -0.0473
    1AU    AUSL  321   8.078   0.862   5.270 -0.0506  0.0166 -0.1088
    1AU     AUL  322   8.218   1.241   5.333 -0.0208  0.0842 -0.0134
    1AU       S  323   8.562   1.537   5.275 -0.3287  0.0079 -0.1355
    1AU     LIG  324   8.622   1.840   5.496 -0.4127 -0.1732 -0.1341
    1AU     LIG  325   8.811   2.071   5.635  0.2366  0.3071 -0.2014
    1AU     LIG  326   8.650   2.502   5.537 -0.3556  0.0065 -0.1775
    1AU       S  327   7.788   1.271   5.164 -0.0417  0.4590 -0.1916
    1AU     LIG  328   7.783   1.529   5.004  0.0345 -0.0073 -0.1579
    1AU     LIG  329   7.723   1.862   5.013  0.5012 -0.1717 -0.3172
    1AU     LIG  330   7.429   2.210   5.086  0.0727 -0.0286 -0.0240
    1AU    AUSL  331   8.780   1.110   5.285 -0.0720  0.0085 -0.0018
    1AU    AUSL  332   8.778   1.008   5.790  0.0829  0.0125 -0.0829
    1AU     AUL  333   8.610   1.251   5.647 -0.0420 -0.1280  0.0884
    1AU       S  334   9.072   1.177   5.701 -0.1333 -0.3831  0.3500
    1AU     LIG  335   9.106   1.594   5.634  0.0266 -0.1462  0.0422
    1AU     LIG  336   9.254   1.944   5.798 -0.2862  0.0314  0.3283
    1AU     LIG  337   9.528   2.085   6.003 -0.0397 -0.2301 -0.0646
    1AU       S  338   8.786   1.341   5.132 -0.2565 -0.2027 -0.1501
    1AU     LIG  339   9.049   1.674   5.170  0.1466 -0.1528  0.4543
    1AU     LIG  340   9.345   1.866   5.219  0.3413 -0.0070 -0.1815
    1AU     LIG  341   9.458   2.220   5.433 -0.1096  0.0461 -0.4194
    1AU    AUSL  342   8.493  -0.605   5.796 -0.0795 -0.0870 -0.0188
    1AU    AUSL  343   8.559  -0.443   5.369  0.0448  0.0812  0.0080
    1AU     AUL  344   8.632  -0.767   5.499 -0.0692  0.0255  0.1237
    1AU       S  345   8.517  -0.914   5.908 -0.0607  0.1672  0.1325
    1AU     LIG  346   8.637  -1.286   5.822  0.0472 -0.1184  0.3612
    1AU     LIG  347   8.583  -1.707   5.753 -0.0585  0.4522 -0.0563
    1AU     LIG  348   8.393  -2.104   6.025 -0.0013 -0.1765 -0.3855
    1AU       S  349   9.044  -0.883   5.430 -0.2821 -0.2960  0.3854
    1AU     LIG  350   9.027  -1.314   5.315  0.1802 -0.1530  0.0188
    1AU     LIG  351   8.987  -1.606   5.023  0.1505 -0.0685 -0.3299
    1AU     LIG  352   8.674  -1.916   5.179  0.0947  0.0844 -0.2254
    1AU    AUSL  353   8.111  -0.404   5.682 -0.0439  0.0123 -0.1266
    1AU    AUSL  354   8.416  -0.243   6.011  0.0796 -0.0984  0.0460
    1AU     AUL  355   8.171  -0.601   5.947  0.0253 -0.1103 -0.0296
    1AU       S  356   8.201  -1.036   5.842 -0.3165 -0.0781 -0.3896
    1AU     LIG  357   8.052  -1.433   6.135 -0.0462  0.0047 -0.0506
    1AU     LIG  358   7.937  -1.771   5.911  0.0388 -0.1051  0.0438
    1AU     LIG  359   7.765  -2.147   5.943  0.0850 -0.0691  0.1812
    1AU       S  360   8.426  -0.501   6.325 -0.5000  0.5782 -0.4098
    1AU     LIG  361   8.397  -0.950   6.396  0.1204 -0.0131  0.0844
    1AU     LIG  362   8.354  -1.383   6.530  0.0608  0.2193  0.2411
    1AU     LIG  363   8.498  -1.766   6.369  0.0407  0.0555  0.0405
    1AU    AUSL  364   9.067   0.686   5.906  0.0029  0.0700 -0.0912
    1AU    AUSL  365   8.404   1.003   5.999 -0.0998 -0.0394  0.0341
    1AU     AUL  366   8.828   0.968   6.108  0.0740  0.0430 -0.0277
    1AU       S  367   8.384   1.098   6.178  0.0405  0.0572 -0.2438
    1AU     LIG  368   8.299   1.624   6.188  0.0917  0.2366 -0.0130
    1AU     LIG  369   8.488   2.039   6.012  0.0077 -0.1372 -0.0353
    1AU     LIG  370   8.270   2.165   5.664  0.3557 -0.4080  0.6324
    1AU       S  371   9.250   0.980   5.881 -0.5510 -0.1061  0.3679
    1AU     LIG  372   9.606   1.040   6.132  0.0847  0.6058  0.1815
    1AU     LIG  373   9.692   1.127   6.548 -0.2792 -0.2098  0.1029
    1AU     LIG  374   9.700   1.285   7.048  0.0752 -0.0421 -0.0946
    1AU    AUSL  375   8.904   0.743   5.472 -0.0654  0.0168 -0.0443
    1AU    AUSL  376   9.066   0.356   5.611 -0.0719  0.0254 -0.0138
    1AU     AUL  377   9.271   0.595   5.622 -0.0788  0.0912  0.0459
    1AU       S  378   9.176   1.038   5.542 -0.1348  0.2118 -0.1428
    1AU     LIG  379   9.468   1.329   5.293  0.1146 -0.0733 -0.0311
    1AU     LIG  380   9.766   1.635   5.339  0.0864  0.0773  0.4074
    1AU     LIG  381  10.181   1.592   5.551  0.1299  0.0008 -0.3187
    1AU       S  382   9.696   0.485   5.471  0.5562 -0.3531 -0.4715
    1AU     LIG  383  10.142   0.682   5.552  0.0884 -0.1080 -0.2262
    1AU     LIG  384  10.436   0.951   5.582  0.3116  0.1111  0.2586
    1AU     LIG  385  10.714   1.310   5.592 -0.0503  0.0502  0.0841
    2POPC   NC3  386   5.488   1.041   7.487  0.2776  0.2519  0.0393
    2POPC   PO4  387   5.813   1.311   7.445  0.4093  0.0268  0.0345
    2POPC   GL1  388   5.636   1.583   7.146 -0.3260 -0.1928  0.1533
    2POPC   GL2  389   5.319   1.478   7.110  0.1870  0.0512 -0.0506
    2POPC   C1A  390   5.555   2.017   6.987  0.2657 -0.1006 -0.1206
    2POPC   D2A  391   5.338   2.178   6.766  0.1818 -0.0127 -0.0172
    2POPC   C3A  392   5.435   2.455   6.395 -0.0346  0.1306 -0.0412
    2POPC   C4A  393   5.344   2.303   5.951  0.1015 -0.1032 -0.4258
    2POPC   C1B  394   5.288   1.704   6.693 -0.3787  0.0075  0.1568
    2POPC   C2B  395   5.337   1.896   6.260  0.0550 -0.1764  0.0357
    2POPC   C3B  396   5.516   1.838   5.861  0.2265 -0.0609  0.0654
    2POPC   C4B  397   5.406   1.667   5.480  0.1738  0.1605 -0.0193
    3POPC   NC3  398   1.794   6.337   7.684 -0.3589  0.1997 -0.0588
    3POPC   PO4  399   2.122   6.238   7.650  0.1866  0.2738  0.0989
    3POPC   GL1  400   1.887   6.207   7.195 -0.4302  0.2634 -0.0852
    3POPC   GL2  401   1.739   5.781   7.341 -0.3292 -0.0365  0.0738
    3POPC   C1A  402   1.894   6.196   6.754  0.0865 -0.2246 -0.1674
    3POPC   D2A  403   1.812   6.283   6.321 -0.0329  0.0726  0.0988
    3POPC   C3A  404   2.135   6.509   6.012  0.2201 -0.1329 -0.2845
    3POPC   C4A  405   2.308   6.689   5.593  0.1894 -0.0466 -0.0439
    3POPC   C1B  406   1.815   5.742   6.843  0.1712 -0.0146  0.0812
    3POPC   C2B  407   1.612   5.891   6.532 -0.0784  0.6260 -0.1763
    3POPC   C3B  408   1.656   5.668   6.132 -0.1851  0.1343 -0.0821
    3POPC   C4B  409   2.026   5.445   6.058 -0.1560 -0.1448 -0.2116
    4POPC   NC3  410   5.346   1.917   7.787  0.1756  0.1543 -0.3194
    4POPC   PO4  411   5.113   1.777   7.417  0.2228  0.0666 -0.2064
    4POPC   GL1  412   4.925   1.853   7.020 -0.0197 -0.3375 -0.1809
    4POPC   GL2  413   4.874   1.487   6.887  0.0152 -0.0020 -0.0455
    4POPC   C1A  414   4.667   1.886   6.565  0.1609 -0.1502 -0.1482
    4POPC   D2A  415   4.472   1.732   6.156 -0.1053 -0.0624 -0.0612
    4POPC   C3A  416   4.620   1.561   5.779 -0.0195  0.1109  0.1757
    4POPC   C4A  417   4.849   1.728   5.479 -0.0219  0.4073  0.0842
    4POPC   C1B  418   5.123   1.260   6.585 -0.0835 -0.1191 -0.0317
    4POPC   C2B  419   5.122   0.960   6.120 -0.0506 -0.2608 -0.3358
    4POPC   C3B  420   5.464   0.901   5.847  0.0176  0.1609  0.1310
    4POPC   C4B  421   5.737   0.836   5.480 -0.1725 -0.0505  0.0548
    5POPC   NC3  422   2.203   7.003   8.202 -0.1909 -0.0052 -0.0676
    5POPC   PO4  423   2.310   6.759   7.848 -0.0971  0.1465 -0.0359
    5POPC   GL1  424   2.297   6.644   7.412  0.0286 -0.1320  0.1909
    5POPC   GL2  425   1.963   6.654   7.337 -0.1794  0.0924 -0.0342
    5POPC   C1A  426   2.315   6.558   7.030  0.2268 -0.1826 -0.1709
    5POPC   D2A  427   2.123   6.632   6.608 -0.1927 -0.1416 -0.1050
    5POPC   C3A  428   2.248   6.307   6.445 -0.1267  0.3252 -0.3546
    5POPC   C4A  429   2.131   5.865   6.460  0.0762  0.1616 -0.2137
    5POPC   C1B  430   1.806   6.703   6.967 -0.0506 -0.1879  0.1907
    5POPC   C2B  431   1.681   6.791   6.596  0.0360 -0.2619  0.0594
    5POPC   C3B  432   1.684   7.022   6.215 -0.1690  0.1501  0.0316
    5POPC   C4B  433   1.805   7.322   5.832  0.3818  0.1040 -0.2760
    6POPC   NC3  434   4.936   3.731   7.703 -0.1655  0.0184  0.3496
    6POPC   PO4  435   5.488   3.705   7.611  0.3932  0.0172 -0.0560
    6POPC   GL1  436   5.277   3.704   7.274  0.2232  0.0249 -0.3930
    6POPC   GL2  437   4.964   3.897   7.203 -0.0208 -0.2538 -0.1132
    6POPC   C1A  438   5.532   3.565   6.977  0.0939  0.1949  0.0313
    6POPC   D2A  439   5.409   3.243   6.649  0.0288  0.1537  0.0483
    6POPC   C3A  440   5.615   3.108   6.308 -0.1559 -0.1413  0.0598
    6POPC   C4A  441   5.427   2.846   6.038  0.2100  0.0250  0.0273
    6POPC   C1B  442   4.959   3.550   6.977  0.0463 -0.2173  0.0637
    6POPC   C2B  443   4.797   3.417   6.682 -0.0543  0.1506  0.0476
    6POPC   C3B  444   4.581   3.102   6.425 -0.0734 -0.0790 -0.1499
    6POPC   C4B  445   4.608   2.946   6.139 -0.0464  0.2617  0.0888
    7POPC   NC3  446   5.374   3.007   7.696  0.1261  0.0544  0.3983
    7POPC   PO4  447   5.345   2.514   7.701  0.0632  0.3591 -0.3674
    7POPC   GL1  448   5.509   2.710   7.346 -0.3395  0.1174  0.2482
    7POPC   GL2  449   5.864   2.605   7.271  0.0510  0.1015 -0.0908
    7POPC   C1A  450   5.359   2.717   6.907  0.2977 -0.2092  0.3328
    7POPC   D2A  451   5.057   2.716   6.493  0.1331  0.1278 -0.0659
    7POPC   C3A  452   5.089   3.110   6.282  0.1280  0.0390 -0.0221
    7POPC   C4A  453   4.848   3.400   6.018  0.1638  0.1079 -0.2073
    7POPC   C1B  454   5.792   2.491   6.849 -0.1684  0.0731 -0.0022
    7POPC   C2B  455   5.794   2.150   6.539 -0.2912  0.1888 -0.3445
    7POPC   C3B  456   6.196   1.979   6.400  0.2239  0.0289 -0.2513
    7POPC   C4B  457   6.622   2.051   6.324  0.1730 -0.2375 -0.2535
    8POPC   NC3  458   2.209   5.762   7.658 -0.0231 -0.3693  0.3083
    8POPC   PO4  459   1.955   5.359   7.522  0.2857 -0.1065 -0.0997
    8POPC   GL1  460   1.551   5.326   7.343  0.0234  0.0932 -0.0520
    8POPC   GL2  461   1.416   5.140   7.434  0.2040  0.1713 -0.0410
    8POPC   C1A  462   1.519   5.292   6.867 -0.1855 -0.2477 -0.0087
    8POPC   D2A  463   1.788   5.224   6.444 -0.1895 -0.0491 -0.2640
    8POPC   C3A  464   1.662   5.164   6.055  0.1519  0.2258  0.3438
    8POPC   C4A  465   1.420   5.023   5.798 -0.1092 -0.1419 -0.0399
    8POPC   C1B  466   1.240   4.876   7.110 -0.0552  0.1180 -0.1371
    8POPC   C2B  467   1.122   4.815   6.745 -0.2031 -0.3159 -0.0230
    8POPC   C3B  468   0.774   4.638   6.472 -0.4828  0.1557  0.2084
    8POPC   C4B  469   0.621   4.701   6.083 -0.0644  0.2344  0.1332
    9POPC   NC3  470   2.691   6.268   7.859  0.2112 -0.0421 -0.0464
    9POPC   PO4  471   2.696   5.813   7.756 -0.0880 -0.0451  0.1235
    9POPC   GL1  472   2.696   5.527   7.443  0.1259 -0.2706 -0.1998
    9POPC   GL2  473   2.770   5.164   7.279 -0.1369 -0.0284  0.0335
    9POPC   C1A  474   2.672   5.586   7.003 -0.1855  0.0614  0.0461
    9POPC   D2A  475   2.684   5.722   6.560 -0.0616 -0.0445  0.1030
    9POPC   C3A  476   2.701   6.177   6.374 -0.2300 -0.0570 -0.0381
    9POPC   C4A  477   2.584   6.420   5.991 -0.2593  0.3239 -0.0601
    9POPC   C1B  478   2.569   4.990   6.864 -0.2093  0.0174  0.2841
    9POPC   C2B  479   2.236   4.826   6.459 -0.2925  0.1994  0.5214
    9POPC   C3B  480   2.216   4.968   6.036  0.0266  0.3848 -0.0258
    9POPC   C4B  481   2.207   5.025   5.631 -0.0745 -0.0961 -0.3473
   10POPC   NC3  482   6.829   5.523   7.746 -0.1163  0.1336  0.2897
   10POPC   PO4  483   6.751   5.778   7.918  0.4059 -0.1328 -0.0641
   10POPC   GL1  484   6.662   6.020   7.594 -0.1164  0.2226 -0.2575
   10POPC   GL2  485   6.827   6.302   7.461 -0.0341  0.1597  0.0034
   10POPC   C1A  486   6.534   6.041   7.194 -0.0431  0.0543  0.0166
   10POPC   D2A  487   6.311   5.773   6.850 -0.0782 -0.0254  0.2903
   10POPC   C3A  488   6.108   5.981   6.426  0.1031 -0.0049  0.0323
   10POPC   C4A  489   6.036   6.360   6.181 -0.0592 -0.0493  0.1805
   10POPC   C1B  490   7.039   6.675   7.197 -0.1135 -0.1128  0.1618
   10POPC   C2B  491   7.165   6.862   6.757  0.4089  0.0656  0.1628
   10POPC   C3B  492   7.295   7.247   6.490  0.0290  0.1315 -0.2248
   10POPC   C4B  493   7.656   7.465   6.724  0.2083 -0.0803  0.0795
   11POPC   NC3  494   7.803   3.419   7.722  0.0557  0.0054  0.1758
   11POPC   PO4  495   8.216   3.331   7.901  0.3453 -0.0334  0.2353
   11POPC   GL1  496   8.372   3.339   7.487  0.2183 -0.0635 -0.0184
   11POPC   GL2  497   8.272   3.083   7.277 -0.3628  0.1625 -0.0799
   11POPC   C1A  498   8.512   3.531   7.132  0.2319 -0.1287  0.1885
   11POPC   D2A  499   8.331   4.003   6.965 -0.1057 -0.0408  0.0105
   11POPC   C3A  500   7.995   4.003   6.875 -0.0345 -0.1103 -0.3744
   11POPC   C4A  501   7.735   4.053   7.176  0.3113 -0.0158 -0.1935
   11POPC   C1B  502   7.899   3.000   6.926 -0.1671 -0.1877  0.0413
   11POPC   C2B  503   7.645   2.860   6.613  0.4796  0.0917 -0.2102
   11POPC   C3B  504   7.489   2.734   6.245  0.1009  0.0777 -0.1915
   11POPC   C4B  505   7.733   2.510   5.914  0.1260  0.1278  0.0053
   12POPC   NC3  506   0.934   9.064   8.112 -0.0286 -0.1820  0.0792
   12POPC   PO4  507   1.116   9.214   7.728  0.1022  0.2238 -0.0071
   12POPC   GL1  508   0.952   9.357   7.287  0.0085 -0.2160 -0.0960
   12POPC   GL2  509   1.022   9.740   7.080 -0.0240  0.0380 -0.0005
   12POPC   C1A  510   1.027   9.088   6.915 -0.3372  0.0609 -0.0621
   12POPC   D2A  511   0.915   9.008   6.413 -0.0315  0.1961  0.1862
   12POPC   C3A  512   0.660   8.856   6.130 -0.0406  0.0104  0.1942
   12POPC   C4A  513   0.429   8.893   5.786 -0.0212 -0.5040  0.3862
   12POPC   C1B  514   0.996   9.983   6.683 -0.1954  0.0546  0.0675
   12POPC   C2B  515   0.774  10.153   6.398 -0.0490  0.3960  0.0705
   12POPC   C3B  516   0.802  10.241   6.050 -0.1804  0.1833 -0.2254
   12POPC   C4B  517   1.066  10.426   5.741 -0.2606 -0.0683 -0.2043
   13POPC   NC3  518   8.620   4.296   7.948 -0.0358 -0.1017  0.0591
   13POPC   PO4  519   8.913   4.543   8.184  0.2901 -0.0188  0.1284
   13POPC   GL1  520   8.904   4.711   7.691 -0.2369  0.0163 -0.0671
   13POPC   GL2  521   8.751   4.483   7.481 -0.0778 -0.0799  0.0615
   13POPC   C1A  522   8.912   5.010   7.357  0.0409 -0.1606 -0.1282
   13POPC   D2A  523   9.042   5.058   6.979 -0.1441 -0.0973  0.3545
   13POPC   C3A  524   9.123   4.770   6.806  0.3055  0.0845 -0.1255
   13POPC   C4A  525   9.263   4.379   6.789  0.1170  0.2917  0.0150
   13POPC   C1B  526   8.718   4.538   6.965  0.2749 -0.2763 -0.0225
   13POPC   C2B  527   8.682   4.395   6.648 -0.1611 -0.3360  0.1196
   13POPC   C3B  528   8.370   4.077   6.436 -0.4776  0.0493 -0.2793
   13POPC   C4B  529   8.236   3.750   6.339 -0.0085 -0.1168 -0.2661
   14POPC   NC3  530   7.606   5.802   7.855  0.1500  0.2994  0.0217
   14POPC   PO4  531   7.380   5.603   7.663  0.2524  0.0890 -0.2986
   14POPC   GL1  532   7.308   5.392   7.339  0.3295 -0.2029  0.2133
   14POPC   GL2  533   7.603   5.396   7.287  0.2985  0.4679  0.1748
   14POPC   C1A  534   7.044   5.223   7.211 -0.2803  0.1140  0.3022
   14POPC   D2A  535   6.748   4.923   6.996  0.0268  0.0526 -0.1461
   14POPC   C3A  536   6.686   4.867   6.580  0.3634  0.1679 -0.2007
   14POPC   C4A  537   6.344   4.930   6.388  0.0161 -0.0596 -0.1905
   14POPC   C1B  538   7.978   5.530   7.090 -0.1434 -0.0577  0.3176
   14POPC   C2B  539   8.347   5.558   6.884  0.4972 -0.2069  0.0382
   14POPC   C3B  540   8.417   5.354   6.467  0.2446 -0.0264  0.2474
   14POPC   C4B  541   8.580   5.179   6.148  0.1667 -0.1676  0.1284
   15POPC   NC3  542   4.574   1.145   7.309 -0.0848  0.2830  0.0726
   15POPC   PO4  543   4.172   1.186   7.095  0.0308  0.0765 -0.1791
   15POPC   GL1  544   4.390   1.152   6.788  0.2200 -0.1643 -0.1161
   15POPC   GL2  545   4.670   1.009   6.744  0.0887  0.0578  0.0281
   15POPC   C1A  546   4.599   1.410   6.478  0.0029 -0.0899 -0.1438
   15POPC   D2A  547   4.965   1.525   6.172 -0.2985 -0.1135 -0.0360
   15POPC   C3A  548   4.867   1.935   5.976 -0.1095  0.0942 -0.1473
   15POPC   C4A  549   4.853   2.191   5.638  0.1564  0.0436 -0.1314
   15POPC   C1B  550   4.610   0.944   6.219 -0.2129 -0.0771 -0.1130
   15POPC   C2B  551   4.465   1.135   5.819 -0.0915  0.0816 -0.1748
   15POPC   C3B  552   4.488   1.248   5.368 -0.0999 -0.0060 -0.1120
   15POPC   C4B  553   4.816   1.425   5.084  0.0160  0.2646 -0.3758
   16POPC   NC3  554   2.937   8.594   6.948  0.0719  0.0643  0.0744
   16POPC   PO4  555   3.067   9.014   6.849 -0.2920 -0.0687 -0.2616
   16POPC   GL1  556   3.341   8.955   6.611 -0.3195  0.1242 -0.0533
   16POPC   GL2  557   3.656   8.892   6.579  0.0424  0.2234 -0.1309
   16POPC   C1A  558   3.448   9.066   6.201 -0.3441 -0.3569  0.1181
   16POPC   D2A  559   3.366   8.840   5.793 -0.1911 -0.1118 -0.1446
   16POPC   C3A  560   2.967   8.863   5.392 -0.0337  0.1634 -0.3235
   16POPC   C4A  561   2.450   8.880   5.393 -0.2478 -0.0212 -0.2821
   16POPC   C1B  562   3.653   8.529   6.406  0.0443  0.2115  0.1424
   16POPC   C2B  563   3.686   8.289   6.099  0.1223  0.0341  0.3798
   16POPC   C3B  564   3.694   8.076   5.732 -0.4030 -0.0162  0.1301
   16POPC   C4B  565   3.955   8.102   5.331  0.0706 -0.2099  0.1171
   17POPC   NC3  566   1.214   7.093   7.794  0.1295  0.1550  0.0190
   17POPC   PO4  567   0.914   6.870   8.076 -0.0052  0.1032 -0.3811
   17POPC   GL1  568   0.744   6.966   7.581  0.0604  0.1841 -0.1131
   17POPC   GL2  569   0.997   7.101   7.318  0.1259  0.0727  0.2137
   17POPC   C1A  570   0.477   7.277   7.424  0.1594 -0.0685  0.0877
   17POPC   D2A  571   0.106   7.417   7.232  0.2776 -0.2148 -0.1560
   17POPC   C3A  572   0.241   7.553   6.829 -0.3741  0.0108  0.1911
   17POPC   C4A  573   0.549   7.637   6.511  0.1769 -0.3228 -0.1477
   17POPC   C1B  574   0.722   6.781   7.075 -0.0626  0.0217 -0.3028
   17POPC   C2B  575   0.493   6.672   6.728 -0.0360  0.1346 -0.0035
   17POPC   C3B  576   0.346   6.621   6.304  0.0345 -0.2933 -0.0735
   17POPC   C4B  577   0.007   6.678   6.049 -0.1375  0.2056 -0.1767
   18POPC   NC3  578   4.362   7.958   7.533 -0.0543  0.4122 -0.1797
   18POPC   PO4  579   4.553   8.300   7.326 -0.0325 -0.3495 -0.0311
   18POPC   GL1  580   4.599   8.078   6.918 -0.0783  0.1732  0.2347
   18POPC   GL2  581   4.475   8.303   6.747 -0.4610 -0.3301  0.3526
   18POPC   C1A  582   5.049   8.068   6.680  0.1748 -0.0556  0.1637
   18POPC   D2A  583   5.199   8.236   6.240  0.1656 -0.1723 -0.0129
   18POPC   C3A  584   5.233   8.020   5.844 -0.3379 -0.0853  0.3186
   18POPC   C4A  585   5.188   7.843   5.413 -0.1040 -0.2128 -0.0924
   18POPC   C1B  586   4.753   8.349   6.442  0.1089 -0.0987 -0.1385
   18POPC   C2B  587   4.754   8.292   5.949  0.3076 -0.0717  0.1429
   18POPC   C3B  588   4.963   8.475   5.633  0.0917  0.1186  0.0332
   18POPC   C4B  589   5.370   8.320   5.357  0.1571 -0.1896 -0.1271
   19POPC   NC3  590   8.017   5.462   8.338  0.0524  0.3048 -0.1922
   19POPC   PO4  591   8.048   5.867   8.028 -0.0714 -0.0539  0.1282
   19POPC   GL1  592   8.266   5.680   7.705 -0.3243  0.1363 -0.2883
   19POPC   GL2  593   8.663   5.646   7.611 -0.0495  0.1700  0.1164
   19POPC   C1A  594   8.311   5.854   7.320  0.1472  0.0962 -0.2274
   19POPC   D2A  595   8.162   6.041   6.961  0.0483 -0.0368 -0.0925
   19POPC   C3A  596   7.847   5.840   6.726  0.0504  0.0722  0.1883
   19POPC   C4A  597   7.824   5.412   6.515 -0.1335 -0.1308 -0.0591
   19POPC   C1B  598   8.686   5.455   7.249  0.0429 -0.2356  0.1014
   19POPC   C2B  599   8.843   5.490   6.779  0.3331  0.3051 -0.3526
   19POPC   C3B  600   8.934   5.624   6.415 -0.3559  0.0670  0.0624
   19POPC   C4B  601   8.992   5.449   6.049  0.1604  0.0249 -0.2488
   20POPC   NC3  602   9.226   7.780   7.943 -0.1378  0.1323 -0.0410
   20POPC   PO4  603   9.576   8.070   7.982  0.1721 -0.4244  0.0763
   20POPC   GL1  604   9.539   7.878   7.559  0.2908 -0.2584 -0.2125
   20POPC   GL2  605   9.505   7.595   7.388 -0.3557  0.0053  0.0360
   20POPC   C1A  606   9.522   8.082   7.200  0.3446 -0.0862 -0.3889
   20POPC   D2A  607   9.427   8.120   6.768  0.2305  0.0360 -0.0698
   20POPC   C3A  608   9.682   8.328   6.410  0.1995  0.3477 -0.0067
   20POPC   C4A  609   9.491   8.361   6.021 -0.4706 -0.0911 -0.2321
   20POPC   C1B  610   9.662   7.728   6.899  0.1691  0.2482 -0.1957
   20POPC   C2B  611   9.923   7.931   6.627 -0.4063  0.0199 -0.0433
   20POPC   C3B  612  10.192   7.862   6.262 -0.2820  0.0519  0.2634
   20POPC   C4B  613  10.627   8.004   6.069 -0.0709  0.2183 -0.3815
   21POPC   NC3  614   2.280   9.357   7.409  0.1446 -0.1213  0.3320
   21POPC   PO4  615   2.069   8.937   7.431  0.0707 -0.2336 -0.3293
   21POPC   GL1  616   1.877   8.690   7.264 -0.1497 -0.3424 -0.3314
   21POPC   GL2  617   2.039   8.568   7.069  0.1529 -0.1890  0.0282
   21POPC   C1A  618   1.434   8.740   7.018  0.1593  0.1897 -0.0266
   21POPC   D2A  619   1.157   8.606   6.743  0.0272  0.0677 -0.1018
   21POPC   C3A  620   1.476   8.352   6.517  0.1662 -0.1006  0.1397
   21POPC   C4A  621   1.689   8.162   6.187  0.0672  0.0375 -0.3682
   21POPC   C1B  622   1.890   8.640   6.630 -0.4134 -0.1074  0.0000
   21POPC   C2B  623   1.850   8.820   6.194  0.1076 -0.1290 -0.1903
   21POPC   C3B  624   2.010   9.007   5.840 -0.0040  0.0734  0.0125
   21POPC   C4B  625   2.380   9.035   5.910  0.0665  0.2074 -0.0155
   22POPC   NC3  626   1.090   3.630   7.947  0.0324  0.0905  0.0065
   22POPC   PO4  627   1.214   4.002   7.769 -0.2332  0.3200 -0.1993
   22POPC   GL1  628   1.326   4.153   7.355 -0.5000 -0.0624  0.1351
   22POPC   GL2  629   1.473   4.469   7.241  0.2312  0.0977  0.0326
   22POPC   C1A  630   1.077   4.302   6.973 -0.0081  0.0126 -0.0929
   22POPC   D2A  631   1.165   4.326   6.553  0.1359 -0.1620 -0.0882
   22POPC   C3A  632   1.322   4.296   6.172  0.2169 -0.0902 -0.0061
   22POPC   C4A  633   1.625   4.247   5.905 -0.0467 -0.0729  0.0419
   22POPC   C1B  634   1.665   4.323   6.857 -0.3050  0.1875 -0.1930
   22POPC   C2B  635   1.741   4.245   6.414  0.1377  0.0128  0.0215
   22POPC   C3B  636   2.046   4.411   6.130 -0.2438  0.2897  0.0197
   22POPC   C4B  637   2.483   4.497   6.019  0.0534 -0.3672  0.1765
   23POPC   NC3  638   3.099   4.406   8.051  0.1617 -0.1632  0.0171
   23POPC   PO4  639   3.045   4.711   7.686  0.1947 -0.0499 -0.3921
   23POPC   GL1  640   3.269   4.714   7.288 -0.2993  0.0753 -0.0874
   23POPC   GL2  641   3.524   4.768   7.312 -0.3938 -0.0672  0.2074
   23POPC   C1A  642   3.137   4.703   6.941  0.0195  0.0516 -0.1355
   23POPC   D2A  643   3.238   4.828   6.615  0.2110 -0.1135 -0.0414
   23POPC   C3A  644   3.650   4.646   6.290  0.0986  0.0700  0.1636
   23POPC   C4A  645   3.731   4.778   5.776  0.0301  0.0477  0.2238
   23POPC   C1B  646   3.604   4.629   6.877  0.0198  0.2834 -0.1500
   23POPC   C2B  647   3.773   4.300   6.660 -0.3986  0.0356 -0.0866
   23POPC   C3B  648   3.685   3.944   6.744  0.2149 -0.0293  0.1121
   23POPC   C4B  649   3.408   3.813   6.438  0.1969  0.0862 -0.0457
   24POPC   NC3  650   6.425   8.026   7.493 -0.1644 -0.2348  0.1274
   24POPC   PO4  651   6.632   7.713   7.639 -0.2275  0.3144  0.2653
   24POPC   GL1  652   6.568   7.598   7.240 -0.0074 -0.0865  0.2794
   24POPC   GL2  653   6.452   7.298   7.153  0.1603 -0.2561  0.0582
   24POPC   C1A  654   6.672   7.585   6.807  0.0918  0.0756 -0.2222
   24POPC   D2A  655   6.465   7.406   6.422  0.1628  0.3388 -0.0545
   24POPC   C3A  656   6.329   7.046   6.417  0.3861 -0.2756 -0.2500
   24POPC   C4A  657   5.954   6.802   6.326  0.3182 -0.2511  0.3738
   24POPC   C1B  658   6.633   7.049   6.814 -0.0617 -0.0401 -0.5092
   24POPC   C2B  659   6.791   7.020   6.400  0.0951  0.1196  0.2529
   24POPC   C3B  660   7.110   6.737   6.199  0.0267  0.0258  0.1917
   24POPC   C4B  661   7.305   6.544   5.970 -0.0494 -0.0188  0.2248
   25POPC   NC3  662   4.638   7.208   7.655  0.0616 -0.0346 -0.4883
   25POPC   PO4  663   4.308   7.462   7.615 -0.1887  0.2882 -0.2396
   25POPC   GL1  664   4.501   7.324   7.194 -0.0579  0.1039 -0.1919
   25POPC   GL2  665   4.510   7.078   7.204  0.2024 -0.1114  0.1336
   25POPC   C1A  666   4.997   7.211   7.095  0.1444 -0.3120  0.1384
   25POPC   D2A  667   5.156   6.977   6.763 -0.0113  0.3181 -0.0254
   25POPC   C3A  668   5.189   7.225   6.374 -0.3125  0.0437 -0.3019
   25POPC   C4A  669   4.953   7.556   6.296 -0.0665 -0.2525  0.1318
   25POPC   C1B  670   4.221   6.819   6.971 -0.1520  0.0466 -0.0681
   25POPC   C2B  671   3.866   6.600   6.755 -0.1033  0.1863 -0.1690
   25POPC   C3B  672   3.488   6.590   6.474 -0.0684 -0.1203 -0.2115
   25POPC   C4B  673   3.172   6.317   6.196 -0.0966  0.2383  0.0716
   26POPC   NC3  674   2.846   3.419   8.413 -0.3233 -0.2204  0.0852
   26POPC   PO4  675   2.855   3.555   7.913 -0.4604 -0.3273  0.1055
   26POPC   GL1  676   2.714   3.721   7.481 -0.2377  0.3293 -0.1289
   26POPC   GL2  677   2.766   3.481   7.173 -0.0198 -0.0327 -0.0644
   26POPC   C1A  678   2.743   4.125   7.127  0.0708  0.1409 -0.0470
   26POPC   D2A  679   2.692   4.431   6.929 -0.2527  0.3058  0.0125
   26POPC   C3A  680   2.774   4.593   6.480 -0.0878  0.2705 -0.1882
   26POPC   C4A  681   3.061   4.671   6.175  0.0895  0.0228 -0.0716
   26POPC   C1B  682   2.978   3.218   6.780 -0.1868  0.2628  0.4012
   26POPC   C2B  683   3.170   3.409   6.387 -0.0538  0.3833 -0.0591
   26POPC   C3B  684   3.245   3.481   5.973  0.2095  0.0047 -0.0611
   26POPC   C4B  685   3.022   3.670   5.594 -0.0460 -0.3377 -0.0431
   27POPC   NC3  686   1.512   9.604   7.253  0.1269 -0.0682 -0.1171
   27POPC   PO4  687   1.801   9.320   7.215 -0.2150 -0.3543  0.0270
   27POPC   GL1  688   1.606   9.188   6.872  0.1940 -0.0282  0.0255
   27POPC   GL2  689   1.394   9.461   6.791  0.0346  0.1222 -0.0486
   27POPC   C1A  690   1.377   8.976   6.504 -0.2858  0.2309  0.2959
   27POPC   D2A  691   1.294   8.684   6.162  0.0297  0.0471  0.1578
   27POPC   C3A  692   1.670   8.593   5.828 -0.0514  0.0075 -0.3351
   27POPC   C4A  693   2.079   8.488   5.489  0.0546  0.0463  0.1893
   27POPC   C1B  694   1.248   9.422   6.404  0.0673 -0.1250 -0.1833
   27POPC   C2B  695   1.350   9.171   6.003  0.0337  0.3428 -0.1152
   27POPC   C3B  696   1.495   9.110   5.613  0.0413  0.1932 -0.1923
   27POPC   C4B  697   1.474   8.722   5.304 -0.3854  0.0507  0.2421
   28POPC   NC3  698   1.550   6.237   8.160 -0.0984  0.4364  0.0479
   28POPC   PO4  699   1.366   6.134   7.814 -0.0300 -0.0896  0.3105
   28POPC   GL1  700   1.233   5.999   7.385  0.0521  0.0751 -0.0379
   28POPC   GL2  701   0.913   5.904   7.391  0.0915  0.0967  0.2180
   28POPC   C1A  702   1.308   5.713   7.042 -0.3241  0.3216  0.0547
   28POPC   D2A  703   1.189   5.634   6.604 -0.1715 -0.1318  0.0407
   28POPC   C3A  704   1.274   5.233   6.446 -0.0003  0.2295 -0.2130
   28POPC   C4A  705   1.142   4.819   6.185 -0.1772  0.3519 -0.0191
   28POPC   C1B  706   0.749   5.795   6.921 -0.2424 -0.1181  0.0438
   28POPC   C2B  707   0.657   5.668   6.599 -0.3404  0.2253  0.0045
   28POPC   C3B  708   0.782   5.700   6.227 -0.0774 -0.0053  0.0891
   28POPC   C4B  709   0.438   5.692   5.927 -0.3170  0.0099  0.1279
   29POPC   NC3  710   3.855   7.302   7.672  0.1271  0.1809  0.0782
   29POPC   PO4  711   3.887   7.822   7.540  0.0524 -0.3185 -0.1841
   29POPC   GL1  712   3.941   7.647   7.177  0.1284  0.1309  0.2694
   29POPC   GL2  713   4.219   7.747   7.053 -0.1174  0.1493  0.0218
   29POPC   C1A  714   3.773   7.768   6.811 -0.3899 -0.2043 -0.0883
   29POPC   D2A  715   3.810   7.494   6.471  0.0085 -0.2678 -0.2388
   29POPC   C3A  716   4.215   7.455   6.256  0.4160 -0.1282  0.1137
   29POPC   C4A  717   4.299   7.263   5.844  0.2223  0.0992  0.1256
   29POPC   C1B  718   4.274   7.738   6.710  0.3297  0.0332  0.1046
   29POPC   C2B  719   4.552   7.873   6.384 -0.1209 -0.3640  0.3058
   29POPC   C3B  720   4.604   7.717   5.942 -0.0079  0.0591 -0.2059
   29POPC   C4B  721   4.892   7.575   5.677  0.0560 -0.0392 -0.0881
   30POPC   NC3  722   4.358   1.955   7.815  0.0185 -0.0236 -0.0843
   30POPC   PO4  723   4.000   2.035   7.499 -0.3225  0.0259  0.1618
   30POPC   GL1  724   4.125   2.000   7.077  0.0079  0.1945  0.3909
   30POPC   GL2  725   4.390   1.650   7.001  0.3463  0.0108 -0.1463
   30POPC   C1A  726   4.198   2.283   6.696 -0.0147  0.0746  0.2104
   30POPC   D2A  727   4.245   2.550   6.336 -0.0791  0.1146 -0.0942
   30POPC   C3A  728   4.499   2.362   5.933  0.0510  0.2125 -0.1635
   30POPC   C4A  729   4.374   2.032   5.788 -0.0959  0.2738 -0.0212
   30POPC   C1B  730   4.187   1.751   6.579  0.0454  0.2341 -0.0254
   30POPC   C2B  731   4.119   2.041   6.242  0.2886  0.1040  0.0206
   30POPC   C3B  732   3.858   1.966   5.778 -0.2981  0.0468 -0.0008
   30POPC   C4B  733   3.490   2.136   5.540  0.0315  0.0993  0.2409
   31POPC   NC3  734   5.279   0.255   7.184  0.0563  0.2270  0.0361
   31POPC   PO4  735   5.553   0.584   7.211  0.1549  0.0590 -0.0779
   31POPC   GL1  736   5.878   0.802   6.878  0.0512 -0.1082  0.1249
   31POPC   GL2  737   5.691   1.007   6.903 -0.0533  0.0487 -0.2473
   31POPC   C1A  738   6.099   1.025   6.499  0.1380 -0.1569  0.0092
   31POPC   D2A  739   6.140   1.325   6.121  0.3322  0.2042 -0.0027
   31POPC   C3A  740   6.092   1.762   5.938  0.0507 -0.0245  0.1561
   31POPC   C4A  741   5.861   1.938   5.557  0.2897 -0.0003  0.2764
   31POPC   C1B  742   5.595   1.309   6.645 -0.0312 -0.0505  0.0894
   31POPC   C2B  743   5.470   1.307   6.214 -0.0326 -0.2915  0.1850
   31POPC   C3B  744   5.693   1.311   5.806  0.1232  0.0565 -0.0482
   31POPC   C4B  745   5.990   1.491   5.411  0.1198 -0.0053 -0.0209
   32POPC   NC3  746   2.095   2.823   8.118 -0.2082 -0.1597  0.0194
   32POPC   PO4  747   2.419   2.849   7.793  0.4070 -0.0821  0.0632
   32POPC   GL1  748   2.265   2.954   7.356 -0.0422  0.2966  0.0700
   32POPC   GL2  749   1.875   3.134   7.258 -0.1830  0.1624 -0.1844
   32POPC   C1A  750   2.253   3.169   6.906 -0.1055  0.1941 -0.2266
   32POPC   D2A  751   2.265   3.353   6.450 -0.6307 -0.2150 -0.1908
   32POPC   C3A  752   1.942   3.413   6.142  0.4099  0.0915 -0.0906
   32POPC   C4A  753   1.821   3.484   5.728  0.0550  0.0389 -0.5713
   32POPC   C1B  754   1.707   3.305   6.917 -0.3267  0.1050 -0.2713
   32POPC   C2B  755   1.441   3.270   6.569 -0.0663 -0.1829 -0.1081
   32POPC   C3B  756   1.472   3.243   6.110 -0.1032  0.0487 -0.2183
   32POPC   C4B  757   1.647   3.000   5.795 -0.0150 -0.0853  0.0262
   33POPC   NC3  758   7.451   1.923   7.884  0.2354  0.1977  0.0693
   33POPC   PO4  759   7.099   1.958   7.693  0.4043  0.0694 -0.0180
   33POPC   GL1  760   7.144   1.874   7.339  0.3587  0.0301 -0.1812
   33POPC   GL2  761   7.277   2.006   7.001 -0.1334  0.2267 -0.0542
   33POPC   C1A  762   7.132   1.479   7.043 -0.1212 -0.4203 -0.0508
   33POPC   D2A  763   6.836   1.257   6.902  0.1158  0.4687 -0.1386
   33POPC   C3A  764   6.624   1.005   6.600 -0.2757 -0.2183  0.2915
   33POPC   C4A  765   6.838   0.678   6.376 -0.2218 -0.0004 -0.0693
   33POPC   C1B  766   7.079   2.189   6.607 -0.0611 -0.0698  0.2589
   33POPC   C2B  767   6.904   2.565   6.339 -0.1772 -0.1317 -0.2635
   33POPC   C3B  768   6.886   2.886   5.962  0.1687  0.1509  0.3994
   33POPC   C4B  769   6.843   2.953   5.607 -0.0027 -0.1912  0.3938
   34POPC   NC3  770   7.677   7.391   7.683 -0.2142 -0.1524  0.0582
   34POPC   PO4  771   7.309   7.084   7.769  0.0633 -0.0380  0.0257
   34POPC   GL1  772   7.426   6.966   7.457  0.1198 -0.2585  0.1270
   34POPC   GL2  773   7.559   6.711   7.342  0.1273 -0.3974 -0.2190
   34POPC   C1A  774   7.591   7.020   6.975 -0.1460  0.0535 -0.2421
   34POPC   D2A  775   7.646   6.878   6.621 -0.0485 -0.1677  0.3272
   34POPC   C3A  776   7.935   6.427   6.636  0.1052 -0.1036 -0.2702
   34POPC   C4A  777   8.185   6.212   6.336 -0.1807 -0.0534  0.1674
   34POPC   C1B  778   7.464   6.437   6.938  0.0726  0.2513 -0.0050
   34POPC   C2B  779   7.452   6.436   6.439 -0.2535  0.1220  0.0551
   34POPC   C3B  780   7.744   5.991   6.162 -0.1428 -0.1603  0.1675
   34POPC   C4B  781   8.127   5.746   6.340 -0.0240 -0.1485 -0.0013
   35POPC   NC3  782   1.769   1.849   7.316 -0.3525 -0.1029 -0.0146
   35POPC   PO4  783   1.324   1.869   7.315  0.0474  0.2035  0.0392
   35POPC   GL1  784   1.455   1.956   6.947 -0.4330 -0.3220 -0.1479
   35POPC   GL2  785   1.745   2.178   6.807  0.0479  0.1165  0.1067
   35POPC   C1A  786   1.582   1.653   6.616  0.1773  0.2003  0.1090
   35POPC   D2A  787   2.001   1.640   6.405 -0.0572  0.1375 -0.0683
   35POPC   C3A  788   2.121   1.454   6.096  0.0212  0.1376  0.2365
   35POPC   C4A  789   2.084   1.633   5.753 -0.1016 -0.2362 -0.0361
   35POPC   C1B  790   2.112   2.221   6.635 -0.0246 -0.2469 -0.2942
   35POPC   C2B  791   2.247   2.483   6.300  0.0626 -0.0257 -0.0366
   35POPC   C3B  792   2.303   2.795   6.124 -0.2245 -0.0287 -0.2926
   35POPC   C4B  793   2.262   3.059   5.851 -0.0118 -0.1291  0.3505
   36POPC   NC3  794   4.066   5.508   7.527  0.0721  0.3514  0.0155
   36POPC   PO4  795   3.750   5.733   7.608 -0.2677 -0.4441  0.3780
   36POPC   GL1  796   3.865   5.880   7.244 -0.3029 -0.0957  0.0171
   36POPC   GL2  797   4.084   5.649   7.023 -0.0832  0.0900  0.0802
   36POPC   C1A  798   3.887   6.026   6.729  0.0990 -0.3171 -0.0544
   36POPC   D2A  799   3.689   6.120   6.369 -0.0545 -0.0300 -0.0370
   36POPC   C3A  800   3.814   6.110   5.950  0.2285  0.1629  0.2507
   36POPC   C4A  801   4.169   6.367   5.731  0.1967  0.0826  0.0087
   36POPC   C1B  802   4.029   5.423   6.613  0.1289  0.2189 -0.0682
   36POPC   C2B  803   3.768   5.577   6.226 -0.0104 -0.0241 -0.1530
   36POPC   C3B  804   3.406   5.781   5.953 -0.0316  0.1173  0.0870
   36POPC   C4B  805   3.559   5.888   5.545  0.0905 -0.0824  0.0745
   37POPC   NC3  806   6.521   4.251   8.314  0.0990  0.1394  0.1057
   37POPC   PO4  807   6.296   4.155   7.928 -0.1745  0.2809 -0.5776
   37POPC   GL1  808   6.088   4.054   7.516  0.2573 -0.1717  0.0131
   37POPC   GL2  809   5.882   3.884   7.363  0.2079 -0.2468  0.2691
   37POPC   C1A  810   6.219   4.231   7.157 -0.4103  0.0647 -0.2637
   37POPC   D2A  811   6.369   4.515   6.906 -0.0909 -0.2070  0.3222
   37POPC   C3A  812   6.503   4.417   6.482  0.2833 -0.0698  0.0289
   37POPC   C4A  813   6.605   4.055   6.283 -0.0157 -0.0284  0.2212
   37POPC   C1B  814   5.785   4.057   7.032 -0.0277 -0.0862 -0.2142
   37POPC   C2B  815   6.010   4.329   6.644  0.0351 -0.1866  0.1036
   37POPC   C3B  816   6.111   4.441   6.174  0.2891 -0.2394 -0.1979
   37POPC   C4B  817   5.973   4.322   5.688  0.0409 -0.0249  0.0950
   38POPC   NC3  818   3.176   3.662   7.547 -0.1829 -0.2139 -0.2740
   38POPC   PO4  819   3.582   3.826   7.659 -0.2404 -0.1247  0.1288
   38POPC   GL1  820   3.312   3.904   7.136 -0.1490 -0.0582  0.1257
   38POPC   GL2  821   3.316   4.249   7.123  0.0672  0.2559  0.2999
   38POPC   C1A  822   3.099   3.756   6.806 -0.1937 -0.3328  0.1346
   38POPC   D2A  823   2.902   4.037   6.630  0.2460  0.0483  0.1728
   38POPC   C3A  824   2.718   4.146   6.186  0.0947  0.1866 -0.5198
   38POPC   C4A  825   2.937   4.078   5.864  0.0293 -0.0684 -0.2017
   38POPC   C1B  826   3.307   4.361   6.621 -0.1309  0.0602  0.3257
   38POPC   C2B  827   3.275   4.266   6.268  0.3072  0.1114 -0.0184
   38POPC   C3B  828   3.299   4.388   5.776 -0.2834 -0.1280 -0.0477
   38POPC   C4B  829   3.227   4.764   5.499 -0.1960  0.3833  0.2766
   39POPC   NC3  830   6.769   4.643   7.821 -0.3122 -0.0082  0.1629
   39POPC   PO4  831   6.618   5.047   7.876  0.0797  0.3884  0.0974
   39POPC   GL1  832   6.516   5.240   7.435 -0.0884 -0.1008 -0.0641
   39POPC   GL2  833   6.494   5.581   7.331  0.0766  0.4491  0.2161
   39POPC   C1A  834   6.380   5.235   6.994  0.3575 -0.0023 -0.2820
   39POPC   D2A  835   6.629   5.354   6.604 -0.1081  0.1745 -0.2331
   39POPC   C3A  836   7.026   5.354   6.620 -0.0349 -0.2208  0.0200
   39POPC   C4A  837   7.448   5.312   6.801 -0.2241 -0.1231 -0.3491
   39POPC   C1B  838   6.777   5.609   6.976  0.1988  0.1267  0.1608
   39POPC   C2B  839   6.786   5.823   6.543 -0.0774 -0.2915 -0.1086
   39POPC   C3B  840   6.687   5.586   6.165  0.2575  0.0993 -0.2959
   39POPC   C4B  841   6.920   5.251   5.822 -0.0588 -0.1017 -0.0394
   40POPC   NC3  842   9.786   1.171   7.790  0.0568  0.0638  0.2197
   40POPC   PO4  843   9.834   1.481   7.906  0.1310  0.3867 -0.0586
   40POPC   GL1  844   9.724   1.591   7.543 -0.2418 -0.2682  0.3257
   40POPC   GL2  845   9.398   1.453   7.417 -0.2475  0.2251 -0.1751
   40POPC   C1A  846  10.061   1.701   7.174  0.0026  0.2416  0.1464
   40POPC   D2A  847  10.285   1.893   6.898 -0.2295  0.1181 -0.0682
   40POPC   C3A  848  10.120   2.054   6.547  0.2208 -0.2292  0.4364
   40POPC   C4A  849  10.003   2.335   6.167 -0.3561 -0.0390  0.2580
   40POPC   C1B  850   9.254   1.562   6.941 -0.0955  0.1092  0.0964
   40POPC   C2B  851   8.998   1.562   6.659 -0.0243  0.2275  0.2900
   40POPC   C3B  852   8.616   1.849   6.559  0.0945  0.2642  0.2638
   40POPC   C4B  853   8.623   2.258   6.550  0.1988 -0.1111 -0.3502
   41POPC   NC3  854   2.070   4.098   8.034  0.1109  0.0825 -0.1040
   41POPC   PO4  855   2.105   4.576   7.848  0.0099  0.0536 -0.0559
   41POPC   GL1  856   1.890   4.861   7.439  0.1811  0.1752 -0.2710
   41POPC   GL2  857   2.129   4.868   7.219 -0.0041 -0.0565  0.0125
   41POPC   C1A  858   1.718   4.855   7.024 -0.2429  0.3644  0.4874
   41POPC   D2A  859   1.570   4.832   6.637  0.3264  0.0129  0.0039
   41POPC   C3A  860   1.608   4.720   6.230 -0.0087 -0.3823  0.1916
   41POPC   C4A  861   1.774   4.699   5.793  0.0991 -0.0133 -0.0274
   41POPC   C1B  862   2.085   5.239   6.825 -0.0577 -0.2048 -0.1488
   41POPC   C2B  863   2.396   5.345   6.442 -0.0969  0.1095 -0.2170
   41POPC   C3B  864   2.459   5.639   6.087 -0.1598  0.0409 -0.2884
   41POPC   C4B  865   2.185   6.033   5.972  0.4058 -0.0482 -0.0278
   42POPC   NC3  866   0.746   1.499   8.135  0.0575  0.1532 -0.0397
   42POPC   PO4  867   0.629   1.771   7.792  0.0623  0.1462  0.3664
   42POPC   GL1  868   0.518   1.968   7.412  0.1484 -0.1117  0.1671
   42POPC   GL2  869   0.268   2.245   7.221 -0.1691  0.1468 -0.0386
   42POPC   C1A  870   0.708   1.988   7.016 -0.0066  0.2240  0.2441
   42POPC   D2A  871   0.669   1.895   6.613  0.1312  0.3246 -0.0317
   42POPC   C3A  872   0.286   1.600   6.495 -0.0559  0.1567  0.2307
   42POPC   C4A  873   0.217   1.230   6.413 -0.1129  0.0919 -0.1358
   42POPC   C1B  874   0.421   2.371   6.846  0.2548 -0.2683  0.2221
   42POPC   C2B  875   0.447   2.352   6.440 -0.0906  0.2264 -0.2866
   42POPC   C3B  876   0.390   2.007   6.195  0.0892  0.1318  0.1184
   42POPC   C4B  877   0.142   1.897   5.938 -0.0707  0.3046  0.1953
   43POPC   NC3  878   8.338   0.799   7.780  0.0199 -0.2690 -0.2404
   43POPC   PO4  879   8.602   0.841   7.478 -0.1157  0.2107  0.0289
   43POPC   GL1  880   8.949   0.801   7.117  0.3539 -0.0839 -0.3538
   43POPC   GL2  881   9.083   0.520   6.880 -0.1142  0.4320 -0.0467
   43POPC   C1A  882   9.015   1.088   6.832 -0.2629  0.0488 -0.1826
   43POPC   D2A  883   9.171   1.185   6.392  0.3088  0.1246  0.0131
   43POPC   C3A  884   9.356   1.507   6.201 -0.2534 -0.1108 -0.1446
   43POPC   C4A  885   9.629   1.562   5.820 -0.0638 -0.1121  0.1333
   43POPC   C1B  886   9.470   0.821   6.943  0.3359  0.0440  0.1052
   43POPC   C2B  887   9.948   0.839   6.886  0.1120  0.0474  0.3595
   43POPC   C3B  888  10.268   1.265   6.898 -0.0512 -0.1226  0.0322
   43POPC   C4B  889  10.659   1.451   6.986  0.0911  0.0083  0.1595
   44POPC   NC3  890   6.417   9.716   7.430  0.0122  0.0741 -0.1008
   44POPC   PO4  891   6.350  10.111   7.270 -0.2694 -0.0814 -0.0620
   44POPC   GL1  892   6.372  10.058   6.875 -0.0076 -0.4147 -0.2239
   44POPC   GL2  893   6.175   9.905   6.743  0.1441 -0.1506  0.0191
   44POPC   C1A  894   6.703   9.917   6.592 -0.5305  0.2077  0.1256
   44POPC   D2A  895   7.148   9.572   6.529 -0.0540  0.1475 -0.3163
   44POPC   C3A  896   7.179   9.335   6.129  0.1387  0.0198 -0.0089
   44POPC   C4A  897   7.436   8.970   6.050  0.2041 -0.1572  0.1214
   44POPC   C1B  898   6.288   9.714   6.349 -0.1036  0.1120 -0.1473
   44POPC   C2B  899   6.173   9.581   5.964 -0.2806 -0.1342  0.1540
   44POPC   C3B  900   6.336   9.201   5.740 -0.2472 -0.1124 -0.3089
   44POPC   C4B  901   6.309   9.161   5.314  0.6113  0.0266 -0.1057
   45POPC   NC3  902   8.232   1.129   7.378 -0.1636 -0.1509  0.0107
   45POPC   PO4  903   7.831   1.202   7.503  0.2961  0.0690  0.1247
   45POPC   GL1  904   7.904   1.519   7.105 -0.6105  0.3724 -0.0322
   45POPC   GL2  905   8.078   1.836   7.181  0.1680 -0.1038  0.0440
   45POPC   C1A  906   7.611   1.639   6.853  0.0012  0.1470 -0.2482
   45POPC   D2A  907   7.454   1.842   6.491 -0.1745 -0.1651  0.2505
   45POPC   C3A  908   7.134   1.826   6.236  0.2107 -0.1123  0.2089
   45POPC   C4A  909   6.986   2.143   5.967  0.0748 -0.0710 -0.0435
   45POPC   C1B  910   7.848   2.108   6.842  0.1175  0.1359  0.0974
   45POPC   C2B  911   7.650   2.312   6.477  0.0982  0.2939  0.2999
   45POPC   C3B  912   7.411   2.229   6.167 -0.1024 -0.0187 -0.0742
   45POPC   C4B  913   7.483   2.138   5.697 -0.0394  0.0559  0.2517
   46POPC   NC3  914   0.875   6.379   7.735 -0.1163 -0.1809 -0.0989
   46POPC   PO4  915   1.193   6.587   7.783 -0.2006 -0.1332  0.0944
   46POPC   GL1  916   1.163   6.545   7.305 -0.0307  0.1008  0.3117
   46POPC   GL2  917   1.445   6.454   7.297  0.1083  0.2200 -0.3276
   46POPC   C1A  918   0.913   6.380   6.898  0.2460  0.1381  0.3360
   46POPC   D2A  919   1.012   6.097   6.628 -0.2698 -0.0162 -0.0924
   46POPC   C3A  920   1.182   6.059   6.225  0.0300 -0.0543 -0.1208
   46POPC   C4A  921   1.239   5.908   5.931 -0.0546  0.5265  0.0105
   46POPC   C1B  922   1.467   6.198   6.961  0.1309 -0.2212  0.0995
   46POPC   C2B  923   1.444   6.360   6.595 -0.1771  0.1073 -0.0506
   46POPC   C3B  924   1.408   6.524   6.209 -0.1045 -0.4048 -0.0288
   46POPC   C4B  925   1.108   6.498   5.821  0.1103 -0.0828 -0.0407
   47POPC   NC3  926   3.083   9.426   7.119 -0.0667 -0.1431  0.1420
   47POPC   PO4  927   3.423   9.574   7.024  0.0012  0.4419 -0.0626
   47POPC   GL1  928   3.338   9.470   6.701  0.1327 -0.2835  0.1106
   47POPC   GL2  929   3.359   9.732   6.357 -0.0355 -0.0088 -0.0581
   47POPC   C1A  930   3.071   9.360   6.326  0.0665 -0.0262 -0.0520
   47POPC   D2A  931   2.902   9.636   6.025 -0.0048  0.2960 -0.0140
   47POPC   C3A  932   2.940   9.838   5.659 -0.3650 -0.1843 -0.0701
   47POPC   C4A  933   3.159  10.042   5.231  0.1083 -0.0443 -0.0640
   47POPC   C1B  934   3.626   9.949   6.065  0.2339 -0.0834 -0.1707
   47POPC   C2B  935   3.814   9.779   5.632 -0.1476  0.1048 -0.2345
   47POPC   C3B  936   4.050   9.999   5.374 -0.3874  0.2431 -0.1114
   47POPC   C4B  937   4.189  10.416   5.136 -0.0990  0.0628  0.1023
   48POPC   NC3  938   5.488   9.780   7.094  0.0845  0.0766  0.3091
   48POPC   PO4  939   5.265   9.396   7.133  0.0327 -0.0901 -0.2642
   48POPC   GL1  940   5.500   9.241   6.796 -0.3359  0.4105  0.1699
   48POPC   GL2  941   5.820   9.408   6.916 -0.1432  0.2163  0.0363
   48POPC   C1A  942   5.825   8.944   6.635  0.2596 -0.0161 -0.0477
   48POPC   D2A  943   5.803   8.713   6.271 -0.0570 -0.2467 -0.1442
   48POPC   C3A  944   5.985   8.876   5.932  0.1597  0.4160  0.2096
   48POPC   C4A  945   5.867   8.992   5.556  0.0958 -0.3387  0.1459
   48POPC   C1B  946   5.831   9.424   6.524  0.1491  0.0999 -0.3261
   48POPC   C2B  947   5.673   9.218   6.122 -0.0286 -0.2490 -0.0778
   48POPC   C3B  948   5.337   8.868   6.381  0.0071 -0.0013  0.0503
   48POPC   C4B  949   4.988   8.703   6.145  0.0567  0.0242  0.0848
   49POPC   NC3  950   1.541   0.900   7.318 -0.1039 -0.1529 -0.1201
   49POPC   PO4  951   1.630   0.443   7.135  0.1343  0.0282  0.1771
   49POPC   GL1  952   1.514   0.251   6.804  0.0288 -0.3845 -0.1101
   49POPC   GL2  953   1.586  -0.087   6.883 -0.0618 -0.0828 -0.1344
   49POPC   C1A  954   1.297   0.241   6.488  0.1385  0.1154  0.2000
   49POPC   D2A  955   1.402   0.138   6.081 -0.0508 -0.1023  0.3387
   49POPC   C3A  956   1.562   0.187   5.655  0.2099  0.1838 -0.0522
   49POPC   C4A  957   1.902   0.048   5.180 -0.0323  0.2329 -0.1345
   49POPC   C1B  958   1.529  -0.268   6.493  0.0153  0.0537 -0.2806
   49POPC   C2B  959   1.417  -0.356   6.094 -0.2321  0.2799  0.0659
   49POPC   C3B  960   1.111  -0.220   5.783  0.4861  0.2373  0.4705
   49POPC   C4B  961   0.679   0.033   5.590 -0.0128  0.0444 -0.1732
   50POPC   NC3  962   3.577   2.395   7.309  0.0898 -0.1413  0.1512
   50POPC   PO4  963   3.151   2.111   7.207 -0.1011  0.0589 -0.0777
   50POPC   GL1  964   3.192   2.244   6.940  0.0460 -0.0056 -0.0672
   50POPC   GL2  965   3.515   2.245   6.840 -0.1928  0.1919 -0.3110
   50POPC   C1A  966   3.091   2.677   6.736 -0.3969 -0.1352 -0.0234
   50POPC   D2A  967   3.390   2.941   6.582 -0.1216 -0.1290 -0.0384
   50POPC   C3A  968   3.371   2.984   6.169  0.0126 -0.0954 -0.1335
   50POPC   C4A  969   3.171   2.935   5.678  0.1345  0.3260 -0.0653
   50POPC   C1B  970   3.678   2.069   6.462 -0.1104  0.1830  0.2310
   50POPC   C2B  971   3.458   2.026   6.051 -0.1258  0.2019 -0.0206
   50POPC   C3B  972   3.111   2.214   5.862 -0.0471  0.2076  0.2738
   50POPC   C4B  973   2.808   2.088   5.502  0.0963 -0.1151 -0.0569
   51POPC   NC3  974   0.567   4.448   8.125 -0.1751  0.1727  0.4504
   51POPC   PO4  975   0.992   4.492   7.814  0.0850  0.1214 -0.1099
   51POPC   GL1  976   0.804   4.382   7.556  0.1987 -0.0356 -0.2035
   51POPC   GL2  977   0.773   4.607   7.333  0.0186 -0.0002  0.2522
   51POPC   C1A  978   0.670   4.081   7.194  0.3058  0.0935 -0.1486
   51POPC   D2A  979   0.817   3.950   6.771 -0.2305 -0.3086  0.2200
   51POPC   C3A  980   0.452   4.073   6.563 -0.2846 -0.2848  0.2092
   51POPC   C4A  981   0.350   4.332   6.295 -0.1868 -0.2138 -0.0642
   51POPC   C1B  982   0.557   4.595   6.935 -0.4393 -0.1318  0.0860
   51POPC   C2B  983   0.367   4.809   6.687  0.2444 -0.0793 -0.3018
   51POPC   C3B  984  -0.023   4.947   6.453 -0.0407 -0.0709  0.1563
   51POPC   C4B  985  -0.401   4.973   6.159 -0.2669 -0.0548  0.2785
   52POPC   NC3  986   3.715   9.935   6.970 -0.3196  0.0974 -0.1713
   52POPC   PO4  987   4.133   9.905   6.798  0.0372 -0.2612  0.0186
   52POPC   GL1  988   4.272   9.908   6.354 -0.1198 -0.0674  0.0805
   52POPC   GL2  989   4.652   9.903   6.393 -0.4033 -0.0691 -0.1430
   52POPC   C1A  990   4.232   9.622   5.981 -0.2223 -0.1115 -0.2910
   52POPC   D2A  991   4.209   9.265   5.851 -0.2663  0.2610  0.1716
   52POPC   C3A  992   3.760   9.137   5.736  0.0647  0.1156  0.1874
   52POPC   C4A  993   3.555   9.024   5.354 -0.1994 -0.0856  0.0132
   52POPC   C1B  994   4.622  10.138   5.977 -0.2802  0.4341 -0.1169
   52POPC   C2B  995   4.876  10.268   5.714  0.1298  0.3274  0.2880
   52POPC   C3B  996   5.167  10.052   5.343 -0.0772  0.0017 -0.3734
   52POPC   C4B  997   5.552   9.827   5.394  0.2229  0.0100  0.1317
   53POPC   NC3  998   2.037   0.194   7.190  0.4026  0.1158 -0.1518
   53POPC   PO4  999   2.421   0.041   7.010  0.3697  0.2177  0.0591
   53POPC   GL1 1000   2.356  -0.176   6.682 -0.2496  0.3152  0.1740
   53POPC   GL2 1001   2.493  -0.032   6.472 -0.1469 -0.0770 -0.0080
   53POPC   C1A 1002   2.129  -0.350   6.303 -0.2410 -0.2705 -0.1250
   53POPC   D2A 1003   1.874  -0.141   5.968 -0.0915 -0.1044 -0.0292
   53POPC   C3A 1004   2.041  -0.109   5.604 -0.0123  0.4303  0.0508
   53POPC   C4A 1005   2.129  -0.513   5.401 -0.1791 -0.2267 -0.2834
   53POPC   C1B 1006   2.742   0.093   6.164 -0.0076 -0.1913  0.0294
   53POPC   C2B 1007   2.689   0.138   5.681  0.3017 -0.0319 -0.2385
   53POPC   C3B 1008   2.602  -0.030   5.349  0.0996  0.1619 -0.1144
   53POPC   C4B 1009   2.854  -0.425   5.110  0.1768  0.0952  0.0046
   54POPC   NC3 1010   3.264   6.962   7.474 -0.1828  0.2986  0.1586
   54POPC   PO4 1011   3.031   7.276   7.649  0.1355 -0.1885 -0.0677
   54POPC   GL1 1012   2.815   7.212   7.264 -0.2417  0.0533  0.0009
   54POPC   GL2 1013   2.775   6.882   7.163  0.1905 -0.4876 -0.2223
   54POPC   C1A 1014   2.873   7.480   6.813  0.0867 -0.0469  0.1501
   54POPC   D2A 1015   2.664   7.273   6.452  0.1897 -0.0439 -0.3204
   54POPC   C3A 1016   2.479   7.468   6.166 -0.0122  0.1882  0.2162
   54POPC   C4A 1017   2.557   7.763   5.844  0.0898 -0.0648  0.0519
   54POPC   C1B 1018   2.989   6.979   6.725 -0.0448 -0.0498  0.0881
   54POPC   C2B 1019   3.113   7.073   6.346 -0.0654  0.0566  0.3015
   54POPC   C3B 1020   3.138   6.820   6.125  0.2641 -0.0394 -0.0316
   54POPC   C4B 1021   2.973   6.604   5.728 -0.0166 -0.1999 -0.1751
   55POPC   NC3 1022   1.686   3.858   7.902  0.2275 -0.2066 -0.3784
   55POPC   PO4 1023   1.542   3.452   7.784  0.1716 -0.1316  0.0269
   55POPC   GL1 1024   1.507   3.653   7.414  0.1514 -0.0154  0.0818
   55POPC   GL2 1025   1.413   3.387   7.256 -0.1037  0.0177  0.3588
   55POPC   C1A 1026   1.674   3.808   7.039 -0.0657  0.1063  0.0214
   55POPC   D2A 1027   1.881   3.724   6.588 -0.0942 -0.1443 -0.2295
   55POPC   C3A 1028   1.648   3.819   6.189  0.1754  0.1449  0.3692
   55POPC   C4A 1029   1.351   3.763   5.867 -0.2690  0.0795  0.1442
   55POPC   C1B 1030   1.207   3.632   6.944 -0.0518  0.1678 -0.0405
   55POPC   C2B 1031   1.244   3.727   6.520 -0.1750 -0.2082 -0.0710
   55POPC   C3B 1032   0.986   3.933   6.263  0.0804  0.1899  0.2720
   55POPC   C4B 1033   0.539   3.939   6.073 -0.0805 -0.0054 -0.0157
   56POPC   NC3 1034   3.487   7.912   7.327 -0.2349 -0.0297  0.1682
   56POPC   PO4 1035   3.432   7.446   7.405  0.2111  0.0428 -0.1705
   56POPC   GL1 1036   3.283   7.307   7.028  0.0185 -0.1860  0.0819
   56POPC   GL2 1037   3.272   7.657   6.995  0.0220  0.0751  0.0275
   56POPC   C1A 1038   3.329   7.399   6.581 -0.0237 -0.3833  0.0124
   56POPC   D2A 1039   3.419   7.694   6.263  0.2734 -0.1472 -0.1734
   56POPC   C3A 1040   3.235   7.894   6.008  0.0553  0.2794 -0.1488
   56POPC   C4A 1041   3.223   8.278   5.794 -0.0825 -0.1018 -0.1184
   56POPC   C1B 1042   3.341   8.019   6.593  0.1780 -0.1276  0.2969
   56POPC   C2B 1043   3.190   8.353   6.292 -0.2598 -0.2167 -0.0438
   56POPC   C3B 1044   3.087   8.728   6.164 -0.0139  0.2497  0.0808
   56POPC   C4B 1045   2.901   9.073   5.884  0.1381  0.0761 -0.2756
   57POPC   NC3 1046   9.819   7.840   8.339  0.1626 -0.0694 -0.1375
   57POPC   PO4 1047  10.064   8.047   8.011  0.1847  0.0462 -0.0784
   57POPC   GL1 1048  10.424   8.076   7.629 -0.0840  0.2858 -0.1300
   57POPC   GL2 1049  10.556   7.873   7.517 -0.1117  0.0676 -0.0515
   57POPC   C1A 1050  10.389   8.404   7.237  0.1940 -0.2961 -0.1542
   57POPC   D2A 1051  10.281   8.710   6.964 -0.1587 -0.1419 -0.1608
   57POPC   C3A 1052   9.892   8.915   6.978  0.2968  0.0172 -0.0926
   57POPC   C4A 1053   9.565   9.085   7.037  0.0404  0.1430 -0.0258
   57POPC   C1B 1054  10.540   7.932   7.129 -0.0815 -0.0959  0.4077
   57POPC   C2B 1055  10.370   8.070   6.787 -0.0548  0.0310  0.1005
   57POPC   C3B 1056  10.284   8.299   6.540 -0.0123 -0.0096  0.4664
   57POPC   C4B 1057  10.436   8.475   6.130 -0.1763  0.2432 -0.1210
   58POPC   NC3 1058   0.427   8.138   8.166 -0.1566  0.0559 -0.1079
   58POPC   PO4 1059   0.766   8.414   7.853  0.3885 -0.1364  0.1132
   58POPC   GL1 1060   0.818   8.240   7.490  0.1382 -0.0581 -0.1893
   58POPC   GL2 1061   0.927   7.968   7.351  0.1248 -0.0162  0.0184
   58POPC   C1A 1062   0.822   8.390   7.096 -0.1650 -0.0613 -0.1061
   58POPC   D2A 1063   0.602   8.501   6.713  0.0613 -0.0919  0.1691
   58POPC   C3A 1064   0.900   8.446   6.256 -0.1007 -0.0454 -0.1677
   58POPC   C4A 1065   1.248   8.162   6.003  0.1275  0.0037 -0.1427
   58POPC   C1B 1066   0.844   7.658   6.995 -0.0264 -0.2427 -0.0960
   58POPC   C2B 1067   0.623   7.234   6.827 -0.0168 -0.2289 -0.2021
   58POPC   C3B 1068   0.501   7.159   6.484  0.1055 -0.0327 -0.2291
   58POPC   C4B 1069   0.737   7.284   6.164 -0.2442 -0.0213  0.1627
   59POPC   NC3 1070   4.943   0.771   7.411  0.3179 -0.2331  0.1903
   59POPC   PO4 1071   5.116   0.942   7.102  0.0470  0.1739 -0.1860
   59POPC   GL1 1072   5.283   0.755   6.700 -0.0964  0.0744 -0.0232
   59POPC   GL2 1073   5.529   0.464   6.767  0.1418 -0.0247 -0.1793
   59POPC   C1A 1074   5.622   0.876   6.329 -0.3194  0.2082 -0.2317
   59POPC   D2A 1075   5.893   0.841   6.022  0.1296 -0.2866 -0.1577
   59POPC   C3A 1076   6.107   0.598   5.739  0.1116 -0.1927  0.2026
   59POPC   C4A 1077   6.362   0.396   5.435  0.1109 -0.2191 -0.0067
   59POPC   C1B 1078   5.323   0.351   6.356 -0.4320  0.1505 -0.1428
   59POPC   C2B 1079   5.226   0.459   5.962 -0.1689 -0.0412  0.3729
   59POPC   C3B 1080   5.183   0.498   5.492  0.2044  0.1669  0.2915
   59POPC   C4B 1081   5.335   0.722   5.113  0.2027 -0.1350 -0.1745
   60POPC   NC3 1082   4.510   0.181   6.718  0.0422 -0.0288  0.2199
   60POPC   PO4 1083   4.989   0.025   6.871  0.0891  0.2718 -0.0289
   60POPC   GL1 1084   5.181  -0.111   6.539  0.1502  0.4405 -0.2098
   60POPC   GL2 1085   5.390  -0.426   6.591  0.0091  0.2129  0.1355
   60POPC   C1A 1086   5.230  -0.120   6.119 -0.2964  0.3685  0.1617
   60POPC   D2A 1087   5.137  -0.320   5.768 -0.0515  0.1424 -0.2848
   60POPC   C3A 1088   4.672  -0.553   5.697 -0.1403 -0.1336 -0.1513
   60POPC   C4A 1089   4.395  -0.616   5.330 -0.1414 -0.2507 -0.0266
   60POPC   C1B 1090   5.213  -0.652   6.389 -0.0109 -0.1310 -0.4178
   60POPC   C2B 1091   5.139  -0.895   6.049 -0.3844  0.0154  0.0055
   60POPC   C3B 1092   5.430  -1.234   5.864  0.0816  0.1867 -0.1034
   60POPC   C4B 1093   5.532  -1.678   5.878 -0.1124 -0.1747  0.1271
   61POPC   NC3 1094   1.266   8.122   7.771  0.0962 -0.0815 -0.2167
   61POPC   PO4 1095   1.693   8.301   7.880  0.1467  0.2098  0.1615
   61POPC   GL1 1096   1.625   8.316   7.409 -0.0163 -0.2222  0.1215
   61POPC   GL2 1097   1.426   7.992   7.278  0.2790  0.1697  0.0200
   61POPC   C1A 1098   1.764   8.214   6.936 -0.0693  0.0332  0.0977
   61POPC   D2A 1099   1.794   7.994   6.616 -0.0054  0.0056 -0.2498
   61POPC   C3A 1100   2.164   7.726   6.565 -0.1646 -0.2279 -0.2154
   61POPC   C4A 1101   2.174   7.221   6.474 -0.0081 -0.1437 -0.1252
   61POPC   C1B 1102   1.236   8.097   6.888  0.0876  0.3969  0.0583
   61POPC   C2B 1103   0.852   8.051   6.565 -0.0477  0.1824  0.0360
   61POPC   C3B 1104   0.939   7.767   6.214  0.0159  0.2756 -0.0957
   61POPC   C4B 1105   1.178   7.330   6.461  0.1149 -0.1740  0.1202
   62POPC   NC3 1106   8.670   5.067   8.048 -0.0674  0.3184  0.0266
   62POPC   PO4 1107   8.535   5.460   8.059 -0.0400  0.0237  0.2805
   62POPC   GL1 1108   8.440   5.201   7.610  0.0653 -0.0597  0.0032
   62POPC   GL2 1109   8.222   5.194   7.448 -0.2244  0.1112  0.0599
   62POPC   C1A 1110   8.357   4.728   7.474 -0.0138 -0.2366 -0.1302
   62POPC   D2A 1111   8.294   4.374   7.223  0.2337 -0.1574 -0.0990
   62POPC   C3A 1112   8.191   4.554   6.853  0.0929  0.1285  0.1376
   62POPC   C4A 1113   8.000   4.406   6.412 -0.4496  0.0296 -0.2165
   62POPC   C1B 1114   8.456   5.016   7.077 -0.0550 -0.2023  0.1512
   62POPC   C2B 1115   8.706   5.030   6.648  0.0655 -0.0667  0.1328
   62POPC   C3B 1116   9.013   5.095   6.453 -0.1329 -0.0227  0.2426
   62POPC   C4B 1117   9.217   5.019   5.993 -0.0587 -0.0273  0.3892
   63POPC   NC3 1118   0.979   2.193   7.625 -0.0771  0.0354 -0.1049
   63POPC   PO4 1119   1.310   2.480   7.596 -0.2325 -0.1621  0.0400
   63POPC   GL1 1120   1.138   2.862   7.354 -0.1466  0.0375  0.0943
   63POPC   GL2 1121   1.444   2.860   7.265  0.1820  0.0393 -0.1193
   63POPC   C1A 1122   1.097   3.082   6.990  0.1812 -0.1414 -0.3506
   63POPC   D2A 1123   0.935   3.169   6.571 -0.0009 -0.2697  0.2768
   63POPC   C3A 1124   1.042   3.442   6.133  0.0427 -0.1215  0.0391
   63POPC   C4A 1125   0.879   3.598   5.796 -0.1679 -0.0596 -0.0761
   63POPC   C1B 1126   1.421   2.746   6.854  0.1893 -0.0728  0.0427
   63POPC   C2B 1127   1.265   2.796   6.553  0.3273  0.0776 -0.0732
   63POPC   C3B 1128   1.210   2.819   6.118  0.1555  0.2346  0.4729
   63POPC   C4B 1129   0.811   2.816   5.814 -0.1519 -0.0303  0.1528
   64POPC   NC3 1130   5.920   5.660   8.299 -0.1372  0.0031 -0.2345
   64POPC   PO4 1131   5.821   5.398   8.072 -0.1245 -0.0504  0.1035
   64POPC   GL1 1132   5.944   5.486   7.565  0.0324 -0.1545  0.0313
   64POPC   GL2 1133   6.018   5.941   7.473 -0.0549 -0.0964  0.2753
   64POPC   C1A 1134   5.939   5.499   7.202 -0.1370  0.2218  0.0167
   64POPC   D2A 1135   5.948   5.307   6.746 -0.1870  0.1944 -0.1889
   64POPC   C3A 1136   6.166   5.499   6.439 -0.0746  0.1715 -0.0756
   64POPC   C4A 1137   6.194   5.682   6.009  0.1238 -0.2114 -0.0881
   64POPC   C1B 1138   5.992   6.005   7.131 -0.0776 -0.3516  0.0043
   64POPC   C2B 1139   5.838   5.783   6.828  0.0819  0.2538 -0.0841
   64POPC   C3B 1140   5.625   5.685   6.494  0.1883 -0.0090  0.1482
   64POPC   C4B 1141   5.590   5.949   6.102 -0.0565 -0.0727 -0.4532
   65POPC   NC3 1142   0.645   3.068   8.040 -0.2344 -0.0242  0.0984
   65POPC   PO4 1143   0.290   2.921   7.808 -0.1125 -0.3162  0.0933
   65POPC   GL1 1144   0.225   2.765   7.387  0.5780  0.0112  0.3396
   65POPC   GL2 1145  -0.109   2.628   7.267 -0.0786  0.0528  0.1047
   65POPC   C1A 1146   0.250   2.901   6.937  0.4165 -0.2176  0.2761
   65POPC   D2A 1147   0.423   3.016   6.576  0.3069 -0.1651  0.0016
   65POPC   C3A 1148   0.388   2.798   6.191  0.0383  0.2255  0.0597
   65POPC   C4A 1149   0.545   2.452   5.958  0.2243  0.1629 -0.0072
   65POPC   C1B 1150  -0.128   2.426   6.860 -0.4531  0.2216  0.2075
   65POPC   C2B 1151   0.065   2.646   6.568  0.2205 -0.1472 -0.0001
   65POPC   C3B 1152  -0.110   2.898   6.297  0.1973 -0.3613 -0.1886
   65POPC   C4B 1153  -0.080   2.934   5.814 -0.0899  0.3290 -0.0784
   66POPC   NC3 1154   2.882   2.763   7.679 -0.0749  0.0755  0.2280
   66POPC   PO4 1155   3.085   3.139   7.516 -0.1366  0.0791  0.0106
   66POPC   GL1 1156   3.311   3.338   7.218  0.2026 -0.1594 -0.1306
   66POPC   GL2 1157   3.618   3.469   7.282 -0.0479  0.1456 -0.1948
   66POPC   C1A 1158   3.466   3.431   6.791  0.0887  0.1702 -0.3384
   66POPC   D2A 1159   3.652   3.367   6.483 -0.1028  0.0502  0.3263
   66POPC   C3A 1160   3.787   3.619   6.169  0.0772  0.0507 -0.4002
   66POPC   C4A 1161   4.173   3.784   5.999 -0.1811  0.3306  0.0626
   66POPC   C1B 1162   3.880   3.173   6.934  0.0564 -0.1700  0.2902
   66POPC   C2B 1163   4.002   3.039   6.450 -0.1042 -0.0404 -0.0859
   66POPC   C3B 1164   3.904   2.990   6.114  0.1826 -0.1283  0.3180
   66POPC   C4B 1165   3.727   3.021   5.734 -0.0037 -0.3787  0.1071
   67POPC   NC3 1166   5.117   5.170   8.245 -0.0004 -0.0533 -0.1321
   67POPC   PO4 1167   4.850   5.180   7.865 -0.1337 -0.0822 -0.0069
   67POPC   GL1 1168   5.144   5.170   7.474 -0.0381  0.4045  0.0144
   67POPC   GL2 1169   4.967   5.315   7.248 -0.5032  0.3105  0.0848
   67POPC   C1A 1170   5.565   5.132   7.355 -0.2859 -0.2454  0.0632
   67POPC   D2A 1171   6.006   4.998   7.170  0.1948 -0.0208 -0.1290
   67POPC   C3A 1172   6.042   4.838   6.848 -0.1663  0.1488  0.1039
   67POPC   C4A 1173   5.854   4.860   6.359  0.1017 -0.0177 -0.2386
   67POPC   C1B 1174   5.041   5.131   6.867 -0.0906 -0.2663  0.1625
   67POPC   C2B 1175   5.059   4.746   6.707  0.3797  0.3201 -0.0869
   67POPC   C3B 1176   4.776   4.383   6.448 -0.2017 -0.0272  0.2782
   67POPC   C4B 1177   4.280   4.402   6.307 -0.2698 -0.0661  0.0487
   68POPC   NC3 1178   7.496   8.840   7.513  0.1436  0.0960 -0.0817
   68POPC   PO4 1179   7.612   8.378   7.482  0.2961  0.0693  0.0592
   68POPC   GL1 1180   7.835   7.880   7.386  0.1254  0.0258  0.3803
   68POPC   GL2 1181   7.714   7.659   7.204  0.1054 -0.3108  0.0267
   68POPC   C1A 1182   8.242   7.800   7.248 -0.0303  0.0421 -0.0529
   68POPC   D2A 1183   8.609   7.585   7.238 -0.1802 -0.1456 -0.1190
   68POPC   C3A 1184   8.923   7.377   6.862 -0.2810 -0.1629  0.2401
   68POPC   C4A 1185   9.086   7.254   6.492  0.2796 -0.0775 -0.0111
   68POPC   C1B 1186   8.080   7.491   6.914  0.3653  0.1691  0.2959
   68POPC   C2B 1187   8.419   7.573   6.728  0.0296 -0.4287  0.0275
   68POPC   C3B 1188   8.688   7.652   6.319  0.1564  0.1618 -0.3106
   68POPC   C4B 1189   9.024   7.665   6.118  0.0774  0.0470  0.2575
   69POPC   NC3 1190   8.699   1.436   8.471  0.1520  0.1393  0.1761
   69POPC   PO4 1191   8.922   1.421   8.133  0.2653 -0.1462 -0.0389
   69POPC   GL1 1192   9.034   1.682   7.796 -0.1671  0.1173 -0.0298
   69POPC   GL2 1193   9.357   1.931   7.641 -0.0185 -0.0153  0.1833
   69POPC   C1A 1194   8.951   1.676   7.334 -0.0295 -0.3888 -0.3167
   69POPC   D2A 1195   8.826   1.851   7.020 -0.0332  0.0260  0.1406
   69POPC   C3A 1196   9.139   2.016   6.745  0.0233  0.1479  0.1280
   69POPC   C4A 1197   9.448   1.891   6.459  0.1394  0.2923 -0.2587
   69POPC   C1B 1198   9.472   1.943   7.270 -0.3662  0.1457 -0.0061
   69POPC   C2B 1199   9.684   1.925   6.941  0.0959 -0.0057 -0.0984
   69POPC   C3B 1200   9.882   1.623   6.628 -0.0093  0.3017 -0.3071
   69POPC   C4B 1201   9.916   1.500   6.242  0.0394 -0.1445 -0.0134
   70POPC   NC3 1202   9.439   7.368   8.518 -0.0686  0.0400  0.1622
   70POPC   PO4 1203   9.164   7.365   8.177 -0.2681  0.3071  0.3649
   70POPC   GL1 1204   9.172   7.254   7.739 -0.1087  0.1255  0.1962
   70POPC   GL2 1205   8.923   6.999   7.505 -0.1023  0.1190  0.0569
   70POPC   C1A 1206   9.277   7.227   7.247  0.1093 -0.2505 -0.1215
   70POPC   D2A 1207   9.423   7.155   6.857 -0.2311 -0.1178 -0.1209
   70POPC   C3A 1208   9.689   6.862   6.754 -0.1824 -0.0865 -0.1002
   70POPC   C4A 1209  10.045   6.898   6.517  0.2132 -0.0142 -0.1464
   70POPC   C1B 1210   8.971   6.825   6.983 -0.2677 -0.2120 -0.0107
   70POPC   C2B 1211   9.211   6.764   6.549  0.1445  0.2061  0.0052
   70POPC   C3B 1212   8.894   6.786   6.185  0.1182  0.1239  0.2375
   70POPC   C4B 1213   8.671   6.350   5.895 -0.1174 -0.0791  0.0736
   71POPC   NC3 1214   2.570   7.644   7.640  0.6013  0.0838 -0.1763
   71POPC   PO4 1215   2.218   7.539   7.804  0.3400 -0.0314  0.2878
   71POPC   GL1 1216   2.109   7.566   7.384 -0.3018 -0.0364  0.1264
   71POPC   GL2 1217   2.323   7.826   7.096  0.3950 -0.2150 -0.1450
   71POPC   C1A 1218   1.866   7.673   7.071  0.1634 -0.0228  0.1406
   71POPC   D2A 1219   1.403   7.645   6.930 -0.0275 -0.0574 -0.0436
   71POPC   C3A 1220   1.351   7.819   6.499  0.0078  0.0185 -0.0968
   71POPC   C4A 1221   1.435   7.723   6.073  0.1995 -0.0809 -0.1271
   71POPC   C1B 1222   2.394   7.525   6.987 -0.2679 -0.2640  0.0703
   71POPC   C2B 1223   2.387   7.216   6.956 -0.1923 -0.0787  0.2488
   71POPC   C3B 1224   2.540   6.876   6.692 -0.0479 -0.1076 -0.1174
   71POPC   C4B 1225   2.694   6.673   6.350  0.1629 -0.1605 -0.0570
   72POPC   NC3 1226   7.182   8.491   7.228 -0.0245  0.0884 -0.0364
   72POPC   PO4 1227   6.740   8.414   7.449  0.1284  0.0378 -0.0733
   72POPC   GL1 1228   6.858   8.125   7.052  0.1032  0.0748  0.1199
   72POPC   GL2 1229   6.648   8.008   6.970 -0.0646  0.0776  0.1778
   72POPC   C1A 1230   7.016   8.183   6.667 -0.0211  0.0430 -0.0839
   72POPC   D2A 1231   7.116   8.143   6.173 -0.1828  0.2998 -0.0756
   72POPC   C3A 1232   7.059   8.018   5.753 -0.2681  0.0004 -0.1679
   72POPC   C4A 1233   7.170   7.902   5.279  0.0693  0.0246  0.0703
   72POPC   C1B 1234   6.456   7.961   6.611  0.4612 -0.3204  0.1291
   72POPC   C2B 1235   6.308   7.831   6.257  0.0345 -0.3588 -0.1314
   72POPC   C3B 1236   6.430   7.517   5.951  0.0769  0.0181  0.1461
   72POPC   C4B 1237   6.555   7.053   5.917 -0.1404 -0.0383 -0.1966
   73POPC   NC3 1238   4.132   3.942   7.691 -0.4348  0.1164 -0.1309
   73POPC   PO4 1239   4.474   4.183   7.439  0.0501 -0.2400 -0.2422
   73POPC   GL1 1240   4.742   4.406   7.134  0.0094 -0.1806 -0.1833
   73POPC   GL2 1241   4.771   4.736   7.162 -0.2407 -0.2416  0.1765
   73POPC   C1A 1242   5.043   4.293   6.892 -0.0691 -0.1962 -0.2311
   73POPC   D2A 1243   5.293   3.931   6.804 -0.2355 -0.1507  0.1105
   73POPC   C3A 1244   5.532   4.037   6.542 -0.1273  0.0160 -0.2751
   73POPC   C4A 1245   5.677   4.192   6.226 -0.0251 -0.2457  0.3675
   73POPC   C1B 1246   4.539   4.869   6.742 -0.0442  0.1521 -0.1701
   73POPC   C2B 1247   4.522   4.867   6.314  0.0746 -0.3250 -0.1381
   73POPC   C3B 1248   4.778   4.956   5.907 -0.3788  0.2628 -0.0613
   73POPC   C4B 1249   5.131   4.772   5.604 -0.0467  0.2707 -0.0521
   74POPC   NC3 1250   5.079   6.433   7.766  0.0554  0.0390 -0.1927
   74POPC   PO4 1251   5.251   6.049   7.811 -0.2935 -0.1188 -0.2033
   74POPC   GL1 1252   5.206   6.071   7.329 -0.0661 -0.2346 -0.0910
   74POPC   GL2 1253   5.511   5.771   7.380 -0.0913 -0.0547 -0.1717
   74POPC   C1A 1254   5.445   6.177   6.919  0.3661  0.0279 -0.0905
   74POPC   D2A 1255   5.661   6.226   6.527  0.4859 -0.2903 -0.3979
   74POPC   C3A 1256   6.052   6.400   6.734 -0.0776  0.1340 -0.0366
   74POPC   C4A 1257   6.149   6.761   6.908 -0.1030 -0.1469 -0.0682
   74POPC   C1B 1258   5.368   5.521   6.997  0.0875 -0.3035  0.2337
   74POPC   C2B 1259   5.063   5.612   6.603  0.0388  0.0802 -0.1487
   74POPC   C3B 1260   5.236   5.493   6.155  0.4098  0.2404  0.1001
   74POPC   C4B 1261   5.294   5.663   5.686  0.0606  0.2125 -0.1253
   75POPC   NC3 1262  10.021   2.520   7.724 -0.3910  0.0985  0.2035
   75POPC   PO4 1263   9.577   2.488   7.639  0.1116  0.0220 -0.0992
   75POPC   GL1 1264   9.454   2.764   7.228  0.1095 -0.0581  0.0019
   75POPC   GL2 1265   9.369   3.142   7.426  0.0020 -0.0416  0.2557
   75POPC   C1A 1266   9.196   2.748   6.880  0.1299 -0.1272 -0.1282
   75POPC   D2A 1267   8.979   2.736   6.484  0.1105 -0.2487 -0.1294
   75POPC   C3A 1268   9.140   2.890   6.123 -0.0511 -0.0976  0.0944
   75POPC   C4A 1269   9.451   3.063   5.909 -0.0732  0.0508  0.1040
   75POPC   C1B 1270   9.377   3.222   7.003 -0.0289  0.1364 -0.0246
   75POPC   C2B 1271   9.615   3.387   6.743 -0.1463 -0.3904  0.0895
   75POPC   C3B 1272   9.636   3.393   6.318  0.1911  0.3766 -0.1756
   75POPC   C4B 1273  10.020   3.339   6.103 -0.0724 -0.1867  0.0934
   76POPC   NC3 1274   2.475   2.476   7.424  0.1782 -0.1426 -0.1999
   76POPC   PO4 1275   2.059   2.256   7.447 -0.3831  0.1841 -0.0375
   76POPC   GL1 1276   2.139   2.566   7.071 -0.1478 -0.0754  0.3528
   76POPC   GL2 1277   1.922   2.758   6.932  0.1091 -0.0837 -0.2606
   76POPC   C1A 1278   2.363   2.722   6.742 -0.1210 -0.0534  0.1692
   76POPC   D2A 1279   2.728   2.894   6.557  0.1726 -0.4051  0.2354
   76POPC   C3A 1280   2.744   3.131   6.259  0.1718  0.2851  0.0894
   76POPC   C4A 1281   2.801   3.245   5.855  0.1227 -0.3420 -0.1461
   76POPC   C1B 1282   1.918   2.901   6.530  0.1084 -0.0153 -0.1575
   76POPC   C2B 1283   1.808   2.666   6.157  0.3270 -0.5443 -0.0688
   76POPC   C3B 1284   1.592   2.400   5.853 -0.1500  0.0848 -0.1304
   76POPC   C4B 1285   1.177   2.548   5.624 -0.0176 -0.0686 -0.1009
   77POPC   NC3 1286   2.887   9.943   7.044 -0.2203 -0.2995 -0.0066
   77POPC   PO4 1287   2.587   9.600   7.083  0.3143 -0.1320 -0.2012
   77POPC   GL1 1288   2.567   9.284   6.686 -0.1070  0.2398  0.2389
   77POPC   GL2 1289   2.582   9.406   6.354  0.0454  0.1512 -0.0688
   77POPC   C1A 1290   2.197   9.140   6.482  0.2941 -0.2487 -0.0603
   77POPC   D2A 1291   1.776   9.323   6.263  0.1380 -0.4285 -0.1754
   77POPC   C3A 1292   1.811   9.422   5.804  0.3454  0.0660 -0.4554
   77POPC   C4A 1293   1.560   9.752   5.607 -0.0124 -0.2421  0.1691
   77POPC   C1B 1294   2.687   8.945   6.304  0.2710 -0.0581 -0.0713
   77POPC   C2B 1295   2.702   8.491   6.348  0.1837  0.0812  0.1037
   77POPC   C3B 1296   2.758   8.157   6.095 -0.2443 -0.2724 -0.0828
   77POPC   C4B 1297   2.468   8.011   6.282 -0.0445 -0.0485 -0.0777
   78POPC   NC3 1298   2.918   1.777   7.525  0.5455  0.1145 -0.1994
   78POPC   PO4 1299   3.176   1.514   7.270  0.1292  0.0320  0.2687
   78POPC   GL1 1300   3.307   1.759   6.897  0.2672  0.2291 -0.1241
   78POPC   GL2 1301   2.897   1.877   6.774  0.1084 -0.0145  0.2295
   78POPC   C1A 1302   3.441   1.626   6.423  0.1111  0.1099  0.0027
   78POPC   D2A 1303   3.859   1.589   6.152  0.1758  0.1284 -0.0264
   78POPC   C3A 1304   4.090   1.470   5.773  0.1159 -0.0816 -0.0476
   78POPC   C4A 1305   4.182   1.678   5.421  0.1367  0.1054 -0.1584
   78POPC   C1B 1306   3.090   2.065   6.417 -0.1217  0.1936 -0.1551
   78POPC   C2B 1307   3.240   2.370   6.347  0.0075 -0.2183 -0.1713
   78POPC   C3B 1308   2.984   2.669   6.062 -0.2204  0.2140  0.3613
   78POPC   C4B 1309   2.647   2.775   5.749 -0.1593  0.4121 -0.1884
   79POPC   NC3 1310   8.747   2.397   8.048  0.2109 -0.1337 -0.3591
   79POPC   PO4 1311   8.368   2.434   7.768 -0.0390  0.0933 -0.0456
   79POPC   GL1 1312   8.236   2.525   7.266  0.3413  0.0029  0.0207
   79POPC   GL2 1313   7.886   2.594   7.257 -0.2205 -0.0847  0.0198
   79POPC   C1A 1314   8.083   2.542   6.776 -0.0038 -0.3157  0.3593
   79POPC   D2A 1315   7.967   2.665   6.341 -0.2890 -0.0462  0.0273
   79POPC   C3A 1316   8.274   2.453   6.099 -0.0841 -0.0558  0.0685
   79POPC   C4A 1317   8.742   2.474   6.110  0.1085 -0.0068  0.2664
   79POPC   C1B 1318   7.554   2.580   7.016 -0.3496  0.0650 -0.1300
   79POPC   C2B 1319   7.141   2.749   6.806  0.0284 -0.2182 -0.0140
   79POPC   C3B 1320   7.105   3.019   6.453 -0.0093 -0.0432 -0.0138
   79POPC   C4B 1321   7.288   3.465   6.382 -0.1910 -0.2296 -0.0589
   80POPC   NC3 1322   4.055   0.310   6.935 -0.0437  0.0586  0.1488
   80POPC   PO4 1323   4.334   0.643   6.905  0.0218 -0.0044 -0.1608
   80POPC   GL1 1324   4.217   0.572   6.507 -0.0670 -0.2211  0.2954
   80POPC   GL2 1325   4.169   0.297   6.254 -0.1697 -0.1570  0.0238
   80POPC   C1A 1326   4.098   0.764   6.091 -0.1629 -0.0087  0.0437
   80POPC   D2A 1327   4.089   0.615   5.679  0.2992 -0.0008  0.0098
   80POPC   C3A 1328   4.412   0.730   5.322  0.0747 -0.3127  0.1654
   80POPC   C4A 1329   4.785   0.906   5.180  0.1970 -0.0979 -0.3188
   80POPC   C1B 1330   4.477   0.549   5.959  0.2849 -0.0085 -0.0361
   80POPC   C2B 1331   4.769   0.650   5.729  0.0292 -0.5065 -0.2103
   80POPC   C3B 1332   5.014   1.042   5.666  0.2484 -0.1015 -0.0137
   80POPC   C4B 1333   5.165   1.322   5.741 -0.0572  0.2165 -0.2201
   81POPC   NC3 1334   8.706   9.593   7.864 -0.3465  0.0403  0.1361
   81POPC   PO4 1335   8.919   9.199   7.897  0.0413 -0.1218 -0.1415
   81POPC   GL1 1336   9.311   9.213   7.749 -0.2667 -0.2542  0.0608
   81POPC   GL2 1337   9.349   8.907   7.696 -0.1460 -0.1103 -0.1541
   81POPC   C1A 1338   9.690   9.344   7.516 -0.0595  0.3009 -0.0035
   81POPC   D2A 1339   9.888   9.512   7.233 -0.0831 -0.1681 -0.1827
   81POPC   C3A 1340   9.788   9.447   6.809 -0.0292  0.0295  0.0716
   81POPC   C4A 1341   9.693   9.217   6.517 -0.0020  0.0815 -0.2772
   81POPC   C1B 1342   9.684   8.732   7.413 -0.0534  0.0206  0.4196
   81POPC   C2B 1343   9.826   8.472   7.183  0.2975 -0.0826 -0.0724
   81POPC   C3B 1344   9.891   8.281   6.926  0.1164 -0.1051 -0.1063
   81POPC   C4B 1345  10.034   7.996   7.116  0.3151 -0.1576 -0.0790
   82POPC   NC3 1346   7.088   5.069   8.226  0.4153  0.3396  0.4346
   82POPC   PO4 1347   7.544   5.202   8.016  0.0746 -0.3462 -0.1403
   82POPC   GL1 1348   7.571   5.053   7.625 -0.0796  0.0574 -0.0007
   82POPC   GL2 1349   7.750   4.920   7.492 -0.2083 -0.0023  0.0773
   82POPC   C1A 1350   7.381   4.901   7.141 -0.1923 -0.2947 -0.1317
   82POPC   D2A 1351   7.235   4.859   6.687 -0.2949 -0.0030 -0.3415
   82POPC   C3A 1352   7.264   4.810   6.244 -0.0567  0.0387 -0.1042
   82POPC   C4A 1353   7.411   4.645   5.833 -0.0619  0.0493 -0.2739
   82POPC   C1B 1354   7.900   5.036   7.116 -0.1623  0.0689 -0.0232
   82POPC   C2B 1355   8.102   5.084   6.728 -0.1684  0.0479  0.0906
   82POPC   C3B 1356   8.306   4.849   6.436 -0.2024 -0.0270 -0.3543
   82POPC   C4B 1357   8.412   4.559   6.136 -0.2032 -0.2047  0.2560
   83POPC   NC3 1358   8.595   7.058   7.909 -0.1498 -0.1856 -0.2876
   83POPC   PO4 1359   8.598   6.633   7.830  0.4536  0.1649  0.1292
   83POPC   GL1 1360   8.652   6.559   7.312  0.1271 -0.3483 -0.4143
   83POPC   GL2 1361   8.808   6.401   7.274  0.0204  0.1745 -0.0612
   83POPC   C1A 1362   8.448   6.465   6.923  0.1238  0.3240  0.0689
   83POPC   D2A 1363   8.568   6.518   6.506  0.0632 -0.0634 -0.0540
   83POPC   C3A 1364   8.400   6.766   6.154  0.1423  0.2383 -0.0461
   83POPC   C4A 1365   8.130   6.921   5.896  0.1704  0.0750 -0.0299
   83POPC   C1B 1366   8.958   6.316   6.821  0.0954 -0.2038  0.0044
   83POPC   C2B 1367   9.075   6.259   6.415 -0.1252  0.2742  0.2493
   83POPC   C3B 1368   9.340   6.433   6.150  0.0064 -0.1826  0.1198
   83POPC   C4B 1369   9.639   6.764   6.240  0.2160  0.1804 -0.5396
   84POPC   NC3 1370   0.156   8.474   7.862 -0.1754 -0.3147  0.1453
   84POPC   PO4 1371   0.071   8.933   7.883  0.3159  0.0341  0.2112
   84POPC   GL1 1372   0.256   8.914   7.436 -0.0903 -0.1923 -0.1541
   84POPC   GL2 1373   0.203   9.314   7.422 -0.1199 -0.1079  0.2318
   84POPC   C1A 1374   0.599   9.042   7.103  0.1920 -0.1354  0.0583
   84POPC   D2A 1375   0.573   9.113   6.685  0.0772 -0.3072  0.0714
   84POPC   C3A 1376   0.254   8.893   6.506 -0.0744  0.0005  0.0197
   84POPC   C4A 1377  -0.119   8.691   6.553 -0.1709  0.0586  0.2143
   84POPC   C1B 1378   0.173   9.251   6.932 -0.0118  0.2375 -0.0142
   84POPC   C2B 1379   0.085   9.360   6.472  0.0065  0.1406  0.0231
   84POPC   C3B 1380  -0.019   9.112   6.110 -0.0420  0.0864  0.0699
   84POPC   C4B 1381  -0.043   8.757   5.905  0.2294 -0.2327  0.1486
   85POPC   NC3 1382   6.564   2.301   7.943 -0.1548 -0.0679 -0.0228
   85POPC   PO4 1383   6.429   2.775   7.900  0.4228 -0.1500  0.1614
   85POPC   GL1 1384   6.357   2.713   7.469 -0.1704  0.0211 -0.1635
   85POPC   GL2 1385   6.293   2.985   7.398 -0.3070 -0.1597 -0.2969
   85POPC   C1A 1386   6.315   2.380   7.161 -0.1685 -0.3899  0.1475
   85POPC   D2A 1387   6.244   1.997   7.009 -0.1481 -0.1005  0.0229
   85POPC   C3A 1388   5.959   1.707   6.868  0.1355  0.1254  0.1578
   85POPC   C4A 1389   5.801   1.638   6.334 -0.1275  0.0400  0.0586
   85POPC   C1B 1390   6.334   2.827   6.932  0.0677  0.0286  0.0138
   85POPC   C2B 1391   6.565   2.921   6.520  0.1324  0.0142  0.0147
   85POPC   C3B 1392   6.484   3.108   6.086  0.1280 -0.1248  0.3194
   85POPC   C4B 1393   6.424   3.412   5.611 -0.0252  0.3827  0.1082
   86POPC   NC3 1394   3.117   6.063   7.760 -0.0666  0.1549 -0.0378
   86POPC   PO4 1395   3.283   6.419   7.651  0.3473 -0.2020  0.0333
   86POPC   GL1 1396   3.413   6.529   7.276  0.3279 -0.0338 -0.3623
   86POPC   GL2 1397   3.665   6.337   7.109  0.0699 -0.1026 -0.0472
   86POPC   C1A 1398   3.310   6.718   6.905  0.4471  0.4730  0.2139
   86POPC   D2A 1399   2.988   6.459   6.735  0.0938 -0.3169  0.4536
   86POPC   C3A 1400   2.652   6.241   6.910 -0.0571 -0.2343  0.1640
   86POPC   C4A 1401   2.348   5.952   6.887  0.0674  0.0683 -0.3448
   86POPC   C1B 1402   3.356   6.180   6.732 -0.0886  0.1155  0.0020
   86POPC   C2B 1403   3.159   5.852   6.658  0.2742 -0.3006 -0.0526
   86POPC   C3B 1404   3.066   5.805   6.288  0.1624  0.2018  0.3596
   86POPC   C4B 1405   2.865   5.926   5.920 -0.1522 -0.0334 -0.0365
   87POPC   NC3 1406   5.161   7.909   8.044 -0.1588  0.0640 -0.2682
   87POPC   PO4 1407   5.207   7.824   7.610  0.1478 -0.1050 -0.0802
   87POPC   GL1 1408   5.290   7.776   7.133 -0.0666 -0.1040 -0.1169
   87POPC   GL2 1409   5.616   7.914   6.968  0.3388 -0.0908  0.1215
   87POPC   C1A 1410   4.917   7.613   6.811 -0.1001  0.1646 -0.0338
   87POPC   D2A 1411   4.739   7.267   6.679  0.1688  0.0684  0.2946
   87POPC   C3A 1412   4.692   7.172   6.139 -0.1398 -0.1521 -0.0707
   87POPC   C4A 1413   4.744   7.046   5.618 -0.2975  0.1556 -0.1270
   87POPC   C1B 1414   5.867   7.669   6.580  0.2051 -0.0176 -0.2131
   87POPC   C2B 1415   6.029   7.414   6.262  0.3534 -0.1144  0.1606
   87POPC   C3B 1416   6.048   7.159   5.969  0.0865  0.4300 -0.2703
   87POPC   C4B 1417   6.179   6.731   5.810  0.3440 -0.0039 -0.3366
   88POPC   NC3 1418   0.300   2.143   7.839 -0.2821 -0.0232  0.2053
   88POPC   PO4 1419   0.537   2.487   7.610  0.2202 -0.0438  0.2605
   88POPC   GL1 1420   0.792   2.444   7.185 -0.1712 -0.1023 -0.4219
   88POPC   GL2 1421   1.136   2.338   7.116 -0.0726  0.1649  0.6123
   88POPC   C1A 1422   0.772   2.759   6.816 -0.1589 -0.0144 -0.0963
   88POPC   D2A 1423   0.808   2.754   6.360 -0.1431  0.0889 -0.1226
   88POPC   C3A 1424   0.908   2.283   6.242 -0.0315  0.1150 -0.1662
   88POPC   C4A 1425   1.136   2.055   5.889 -0.1149  0.0638 -0.2604
   88POPC   C1B 1426   1.120   2.334   6.682 -0.0464 -0.1278  0.1959
   88POPC   C2B 1427   1.389   2.285   6.292 -0.1462  0.2085  0.1744
   88POPC   C3B 1428   1.822   2.108   6.192  0.1317  0.0129  0.0244
   88POPC   C4B 1429   2.252   1.973   6.060  0.1654 -0.2106  0.4967
   89POPC   NC3 1430   6.812   3.491   7.954 -0.0333 -0.1525  0.1248
   89POPC   PO4 1431   6.486   3.744   7.750 -0.1660 -0.0594  0.3160
   89POPC   GL1 1432   6.395   3.756   7.296  0.0140 -0.3096  0.0776
   89POPC   GL2 1433   6.727   3.526   7.226  0.1435  0.0741 -0.1435
   89POPC   C1A 1434   6.287   3.883   6.800  0.0578  0.1928 -0.2748
   89POPC   D2A 1435   6.130   3.906   6.396  0.2453 -0.0087  0.3509
   89POPC   C3A 1436   6.120   3.582   6.077 -0.0092 -0.1096 -0.0373
   89POPC   C4A 1437   5.821   3.456   5.768  0.1229  0.0262  0.0241
   89POPC   C1B 1438   6.962   3.953   7.052 -0.2093  0.1985  0.1532
   89POPC   C2B 1439   6.798   4.231   6.820 -0.0575  0.2258 -0.0683
   89POPC   C3B 1440   6.989   4.413   6.485 -0.0074 -0.2274  0.3516
   89POPC   C4B 1441   6.722   4.694   6.108  0.0548  0.1599 -0.2796
   90POPC   NC3 1442   0.033   0.700   7.909  0.0407  0.2328  0.2800
   90POPC   PO4 1443   0.514   0.718   7.714  0.0582 -0.0446 -0.3439
   90POPC   GL1 1444   0.395   0.447   7.315 -0.4132  0.0994  0.0497
   90POPC   GL2 1445   0.670   0.456   7.165 -0.1638  0.2333  0.2408
   90POPC   C1A 1446   0.279   0.544   6.871  0.1498  0.2161 -0.3209
   90POPC   D2A 1447   0.396   0.353   6.456 -0.2695 -0.0449  0.1977
   90POPC   C3A 1448   0.451   0.652   6.185 -0.1179  0.1192  0.3144
   90POPC   C4A 1449   0.644   1.035   6.107  0.0566 -0.1666  0.0957
   90POPC   C1B 1450   0.786   0.451   6.739 -0.0703 -0.0435  0.2753
   90POPC   C2B 1451   0.956   0.603   6.426 -0.1429 -0.2087  0.1014
   90POPC   C3B 1452   1.260   0.719   6.147 -0.2049 -0.3694 -0.3316
   90POPC   C4B 1453   1.537   0.712   5.772  0.2104 -0.4775 -0.1170
   91POPC   NC3 1454   9.037   0.612   7.655  0.3293 -0.0448 -0.0651
   91POPC   PO4 1455   9.428   0.518   7.750 -0.3018 -0.2353  0.1816
   91POPC   GL1 1456   9.581   0.195   7.519 -0.2661 -0.0693  0.4627
   91POPC   GL2 1457   9.401   0.326   7.266 -0.0473 -0.0383 -0.2950
   91POPC   C1A 1458   9.482  -0.265   7.544  0.0334 -0.1737 -0.3976
   91POPC   D2A 1459   9.269  -0.509   7.402 -0.0286  0.2472  0.1707
   91POPC   C3A 1460   9.336  -0.564   7.003  0.0877  0.1487 -0.2223
   91POPC   C4A 1461   9.367  -0.470   6.511 -0.0434 -0.1468  0.1785
   91POPC   C1B 1462   9.753   0.351   6.945 -0.2612 -0.0953  0.4474
   91POPC   C2B 1463   9.987   0.284   6.657 -0.3312  0.1044 -0.2318
   91POPC   C3B 1464  10.029   0.258   6.242 -0.2685  0.0541  0.3233
   91POPC   C4B 1465   9.955   0.669   6.025  0.1861 -0.0542 -0.0126
   92POPC   NC3 1466   3.247   5.121   7.551 -0.0225 -0.0809 -0.1977
   92POPC   PO4 1467   3.237   5.619   7.493  0.0768  0.3007  0.2390
   92POPC   GL1 1468   3.185   5.540   7.027  0.0099 -0.1231 -0.1771
   92POPC   GL2 1469   3.261   5.207   6.996  0.1277 -0.0183  0.1761
   92POPC   C1A 1470   3.552   5.539   6.698 -0.2117 -0.2389  0.1341
   92POPC   D2A 1471   3.571   5.172   6.400  0.0537 -0.0251 -0.0763
   92POPC   C3A 1472   3.345   5.099   6.095  0.2493 -0.4190  0.2535
   92POPC   C4A 1473   3.086   5.250   5.909  0.0233 -0.2188 -0.2214
   92POPC   C1B 1474   3.047   5.323   6.535 -0.0284  0.0264 -0.0575
   92POPC   C2B 1475   2.771   5.119   6.227  0.2179 -0.1959 -0.0895
   92POPC   C3B 1476   2.704   4.923   5.847 -0.0189 -0.3772  0.3724
   92POPC   C4B 1477   2.570   5.056   5.324 -0.0295  0.1335 -0.2578
   93POPC   NC3 1478   8.523   6.211   8.132 -0.0724  0.0065 -0.1225
   93POPC   PO4 1479   8.965   5.951   8.150  0.1293 -0.2182 -0.2166
   93POPC   GL1 1480   9.355   5.983   7.890  0.3251 -0.3667  0.1259
   93POPC   GL2 1481   9.426   6.169   7.686  0.2348 -0.1988 -0.3153
   93POPC   C1A 1482   9.590   5.742   7.536  0.1699 -0.0269 -0.0221
   93POPC   D2A 1483   9.617   5.634   7.098  0.0962  0.0622 -0.3324
   93POPC   C3A 1484   9.794   6.071   6.828  0.1317 -0.1268  0.0979
   93POPC   C4A 1485   9.466   6.397   6.731  0.0256 -0.2108 -0.2374
   93POPC   C1B 1486   9.004   6.003   7.481 -0.2254  0.0761  0.1677
   93POPC   C2B 1487   8.719   5.876   7.038 -0.0770  0.0851 -0.0342
   93POPC   C3B 1488   8.570   5.970   6.686 -0.1132 -0.3921 -0.2378
   93POPC   C4B 1489   8.623   5.989   6.237  0.0844  0.0131  0.5287
   94POPC   NC3 1490   0.195   3.425   7.732  0.0075  0.0267  0.3380
   94POPC   PO4 1491   0.630   3.471   7.732  0.0900 -0.0510 -0.2791
   94POPC   GL1 1492   0.575   3.437   7.287  0.0561  0.2824 -0.1260
   94POPC   GL2 1493   0.262   3.343   7.235 -0.0174 -0.1726  0.0476
   94POPC   C1A 1494   0.659   3.419   6.901 -0.1766 -0.0304  0.3894
   94POPC   D2A 1495   0.642   3.625   6.430  0.0649  0.0270 -0.0367
   94POPC   C3A 1496   0.479   3.279   6.017  0.2275 -0.2452  0.0266
   94POPC   C4A 1497   0.604   3.241   5.518  0.2514 -0.1237 -0.1502
   94POPC   C1B 1498   0.058   3.324   6.798  0.1867  0.3276 -0.0621
   94POPC   C2B 1499   0.132   3.666   6.456  0.2579 -0.1188  0.1682
   94POPC   C3B 1500  -0.152   3.917   6.291 -0.1998 -0.1116 -0.1967
   94POPC   C4B 1501  -0.402   4.288   6.078  0.0279  0.4487  0.3903
   95POPC   NC3 1502   8.540   3.273   8.253  0.0102  0.2137  0.0849
   95POPC   PO4 1503   9.062   3.066   8.022  0.2231 -0.2052 -0.2414
   95POPC   GL1 1504   8.919   3.239   7.594  0.4683  0.3762  0.0316
   95POPC   GL2 1505   8.971   3.528   7.452 -0.0119  0.2275 -0.0122
   95POPC   C1A 1506   8.821   3.105   7.194 -0.3691  0.4110 -0.0845
   95POPC   D2A 1507   8.625   3.166   6.766  0.0308  0.0540  0.0724
   95POPC   C3A 1508   8.598   3.676   6.653  0.0004 -0.1358 -0.0337
   95POPC   C4A 1509   8.853   3.834   6.348  0.1917  0.0166  0.0728
   95POPC   C1B 1510   8.957   3.556   7.041  0.0015 -0.1475 -0.1066
   95POPC   C2B 1511   9.037   3.335   6.615  0.1811  0.1760 -0.1521
   95POPC   C3B 1512   9.167   3.484   6.154  0.0818 -0.0701 -0.2120
   95POPC   C4B 1513   9.073   3.269   5.717  0.1748  0.0508 -0.1925
   96POPC   NC3 1514   4.548   9.151   6.969  0.3486 -0.0501 -0.2446
   96POPC   PO4 1515   4.952   9.008   7.025 -0.3981  0.1146 -0.0166
   96POPC   GL1 1516   4.851   8.855   6.633  0.1539 -0.0989  0.0276
   96POPC   GL2 1517   4.540   8.771   6.616 -0.5029  0.1003  0.4398
   96POPC   C1A 1518   4.761   9.160   6.344 -0.0112 -0.2093  0.0053
   96POPC   D2A 1519   4.752   9.043   5.826  0.0442  0.4228 -0.0719
   96POPC   C3A 1520   5.048   9.086   5.556  0.4453 -0.1740  0.0587
   96POPC   C4A 1521   5.402   9.306   5.636 -0.0006  0.1260  0.0311
   96POPC   C1B 1522   4.462   8.764   6.148  0.2361 -0.0227 -0.1220
   96POPC   C2B 1523   4.394   8.713   5.740  0.2015 -0.2049  0.0672
   96POPC   C3B 1524   4.616   8.897   5.320  0.1437 -0.0195  0.3182
   96POPC   C4B 1525   4.829   9.148   5.058  0.0579  0.1774 -0.6263
   97POPC   NC3 1526   9.855   3.387   8.491 -0.2476 -0.4487 -0.1696
   97POPC   PO4 1527   9.833   3.490   8.057  0.1515 -0.0147  0.0865
   97POPC   GL1 1528   9.856   3.666   7.642  0.0031  0.0406 -0.1169
   97POPC   GL2 1529   9.764   3.469   7.381  0.0143  0.1762 -0.0706
   97POPC   C1A 1530   9.923   4.049   7.463  0.0514 -0.1543  0.2954
   97POPC   D2A 1531  10.229   4.222   7.155  0.3187  0.0414  0.0999
   97POPC   C3A 1532  10.162   4.237   6.760  0.0652 -0.1321 -0.2093
   97POPC   C4A 1533   9.990   4.474   6.446 -0.0444 -0.3101 -0.1602
   97POPC   C1B 1534   9.832   3.094   7.166 -0.0160 -0.3588 -0.0050
   97POPC   C2B 1535   9.731   2.883   6.789 -0.1715 -0.0537 -0.1438
   97POPC   C3B 1536   9.452   2.921   6.492  0.1147 -0.1527 -0.1092
   97POPC   C4B 1537   9.538   2.576   6.051  0.1336  0.1938  0.1834
   98POPC   NC3 1538   5.176   4.357   7.892 -0.0250 -0.1976  0.2685
   98POPC   PO4 1539   4.890   4.232   7.688  0.0252  0.2391  0.0642
   98POPC   GL1 1540   5.242   4.374   7.368  0.0546 -0.3612  0.2306
   98POPC   GL2 1541   5.582   4.289   7.466  0.1069  0.1234  0.0626
   98POPC   C1A 1542   5.292   4.748   7.131  0.2811 -0.0747  0.0140
   98POPC   D2A 1543   5.555   5.041   6.823  0.1708  0.3961 -0.1706
   98POPC   C3A 1544   5.320   5.110   6.443 -0.4502  0.1249  0.1336
   98POPC   C4A 1545   4.930   5.133   6.311  0.1978  0.2055  0.3293
   98POPC   C1B 1546   5.775   4.542   7.135 -0.0518 -0.0912 -0.1864
   98POPC   C2B 1547   5.587   4.515   6.740 -0.1929  0.1754  0.1827
   98POPC   C3B 1548   5.411   4.618   6.394  0.2504  0.1356  0.0704
   98POPC   C4B 1549   5.100   4.684   6.142  0.3136 -0.1962 -0.0408
   99POPC   NC3 1550   6.442   8.891   7.398  0.0115 -0.0902  0.0578
   99POPC   PO4 1551   6.793   8.806   7.066  0.1052  0.1002 -0.0264
   99POPC   GL1 1552   6.996   8.697   6.732  0.3074  0.0551 -0.0925
   99POPC   GL2 1553   6.892   8.771   6.463  0.0078 -0.2839 -0.1726
   99POPC   C1A 1554   7.308   8.563   6.409  0.1386  0.1937 -0.5131
   99POPC   D2A 1555   7.553   8.434   6.194 -0.0989 -0.3415  0.3232
   99POPC   C3A 1556   7.396   8.544   5.803 -0.0101  0.2161 -0.1395
   99POPC   C4A 1557   7.558   8.672   5.406 -0.0417  0.1864 -0.0328
   99POPC   C1B 1558   7.005   8.741   6.058 -0.1036 -0.0656 -0.1929
   99POPC   C2B 1559   6.848   8.480   5.914  0.1282 -0.0199 -0.3025
   99POPC   C3B 1560   6.555   8.267   5.622  0.2001  0.1513  0.2175
   99POPC   C4B 1561   6.293   7.880   5.688 -0.3179 -0.2438  0.0418
  100POPC   NC3 1562   0.895   4.897   8.114  0.0154 -0.2152 -0.0274
  100POPC   PO4 1563   0.570   5.181   8.271 -0.0416 -0.1365  0.0565
  100POPC   GL1 1564   0.626   5.333   7.892  0.1292 -0.1928  0.2057
  100POPC   GL2 1565   0.890   5.311   7.703  0.0522  0.2226 -0.2062
  100POPC   C1A 1566   0.455   5.334   7.519  0.2075  0.0782  0.0184
  100POPC   D2A 1567   0.625   5.062   7.209 -0.1800 -0.1841 -0.2993
  100POPC   C3A 1568   0.413   5.282   6.852 -0.0312 -0.2317 -0.1104
  100POPC   C4A 1569   0.220   5.467   6.385 -0.0987  0.0415 -0.4736
  100POPC   C1B 1570   0.998   5.385   7.315 -0.0899 -0.0538 -0.0933
  100POPC   C2B 1571   0.958   5.304   6.837  0.0465  0.1954 -0.1636
  100POPC   C3B 1572   0.731   5.195   6.415 -0.2291 -0.3390 -0.1359
  100POPC   C4B 1573   0.532   5.196   6.156 -0.0141 -0.0666 -0.1121
  101POPC   NC3 1574   7.878   4.411   8.502  0.2032 -0.3111  0.1784
  101POPC   PO4 1575   8.063   4.223   8.256 -0.1842 -0.3457  0.2494
  101POPC   GL1 1576   8.160   4.257   7.775  0.0890 -0.2103  0.0688
  101POPC   GL2 1577   7.970   4.385   7.535  0.4077 -0.0903 -0.3940
  101POPC   C1A 1578   8.165   3.898   7.410 -0.1521  0.3039  0.0295
  101POPC   D2A 1579   8.022   3.603   7.198 -0.0884  0.0864 -0.1499
  101POPC   C3A 1580   7.948   3.521   6.770  0.0773  0.1561  0.0256
  101POPC   C4A 1581   8.238   3.282   6.394  0.0355  0.0955 -0.0452
  101POPC   C1B 1582   7.755   4.521   7.184 -0.2986  0.0290 -0.1862
  101POPC   C2B 1583   7.739   4.704   6.784 -0.2520  0.1069 -0.0637
  101POPC   C3B 1584   7.724   4.907   6.387  0.0832  0.1812  0.1934
  101POPC   C4B 1585   7.961   5.098   6.144 -0.0905  0.2007  0.1020
  102POPC   NC3 1586   4.120   8.221   7.130  0.0655 -0.2170  0.3072
  102POPC   PO4 1587   3.833   8.675   7.044  0.4620 -0.0835  0.3849
  102POPC   GL1 1588   4.062   8.539   6.655  0.2185 -0.1578  0.1109
  102POPC   GL2 1589   4.029   8.176   6.629  0.0656 -0.1589 -0.1655
  102POPC   C1A 1590   4.228   8.340   6.219  0.2271 -0.1668  0.2621
  102POPC   D2A 1591   4.130   8.171   5.904 -0.0208 -0.1278 -0.0978
  102POPC   C3A 1592   4.174   7.869   5.731 -0.5017  0.0367 -0.0548
  102POPC   C4A 1593   4.343   7.626   5.408  0.0407 -0.2002 -0.0205
  102POPC   C1B 1594   3.934   7.921   6.285  0.1923  0.0640  0.4088
  102POPC   C2B 1595   3.798   7.599   5.959 -0.0949 -0.2850  0.1621
  102POPC   C3B 1596   3.866   7.523   5.551  0.3773 -0.1989 -0.0007
  102POPC   C4B 1597   3.775   7.711   5.089  0.1106 -0.1349  0.0349
  103POPC   NC3 1598   0.556   6.242   8.162  0.0118  0.0650  0.2602
  103POPC   PO4 1599   0.141   6.302   8.147 -0.3541 -0.0514  0.0437
  103POPC   GL1 1600  -0.052   6.348   7.662 -0.0582 -0.2200 -0.4457
  103POPC   GL2 1601  -0.277   6.477   7.587 -0.1187  0.3571 -0.0047
  103POPC   C1A 1602  -0.131   6.061   7.406 -0.0460  0.0168  0.1461
  103POPC   D2A 1603  -0.067   5.605   7.420 -0.1321  0.1773  0.3097
  103POPC   C3A 1604   0.129   5.192   7.245 -0.1103  0.3140 -0.0516
  103POPC   C4A 1605   0.233   4.729   7.358 -0.1480 -0.0634 -0.0898
  103POPC   C1B 1606  -0.489   6.335   7.198 -0.4468 -0.0340 -0.4004
  103POPC   C2B 1607  -0.761   6.070   7.141 -0.1269  0.0284 -0.0390
  103POPC   C3B 1608  -0.832   5.881   6.785  0.2909 -0.2146  0.0379
  103POPC   C4B 1609  -0.543   6.017   6.397 -0.1526  0.1622  0.0431
  104POPC   NC3 1610   5.964   3.729   7.849  0.1575  0.1906 -0.1486
  104POPC   PO4 1611   5.807   3.265   7.864  0.1849 -0.0575  0.2269
  104POPC   GL1 1612   5.780   3.223   7.449 -0.0367 -0.1632  0.1423
  104POPC   GL2 1613   6.034   3.459   7.374  0.3107 -0.0192 -0.0274
  104POPC   C1A 1614   5.714   3.053   7.100  0.2150  0.0097  0.2609
  104POPC   D2A 1615   5.890   3.021   6.729  0.1356  0.2038  0.1804
  104POPC   C3A 1616   5.919   2.673   6.369 -0.0759  0.1913  0.0889
  104POPC   C4A 1617   5.873   2.224   6.052  0.0066 -0.0351 -0.0682
  104POPC   C1B 1618   6.037   3.455   6.941 -0.3787  0.0816 -0.1535
  104POPC   C2B 1619   5.767   3.594   6.576 -0.1628  0.0459 -0.1285
  104POPC   C3B 1620   5.523   3.586   6.222 -0.0464 -0.0697 -0.2880
  104POPC   C4B 1621   5.117   3.665   6.379 -0.1692  0.1435  0.0255
  105POPC   NC3 1622   8.171   9.411   7.886 -0.2381 -0.1218 -0.0366
  105POPC   PO4 1623   8.490   9.153   7.664  0.1283  0.0579 -0.5039
  105POPC   GL1 1624   8.433   8.804   7.462 -0.0167  0.0029  0.2647
  105POPC   GL2 1625   8.735   8.551   7.353  0.1668 -0.0410 -0.1128
  105POPC   C1A 1626   8.397   8.592   7.009  0.1900 -0.0447 -0.1477
  105POPC   D2A 1627   8.059   8.406   6.856  0.2555  0.1338  0.0090
  105POPC   C3A 1628   8.181   7.966   6.757 -0.2216  0.3166 -0.0996
  105POPC   C4A 1629   8.094   7.727   6.314  0.1688 -0.1711 -0.2835
  105POPC   C1B 1630   8.665   8.117   7.187 -0.0083 -0.5168 -0.0901
  105POPC   C2B 1631   8.688   8.041   6.831  0.1645  0.1887  0.0471
  105POPC   C3B 1632   8.957   8.057   6.427 -0.1360  0.0187  0.0283
  105POPC   C4B 1633   9.033   8.131   5.961 -0.1926 -0.3461 -0.0089
  106POPC   NC3 1634   4.958   2.819   7.427 -0.3000 -0.0928  0.0560
  106POPC   PO4 1635   4.951   3.241   7.640  0.0872 -0.1509 -0.0394
  106POPC   GL1 1636   4.603   3.301   7.362  0.1022  0.1379 -0.0239
  106POPC   GL2 1637   4.451   3.677   7.390 -0.2919 -0.0617 -0.0086
  106POPC   C1A 1638   4.366   3.305   6.969 -0.2013 -0.1666  0.3767
  106POPC   D2A 1639   4.209   3.501   6.623 -0.3199  0.0352 -0.3111
  106POPC   C3A 1640   4.473   3.587   6.360 -0.1311  0.2865  0.1320
  106POPC   C4A 1641   4.705   3.952   6.168 -0.2052 -0.1389 -0.1213
  106POPC   C1B 1642   4.540   3.772   6.911 -0.1084 -0.0861 -0.3035
  106POPC   C2B 1643   4.820   3.933   6.640  0.2053  0.2647  0.1067
  106POPC   C3B 1644   5.168   4.173   6.309  0.1058 -0.2062 -0.1356
  106POPC   C4B 1645   5.272   4.269   5.884 -0.0517 -0.2243 -0.1702
  107POPC   NC3 1646   5.834   6.996   7.826 -0.1348 -0.1046  0.0910
  107POPC   PO4 1647   5.334   6.970   7.978 -0.2383  0.0376 -0.2093
  107POPC   GL1 1648   5.414   6.790   7.535  0.1381  0.1078 -0.0639
  107POPC   GL2 1649   5.463   7.039   7.410  0.0334 -0.1694  0.1274
  107POPC   C1A 1650   5.184   6.660   7.128 -0.2613 -0.2040 -0.2705
  107POPC   D2A 1651   5.069   6.411   6.778 -0.0581 -0.2209  0.2042
  107POPC   C3A 1652   5.168   6.111   6.477  0.1094 -0.1394 -0.0102
  107POPC   C4A 1653   5.129   6.053   5.939  0.2049  0.1241  0.2053
  107POPC   C1B 1654   5.628   7.252   7.034 -0.5337 -0.0456  0.1023
  107POPC   C2B 1655   5.379   7.468   6.754 -0.2753  0.2290  0.1573
  107POPC   C3B 1656   5.376   7.745   6.342 -0.0763 -0.1760 -0.0693
  107POPC   C4B 1657   5.353   7.558   5.925 -0.1155  0.1019 -0.1195
  108POPC   NC3 1658   1.482   4.628   7.710 -0.1165  0.0487 -0.0825
  108POPC   PO4 1659   1.662   4.325   7.845 -0.1873 -0.0835  0.2774
  108POPC   GL1 1660   1.866   4.319   7.495 -0.1011  0.0073 -0.0458
  108POPC   GL2 1661   1.881   3.999   7.455 -0.1943 -0.1047 -0.3265
  108POPC   C1A 1662   2.184   4.352   7.158  0.0809  0.2378  0.1715
  108POPC   D2A 1663   2.232   4.417   6.734  0.0550  0.1539  0.1154
  108POPC   C3A 1664   2.416   4.159   6.596 -0.0265 -0.1405 -0.3569
  108POPC   C4A 1665   2.322   3.843   6.298  0.3136 -0.1497 -0.1925
  108POPC   C1B 1666   2.221   3.872   7.004 -0.4959  0.0527 -0.2547
  108POPC   C2B 1667   2.522   3.736   6.820  0.0393  0.0431  0.0368
  108POPC   C3B 1668   2.725   3.544   6.498  0.0108  0.3021  0.3950
  108POPC   C4B 1669   2.828   3.694   6.129  0.0394 -0.1382  0.1528
  109POPC   NC3 1670   0.969   1.317   7.684  0.4685  0.0275 -0.1974
  109POPC   PO4 1671   1.346   1.402   7.464  0.0071 -0.0651  0.0819
  109POPC   GL1 1672   1.320   1.465   7.050 -0.2276  0.0751  0.1215
  109POPC   GL2 1673   1.420   1.169   6.874 -0.1778 -0.1861  0.0321
  109POPC   C1A 1674   1.032   1.613   6.735 -0.1750  0.0664 -0.0333
  109POPC   D2A 1675   1.159   1.879   6.413  0.2119  0.2433  0.1949
  109POPC   C3A 1676   1.356   1.640   6.140 -0.0017  0.0064  0.0051
  109POPC   C4A 1677   1.532   1.850   5.774 -0.1243  0.1467 -0.0464
  109POPC   C1B 1678   1.314   1.239   6.483 -0.0259 -0.2930 -0.1028
  109POPC   C2B 1679   1.139   1.185   6.142 -0.3327 -0.1367 -0.1738
  109POPC   C3B 1680   1.084   1.018   5.712  0.5267 -0.1170 -0.1799
  109POPC   C4B 1681   0.949   0.948   5.267  0.2588 -0.1351  0.1597
  110POPC   NC3 1682   4.310   5.756   8.224 -0.1169 -0.0697 -0.0547
  110POPC   PO4 1683   4.183   5.904   7.840  0.0874  0.0918  0.2562
  110POPC   GL1 1684   4.309   5.947   7.423  0.2770 -0.0984 -0.3554
  110POPC   GL2 1685   4.553   5.715   7.350  0.0825  0.1222 -0.0472
  110POPC   C1A 1686   4.234   6.227   7.096 -0.1027  0.0575  0.0565
  110POPC   D2A 1687   4.436   6.372   6.714  0.0876 -0.0478  0.1001
  110POPC   C3A 1688   4.181   6.461   6.392 -0.0093  0.1664 -0.2846
  110POPC   C4A 1689   3.873   6.663   6.177 -0.0383  0.4635  0.1796
  110POPC   C1B 1690   4.650   5.511   6.937  0.0841  0.1379  0.2219
  110POPC   C2B 1691   4.546   5.338   6.614 -0.1012  0.0364  0.1564
  110POPC   C3B 1692   4.411   5.379   6.250 -0.0509  0.0488 -0.0153
  110POPC   C4B 1693   4.370   5.147   5.788 -0.0264 -0.0628 -0.1126
  111POPC   NC3 1694   2.459   0.640   8.098  0.0748  0.3139  0.0793
  111POPC   PO4 1695   2.349   0.865   7.681 -0.4712 -0.2355 -0.2972
  111POPC   GL1 1696   2.273   1.088   7.168 -0.0706 -0.4176  0.1092
  111POPC   GL2 1697   2.082   0.908   6.933  0.1891  0.1054  0.0614
  111POPC   C1A 1698   2.535   1.173   6.781 -0.2151  0.1330 -0.0365
  111POPC   D2A 1699   2.324   0.863   6.443 -0.3089 -0.1156  0.0174
  111POPC   C3A 1700   1.929   0.756   6.479 -0.1616  0.5652 -0.1067
  111POPC   C4A 1701   1.472   0.772   6.563  0.0342 -0.0944  0.1507
  111POPC   C1B 1702   1.922   1.206   6.600  0.0594  0.0685  0.1288
  111POPC   C2B 1703   1.673   1.230   6.155  0.1676  0.2838  0.1213
  111POPC   C3B 1704   1.478   1.326   5.742 -0.1577 -0.2078 -0.0545
  111POPC   C4B 1705   1.121   1.494   5.613 -0.3215  0.3109  0.0140
  112POPC   NC3 1706   0.021   6.808   8.107  0.0733 -0.1261  0.3704
  112POPC   PO4 1707  -0.041   7.160   7.746 -0.1944  0.3270 -0.1478
  112POPC   GL1 1708   0.112   6.839   7.488 -0.1556 -0.0200  0.2867
  112POPC   GL2 1709   0.362   6.771   7.378  0.1956  0.2124 -0.1902
  112POPC   C1A 1710  -0.078   6.583   7.067  0.0732  0.1816 -0.0757
  112POPC   D2A 1711   0.094   6.378   6.682  0.1597 -0.2795  0.0145
  112POPC   C3A 1712  -0.194   6.383   6.426  0.1947  0.2572  0.0720
  112POPC   C4A 1713  -0.351   6.200   5.969 -0.1710 -0.0678 -0.0520
  112POPC   C1B 1714   0.186   6.979   7.025 -0.1118 -0.3924 -0.1088
  112POPC   C2B 1715  -0.160   7.270   6.796  0.2792 -0.1819  0.1178
  112POPC   C3B 1716  -0.494   7.242   6.426  0.0429 -0.0206  0.1130
  112POPC   C4B 1717  -0.680   7.365   6.011 -0.2862 -0.2143  0.1468
  113POPC   NC3 1718   6.082   0.412   6.999 -0.2116  0.0480 -0.0326
  113POPC   PO4 1719   5.791   0.060   7.015  0.0805  0.0633  0.2373
  113POPC   GL1 1720   5.675  -0.051   6.617 -0.0617  0.0029  0.7916
  113POPC   GL2 1721   5.936   0.194   6.476 -0.0384 -0.2223 -0.1685
  113POPC   C1A 1722   5.811  -0.305   6.203 -0.1171  0.2488  0.2278
  113POPC   D2A 1723   5.745  -0.281   5.808  0.1905 -0.0876 -0.0712
  113POPC   C3A 1724   5.919  -0.565   5.539  0.1866 -0.3207 -0.0255
  113POPC   C4A 1725   5.790  -0.844   5.151  0.2074 -0.0097 -0.1622
  113POPC   C1B 1726   5.776   0.372   5.989 -0.0695 -0.0819 -0.2462
  113POPC   C2B 1727   5.607   0.253   5.592  0.2610 -0.0368  0.0168
  113POPC   C3B 1728   5.776   0.328   5.180  0.1589  0.0264 -0.0946
  113POPC   C4B 1729   5.920   0.574   4.838  0.0271  0.4769 -0.5397
  114POPC   NC3 1730   9.879   5.389   8.097 -0.2774 -0.0969 -0.0625
  114POPC   PO4 1731   9.812   4.932   8.238  0.0361  0.2156  0.0173
  114POPC   GL1 1732   9.877   4.851   7.798 -0.2303 -0.0266 -0.0696
  114POPC   GL2 1733  10.072   5.093   7.709 -0.1303  0.0556  0.2262
  114POPC   C1A 1734   9.824   4.650   7.377 -0.1535 -0.0482 -0.0597
  114POPC   D2A 1735   9.938   4.735   6.946  0.2343 -0.1105 -0.1364
  114POPC   C3A 1736   9.871   5.186   6.905 -0.3640  0.3131 -0.0251
  114POPC   C4A 1737   9.897   5.486   6.584 -0.0641  0.3390  0.0132
  114POPC   C1B 1738   9.752   5.234   7.486 -0.0078  0.3252 -0.0231
  114POPC   C2B 1739   9.520   4.943   7.128 -0.0319 -0.0750 -0.1570
  114POPC   C3B 1740   9.569   4.843   6.638  0.0847  0.0873  0.1322
  114POPC   C4B 1741   9.378   4.662   6.281  0.0234 -0.0135  0.1347
  115POPC   NC3 1742   9.166   2.720   7.639 -0.0651  0.3434 -0.1495
  115POPC   PO4 1743   8.979   2.265   7.641 -0.0248  0.2934  0.1488
  115POPC   GL1 1744   9.121   2.379   7.235  0.1907 -0.2985  0.0855
  115POPC   GL2 1745   8.822   2.455   6.958  0.1665 -0.2066 -0.0573
  115POPC   C1A 1746   9.495   2.349   6.965  0.3759 -0.4029  0.1171
  115POPC   D2A 1747   9.536   2.429   6.520 -0.1005 -0.3540 -0.2348
  115POPC   C3A 1748   9.195   2.288   6.276  0.0980 -0.1264  0.0472
  115POPC   C4A 1749   8.988   1.911   6.238  0.1044 -0.1343 -0.0869
  115POPC   C1B 1750   8.539   2.707   6.959  0.1511 -0.2557  0.3281
  115POPC   C2B 1751   8.439   2.779   6.537  0.3298  0.1009  0.1341
  115POPC   C3B 1752   8.705   3.171   6.231 -0.0271  0.1281 -0.3767
  115POPC   C4B 1753   8.557   3.566   6.004 -0.1594 -0.3409 -0.1265
  116POPC   NC3 1754   5.901   7.512   7.878  0.0117 -0.0622  0.0392
  116POPC   PO4 1755   6.126   7.618   7.559  0.1117  0.2384 -0.0910
  116POPC   GL1 1756   6.005   7.626   7.116  0.0223 -0.2904 -0.0813
  116POPC   GL2 1757   6.178   7.817   6.995  0.0011  0.0793  0.0716
  116POPC   C1A 1758   6.117   7.335   6.797  0.1249 -0.4704 -0.0434
  116POPC   D2A 1759   5.709   7.209   6.511 -0.1201 -0.1341  0.1663
  116POPC   C3A 1760   5.595   7.113   6.119 -0.2304 -0.0243  0.4071
  116POPC   C4A 1761   5.243   6.916   5.888 -0.0493 -0.0828  0.1119
  116POPC   C1B 1762   6.041   8.154   6.784  0.6427 -0.1821 -0.3397
  116POPC   C2B 1763   6.171   8.327   6.361  0.0842 -0.3386  0.1023
  116POPC   C3B 1764   6.095   8.315   5.911  0.0244  0.0982  0.1372
  116POPC   C4B 1765   6.001   8.397   5.529 -0.0097 -0.1853  0.3230
  117POPC   NC3 1766   8.888   8.655   7.802  0.0314  0.0271  0.2817
  117POPC   PO4 1767   8.861   8.122   7.977  0.0076  0.4199  0.1026
  117POPC   GL1 1768   8.977   8.101   7.607  0.2571 -0.2361  0.1875
  117POPC   GL2 1769   9.002   7.700   7.523  0.1743  0.1032 -0.1583
  117POPC   C1A 1770   9.156   8.400   7.181  0.0191 -0.0976  0.3488
  117POPC   D2A 1771   9.413   8.632   6.972  0.1260  0.1149  0.0570
  117POPC   C3A 1772   9.430   8.752   6.592  0.1029  0.1692  0.2007
  117POPC   C4A 1773   9.594   8.842   6.191 -0.3149  0.1585  0.3889
  117POPC   C1B 1774   9.077   7.863   7.105 -0.1814  0.2187 -0.1256
  117POPC   C2B 1775   9.247   7.674   6.660  0.0173  0.1996  0.1926
  117POPC   C3B 1776   9.488   7.850   6.320 -0.0470  0.3194 -0.2336
  117POPC   C4B 1777   9.777   7.695   5.900  0.2343  0.0707  0.2161
  118POPC   NC3 1778   7.135   6.051   7.787  0.0425  0.1580  0.0836
  118POPC   PO4 1779   7.488   6.174   7.537  0.1535 -0.0874 -0.0052
  118POPC   GL1 1780   7.233   6.062   7.311  0.2698 -0.2635 -0.3443
  118POPC   GL2 1781   7.021   5.819   7.319 -0.1775 -0.0506 -0.0864
  118POPC   C1A 1782   7.020   6.208   6.922  0.0766  0.0187 -0.2918
  118POPC   D2A 1783   6.945   6.411   6.545  0.0880 -0.2370  0.0491
  118POPC   C3A 1784   7.015   6.237   6.214  0.2767  0.2670  0.0400
  118POPC   C4A 1785   6.526   6.109   6.190  0.4187 -0.0381 -0.0803
  118POPC   C1B 1786   7.357   5.760   6.981 -0.0678  0.2363 -0.0189
  118POPC   C2B 1787   7.393   5.768   6.399  0.1367  0.2810 -0.0034
  118POPC   C3B 1788   7.298   5.735   5.944  0.0077  0.0518 -0.1313
  118POPC   C4B 1789   7.513   5.606   5.494  0.2882 -0.3754 -0.0930
  119POPC   NC3 1790   6.236   6.116   7.863  0.1454  0.2835 -0.3465
  119POPC   PO4 1791   6.449   6.510   7.697 -0.0433 -0.0446 -0.3112
  119POPC   GL1 1792   6.286   6.613   7.361  0.1930  0.2213 -0.1172
  119POPC   GL2 1793   6.565   6.866   7.298  0.1336  0.3715 -0.0869
  119POPC   C1A 1794   5.852   6.540   7.214  0.3334 -0.0040  0.1630
  119POPC   D2A 1795   5.602   6.780   6.929  0.2275  0.1330  0.1634
  119POPC   C3A 1796   5.434   6.732   6.442 -0.0586  0.0091 -0.1541
  119POPC   C4A 1797   5.419   6.416   6.099 -0.1222 -0.0989 -0.2202
  119POPC   C1B 1798   6.609   6.519   6.925 -0.2660 -0.0634 -0.5079
  119POPC   C2B 1799   6.427   6.560   6.521 -0.2830 -0.2592 -0.0925
  119POPC   C3B 1800   6.538   6.625   6.190 -0.0013  0.0284 -0.1879
  119POPC   C4B 1801   6.740   6.630   5.823 -0.0089  0.1448 -0.0281
  120POPC   NC3 1802   2.242   1.572   7.384  0.1187  0.1892 -0.0981
  120POPC   PO4 1803   2.432   1.938   7.441 -0.5229  0.0854 -0.2532
  120POPC   GL1 1804   2.465   2.114   7.050  0.2097 -0.0427  0.0185
  120POPC   GL2 1805   2.711   2.369   6.964 -0.0468 -0.1556 -0.1738
  120POPC   C1A 1806   2.444   1.827   6.631 -0.1516 -0.0697 -0.1162
  120POPC   D2A 1807   2.590   1.562   6.240 -0.0493  0.0367 -0.3190
  120POPC   C3A 1808   2.582   1.680   5.794  0.1909  0.2724  0.0303
  120POPC   C4A 1809   2.366   1.937   5.473  0.0146  0.2655 -0.1809
  120POPC   C1B 1810   2.686   2.348   6.549 -0.1791  0.2331  0.0056
  120POPC   C2B 1811   2.673   2.260   6.066 -0.1943 -0.0464  0.2668
  120POPC   C3B 1812   2.365   2.379   5.752  0.0679  0.0038  0.1472
  120POPC   C4B 1813   2.011   2.677   5.604 -0.2772 -0.2521 -0.0291
  121POPC   NC3 1814   3.455   7.076   7.879 -0.1091  0.1144  0.1197
  121POPC   PO4 1815   3.665   6.760   7.656 -0.0263 -0.0400  0.1936
  121POPC   GL1 1816   3.684   6.928   7.230  0.0386  0.0932 -0.2299
  121POPC   GL2 1817   3.951   7.170   7.174  0.0692  0.3062 -0.3780
  121POPC   C1A 1818   3.691   7.079   6.824  0.1354 -0.0899  0.0961
  121POPC   D2A 1819   3.645   7.023   6.396  0.1494 -0.3388 -0.0644
  121POPC   C3A 1820   3.510   7.184   6.025 -0.0801  0.1570 -0.0102
  121POPC   C4A 1821   3.298   7.036   5.580 -0.3600  0.2173 -0.1271
  121POPC   C1B 1822   4.164   7.237   6.752  0.2598 -0.0795 -0.1018
  121POPC   C2B 1823   4.346   6.927   6.538  0.1640  0.0664  0.1665
  121POPC   C3B 1824   4.498   6.645   6.019  0.0365  0.1704 -0.2220
  121POPC   C4B 1825   4.952   6.517   5.851 -0.1110 -0.5036 -0.0202
  122POPC   NC3 1826   6.383   9.535   8.022  0.1713 -0.0585  0.0910
  122POPC   PO4 1827   6.290   9.274   7.629 -0.0453 -0.1632 -0.0327
  122POPC   GL1 1828   6.280   9.282   7.072 -0.2188 -0.1188  0.3269
  122POPC   GL2 1829   6.504   9.553   6.896  0.0983 -0.1504  0.1095
  122POPC   C1A 1830   6.250   9.163   6.729 -0.2868  0.1531 -0.0957
  122POPC   D2A 1831   6.189   9.132   6.277  0.2791  0.1707  0.0130
  122POPC   C3A 1832   6.460   8.789   6.090 -0.0855  0.0869  0.0385
  122POPC   C4A 1833   6.531   8.711   5.614 -0.0354  0.0752 -0.0826
  122POPC   C1B 1834   6.682   9.427   6.436  0.3357  0.2910  0.2446
  122POPC   C2B 1835   6.683   9.191   6.136  0.1318 -0.0640  0.3311
  122POPC   C3B 1836   6.856   9.120   5.713  0.0718 -0.2030 -0.0988
  122POPC   C4B 1837   7.160   9.055   5.620 -0.0980 -0.0987 -0.0366
  123POPC   NC3 1838   7.467   4.210   8.143  0.1041  0.0885  0.3092
  123POPC   PO4 1839   7.294   3.767   7.984 -0.0574  0.0059 -0.0677
  123POPC   GL1 1840   7.531   3.799   7.594  0.2913  0.1196  0.2945
  123POPC   GL2 1841   7.540   4.159   7.622 -0.1798  0.3387 -0.0242
  123POPC   C1A 1842   7.391   3.690   7.261  0.0554  0.0170 -0.1560
  123POPC   D2A 1843   7.492   3.792   6.788 -0.1505 -0.1876 -0.0259
  123POPC   C3A 1844   7.784   3.928   6.484  0.3039 -0.1567  0.0167
  123POPC   C4A 1845   7.796   3.928   6.046 -0.3302  0.0361  0.4693
  123POPC   C1B 1846   7.179   4.214   7.418 -0.0933  0.3089 -0.2114
  123POPC   C2B 1847   7.231   4.414   7.042  0.2445  0.3654  0.0382
  123POPC   C3B 1848   7.443   4.325   6.740 -0.0501 -0.1842 -0.0633
  123POPC   C4B 1849   7.518   4.308   6.271 -0.0363 -0.0038 -0.1979
  124POPC   NC3 1850   0.732   0.247   7.597  0.1554 -0.0182 -0.1565
  124POPC   PO4 1851   1.091   0.528   7.568  0.1804  0.2798  0.1308
  124POPC   GL1 1852   0.866   0.895   7.413 -0.0774 -0.3537  0.2898
  124POPC   GL2 1853   0.985   1.156   7.205  0.1819 -0.2097 -0.1038
  124POPC   C1A 1854   0.560   0.937   7.055 -0.1746 -0.1422  0.2999
  124POPC   D2A 1855   0.478   0.916   6.613 -0.0232 -0.1532 -0.0876
  124POPC   C3A 1856   0.091   0.760   6.480 -0.2490 -0.1242  0.0125
  124POPC   C4A 1857  -0.346   0.655   6.464  0.0697 -0.0846  0.0566
  124POPC   C1B 1858   0.899   1.150   6.739 -0.1073  0.2759  0.1613
  124POPC   C2B 1859   0.719   1.353   6.463 -0.0538 -0.0038  0.0707
  124POPC   C3B 1860   0.737   1.535   6.077 -0.3094 -0.0643  0.0753
  124POPC   C4B 1861   0.651   1.789   5.732  0.1062  0.0670  0.1008
  125POPC   NC3 1862   1.982   7.115   7.785 -0.1507 -0.0372 -0.0424
  125POPC   PO4 1863   1.671   7.360   7.769 -0.0097 -0.0177 -0.0210
  125POPC   GL1 1864   1.571   7.275   7.343  0.0898  0.1783  0.0829
  125POPC   GL2 1865   1.943   7.117   7.289  0.1416  0.1232 -0.0180
  125POPC   C1A 1866   1.452   7.033   7.041  0.3010  0.2285  0.1043
  125POPC   D2A 1867   1.140   6.747   6.636 -0.1663  0.4593  0.1075
  125POPC   C3A 1868   0.991   6.911   6.273 -0.1977  0.0067  0.0429
  125POPC   C4A 1869   1.256   7.239   6.010 -0.0429  0.0704  0.0869
  125POPC   C1B 1870   1.912   7.208   6.877 -0.2976 -0.2289  0.0530
  125POPC   C2B 1871   1.729   7.453   6.530  0.1572 -0.1600 -0.1898
  125POPC   C3B 1872   1.885   7.694   6.131 -0.1152 -0.0943  0.0580
  125POPC   C4B 1873   2.071   8.055   5.887 -0.4560  0.1910 -0.0248
  126POPC   NC3 1874   0.223   5.499   8.467 -0.0692 -0.0236 -0.2105
  126POPC   PO4 1875   0.241   5.722   8.091 -0.1823  0.4133 -0.0574
  126POPC   GL1 1876   0.466   5.849   7.734 -0.3686 -0.5195 -0.3349
  126POPC   GL2 1877   0.400   6.153   7.643  0.1566  0.1193  0.0021
  126POPC   C1A 1878   0.409   5.798   7.294 -0.1583 -0.3536 -0.0324
  126POPC   D2A 1879   0.077   5.775   7.008 -0.0734  0.0434  0.1753
  126POPC   C3A 1880   0.157   5.839   6.701  0.1165 -0.1632  0.1238
  126POPC   C4A 1881   0.022   5.920   6.317 -0.1212  0.2050 -0.1739
  126POPC   C1B 1882   0.311   6.280   7.279  0.0573 -0.1193  0.1017
  126POPC   C2B 1883   0.430   6.157   6.971 -0.0239  0.1090  0.4254
  126POPC   C3B 1884   0.544   6.191   6.557 -0.0498  0.1322  0.2557
  126POPC   C4B 1885   0.828   6.421   6.317  0.0281 -0.5791 -0.2582
  127POPC   NC3 1886   2.210   8.217   7.427 -0.0817  0.0390  0.0032
  127POPC   PO4 1887   2.681   8.133   7.374  0.1013 -0.1302 -0.0276
  127POPC   GL1 1888   2.583   8.235   6.935 -0.2003 -0.1445  0.0972
  127POPC   GL2 1889   2.640   7.874   6.708 -0.0704 -0.0047  0.0414
  127POPC   C1A 1890   2.284   8.280   6.654  0.0408  0.2072  0.0794
  127POPC   D2A 1891   2.167   8.378   6.281  0.2479 -0.1399  0.0381
  127POPC   C3A 1892   2.407   8.569   5.930  0.1187  0.0023  0.0321
  127POPC   C4A 1893   2.833   8.567   5.748 -0.2051 -0.3347 -0.4359
  127POPC   C1B 1894   2.914   7.768   6.379  0.1218  0.1885  0.3594
  127POPC   C2B 1895   2.965   7.455   6.106  0.0304  0.1675 -0.0730
  127POPC   C3B 1896   2.660   6.991   5.966  0.0679  0.1296  0.0166
  127POPC   C4B 1897   2.237   7.075   5.996  0.0111  0.1677  0.0433
  128POPC   NC3 1898   3.647   9.142   7.000  0.1731  0.1685 -0.0799
  128POPC   PO4 1899   3.940   9.449   7.056 -0.0668  0.0849 -0.0832
  128POPC   GL1 1900   3.793   9.406   6.652  0.2328 -0.0297  0.3044
  128POPC   GL2 1901   3.836   9.647   6.425 -0.0514  0.1931 -0.1231
  128POPC   C1A 1902   3.978   9.129   6.266  0.0259  0.0840  0.0115
  128POPC   D2A 1903   3.941   8.745   6.082  0.0557 -0.0128  0.0457
  128POPC   C3A 1904   3.948   8.607   5.602 -0.2290  0.0012 -0.1719
  128POPC   C4A 1905   3.989   8.597   5.144 -0.2238  0.0563  0.2045
  128POPC   C1B 1906   3.778   9.479   6.051  0.2509 -0.1435 -0.3813
  128POPC   C2B 1907   3.373   9.438   5.874 -0.0340  0.0252  0.1865
  128POPC   C3B 1908   3.082   9.354   5.509 -0.1702  0.0397  0.1522
  128POPC   C4B 1909   3.254   9.360   5.035  0.1160  0.2153  0.0858
  129POPC   NC3 1910   6.887   7.267   7.504  0.0276  0.1015 -0.0853
  129POPC   PO4 1911   7.261   7.572   7.457  0.1635 -0.2009 -0.3402
  129POPC   GL1 1912   7.221   7.766   7.166  0.1748  0.0144 -0.0876
  129POPC   GL2 1913   7.401   8.077   7.137 -0.0036  0.4767  0.0585
  129POPC   C1A 1914   7.193   7.753   6.658 -0.0459  0.0964  0.1639
  129POPC   D2A 1915   6.927   7.730   6.395 -0.0001 -0.0918  0.1526
  129POPC   C3A 1916   6.911   7.551   6.086 -0.0911  0.1758 -0.1790
  129POPC   C4A 1917   7.084   7.181   6.003 -0.0328  0.1515 -0.3994
  129POPC   C1B 1918   7.683   8.062   6.772 -0.1337 -0.3170 -0.0295
  129POPC   C2B 1919   7.507   7.983   6.402 -0.1502  0.2950  0.0833
  129POPC   C3B 1920   7.428   7.683   6.184 -0.0153  0.2206 -0.2891
  129POPC   C4B 1921   7.364   7.627   5.777  0.2882 -0.0590 -0.0671
  130POPC   NC3 1922   4.953   5.643   7.625 -0.0973 -0.1156 -0.1287
  130POPC   PO4 1923   4.780   6.022   7.613 -0.0981 -0.0897 -0.2295
  130POPC   GL1 1924   4.731   6.323   7.214  0.1485 -0.0263 -0.2889
  130POPC   GL2 1925   4.609   6.616   7.238  0.0027 -0.0526 -0.0509
  130POPC   C1A 1926   4.782   6.019   6.863  0.0042 -0.0674 -0.0526
  130POPC   D2A 1927   4.344   5.836   6.684  0.0319  0.0333 -0.0587
  130POPC   C3A 1928   4.227   5.923   6.258  0.1642 -0.2564 -0.3470
  130POPC   C4A 1929   4.138   5.629   5.852 -0.2551  0.0807 -0.3764
  130POPC   C1B 1930   4.740   6.756   6.854 -0.0605  0.2233  0.1572
  130POPC   C2B 1931   4.865   6.718   6.446  0.0036 -0.1840  0.0143
  130POPC   C3B 1932   4.704   6.229   6.209 -0.2246  0.2623 -0.1640
  130POPC   C4B 1933   4.672   5.785   6.335 -0.1487 -0.4312  0.2334
  131POPC   NC3 1934   9.501   6.052   8.381 -0.0674  0.1337 -0.2456
  131POPC   PO4 1935   9.489   5.652   8.233 -0.2116  0.1698  0.2773
  131POPC   GL1 1936   9.213   5.454   7.929  0.0490  0.3950 -0.0468
  131POPC   GL2 1937   9.123   5.092   7.953  0.1746  0.1308 -0.0769
  131POPC   C1A 1938   9.186   5.368   7.491 -0.3175 -0.4630 -0.2656
  131POPC   D2A 1939   9.141   5.527   7.152 -0.1745  0.1742 -0.1792
  131POPC   C3A 1940   9.410   5.343   6.754 -0.0757  0.4290 -0.0755
  131POPC   C4A 1941   9.446   5.451   6.339 -0.0509 -0.0490  0.2520
  131POPC   C1B 1942   9.347   4.886   7.611 -0.1259 -0.1142 -0.1012
  131POPC   C2B 1943   9.206   4.614   7.281 -0.1101  0.1095 -0.1307
  131POPC   C3B 1944   9.092   4.180   7.239 -0.1149  0.0382  0.2459
  131POPC   C4B 1945   8.908   4.040   6.867 -0.3361  0.1058 -0.0299
  132POPC   NC3 1946   3.977   2.980   7.768  0.1145  0.1369 -0.0105
  132POPC   PO4 1947   3.987   2.759   7.385 -0.0052 -0.2072  0.1085
  132POPC   GL1 1948   4.284   2.525   7.190  0.1099 -0.1555 -0.0765
  132POPC   GL2 1949   4.502   2.747   7.237  0.0230  0.0862  0.0324
  132POPC   C1A 1950   4.646   2.394   6.772 -0.1236 -0.2144  0.2601
  132POPC   D2A 1951   4.814   2.297   6.305 -0.2647  0.0778  0.3328
  132POPC   C3A 1952   4.953   2.634   6.050  0.2393 -0.0134 -0.0500
  132POPC   C4A 1953   4.887   2.936   5.713  0.2039  0.1446  0.2083
  132POPC   C1B 1954   4.266   2.785   6.793 -0.4987  0.3504  0.0621
  132POPC   C2B 1955   3.788   2.620   6.682  0.2652 -0.2656 -0.1855
  132POPC   C3B 1956   3.720   2.471   6.245 -0.0041 -0.1341  0.3166
  132POPC   C4B 1957   3.533   2.563   5.941  0.0627 -0.1434  0.1649
  133POPC   NC3 1958   6.222   1.419   7.797  0.2197  0.1305 -0.1938
  133POPC   PO4 1959   6.524   1.835   7.864 -0.2123 -0.0547  0.0102
  133POPC   GL1 1960   6.657   2.041   7.516  0.0396  0.1152 -0.0586
  133POPC   GL2 1961   6.754   2.353   7.442  0.0077 -0.0284  0.0460
  133POPC   C1A 1962   6.677   1.790   7.136  0.2282  0.3113 -0.1061
  133POPC   D2A 1963   6.435   1.528   6.835  0.2462 -0.3319 -0.0323
  133POPC   C3A 1964   6.535   1.594   6.219 -0.0928 -0.1172 -0.0430
  133POPC   C4A 1965   6.484   1.486   5.846 -0.2010 -0.1258  0.0076
  133POPC   C1B 1966   6.796   2.416   6.929  0.0366 -0.0897  0.1070
  133POPC   C2B 1967   6.353   2.488   6.563 -0.1327  0.1995  0.4337
  133POPC   C3B 1968   6.319   2.555   6.063 -0.1050 -0.1338 -0.0625
  133POPC   C4B 1969   6.649   2.465   5.783  0.0747  0.1582  0.2172
  134POPC   NC3 1970   3.879   0.855   6.714 -0.0473  0.0093  0.0800
  134POPC   PO4 1971   3.564   0.512   6.868 -0.2121  0.0115  0.2308
  134POPC   GL1 1972   3.455   0.604   6.531 -0.1197 -0.2579 -0.3241
  134POPC   GL2 1973   3.671   0.588   6.367  0.4281 -0.0587 -0.1033
  134POPC   C1A 1974   3.255   0.888   6.229  0.1950 -0.0870  0.0237
  134POPC   D2A 1975   3.058   1.002   5.859  0.0385  0.2084 -0.0704
  134POPC   C3A 1976   3.224   1.161   5.566  0.1329 -0.0992  0.1200
  134POPC   C4A 1977   3.556   1.189   5.302 -0.0998  0.0490  0.0064
  134POPC   C1B 1978   3.739   0.343   6.089  0.2888  0.1276 -0.3476
  134POPC   C2B 1979   3.993   0.168   5.793  0.0198 -0.0540 -0.1998
  134POPC   C3B 1980   4.400   0.183   5.553  0.1186 -0.0536  0.2276
  134POPC   C4B 1981   4.661  -0.173   5.387  0.0023 -0.0437 -0.0937
  135POPC   NC3 1982   0.099   9.473   7.877  0.1398 -0.0942  0.1142
  135POPC   PO4 1983   0.349   9.897   7.843 -0.1642 -0.1010  0.1367
  135POPC   GL1 1984   0.435  10.029   7.328  0.1536  0.1042  0.2524
  135POPC   GL2 1985   0.546   9.720   7.258 -0.0192 -0.1409 -0.0876
  135POPC   C1A 1986   0.474  10.031   6.828  0.3727  0.0527 -0.3244
  135POPC   D2A 1987   0.208   9.950   6.454 -0.0979 -0.1330 -0.0193
  135POPC   C3A 1988   0.389  10.024   6.096 -0.1230 -0.1655 -0.2824
  135POPC   C4A 1989   0.451   9.726   5.721 -0.2719 -0.0372  0.0206
  135POPC   C1B 1990   0.565   9.554   6.880 -0.0129 -0.1716 -0.4444
  135POPC   C2B 1991   0.656   9.596   6.503  0.1700 -0.0655 -0.2183
  135POPC   C3B 1992   0.720   9.678   6.088 -0.1066  0.0391 -0.3514
  135POPC   C4B 1993   0.901   9.438   5.846 -0.3592 -0.0177  0.3235
  136POPC   NC3 1994   5.390   8.866   7.224 -0.1866  0.4240  0.0992
  136POPC   PO4 1995   5.627   8.497   7.474  0.1671 -0.0632 -0.1257
  136POPC   GL1 1996   5.705   8.467   7.021 -0.0334 -0.2764 -0.1440
  136POPC   GL2 1997   5.406   8.381   6.953 -0.3211 -0.0852  0.2090
  136POPC   C1A 1998   6.098   8.647   6.822  0.2797 -0.1541  0.0991
  136POPC   D2A 1999   6.491   8.517   6.739 -0.0129  0.1222  0.0474
  136POPC   C3A 2000   6.644   8.363   6.348  0.4787 -0.1750 -0.1083
  136POPC   C4A 2001   6.636   8.019   5.995 -0.0721 -0.1149  0.1277
  136POPC   C1B 2002   5.477   8.447   6.603  0.1484 -0.1205  0.1649
  136POPC   C2B 2003   5.712   8.113   6.398  0.1605 -0.0287 -0.0610
  136POPC   C3B 2004   5.787   7.798   6.056  0.1036 -0.0205  0.2882
  136POPC   C4B 2005   5.817   7.530   5.751 -0.3874 -0.1105  0.0037
  137POPC   NC3 2006   3.268   0.506   7.307  0.0103 -0.2195  0.1828
  137POPC   PO4 2007   3.304   0.099   7.210 -0.3256  0.2871  0.1860
  137POPC   GL1 2008   3.180   0.202   6.816 -0.2559 -0.0924  0.1430
  137POPC   GL2 2009   2.842   0.231   6.731  0.4466  0.1642 -0.2075
  137POPC   C1A 2010   3.240   0.156   6.303 -0.0714  0.0734  0.1139
  137POPC   D2A 2011   3.178   0.188   5.846 -0.0445  0.2669 -0.0329
  137POPC   C3A 2012   3.406   0.624   5.786 -0.2902  0.0072 -0.1018
  137POPC   C4A 2013   3.738   1.002   5.729 -0.4274  0.1166 -0.1002
  137POPC   C1B 2014   2.778   0.549   6.407 -0.3144  0.0817 -0.0390
  137POPC   C2B 2015   2.851   0.571   5.996 -0.1922  0.0763  0.0801
  137POPC   C3B 2016   2.907   0.602   5.575  0.0965 -0.0873  0.1900
  137POPC   C4B 2017   2.798   0.510   5.210  0.3289  0.1392 -0.0783
  138POPC   NC3 2018   2.867   0.650   7.007 -0.2802 -0.0867  0.0161
  138POPC   PO4 2019   2.491   0.640   7.207 -0.2685  0.0911 -0.0790
  138POPC   GL1 2020   2.341   0.483   6.799  0.3135 -0.1625  0.2667
  138POPC   GL2 2021   2.019   0.370   6.766 -0.1736  0.0632 -0.0573
  138POPC   C1A 2022   2.243   0.379   6.338 -0.1834 -0.5799 -0.0694
  138POPC   D2A 2023   2.260   0.242   5.948  0.1847 -0.0490  0.1719
  138POPC   C3A 2024   2.408  -0.197   5.971 -0.2707 -0.0851  0.1083
  138POPC   C4A 2025   2.496  -0.561   5.832  0.5060  0.1051  0.3198
  138POPC   C1B 2026   1.883   0.119   6.430 -0.0445  0.0083 -0.1432
  138POPC   C2B 2027   1.809   0.392   6.121 -0.0113 -0.2664  0.0432
  138POPC   C3B 2028   2.024   0.672   5.932  0.2811  0.0048 -0.4434
  138POPC   C4B 2029   2.060   1.052   5.689  0.0986 -0.0664 -0.1663
  139POPC   NC3 2030   4.424   4.694   7.516 -0.1984 -0.0209 -0.2380
  139POPC   PO4 2031   4.095   4.986   7.422  0.5385 -0.0829  0.1498
  139POPC   GL1 2032   4.050   4.704   7.087  0.1095  0.0396 -0.2479
  139POPC   GL2 2033   4.189   4.472   7.030  0.1529  0.1711  0.1639
  139POPC   C1A 2034   4.055   4.852   6.634  0.0629 -0.3202 -0.0214
  139POPC   D2A 2035   4.015   4.988   6.200  0.0160 -0.1364  0.2048
  139POPC   C3A 2036   3.904   5.200   5.930  0.2575  0.3281 -0.0874
  139POPC   C4A 2037   3.701   5.462   5.606  0.1719 -0.0006  0.1750
  139POPC   C1B 2038   4.400   4.248   6.746 -0.0383  0.1179 -0.0999
  139POPC   C2B 2039   4.144   3.978   6.544  0.0777  0.0654  0.2215
  139POPC   C3B 2040   3.868   4.119   6.215  0.1938  0.0346  0.2632
  139POPC   C4B 2041   3.600   3.932   5.836  0.1866 -0.2082  0.0728
  140POPC   NC3 2042   7.103   2.757   7.600 -0.2911  0.3601 -0.4035
  140POPC   PO4 2043   7.579   2.895   7.646  0.2136 -0.2486 -0.3429
  140POPC   GL1 2044   7.545   3.115   7.291 -0.0129  0.0770 -0.0818
  140POPC   GL2 2045   7.188   3.168   7.237 -0.1070 -0.0754 -0.0048
  140POPC   C1A 2046   7.477   3.285   6.915 -0.1616  0.1438  0.0869
  140POPC   D2A 2047   7.071   3.444   6.846 -0.0131  0.2696 -0.3086
  140POPC   C3A 2048   6.777   3.689   6.596 -0.2432 -0.2651 -0.0721
  140POPC   C4A 2049   6.632   3.588   6.169  0.0568 -0.1648  0.0923
  140POPC   C1B 2050   6.803   3.022   7.048 -0.1121  0.2882  0.4355
  140POPC   C2B 2051   6.489   3.336   6.757  0.0634 -0.1009  0.2876
  140POPC   C3B 2052   6.155   3.281   6.461  0.0934 -0.0646 -0.1904
  140POPC   C4B 2053   6.003   2.978   5.910 -0.1791  0.1275 -0.3250
  141POPC   NC3 2054   8.307   7.589   8.312 -0.0726  0.0896 -0.0413
  141POPC   PO4 2055   8.164   7.658   7.955 -0.1786  0.2551  0.0305
  141POPC   GL1 2056   8.408   7.426   7.649  0.0305  0.1542  0.0730
  141POPC   GL2 2057   8.129   7.287   7.553 -0.0184  0.2648 -0.2999
  141POPC   C1A 2058   8.512   7.053   7.293 -0.3703  0.1830 -0.0704
  141POPC   D2A 2059   8.606   7.002   6.787  0.3284  0.2283  0.2054
  141POPC   C3A 2060   8.517   7.164   6.382  0.2357 -0.1345 -0.0667
  141POPC   C4A 2061   8.296   7.363   6.072  0.0909  0.3383  0.1907
  141POPC   C1B 2062   8.026   7.081   7.241 -0.0499  0.1751  0.1224
  141POPC   C2B 2063   8.062   6.860   6.894 -0.0530  0.3090 -0.2091
  141POPC   C3B 2064   8.119   6.871   6.554 -0.1085 -0.0852 -0.1170
  141POPC   C4B 2065   7.903   7.258   6.364  0.1658  0.0390  0.0857
  142POPC   NC3 2066   8.916   3.503   8.013  0.2924  0.0154 -0.0020
  142POPC   PO4 2067   8.807   3.920   8.171 -0.1795  0.0705 -0.0802
  142POPC   GL1 2068   9.102   3.901   7.843 -0.1402 -0.4912 -0.0106
  142POPC   GL2 2069   9.210   4.256   7.812 -0.0124  0.0091 -0.1383
  142POPC   C1A 2070   9.408   3.796   7.476  0.4566 -0.1205 -0.0827
  142POPC   D2A 2071   9.471   3.747   7.119  0.1832 -0.0653  0.1365
  142POPC   C3A 2072   9.968   3.717   7.023 -0.0871  0.0564 -0.1223
  142POPC   C4A 2073  10.413   3.754   6.913  0.1378  0.2682 -0.1569
  142POPC   C1B 2074   9.514   4.274   7.457 -0.1964  0.1812  0.1918
  142POPC   C2B 2075   9.672   4.234   6.994  0.1505 -0.1612  0.1489
  142POPC   C3B 2076   9.695   4.063   6.645  0.0838 -0.1547 -0.1581
  142POPC   C4B 2077   9.320   3.843   6.622 -0.0164  0.2142  0.0332
  143POPC   NC3 2078   3.646   1.166   7.154  0.1612 -0.4866 -0.1904
  143POPC   PO4 2079   3.282   0.969   7.079 -0.0283  0.0417 -0.1708
  143POPC   GL1 2080   3.070   1.179   6.871  0.0675  0.0084  0.1498
  143POPC   GL2 2081   3.006   0.970   6.666 -0.0036  0.2290 -0.2174
  143POPC   C1A 2082   3.020   1.439   6.514  0.0322  0.2319  0.0735
  143POPC   D2A 2083   3.092   1.502   6.102  0.0724 -0.1986 -0.0862
  143POPC   C3A 2084   3.393   1.338   6.042 -0.1544 -0.1179 -0.1021
  143POPC   C4A 2085   3.710   1.121   6.156  0.1392  0.0212 -0.2374
  143POPC   C1B 2086   2.789   1.089   6.250  0.0680 -0.1549 -0.2298
  143POPC   C2B 2087   2.463   0.973   6.001 -0.1973  0.1915 -0.2672
  143POPC   C3B 2088   2.445   0.718   5.698 -0.0080 -0.3204 -0.0705
  143POPC   C4B 2089   2.166   0.431   5.435  0.4462  0.4911 -0.1988
  144POPC   NC3 2090   1.455   2.635   3.482  0.3429 -0.0939  0.3917
  144POPC   PO4 2091   1.126   2.595   3.741 -0.0910  0.1430  0.1655
  144POPC   GL1 2092   1.041   2.762   4.155 -0.0178 -0.0353  0.0630
  144POPC   GL2 2093   0.636   2.854   4.153 -0.0788 -0.2335 -0.1143
  144POPC   C1A 2094   0.979   2.704   4.550  0.2283 -0.2779 -0.1533
  144POPC   D2A 2095   1.074   2.607   4.982 -0.1869 -0.1128 -0.2661
  144POPC   C3A 2096   1.139   2.173   5.079 -0.2828 -0.0191 -0.2207
  144POPC   C4A 2097   1.136   2.010   5.418  0.0784  0.0338 -0.0515
  144POPC   C1B 2098   0.682   3.118   4.581  0.0287  0.3339 -0.0596
  144POPC   C2B 2099   0.634   2.849   4.929  0.0749 -0.3065 -0.1078
  144POPC   C3B 2100   0.641   2.734   5.324  0.3158  0.0199 -0.0605
  144POPC   C4B 2101   0.382   2.796   5.610 -0.1056  0.0266 -0.0685
  145POPC   NC3 2102   2.162   0.310   3.289  0.1918  0.3862 -0.0186
  145POPC   PO4 2103   2.277  -0.063   3.582  0.0513 -0.0775 -0.0866
  145POPC   GL1 2104   2.042  -0.076   4.026  0.0542  0.0224 -0.0939
  145POPC   GL2 2105   1.802  -0.288   3.968 -0.1750 -0.1080  0.0386
  145POPC   C1A 2106   2.003   0.255   4.211  0.2124  0.0962  0.1409
  145POPC   D2A 2107   2.150   0.516   4.566 -0.0312 -0.1909 -0.0613
  145POPC   C3A 2108   1.946   0.655   4.907 -0.2639  0.0107 -0.3990
  145POPC   C4A 2109   1.703   0.833   5.329  0.1541 -0.1138 -0.1618
  145POPC   C1B 2110   1.619  -0.220   4.316 -0.4302  0.2862  0.0438
  145POPC   C2B 2111   1.657  -0.213   4.791 -0.0481  0.0489 -0.1401
  145POPC   C3B 2112   1.433  -0.263   5.107  0.0145 -0.0970  0.1061
  145POPC   C4B 2113   1.073  -0.009   5.240  0.0291 -0.2577 -0.0829
  146POPC   NC3 2114   0.328   6.704   4.087 -0.1366 -0.0230 -0.1697
  146POPC   PO4 2115   0.471   6.557   3.679  0.0454  0.0349 -0.1169
  146POPC   GL1 2116   0.755   6.522   4.246  0.0923 -0.0291  0.2180
  146POPC   GL2 2117   1.110   6.605   4.234  0.0223 -0.1645  0.1431
  146POPC   C1A 2118   0.734   6.647   4.655 -0.1543 -0.3556 -0.2051
  146POPC   D2A 2119   0.977   6.797   4.972 -0.1670  0.1915 -0.1255
  146POPC   C3A 2120   1.121   6.647   5.309 -0.2039 -0.0077  0.1993
  146POPC   C4A 2121   1.103   6.236   5.428 -0.1831 -0.1537 -0.1129
  146POPC   C1B 2122   1.252   6.541   4.642  0.4179  0.0830  0.2211
  146POPC   C2B 2123   1.558   6.510   4.889  0.2930  0.4475 -0.1445
  146POPC   C3B 2124   1.595   6.504   5.386 -0.0259 -0.3475  0.2341
  146POPC   C4B 2125   1.556   6.315   5.776 -0.1291 -0.0487 -0.3319
  147POPC   NC3 2126   2.051   3.915   3.276 -0.4829 -0.3672 -0.0521
  147POPC   PO4 2127   2.303   4.013   3.684  0.0080  0.2001  0.0374
  147POPC   GL1 2128   2.348   3.895   4.018  0.2473 -0.3230 -0.3784
  147POPC   GL2 2129   2.503   4.163   4.238  0.1132  0.0562  0.1863
  147POPC   C1A 2130   2.429   3.779   4.469  0.2631 -0.0654  0.0352
  147POPC   D2A 2131   2.380   3.781   4.852  0.0263  0.1247 -0.0267
  147POPC   C3A 2132   1.968   3.522   4.890 -0.0180 -0.2403  0.3384
  147POPC   C4A 2133   1.901   3.104   4.849  0.2588  0.0051 -0.2693
  147POPC   C1B 2134   2.657   4.198   4.741 -0.0533 -0.0099 -0.3284
  147POPC   C2B 2135   2.604   4.172   5.242  0.4040  0.0880 -0.4754
  147POPC   C3B 2136   2.469   4.026   5.656  0.0252 -0.1276 -0.0302
  147POPC   C4B 2137   2.037   4.038   5.804  0.1086  0.1383 -0.0008
  148POPC   NC3 2138   3.331   9.508   2.963  0.3145 -0.1374  0.0013
  148POPC   PO4 2139   3.678   9.372   3.173  0.0555 -0.0542  0.1446
  148POPC   GL1 2140   3.710   9.395   3.507  0.0019  0.0141 -0.0569
  148POPC   GL2 2141   3.652   9.124   3.700 -0.2236  0.0451  0.2138
  148POPC   C1A 2142   3.875   9.413   4.008 -0.3351 -0.2584 -0.1698
  148POPC   D2A 2143   4.078   9.498   4.348  0.1742 -0.2587 -0.1103
  148POPC   C3A 2144   4.099   9.379   4.805 -0.0144 -0.2610  0.0223
  148POPC   C4A 2145   3.828   9.455   5.202 -0.2031  0.0584 -0.1773
  148POPC   C1B 2146   3.390   9.243   4.056 -0.1538 -0.0789  0.0563
  148POPC   C2B 2147   3.127   9.318   4.479 -0.1221  0.1617  0.3733
  148POPC   C3B 2148   2.790   9.583   4.588 -0.0360 -0.4455  0.2479
  148POPC   C4B 2149   2.723  10.025   4.729 -0.1749 -0.2510 -0.2566
  149POPC   NC3 2150   2.636   7.294   3.287  0.2972  0.1089  0.2580
  149POPC   PO4 2151   2.910   6.945   3.497 -0.3713 -0.0113 -0.0042
  149POPC   GL1 2152   3.178   7.011   3.772  0.3187 -0.4532  0.1645
  149POPC   GL2 2153   3.355   6.889   3.905 -0.1737  0.3150 -0.0278
  149POPC   C1A 2154   3.199   7.344   4.088  0.2291 -0.1929 -0.1341
  149POPC   D2A 2155   3.219   7.623   4.463  0.2500  0.0223  0.1917
  149POPC   C3A 2156   3.419   7.522   4.777 -0.1958 -0.1616  0.1341
  149POPC   C4A 2157   3.309   7.354   5.194  0.1691 -0.0253  0.1262
  149POPC   C1B 2158   3.288   6.948   4.393 -0.2146  0.1952 -0.0459
  149POPC   C2B 2159   3.226   6.695   4.770 -0.1724 -0.1618 -0.0599
  149POPC   C3B 2160   3.293   6.516   5.195  0.0531  0.1906 -0.5635
  149POPC   C4B 2161   3.211   6.251   5.572 -0.1727  0.1753  0.0573
  150POPC   NC3 2162   0.421   7.713   3.816 -0.4676 -0.3020 -0.2769
  150POPC   PO4 2163   0.227   7.962   3.511 -0.1997 -0.1647  0.1277
  150POPC   GL1 2164   0.191   8.178   3.951 -0.0262  0.1329  0.0172
  150POPC   GL2 2165   0.515   8.180   3.933  0.0365 -0.2653 -0.0743
  150POPC   C1A 2166   0.031   8.367   4.263 -0.0944  0.2497 -0.2702
  150POPC   D2A 2167   0.169   8.560   4.615  0.0219 -0.0453 -0.0107
  150POPC   C3A 2168  -0.166   8.611   4.897 -0.1500  0.0230  0.2211
  150POPC   C4A 2169  -0.238   8.571   5.236  0.1093  0.1780 -0.1748
  150POPC   C1B 2170   0.516   8.318   4.342 -0.0430 -0.0574  0.0056
  150POPC   C2B 2171   0.590   8.445   4.850 -0.0001  0.2802  0.3817
  150POPC   C3B 2172   0.746   8.130   5.177 -0.0807 -0.0395  0.0463
  150POPC   C4B 2173   0.646   7.998   5.602  0.0665 -0.3181  0.0135
  151POPC   NC3 2174   8.426   5.609   3.658  0.1671 -0.1790  0.4474
  151POPC   PO4 2175   8.301   5.269   3.810  0.0438 -0.1482 -0.4947
  151POPC   GL1 2176   8.428   5.168   4.348 -0.2179 -0.2619 -0.1386
  151POPC   GL2 2177   8.822   5.121   4.407 -0.1157  0.1819 -0.1426
  151POPC   C1A 2178   8.576   5.368   4.770  0.0640 -0.0057 -0.0144
  151POPC   D2A 2179   8.383   5.443   5.125 -0.0923 -0.1459 -0.0182
  151POPC   C3A 2180   8.381   5.124   5.410  0.0843  0.0300  0.0039
  151POPC   C4A 2181   8.376   4.937   5.776  0.1399 -0.0971 -0.3305
  151POPC   C1B 2182   9.061   5.398   4.606  0.2238  0.2726 -0.3781
  151POPC   C2B 2183   9.055   5.748   4.866 -0.1090 -0.0676  0.2023
  151POPC   C3B 2184   8.760   5.957   4.995  0.5255  0.1117  0.0458
  151POPC   C4B 2185   8.497   5.926   5.302  0.2542 -0.2523 -0.1204
  152POPC   NC3 2186   9.583   6.688   3.803  0.0196  0.0902 -0.0069
  152POPC   PO4 2187   9.203   6.720   3.955 -0.1751 -0.2962  0.0931
  152POPC   GL1 2188   9.130   6.816   4.458 -0.1847 -0.0738  0.1709
  152POPC   GL2 2189   9.290   6.959   4.686 -0.0003  0.0119  0.0365
  152POPC   C1A 2190   8.816   6.984   4.780  0.3993 -0.0902 -0.1243
  152POPC   D2A 2191   8.816   7.017   5.223  0.2011  0.0114 -0.0291
  152POPC   C3A 2192   8.911   6.681   5.395 -0.2153 -0.2965 -0.0071
  152POPC   C4A 2193   8.911   6.282   5.371  0.3784 -0.0874 -0.0567
  152POPC   C1B 2194   9.229   6.653   4.972 -0.2093 -0.1026  0.1466
  152POPC   C2B 2195   9.366   6.504   5.317 -0.1359 -0.0451 -0.0901
  152POPC   C3B 2196   9.295   6.257   5.671 -0.0434 -0.0438  0.2823
  152POPC   C4B 2197   9.183   5.973   6.022  0.1549 -0.3124 -0.0336
  153POPC   NC3 2198   9.362   0.098   3.530  0.2056  0.0161  0.0957
  153POPC   PO4 2199   9.464  -0.266   3.648  0.1187  0.1013 -0.1598
  153POPC   GL1 2200   9.782  -0.408   3.886 -0.1674 -0.2427 -0.0407
  153POPC   GL2 2201   9.948  -0.290   3.890 -0.0578  0.0104 -0.1731
  153POPC   C1A 2202  10.070  -0.708   4.090 -0.1147 -0.1871 -0.0766
  153POPC   D2A 2203  10.185  -0.981   4.248  0.1720 -0.2035 -0.3016
  153POPC   C3A 2204  10.328  -1.037   4.660  0.4435  0.0144  0.1413
  153POPC   C4A 2205  10.395  -1.260   5.061 -0.2167  0.0269 -0.1382
  153POPC   C1B 2206   9.962  -0.322   4.350 -0.1982  0.0361  0.0242
  153POPC   C2B 2207  10.069  -0.606   4.579 -0.2665 -0.0002 -0.1880
  153POPC   C3B 2208  10.228  -0.685   4.985  0.0824  0.1166 -0.2055
  153POPC   C4B 2209  10.339  -0.587   5.288 -0.1815 -0.0170 -0.0765
  154POPC   NC3 2210   3.838   9.825   3.384  0.1105 -0.2044  0.1032
  154POPC   PO4 2211   3.646  10.109   3.430 -0.0049 -0.0086 -0.1318
  154POPC   GL1 2212   3.756  10.311   3.797 -0.0093  0.1637  0.1431
  154POPC   GL2 2213   3.914  10.549   3.690  0.0337  0.1772  0.1448
  154POPC   C1A 2214   3.710  10.383   4.212 -0.1498 -0.0364 -0.0497
  154POPC   D2A 2215   3.648  10.261   4.695  0.2612 -0.0221 -0.2739
  154POPC   C3A 2216   3.698  10.440   5.105 -0.1120  0.2673 -0.0875
  154POPC   C4A 2217   3.757  10.828   5.317  0.0991  0.0596  0.2643
  154POPC   C1B 2218   4.213  10.370   4.068 -0.0119 -0.2875  0.0828
  154POPC   C2B 2219   4.546  10.323   4.310 -0.1290 -0.0169  0.1999
  154POPC   C3B 2220   4.523  10.326   4.754 -0.0188  0.4239 -0.2084
  154POPC   C4B 2221   4.552  10.726   4.854  0.2038  0.4383 -0.0087
  155POPC   NC3 2222   6.331   8.989   3.237 -0.1606  0.0990 -0.2810
  155POPC   PO4 2223   5.923   8.775   3.353 -0.1074 -0.5559 -0.1465
  155POPC   GL1 2224   5.903   8.871   3.795  0.1311  0.0880  0.0062
  155POPC   GL2 2225   6.166   9.046   3.720  0.2976  0.3420 -0.0133
  155POPC   C1A 2226   5.681   8.610   4.093  0.1037 -0.0151 -0.1682
  155POPC   D2A 2227   5.589   8.428   4.480  0.0647 -0.0227  0.1553
  155POPC   C3A 2228   5.395   8.687   4.854  0.1780  0.0986  0.1750
  155POPC   C4A 2229   5.403   8.859   5.301  0.0715  0.1624  0.2059
  155POPC   C1B 2230   6.351   9.253   4.043 -0.1468 -0.0199 -0.1681
  155POPC   C2B 2231   6.261   9.298   4.483 -0.0010  0.2665  0.0096
  155POPC   C3B 2232   6.157   9.436   4.841 -0.1982  0.0216  0.0006
  155POPC   C4B 2233   6.298   9.609   5.192  0.3191 -0.0394 -0.0245
  156POPC   NC3 2234   4.637   7.015   3.896 -0.0644  0.0792  0.1014
  156POPC   PO4 2235   4.355   7.282   3.735  0.0523  0.2452 -0.0935
  156POPC   GL1 2236   4.387   7.599   3.988  0.0540  0.0803  0.0300
  156POPC   GL2 2237   4.085   7.579   4.079  0.1935 -0.2172  0.0706
  156POPC   C1A 2238   4.674   7.622   4.220 -0.1488 -0.3515  0.1051
  156POPC   D2A 2239   4.802   7.443   4.716  0.2372  0.0835 -0.0224
  156POPC   C3A 2240   4.857   7.723   5.109 -0.1735 -0.2132  0.0862
  156POPC   C4A 2241   4.886   8.191   5.031  0.3016  0.0958 -0.2789
  156POPC   C1B 2242   4.197   7.250   4.369 -0.2504 -0.2488  0.2881
  156POPC   C2B 2243   4.450   7.082   4.701  0.0298  0.0277  0.1696
  156POPC   C3B 2244   4.755   6.924   4.851  0.1639 -0.3225  0.0005
  156POPC   C4B 2245   4.986   7.007   5.088  0.0696  0.0759 -0.2097
  157POPC   NC3 2246   2.222   2.936   3.280 -0.0369 -0.0561 -0.0316
  157POPC   PO4 2247   2.460   3.172   3.702  0.0410  0.5690 -0.0068
  157POPC   GL1 2248   2.658   2.874   4.105  0.1353  0.0724 -0.0480
  157POPC   GL2 2249   2.918   2.961   4.164  0.0339  0.1142  0.2769
  157POPC   C1A 2250   2.690   2.502   4.370  0.2156  0.0772 -0.1690
  157POPC   D2A 2251   2.823   2.230   4.636  0.1321  0.2362  0.3434
  157POPC   C3A 2252   3.088   2.289   5.017  0.1015 -0.0578  0.2177
  157POPC   C4A 2253   3.062   2.500   5.401 -0.3019 -0.2441  0.1905
  157POPC   C1B 2254   2.841   3.205   4.528 -0.1661  0.2090 -0.3624
  157POPC   C2B 2255   2.643   3.355   4.847  0.1171  0.2594  0.2386
  157POPC   C3B 2256   2.326   3.190   5.093  0.2663 -0.0618  0.5221
  157POPC   C4B 2257   2.079   3.173   5.345 -0.0682  0.0543 -0.0330
  158POPC   NC3 2258   4.223   9.459   3.498 -0.3431  0.0958  0.0196
  158POPC   PO4 2259   4.007   9.040   3.349  0.1259  0.4237  0.1404
  158POPC   GL1 2260   4.200   8.980   3.813  0.0881 -0.2066  0.0400
  158POPC   GL2 2261   4.363   8.565   3.898  0.2643  0.5403 -0.1519
  158POPC   C1A 2262   4.350   9.075   4.216  0.0979  0.1572 -0.2327
  158POPC   D2A 2263   4.438   9.090   4.605  0.0007 -0.1356 -0.0618
  158POPC   C3A 2264   4.302   8.944   4.925 -0.0502  0.3005  0.0757
  158POPC   C4A 2265   4.139   9.069   5.371 -0.2300  0.1374  0.0680
  158POPC   C1B 2266   4.288   8.430   4.362 -0.0121  0.3776  0.0158
  158POPC   C2B 2267   4.392   8.419   4.849  0.0439 -0.3869  0.0281
  158POPC   C3B 2268   4.497   8.398   5.304  0.0870 -0.0653 -0.1945
  158POPC   C4B 2269   4.673   8.034   5.460 -0.3042 -0.1594  0.3511
  159POPC   NC3 2270   1.362   0.313   3.389 -0.1416  0.0528  0.1076
  159POPC   PO4 2271   1.768   0.194   3.606  0.0613 -0.2195  0.2024
  159POPC   GL1 2272   1.554   0.315   4.036  0.0226  0.1184 -0.0672
  159POPC   GL2 2273   1.498   0.577   3.869  0.1589  0.0414  0.0133
  159POPC   C1A 2274   1.599   0.566   4.351  0.0585  0.1975  0.0527
  159POPC   D2A 2275   1.539   0.877   4.696  0.0953  0.0032  0.0659
  159POPC   C3A 2276   1.421   0.741   4.971 -0.1306 -0.2567 -0.0177
  159POPC   C4A 2277   1.279   0.536   5.316 -0.1388  0.1166 -0.0595
  159POPC   C1B 2278   1.778   0.777   3.950 -0.1447 -0.4764 -0.1479
  159POPC   C2B 2279   1.863   1.006   4.238 -0.1619 -0.1564 -0.3156
  159POPC   C3B 2280   2.184   1.088   4.572  0.1039 -0.0594 -0.1126
  159POPC   C4B 2281   2.500   1.325   4.854 -0.2432  0.1257  0.0771
  160POPC   NC3 2282   7.444   9.558   2.942  0.0198 -0.3108  0.3969
  160POPC   PO4 2283   7.509   9.563   3.333 -0.1174 -0.0307  0.0457
  160POPC   GL1 2284   7.043   9.601   3.621 -0.0594 -0.3050  0.2131
  160POPC   GL2 2285   7.105   9.206   3.807  0.1033 -0.1678  0.0986
  160POPC   C1A 2286   6.959   9.809   3.959 -0.2470 -0.1124 -0.1387
  160POPC   D2A 2287   7.131   9.968   4.250 -0.0125 -0.3284 -0.1547
  160POPC   C3A 2288   6.868  10.193   4.615 -0.0390  0.2291 -0.1379
  160POPC   C4A 2289   6.739  10.405   4.970  0.0771 -0.2582  0.1084
  160POPC   C1B 2290   6.813   9.203   4.154 -0.1657 -0.0239  0.0345
  160POPC   C2B 2291   6.957   9.034   4.640  0.1248 -0.4054 -0.0227
  160POPC   C3B 2292   6.915   8.812   5.086 -0.0591 -0.0600 -0.0605
  160POPC   C4B 2293   7.067   8.605   5.436 -0.1125  0.1288  0.0033
  161POPC   NC3 2294   0.527   3.084   3.288 -0.0122 -0.0650  0.0184
  161POPC   PO4 2295   0.822   3.162   3.674 -0.1674  0.0778 -0.3323
  161POPC   GL1 2296   0.935   3.300   4.064 -0.0072  0.2036 -0.3562
  161POPC   GL2 2297   1.160   3.505   4.083  0.4081 -0.2265 -0.0653
  161POPC   C1A 2298   1.154   3.222   4.500 -0.1590 -0.3290 -0.0040
  161POPC   D2A 2299   1.118   3.119   4.906 -0.1074 -0.1173  0.1432
  161POPC   C3A 2300   1.044   3.003   5.344 -0.0598 -0.3149 -0.0242
  161POPC   C4A 2301   1.183   3.212   5.713 -0.1986 -0.2727  0.1754
  161POPC   C1B 2302   1.316   3.720   4.407  0.0103  0.0925  0.1154
  161POPC   C2B 2303   1.466   3.546   4.841  0.4448 -0.0824  0.0738
  161POPC   C3B 2304   1.506   3.250   5.155 -0.1617  0.4516  0.3631
  161POPC   C4B 2305   1.568   2.828   5.225  0.0932 -0.0031  0.3575
  162POPC   NC3 2306   0.573   4.521   3.951 -0.3491 -0.0565 -0.1592
  162POPC   PO4 2307   0.267   4.890   3.926 -0.1922 -0.1053 -0.1240
  162POPC   GL1 2308   0.430   4.900   4.344 -0.0197 -0.0276  0.2732
  162POPC   GL2 2309   0.767   4.762   4.409  0.1992 -0.2236  0.1436
  162POPC   C1A 2310   0.304   5.007   4.772  0.1079  0.1286 -0.1877
  162POPC   D2A 2311   0.259   4.816   5.171 -0.0128 -0.0618 -0.2125
  162POPC   C3A 2312  -0.023   4.926   5.472  0.0036 -0.0350  0.2403
  162POPC   C4A 2313  -0.373   5.141   5.675  0.2134  0.2467 -0.3158
  162POPC   C1B 2314   0.764   4.579   4.898  0.0984 -0.0200  0.2795
  162POPC   C2B 2315   0.663   4.415   5.247 -0.2959  0.0052 -0.0102
  162POPC   C3B 2316   0.517   4.140   5.586 -0.1592 -0.0226 -0.0985
  162POPC   C4B 2317   0.236   4.417   5.691  0.0554 -0.0369 -0.0363
  163POPC   NC3 2318   1.844   9.710   3.472  0.1240 -0.1160  0.2151
  163POPC   PO4 2319   1.631   9.324   3.443  0.0789  0.4626  0.0863
  163POPC   GL1 2320   1.371   9.643   3.650 -0.1278  0.0481  0.1360
  163POPC   GL2 2321   1.398   9.992   3.776  0.1459  0.0106  0.2835
  163POPC   C1A 2322   1.241   9.625   4.097 -0.0482  0.0298 -0.1802
  163POPC   D2A 2323   0.856   9.728   4.305  0.3812 -0.2131  0.2091
  163POPC   C3A 2324   0.750  10.152   4.311 -0.1201  0.1550  0.2633
  163POPC   C4A 2325   0.564  10.471   4.474  0.0077 -0.1608  0.1686
  163POPC   C1B 2326   1.216  10.139   4.103  0.0980 -0.2424 -0.1737
  163POPC   C2B 2327   1.236  10.066   4.556  0.0236  0.1473 -0.1629
  163POPC   C3B 2328   0.813   9.854   4.803 -0.0911 -0.1364 -0.3701
  163POPC   C4B 2329   0.719   9.721   5.275  0.0135  0.2280 -0.0694
  164POPC   NC3 2330   4.441   3.299   3.707 -0.1173 -0.0440  0.0411
  164POPC   PO4 2331   4.898   3.347   3.779 -0.0976 -0.2639 -0.2039
  164POPC   GL1 2332   4.716   3.428   4.214 -0.0373 -0.0158 -0.0206
  164POPC   GL2 2333   4.416   3.390   4.238 -0.2204 -0.0930  0.2204
  164POPC   C1A 2334   4.776   3.101   4.542 -0.1838 -0.0860 -0.2642
  164POPC   D2A 2335   5.036   2.792   4.735 -0.4112 -0.0643  0.2199
  164POPC   C3A 2336   5.304   2.753   5.094  0.0684 -0.0991  0.3005
  164POPC   C4A 2337   5.277   2.640   5.586  0.0374 -0.1025  0.2985
  164POPC   C1B 2338   4.277   3.401   4.657 -0.2023  0.0549  0.3850
  164POPC   C2B 2339   4.482   3.148   4.929  0.1786  0.4234 -0.0432
  164POPC   C3B 2340   4.795   2.865   5.203 -0.3139 -0.2622  0.1513
  164POPC   C4B 2341   4.616   2.578   5.474 -0.0768  0.0613  0.0603
  165POPC   NC3 2342   1.934   7.631   3.704  0.0988  0.0094 -0.2259
  165POPC   PO4 2343   2.076   7.123   3.734  0.4768  0.0254 -0.0490
  165POPC   GL1 2344   2.065   7.332   4.112  0.0530  0.2076  0.0491
  165POPC   GL2 2345   2.237   7.536   4.110 -0.2789  0.1164  0.3234
  165POPC   C1A 2346   1.801   7.398   4.477  0.1932  0.0144 -0.0115
  165POPC   D2A 2347   1.469   7.706   4.749 -0.0514 -0.0430 -0.7624
  165POPC   C3A 2348   1.391   7.710   5.201  0.0271 -0.1135  0.1128
  165POPC   C4A 2349   1.445   7.686   5.565 -0.3005 -0.2008 -0.3251
  165POPC   C1B 2350   2.139   7.740   4.496 -0.0524 -0.1261  0.1733
  165POPC   C2B 2351   2.225   7.775   4.889  0.1165 -0.3747  0.1128
  165POPC   C3B 2352   2.439   7.851   5.263  0.1815  0.3004 -0.1938
  165POPC   C4B 2353   2.767   8.124   5.567  0.1185  0.1730  0.0638
  166POPC   NC3 2354   9.597   8.262   3.154 -0.0444  0.3584  0.0489
  166POPC   PO4 2355   9.465   8.167   3.597 -0.1537 -0.0176 -0.0604
  166POPC   GL1 2356   9.638   8.239   4.060 -0.0374  0.0282  0.1911
  166POPC   GL2 2357   9.595   8.617   3.920 -0.1602 -0.3905  0.1063
  166POPC   C1A 2358   9.793   8.199   4.548 -0.0006 -0.1681 -0.1900
  166POPC   D2A 2359  10.158   8.053   4.744  0.0843  0.0660  0.1503
  166POPC   C3A 2360  10.321   8.224   5.144  0.2458 -0.3689 -0.0312
  166POPC   C4A 2361  10.199   8.410   5.600  0.0624  0.1548 -0.4749
  166POPC   C1B 2362   9.675   8.789   4.218 -0.1718  0.0848  0.2516
  166POPC   C2B 2363   9.819   9.005   4.644  0.1431 -0.1376  0.2206
  166POPC   C3B 2364   9.891   9.047   5.077 -0.0105 -0.2828  0.0225
  166POPC   C4B 2365  10.140   9.008   5.478  0.2638  0.3899  0.0295
  167POPC   NC3 2366   3.150   0.972   3.496  0.2173 -0.2764 -0.0461
  167POPC   PO4 2367   2.912   1.392   3.534  0.3519  0.1070 -0.2282
  167POPC   GL1 2368   2.712   1.238   3.916 -0.0037 -0.2219  0.1413
  167POPC   GL2 2369   2.868   0.978   4.000  0.2159  0.2820  0.1856
  167POPC   C1A 2370   2.553   1.530   4.185  0.1129  0.2809  0.0364
  167POPC   D2A 2371   2.693   1.843   4.352  0.2390 -0.0280 -0.2919
  167POPC   C3A 2372   2.700   1.807   4.826 -0.0234 -0.0901 -0.2605
  167POPC   C4A 2373   2.722   1.634   5.258  0.0777  0.1691  0.2059
  167POPC   C1B 2374   3.152   1.022   4.255  0.0332 -0.3525  0.1395
  167POPC   C2B 2375   3.572   1.117   4.312 -0.0075  0.1710 -0.3790
  167POPC   C3B 2376   3.833   1.296   4.688  0.0416 -0.1996 -0.0488
  167POPC   C4B 2377   4.310   1.370   4.884  0.3000  0.0243 -0.1863
  168POPC   NC3 2378   9.192   7.292   3.343  0.1474  0.2542 -0.1447
  168POPC   PO4 2379   9.282   7.236   3.820  0.0404 -0.2030  0.0876
  168POPC   GL1 2380   9.118   7.296   4.256  0.1581  0.0861 -0.1152
  168POPC   GL2 2381   8.717   7.219   4.225 -0.1019 -0.3666 -0.1162
  168POPC   C1A 2382   9.118   7.412   4.609  0.0266 -0.1204  0.0669
  168POPC   D2A 2383   9.205   7.725   4.852  0.0078  0.2630 -0.1155
  168POPC   C3A 2384   8.915   7.725   5.290 -0.3043  0.0191  0.2639
  168POPC   C4A 2385   8.775   7.877   5.670 -0.1220  0.0098  0.2041
  168POPC   C1B 2386   8.620   7.476   4.538 -0.1015  0.0773  0.0695
  168POPC   C2B 2387   8.543   7.767   4.880  0.1415  0.2566 -0.3624
  168POPC   C3B 2388   8.410   7.749   5.312 -0.1278 -0.3238  0.1191
  168POPC   C4B 2389   8.307   7.642   5.648  0.1687  0.2025  0.1416
  169POPC   NC3 2390   0.070   3.787   3.766  0.1452  0.1158  0.1326
  169POPC   PO4 2391  -0.170   4.141   3.931  0.4948  0.0920 -0.1032
  169POPC   GL1 2392  -0.304   4.005   4.400 -0.0217  0.2992 -0.1924
  169POPC   GL2 2393  -0.107   3.966   4.682  0.0364 -0.2399  0.3034
  169POPC   C1A 2394  -0.447   4.292   4.807 -0.0608 -0.0545 -0.0622
  169POPC   D2A 2395  -0.726   4.298   5.119 -0.0484 -0.0266  0.1917
  169POPC   C3A 2396  -0.820   4.568   5.371  0.1574  0.0028  0.2012
  169POPC   C4A 2397  -0.642   4.667   5.773  0.0838  0.0772  0.2159
  169POPC   C1B 2398   0.234   3.919   4.743  0.0002 -0.0542  0.2822
  169POPC   C2B 2399   0.494   3.821   5.050 -0.3016  0.1972 -0.0754
  169POPC   C3B 2400   0.698   3.712   5.307 -0.1398 -0.1523 -0.2199
  169POPC   C4B 2401   1.135   3.575   5.346 -0.0335  0.0769 -0.1484
  170POPC   NC3 2402   5.651   9.253   2.775  0.0172  0.2869  0.0126
  170POPC   PO4 2403   5.820   9.699   2.911 -0.1807  0.3962  0.0805
  170POPC   GL1 2404   5.901   9.868   3.266  0.1130 -0.0509 -0.2444
  170POPC   GL2 2405   5.594   9.733   3.489 -0.2060  0.1840 -0.0461
  170POPC   C1A 2406   5.924   9.981   3.765  0.1293 -0.2787 -0.0211
  170POPC   D2A 2407   5.926  10.257   4.228  0.1764  0.0514  0.4658
  170POPC   C3A 2408   5.929  10.237   4.588  0.0239  0.0419  0.2741
  170POPC   C4A 2409   5.896   9.942   4.855  0.1470  0.0811 -0.0248
  170POPC   C1B 2410   5.408   9.606   3.816 -0.0583 -0.2536 -0.0039
  170POPC   C2B 2411   5.628   9.844   4.112 -0.4947 -0.0075  0.1608
  170POPC   C3B 2412   5.534   9.897   4.529  0.4827  0.1998  0.2367
  170POPC   C4B 2413   5.422   9.803   4.954  0.2093 -0.2553 -0.0769
  171POPC   NC3 2414   2.551   8.083   3.738 -0.4222  0.2114  0.1381
  171POPC   PO4 2415   2.506   7.633   3.635  0.0814  0.0670 -0.0419
  171POPC   GL1 2416   2.753   7.638   3.945 -0.1911 -0.3492  0.1534
  171POPC   GL2 2417   2.756   7.472   4.193  0.0449  0.3568  0.0722
  171POPC   C1A 2418   2.874   7.989   4.306  0.1035  0.0223  0.0571
  171POPC   D2A 2419   2.923   8.420   4.494 -0.3434 -0.1516  0.1098
  171POPC   C3A 2420   2.861   8.714   4.879  0.1157 -0.3800 -0.1565
  171POPC   C4A 2421   2.816   9.145   5.043  0.1413 -0.1231 -0.1088
  171POPC   C1B 2422   2.620   7.541   4.548 -0.0316 -0.1996 -0.4168
  171POPC   C2B 2423   2.731   7.498   5.051 -0.0831 -0.1881 -0.1606
  171POPC   C3B 2424   2.919   7.576   5.508  0.2966  0.1080 -0.0544
  171POPC   C4B 2425   3.407   7.590   5.628 -0.1887 -0.1145 -0.0533
  172POPC   NC3 2426   5.702   8.322   3.263 -0.0659 -0.2222 -0.2312
  172POPC   PO4 2427   6.195   8.133   3.219  0.1851  0.0513  0.2221
  172POPC   GL1 2428   6.114   8.378   3.567 -0.0489 -0.1896  0.0194
  172POPC   GL2 2429   6.329   8.576   3.531 -0.1037 -0.1804 -0.2657
  172POPC   C1A 2430   6.195   8.476   4.023  0.0755  0.2352  0.1626
  172POPC   D2A 2431   6.088   8.849   4.254 -0.0530  0.1459  0.0311
  172POPC   C3A 2432   6.059   8.643   4.615 -0.0426  0.2191 -0.0649
  172POPC   C4A 2433   5.952   8.780   5.069  0.0226  0.0909  0.1678
  172POPC   C1B 2434   6.665   8.781   3.839  0.2792 -0.1283 -0.0277
  172POPC   C2B 2435   6.615   8.761   4.313 -0.3033 -0.2436  0.2065
  172POPC   C3B 2436   6.652   8.528   4.715 -0.3521  0.1377 -0.0299
  172POPC   C4B 2437   6.890   8.331   5.065  0.0419 -0.2067 -0.0673
  173POPC   NC3 2438   7.306   7.263   3.588  0.0489 -0.1237 -0.0142
  173POPC   PO4 2439   6.861   7.114   3.444  0.1137  0.1856  0.0274
  173POPC   GL1 2440   6.783   7.146   3.848 -0.0690  0.1974  0.0228
  173POPC   GL2 2441   7.088   6.958   3.903 -0.3345  0.0548 -0.2781
  173POPC   C1A 2442   6.640   7.256   4.245  0.0098  0.0677  0.1585
  173POPC   D2A 2443   6.559   7.179   4.656  0.1380  0.1003 -0.0442
  173POPC   C3A 2444   6.640   7.355   5.029 -0.3202  0.2188  0.1693
  173POPC   C4A 2445   6.411   7.509   5.386  0.1517 -0.1718 -0.0245
  173POPC   C1B 2446   7.178   7.147   4.272  0.0519  0.2190 -0.1591
  173POPC   C2B 2447   7.570   7.329   4.408 -0.0481 -0.0457 -0.0391
  173POPC   C3B 2448   8.087   7.327   4.559  0.1449  0.1964  0.0842
  173POPC   C4B 2449   8.375   7.173   4.933 -0.0135  0.1038 -0.0808
  174POPC   NC3 2450   3.077   3.159   3.753 -0.0614 -0.2661  0.2460
  174POPC   PO4 2451   3.024   3.673   3.792  0.0247 -0.2126 -0.0960
  174POPC   GL1 2452   2.926   3.861   4.181 -0.2128  0.3945 -0.3156
  174POPC   GL2 2453   3.022   4.230   4.188 -0.0160  0.0514  0.3871
  174POPC   C1A 2454   2.932   3.768   4.635 -0.0063 -0.0262 -0.0213
  174POPC   D2A 2455   2.860   3.683   5.110  0.1389 -0.2262  0.1518
  174POPC   C3A 2456   2.522   3.507   5.380 -0.2642 -0.0615 -0.0026
  174POPC   C4A 2457   2.416   3.604   5.885  0.0178  0.1634  0.0784
  174POPC   C1B 2458   3.167   4.198   4.737  0.0071  0.1586  0.0082
  174POPC   C2B 2459   3.267   4.588   4.897  0.0885 -0.1714 -0.1766
  174POPC   C3B 2460   3.460   4.992   5.010  0.1634  0.0207  0.0289
  174POPC   C4B 2461   3.633   5.040   5.398  0.0896  0.1961 -0.0319
  175POPC   NC3 2462   5.108   0.774   2.356 -0.0316  0.2383 -0.2448
  175POPC   PO4 2463   5.028   0.793   2.778  0.1325 -0.1839 -0.0275
  175POPC   GL1 2464   5.139   1.009   3.136 -0.0527  0.3728  0.1312
  175POPC   GL2 2465   5.128   0.884   3.437  0.1387  0.0656  0.3240
  175POPC   C1A 2466   5.450   1.300   3.447 -0.0602  0.1088 -0.0023
  175POPC   D2A 2467   5.727   1.455   3.678 -0.0428  0.2153  0.2589
  175POPC   C3A 2468   5.713   1.730   4.040  0.0320 -0.2128 -0.1590
  175POPC   C4A 2469   5.689   2.118   4.237  0.0269 -0.0710 -0.1369
  175POPC   C1B 2470   5.279   1.061   3.839  0.1180  0.1397  0.0986
  175POPC   C2B 2471   5.638   1.194   4.108  0.1331  0.2056  0.0311
  175POPC   C3B 2472   5.775   1.322   4.506  0.0348  0.0899  0.1372
  175POPC   C4B 2473   5.797   1.339   4.916 -0.0422 -0.4255  0.3052
  176POPC   NC3 2474   8.353   9.008   3.044  0.0469  0.3570  0.1668
  176POPC   PO4 2475   8.420   9.191   3.420 -0.0067  0.1061  0.1411
  176POPC   GL1 2476   8.320   9.081   3.817 -0.1790  0.3465  0.0704
  176POPC   GL2 2477   8.349   8.725   3.936 -0.1039 -0.0486  0.1376
  176POPC   C1A 2478   8.403   9.137   4.297  0.3191 -0.0056 -0.0677
  176POPC   D2A 2479   8.702   8.883   4.653  0.2012 -0.2970 -0.1895
  176POPC   C3A 2480   8.704   8.466   4.556 -0.2181 -0.1425 -0.0373
  176POPC   C4A 2481   8.845   8.052   4.533 -0.3407  0.3864  0.0738
  176POPC   C1B 2482   8.174   8.665   4.264 -0.0944  0.0482 -0.0837
  176POPC   C2B 2483   7.768   8.620   4.598  0.0289  0.0164  0.2178
  176POPC   C3B 2484   7.540   8.375   5.040  0.0926 -0.1222  0.0928
  176POPC   C4B 2485   7.607   8.160   5.488 -0.1497 -0.0161 -0.1483
  177POPC   NC3 2486   0.403   0.639   2.898 -0.2112 -0.1519  0.0526
  177POPC   PO4 2487   0.531   0.906   3.295 -0.1869 -0.0010  0.1382
  177POPC   GL1 2488   0.492   0.897   3.664 -0.1022  0.1674 -0.2306
  177POPC   GL2 2489   0.560   1.146   3.825 -0.1224 -0.2288  0.0126
  177POPC   C1A 2490   0.490   0.728   4.031 -0.0634  0.3410  0.0772
  177POPC   D2A 2491   0.115   0.728   4.371  0.1485  0.1466  0.3089
  177POPC   C3A 2492   0.240   0.633   4.767 -0.1097  0.3094 -0.0746
  177POPC   C4A 2493   0.270   0.477   5.190 -0.5814  0.2456 -0.3087
  177POPC   C1B 2494   0.689   1.173   4.282  0.3846  0.3092  0.3489
  177POPC   C2B 2495   0.635   0.876   4.550 -0.0976  0.0682  0.0571
  177POPC   C3B 2496   0.725   0.663   4.922 -0.1744  0.2780 -0.2378
  177POPC   C4B 2497   0.781   0.412   5.253  0.1481  0.3321 -0.2842
  178POPC   NC3 2498   1.328   6.884   3.895  0.1295  0.1135 -0.0189
  178POPC   PO4 2499   1.520   7.371   3.891 -0.1539 -0.2150 -0.3512
  178POPC   GL1 2500   1.605   7.802   4.068  0.2802 -0.1135  0.1258
  178POPC   GL2 2501   1.173   7.636   4.174 -0.3291 -0.1977 -0.1090
  178POPC   C1A 2502   1.743   8.014   4.381  0.1796  0.4485  0.0136
  178POPC   D2A 2503   1.811   8.020   4.811  0.0210 -0.1329 -0.1892
  178POPC   C3A 2504   1.611   8.130   5.138 -0.1557  0.0441 -0.1236
  178POPC   C4A 2505   1.662   8.127   5.594  0.2137 -0.0122 -0.2121
  178POPC   C1B 2506   1.007   7.566   4.558  0.2851 -0.0504 -0.2308
  178POPC   C2B 2507   0.960   7.637   4.895  0.1171  0.1086  0.1683
  178POPC   C3B 2508   0.887   7.683   5.321  0.2129  0.2038  0.1366
  178POPC   C4B 2509   0.962   7.597   5.703  0.1246 -0.3177 -0.1201
  179POPC   NC3 2510   8.878   2.183   3.381 -0.1938 -0.3075  0.0410
  179POPC   PO4 2511   8.382   2.307   3.472 -0.2747 -0.0297  0.0163
  179POPC   GL1 2512   8.506   2.069   3.833  0.1758  0.2132  0.1020
  179POPC   GL2 2513   8.552   2.188   4.164 -0.3646 -0.3444 -0.1363
  179POPC   C1A 2514   8.479   1.780   4.332  0.2355 -0.0866 -0.0248
  179POPC   D2A 2515   8.688   1.593   4.643  0.0635  0.3958  0.4277
  179POPC   C3A 2516   8.647   1.896   4.987  0.1516 -0.0924  0.1719
  179POPC   C4A 2517   8.990   2.274   5.225 -0.0401  0.0867 -0.0383
  179POPC   C1B 2518   8.726   2.310   4.583  0.3130  0.0790  0.2073
  179POPC   C2B 2519   8.742   2.625   4.851  0.1470 -0.0423 -0.1030
  179POPC   C3B 2520   8.335   2.784   5.196 -0.0772  0.1211  0.2257
  179POPC   C4B 2521   7.937   2.828   5.187  0.2443  0.0862  0.0415
  180POPC   NC3 2522   2.659   4.572   3.585 -0.1366  0.3139 -0.1114
  180POPC   PO4 2523   3.036   4.606   3.768 -0.2553  0.2917 -0.1930
  180POPC   GL1 2524   3.073   4.721   4.185 -0.0388 -0.1229 -0.6126
  180POPC   GL2 2525   3.342   4.631   4.437 -0.0173  0.1275 -0.0495
  180POPC   C1A 2526   2.846   4.625   4.545 -0.2626  0.0970  0.1072
  180POPC   D2A 2527   2.428   4.776   4.820  0.1453 -0.1188 -0.1082
  180POPC   C3A 2528   2.359   4.623   5.184  0.0573 -0.2028  0.2174
  180POPC   C4A 2529   2.201   4.525   5.612 -0.0517  0.0911  0.2543
  180POPC   C1B 2530   3.349   5.045   4.538 -0.1977 -0.2835 -0.2983
  180POPC   C2B 2531   3.266   5.387   4.618  0.1257 -0.0611  0.2489
  180POPC   C3B 2532   2.995   5.437   4.940 -0.1236 -0.2959  0.2663
  180POPC   C4B 2533   3.095   5.281   5.372 -0.2769  0.0584 -0.3898
  181POPC   NC3 2534   4.652   1.703   2.992 -0.3404  0.2335  0.1591
  181POPC   PO4 2535   4.243   1.524   3.055 -0.0247 -0.1709  0.3428
  181POPC   GL1 2536   4.255   1.353   3.565 -0.1083 -0.0721  0.6015
  181POPC   GL2 2537   4.214   1.687   3.908  0.0169 -0.1350 -0.1240
  181POPC   C1A 2538   4.620   1.367   3.816 -0.1768  0.0747 -0.0257
  181POPC   D2A 2539   4.837   1.118   4.139  0.1741 -0.3187  0.2325
  181POPC   C3A 2540   5.211   1.043   4.367  0.0294 -0.2853 -0.0321
  181POPC   C4A 2541   5.519   0.885   4.642  0.0675  0.2960 -0.2961
  181POPC   C1B 2542   4.411   2.008   4.219 -0.3281 -0.1632 -0.2150
  181POPC   C2B 2543   4.379   2.130   4.667 -0.0930 -0.2582  0.2888
  181POPC   C3B 2544   4.297   2.392   4.955  0.1794 -0.1200 -0.0157
  181POPC   C4B 2545   4.213   2.772   5.183 -0.3449 -0.2300 -0.0698
  182POPC   NC3 2546   3.460   8.852   3.256 -0.3070  0.0742 -0.2449
  182POPC   PO4 2547   3.056   8.753   3.539  0.0675 -0.2505 -0.0467
  182POPC   GL1 2548   3.384   8.747   3.815  0.1801  0.3830 -0.0367
  182POPC   GL2 2549   3.354   8.520   3.921  0.0461  0.2213  0.0108
  182POPC   C1A 2550   3.777   8.817   4.075  0.1554  0.1150  0.0294
  182POPC   D2A 2551   3.988   8.851   4.432 -0.2012  0.1703  0.2886
  182POPC   C3A 2552   3.794   8.863   4.738  0.2715 -0.2471 -0.0866
  182POPC   C4A 2553   3.323   8.937   4.816  0.1399 -0.0032  0.0149
  182POPC   C1B 2554   3.367   8.105   4.153  0.2554  0.0402  0.2179
  182POPC   C2B 2555   3.409   8.082   4.621 -0.0011  0.1392  0.1833
  182POPC   C3B 2556   3.466   8.443   4.942 -0.3330  0.0401  0.1248
  182POPC   C4B 2557   3.403   8.545   5.361  0.0920  0.0326  0.0855
  183POPC   NC3 2558   6.615   6.800   3.224 -0.0215  0.0145 -0.3325
  183POPC   PO4 2559   6.730   6.602   3.665  0.1194  0.1179  0.2337
  183POPC   GL1 2560   6.655   6.590   4.119 -0.1782 -0.1446 -0.1171
  183POPC   GL2 2561   6.404   6.786   4.172 -0.1671  0.2073 -0.0149
  183POPC   C1A 2562   6.808   6.444   4.524  0.2560  0.1877 -0.3669
  183POPC   D2A 2563   6.988   6.257   4.899 -0.1975 -0.2327  0.0039
  183POPC   C3A 2564   7.037   6.500   5.282 -0.0204 -0.1626  0.0945
  183POPC   C4A 2565   7.052   6.837   5.561  0.1749 -0.2907 -0.0914
  183POPC   C1B 2566   6.169   7.092   4.378  0.2310  0.2424 -0.2959
  183POPC   C2B 2567   6.075   6.990   4.769  0.0879  0.2788 -0.2511
  183POPC   C3B 2568   6.197   7.071   5.263 -0.2246 -0.3896  0.2423
  183POPC   C4B 2569   6.577   7.030   5.417  0.3265  0.3202 -0.2809
  184POPC   NC3 2570   6.349   4.798   4.388  0.0418 -0.4597  0.4286
  184POPC   PO4 2571   6.421   4.408   4.318 -0.3395  0.1854 -0.2380
  184POPC   GL1 2572   6.195   4.225   4.647 -0.1119  0.0052 -0.1009
  184POPC   GL2 2573   5.848   4.166   4.634  0.0840  0.0733 -0.0598
  184POPC   C1A 2574   6.388   4.062   4.974 -0.1530  0.0075  0.1064
  184POPC   D2A 2575   6.323   3.987   5.420  0.0490  0.1594 -0.2609
  184POPC   C3A 2576   6.695   3.873   5.661 -0.0167 -0.0431  0.0734
  184POPC   C4A 2577   6.914   4.262   5.823 -0.1934 -0.0586 -0.2246
  184POPC   C1B 2578   5.996   4.345   5.089 -0.1605 -0.3158 -0.1380
  184POPC   C2B 2579   6.003   4.708   5.396  0.1327  0.2268 -0.2119
  184POPC   C3B 2580   5.801   5.005   5.680  0.1763  0.3325 -0.0135
  184POPC   C4B 2581   5.470   5.065   5.934  0.4428 -0.3588 -0.2435
  185POPC   NC3 2582   6.176   1.635   3.102  0.2764 -0.2453 -0.0875
  185POPC   PO4 2583   6.487   1.431   3.227 -0.0371  0.1775  0.0416
  185POPC   GL1 2584   6.348   1.549   3.658  0.0777  0.0605 -0.0371
  185POPC   GL2 2585   6.135   1.727   3.618 -0.0469 -0.0722 -0.0446
  185POPC   C1A 2586   6.205   1.304   3.944 -0.0549 -0.2624  0.0326
  185POPC   D2A 2587   6.432   1.054   4.176  0.1951 -0.2380  0.2042
  185POPC   C3A 2588   6.476   0.638   4.085  0.2801 -0.4009 -0.0084
  185POPC   C4A 2589   6.256   0.348   3.774  0.0844  0.1075  0.4780
  185POPC   C1B 2590   6.158   1.834   4.118  0.2383 -0.1536 -0.0620
  185POPC   C2B 2591   5.992   1.796   4.532 -0.1170 -0.0356  0.0362
  185POPC   C3B 2592   6.201   1.759   4.938  0.2070  0.1920  0.0422
  185POPC   C4B 2593   6.367   1.765   5.288 -0.0249 -0.0288  0.1909
  186POPC   NC3 2594   2.696   1.877   3.687 -0.2643  0.0466 -0.0554
  186POPC   PO4 2595   2.453   2.261   3.474 -0.1039 -0.2959 -0.1109
  186POPC   GL1 2596   2.440   2.370   3.917 -0.1241  0.1058  0.1668
  186POPC   GL2 2597   2.841   2.314   3.978 -0.1049  0.1021  0.0404
  186POPC   C1A 2598   2.206   2.596   4.171 -0.1034  0.2964 -0.1242
  186POPC   D2A 2599   2.017   2.754   4.481 -0.0053 -0.0176  0.0611
  186POPC   C3A 2600   1.967   2.677   4.961 -0.1654 -0.1542 -0.1154
  186POPC   C4A 2601   2.363   2.695   5.271  0.2877  0.1740  0.1352
  186POPC   C1B 2602   3.131   2.512   4.210 -0.1705 -0.3782  0.2289
  186POPC   C2B 2603   3.026   2.747   4.616 -0.1936 -0.0085 -0.0009
  186POPC   C3B 2604   2.851   2.789   5.048  0.0021  0.1569 -0.3549
  186POPC   C4B 2605   2.835   3.091   5.308 -0.2457 -0.0709 -0.4759
  187POPC   NC3 2606   0.819   9.709   3.301 -0.0283 -0.4723  0.3375
  187POPC   PO4 2607   0.845  10.195   3.398  0.0611  0.0092 -0.4838
  187POPC   GL1 2608   1.004  10.472   3.746 -0.0824 -0.0278  0.6770
  187POPC   GL2 2609   0.905  10.725   3.594 -0.1315 -0.2302 -0.0669
  187POPC   C1A 2610   1.005  10.599   4.180  0.0272 -0.1171 -0.0659
  187POPC   D2A 2611   1.162  10.555   4.594 -0.2273  0.0050  0.1838
  187POPC   C3A 2612   0.884  10.308   4.798  0.3444  0.0279 -0.1939
  187POPC   C4A 2613   0.459  10.253   4.881  0.1565 -0.0004 -0.1121
  187POPC   C1B 2614   1.081  11.013   3.877 -0.1845  0.0563 -0.2614
  187POPC   C2B 2615   1.294  11.062   4.295  0.2921  0.4164 -0.0669
  187POPC   C3B 2616   1.075  11.093   4.668 -0.0988  0.0116  0.1694
  187POPC   C4B 2617   0.863  11.312   4.884 -0.2149 -0.0399 -0.0514
  188POPC   NC3 2618   4.173   5.332   3.334 -0.1989 -0.0448  0.0339
  188POPC   PO4 2619   4.270   5.118   3.706  0.0880  0.2622 -0.2226
  188POPC   GL1 2620   4.269   5.240   4.189 -0.0832  0.0615  0.2536
  188POPC   GL2 2621   4.235   4.988   4.478 -0.1378 -0.0768  0.1737
  188POPC   C1A 2622   4.425   5.460   4.616  0.2657 -0.1496  0.1680
  188POPC   D2A 2623   4.213   5.269   4.938 -0.2136 -0.1174 -0.2815
  188POPC   C3A 2624   3.827   5.317   5.006 -0.0016  0.2286 -0.3219
  188POPC   C4A 2625   3.540   5.494   5.089  0.3209 -0.1422  0.3749
  188POPC   C1B 2626   4.403   4.824   4.852 -0.0644 -0.0827  0.0914
  188POPC   C2B 2627   4.665   4.443   4.999 -0.3147  0.1280 -0.0684
  188POPC   C3B 2628   4.556   4.110   5.142  0.3918 -0.1094 -0.1715
  188POPC   C4B 2629   4.400   4.119   5.583 -0.0009  0.0385 -0.0485
  189POPC   NC3 2630   0.778   8.643   3.254  0.0732  0.4375  0.0822
  189POPC   PO4 2631   1.122   8.792   3.436 -0.0694 -0.0282  0.0736
  189POPC   GL1 2632   1.193   8.657   3.871  0.0566  0.4411  0.1620
  189POPC   GL2 2633   0.916   8.460   4.085  0.2166  0.1306 -0.1068
  189POPC   C1A 2634   1.035   8.899   4.228  0.1199 -0.1857 -0.0128
  189POPC   D2A 2635   1.058   9.295   4.490 -0.1969 -0.1990 -0.3455
  189POPC   C3A 2636   1.128   9.491   4.879  0.2106  0.0383 -0.0527
  189POPC   C4A 2637   1.161   9.459   5.373 -0.0301  0.1016  0.3111
  189POPC   C1B 2638   1.020   8.582   4.591 -0.3444 -0.0669 -0.1772
  189POPC   C2B 2639   1.036   8.541   5.004  0.0059  0.1828  0.0147
  189POPC   C3B 2640   0.784   8.630   5.355  0.2963  0.4093 -0.1193
  189POPC   C4B 2641   0.758   8.483   5.773  0.2492 -0.0762  0.2075
  190POPC   NC3 2642   7.239   4.450   4.369  0.1439  0.1184 -0.1166
  190POPC   PO4 2643   7.599   4.222   4.342 -0.0585 -0.0090  0.1070
  190POPC   GL1 2644   7.352   4.168   4.773  0.0120  0.1355 -0.2658
  190POPC   GL2 2645   7.075   4.331   4.919  0.0348  0.2989 -0.3421
  190POPC   C1A 2646   7.473   4.122   5.185 -0.1395 -0.2509  0.3904
  190POPC   D2A 2647   7.477   4.212   5.674  0.0139  0.2860 -0.3711
  190POPC   C3A 2648   7.297   3.872   5.977 -0.1632  0.0028  0.0855
  190POPC   C4A 2649   7.155   3.972   6.349 -0.2977  0.1129 -0.0238
  190POPC   C1B 2650   7.109   4.500   5.298 -0.0317 -0.0547 -0.3070
  190POPC   C2B 2651   6.933   4.747   5.564  0.3315 -0.1068  0.0465
  190POPC   C3B 2652   6.487   4.898   5.742  0.1296  0.0713 -0.3340
  190POPC   C4B 2653   6.206   5.131   6.008  0.3091  0.1009 -0.0360
  191POPC   NC3 2654   4.289   4.190   4.030  0.2683 -0.0040  0.0846
  191POPC   PO4 2655   3.990   4.305   4.066 -0.0665  0.1715 -0.2576
  191POPC   GL1 2656   4.021   4.373   4.436  0.2595  0.2026 -0.1582
  191POPC   GL2 2657   3.715   4.353   4.618  0.0899 -0.0017 -0.0130
  191POPC   C1A 2658   4.126   4.273   4.884 -0.4284  0.0059 -0.1728
  191POPC   D2A 2659   4.209   4.435   5.259  0.2073  0.0690 -0.0892
  191POPC   C3A 2660   4.096   4.847   5.419 -0.0585 -0.2553 -0.0391
  191POPC   C4A 2661   4.146   5.308   5.414 -0.3746 -0.1029  0.0439
  191POPC   C1B 2662   3.675   4.110   4.921 -0.0540 -0.1052 -0.0801
  191POPC   C2B 2663   3.762   4.022   5.341  0.3721 -0.1663 -0.0999
  191POPC   C3B 2664   3.949   4.308   5.711 -0.0286 -0.1829 -0.0693
  191POPC   C4B 2665   4.235   4.595   5.855 -0.1581 -0.2983  0.2725
  192POPC   NC3 2666   4.468   4.081   3.390  0.3500 -0.0002  0.0980
  192POPC   PO4 2667   4.510   3.806   3.825  0.0592 -0.0253 -0.0971
  192POPC   GL1 2668   4.700   3.970   4.218  0.1898 -0.1925  0.0275
  192POPC   GL2 2669   4.453   3.891   4.408  0.2234  0.0172 -0.0725
  192POPC   C1A 2670   4.862   4.028   4.700  0.1883 -0.0780 -0.1678
  192POPC   D2A 2671   5.061   3.821   5.020 -0.3163 -0.1540 -0.0921
  192POPC   C3A 2672   5.089   3.641   5.365 -0.0217  0.0722 -0.4347
  192POPC   C4A 2673   5.182   3.730   5.851  0.3298 -0.0269  0.0700
  192POPC   C1B 2674   4.703   3.562   4.745  0.0617  0.0736 -0.0160
  192POPC   C2B 2675   4.618   3.491   5.232  0.1786 -0.0164 -0.0254
  192POPC   C3B 2676   4.478   3.092   5.484  0.1311  0.1636 -0.0241
  192POPC   C4B 2677   4.237   2.930   5.682  0.1505  0.0632 -0.4144
  193POPC   NC3 2678   1.329   1.023   3.040 -0.0229  0.0944 -0.1450
  193POPC   PO4 2679   1.735   1.081   3.313  0.2179  0.3557  0.1868
  193POPC   GL1 2680   1.956   1.199   3.687  0.2153 -0.4414 -0.0007
  193POPC   GL2 2681   2.144   1.500   3.775  0.2583  0.3966 -0.2688
  193POPC   C1A 2682   2.291   0.961   3.925  0.1881  0.3968 -0.0987
  193POPC   D2A 2683   2.448   0.716   4.258  0.0301 -0.2609  0.1755
  193POPC   C3A 2684   2.674   1.090   4.428  0.1177  0.0657 -0.0180
  193POPC   C4A 2685   2.928   1.396   4.582 -0.2314  0.1507 -0.3011
  193POPC   C1B 2686   2.079   1.394   4.211 -0.0242  0.0230 -0.1863
  193POPC   C2B 2687   2.206   1.622   4.596 -0.2100  0.3363  0.0316
  193POPC   C3B 2688   2.168   1.709   5.052 -0.4179  0.1732 -0.1405
  193POPC   C4B 2689   2.275   1.465   5.344  0.0044 -0.1496  0.0193
  194POPC   NC3 2690   9.873   2.360   3.564 -0.0400 -0.1628 -0.0307
  194POPC   PO4 2691   9.748   2.692   3.745 -0.2363 -0.3121 -0.1843
  194POPC   GL1 2692  10.130   2.587   3.945  0.0901 -0.0300  0.1819
  194POPC   GL2 2693  10.200   2.705   4.233 -0.0196 -0.0377  0.0307
  194POPC   C1A 2694  10.463   2.236   4.061  0.0489 -0.0881 -0.1545
  194POPC   D2A 2695  10.878   2.307   4.225 -0.0957  0.0617  0.2554
  194POPC   C3A 2696  11.051   2.054   4.617  0.1009  0.0173  0.0273
  194POPC   C4A 2697  10.878   1.872   4.928  0.0753 -0.1884  0.0457
  194POPC   C1B 2698  10.552   2.549   4.497 -0.0814 -0.2009  0.1766
  194POPC   C2B 2699  10.700   2.374   4.845  0.0395 -0.2496 -0.1386
  194POPC   C3B 2700  10.771   2.252   5.295  0.0060  0.1417 -0.1746
  194POPC   C4B 2701  10.416   2.124   5.539  0.4201  0.0091  0.1253
  195POPC   NC3 2702   5.463   0.594   3.197  0.1042 -0.2734 -0.0778
  195POPC   PO4 2703   5.105   0.429   3.235  0.2105 -0.0788  0.0417
  195POPC   GL1 2704   4.913   0.422   3.608  0.0041  0.0713  0.2320
  195POPC   GL2 2705   5.275   0.521   3.744  0.1160 -0.0629 -0.0710
  195POPC   C1A 2706   4.685   0.559   3.902  0.2086  0.1982 -0.0263
  195POPC   D2A 2707   4.606   0.689   4.354 -0.3721  0.0595 -0.0096
  195POPC   C3A 2708   4.682   1.058   4.668 -0.0431  0.2391  0.2152
  195POPC   C4A 2709   4.942   1.369   4.621 -0.0336 -0.0340  0.1806
  195POPC   C1B 2710   5.111   0.568   4.197 -0.0669  0.5274  0.1559
  195POPC   C2B 2711   5.091   0.567   4.638 -0.0137 -0.1272  0.0872
  195POPC   C3B 2712   4.973   0.450   4.998  0.0213 -0.1334  0.0984
  195POPC   C4B 2713   4.770   0.397   5.274  0.0597 -0.3087  0.1002
  196POPC   NC3 2714   1.361   7.730   3.630  0.1800  0.3904  0.1475
  196POPC   PO4 2715   0.891   7.855   3.770 -0.1921 -0.0497 -0.0931
  196POPC   GL1 2716   0.847   7.953   4.264  0.2645 -0.1466  0.1141
  196POPC   GL2 2717   0.542   7.833   4.348  0.2265  0.2262 -0.1290
  196POPC   C1A 2718   0.882   8.079   4.607  0.1973  0.0572  0.3088
  196POPC   D2A 2719   1.185   8.051   4.945  0.1914  0.0849 -0.0140
  196POPC   C3A 2720   1.175   8.125   5.385 -0.0117  0.2534  0.0823
  196POPC   C4A 2721   1.215   8.553   5.613 -0.0467 -0.0645  0.0095
  196POPC   C1B 2722   0.496   7.838   4.811  0.1038 -0.4060  0.2229
  196POPC   C2B 2723   0.283   7.789   5.265  0.0926  0.1270 -0.2028
  196POPC   C3B 2724   0.133   7.882   5.766 -0.3421 -0.1654 -0.0338
  196POPC   C4B 2725  -0.059   8.232   5.998 -0.0788 -0.2781  0.2518
  197POPC   NC3 2726   5.306   4.619   3.909  0.1574 -0.3479  0.1871
  197POPC   PO4 2727   4.923   4.735   4.185  0.2396  0.2897  0.5191
  197POPC   GL1 2728   4.768   5.061   4.532 -0.0897  0.0181 -0.1581
  197POPC   GL2 2729   5.026   4.792   4.652 -0.0727 -0.1977 -0.0836
  197POPC   C1A 2730   4.696   5.222   5.001 -0.0043  0.5277  0.0038
  197POPC   D2A 2731   4.551   5.046   5.271 -0.1923  0.0602 -0.2957
  197POPC   C3A 2732   4.624   4.668   5.452 -0.0563 -0.1540  0.2696
  197POPC   C4A 2733   4.760   4.402   5.857  0.0306 -0.2694 -0.1045
  197POPC   C1B 2734   5.033   4.839   5.124 -0.0526  0.2240  0.2998
  197POPC   C2B 2735   5.048   4.388   5.288  0.1249 -0.1330  0.3537
  197POPC   C3B 2736   4.918   4.057   5.575 -0.2849  0.3676  0.0409
  197POPC   C4B 2737   4.704   3.741   5.677  0.3277  0.1624 -0.1976
  198POPC   NC3 2738   5.335   3.435   3.632  0.0523  0.2997 -0.0119
  198POPC   PO4 2739   5.331   2.943   3.645  0.1345 -0.2321 -0.1065
  198POPC   GL1 2740   5.410   2.724   3.946  0.2180 -0.2926 -0.1959
  198POPC   GL2 2741   5.751   2.705   4.079 -0.1431  0.0636 -0.2224
  198POPC   C1A 2742   5.378   2.636   4.386 -0.0461  0.1977 -0.1156
  198POPC   D2A 2743   5.255   2.290   4.780  0.0470 -0.0592  0.4121
  198POPC   C3A 2744   5.518   2.276   5.132 -0.1957  0.5241  0.0971
  198POPC   C4A 2745   5.433   2.172   5.479 -0.2406  0.3750  0.0995
  198POPC   C1B 2746   5.911   2.911   4.411  0.1152 -0.2335 -0.1332
  198POPC   C2B 2747   5.843   2.754   4.918  0.0153  0.0213 -0.2028
  198POPC   C3B 2748   5.769   2.621   5.333 -0.4541 -0.1953 -0.1807
  198POPC   C4B 2749   5.862   2.556   5.678  0.0738  0.0795  0.1685
  199POPC   NC3 2750   4.464   7.838   3.503 -0.0677  0.0406 -0.0103
  199POPC   PO4 2751   4.921   7.773   3.383  0.2062 -0.2736  0.2817
  199POPC   GL1 2752   4.828   7.848   3.857 -0.2632  0.0365 -0.1611
  199POPC   GL2 2753   5.064   7.806   4.034 -0.2597 -0.0392  0.0308
  199POPC   C1A 2754   4.665   8.157   4.127 -0.2453 -0.1328 -0.0261
  199POPC   D2A 2755   5.044   8.341   4.474  0.1889 -0.3412 -0.0347
  199POPC   C3A 2756   5.295   8.172   4.829  0.1839 -0.0083 -0.0397
  199POPC   C4A 2757   5.543   7.811   5.012  0.0234  0.1581 -0.0854
  199POPC   C1B 2758   5.192   7.432   4.301 -0.1486 -0.1265  0.0695
  199POPC   C2B 2759   5.267   7.425   4.781 -0.2200  0.0988  0.3413
  199POPC   C3B 2760   5.321   7.406   5.180 -0.1954 -0.0206  0.1037
  199POPC   C4B 2761   5.202   7.243   5.530 -0.4515 -0.0247  0.0941
  200POPC   NC3 2762   9.518   5.365   3.959  0.1354  0.3220 -0.0766
  200POPC   PO4 2763   9.866   5.684   4.055 -0.1771 -0.0845 -0.0280
  200POPC   GL1 2764  10.110   5.577   4.453 -0.1414  0.1586 -0.0572
  200POPC   GL2 2765  10.393   5.432   4.399  0.2051  0.2719 -0.6066
  200POPC   C1A 2766  10.263   5.455   4.957  0.0106 -0.1888 -0.1005
  200POPC   D2A 2767  10.447   5.654   5.248 -0.1360 -0.0359  0.0455
  200POPC   C3A 2768  10.871   5.840   5.465  0.3770 -0.1501 -0.1392
  200POPC   C4A 2769  10.850   6.075   5.847 -0.2805  0.0842  0.0762
  200POPC   C1B 2770  10.746   5.339   4.661 -0.4256 -0.2759  0.1049
  200POPC   C2B 2771  10.770   5.181   5.081 -0.0057 -0.1456 -0.2684
  200POPC   C3B 2772  11.035   5.318   5.457 -0.0115 -0.0298 -0.0722
  200POPC   C4B 2773  11.137   5.269   5.926  0.0860  0.1451 -0.2555
  201POPC   NC3 2774   0.146   9.195   3.046  0.0321  0.0878  0.0340
  201POPC   PO4 2775   0.416   9.377   3.284  0.3497 -0.0915 -0.1120
  201POPC   GL1 2776   0.474   9.567   3.722 -0.1081 -0.0283 -0.3345
  201POPC   GL2 2777   0.443   9.178   3.795  0.1068  0.1832 -0.2557
  201POPC   C1A 2778   0.385   9.720   4.145 -0.0123 -0.1873  0.1342
  201POPC   D2A 2779   0.279   9.954   4.497  0.0010 -0.0494  0.1926
  201POPC   C3A 2780  -0.036  10.330   4.660  0.2014  0.1078  0.0319
  201POPC   C4A 2781  -0.105  10.386   4.979  0.4254  0.0232  0.1977
  201POPC   C1B 2782   0.664   9.272   4.192  0.3404  0.0920  0.2558
  201POPC   C2B 2783   0.571   9.455   4.609  0.1303 -0.0665 -0.0753
  201POPC   C3B 2784   0.584   9.210   5.036 -0.0217 -0.0977 -0.0991
  201POPC   C4B 2785   0.661   9.223   5.439 -0.1008  0.0341 -0.1709
  202POPC   NC3 2786   9.752   6.165   4.030  0.3212 -0.0399  0.0037
  202POPC   PO4 2787   9.347   5.917   4.050  0.2649  0.3059  0.3421
  202POPC   GL1 2788   9.603   6.011   4.524 -0.1557 -0.0311  0.1525
  202POPC   GL2 2789   9.698   6.232   4.755  0.0160  0.0514 -0.2816
  202POPC   C1A 2790   9.764   5.774   4.922  0.2592  0.1156  0.1388
  202POPC   D2A 2791   9.863   5.534   5.363  0.2618 -0.1177  0.2004
  202POPC   C3A 2792  10.179   5.398   5.561  0.1252 -0.0745 -0.1093
  202POPC   C4A 2793  10.554   5.342   5.578 -0.1288  0.3331 -0.0132
  202POPC   C1B 2794   9.867   6.476   5.126 -0.0611  0.3183  0.2470
  202POPC   C2B 2795   9.880   6.535   5.492  0.3127 -0.0383  0.2005
  202POPC   C3B 2796   9.576   6.687   5.740 -0.0587 -0.2204  0.0034
  202POPC   C4B 2797   9.251   6.867   5.809  0.0930  0.2663 -0.0575
  203POPC   NC3 2798   6.303   0.792   3.179 -0.0603 -0.2091  0.2458
  203POPC   PO4 2799   5.954   0.626   3.074  0.1463  0.0520  0.2666
  203POPC   GL1 2800   5.864   0.310   3.344  0.3593 -0.2721  0.0156
  203POPC   GL2 2801   5.584   0.140   3.429  0.0024  0.0262 -0.0354
  203POPC   C1A 2802   5.724   0.410   3.825 -0.2855  0.0658  0.0081
  203POPC   D2A 2803   5.558   0.667   4.074  0.0185  0.1191 -0.0018
  203POPC   C3A 2804   5.559   0.420   4.431 -0.1158 -0.0751 -0.1957
  203POPC   C4A 2805   5.433   0.208   4.865  0.1116 -0.0362  0.0248
  203POPC   C1B 2806   5.368   0.042   3.817  0.2449  0.0763  0.2150
  203POPC   C2B 2807   5.201   0.083   4.267  0.0893 -0.1651 -0.1100
  203POPC   C3B 2808   4.970   0.055   4.530  0.0086  0.0384  0.4537
  203POPC   C4B 2809   4.888  -0.155   4.950 -0.1902 -0.0453 -0.3203
  204POPC   NC3 2810   6.482   4.093   3.941  0.1806  0.0297  0.2007
  204POPC   PO4 2811   6.852   4.168   4.120 -0.2122  0.1890 -0.2923
  204POPC   GL1 2812   6.802   4.172   4.540 -0.0349  0.0662 -0.3838
  204POPC   GL2 2813   6.517   3.863   4.528  0.1889 -0.2105  0.0317
  204POPC   C1A 2814   6.839   3.864   4.901  0.0659  0.0131  0.0458
  204POPC   D2A 2815   6.609   3.582   5.209  0.0678  0.2323 -0.0986
  204POPC   C3A 2816   6.870   3.514   5.363 -0.0349  0.0483 -0.1972
  204POPC   C4A 2817   6.917   3.435   5.822 -0.0948  0.2592 -0.2006
  204POPC   C1B 2818   6.229   3.669   4.708  0.0319  0.1419  0.2525
  204POPC   C2B 2819   6.185   3.244   4.723 -0.6336 -0.0969 -0.1222
  204POPC   C3B 2820   6.312   2.887   4.779  0.1954  0.0480 -0.0914
  204POPC   C4B 2821   6.249   2.645   5.148  0.0845  0.1317  0.3877
  205POPC   NC3 2822   1.783   8.931   2.992  0.2883  0.0342 -0.1168
  205POPC   PO4 2823   1.771   8.710   3.403  0.1088  0.2775  0.0477
  205POPC   GL1 2824   1.893   8.856   3.833 -0.0825  0.0577  0.0123
  205POPC   GL2 2825   1.528   9.026   3.788 -0.5090  0.0355  0.4058
  205POPC   C1A 2826   2.039   9.022   4.293 -0.0969 -0.0402 -0.0704
  205POPC   D2A 2827   2.031   9.179   4.668  0.2114 -0.5390  0.0589
  205POPC   C3A 2828   2.316   9.200   5.046  0.0685 -0.2521  0.2434
  205POPC   C4A 2829   2.551   9.384   5.397  0.0283 -0.5411  0.1083
  205POPC   C1B 2830   1.525   9.243   4.200  0.1475  0.0790  0.1238
  205POPC   C2B 2831   1.624   9.435   4.588 -0.0801 -0.0118  0.0858
  205POPC   C3B 2832   1.700   9.411   5.114  0.0693  0.2371  0.0690
  205POPC   C4B 2833   1.875   9.040   5.289 -0.0522 -0.2584  0.0502
  206POPC   NC3 2834   3.117   0.196   3.514 -0.1292  0.3056 -0.1372
  206POPC   PO4 2835   3.423   0.529   3.539  0.0484  0.0168 -0.0973
  206POPC   GL1 2836   3.438   0.632   3.989 -0.3087  0.0420  0.1664
  206POPC   GL2 2837   3.243   0.438   4.030 -0.0207  0.0229  0.2728
  206POPC   C1A 2838   3.463   0.667   4.446  0.2794  0.1019  0.2949
  206POPC   D2A 2839   3.562   0.804   4.855 -0.2151 -0.0199  0.4321
  206POPC   C3A 2840   3.313   1.111   4.787 -0.1736 -0.1979  0.2332
  206POPC   C4A 2841   3.285   1.465   4.958  0.1592  0.0401  0.0177
  206POPC   C1B 2842   2.950   0.577   4.333 -0.1329 -0.2150 -0.2041
  206POPC   C2B 2843   2.955   0.799   4.787  0.1397 -0.2169 -0.1948
  206POPC   C3B 2844   2.823   1.058   5.213  0.2413 -0.2367 -0.0683
  206POPC   C4B 2845   2.686   1.241   5.594  0.0960  0.3679  0.1630
  207POPC   NC3 2846   9.216   2.842   3.740  0.0758  0.1287 -0.3694
  207POPC   PO4 2847   9.316   2.411   3.624 -0.0309  0.0959  0.1230
  207POPC   GL1 2848   9.487   2.336   4.035 -0.0568  0.2527 -0.0868
  207POPC   GL2 2849   9.531   2.621   4.163  0.0810 -0.3103  0.0435
  207POPC   C1A 2850   9.929   2.403   4.453  0.0543  0.1075  0.4057
  207POPC   D2A 2851  10.227   2.149   4.567 -0.3246 -0.0003 -0.0084
  207POPC   C3A 2852  10.424   1.821   4.313  0.3718 -0.0492 -0.1517
  207POPC   C4A 2853  10.766   1.852   4.089 -0.1497 -0.3900 -0.0216
  207POPC   C1B 2854   9.434   3.007   4.482  0.1158 -0.1441 -0.2813
  207POPC   C2B 2855   9.380   3.113   4.872 -0.3035 -0.2499  0.2196
  207POPC   C3B 2856   9.462   3.070   5.314 -0.0016  0.2205  0.1351
  207POPC   C4B 2857   9.687   2.675   5.498 -0.0709  0.0406 -0.0675
  208POPC   NC3 2858   6.856   5.632   3.759  0.2985 -0.0756  0.2795
  208POPC   PO4 2859   7.245   5.913   4.016  0.4297  0.0898  0.0030
  208POPC   GL1 2860   7.367   6.229   4.287 -0.0669 -0.0502 -0.1454
  208POPC   GL2 2861   7.330   6.570   4.401 -0.2717  0.0152  0.3762
  208POPC   C1A 2862   7.463   6.158   4.750  0.0404  0.1937  0.1888
  208POPC   D2A 2863   7.437   6.037   5.257 -0.0324  0.2386  0.0397
  208POPC   C3A 2864   7.432   6.264   5.547 -0.1638  0.1312 -0.0789
  208POPC   C4A 2865   6.951   6.200   5.704 -0.0058  0.0623  0.0583
  208POPC   C1B 2866   7.442   6.589   4.975  0.3097  0.0016  0.2081
  208POPC   C2B 2867   7.436   6.830   5.268  0.0198  0.1198  0.4406
  208POPC   C3B 2868   7.647   7.193   5.419  0.5530 -0.0888 -0.0406
  208POPC   C4B 2869   7.861   7.332   5.824  0.1438 -0.3075 -0.2710
  209POPC   NC3 2870   8.740   6.692   4.151 -0.0408  0.0240  0.0539
  209POPC   PO4 2871   8.281   6.605   4.215  0.0439 -0.1058  0.1046
  209POPC   GL1 2872   8.464   6.485   4.656 -0.0453  0.0330 -0.1460
  209POPC   GL2 2873   8.827   6.476   4.762  0.0563 -0.5697 -0.1532
  209POPC   C1A 2874   8.366   6.365   5.127 -0.0939 -0.3081  0.4392
  209POPC   D2A 2875   8.324   6.458   5.561  0.0343 -0.0514  0.0686
  209POPC   C3A 2876   7.976   6.374   5.863 -0.1564  0.3236  0.1971
  209POPC   C4A 2877   7.830   6.545   6.160 -0.1102 -0.0395 -0.1288
  209POPC   C1B 2878   9.176   6.258   4.654 -0.3386  0.0857 -0.1295
  209POPC   C2B 2879   9.378   6.108   5.091  0.0605  0.0932 -0.1978
  209POPC   C3B 2880   9.654   6.076   5.413  0.1824  0.1585  0.0320
  209POPC   C4B 2881  10.046   5.834   5.799 -0.1496 -0.1638 -0.2493
  210POPC   NC3 2882   3.557   3.510   3.903 -0.3944 -0.1402 -0.0237
  210POPC   PO4 2883   3.517   3.071   3.984 -0.0453 -0.1145  0.2276
  210POPC   GL1 2884   3.534   2.805   4.295 -0.1201 -0.1281 -0.0747
  210POPC   GL2 2885   3.769   2.725   4.345 -0.2580 -0.0273 -0.1318
  210POPC   C1A 2886   3.455   2.522   4.748  0.0583  0.0301 -0.3552
  210POPC   D2A 2887   3.669   2.177   5.067 -0.0282 -0.2530 -0.0712
  210POPC   C3A 2888   4.001   2.120   5.333  0.0695 -0.1483  0.0253
  210POPC   C4A 2889   4.500   2.114   5.317  0.1042  0.2231  0.2999
  210POPC   C1B 2890   4.289   2.902   4.413 -0.1937  0.0002 -0.0324
  210POPC   C2B 2891   4.571   2.699   4.633  0.0028  0.1093  0.2336
  210POPC   C3B 2892   4.811   2.433   4.992 -0.1200 -0.0683 -0.0343
  210POPC   C4B 2893   5.026   2.225   5.193  0.1172 -0.0191  0.1185
  211POPC   NC3 2894   1.401   8.379   3.528 -0.2474 -0.3107 -0.5907
  211POPC   PO4 2895   1.776   8.125   3.664 -0.3072  0.0378 -0.0988
  211POPC   GL1 2896   1.757   8.365   4.031 -0.1904 -0.0407 -0.0565
  211POPC   GL2 2897   1.590   8.593   4.218  0.3199  0.1638 -0.1336
  211POPC   C1A 2898   2.010   8.352   4.503  0.0944 -0.2798 -0.3045
  211POPC   D2A 2899   2.160   8.320   5.017 -0.0883 -0.5723 -0.0471
  211POPC   C3A 2900   2.529   8.421   5.089  0.0067 -0.0629  0.0512
  211POPC   C4A 2901   3.032   8.356   5.143 -0.1217 -0.0445  0.0809
  211POPC   C1B 2902   1.602   8.924   4.549  0.2224  0.3270  0.0196
  211POPC   C2B 2903   1.432   9.075   4.898  0.1303 -0.1049 -0.0723
  211POPC   C3B 2904   1.057   9.009   5.244  0.0759 -0.1299 -0.0417
  211POPC   C4B 2905   0.974   8.951   5.743 -0.2152 -0.0950 -0.1116
  212POPC   NC3 2906   6.551   2.687   2.919  0.1190 -0.0223  0.2243
  212POPC   PO4 2907   6.190   2.758   3.189 -0.2132  0.0870 -0.2543
  212POPC   GL1 2908   6.064   2.549   3.519 -0.1741  0.2188 -0.2695
  212POPC   GL2 2909   5.737   2.741   3.521  0.3028  0.2634 -0.1625
  212POPC   C1A 2910   6.178   2.242   3.908  0.2214  0.0420 -0.3784
  212POPC   D2A 2911   6.105   2.418   4.339 -0.2848  0.0532  0.0697
  212POPC   C3A 2912   5.849   2.283   4.755 -0.0943 -0.0049 -0.0143
  212POPC   C4A 2913   6.038   2.152   5.136  0.0161 -0.0938 -0.1046
  212POPC   C1B 2914   5.660   2.368   3.780 -0.1416 -0.0686 -0.0049
  212POPC   C2B 2915   5.557   1.969   3.635 -0.3008  0.0762  0.0265
  212POPC   C3B 2916   5.255   1.671   3.757 -0.2260 -0.0875  0.2357
  212POPC   C4B 2917   5.189   1.434   4.123 -0.1704 -0.2278  0.1173
  213POPC   NC3 2918   8.665   3.492   3.998 -0.0784  0.0881 -0.1379
  213POPC   PO4 2919   8.184   3.298   4.036  0.3396 -0.2273  0.1395
  213POPC   GL1 2920   8.497   3.281   4.416 -0.1692 -0.0896 -0.2955
  213POPC   GL2 2921   8.607   3.524   4.523  0.1027 -0.3329  0.0355
  213POPC   C1A 2922   8.391   3.104   4.817 -0.0671  0.1033  0.4626
  213POPC   D2A 2923   8.328   3.279   5.274 -0.0215 -0.0413  0.0250
  213POPC   C3A 2924   8.371   3.138   5.642  0.1983 -0.2056  0.2311
  213POPC   C4A 2925   8.295   2.976   6.008 -0.2129 -0.1463 -0.1250
  213POPC   C1B 2926   8.648   3.533   4.988 -0.0442 -0.1592  0.0436
  213POPC   C2B 2927   8.715   3.563   5.533  0.0144  0.0803 -0.1467
  213POPC   C3B 2928   9.039   3.771   5.830 -0.0380 -0.3707 -0.1372
  213POPC   C4B 2929   9.335   3.963   6.099 -0.1910  0.0522  0.1347
  214POPC   NC3 2930   8.251   7.658   3.288  0.2806 -0.0171  0.2546
  214POPC   PO4 2931   8.184   7.351   3.608  0.1435  0.0824 -0.1581
  214POPC   GL1 2932   8.284   7.560   4.064  0.0976  0.0340 -0.0755
  214POPC   GL2 2933   8.635   7.745   4.079 -0.1226  0.1072 -0.1039
  214POPC   C1A 2934   8.094   7.949   4.206 -0.3332  0.0501 -0.1115
  214POPC   D2A 2935   8.023   8.072   4.567 -0.0629 -0.0595 -0.2604
  214POPC   C3A 2936   7.913   7.797   4.915 -0.4951  0.0210 -0.1163
  214POPC   C4A 2937   8.077   7.458   5.156  0.0348 -0.0319 -0.1263
  214POPC   C1B 2938   9.067   7.765   4.185  0.0520 -0.3552 -0.1423
  214POPC   C2B 2939   9.453   7.859   4.402  0.2348  0.3310  0.1063
  214POPC   C3B 2940   9.739   7.869   4.857 -0.2161  0.0113  0.1119
  214POPC   C4B 2941   9.870   8.010   5.196  0.3016  0.1670 -0.0879
  215POPC   NC3 2942   7.309   0.502   2.743 -0.0902  0.0614 -0.1074
  215POPC   PO4 2943   7.260   0.865   3.011 -0.1421  0.1129  0.0107
  215POPC   GL1 2944   7.173   0.653   3.390 -0.1888  0.1931  0.0809
  215POPC   GL2 2945   7.411   0.694   3.598  0.2291  0.4141 -0.0749
  215POPC   C1A 2946   6.996   0.383   3.678 -0.0116  0.2659 -0.0297
  215POPC   D2A 2947   6.787   0.194   3.894  0.0401 -0.1451  0.0914
  215POPC   C3A 2948   6.492   0.140   4.204  0.3783  0.3276  0.4179
  215POPC   C4A 2949   6.368   0.431   4.577 -0.1931  0.0381 -0.0315
  215POPC   C1B 2950   7.037   0.752   3.944 -0.1698 -0.1044 -0.1311
  215POPC   C2B 2951   7.024   1.014   4.318 -0.1093 -0.0667 -0.3057
  215POPC   C3B 2952   6.796   1.187   4.651 -0.0090  0.3618  0.2900
  215POPC   C4B 2953   6.707   1.629   4.906 -0.1759 -0.1219  0.3678
  216POPC   NC3 2954   0.425   6.060   3.834  0.0230  0.0197 -0.3575
  216POPC   PO4 2955   0.155   5.943   3.989  0.1682  0.0129 -0.1379
  216POPC   GL1 2956   0.082   6.118   4.349  0.1320  0.0591 -0.1380
  216POPC   GL2 2957  -0.047   6.324   4.394  0.2347 -0.0958  0.4001
  216POPC   C1A 2958   0.224   5.956   4.768 -0.1828  0.0239 -0.0282
  216POPC   D2A 2959   0.058   6.060   5.200  0.3189 -0.1112 -0.0216
  216POPC   C3A 2960   0.324   6.054   5.575 -0.1232  0.0293 -0.0363
  216POPC   C4A 2961   0.251   6.289   5.909 -0.1210  0.1375 -0.1151
  216POPC   C1B 2962   0.150   6.489   4.780  0.1441 -0.0529 -0.0526
  216POPC   C2B 2963   0.294   6.540   5.228 -0.2911 -0.0350 -0.0999
  216POPC   C3B 2964   0.561   6.834   5.226  0.0788  0.2898  0.2313
  216POPC   C4B 2965   0.969   7.107   5.427  0.1749  0.1094 -0.1220
  217POPC   NC3 2966   6.155   3.037   3.602 -0.1714  0.2748  0.0937
  217POPC   PO4 2967   5.789   3.122   3.790  0.3061 -0.0604  0.2059
  217POPC   GL1 2968   5.470   3.194   4.107  0.2268  0.3307  0.1994
  217POPC   GL2 2969   5.201   3.313   4.167  0.1710  0.0179 -0.0044
  217POPC   C1A 2970   5.460   3.185   4.565 -0.2226  0.1109  0.0969
  217POPC   D2A 2971   5.596   3.238   5.018  0.2501  0.0290 -0.2401
  217POPC   C3A 2972   5.564   3.484   5.355  0.1620 -0.0012 -0.0139
  217POPC   C4A 2973   5.588   3.884   5.542  0.1182  0.1734 -0.0103
  217POPC   C1B 2974   5.142   3.536   4.600  0.1636 -0.0814  0.0450
  217POPC   C2B 2975   5.053   3.232   4.980  0.1406 -0.1662  0.1135
  217POPC   C3B 2976   5.204   3.162   5.410  0.2178  0.0114 -0.0163
  217POPC   C4B 2977   5.343   3.256   5.791  0.0498  0.2098 -0.0442
  218POPC   NC3 2978   2.082   3.509   3.723 -0.2383  0.1277  0.1639
  218POPC   PO4 2979   1.627   3.629   3.823 -0.2862  0.3070 -0.2189
  218POPC   GL1 2980   1.651   3.389   4.063  0.2855 -0.0781 -0.0934
  218POPC   GL2 2981   1.968   3.545   4.253  0.1006  0.1438 -0.1302
  218POPC   C1A 2982   1.655   3.141   4.422 -0.0024  0.3503 -0.0638
  218POPC   D2A 2983   1.469   2.782   4.628 -0.1727 -0.1441 -0.0661
  218POPC   C3A 2984   1.312   2.391   4.296  0.0511 -0.2369  0.0684
  218POPC   C4A 2985   1.144   1.940   4.174  0.0344 -0.1095 -0.0697
  218POPC   C1B 2986   2.254   3.253   4.573  0.0736  0.0073 -0.1097
  218POPC   C2B 2987   2.486   2.870   4.705  0.1629 -0.0100  0.0367
  218POPC   C3B 2988   2.401   2.461   4.837  0.0121  0.2164 -0.1186
  218POPC   C4B 2989   2.560   2.197   5.073  0.1991 -0.0074 -0.1087
  219POPC   NC3 2990   1.941   5.174   3.538  0.1557  0.0894  0.1595
  219POPC   PO4 2991   1.755   5.481   3.711 -0.0849 -0.0175 -0.0974
  219POPC   GL1 2992   1.759   5.680   4.142 -0.1419 -0.0368 -0.1915
  219POPC   GL2 2993   1.518   5.553   4.424 -0.1681 -0.2880  0.0895
  219POPC   C1A 2994   1.943   5.896   4.422 -0.0198 -0.1293 -0.0191
  219POPC   D2A 2995   1.801   6.069   4.723 -0.3650  0.0056 -0.1127
  219POPC   C3A 2996   2.020   6.397   4.992  0.1150  0.0093  0.0641
  219POPC   C4A 2997   1.989   6.794   5.194 -0.2615 -0.1218  0.0799
  219POPC   C1B 2998   1.488   5.615   4.842  0.1744 -0.0983 -0.0252
  219POPC   C2B 2999   1.850   5.527   5.158 -0.2846  0.1857 -0.0350
  219POPC   C3B 3000   2.082   5.574   5.565  0.0964  0.2665  0.1819
  219POPC   C4B 3001   2.383   5.964   5.535 -0.1957  0.4415  0.2876
  220POPC   NC3 3002   5.173   3.804   3.993  0.1401  0.1877 -0.0340
  220POPC   PO4 3003   5.645   3.733   3.977  0.2229 -0.1215 -0.0379
  220POPC   GL1 3004   5.517   3.971   4.327  0.0881 -0.0197 -0.0491
  220POPC   GL2 3005   5.685   3.701   4.484 -0.1685 -0.0006 -0.0513
  220POPC   C1A 3006   5.370   4.069   4.734  0.0180  0.1108 -0.0695
  220POPC   D2A 3007   5.573   4.135   5.064 -0.3347  0.0316 -0.1075
  220POPC   C3A 3008   5.512   4.390   5.515  0.0283 -0.0622 -0.2304
  220POPC   C4A 3009   5.637   4.599   5.925  0.1366 -0.1205 -0.2167
  220POPC   C1B 3010   5.797   3.712   4.918  0.2098  0.1243 -0.0147
  220POPC   C2B 3011   6.093   3.607   5.191 -0.1391 -0.0399 -0.1189
  220POPC   C3B 3012   6.028   3.163   5.287 -0.2129  0.2748 -0.1962
  220POPC   C4B 3013   5.689   3.027   5.530 -0.4341  0.0795  0.0828
  221POPC   NC3 3014   8.298   1.296   3.680 -0.2543 -0.1201  0.0772
  221POPC   PO4 3015   8.113   1.633   3.796  0.1826 -0.0675 -0.2098
  221POPC   GL1 3016   8.040   2.007   4.128 -0.0368 -0.2507  0.0710
  221POPC   GL2 3017   7.719   2.162   4.035 -0.0940 -0.3028  0.4715
  221POPC   C1A 3018   8.122   2.344   4.280  0.0035 -0.0896 -0.0580
  221POPC   D2A 3019   8.267   2.540   4.701 -0.1053  0.0701  0.3093
  221POPC   C3A 3020   8.266   2.295   5.035  0.0084  0.1023 -0.2614
  221POPC   C4A 3021   8.225   1.903   5.267  0.3521 -0.0439  0.0187
  221POPC   C1B 3022   7.482   1.845   4.152  0.0625  0.4443 -0.1062
  221POPC   C2B 3023   7.036   1.890   4.246 -0.1555  0.4781 -0.0290
  221POPC   C3B 3024   6.679   1.985   4.427 -0.2122  0.0207 -0.1944
  221POPC   C4B 3025   6.352   2.179   4.772  0.1533  0.0655 -0.4338
  222POPC   NC3 3026   3.444   4.661   3.385 -0.0801  0.1150  0.1917
  222POPC   PO4 3027   3.391   4.941   3.861 -0.1751  0.2242  0.0416
  222POPC   GL1 3028   3.613   5.167   4.142  0.1352  0.3906 -0.1362
  222POPC   GL2 3029   3.785   4.872   4.302  0.3607 -0.1969  0.1357
  222POPC   C1A 3030   3.788   5.318   4.506 -0.0630  0.1079  0.1126
  222POPC   D2A 3031   3.939   5.725   4.652  0.1646  0.0653  0.0348
  222POPC   C3A 3032   4.020   5.759   5.150  0.1784 -0.3365  0.3259
  222POPC   C4A 3033   4.304   5.994   5.388 -0.0732 -0.1347  0.3916
  222POPC   C1B 3034   3.956   4.730   4.837  0.1761  0.0076 -0.0419
  222POPC   C2B 3035   3.736   4.568   5.167 -0.4838 -0.1293 -0.1016
  222POPC   C3B 3036   3.383   4.324   5.259 -0.7240  0.1268 -0.1885
  222POPC   C4B 3037   3.049   4.115   5.381 -0.2290 -0.0339 -0.2668
  223POPC   NC3 3038   5.996   7.346   3.559  0.2235  0.1522  0.1826
  223POPC   PO4 3039   5.523   7.203   3.658 -0.5017  0.2495 -0.3800
  223POPC   GL1 3040   5.590   7.482   3.948  0.0043  0.1010  0.1355
  223POPC   GL2 3041   5.638   7.804   3.955 -0.0159 -0.4229 -0.1172
  223POPC   C1A 3042   5.643   7.564   4.371  0.3426  0.2776  0.3185
  223POPC   D2A 3043   5.845   7.441   4.804 -0.1754  0.0046  0.0124
  223POPC   C3A 3044   5.799   7.402   5.290  0.0989  0.2753  0.2885
  223POPC   C4A 3045   5.787   7.086   5.594 -0.1005  0.2344  0.1303
  223POPC   C1B 3046   5.434   8.017   4.313  0.0868 -0.1825  0.2593
  223POPC   C2B 3047   5.152   7.824   4.549  0.0593  0.0859 -0.0451
  223POPC   C3B 3048   4.708   7.968   4.596  0.0761 -0.0801 -0.1184
  223POPC   C4B 3049   4.269   7.919   4.457  0.4523  0.2217 -0.0580
  224POPC   NC3 3050   2.398   9.533   2.795 -0.0923  0.1415  0.1183
  224POPC   PO4 3051   2.377   9.533   3.295 -0.0669 -0.4269 -0.1059
  224POPC   GL1 3052   2.264   9.567   3.816 -0.4179  0.0549 -0.0900
  224POPC   GL2 3053   1.969   9.343   3.901  0.1645  0.0824  0.0600
  224POPC   C1A 3054   2.475   9.408   4.218  0.1503  0.1751  0.0356
  224POPC   D2A 3055   2.595   9.070   4.481  0.2061  0.1914 -0.0819
  224POPC   C3A 3056   2.940   8.879   4.197  0.1650 -0.0592 -0.0527
  224POPC   C4A 3057   3.362   8.799   4.362 -0.2854 -0.0680  0.0290
  224POPC   C1B 3058   2.029   9.575   4.306 -0.1487  0.2152  0.4193
  224POPC   C2B 3059   2.282   9.639   4.683 -0.3529 -0.0595 -0.1364
  224POPC   C3B 3060   2.308   9.851   5.040 -0.1141 -0.0961 -0.0925
  224POPC   C4B 3061   2.327  10.354   5.026 -0.2182  0.0715 -0.0400
  225POPC   NC3 3062   7.990   8.954   3.439 -0.2004 -0.0296  0.0275
  225POPC   PO4 3063   7.937   8.587   3.289  0.0889  0.1465 -0.1301
  225POPC   GL1 3064   7.984   8.400   3.708  0.1268 -0.1915 -0.2769
  225POPC   GL2 3065   7.719   8.261   3.846 -0.2872 -0.3118 -0.1971
  225POPC   C1A 3066   8.318   8.249   3.872  0.0792  0.1162  0.2717
  225POPC   D2A 3067   8.600   8.278   4.126  0.1420 -0.2006 -0.2114
  225POPC   C3A 3068   9.092   8.271   4.165 -0.1064  0.0872  0.1288
  225POPC   C4A 3069   9.255   8.294   4.600 -0.2659 -0.0052  0.0696
  225POPC   C1B 3070   7.561   7.974   4.311 -0.1532 -0.2489 -0.1539
  225POPC   C2B 3071   7.460   7.865   4.791  0.1705  0.2099  0.2155
  225POPC   C3B 3072   7.512   7.527   5.074 -0.0305 -0.1440 -0.1842
  225POPC   C4B 3073   7.751   7.231   4.925  0.2418 -0.2532  0.0962
  226POPC   NC3 3074   7.720   4.457   3.904  0.1050  0.0308 -0.0091
  226POPC   PO4 3075   7.644   4.725   4.250  0.0308  0.4091 -0.0689
  226POPC   GL1 3076   7.737   4.524   4.716  0.0165  0.1881  0.3417
  226POPC   GL2 3077   8.030   4.255   4.622 -0.1461  0.1122  0.1779
  226POPC   C1A 3078   7.625   4.715   5.203 -0.0023  0.1328  0.4204
  226POPC   D2A 3079   7.441   5.109   5.331 -0.0423 -0.0249 -0.0567
  226POPC   C3A 3080   7.408   5.198   5.796  0.2625  0.0617  0.0341
  226POPC   C4A 3081   7.363   5.277   6.255 -0.0526 -0.0556  0.1159
  226POPC   C1B 3082   7.970   4.300   5.094 -0.1554 -0.2455 -0.2798
  226POPC   C2B 3083   7.928   4.216   5.498 -0.3832  0.0150  0.0866
  226POPC   C3B 3084   7.901   4.496   5.798 -0.1838 -0.3641 -0.0380
  226POPC   C4B 3085   7.800   4.940   5.637  0.0386 -0.0036  0.0578
  227POPC   NC3 3086   1.253   5.630   3.830 -0.0446 -0.0670  0.0648
  227POPC   PO4 3087   1.142   5.981   3.611 -0.1888  0.0302 -0.0803
  227POPC   GL1 3088   1.121   6.004   4.098 -0.1613  0.1656 -0.0694
  227POPC   GL2 3089   0.879   6.055   4.259 -0.0880 -0.0854  0.2769
  227POPC   C1A 3090   1.324   6.074   4.510 -0.0227 -0.0291  0.1846
  227POPC   D2A 3091   1.303   6.024   4.983  0.1148 -0.3056  0.0037
  227POPC   C3A 3092   1.641   6.070   5.199 -0.5091  0.0418  0.1438
  227POPC   C4A 3093   1.914   6.053   5.568  0.0099 -0.1594 -0.0604
  227POPC   C1B 3094   0.853   6.165   4.703 -0.0286 -0.0515 -0.1348
  227POPC   C2B 3095   0.691   6.236   5.103  0.0614 -0.2353  0.3164
  227POPC   C3B 3096   0.679   6.419   5.504  0.4677 -0.0939 -0.1553
  227POPC   C4B 3097   0.648   6.567   5.887 -0.2559  0.0044 -0.3317
  228POPC   NC3 3098   4.248   2.789   3.722  0.4074 -0.0251  0.0429
  228POPC   PO4 3099   4.006   3.153   3.838  0.0048  0.3581 -0.2433
  228POPC   GL1 3100   3.911   3.191   4.311  0.1886 -0.0178 -0.1739
  228POPC   GL2 3101   3.645   3.348   4.458  0.2912  0.0860  0.1077
  228POPC   C1A 3102   3.983   3.026   4.737  0.3029  0.2867 -0.1594
  228POPC   D2A 3103   3.895   3.142   5.136 -0.3432  0.1333  0.1595
  228POPC   C3A 3104   3.692   3.532   5.066  0.0128 -0.2039  0.1370
  228POPC   C4A 3105   3.354   3.778   5.221 -0.0022  0.0322  0.0887
  228POPC   C1B 3106   3.503   3.021   4.832 -0.3282 -0.0737 -0.1900
  228POPC   C2B 3107   3.540   2.767   5.248 -0.0544 -0.3437  0.0390
  228POPC   C3B 3108   3.812   2.554   5.546 -0.1158  0.1101 -0.2313
  228POPC   C4B 3109   4.032   2.495   5.862  0.0139 -0.0720 -0.3083
  229POPC   NC3 3110   4.683   0.653   3.112  0.1497 -0.0305  0.0614
  229POPC   PO4 3111   4.288   0.517   3.344 -0.0657  0.3716  0.1875
  229POPC   GL1 3112   4.407   0.212   3.588 -0.2145  0.0581  0.3507
  229POPC   GL2 3113   4.205  -0.048   3.599 -0.2995 -0.1713  0.0717
  229POPC   C1A 3114   4.695  -0.031   3.791  0.1002  0.0697  0.0325
  229POPC   D2A 3115   4.633  -0.388   4.028  0.2369  0.0440  0.0243
  229POPC   C3A 3116   4.518  -0.225   4.494  0.2414 -0.0801 -0.1273
  229POPC   C4A 3117   4.586  -0.559   4.822 -0.1282 -0.0470 -0.4841
  229POPC   C1B 3118   4.118  -0.206   3.965  0.1094 -0.1004 -0.0338
  229POPC   C2B 3119   3.760  -0.198   4.230  0.1428 -0.0562  0.0077
  229POPC   C3B 3120   3.732  -0.438   4.640 -0.0495 -0.1475  0.0916
  229POPC   C4B 3121   3.628  -0.763   4.521  0.2138 -0.2345  0.0197
  230POPC   NC3 3122   0.914   1.774   3.226 -0.0004 -0.0796 -0.1100
  230POPC   PO4 3123   1.372   1.644   3.246  0.0936 -0.1997 -0.0788
  230POPC   GL1 3124   1.484   1.668   3.656  0.0171 -0.3623 -0.2738
  230POPC   GL2 3125   1.469   1.322   3.714  0.0237  0.1678 -0.0264
  230POPC   C1A 3126   1.634   1.843   4.069  0.1683  0.0089  0.2829
  230POPC   D2A 3127   1.823   1.773   4.367 -0.0933 -0.1981 -0.0010
  230POPC   C3A 3128   1.513   1.850   4.678  0.0957 -0.1765  0.3835
  230POPC   C4A 3129   1.641   1.834   5.150  0.2649 -0.0675  0.2180
  230POPC   C1B 3130   1.537   1.388   4.136 -0.1331  0.1138 -0.1312
  230POPC   C2B 3131   1.569   1.337   4.561  0.1880 -0.0606  0.3850
  230POPC   C3B 3132   1.685   1.360   4.862 -0.0777  0.3500  0.0630
  230POPC   C4B 3133   1.758   1.379   5.341 -0.2411 -0.0089  0.4012
  231POPC   NC3 3134   8.422   2.728   3.872 -0.0654 -0.1118 -0.0825
  231POPC   PO4 3135   8.792   2.984   4.009  0.0789  0.2433 -0.0060
  231POPC   GL1 3136   8.987   2.926   4.423 -0.0890 -0.0204  0.1151
  231POPC   GL2 3137   9.040   2.609   4.244 -0.2028  0.0164 -0.0156
  231POPC   C1A 3138   8.889   3.137   4.815  0.0665 -0.0240  0.4480
  231POPC   D2A 3139   8.772   3.002   5.201  0.0124 -0.0199  0.3716
  231POPC   C3A 3140   9.063   2.811   5.440 -0.5054  0.2197  0.0409
  231POPC   C4A 3141   9.164   2.512   5.794 -0.4050  0.1049  0.0041
  231POPC   C1B 3142   9.197   2.365   4.528  0.1829 -0.0645  0.0663
  231POPC   C2B 3143   9.459   2.226   4.883 -0.1774  0.0796  0.0626
  231POPC   C3B 3144   9.834   2.111   4.922  0.1453  0.1323 -0.4014
  231POPC   C4B 3145  10.349   2.111   5.067  0.1728  0.4099 -0.0462
  232POPC   NC3 3146   0.371   3.014   3.782 -0.1381  0.2917  0.1611
  232POPC   PO4 3147   0.426   3.490   3.951 -0.2721  0.0603 -0.1471
  232POPC   GL1 3148   0.301   3.255   4.320 -0.0223  0.1134 -0.2208
  232POPC   GL2 3149   0.317   3.461   4.522  0.1800  0.3460 -0.2286
  232POPC   C1A 3150   0.208   2.990   4.669 -0.0903  0.0060 -0.1145
  232POPC   D2A 3151   0.140   2.633   4.822 -0.0480 -0.3042 -0.1580
  232POPC   C3A 3152   0.087   2.558   5.278 -0.1405 -0.0324  0.0794
  232POPC   C4A 3153  -0.153   2.346   5.703  0.1196 -0.2382  0.2551
  232POPC   C1B 3154  -0.028   3.436   4.771 -0.1352  0.1551 -0.0322
  232POPC   C2B 3155  -0.255   3.331   5.227 -0.1646  0.0319  0.2712
  232POPC   C3B 3156  -0.258   3.319   5.604  0.0755 -0.3041 -0.1892
  232POPC   C4B 3157  -0.445   3.619   5.871  0.2081 -0.2640  0.1004
  233POPC   NC3 3158   6.341   9.781   2.977  0.1768  0.3551 -0.1302
  233POPC   PO4 3159   6.454   9.483   3.201  0.0626 -0.1671 -0.1377
  233POPC   GL1 3160   6.512   9.522   3.543 -0.2519 -0.3770 -0.1256
  233POPC   GL2 3161   6.149   9.548   3.610 -0.1508 -0.0576 -0.1866
  233POPC   C1A 3162   6.457   9.769   3.932  0.2277 -0.1363 -0.2726
  233POPC   D2A 3163   6.197   9.816   4.230 -0.2571  0.1640  0.2500
  233POPC   C3A 3164   6.411   9.958   4.615 -0.1113 -0.1130  0.1630
  233POPC   C4A 3165   6.337  10.146   5.039  0.3140  0.2232  0.1220
  233POPC   C1B 3166   5.923   9.383   4.071 -0.0924  0.0886 -0.1119
  233POPC   C2B 3167   5.832   9.511   4.378 -0.0940 -0.0516  0.2547
  233POPC   C3B 3168   5.547   9.392   4.694 -0.1565 -0.0129  0.1783
  233POPC   C4B 3169   5.326   9.192   4.964 -0.0493  0.0565 -0.2384
  234POPC   NC3 3170   2.715   5.354   3.369  0.2473  0.0384  0.0793
  234POPC   PO4 3171   2.451   5.435   3.659 -0.2093 -0.2072 -0.2365
  234POPC   GL1 3172   2.553   5.596   4.078  0.2757 -0.3043 -0.1992
  234POPC   GL2 3173   2.594   5.230   4.127  0.0924  0.1356  0.2348
  234POPC   C1A 3174   2.508   5.602   4.503 -0.1019  0.3609  0.3090
  234POPC   D2A 3175   2.494   5.264   4.823 -0.0381 -0.0937  0.2944
  234POPC   C3A 3176   2.128   5.177   5.075 -0.1358 -0.0420 -0.0943
  234POPC   C4A 3177   1.648   5.111   4.908  0.1877 -0.0137  0.0964
  234POPC   C1B 3178   2.820   5.104   4.478 -0.1066 -0.1030  0.0388
  234POPC   C2B 3179   2.874   4.928   4.967  0.0668  0.0944  0.1111
  234POPC   C3B 3180   2.838   4.602   5.243  0.0109 -0.0651 -0.1507
  234POPC   C4B 3181   2.736   4.498   5.647 -0.2322  0.1159  0.4257
  235POPC   NC3 3182   1.042   4.775   3.448 -0.4582 -0.0902 -0.1944
  235POPC   PO4 3183   1.037   4.780   3.921 -0.1268  0.0245 -0.1364
  235POPC   GL1 3184   1.109   4.477   4.242  0.0839  0.0376 -0.0273
  235POPC   GL2 3185   1.407   4.664   4.310 -0.1067  0.1155  0.4881
  235POPC   C1A 3186   1.146   4.163   4.442 -0.1303  0.2121 -0.0577
  235POPC   D2A 3187   0.873   4.096   4.830  0.2097 -0.2100 -0.0481
  235POPC   C3A 3188   1.147   4.044   5.073  0.1081 -0.1998  0.1696
  235POPC   C4A 3189   1.275   4.109   5.488  0.3706 -0.2290  0.0152
  235POPC   C1B 3190   1.276   4.611   4.739  0.3137 -0.1986  0.0415
  235POPC   C2B 3191   1.393   4.502   5.092 -0.2617 -0.4689  0.0743
  235POPC   C3B 3192   1.385   4.590   5.500  0.3637 -0.0720  0.3018
  235POPC   C4B 3193   1.048   4.539   5.771  0.2332  0.3452 -0.2499
  236POPC   NC3 3194   1.377   4.401   3.745  0.0859 -0.2474  0.0581
  236POPC   PO4 3195   1.782   4.265   3.572 -0.1017 -0.2109 -0.0813
  236POPC   GL1 3196   1.859   4.067   3.916 -0.0840 -0.0115 -0.0858
  236POPC   GL2 3197   1.697   4.250   4.141 -0.1886  0.3367 -0.1473
  236POPC   C1A 3198   1.997   3.979   4.427  0.1345  0.2430 -0.1376
  236POPC   D2A 3199   2.155   4.208   4.673 -0.2187 -0.2882  0.2451
  236POPC   C3A 3200   2.044   4.220   5.040  0.1609  0.2333 -0.2085
  236POPC   C4A 3201   1.838   4.273   5.397  0.2512  0.3903  0.0424
  236POPC   C1B 3202   1.637   4.281   4.593  0.1545  0.0010  0.0558
  236POPC   C2B 3203   1.601   4.022   4.930  0.1378  0.3397 -0.0153
  236POPC   C3B 3204   1.671   3.734   5.278 -0.0092  0.0667  0.0554
  236POPC   C4B 3205   2.094   3.750   5.362 -0.0246 -0.1751 -0.1060
  237POPC   NC3 3206   7.376   7.771   3.210 -0.2986  0.1407 -0.1037
  237POPC   PO4 3207   7.740   7.514   3.435  0.0270 -0.0491  0.0802
  237POPC   GL1 3208   7.447   7.819   3.711  0.1798 -0.1890  0.0308
  237POPC   GL2 3209   7.272   7.653   3.991  0.0779  0.0460 -0.1570
  237POPC   C1A 3210   7.139   8.088   3.919 -0.2819  0.1177 -0.0460
  237POPC   D2A 3211   7.205   8.443   4.149 -0.1798 -0.0691 -0.2388
  237POPC   C3A 3212   7.106   8.804   4.151 -0.1128  0.1124  0.3307
  237POPC   C4A 3213   7.306   9.063   4.248 -0.2203 -0.1143 -0.0915
  237POPC   C1B 3214   7.115   7.671   4.397  0.3062  0.2562 -0.0104
  237POPC   C2B 3215   7.034   7.498   4.809 -0.1332  0.0212  0.1912
  237POPC   C3B 3216   7.083   7.336   5.259  0.0597  0.4528  0.2948
  237POPC   C4B 3217   6.884   7.459   5.555 -0.0184  0.1421  0.2455
  238POPC   NC3 3218   0.090   1.664   3.128 -0.2242 -0.2847  0.0646
  238POPC   PO4 3219   0.408   1.828   3.162 -0.1287  0.0335  0.0027
  238POPC   GL1 3220   0.569   1.672   3.598  0.3171  0.1866  0.1584
  238POPC   GL2 3221   0.869   1.582   3.711  0.0368  0.3417  0.1389
  238POPC   C1A 3222   0.239   1.515   3.906  0.1565  0.0279 -0.3458
  238POPC   D2A 3223   0.164   1.399   4.287  0.1335 -0.1085  0.0112
  238POPC   C3A 3224   0.482   1.444   4.677  0.0468 -0.2587  0.1443
  238POPC   C4A 3225   0.494   1.541   5.188 -0.3404  0.0652 -0.1004
  238POPC   C1B 3226   1.062   1.449   3.988  0.0945  0.0264 -0.1127
  238POPC   C2B 3227   1.077   1.511   4.430  0.0128  0.0167 -0.2658
  238POPC   C3B 3228   1.185   1.544   4.947 -0.0897 -0.2229  0.1085
  238POPC   C4B 3229   1.352   1.177   5.224  0.1147 -0.0746 -0.3459
  239POPC   NC3 3230   4.571   9.354   2.680 -0.0704  0.1245  0.1820
  239POPC   PO4 3231   4.648   9.278   3.173 -0.2622  0.3249 -0.1732
  239POPC   GL1 3232   4.607   9.124   3.628 -0.2460 -0.2107 -0.0317
  239POPC   GL2 3233   4.495   8.810   3.427  0.4149 -0.0333 -0.3061
  239POPC   C1A 3234   4.969   9.297   3.932 -0.0049  0.0056 -0.0987
  239POPC   D2A 3235   5.192   9.585   4.346  0.3192 -0.0239  0.2444
  239POPC   C3A 3236   5.038   9.526   4.754  0.0552  0.0838  0.0952
  239POPC   C4A 3237   5.071   9.567   5.216  0.4712  0.0913  0.1192
  239POPC   C1B 3238   4.809   8.688   3.757 -0.1591 -0.0700 -0.1393
  239POPC   C2B 3239   4.747   8.721   4.273  0.3644  0.0978  0.1379
  239POPC   C3B 3240   4.737   8.746   4.780 -0.0505 -0.4844  0.1495
  239POPC   C4B 3241   4.997   8.653   5.179  0.0524 -0.1963  0.2498
  240POPC   NC3 3242   6.639   7.814   3.174 -0.1656 -0.1625 -0.0875
  240POPC   PO4 3243   6.435   7.403   3.228 -0.0580 -0.5294  0.0429
  240POPC   GL1 3244   6.469   7.563   3.664 -0.0136  0.0026  0.2540
  240POPC   GL2 3245   6.256   7.452   3.978  0.0469  0.2215  0.0203
  240POPC   C1A 3246   6.771   7.689   4.009  0.1098 -0.1037 -0.1752
  240POPC   D2A 3247   6.611   7.786   4.458  0.1433 -0.2045 -0.2937
  240POPC   C3A 3248   6.730   7.916   4.788 -0.0813 -0.1165 -0.3066
  240POPC   C4A 3249   6.638   7.924   5.278 -0.3615 -0.2121 -0.2347
  240POPC   C1B 3250   6.172   7.620   4.351 -0.0083 -0.0430 -0.2118
  240POPC   C2B 3251   6.288   7.656   4.819 -0.0247  0.1213  0.2035
  240POPC   C3B 3252   6.070   7.827   5.193  0.0277 -0.0235  0.2294
  240POPC   C4B 3253   5.753   8.007   5.563 -0.0935 -0.0554  0.0586
  241POPC   NC3 3254   1.669   6.087   3.839 -0.1185 -0.0799 -0.1890
  241POPC   PO4 3255   1.457   6.375   3.925 -0.3198 -0.1026  0.3705
  241POPC   GL1 3256   1.745   6.369   4.262 -0.0392  0.0469 -0.0423
  241POPC   GL2 3257   1.622   6.678   4.333  0.1184  0.0697  0.1540
  241POPC   C1A 3258   2.113   6.427   4.485 -0.1652  0.2418 -0.3055
  241POPC   D2A 3259   2.351   6.721   4.823 -0.0913  0.1175 -0.1531
  241POPC   C3A 3260   2.478   6.429   5.145  0.3872 -0.0942 -0.0501
  241POPC   C4A 3261   2.680   6.303   5.457  0.4213 -0.0420  0.0315
  241POPC   C1B 3262   2.020   6.932   4.410  0.1671 -0.0035  0.1746
  241POPC   C2B 3263   1.975   7.213   4.823 -0.1870  0.0563 -0.1527
  241POPC   C3B 3264   1.830   7.437   5.136  0.0174 -0.0741 -0.2749
  241POPC   C4B 3265   1.948   7.795   5.379 -0.2419  0.0539 -0.0220
  242POPC   NC3 3266   6.067   4.900   3.565 -0.1499 -0.3023 -0.1040
  242POPC   PO4 3267   5.767   4.837   3.906 -0.1045  0.2032 -0.1272
  242POPC   GL1 3268   5.507   4.879   4.299  0.2033  0.2675  0.1902
  242POPC   GL2 3269   5.282   5.096   4.421 -0.1564 -0.3827 -0.5260
  242POPC   C1A 3270   5.626   4.644   4.705 -0.0056  0.0821 -0.5207
  242POPC   D2A 3271   5.549   4.751   5.165  0.1702 -0.4775 -0.2036
  242POPC   C3A 3272   5.804   5.193   5.238  0.0270  0.1004  0.1143
  242POPC   C4A 3273   6.059   5.483   4.969 -0.1095  0.2771  0.0637
  242POPC   C1B 3274   5.395   5.219   4.875 -0.1799  0.0227 -0.1753
  242POPC   C2B 3275   5.282   5.228   5.220 -0.0012 -0.1448  0.0047
  242POPC   C3B 3276   5.039   5.217   5.563 -0.1151 -0.0791 -0.2013
  242POPC   C4B 3277   4.797   5.502   5.898 -0.0898  0.1371  0.0118
  243POPC   NC3 3278   2.580   6.111   3.800  0.2819 -0.0706  0.0380
  243POPC   PO4 3279   2.319   6.457   3.724 -0.0274 -0.2135 -0.4345
  243POPC   GL1 3280   2.386   6.637   4.089 -0.0737 -0.1887  0.4424
  243POPC   GL2 3281   2.556   6.448   4.263 -0.1967  0.3816  0.1381
  243POPC   C1A 3282   2.625   6.936   4.358  0.1311  0.1948 -0.0267
  243POPC   D2A 3283   2.799   7.088   4.735 -0.1568  0.0747 -0.0072
  243POPC   C3A 3284   2.399   7.164   5.072 -0.0654 -0.1125 -0.0401
  243POPC   C4A 3285   2.231   7.348   5.449  0.2074  0.1973  0.0128
  243POPC   C1B 3286   2.489   6.104   4.612 -0.2833  0.2328  0.0199
  243POPC   C2B 3287   2.647   5.869   4.994 -0.2996  0.1840 -0.1233
  243POPC   C3B 3288   2.471   5.538   5.243 -0.0381 -0.1769 -0.0798
  243POPC   C4B 3289   2.622   5.432   5.724 -0.1026 -0.2715  0.0754
  244POPC   NC3 3290   2.541  10.018   3.191  0.2621 -0.0208  0.1553
  244POPC   PO4 3291   2.644  10.363   3.432  0.0682  0.4407 -0.0351
  244POPC   GL1 3292   2.654  10.254   3.946  0.2029 -0.4271 -0.0247
  244POPC   GL2 3293   2.582   9.958   3.969 -0.0245 -0.2587  0.0665
  244POPC   C1A 3294   2.526  10.332   4.381 -0.1065  0.0200  0.3206
  244POPC   D2A 3295   2.624  10.558   4.708  0.1213  0.1407  0.1851
  244POPC   C3A 3296   2.483  10.873   4.845  0.1557  0.5389 -0.4656
  244POPC   C4A 3297   2.231  11.045   5.204  0.2192 -0.0276 -0.0884
  244POPC   C1B 3298   2.466   9.896   4.283 -0.0451  0.1755 -0.3916
  244POPC   C2B 3299   2.081  10.039   4.605  0.3032 -0.2313 -0.2531
  244POPC   C3B 3300   1.812  10.331   4.712  0.1705 -0.2548 -0.2245
  244POPC   C4B 3301   1.516  10.327   4.990 -0.2680  0.0675 -0.0145
  245POPC   NC3 3302   7.267   2.915   3.716  0.3652 -0.1352 -0.1582
  245POPC   PO4 3303   7.678   2.802   3.582  0.1303  0.0351 -0.1071
  245POPC   GL1 3304   7.512   2.640   4.014  0.0147 -0.0102  0.1346
  245POPC   GL2 3305   7.304   2.360   3.916 -0.0323 -0.1204 -0.1454
  245POPC   C1A 3306   7.672   2.580   4.337  0.0223 -0.2084 -0.0108
  245POPC   D2A 3307   7.700   2.880   4.632  0.3495  0.1795 -0.0195
  245POPC   C3A 3308   7.495   2.876   5.006  0.2180  0.0414 -0.1896
  245POPC   C4A 3309   7.282   3.141   5.365 -0.1579  0.1664 -0.0396
  245POPC   C1B 3310   7.181   2.426   4.371  0.2477  0.2503 -0.0946
  245POPC   C2B 3311   7.202   2.512   4.798 -0.0184  0.0206 -0.3382
  245POPC   C3B 3312   7.038   2.669   5.244 -0.2326  0.0200  0.2777
  245POPC   C4B 3313   7.160   2.569   5.691 -0.1204  0.0242 -0.0912
  246POPC   NC3 3314   3.877   5.499   3.748  0.2112  0.2805 -0.2265
  246POPC   PO4 3315   4.144   5.732   4.043  0.2372 -0.0691 -0.0975
  246POPC   GL1 3316   3.914   6.043   4.238  0.0657 -0.0694  0.0759
  246POPC   GL2 3317   3.990   6.416   4.173  0.0346  0.4108 -0.0720
  246POPC   C1A 3318   3.889   6.253   4.688 -0.1650 -0.0671  0.3786
  246POPC   D2A 3319   3.669   6.157   5.087 -0.2000 -0.0247 -0.0661
  246POPC   C3A 3320   3.746   6.439   5.467 -0.3668 -0.0357 -0.0317
  246POPC   C4A 3321   3.541   6.570   5.828 -0.1193  0.0275 -0.0287
  246POPC   C1B 3322   4.099   6.710   4.565  0.1714 -0.2359 -0.0022
  246POPC   C2B 3323   3.736   6.694   4.887 -0.0254  0.0583  0.0126
  246POPC   C3B 3324   3.676   6.951   5.220 -0.0173  0.1837  0.0096
  246POPC   C4B 3325   3.824   6.954   5.634  0.1284  0.0451 -0.0231
  247POPC   NC3 3326   7.009   2.139   3.546  0.2140  0.0888  0.0179
  247POPC   PO4 3327   6.939   2.562   3.661  0.1748  0.0407  0.0764
  247POPC   GL1 3328   6.937   2.737   4.111  0.0969 -0.0763 -0.2126
  247POPC   GL2 3329   7.003   3.096   4.211  0.0779  0.1796 -0.2515
  247POPC   C1A 3330   6.723   2.590   4.459 -0.0083 -0.1857  0.0902
  247POPC   D2A 3331   6.691   2.615   4.898  0.1226  0.1447  0.0877
  247POPC   C3A 3332   6.562   2.279   5.244  0.1514 -0.2105  0.1167
  247POPC   C4A 3333   6.267   2.226   5.610 -0.0944  0.2253 -0.0815
  247POPC   C1B 3334   7.113   2.951   4.633  0.1964  0.0281  0.2289
  247POPC   C2B 3335   6.960   3.117   4.997  0.0562 -0.0447 -0.0972
  247POPC   C3B 3336   6.528   3.045   5.217  0.0156  0.0361  0.0156
  247POPC   C4B 3337   6.339   2.789   5.622  0.0313 -0.2462 -0.0895
  248POPC   NC3 3338   3.635   2.570   3.230 -0.2233 -0.2083 -0.0442
  248POPC   PO4 3339   3.627   2.113   3.497  0.1966 -0.0378  0.2197
  248POPC   GL1 3340   3.766   1.906   3.946  0.0225  0.0614  0.0682
  248POPC   GL2 3341   3.603   1.634   4.038  0.0227  0.0680 -0.2236
  248POPC   C1A 3342   3.978   1.800   4.378  0.2016  0.1619 -0.2778
  248POPC   D2A 3343   3.971   1.847   4.844  0.0140 -0.2744 -0.2505
  248POPC   C3A 3344   3.688   1.702   5.190  0.2308  0.2972  0.1149
  248POPC   C4A 3345   3.550   1.618   5.620  0.1525  0.1217 -0.1902
  248POPC   C1B 3346   3.507   1.613   4.520 -0.1062  0.5298  0.1047
  248POPC   C2B 3347   3.314   1.910   4.821  0.1068 -0.3275 -0.1315
  248POPC   C3B 3348   3.188   1.883   5.248  0.0273  0.2002 -0.0509
  248POPC   C4B 3349   3.057   1.663   5.617 -0.2777 -0.0442  0.1091
  249POPC   NC3 3350   8.007   6.615   3.782  0.2171 -0.4879  0.0444
  249POPC   PO4 3351   7.649   6.689   3.999 -0.0211 -0.0892 -0.0191
  249POPC   GL1 3352   7.838   6.589   4.457 -0.2489  0.0962  0.0518
  249POPC   GL2 3353   7.974   6.347   4.596  0.2107 -0.1056 -0.0392
  249POPC   C1A 3354   8.074   6.780   4.812 -0.2583 -0.3432 -0.3551
  249POPC   D2A 3355   8.052   6.888   5.216 -0.0496 -0.0762 -0.1515
  249POPC   C3A 3356   8.347   7.076   5.455  0.4391  0.2981 -0.0022
  249POPC   C4A 3357   8.595   6.934   5.736  0.0926 -0.2558  0.2124
  249POPC   C1B 3358   7.863   6.278   4.976 -0.1415  0.0702  0.1105
  249POPC   C2B 3359   7.871   6.480   5.378 -0.1562  0.1780  0.1241
  249POPC   C3B 3360   7.679   6.746   5.716  0.2107  0.2231 -0.1031
  249POPC   C4B 3361   7.578   6.996   6.108  0.1994  0.2254  0.2876
  250POPC   NC3 3362   5.887   5.794   4.056 -0.1514 -0.0452 -0.0065
  250POPC   PO4 3363   5.690   6.157   3.934  0.0425  0.0607  0.2993
  250POPC   GL1 3364   5.605   6.279   4.320  0.2763  0.0137  0.2621
  250POPC   GL2 3365   5.531   6.586   4.304 -0.0219  0.1806  0.1809
  250POPC   C1A 3366   5.840   6.117   4.704 -0.4679 -0.1638 -0.0787
  250POPC   D2A 3367   6.036   6.051   5.121  0.0013 -0.1355 -0.0845
  250POPC   C3A 3368   6.255   5.724   5.422  0.1512 -0.1752  0.0372
  250POPC   C4A 3369   6.232   5.300   5.506  0.0091  0.3452 -0.3197
  250POPC   C1B 3370   5.700   6.594   4.732 -0.2210 -0.0354  0.1087
  250POPC   C2B 3371   6.065   6.548   5.077 -0.5216  0.0560 -0.1427
  250POPC   C3B 3372   6.011   6.504   5.421 -0.2096  0.1737 -0.1445
  250POPC   C4B 3373   5.957   6.088   5.722  0.1966 -0.0351 -0.0642
  251POPC   NC3 3374   8.236   3.781   4.289  0.0945  0.1430  0.2775
  251POPC   PO4 3375   8.495   4.027   4.513  0.0442 -0.0958  0.1387
  251POPC   GL1 3376   8.195   3.839   4.755  0.2515 -0.1206  0.4333
  251POPC   GL2 3377   8.171   3.591   4.826  0.0387  0.2559  0.1427
  251POPC   C1A 3378   7.932   3.840   5.165  0.0015 -0.2420 -0.0396
  251POPC   D2A 3379   7.751   3.754   5.542  0.3241  0.1687  0.0576
  251POPC   C3A 3380   7.452   3.494   5.705 -0.0979  0.2346 -0.1040
  251POPC   C4A 3381   7.353   3.167   5.927 -0.1522 -0.0136 -0.1911
  251POPC   C1B 3382   7.875   3.314   5.042 -0.1070  0.1112 -0.1724
  251POPC   C2B 3383   7.753   3.306   5.390 -0.1819 -0.0138  0.0976
  251POPC   C3B 3384   7.799   2.953   5.692  0.0447  0.1747  0.2631
  251POPC   C4B 3385   8.127   2.632   5.613  0.1197  0.0766  0.1172
  252POPC   NC3 3386   9.148   3.306   3.689 -0.2826 -0.0908  0.2364
  252POPC   PO4 3387   9.110   3.420   4.110  0.1022 -0.1441  0.0762
  252POPC   GL1 3388   9.445   3.500   4.391  0.1170  0.0762 -0.1588
  252POPC   GL2 3389   9.783   3.498   4.268  0.2304  0.2323  0.0518
  252POPC   C1A 3390   9.593   3.614   4.822 -0.2032 -0.0210 -0.4803
  252POPC   D2A 3391   9.728   3.969   5.156 -0.2954  0.0053  0.1830
  252POPC   C3A 3392   9.918   4.033   5.573  0.0099  0.2198 -0.3591
  252POPC   C4A 3393  10.135   3.951   5.850 -0.0445 -0.0739  0.0011
  252POPC   C1B 3394   9.928   3.133   4.425  0.1335  0.1776 -0.2554
  252POPC   C2B 3395   9.853   2.908   4.857 -0.2433 -0.1872  0.0124
  252POPC   C3B 3396   9.709   2.646   5.026  0.1654  0.1376  0.0011
  252POPC   C4B 3397   9.271   2.654   4.996  0.2492 -0.0492 -0.0850
  253POPC   NC3 3398   9.320   1.170   3.274 -0.0361 -0.0340  0.0168
  253POPC   PO4 3399   9.271   0.993   3.601 -0.0693 -0.1323  0.3053
  253POPC   GL1 3400   9.453   1.327   3.815  0.1162  0.3629 -0.3416
  253POPC   GL2 3401   9.364   1.544   3.983  0.0104  0.1745 -0.1473
  253POPC   C1A 3402   9.807   1.618   3.908 -0.1070 -0.2823  0.0927
  253POPC   D2A 3403   9.953   1.868   4.113  0.1532 -0.5266 -0.0485
  253POPC   C3A 3404   9.960   1.747   4.507  0.1229 -0.3566  0.3453
  253POPC   C4A 3405  10.113   1.669   4.915  0.0812 -0.1388  0.0899
  253POPC   C1B 3406   9.526   1.438   4.392  0.2473 -0.0735  0.0765
  253POPC   C2B 3407   9.813   1.258   4.701  0.0389 -0.0429 -0.5406
  253POPC   C3B 3408  10.199   1.073   4.691 -0.3780 -0.0041 -0.2100
  253POPC   C4B 3409  10.479   1.007   5.019 -0.1010 -0.1697 -0.1458
  254POPC   NC3 3410   9.793   4.626   4.183 -0.2418  0.0943  0.3669
  254POPC   PO4 3411   9.557   4.988   4.392 -0.0701  0.0525  0.3977
  254POPC   GL1 3412   9.860   5.003   4.651  0.1758  0.4656 -0.1200
  254POPC   GL2 3413   9.886   5.146   4.941 -0.3232 -0.0909  0.0630
  254POPC   C1A 3414   9.957   4.635   4.969 -0.0721 -0.3098  0.0005
  254POPC   D2A 3415   9.856   4.512   5.400  0.0274  0.2137 -0.2350
  254POPC   C3A 3416   9.980   4.700   5.896 -0.0606 -0.1898 -0.1724
  254POPC   C4A 3417  10.197   5.099   5.962 -0.1693 -0.0131 -0.1986
  254POPC   C1B 3418   9.546   4.936   5.256 -0.0920  0.0504  0.2031
  254POPC   C2B 3419   9.220   5.119   5.495  0.0531 -0.3845  0.0367
  254POPC   C3B 3420   8.830   5.246   5.642  0.4293 -0.0937  0.0340
  254POPC   C4B 3421   8.437   5.546   5.700 -0.2852  0.0661  0.0502
  255POPC   NC3 3422   9.535   7.048   4.170 -0.0061 -0.0537  0.2068
  255POPC   PO4 3423   9.948   6.809   4.148  0.4662 -0.0255 -0.0425
  255POPC   GL1 3424  10.007   7.063   4.429 -0.0418  0.2390 -0.1451
  255POPC   GL2 3425   9.860   6.824   4.757 -0.0968  0.1591 -0.0515
  255POPC   C1A 3426  10.275   7.082   4.864  0.0008  0.2504 -0.3744
  255POPC   D2A 3427  10.143   6.987   5.222  0.2941 -0.2437  0.1206
  255POPC   C3A 3428  10.256   6.937   5.603  0.5339  0.0809 -0.0189
  255POPC   C4A 3429  10.415   7.023   6.004 -0.0601 -0.1865  0.0845
  255POPC   C1B 3430   9.631   6.927   5.207 -0.0141 -0.1062  0.3765
  255POPC   C2B 3431   9.708   7.137   5.544 -0.1688 -0.1617  0.1553
  255POPC   C3B 3432   9.837   7.089   5.982 -0.0740 -0.0071  0.0372
  255POPC   C4B 3433  10.095   7.363   6.285  0.0152 -0.2974  0.2106
  256POPC   NC3 3434   4.717   6.053   3.598 -0.2519 -0.0443  0.1180
  256POPC   PO4 3435   4.493   6.525   3.748  0.0802  0.1765  0.1080
  256POPC   GL1 3436   4.439   6.588   4.172 -0.0658 -0.1860  0.0325
  256POPC   GL2 3437   4.774   6.753   4.310  0.1400  0.2423  0.2549
  256POPC   C1A 3438   4.495   6.361   4.514 -0.3696  0.0124  0.2085
  256POPC   D2A 3439   4.336   6.028   4.749  0.0694  0.3541 -0.2614
  256POPC   C3A 3440   4.597   5.794   5.025  0.0853 -0.0912  0.1845
  256POPC   C4A 3441   4.603   5.549   5.463  0.0272 -0.1885 -0.1712
  256POPC   C1B 3442   5.049   6.318   4.454  0.3441 -0.2271  0.2619
  256POPC   C2B 3443   5.337   6.128   4.727  0.1006 -0.1217  0.0347
  256POPC   C3B 3444   5.585   6.364   5.157  0.0118  0.1006 -0.0990
  256POPC   C4B 3445   5.498   6.162   5.580 -0.1309 -0.1174  0.4383
  257POPC   NC3 3446   4.905   2.690   3.675 -0.0069 -0.0871  0.2328
  257POPC   PO4 3447   4.599   2.467   3.584  0.1610 -0.0425  0.1783
  257POPC   GL1 3448   4.608   2.445   4.038 -0.1364 -0.1142  0.0731
  257POPC   GL2 3449   4.852   2.587   4.212 -0.0650 -0.1222 -0.1123
  257POPC   C1A 3450   4.175   2.445   4.326  0.0233  0.3121 -0.0852
  257POPC   D2A 3451   3.885   2.291   4.600  0.3236 -0.0818  0.0664
  257POPC   C3A 3452   3.525   2.179   4.380 -0.0002  0.1213 -0.0683
  257POPC   C4A 3453   3.159   2.020   4.345 -0.2123 -0.0705 -0.2600
  257POPC   C1B 3454   4.885   2.214   4.419 -0.4554 -0.2651  0.2022
  257POPC   C2B 3455   4.799   1.889   4.696 -0.1908  0.0822  0.2478
  257POPC   C3B 3456   5.191   1.776   4.997  0.1882 -0.0171 -0.0150
  257POPC   C4B 3457   5.591   1.785   5.023 -0.0971 -0.1130  0.2625
  258POPC   NC3 3458   9.234   9.135   2.815  0.0147  0.1714 -0.1592
  258POPC   PO4 3459   9.641   9.152   3.068 -0.1671 -0.0134  0.1356
  258POPC   GL1 3460   9.734   9.183   3.450 -0.1109  0.1372 -0.0541
  258POPC   GL2 3461  10.031   9.100   3.534 -0.0542  0.1762  0.1086
  258POPC   C1A 3462   9.649   9.137   3.839  0.0903  0.0271 -0.0187
  258POPC   D2A 3463   9.606   9.306   4.248 -0.0731 -0.0302 -0.0474
  258POPC   C3A 3464   9.360   9.160   4.445  0.2769  0.1101  0.0051
  258POPC   C4A 3465   9.201   8.735   4.359 -0.1443  0.0894 -0.0432
  258POPC   C1B 3466  10.053   8.759   3.874  0.1286  0.1265  0.3818
  258POPC   C2B 3467  10.430   8.694   4.055  0.1255 -0.1101 -0.2399
  258POPC   C3B 3468  10.600   8.835   4.276  0.2606  0.2821  0.1029
  258POPC   C4B 3469  10.809   8.938   4.657 -0.0081  0.0969 -0.1145
  259POPC   NC3 3470   4.101   6.101   3.735 -0.1684  0.1803 -0.0500
  259POPC   PO4 3471   3.686   6.135   3.564  0.0980  0.1938 -0.3325
  259POPC   GL1 3472   3.500   6.075   3.992 -0.2992  0.1011 -0.3103
  259POPC   GL2 3473   3.347   6.352   4.080 -0.3614 -0.2637 -0.0680
  259POPC   C1A 3474   3.190   5.922   4.115 -0.0419  0.1466  0.0363
  259POPC   D2A 3475   3.003   5.884   4.600  0.2378  0.1366 -0.1206
  259POPC   C3A 3476   3.154   5.991   5.136  0.1453  0.3980  0.1859
  259POPC   C4A 3477   3.074   5.739   5.528  0.1087  0.1176 -0.0617
  259POPC   C1B 3478   3.037   6.386   4.357 -0.0844  0.3255 -0.0401
  259POPC   C2B 3479   2.791   6.438   4.779 -0.0583  0.0408  0.3358
  259POPC   C3B 3480   2.899   6.782   5.136 -0.0948  0.0943 -0.3245
  259POPC   C4B 3481   2.750   7.110   5.442  0.1246  0.1896  0.0135
  260POPC   NC3 3482   7.751   3.629   3.564  0.1416  0.0357 -0.0320
  260POPC   PO4 3483   7.773   3.948   3.819 -0.1493  0.1471  0.1689
  260POPC   GL1 3484   7.763   3.690   4.181  0.1323 -0.3065  0.0533
  260POPC   GL2 3485   7.747   3.765   4.462 -0.4513 -0.0888  0.1675
  260POPC   C1A 3486   7.414   3.442   4.449  0.1408  0.4456 -0.1646
  260POPC   D2A 3487   6.956   3.518   4.567 -0.2080 -0.0317  0.1715
  260POPC   C3A 3488   6.627   3.176   4.532  0.2570 -0.2324 -0.0739
  260POPC   C4A 3489   6.406   3.063   4.294 -0.1127  0.1418 -0.3893
  260POPC   C1B 3490   7.601   3.747   4.807  0.4871  0.3215 -0.1808
  260POPC   C2B 3491   7.256   3.671   5.054  0.3562 -0.0683 -0.1488
  260POPC   C3B 3492   7.158   3.855   5.477 -0.0423  0.1475  0.0955
  260POPC   C4B 3493   6.824   4.132   5.298  0.0635  0.1678 -0.5446
  261POPC   NC3 3494   2.699   9.381   3.643 -0.1815 -0.2540  0.1380
  261POPC   PO4 3495   2.808   9.844   3.561 -0.2722 -0.0970  0.0761
  261POPC   GL1 3496   3.034   9.682   3.910  0.0259 -0.0304 -0.0673
  261POPC   GL2 3497   2.913   9.543   4.082  0.2072 -0.0965  0.2401
  261POPC   C1A 3498   3.306   9.730   4.305  0.1840 -0.0423  0.2477
  261POPC   D2A 3499   3.303   9.834   4.760  0.1244 -0.0079  0.2245
  261POPC   C3A 3500   3.611   9.899   5.165  0.4367  0.2465 -0.2073
  261POPC   C4A 3501   3.567  10.189   5.534 -0.3819 -0.3418  0.0047
  261POPC   C1B 3502   2.946  10.036   4.278  0.0168  0.1845  0.2579
  261POPC   C2B 3503   3.148  10.251   4.499  0.0777  0.1572  0.1004
  261POPC   C3B 3504   3.185  10.479   4.903  0.5455 -0.3557 -0.2594
  261POPC   C4B 3505   3.250  10.827   5.225 -0.1642  0.0860 -0.1173
  262POPC   NC3 3506   2.136   4.419   3.945 -0.1681 -0.1782 -0.1036
  262POPC   PO4 3507   2.241   4.851   3.871 -0.0429 -0.0312 -0.2082
  262POPC   GL1 3508   2.186   4.746   4.349 -0.2556 -0.1477 -0.0376
  262POPC   GL2 3509   1.934   4.584   4.412 -0.1174 -0.1064  0.0497
  262POPC   C1A 3510   2.055   5.068   4.514 -0.1941 -0.0162 -0.2010
  262POPC   D2A 3511   1.952   5.462   4.672  0.2106 -0.1573 -0.2482
  262POPC   C3A 3512   2.194   5.717   4.852  0.0611  0.0153 -0.0548
  262POPC   C4A 3513   2.149   5.926   5.124  0.1475  0.0977 -0.2382
  262POPC   C1B 3514   1.879   4.671   4.874 -0.1213 -0.0585  0.1392
  262POPC   C2B 3515   1.861   4.761   5.257 -0.0414  0.2339 -0.2244
  262POPC   C3B 3516   1.707   5.076   5.434  0.2554 -0.2207  0.0918
  262POPC   C4B 3517   1.365   5.237   5.306 -0.1169  0.2337  0.0900
  263POPC   NC3 3518   9.897   7.929   3.798 -0.0115  0.1818  0.2560
  263POPC   PO4 3519  10.086   7.668   4.026  0.2310 -0.0122 -0.1803
  263POPC   GL1 3520  10.045   7.599   4.472 -0.1420  0.2002  0.1273
  263POPC   GL2 3521   9.707   7.443   4.561  0.1183 -0.0139  0.2822
  263POPC   C1A 3522  10.173   7.578   4.883  0.1441 -0.1253  0.1960
  263POPC   D2A 3523  10.082   7.434   5.461 -0.1277 -0.0223 -0.1952
  263POPC   C3A 3524   9.622   7.613   5.442 -0.0168 -0.2715 -0.1685
  263POPC   C4A 3525   9.264   7.793   5.635 -0.0074 -0.0614  0.1308
  263POPC   C1B 3526   9.728   7.343   4.971  0.1443 -0.1199  0.1966
  263POPC   C2B 3527   9.297   7.317   5.182  0.1398 -0.3131 -0.2985
  263POPC   C3B 3528   9.220   7.295   5.576 -0.0233 -0.2423  0.1789
  263POPC   C4B 3529   8.814   7.374   5.639  0.3065  0.0480 -0.1078
  264POPC   NC3 3530   9.029   5.425   4.013 -0.1616  0.1661  0.2643
  264POPC   PO4 3531   8.663   5.509   4.110  0.1329  0.0891 -0.0302
  264POPC   GL1 3532   8.341   5.667   4.479  0.1664 -0.1033 -0.1375
  264POPC   GL2 3533   8.198   5.811   4.339 -0.2062  0.0198  0.1686
  264POPC   C1A 3534   8.263   5.908   4.832 -0.0884  0.2390 -0.0605
  264POPC   D2A 3535   7.968   5.800   5.193 -0.1471 -0.1153 -0.0860
  264POPC   C3A 3536   8.063   5.946   5.586 -0.0806  0.2780  0.1490
  264POPC   C4A 3537   8.346   5.964   5.843 -0.0661  0.0542  0.0749
  264POPC   C1B 3538   7.828   5.815   4.603  0.0606  0.0231  0.1229
  264POPC   C2B 3539   7.555   5.531   4.924  0.1748  0.2386  0.0831
  264POPC   C3B 3540   7.119   5.570   5.051  0.0794 -0.0135 -0.0539
  264POPC   C4B 3541   6.964   5.927   5.313  0.3476  0.0165  0.2072
  265POPC   NC3 3542   6.133   5.794   3.246 -0.3848  0.1008 -0.0195
  265POPC   PO4 3543   6.152   5.939   3.681  0.1671  0.0581  0.1519
  265POPC   GL1 3544   6.316   6.165   4.109  0.0653 -0.0637 -0.2592
  265POPC   GL2 3545   6.150   6.162   4.324 -0.1797 -0.0487 -0.0825
  265POPC   C1A 3546   6.525   5.983   4.627 -0.0387 -0.3465 -0.1723
  265POPC   D2A 3547   6.659   5.855   4.965  0.1503 -0.1073  0.1903
  265POPC   C3A 3548   6.535   6.260   5.135 -0.0715 -0.0142 -0.0446
  265POPC   C4A 3549   6.539   6.522   5.337  0.2821  0.0894 -0.0710
  265POPC   C1B 3550   6.257   6.475   4.628  0.0415 -0.3263  0.3224
  265POPC   C2B 3551   6.528   6.713   4.852 -0.0179  0.2859 -0.0911
  265POPC   C3B 3552   6.903   6.888   5.003 -0.1090 -0.1326 -0.0835
  265POPC   C4B 3553   7.297   7.103   4.772  0.1706 -0.1936  0.1050
  266POPC   NC3 3554   0.241   5.439   3.922  0.0642 -0.3002  0.0226
  266POPC   PO4 3555   0.649   5.605   3.725 -0.2648 -0.1286 -0.1955
  266POPC   GL1 3556   0.900   5.514   4.168 -0.1082  0.0703 -0.2439
  266POPC   GL2 3557   1.176   5.293   4.144  0.2014  0.1471 -0.3903
  266POPC   C1A 3558   1.032   5.681   4.624  0.4115 -0.0197 -0.0305
  266POPC   D2A 3559   0.946   5.653   5.060 -0.0572  0.3098 -0.0154
  266POPC   C3A 3560   1.232   5.737   5.466 -0.1906  0.2052 -0.1196
  266POPC   C4A 3561   1.551   5.458   5.672 -0.1143  0.1858 -0.3899
  266POPC   C1B 3562   1.241   5.147   4.501  0.0756 -0.1105 -0.0473
  266POPC   C2B 3563   1.120   5.059   4.934 -0.3495  0.1329  0.0975
  266POPC   C3B 3564   0.965   4.843   5.402 -0.0741 -0.1124 -0.1352
  266POPC   C4B 3565   0.601   4.755   5.613  0.0940  0.2585 -0.3073
  267POPC   NC3 3566   5.480   6.636   3.776 -0.2468 -0.1303  0.0431
  267POPC   PO4 3567   5.001   6.500   3.781 -0.0569 -0.0713  0.1697
  267POPC   GL1 3568   5.118   6.942   4.008  0.0554 -0.1968 -0.0010
  267POPC   GL2 3569   5.330   7.049   4.100  0.0914  0.2889 -0.1457
  267POPC   C1A 3570   5.133   6.957   4.564 -0.1449 -0.2792  0.0030
  267POPC   D2A 3571   5.192   6.641   4.852 -0.0406 -0.0482 -0.2539
  267POPC   C3A 3572   5.028   6.524   5.260 -0.1090  0.0915 -0.3477
  267POPC   C4A 3573   4.625   6.509   5.473 -0.1946  0.1234  0.4148
  267POPC   C1B 3574   5.625   7.061   4.516 -0.0047  0.2872  0.3601
  267POPC   C2B 3575   5.584   7.009   5.024 -0.1114  0.4181 -0.1408
  267POPC   C3B 3576   5.493   6.761   5.397 -0.0075 -0.3522  0.0011
  267POPC   C4B 3577   5.709   6.673   5.827  0.2958 -0.2111  0.0830
  268POPC   NC3 3578   7.386   5.131   4.142 -0.0867 -0.0781  0.2654
  268POPC   PO4 3579   7.013   4.964   4.293  0.1462 -0.2405 -0.1131
  268POPC   GL1 3580   6.824   4.944   4.674  0.1961 -0.1719  0.0355
  268POPC   GL2 3581   6.747   4.622   4.714  0.1371 -0.0360  0.3223
  268POPC   C1A 3582   6.858   4.988   5.142  0.2051 -0.4859 -0.3102
  268POPC   D2A 3583   6.700   5.415   5.356  0.0734  0.4077 -0.1827
  268POPC   C3A 3584   6.619   5.742   5.721  0.1246  0.0815 -0.2411
  268POPC   C4A 3585   6.395   6.238   5.708 -0.1414 -0.2131 -0.0129
  268POPC   C1B 3586   6.583   4.526   5.039  0.3260 -0.0631  0.0900
  268POPC   C2B 3587   6.473   4.458   5.432 -0.1624  0.2015 -0.3332
  268POPC   C3B 3588   6.459   4.353   5.865 -0.2683 -0.1674  0.1452
  268POPC   C4B 3589   6.268   4.010   5.908 -0.3365 -0.0373  0.2509
  269POPC   NC3 3590   4.101   1.014   3.185 -0.0308  0.2764 -0.0684
  269POPC   PO4 3591   3.683   0.945   3.322  0.1357  0.1659  0.0978
  269POPC   GL1 3592   3.830   0.930   3.787 -0.2315 -0.2301  0.2142
  269POPC   GL2 3593   4.180   0.856   3.693 -0.2436  0.0464 -0.3341
  269POPC   C1A 3594   3.924   0.744   4.219  0.1317  0.0852  0.3396
  269POPC   D2A 3595   4.099   0.519   4.507 -0.3003  0.2423 -0.0545
  269POPC   C3A 3596   4.105   0.105   4.593  0.1315 -0.2342 -0.2796
  269POPC   C4A 3597   4.154  -0.187   4.862 -0.0681 -0.1123  0.2376
  269POPC   C1B 3598   4.360   0.960   4.066  0.1981 -0.3818  0.1479
  269POPC   C2B 3599   4.238   1.000   4.518  0.0709 -0.1952  0.1193
  269POPC   C3B 3600   4.128   0.912   4.893 -0.0264  0.1810 -0.3387
  269POPC   C4B 3601   4.062   1.161   5.250 -0.3144  0.0698 -0.2955
  270POPC   NC3 3602   5.636   5.324   4.133  0.1094 -0.1962  0.2924
  270POPC   PO4 3603   6.062   5.286   4.098 -0.2423 -0.0933  0.1115
  270POPC   GL1 3604   5.924   5.051   4.461 -0.0369 -0.3566 -0.1860
  270POPC   GL2 3605   5.758   5.283   4.589 -0.1489 -0.0100  0.2210
  270POPC   C1A 3606   6.012   4.855   4.910 -0.0932 -0.2984  0.0770
  270POPC   D2A 3607   6.335   4.981   5.156 -0.0716  0.1481 -0.0146
  270POPC   C3A 3608   6.511   5.277   4.946  0.1059  0.0307  0.0071
  270POPC   C4A 3609   6.625   5.422   4.619 -0.0269  0.0579  0.0231
  270POPC   C1B 3610   5.622   5.643   4.906 -0.2017  0.1314  0.0312
  270POPC   C2B 3611   5.685   5.703   5.346  0.1636  0.2010  0.0018
  270POPC   C3B 3612   5.815   5.572   5.720  0.0389 -0.2660  0.0913
  270POPC   C4B 3613   5.807   5.357   6.127 -0.1209 -0.3117 -0.0184
  271POPC   NC3 3614   1.842   1.571   3.333 -0.2971  0.0251 -0.0273
  271POPC   PO4 3615   2.131   1.914   3.167 -0.0336 -0.3054 -0.4086
  271POPC   GL1 3616   2.075   1.951   3.681  0.0020 -0.1214  0.1738
  271POPC   GL2 3617   1.829   2.248   3.885 -0.1737 -0.0870 -0.2609
  271POPC   C1A 3618   2.235   1.934   4.077  0.1355  0.2390  0.1924
  271POPC   D2A 3619   2.230   2.119   4.390  0.1357  0.5323 -0.1173
  271POPC   C3A 3620   2.064   2.070   4.732 -0.1453  0.3283  0.0641
  271POPC   C4A 3621   2.082   2.224   5.148 -0.1180 -0.2836 -0.3133
  271POPC   C1B 3622   1.744   2.256   4.412  0.3633  0.0144 -0.1441
  271POPC   C2B 3623   1.623   2.304   4.863 -0.0095 -0.0069  0.0258
  271POPC   C3B 3624   1.655   2.363   5.332  0.0178  0.2917  0.0801
  271POPC   C4B 3625   1.890   2.084   5.587  0.1716  0.3692 -0.0344
  272POPC   NC3 3626   8.079   4.824   4.004 -0.1620 -0.0478 -0.0351
  272POPC   PO4 3627   7.874   5.189   4.044 -0.0729 -0.0909  0.0582
  272POPC   GL1 3628   7.900   5.185   4.350 -0.2112 -0.0329 -0.1230
  272POPC   GL2 3629   8.101   4.804   4.480  0.4525  0.0862 -0.0475
  272POPC   C1A 3630   8.032   5.318   4.776  0.0953 -0.0988 -0.3957
  272POPC   D2A 3631   7.901   5.208   5.157  0.0382 -0.2918 -0.0228
  272POPC   C3A 3632   7.985   5.429   5.589 -0.2928  0.0221  0.2878
  272POPC   C4A 3633   7.760   5.573   5.937 -0.3982  0.1309 -0.2721
  272POPC   C1B 3634   8.095   4.795   4.993  0.1450  0.2595  0.0347
  272POPC   C2B 3635   8.242   4.601   5.443  0.0160  0.1834  0.1596
  272POPC   C3B 3636   8.447   4.250   5.664  0.1760  0.2937 -0.0177
  272POPC   C4B 3637   8.201   4.137   5.935  0.1240 -0.1627  0.2930
  273POPC   NC3 3638   1.900   8.291   3.171 -0.0350  0.0375 -0.0723
  273POPC   PO4 3639   2.175   8.439   3.644 -0.0297 -0.2849 -0.1460
  273POPC   GL1 3640   2.364   8.432   4.123  0.0124  0.0864 -0.1677
  273POPC   GL2 3641   2.432   8.615   4.359 -0.0502  0.5898 -0.1717
  273POPC   C1A 3642   2.479   8.124   4.562  0.1412  0.3574  0.4430
  273POPC   D2A 3643   2.782   7.957   4.846 -0.1934  0.1414 -0.2463
  273POPC   C3A 3644   3.172   7.857   5.112 -0.0427  0.3316  0.3017
  273POPC   C4A 3645   3.459   8.031   5.311  0.1827  0.1939  0.1177
  273POPC   C1B 3646   2.295   8.779   4.711  0.3402 -0.0424  0.0544
  273POPC   C2B 3647   1.887   8.731   4.915  0.0818  0.1782 -0.1141
  273POPC   C3B 3648   1.562   8.458   4.699 -0.1940 -0.3327 -0.1345
  273POPC   C4B 3649   1.301   8.233   4.387  0.3824  0.1703  0.2942
  274POPC   NC3 3650   3.574   6.899   3.452  0.1585  0.1863 -0.1895
  274POPC   PO4 3651   3.622   7.353   3.357  0.0629 -0.0357 -0.1122
  274POPC   GL1 3652   3.619   7.301   3.818 -0.0546 -0.3477  0.1260
  274POPC   GL2 3653   3.813   7.261   3.840  0.0873 -0.1945  0.1376
  274POPC   C1A 3654   3.620   7.364   4.311 -0.0286 -0.3179 -0.2504
  274POPC   D2A 3655   3.709   7.149   4.646  0.1904 -0.1036 -0.0754
  274POPC   C3A 3656   3.948   7.208   4.911  0.1017  0.0255 -0.0373
  274POPC   C4A 3657   4.219   6.864   5.109  0.0426  0.0220  0.2844
  274POPC   C1B 3658   3.792   6.841   4.176 -0.0170 -0.3229  0.2696
  274POPC   C2B 3659   3.594   6.499   4.441 -0.0057 -0.1686  0.4286
  274POPC   C3B 3660   3.419   6.174   4.616  0.0275 -0.0963 -0.3123
  274POPC   C4B 3661   3.466   5.812   4.728 -0.1663  0.3109  0.0707
  275POPC   NC3 3662   0.829   3.760   3.754 -0.0043 -0.0175 -0.1885
  275POPC   PO4 3663   0.937   4.228   3.687  0.0578  0.2418  0.0080
  275POPC   GL1 3664   0.800   4.065   4.166 -0.0094 -0.1903  0.2834
  275POPC   GL2 3665   0.648   4.296   4.394  0.0701  0.0723 -0.2390
  275POPC   C1A 3666   0.788   3.738   4.424 -0.1676 -0.1085 -0.2897
  275POPC   D2A 3667   0.896   3.548   4.826 -0.1298 -0.1545 -0.0570
  275POPC   C3A 3668   0.473   3.320   5.023 -0.0892  0.0790  0.0384
  275POPC   C4A 3669   0.176   3.072   5.210 -0.2063 -0.1873 -0.1528
  275POPC   C1B 3670   0.272   4.461   4.682 -0.2748  0.1038  0.4023
  275POPC   C2B 3671   0.122   4.204   5.101 -0.0588 -0.1751 -0.0311
  275POPC   C3B 3672   0.065   3.725   5.224  0.2307 -0.0747  0.0247
  275POPC   C4B 3673   0.221   3.540   5.596  0.0627  0.0775  0.3895
  276POPC   NC3 3674   7.480   1.285   3.221 -0.2122 -0.1087  0.0984
  276POPC   PO4 3675   7.186   1.648   3.417  0.1383  0.0651 -0.1908
  276POPC   GL1 3676   6.875   1.599   3.576  0.3633 -0.0136 -0.0881
  276POPC   GL2 3677   6.797   1.736   3.805  0.0687 -0.1455  0.1718
  276POPC   C1A 3678   6.705   1.200   3.814 -0.1343  0.0803  0.0288
  276POPC   D2A 3679   6.373   0.929   3.669 -0.0239 -0.1894  0.3215
  276POPC   C3A 3680   6.075   0.840   3.895 -0.1106  0.0639  0.2408
  276POPC   C4A 3681   6.047   0.809   4.381 -0.0271  0.1235  0.1612
  276POPC   C1B 3682   6.709   1.515   4.220  0.1046 -0.1689  0.1054
  276POPC   C2B 3683   6.413   1.459   4.589 -0.5134  0.0298  0.1070
  276POPC   C3B 3684   6.273   1.255   4.922  0.0025 -0.1474  0.0840
  276POPC   C4B 3685   6.491   1.234   5.203 -0.2068  0.1472  0.0922
  277POPC   NC3 3686   9.459   3.865   4.102 -0.2210 -0.3291 -0.1406
  277POPC   PO4 3687   9.044   3.895   3.907 -0.1125  0.0659 -0.0964
  277POPC   GL1 3688   9.005   3.875   4.414  0.0267 -0.2477 -0.3028
  277POPC   GL2 3689   9.239   4.094   4.608 -0.0643 -0.0291  0.3851
  277POPC   C1A 3690   9.063   3.589   4.737 -0.1156 -0.0227  0.1327
  277POPC   D2A 3691   9.117   3.446   5.191 -0.1253  0.0265 -0.0787
  277POPC   C3A 3692   9.337   3.687   5.410 -0.1465  0.1276 -0.2898
  277POPC   C4A 3693   9.395   4.018   5.562 -0.1324  0.1073  0.1735
  277POPC   C1B 3694   8.953   4.081   4.996  0.1319 -0.0164  0.2232
  277POPC   C2B 3695   8.915   3.997   5.368  0.2378  0.1368 -0.0622
  277POPC   C3B 3696   8.982   4.291   5.699 -0.1185 -0.4555 -0.3090
  277POPC   C4B 3697   9.000   4.363   6.136  0.3007  0.0290 -0.0582
  278POPC   NC3 3698   5.266   8.563   2.795 -0.1563 -0.0706  0.0164
  278POPC   PO4 3699   4.958   8.266   3.064 -0.0593 -0.0300  0.1066
  278POPC   GL1 3700   5.127   8.441   3.394  0.0853 -0.4175  0.0583
  278POPC   GL2 3701   5.227   8.144   3.562  0.0010 -0.1419  0.1216
  278POPC   C1A 3702   5.305   8.776   3.692 -0.0623 -0.1700  0.2604
  278POPC   D2A 3703   5.408   9.118   3.976  0.3564  0.1528 -0.1978
  278POPC   C3A 3704   5.535   9.124   4.282  0.2494 -0.2979 -0.2252
  278POPC   C4A 3705   5.754   8.993   4.635 -0.0154  0.2768 -0.3225
  278POPC   C1B 3706   5.236   8.323   3.993  0.0007  0.2445  0.0154
  278POPC   C2B 3707   5.232   8.737   4.220 -0.0962  0.1613  0.1961
  278POPC   C3B 3708   5.099   9.010   4.546 -0.0791 -0.0785 -0.0301
  278POPC   C4B 3709   4.788   9.350   4.374  0.0341 -0.0789  0.4205
  279POPC   NC3 3710   4.481   2.143   3.176  0.0509  0.2420  0.2670
  279POPC   PO4 3711   4.909   2.241   3.198 -0.2065 -0.1726  0.0069
  279POPC   GL1 3712   4.958   2.117   3.577  0.2363  0.1160  0.0772
  279POPC   GL2 3713   5.084   2.262   3.863 -0.0997 -0.1568 -0.1920
  279POPC   C1A 3714   4.741   1.890   3.872  0.2491 -0.0092 -0.3511
  279POPC   D2A 3715   4.777   1.692   4.256 -0.1113  0.0094  0.0302
  279POPC   C3A 3716   4.404   1.460   4.347 -0.2336 -0.0504  0.3043
  279POPC   C4A 3717   3.983   1.369   4.202 -0.2629  0.0917 -0.0269
  279POPC   C1B 3718   5.238   1.936   4.136  0.1653  0.1447  0.0055
  279POPC   C2B 3719   5.401   1.689   4.532  0.2284 -0.0543 -0.3834
  279POPC   C3B 3720   5.304   1.286   4.968 -0.1647 -0.0654 -0.1321
  279POPC   C4B 3721   5.477   1.240   5.302  0.0474  0.3035  0.0029
  280POPC   NC3 3722   3.471   7.851   3.394 -0.0611  0.1930 -0.2014
  280POPC   PO4 3723   3.740   8.150   3.219  0.2748  0.0633  0.1643
  280POPC   GL1 3724   3.794   8.076   3.694 -0.0387 -0.0258 -0.1269
  280POPC   GL2 3725   3.708   7.822   3.853  0.1252 -0.3895 -0.0929
  280POPC   C1A 3726   3.837   8.324   4.086  0.1172  0.0633  0.0150
  280POPC   D2A 3727   3.754   8.396   4.461  0.2612 -0.0473  0.0543
  280POPC   C3A 3728   3.978   8.085   4.830 -0.3035 -0.0543 -0.0240
  280POPC   C4A 3729   4.437   7.955   5.086  0.1798  0.1111 -0.2516
  280POPC   C1B 3730   3.744   7.848   4.317  0.0859  0.1384 -0.0208
  280POPC   C2B 3731   3.899   7.632   4.602 -0.3060 -0.3367 -0.0316
  280POPC   C3B 3732   4.306   7.536   4.819 -0.1089 -0.1385 -0.2341
  280POPC   C4B 3733   4.605   7.316   5.155  0.0448  0.3237 -0.2576
  281POPC   NC3 3734   0.467   7.031   3.571 -0.0781 -0.1397  0.0382
  281POPC   PO4 3735   0.678   6.998   4.014  0.2549 -0.0665  0.0672
  281POPC   GL1 3736   0.889   7.074   4.374 -0.0798  0.1134 -0.1322
  281POPC   GL2 3737   1.290   7.082   4.384  0.0198 -0.1061  0.2392
  281POPC   C1A 3738   0.699   7.159   4.759  0.1597 -0.1045 -0.1560
  281POPC   D2A 3739   0.477   7.371   5.153  0.0533 -0.0534  0.2496
  281POPC   C3A 3740   0.532   7.366   5.610  0.2994  0.0320 -0.0472
  281POPC   C4A 3741   0.406   7.522   5.938  0.3421 -0.0136  0.2473
  281POPC   C1B 3742   1.391   7.091   4.678  0.1007  0.1797  0.2045
  281POPC   C2B 3743   1.312   7.235   5.015  0.2359 -0.0164 -0.0193
  281POPC   C3B 3744   1.513   7.084   5.318 -0.4249  0.0910  0.2479
  281POPC   C4B 3745   1.424   6.904   5.708 -0.0808  0.2212 -0.0039
  282POPC   NC3 3746   3.311   4.151   3.668 -0.0245 -0.1934  0.0747
  282POPC   PO4 3747   3.362   3.914   4.018  0.0031 -0.1279 -0.1594
  282POPC   GL1 3748   3.628   3.913   4.325  0.0748 -0.1051  0.0714
  282POPC   GL2 3749   3.845   3.825   4.591 -0.0045  0.1261 -0.2378
  282POPC   C1A 3750   3.401   3.729   4.636 -0.0248 -0.3607  0.0596
  282POPC   D2A 3751   3.236   3.382   4.885  0.3708 -0.0139  0.0143
  282POPC   C3A 3752   3.324   3.306   5.379 -0.0401  0.4839  0.1344
  282POPC   C4A 3753   3.631   3.466   5.608 -0.3366  0.1724 -0.1093
  282POPC   C1B 3754   4.084   3.814   4.933 -0.1234 -0.2201 -0.2818
  282POPC   C2B 3755   4.141   3.690   5.341 -0.1126 -0.2727 -0.1111
  282POPC   C3B 3756   4.153   3.437   5.622  0.0113 -0.0844 -0.1554
  282POPC   C4B 3757   4.363   3.288   5.975  0.4976 -0.0196  0.1083
  283POPC   NC3 3758   4.740   5.208   3.959 -0.1902  0.1286  0.2957
  283POPC   PO4 3759   4.896   5.599   3.791  0.1427 -0.1998 -0.0924
  283POPC   GL1 3760   4.747   5.622   4.215 -0.0798  0.0620  0.3628
  283POPC   GL2 3761   5.092   5.506   4.249 -0.0950  0.0206 -0.0069
  283POPC   C1A 3762   4.771   5.925   4.569 -0.2499  0.0754  0.3433
  283POPC   D2A 3763   4.834   6.244   4.870 -0.1824  0.2281 -0.2031
  283POPC   C3A 3764   4.489   6.447   4.999 -0.2721 -0.3227 -0.0475
  283POPC   C4A 3765   4.133   6.407   5.089  0.3531  0.0493  0.1924
  283POPC   C1B 3766   5.162   5.619   4.646 -0.0897 -0.0041  0.0110
  283POPC   C2B 3767   5.160   5.684   5.131  0.1144  0.2358  0.1608
  283POPC   C3B 3768   4.998   6.036   5.302  0.0254  0.0143 -0.2481
  283POPC   C4B 3769   4.658   6.077   5.677  0.1264  0.0543  0.1101
  284POPC   NC3 3770   8.909   4.355   4.345 -0.0084  0.0750 -0.0332
  284POPC   PO4 3771   9.123   4.753   4.215  0.1608  0.0771  0.0311
  284POPC   GL1 3772   9.231   4.625   4.626 -0.1179 -0.1616 -0.2177
  284POPC   GL2 3773   9.229   4.961   4.837 -0.3485 -0.1308 -0.0254
  284POPC   C1A 3774   8.960   4.588   4.928  0.0713  0.0372  0.0677
  284POPC   D2A 3775   8.757   4.471   5.249  0.2439  0.0399 -0.1776
  284POPC   C3A 3776   8.755   4.750   5.482  0.0674  0.0182 -0.2325
  284POPC   C4A 3777   8.808   4.766   5.886 -0.1131  0.2866 -0.1906
  284POPC   C1B 3778   9.398   5.358   5.000  0.2544  0.2919  0.1454
  284POPC   C2B 3779   9.387   5.629   5.400  0.1862  0.2051  0.2442
  284POPC   C3B 3780   9.517   5.590   5.758 -0.1270  0.1551  0.0686
  284POPC   C4B 3781   9.863   5.446   6.064 -0.0738 -0.1297  0.0571
  285POPC   NC3 3782   7.170   8.399   2.917 -0.2271  0.1160  0.0846
  285POPC   PO4 3783   7.072   8.082   3.270  0.1788 -0.0658 -0.2238
  285POPC   GL1 3784   6.808   8.297   3.562 -0.0761 -0.0896  0.0616
  285POPC   GL2 3785   6.509   8.072   3.589 -0.2080 -0.1226 -0.3175
  285POPC   C1A 3786   6.733   8.282   4.078 -0.0478 -0.3439 -0.1173
  285POPC   D2A 3787   6.399   8.229   4.432  0.3448 -0.0082  0.3013
  285POPC   C3A 3788   6.325   8.178   4.878  0.3018  0.2203 -0.1207
  285POPC   C4A 3789   6.422   8.472   5.207 -0.3305  0.1331 -0.0164
  285POPC   C1B 3790   6.304   7.982   4.001 -0.1568 -0.0618  0.2767
  285POPC   C2B 3791   5.938   8.097   4.237  0.1846  0.0551  0.2008
  285POPC   C3B 3792   5.863   7.939   4.642 -0.0273  0.4530 -0.2156
  285POPC   C4B 3793   5.757   8.315   4.946 -0.0607  0.1584  0.0800
  286POPC   NC3 3794   8.642   4.904   3.933 -0.0690 -0.0203  0.1040
  286POPC   PO4 3795   8.525   4.653   4.210 -0.0571  0.1897  0.2381
  286POPC   GL1 3796   8.584   4.655   4.616 -0.2706 -0.1519 -0.0993
  286POPC   GL2 3797   8.435   4.351   4.908 -0.0084  0.5545  0.2239
  286POPC   C1A 3798   8.622   4.901   4.986  0.2704 -0.1434 -0.2563
  286POPC   D2A 3799   8.861   5.154   5.146 -0.0830 -0.0200  0.5541
  286POPC   C3A 3800   8.867   5.559   5.259  0.2314 -0.0173  0.3333
  286POPC   C4A 3801   8.873   5.809   5.641  0.2523 -0.1122  0.3162
  286POPC   C1B 3802   8.424   3.987   5.201  0.0763  0.1834  0.0379
  286POPC   C2B 3803   8.240   3.799   5.552  0.2939  0.0697 -0.1125
  286POPC   C3B 3804   8.107   3.462   5.928  0.1845 -0.1030  0.0721
  286POPC   C4B 3805   7.717   3.359   6.183 -0.2384 -0.2838  0.1232
  287W        W 3806   8.294   6.926   8.499 -0.1099  0.1060 -0.1462
  288W        W 3807   8.444   9.474   2.963 -0.2545 -0.0866 -0.1969
  289W        W 3808   8.143   9.017   1.229  0.1405  0.0840  0.2681
  290W        W 3809   0.595   7.239   9.787  0.1860 -0.2406 -0.1452
  291W        W 3810   8.568   6.298   2.347 -0.1788  0.0107  0.0465
  292W        W 3811   4.269   0.110   0.017 -0.1780 -0.1293  0.0146
  293W        W 3812   8.296   6.348   8.544 -0.3303  0.2547 -0.0850
  294W        W 3813   9.892   3.330  11.202 -0.1307  0.3261 -0.1891
  295W        W 3814   3.495   5.954   1.854 -0.1121  0.4078  0.2116
  296W        W 3815   4.432   4.050  10.596  0.2280  0.2085 -0.1268
  297W        W 3816   3.505   7.018   8.417 -0.3630 -0.2378 -0.0120
  298W        W 3817   7.196   4.140   1.052 -0.0890 -0.0622  0.1658
  299W        W 3818   0.805   4.741   2.193  0.0869 -0.1599 -0.1554
  300W        W 3819   0.167   5.891   9.402 -0.1798  0.0588  0.4153
  301W        W 3820   1.855   6.663   1.624  0.1209 -0.1838 -0.1625
  302W        W 3821   2.711   8.534   3.853 -0.0102  0.2068 -0.1282
  303W        W 3822   0.003   3.365   0.320  0.1855 -0.2501 -0.0403
  304W        W 3823   9.773   5.451   0.568  0.1962  0.0305 -0.0253
  305W        W 3824   1.413   0.599  10.329  0.2267  0.0443 -0.1549
  306W        W 3825   2.355   5.009  11.114 -0.0381 -0.1015 -0.1490
  307W        W 3826   7.038   0.332  11.232 -0.3853 -0.0693  0.0039
  308W        W 3827   6.788   1.078  10.102  0.1974  0.1075 -0.1001
  309W        W 3828   0.270   6.532  10.725 -0.0408 -0.0816  0.1718
  310W        W 3829   0.958   1.249   9.365  0.1319  0.1595 -0.3095
  311W        W 3830   0.954   5.884   7.847 -0.4483 -0.0896  0.2002
  312W        W 3831   0.774   1.770   1.283  0.0224 -0.2563  0.0250
  313W        W 3832   9.064  10.069   7.569  0.1631 -0.2163  0.0977
  314W        W 3833   1.651   9.332   8.500 -0.1247  0.1582  0.2664
  315W        W 3834   2.433   0.591   2.536  0.0586  0.0985  0.1503
  316W        W 3835   1.142   1.663  11.092  0.3544  0.1549 -0.1408
  317W        W 3836   6.048   9.329  11.395 -0.2523 -0.0679 -0.0958
  318W        W 3837   0.021   6.850   3.559  0.0416  0.1267 -0.1358
  319W        W 3838   8.973   8.226  10.222 -0.2992  0.1870 -0.0518
  320W        W 3839   7.666   6.956  11.315  0.1229 -0.0267  0.1366
  321W        W 3840   9.300   1.695   1.847 -0.1239  0.1316  0.0380
  322W        W 3841   6.908   5.516  11.460  0.1275 -0.1559 -0.3112
  323W        W 3842   8.427   8.577   9.661  0.2101  0.1176 -0.0195
  324W        W 3843   3.849   5.817   8.422 -0.4037  0.1034  0.0244
  325W        W 3844   6.382   1.067   2.025 -0.0940 -0.0791  0.0094
  326W        W 3845   1.007   4.304   9.597 -0.3570  0.0863  0.1786
  327W        W 3846   5.919   3.536   0.281  0.1851 -0.1471  0.0071
  328W        W 3847   3.911   0.228   9.563 -0.1067 -0.6192 -0.0501
  329W        W 3848   4.442   3.663   0.681  0.1024  0.3726 -0.0847
  330W        W 3849   9.283   2.716   0.009 -0.1076  0.0584  0.0719
  331W        W 3850   9.502   4.381  11.342  0.3563 -0.2168  0.0384
  332W        W 3851   7.963   7.967   0.140  0.1449 -0.1039  0.0135
  333W        W 3852  10.007   1.451   0.178 -0.2464 -0.2201  0.1336
  334W        W 3853   0.940   8.106   2.196  0.1959 -0.3972 -0.2275
  335W        W 3854   2.963   7.912   0.186 -0.1561  0.2274 -0.1656
  336W        W 3855   7.486   9.366  10.530  0.1914  0.0848  0.1411
  337W        W 3856   6.988   8.506   1.945 -0.1986 -0.1308 -0.0750
  338W        W 3857   6.105   8.630   0.319  0.1198  0.0749  0.1559
  339W        W 3858   2.814   2.305   0.333  0.2003 -0.1052  0.2906
  340W        W 3859   4.088   1.727   0.825  0.0148 -0.1618 -0.4632
  341W        W 3860   3.314   6.173   1.137  0.2100 -0.0733 -0.1701
  342W        W 3861   2.343   5.982  10.329  0.0308 -0.4898 -0.0070
  343W        W 3862   5.187   4.319   2.621  0.0694  0.2502 -0.1950
  344W        W 3863   9.703   6.689   9.544 -0.1194 -0.0461 -0.1635
  345W        W 3864   8.041   4.302   2.593  0.1593  0.0009  0.2145
  346W        W 3865   5.320   2.766   1.153  0.0526  0.0491 -0.0325
  347W        W 3866   8.925   2.592   0.513  0.1628  0.0528  0.0362
  348W        W 3867   3.284   8.630   1.710 -0.2683  0.1754 -0.2242
  349W        W 3868   2.057   6.251   8.266 -0.0557  0.1476  0.1035
  350W        W 3869   5.147   7.494   1.577  0.3084 -0.1126 -0.0621
  351W        W 3870   5.270   3.243  10.822 -0.1250  0.1205  0.1032
  352W        W 3871   4.553   3.846   7.994  0.0119 -0.1129  0.1913
  353W        W 3872   3.824   7.521   0.087  0.2440  0.2503  0.0346
  354W        W 3873   7.039   0.062   9.411  0.0582  0.2670 -0.2877
  355W        W 3874   1.549   2.728   2.663  0.0672  0.3162  0.0232
  356W        W 3875   6.414   7.487   0.859  0.1766 -0.2653  0.0273
  357W        W 3876   3.687   8.691  11.034 -0.2268 -0.0365  0.0794
  358W        W 3877   1.471   6.776   8.962 -0.1096  0.0519 -0.1520
  359W        W 3878   5.376   5.179   0.134 -0.1787  0.0246  0.1909
  360W        W 3879   9.842   1.692   1.762  0.1162  0.0504 -0.0913
  361W        W 3880   5.847   0.957   1.704 -0.1316  0.0496 -0.3283
  362W        W 3881   0.219   2.821   1.120 -0.0013 -0.1273 -0.3917
  363W        W 3882   9.211   4.190   8.350 -0.0724  0.1662  0.0392
  364W        W 3883   3.868   3.588  10.069  0.1964  0.1120  0.0035
  365W        W 3884   4.756  10.073   9.625 -0.1699  0.4987 -0.0211
  366W        W 3885   2.014   1.262   9.186  0.0760  0.1912  0.0200
  367W        W 3886   9.017   8.908   9.332  0.2801 -0.0804  0.1574
  368W        W 3887   0.618   8.941   1.162 -0.0655  0.0771 -0.0379
  369W        W 3888   9.669   6.505   2.796 -0.0702  0.0104 -0.0378
  370W        W 3889   3.693   4.513   9.580 -0.1148  0.1294 -0.3665
  371W        W 3890   0.352   0.911   8.700  0.0083  0.2913 -0.0162
  372W        W 3891   2.995   5.730   8.102 -0.1845 -0.1641 -0.3845
  373W        W 3892   2.601   0.390   0.731  0.0343 -0.2017 -0.0102
  374W        W 3893   0.917   1.846   8.375 -0.2124  0.1772  0.1080
  375W        W 3894   7.910   7.355   9.110  0.0025 -0.2239  0.0054
  376W        W 3895   9.601   4.219   0.621 -0.3699 -0.1338 -0.0542
  377W        W 3896   1.460   4.160  11.350 -0.0160  0.2214  0.1943
  378W        W 3897   6.263   2.358  10.663  0.2834 -0.2566  0.1416
  379W        W 3898   6.084   0.553   1.878  0.1322  0.3186  0.4983
  380W        W 3899   3.474   3.970   1.238  0.2024 -0.0338  0.3958
  381W        W 3900  10.079   8.988   9.659 -0.1422 -0.0381 -0.2553
  382W        W 3901   9.422   0.941   7.499  0.0069 -0.0137  0.0009
  383W        W 3902   0.566   4.265   8.658  0.2590  0.0761  0.0444
  384W        W 3903   7.445   6.209   0.497  0.0319 -0.1301  0.1579
  385W        W 3904   3.868   2.282   8.599  0.1110  0.0989  0.0781
  386W        W 3905   5.681   3.230  11.590  0.1408 -0.1029  0.1054
  387W        W 3906   4.929   6.041  10.060  0.0589 -0.2381  0.3003
  388W        W 3907   9.001   4.682   0.828  0.4497  0.1206  0.1772
  389W        W 3908  10.057   3.259   3.929  0.2193 -0.0155 -0.2077
  390W        W 3909   9.714   2.482   8.148 -0.1111 -0.0094  0.1462
  391W        W 3910   7.560   8.252   0.129 -0.3481 -0.0317  0.3125
  392W        W 3911   3.605   9.983   2.953 -0.1913  0.3282 -0.2651
  393W        W 3912   6.165   9.865  10.602  0.1485 -0.0635 -0.0232
  394W        W 3913   9.421   1.729   8.143  0.2083 -0.0291  0.1575
  395W        W 3914   5.257   5.095   3.788  0.1900  0.3522 -0.1505
  396W        W 3915   0.804   1.040  10.496 -0.0965 -0.0400  0.0388
  397W        W 3916   5.259   4.349   0.751 -0.2930 -0.0697  0.2834
  398W        W 3917   3.257   3.849  10.633  0.0851 -0.0139  0.0408
  399W        W 3918   5.049   7.797   1.101  0.2615  0.3069 -0.4153
  400W        W 3919   2.333   5.885  11.289 -0.2200 -0.0760 -0.2394
  401W        W 3920   6.592   5.170   8.704  0.1605 -0.3317 -0.2618
  402W        W 3921   1.928   5.592   9.726  0.2059  0.0733 -0.0177
  403W        W 3922   6.802   0.910   0.915 -0.0603 -0.1588  0.1944
  404W        W 3923  10.013   2.817   2.110  0.0870 -0.0422 -0.0022
  405W        W 3924   6.127   3.568   8.266 -0.5632  0.1393  0.0389
  406W        W 3925   4.889   3.631   2.794  0.0078  0.2215 -0.3472
  407W        W 3926   2.299   7.939   1.361 -0.3349 -0.1297  0.2473
  408W        W 3927   7.190   6.978   0.210 -0.2201 -0.0829 -0.0910
  409W        W 3928   6.920   6.947   9.322 -0.0218 -0.0017  0.2132
  410W        W 3929   0.132   9.753   1.036  0.1094 -0.0473  0.0096
  411W        W 3930   0.225   2.831   2.896 -0.0952  0.1210 -0.1985
  412W        W 3931   0.066   9.032   9.173 -0.0225  0.3661 -0.0594
  413W        W 3932   5.497   2.875  11.091  0.0944  0.0912 -0.0825
  414W        W 3933   9.785   8.801   1.344 -0.2000  0.0988  0.5403
  415W        W 3934   3.235   5.206   3.487  0.4801 -0.2295  0.3812
  416W        W 3935   4.880   0.528   7.949 -0.3053 -0.1725  0.2322
  417W        W 3936   1.534   4.611   1.251  0.1297 -0.0545  0.1623
  418W        W 3937   1.229   6.469   2.912 -0.0924 -0.1190  0.0322
  419W        W 3938   3.767   1.083   0.912  0.1506 -0.0657 -0.2321
  420W        W 3939   8.851   9.567   9.274 -0.1193  0.2683 -0.1017
  421W        W 3940   0.794   8.500   0.447  0.2036 -0.0709  0.0344
  422W        W 3941   5.209   3.205   7.229  0.1550  0.3578  0.1777
  423W        W 3942   1.491   5.755   9.912 -0.0385  0.1961  0.0069
  424W        W 3943   5.137   6.123   0.826 -0.0316  0.1675 -0.0850
  425W        W 3944   8.294   9.221   4.949  0.3649 -0.0191 -0.1782
  426W        W 3945   7.627   8.293   8.492  0.1533 -0.0073 -0.1415
  427W        W 3946   0.832   2.877   0.842 -0.0873 -0.0205  0.1663
  428W        W 3947   5.798   1.317   8.686 -0.1177 -0.1797 -0.1163
  429W        W 3948   0.325   8.272   1.259  0.0966 -0.0598 -0.4731
  430W        W 3949   7.982   4.074   1.900 -0.0616  0.0046 -0.0381
  431W        W 3950   5.728   7.072   3.179  0.0595 -0.0942 -0.0116
  432W        W 3951   0.554   6.956   9.348 -0.2478  0.0189  0.0436
  433W        W 3952   5.540   4.731   7.846 -0.0085  0.2309 -0.1027
  434W        W 3953   0.419   9.665   2.928  0.0690 -0.1858  0.0672
  435W        W 3954   7.399   7.539  11.152  0.0860  0.0681  0.2161
  436W        W 3955   0.552   3.774  11.453  0.0225  0.1052 -0.0047
  437W        W 3956   0.194   0.496   2.006  0.1358 -0.4927  0.1125
  438W        W 3957   7.688   1.314   2.244 -0.0557 -0.0215 -0.0036
  439W        W 3958   8.768   6.801   8.793  0.1112  0.0286 -0.0095
  440W        W 3959   6.413   6.368   1.898 -0.2480 -0.0233 -0.0216
  441W        W 3960   0.191   7.795   8.471 -0.0421  0.0282 -0.3352
  442W        W 3961   6.733   4.649   3.988 -0.1571  0.1885 -0.0269
  443W        W 3962   7.839   0.865   8.740 -0.2461 -0.1136  0.0593
  444W        W 3963   1.886   2.357   8.999  0.0095 -0.1965 -0.0281
  445W        W 3964   7.939   6.336   3.335  0.0300 -0.4144 -0.0381
  446W        W 3965   4.362   0.672   8.489  0.0986  0.0363 -0.2349
  447W        W 3966   0.303   7.542   9.442 -0.0056 -0.0556 -0.0865
  448W        W 3967   2.252   5.970   9.704 -0.0723  0.0841  0.0817
  449W        W 3968   0.264   0.409   9.383 -0.0009  0.4088 -0.0974
  450W        W 3969   2.814   9.018   9.110  0.2190  0.1793 -0.0907
  451W        W 3970   1.305   1.308   9.727 -0.2798 -0.0098  0.3244
  452W        W 3971   6.196   8.911   1.943  0.1753  0.0746  0.3710
  453W        W 3972   8.900   1.709   0.768 -0.1011 -0.1254 -0.2241
  454W        W 3973   0.239   8.570   9.235 -0.0087 -0.1011  0.1210
  455W        W 3974   5.656   5.208   0.569 -0.1096  0.0983 -0.1809
  456W        W 3975   4.972   9.697  10.957 -0.0004  0.3267 -0.1267
  457W        W 3976   6.860   5.526   9.125 -0.0553 -0.2118  0.1560
  458W        W 3977   3.933   3.540   7.892  0.1307  0.2142 -0.1195
  459W        W 3978   0.834   3.056   9.357  0.0434  0.2196 -0.0234
  460W        W 3979   8.875   2.477   3.831  0.0651  0.1308 -0.3231
  461W        W 3980   7.861   3.634   0.461  0.1947  0.1368  0.1649
  462W        W 3981   1.140   5.101   2.019  0.0697  0.3664  0.1775
  463W        W 3982   0.083   5.208  11.471 -0.2075  0.0774  0.2095
  464W        W 3983   9.390   0.915  10.737 -0.2685  0.1954 -0.1544
  465W        W 3984   5.907   9.039   9.567 -0.0834 -0.0572 -0.0556
  466W        W 3985   5.095   7.355   7.620 -0.0763 -0.0761 -0.2506
  467W        W 3986   6.454   0.554   8.386  0.0893  0.2236  0.0256
  468W        W 3987   7.947   9.642   3.063 -0.4559  0.1345 -0.0971
  469W        W 3988   2.984   2.065  11.353  0.4235 -0.0047 -0.1042
  470W        W 3989   2.885   7.036   9.414  0.0508  0.2633 -0.3737
  471W        W 3990   3.298   2.028   2.482 -0.0197  0.2132  0.2506
  472W        W 3991   5.420   9.148   1.381 -0.1335  0.4171 -0.1383
  473W        W 3992   6.148   5.387   0.874  0.1035  0.1167  0.2107
  474W        W 3993   1.747   7.795   3.260  0.3253 -0.0136  0.2759
  475W        W 3994   6.142   7.915   8.876  0.0010 -0.1026 -0.2206
  476W        W 3995   1.340   0.251   0.503 -0.3236  0.4418 -0.0440
  477W        W 3996   1.198   1.965  10.721  0.2482  0.0137  0.2351
  478W        W 3997   1.973   5.258   2.739  0.0309 -0.1936  0.3284
  479W        W 3998   2.373   9.040   1.814 -0.1726 -0.1147  0.3129
  480W        W 3999   6.484   2.536   2.416 -0.0290 -0.0376  0.2302
  481W        W 4000   6.172   1.221  11.455 -0.1976  0.0969 -0.0461
  482W        W 4001   3.881   6.155  10.161 -0.1197  0.0567  0.2635
  483W        W 4002   5.020   7.385   3.742  0.3207 -0.0078 -0.1966
  484W        W 4003   9.131   7.123   1.522 -0.1292 -0.2746  0.0347
  485W        W 4004   7.852   2.436   9.880  0.1854 -0.1045  0.0321
  486W        W 4005   5.028   8.223  11.228  0.1269 -0.0351 -0.0320
  487W        W 4006   8.544   8.837   0.884  0.2054 -0.0780  0.1186
  488W        W 4007   1.843   0.136   0.387 -0.4012 -0.2000  0.0803
  489W        W 4008   9.618   7.459   7.952 -0.3244  0.0710 -0.1205
  490W        W 4009   3.051   1.073   0.280  0.3167 -0.2084 -0.4190
  491W        W 4010   8.533   2.102   7.396  0.2543  0.1124  0.0095
  492W        W 4011   4.352   4.457   3.630 -0.0980  0.1221 -0.1923
  493W        W 4012   7.938   6.372   7.299 -0.1714 -0.0830 -0.1248
  494W        W 4013   1.710   5.456   3.058  0.1209 -0.0195 -0.4891
  495W        W 4014   4.655   7.549   8.324 -0.0552 -0.2307 -0.0871
  496W        W 4015   9.980   9.398   8.455 -0.0836  0.1646 -0.1075
  497W        W 4016   2.807   6.236  11.475  0.0013  0.1533  0.0457
  498W        W 4017   4.523   3.487   9.182  0.0207  0.5196  0.0841
  499W        W 4018   6.022   4.834  10.707  0.0601 -0.2131  0.0540
  500W        W 4019   4.036   8.829   2.023  0.0601  0.0976  0.1535
  501W        W 4020   6.655   1.900   1.972  0.1531 -0.1583  0.3471
  502W        W 4021   4.093   2.437   9.269 -0.0178  0.0379 -0.0040
  503W        W 4022   4.616   9.183   9.098  0.1632 -0.0229  0.1398
  504W        W 4023   2.212   7.916   2.398 -0.3348  0.3677 -0.0984
  505W        W 4024   4.586   5.663   0.538  0.2397  0.0142  0.1660
  506W        W 4025   8.795   7.783  11.534  0.1651  0.0048 -0.0671
  507W        W 4026   6.537   4.986   3.711 -0.0809  0.1592  0.1658
  508W        W 4027   4.505   9.789   3.314 -0.0708 -0.0272 -0.0566
  509W        W 4028   5.024   3.329   1.736 -0.0266  0.0205  0.0220
  510W        W 4029   2.579   8.739   0.514  0.0026  0.1344  0.2073
  511W        W 4030   1.988   0.374  10.279  0.0751 -0.3168  0.1859
  512W        W 4031   9.629   0.552   2.210 -0.3110  0.1111  0.1144
  513W        W 4032   3.802   4.963   8.167 -0.0386  0.0666  0.0879
  514W        W 4033   2.154   0.792   2.002  0.1253 -0.0277  0.0880
  515W        W 4034   2.273   1.963  10.115  0.0339  0.1323 -0.2446
  516W        W 4035  10.064   4.016   0.422  0.1841  0.0402 -0.0848
  517W        W 4036   0.407   2.630   9.364  0.0431  0.0815  0.1398
  518W        W 4037   0.245   4.057   1.381 -0.0261  0.2293  0.0582
  519W        W 4038   7.774   9.820  10.519  0.1320 -0.3138  0.0121
  520W        W 4039   4.022   9.971   2.708 -0.1685  0.1556 -0.0136
  521W        W 4040   7.285   9.166   0.812  0.3782  0.2463 -0.0666
  522W        W 4041   5.607  10.034  10.820 -0.2592  0.0586  0.0819
  523W        W 4042   3.677   9.176   7.940  0.2481  0.1230  0.0190
  524W        W 4043   6.525   7.204   1.844  0.0800 -0.0505  0.0067
  525W        W 4044   2.545   7.110   3.866 -0.0668  0.2968  0.1773
  526W        W 4045   2.526   1.526   9.319 -0.1203  0.0667  0.0993
  527W        W 4046   9.949   9.415  10.591  0.1037 -0.1865 -0.0879
  528W        W 4047   4.241   6.444   1.652 -0.2162  0.0683 -0.1171
  529W        W 4048   7.360   6.421  11.579  0.0533 -0.0509 -0.1748
  530W        W 4049   4.105   8.013   0.209  0.1130  0.1242 -0.0416
  531W        W 4050   1.198   7.478   0.946 -0.1488  0.0874 -0.0982
  532W        W 4051   5.578   9.585   1.110 -0.0782 -0.0167 -0.2151
  533W        W 4052   4.439   1.219   2.155  0.3059  0.0709  0.0893
  534W        W 4053   4.169   3.266   2.916 -0.0475  0.0684  0.2558
  535W        W 4054   3.979   2.534   8.207 -0.0696  0.0844 -0.1516
  536W        W 4055   8.445   5.814   2.480 -0.3272  0.2124 -0.1078
  537W        W 4056   4.610   0.308   8.294 -0.0362  0.0331 -0.2941
  538W        W 4057   0.327   1.536   2.266 -0.0719  0.0917 -0.0257
  539W        W 4058   1.215   1.054   2.520  0.3578 -0.0046 -0.2088
  540W        W 4059   8.150   4.559   0.617  0.1380  0.1992 -0.0623
  541W        W 4060   7.260   3.667   1.283  0.1041  0.2826 -0.0294
  542W        W 4061   5.596   9.909  10.326 -0.0385 -0.2584 -0.0827
  543W        W 4062   1.217   1.718   9.344 -0.3940  0.1744 -0.3718
  544W        W 4063   6.049   6.126   2.133  0.1848 -0.1431 -0.1948
  545W        W 4064   7.798   4.967   9.287  0.0708  0.1150 -0.2557
  546W        W 4065   9.911   8.292   2.049  0.0804 -0.0425 -0.1216
  547W        W 4066   2.210   6.861   8.839 -0.5182 -0.1275 -0.0709
  548W        W 4067   4.201   2.787   9.666  0.1671 -0.0515  0.0559
  549W        W 4068   9.264   3.227   2.470 -0.0204  0.0835  0.2531
  550W        W 4069   2.264   0.900   9.452 -0.0762 -0.3028  0.1598
  551W        W 4070   8.481   7.901   1.525 -0.3147  0.0834  0.2981
  552W        W 4071   3.596   5.293   8.479 -0.4339  0.2202 -0.0886
  553W        W 4072   2.011   7.277  10.963  0.0105  0.0282  0.0120
  554W        W 4073   3.952   7.659   8.610 -0.0322  0.2273  0.1233
  555W        W 4074   8.394   3.529   3.236  0.0219  0.1658 -0.1123
  556W        W 4075   3.810   9.584   8.446 -0.1245  0.0465  0.0944
  557W        W 4076   4.002   6.368   8.090 -0.0307 -0.0534  0.1648
  558W        W 4077   7.646   8.793   8.552 -0.0054 -0.0013 -0.1802
  559W        W 4078   9.395   2.768   2.732  0.1239 -0.0152  0.0302
  560W        W 4079   6.682   2.758   1.968  0.0916 -0.3484  0.0084
  561W        W 4080   5.485   9.251   8.453  0.0162  0.1635 -0.3659
  562W        W 4081   6.516   8.292  10.517  0.0995 -0.1069  0.0161
  563W        W 4082   3.105   0.789  11.055  0.2230  0.0312 -0.1459
  564W        W 4083   4.896   3.631   1.238 -0.0340 -0.1889 -0.1971
  565W        W 4084   4.823  10.082  11.237  0.2527 -0.2323 -0.0464
  566W        W 4085   2.139   8.646   9.234  0.2170  0.0800  0.4438
  567W        W 4086   4.879   6.500  11.099  0.5975  0.1161  0.0949
  568W        W 4087   2.122   0.254   1.741 -0.2574  0.0975  0.2314
  569W        W 4088   2.042   0.948   0.044  0.3065  0.0374 -0.0095
  570W        W 4089   7.978   2.733   0.611  0.4488 -0.0248  0.0620
  571W        W 4090   2.323   4.200   1.149  0.1159 -0.1526  0.1186
  572W        W 4091   6.906   4.053   2.628  0.2071  0.1291 -0.0552
  573W        W 4092   2.212   0.846   9.954  0.0747  0.0234  0.0473
  574W        W 4093   4.040   9.326  11.104  0.0575 -0.3861  0.3512
  575W        W 4094   4.035   2.737  10.844  0.0045 -0.1678  0.1582
  576W        W 4095   8.054   0.392   3.229  0.0509  0.2233 -0.1337
  577W        W 4096   9.192   3.545   0.231 -0.0957  0.0303  0.1018
  578W        W 4097   5.008   1.446  10.009  0.1480  0.0856 -0.0120
  579W        W 4098   0.177   1.214   7.833  0.0172 -0.0514  0.0301
  580W        W 4099   8.073   4.061  11.613 -0.0572  0.2706  0.0584
  581W        W 4100   5.347   8.166  10.463  0.0827  0.1101 -0.0066
  582W        W 4101   4.120   9.209  10.230  0.0961  0.3479 -0.0384
  583W        W 4102   6.216   1.985   9.078 -0.2328  0.0110 -0.0917
  584W        W 4103   9.427   3.391   8.785 -0.0963  0.0005 -0.2425
  585W        W 4104   6.905   6.075   9.916  0.0133  0.0205 -0.1773
  586W        W 4105   5.378   2.511   8.966 -0.1559 -0.0010  0.1227
  587W        W 4106   3.529   7.187  11.355  0.3165  0.2947  0.3277
  588W        W 4107   9.829   6.049  11.042 -0.1495 -0.2497  0.3350
  589W        W 4108   1.502   4.139   1.348  0.3492  0.2203  0.0759
  590W        W 4109   2.411   8.998   2.556 -0.0860 -0.2039  0.0944
  591W        W 4110   9.276   0.285   1.804  0.0284 -0.1935  0.2359
  592W        W 4111   1.352   4.234   0.192 -0.1599  0.1295  0.0135
  593W        W 4112   6.903   8.879  11.562  0.0308  0.0529 -0.2176
  594W        W 4113   2.666   1.597   7.083  0.0519 -0.4475  0.0603
  595W        W 4114   9.016   5.917   3.268 -0.0670 -0.1295  0.1597
  596W        W 4115   4.311   7.154   8.101 -0.0592  0.0314 -0.3248
  597W        W 4116   1.581   5.020   2.942  0.1159  0.0363 -0.1650
  598W        W 4117   7.297   8.181   2.354  0.0807  0.0916  0.1001
  599W        W 4118   2.505   8.976   7.717  0.2659 -0.1883  0.0656
  600W        W 4119   4.187   4.672   9.396  0.0613 -0.0985  0.2065
  601W        W 4120   2.225   7.860   0.696  0.3152  0.1275 -0.1110
  602W        W 4121   4.337   0.225   7.686 -0.2903  0.1062  0.0203
  603W        W 4122   7.825   9.133  10.253  0.0754 -0.1494  0.0114
  604W        W 4123   6.908   2.389   8.486 -0.0371  0.0696 -0.0578
  605W        W 4124   9.972   6.283  10.576  0.1438 -0.1357  0.1451
  606W        W 4125   7.385   9.073   6.557  0.0638  0.0108  0.1647
  607W        W 4126   6.584   6.017   2.223  0.0091 -0.2876  0.2493
  608W        W 4127   0.585   0.172   2.953  0.0545 -0.1421  0.0382
  609W        W 4128   4.557   1.841  10.121 -0.1673 -0.3392 -0.1897
  610W        W 4129   7.141   1.151   3.543 -0.2569 -0.1352  0.2588
  611W        W 4130   7.020   5.541   4.231 -0.0511 -0.1604  0.2481
  612W        W 4131   5.467   0.917  10.793  0.0180 -0.0962 -0.1426
  613W        W 4132   9.252   2.636   8.258  0.0199 -0.3140 -0.4210
  614W        W 4133   3.398   4.314   7.622  0.0376  0.2529  0.0002
  615W        W 4134   5.964   8.059  11.590 -0.1820 -0.1293  0.1028
  616W        W 4135   2.817   4.589   0.571  0.3759  0.2026 -0.4835
  617W        W 4136   5.908   7.326  10.773  0.1254 -0.0630  0.0031
  618W        W 4137   1.348   0.833   3.486 -0.0271 -0.1211  0.2290
  619W        W 4138   6.754   8.112   1.735 -0.0459  0.0374  0.2471
  620W        W 4139   2.384   3.199   0.476  0.0783  0.2282  0.0639
  621W        W 4140   2.983   9.751  10.335 -0.3037 -0.0132 -0.1095
  622W        W 4141   6.482   8.585   0.007 -0.0046  0.2861 -0.0148
  623W        W 4142   9.407   8.223   0.604 -0.1437 -0.1239  0.0338
  624W        W 4143   6.006   1.921   2.736 -0.0066 -0.1840 -0.0497
  625W        W 4144   3.991   4.475   0.535  0.1285 -0.0081  0.4408
  626W        W 4145   6.884   2.380  10.033 -0.0804 -0.2009 -0.2491
  627W        W 4146   4.341   5.709   3.591  0.2919  0.1997 -0.2025
  628W        W 4147   8.962   3.301   3.214 -0.1125  0.0877  0.1404
  629W        W 4148   6.783   8.752  10.735  0.0538  0.2568  0.1089
  630W        W 4149   3.138   6.641   1.056 -0.1426 -0.2797  0.1267
  631W        W 4150   0.517   8.226   8.673 -0.0182 -0.1891 -0.0461
  632W        W 4151   6.105   1.584   0.801  0.1813 -0.0722  0.1381
  633W        W 4152   5.629   4.996   3.358  0.2148 -0.2969  0.1196
  634W        W 4153   6.956   0.805  11.245 -0.0249 -0.4123 -0.1588
  635W        W 4154   3.719   7.360  10.013 -0.2662  0.3311 -0.1362
  636W        W 4155   5.539   4.331   0.243  0.1311  0.1010 -0.2491
  637W        W 4156   1.944   6.898   0.761  0.2055 -0.0592 -0.0517
  638W        W 4157   4.112   0.851  11.129  0.0806 -0.4740 -0.1452
  639W        W 4158   1.643   7.526   8.620  0.1079 -0.1597  0.1529
  640W        W 4159   2.054   5.725   1.416  0.0533 -0.0173  0.0952
  641W        W 4160   9.981   9.051  10.174  0.4083  0.1208  0.2441
  642W        W 4161   5.833   0.128   2.839  0.0235  0.0319  0.2985
  643W        W 4162   5.093   4.153   2.091 -0.0755  0.3301 -0.1790
  644W        W 4163   5.662   0.611   9.027  0.0816  0.0106  0.1436
  645W        W 4164   7.734   4.804   0.470 -0.1786 -0.1768  0.2621
  646W        W 4165   7.170   0.920   9.807  0.0192  0.0015  0.0535
  647W        W 4166   5.366   2.340  10.259 -0.1312  0.1579  0.1398
  648W        W 4167   2.330   4.343   9.234  0.0200 -0.0788 -0.3159
  649W        W 4168   9.796   4.950   1.005 -0.3126 -0.0935 -0.0760
  650W        W 4169   6.706   4.959   2.156 -0.0446  0.1787  0.0448
  651W        W 4170   5.348   7.750  10.170 -0.1398  0.1362  0.0304
  652W        W 4171   5.685   0.133  11.312 -0.1686 -0.0200  0.0773
  653W        W 4172   9.527   2.771   2.275 -0.1932 -0.2184  0.1641
  654W        W 4173   9.472   2.540   8.686 -0.1133  0.0195 -0.1633
  655W        W 4174   3.224   7.955  11.108  0.0248  0.0685 -0.1123
  656W        W 4175   3.618   2.373   2.245  0.4395 -0.2612 -0.2011
  657W        W 4176   9.090   2.365   2.874  0.2550  0.2384  0.2292
  658W        W 4177   1.398   4.414   2.284  0.3244  0.0462  0.0624
  659W        W 4178   1.696   8.064   2.102  0.0836 -0.3291 -0.0174
  660W        W 4179   8.003   9.077   8.711 -0.0235  0.1016 -0.2013
  661W        W 4180   7.884   1.443   1.847 -0.0902  0.1496 -0.0136
  662W        W 4181   9.291   6.224   1.736 -0.3782  0.1088  0.2108
  663W        W 4182   2.508   0.132  10.123 -0.1378 -0.2746 -0.3511
  664W        W 4183   7.944   6.030   8.558  0.0672 -0.0501 -0.0026
  665W        W 4184   0.421   6.329  10.147  0.3014 -0.0496 -0.1599
  666W        W 4185   5.193   0.114  11.513  0.0425 -0.0686 -0.3394
  667W        W 4186   0.890   7.325   9.241 -0.1710  0.2062 -0.2485
  668W        W 4187   0.515   4.474   9.327  0.0286  0.2823 -0.0698
  669W        W 4188   0.749   8.782   3.764  0.0240  0.1380 -0.0352
  670W        W 4189   8.438   8.632   1.380 -0.0228  0.0278  0.1991
  671W        W 4190   1.897   6.304   9.625 -0.2711 -0.0597 -0.2799
  672W        W 4191   8.759   4.600   3.374  0.0706  0.0763  0.6091
  673W        W 4192   6.880   7.307   8.963  0.1183 -0.0666 -0.0164
  674W        W 4193   3.353   5.237   0.604 -0.2870  0.1832  0.0442
  675W        W 4194   6.884   1.946   1.136  0.1549  0.5998 -0.2937
  676W        W 4195   4.542   2.953   1.073 -0.0508 -0.3035 -0.1288
  677W        W 4196   3.060   2.276  10.056 -0.0060 -0.0028  0.0271
  678W        W 4197   9.100   2.694   1.711 -0.2647  0.1113 -0.2684
  679W        W 4198   7.373   8.384   0.580  0.0198  0.1594 -0.0871
  680W        W 4199   3.017   1.636   2.304 -0.3002  0.0573 -0.0541
  681W        W 4200   0.873   5.917   1.377 -0.3952 -0.2386  0.1095
  682W        W 4201   8.921   6.745  10.099  0.1856  0.3530  0.1801
  683W        W 4202   9.404   6.245   3.683  0.0272  0.0511  0.1838
  684W        W 4203   4.601   5.191   0.370 -0.3422  0.0134  0.3510
  685W        W 4204   1.459   4.730  10.964  0.2697  0.2056 -0.0187
  686W        W 4205   1.249   2.228   8.097 -0.1312 -0.1859 -0.0110
  687W        W 4206   0.285   5.168  10.927  0.1268  0.1388 -0.0797
  688W        W 4207   5.584   5.593   2.415  0.0345 -0.1819 -0.1843
  689W        W 4208   0.706   0.680   0.479  0.0753 -0.3230 -0.3068
  690W        W 4209   4.713   8.840   8.742  0.2035  0.2121  0.1938
  691W        W 4210   7.191   8.399   9.842  0.2365 -0.2966  0.0411
  692W        W 4211   1.852   0.847  10.459  0.2908 -0.1532 -0.0636
  693W        W 4212   5.597   2.927   8.693 -0.0080  0.1481 -0.3171
  694W        W 4213   3.996   0.995   8.716 -0.0188 -0.1930  0.0052
  695W        W 4214   1.622   3.158   1.996  0.0081  0.0910  0.0741
  696W        W 4215   9.766   8.936   8.683  0.4246  0.0265 -0.0642
  697W        W 4216   2.126   2.851   0.177 -0.0744  0.2085 -0.0113
  698W        W 4217   1.608   5.458   8.163 -0.0563  0.1039  0.0801
  699W        W 4218   4.788   3.756   9.501 -0.1093 -0.3314 -0.0051
  700W        W 4219   3.823   4.314   1.423 -0.3572 -0.0703 -0.0208
  701W        W 4220  10.046   8.963   0.496  0.1494  0.0081  0.1558
  702W        W 4221   9.074   6.643   1.274  0.0732 -0.1348  0.2118
  703W        W 4222   7.779   6.880   2.206  0.1851 -0.0861  0.1001
  704W        W 4223   6.696   4.718   0.321  0.0861  0.1160 -0.2249
  705W        W 4224   3.880   5.735   9.389 -0.1800  0.5871 -0.3057
  706W        W 4225   9.727   3.614   0.148  0.1335 -0.3506 -0.0268
  707W        W 4226   1.384   2.680   8.293  0.2979 -0.0261 -0.1632
  708W        W 4227   9.460   6.495   9.146 -0.0544 -0.1251 -0.3744
  709W        W 4228   6.018   1.045  10.894 -0.2860 -0.2445  0.2281
  710W        W 4229   9.813   5.878   1.061 -0.1688 -0.0622  0.3945
  711W        W 4230   0.484   2.129   0.830  0.1363  0.1239  0.1916
  712W        W 4231   1.552   7.820   9.442  0.0917 -0.2916  0.6798
  713W        W 4232   4.582   2.563   9.228 -0.0396  0.0747  0.1282
  714W        W 4233   0.742   8.974   8.620 -0.2696 -0.2139  0.0074
  715W        W 4234   0.441   2.776   2.096  0.0104  0.3523  0.0822
  716W        W 4235   6.488   4.750  10.850 -0.1501  0.2062  0.0757
  717W        W 4236   9.371   0.075   0.555  0.0111  0.0130 -0.2285
  718W        W 4237   8.938   4.668  11.591  0.1045 -0.2138 -0.0207
  719W        W 4238   2.273   6.506   1.371 -0.1096 -0.3040  0.0829
  720W        W 4239   1.068   7.885   0.233  0.3766  0.0864 -0.1406
  721W        W 4240   3.314   4.490   9.281 -0.1114 -0.0833  0.2104
  722W        W 4241   7.272   3.078   0.149 -0.1926  0.0483 -0.1223
  723W        W 4242   3.440   0.709   8.487 -0.0778  0.1600  0.0354
  724W        W 4243   9.480   1.239   8.882  0.1789 -0.3478  0.1966
  725W        W 4244   2.662   2.388  10.524  0.0694  0.0568 -0.0203
  726W        W 4245   6.789   6.661  11.592 -0.1460 -0.0096  0.0699
  727W        W 4246   6.309   9.306   2.252  0.3422 -0.1672  0.0355
  728W        W 4247   8.983   5.835   8.615 -0.4591  0.0421 -0.1004
  729W        W 4248   8.087   5.731  10.518  0.0402 -0.0084 -0.0974
  730W        W 4249   1.572   3.682  11.436 -0.0341 -0.0959 -0.1650
  731W        W 4250   5.245   4.834   1.411  0.4753  0.1837 -0.2829
  732W        W 4251   2.830   9.463   8.154  0.2922  0.2224 -0.4328
  733W        W 4252  10.046  10.031   1.429  0.1999 -0.0594  0.0781
  734W        W 4253   7.211   7.675   7.958  0.0515 -0.1226 -0.0975
  735W        W 4254   7.736   0.275   1.690  0.0013 -0.4885  0.1290
  736W        W 4255   8.976   4.145   3.426  0.2009 -0.0911 -0.0618
  737W        W 4256   5.627   7.557   2.940 -0.4454 -0.0721  0.1993
  738W        W 4257   4.906   2.265   1.346  0.2518  0.1143 -0.0876
  739W        W 4258   8.105   4.024   8.741  0.1065  0.4557  0.0705
  740W        W 4259   7.080   2.282   0.417  0.2576 -0.0036  0.0468
  741W        W 4260   3.790   9.415   8.895  0.1477  0.0855 -0.2588
  742W        W 4261  10.048   5.009   0.571 -0.1257  0.1573  0.1660
  743W        W 4262  10.058   6.877   0.281 -0.2329 -0.0294 -0.3448
  744W        W 4263   8.529   0.416  10.645 -0.0196 -0.1951  0.0117
  745W        W 4264   4.785   2.853   8.443 -0.1448 -0.5042 -0.1604
  746W        W 4265   1.269   7.487   3.092  0.5491 -0.2942 -0.2086
  747W        W 4266   0.621   5.113  10.500 -0.3887 -0.1032 -0.0162
  748W        W 4267   2.407   7.560   9.086  0.1712  0.1617 -0.1074
  749W        W 4268   2.781   1.106   7.272 -0.0427  0.1788 -0.2659
  750W        W 4269   3.631   7.587   1.402  0.4361 -0.1259 -0.1004
  751W        W 4270   6.149   2.893   2.625 -0.1958  0.1847  0.0341
  752W        W 4271   9.141   0.159   9.805 -0.0045  0.2265 -0.1603
  753W        W 4272   1.650   1.129   2.428  0.0641 -0.2584  0.1733
  754W        W 4273   4.050   3.418   1.760 -0.0466  0.1876  0.2135
  755W        W 4274   4.504   4.864   3.283 -0.0218  0.0124 -0.3162
  756W        W 4275   5.315   0.111  10.017  0.0068  0.3575 -0.0406
  757W        W 4276   5.951   4.742  11.259 -0.0503  0.4308  0.2795
  758W        W 4277   7.924   6.934   2.690  0.4092 -0.0841 -0.1213
  759W        W 4278   7.007   3.322   3.540  0.1257  0.0222  0.1591
  760W        W 4279   9.857   4.767   8.675 -0.0083  0.0676  0.2930
  761W        W 4280   7.165   5.599   8.182  0.2446 -0.4220 -0.1352
  762W        W 4281   6.704   3.518   2.487  0.2251  0.1881 -0.0754
  763W        W 4282   8.165   7.393   1.422  0.4239 -0.0091  0.0017
  764W        W 4283   0.719   9.311  10.574  0.1374 -0.1639  0.2884
  765W        W 4284   8.730   4.460   1.316 -0.1692  0.0176 -0.2775
  766W        W 4285   9.920   0.558   9.429  0.0925 -0.1623 -0.0478
  767W        W 4286   0.456   4.574   1.219 -0.0251 -0.0996 -0.0717
  768W        W 4287   7.808   0.447   2.636  0.1840 -0.1635 -0.1596
  769W        W 4288   6.992   8.282  10.810  0.4600  0.1709  0.0586
  770W        W 4289   9.678   2.756  11.346 -0.4276  0.1065 -0.1017
  771W        W 4290   5.565  10.054   7.502 -0.0653 -0.2024 -0.0714
  772W        W 4291   0.869   0.292   9.387  0.1278  0.1131 -0.2649
  773W        W 4292   3.345   8.772   7.162 -0.2648  0.1596  0.1376
  774W        W 4293   3.079   7.796   8.696 -0.3550  0.1070 -0.3382
  775W        W 4294   3.282   2.868   8.778 -0.2902  0.1327 -0.2786
  776W        W 4295   2.606   4.814  10.451  0.2902  0.0953  0.0340
  777W        W 4296   6.610   2.217   9.316 -0.0212 -0.2112  0.3883
  778W        W 4297   2.077   4.319   8.800 -0.1217  0.2071  0.0651
  779W        W 4298   9.352   4.561   9.457 -0.1669 -0.0946  0.2253
  780W        W 4299   0.143   2.048   0.062  0.4369 -0.0680  0.1362
  781W        W 4300   3.595   8.079  10.764  0.1706  0.0266 -0.0424
  782W        W 4301   1.436   5.566   0.879 -0.1521  0.0903  0.0587
  783W        W 4302   0.556   4.972   3.155  0.0196 -0.1504  0.1574
  784W        W 4303   9.869   1.976   8.047 -0.1993 -0.1398  0.1694
  785W        W 4304   2.874   9.119   0.357  0.0640 -0.0704  0.5385
  786W        W 4305   7.109   9.239   2.389  0.3124 -0.1798 -0.1221
  787W        W 4306   3.858   0.246   2.027 -0.1743  0.0445 -0.2434
  788W        W 4307   3.103   8.002   3.755 -0.2194  0.3069  0.1460
  789W        W 4308   3.342   4.957   1.929  0.1577 -0.1184  0.0612
  790W        W 4309   4.705   2.226   2.750  0.2444  0.2791 -0.0153
  791W        W 4310   3.870   6.584   8.541  0.1262 -0.1753 -0.1010
  792W        W 4311   1.961   2.077   0.240  0.1574  0.3025 -0.1910
  793W        W 4312   0.928   8.267   9.707 -0.0939  0.0752 -0.2413
  794W        W 4313   3.700   3.238   1.109 -0.1858 -0.1874  0.0712
  795W        W 4314   3.706   9.851   9.707 -0.0685 -0.1064 -0.0870
  796W        W 4315   6.795   6.735   1.167  0.3390  0.1670 -0.2492
  797W        W 4316   6.986   8.853   7.509 -0.1304 -0.1867 -0.0689
  798W        W 4317   2.150   1.626  11.557  0.1713  0.0778  0.1086
  799W        W 4318  10.006   4.348  11.516 -0.1220 -0.1590  0.1051
  800W        W 4319   0.705   5.911   3.310 -0.0951 -0.2065 -0.1466
  801W        W 4320   3.544   2.854   7.081 -0.1052  0.0617 -0.1111
  802W        W 4321   8.726   8.116   1.955 -0.1766 -0.3761  0.0007
  803W        W 4322   8.479   2.478  10.142  0.0836 -0.1228  0.1316
  804W        W 4323   4.293   2.418   2.558  0.0517  0.2541  0.0931
  805W        W 4324   3.993   5.788   9.831 -0.1533 -0.0925  0.0029
  806W        W 4325   5.495   9.399   0.013  0.2401 -0.1708  0.2995
  807W        W 4326   0.767   6.325   2.789 -0.3995  0.1828 -0.0162
  808W        W 4327   8.801   5.186   1.861 -0.0908  0.0877 -0.1472
  809W        W 4328   5.308   7.761   9.499  0.0186 -0.0466  0.4735
  810W        W 4329   2.545   3.016  11.488 -0.1941 -0.2850 -0.1379
  811W        W 4330   5.722   4.814   0.183 -0.2170 -0.1357 -0.0808
  812W        W 4331   6.214   8.760   2.507  0.2443  0.0306 -0.1677
  813W        W 4332   6.037   1.218   3.383  0.2286  0.3208  0.1079
  814W        W 4333   9.552   3.650   1.825  0.0232 -0.3755  0.1410
  815W        W 4334   3.381   5.194   2.497  0.0678 -0.2732 -0.1144
  816W        W 4335   9.222   5.114   9.347 -0.1916  0.1100  0.1269
  817W        W 4336   9.584   4.156   9.235  0.0509  0.0145 -0.1857
  818W        W 4337   8.441   0.278   8.210  0.3151  0.1143  0.1457
  819W        W 4338   1.247   5.508   2.889  0.2912  0.1294  0.0440
  820W        W 4339   8.844   3.641  11.478 -0.0462  0.0098 -0.0628
  821W        W 4340   1.486   1.059  10.094 -0.1067  0.0111 -0.1760
  822W        W 4341   5.180   2.160   8.603 -0.0474  0.0852  0.1590
  823W        W 4342   1.988   6.014   3.142  0.0139  0.0535  0.3109
  824W        W 4343   0.808   2.480  10.098 -0.1757  0.1246 -0.0830
  825W        W 4344   8.311   8.743   0.434 -0.3359  0.0284 -0.1785
  826W        W 4345   2.316   5.757   1.890 -0.0105 -0.1632 -0.1808
  827W        W 4346   2.179   0.217   2.293  0.4573 -0.1648 -0.0249
  828W        W 4347   1.764   5.247   8.914  0.0408 -0.0795 -0.1390
  829W        W 4348   3.471   3.257   8.471 -0.1311 -0.0095  0.1229
  830W        W 4349   9.234   1.716   0.297  0.0004 -0.3523  0.1956
  831W        W 4350   8.478   7.527   1.900  0.0623  0.3413  0.1163
  832W        W 4351   0.921   2.807   2.234  0.1821  0.1562  0.1139
  833W        W 4352   1.092   5.536   3.376  0.2253  0.0416 -0.2706
  834W        W 4353   2.452   5.397   0.553 -0.2062 -0.2457  0.1769
  835W        W 4354   6.304   1.173   0.357 -0.2831 -0.4483 -0.0797
  836W        W 4355   2.406   0.249   1.225  0.3797 -0.0866  0.0016
  837W        W 4356   6.630   5.930   1.641  0.0736  0.0129 -0.1792
  838W        W 4357   0.142   8.081   8.942 -0.1618  0.0078 -0.2168
  839W        W 4358   8.580   9.594   2.477 -0.0946  0.0870 -0.0378
  840W        W 4359   4.323   9.556   1.746  0.0686  0.3305 -0.0674
  841W        W 4360   3.588   2.134   8.149 -0.1323 -0.3729  0.2477
  842W        W 4361   2.875   4.481  10.094 -0.0212  0.1319 -0.0666
  843W        W 4362   3.405   3.109   9.584  0.0225  0.2553  0.1799
  844W        W 4363   6.452   2.096   0.916 -0.0225  0.2480  0.2294
  845W        W 4364   5.762   8.260   1.315 -0.1048 -0.3011  0.2231
  846W        W 4365   8.523   7.134   2.386  0.2423  0.0595 -0.2593
  847W        W 4366   0.685   0.770   9.375 -0.1692  0.0541 -0.0365
  848W        W 4367   3.955   4.578   7.709  0.2770 -0.0349 -0.3930
  849W        W 4368   7.451   3.556   1.697  0.2548  0.4678  0.2254
  850W        W 4369   5.916   9.010   7.300 -0.2485 -0.1093  0.1535
  851W        W 4370   1.889   1.283   0.387  0.0377  0.0187  0.0374
  852W        W 4371   4.491   7.033   2.826 -0.0022  0.3788 -0.2038
  853W        W 4372   4.102   6.844   3.826 -0.1792  0.1833 -0.3359
  854W        W 4373   4.013   0.052  10.071 -0.1138  0.3590  0.1495
  855W        W 4374   4.276   4.808  10.414  0.0129  0.0926 -0.2524
  856W        W 4375   1.655  10.084   9.080 -0.0583  0.0025 -0.0862
  857W        W 4376   2.812   5.301   1.121  0.1386  0.1855  0.0821
  858W        W 4377   9.985   3.886  11.005 -0.0022  0.1489 -0.3263
  859W        W 4378   5.721   1.717   3.267 -0.2665 -0.0281  0.3389
  860W        W 4379   6.484   2.047  11.448  0.2922  0.2326 -0.0809
  861W        W 4380   7.557   3.030   1.809  0.2296 -0.1246 -0.1454
  862W        W 4381   4.310   5.452   9.460 -0.1572 -0.0430 -0.1881
  863W        W 4382   1.984   6.850   2.536  0.0648 -0.1805 -0.2351
  864W        W 4383   3.848   0.145   0.576  0.2612 -0.1382 -0.0908
  865W        W 4384   6.375   6.063  10.076  0.2815 -0.2157 -0.3119
  866W        W 4385   1.819   1.300  10.552 -0.0895 -0.0139 -0.0902
  867W        W 4386   3.688   0.213   2.576  0.0438  0.0779  0.0061
  868W        W 4387   5.855   6.655   9.586 -0.1348 -0.2156  0.0842
  869W        W 4388   4.111   7.017   0.645  0.0785 -0.1844 -0.3233
  870W        W 4389   3.130   5.381  11.045 -0.0295  0.0680  0.1169
  871W        W 4390   0.205   5.987  10.917 -0.0328  0.1184  0.1314
  872W        W 4391   7.863   8.380   0.487  0.3754 -0.1181  0.2104
  873W        W 4392   9.110   4.253   1.055  0.1028  0.2758  0.1904
  874W        W 4393   8.124   5.697   0.479  0.0651  0.1872 -0.1214
  875W        W 4394   7.699  10.053   2.867  0.1195 -0.0398  0.0742
  876W        W 4395   0.318   1.550   1.525  0.1523 -0.3327 -0.1272
  877W        W 4396   5.767   2.383   1.189 -0.2898 -0.1652  0.2561
  878W        W 4397   4.259   8.235   9.051 -0.1850 -0.1905 -0.0118
  879W        W 4398   3.550   9.616  11.049 -0.0451 -0.0974  0.0126
  880W        W 4399   1.744   2.870   9.934  0.0034 -0.1219 -0.0709
  881W        W 4400   0.458   9.784   1.496 -0.0417 -0.0215  0.0973
  882W        W 4401   2.790   7.855  11.298  0.3069  0.1361 -0.2033
  883W        W 4402   2.451   9.887   7.489  0.2074 -0.0125 -0.3994
  884W        W 4403   8.412   6.223   7.660  0.1427  0.0842  0.2297
  885W        W 4404   8.141   8.575   0.871 -0.2519 -0.1971 -0.3626
  886W        W 4405   6.935   6.439   8.535  0.3193  0.3525  0.0819
  887W        W 4406   8.066   7.293   2.371  0.1475 -0.3611 -0.0315
  888W        W 4407   8.431  10.047   3.264  0.2587  0.3378 -0.1978
  889W        W 4408   4.063   6.903  10.209  0.1117 -0.1714 -0.0189
  890W        W 4409   3.162   7.302   8.732  0.0953  0.2860  0.1892
  891W        W 4410   1.653   1.159   8.187 -0.1752  0.0710  0.0554
  892W        W 4411   1.276   8.612   7.985  0.0352 -0.2453 -0.1957
  893W        W 4412   0.409   9.876  11.196  0.1210  0.0585  0.1864
  894W        W 4413   0.950   5.245   0.669  0.1474  0.1575  0.1383
  895W        W 4414   4.280   4.112   9.130 -0.0173  0.0417  0.1142
  896W        W 4415   7.216   0.529   1.052 -0.1573  0.0718  0.1664
  897W        W 4416   7.882   5.044   2.287 -0.4542 -0.3374  0.2400
  898W        W 4417   8.776   5.172   0.009 -0.2249  0.0184 -0.2676
  899W        W 4418   9.706   8.039  11.257  0.0931  0.3363 -0.0699
  900W        W 4419   5.298   1.198   8.301 -0.0171  0.3006 -0.2974
  901W        W 4420   8.040   2.250   8.918  0.2918 -0.1026 -0.0294
  902W        W 4421   2.368   4.176   7.583 -0.0360  0.0678 -0.2731
  903W        W 4422   6.661   2.420   0.138 -0.0900 -0.1587 -0.4988
  904W        W 4423   1.177   7.346  10.692  0.1607 -0.2378 -0.0404
  905W        W 4424   3.129   3.128   2.730 -0.3224 -0.0486 -0.4056
  906W        W 4425   9.675   8.193  10.265  0.1309  0.1228  0.1093
  907W        W 4426   6.140   8.604  10.215 -0.1900 -0.1029  0.1651
  908W        W 4427   0.155   4.503   9.724  0.0123 -0.1507 -0.0187
  909W        W 4428   7.754   7.488   2.803  0.1066 -0.1228  0.0341
  910W        W 4429   1.732   7.611   1.934  0.0468 -0.0159  0.2321
  911W        W 4430   8.100   1.006   9.985  0.3281 -0.2272 -0.4578
  912W        W 4431   3.691   4.723  11.118 -0.2305 -0.1977  0.1115
  913W        W 4432   1.619   4.934   2.198 -0.3760 -0.2480 -0.3649
  914W        W 4433   1.601   5.809   3.412  0.0617  0.0307  0.1087
  915W        W 4434   3.028   9.870   9.474  0.0881  0.1842  0.0380
  916W        W 4435   9.035   8.193   0.886 -0.1354 -0.1153  0.0449
  917W        W 4436   0.710   2.124   2.893  0.3265 -0.0623 -0.1061
  918W        W 4437   2.830   3.321   9.946  0.1176 -0.3411 -0.1508
  919W        W 4438   9.952   0.408   1.183 -0.2347 -0.5136  0.1941
  920W        W 4439   7.929   1.449   2.765 -0.0889  0.1969 -0.0733
  921W        W 4440   5.211   5.584   1.581 -0.0238 -0.0093 -0.0263
  922W        W 4441   0.182   1.649   8.934  0.2191 -0.0931 -0.2192
  923W        W 4442   5.219   6.888   0.286 -0.2764  0.2414  0.2438
  924W        W 4443   8.260   9.937  10.747 -0.0684  0.2087  0.3104
  925W        W 4444   5.344   7.373   1.036 -0.1045  0.1601 -0.1574
  926W        W 4445   5.298   4.176  11.104  0.0982  0.1994  0.0999
  927W        W 4446   6.102   5.984   8.695  0.1912 -0.0197 -0.1271
  928W        W 4447   7.896   9.662   0.481 -0.0269  0.2754 -0.0609
  929W        W 4448   8.621   5.101   3.375 -0.0932 -0.1685 -0.4430
  930W        W 4449   9.503   2.163   2.693  0.1589  0.1940 -0.0550
  931W        W 4450   1.031   6.943   9.553  0.1906  0.1809 -0.2034
  932W        W 4451   7.558   2.381   2.392 -0.3009 -0.2826 -0.1259
  933W        W 4452   2.146   2.082   2.179  0.0561 -0.4111 -0.0311
  934W        W 4453   6.885   7.255   8.025 -0.1484  0.1199  0.2467
  935W        W 4454   2.672   4.650   7.379  0.1145  0.2367 -0.0159
  936W        W 4455   2.673   1.998   1.289  0.1945  0.0974 -0.1292
  937W        W 4456   5.481   8.013   1.679  0.1136  0.3682 -0.1161
  938W        W 4457   5.357   8.991   9.891 -0.3039  0.4570  0.3048
  939W        W 4458   7.746   1.141   1.429 -0.0097  0.1972 -0.0746
  940W        W 4459   0.722   7.562  10.872 -0.3078  0.0346 -0.1363
  941W        W 4460   9.164   7.757  10.256 -0.1919 -0.1242  0.4062
  942W        W 4461   5.789   9.717  11.160  0.1704 -0.0716 -0.1413
  943W        W 4462   3.363   8.124   9.609  0.0678 -0.0976  0.0218
  944W        W 4463   3.125   6.145   9.641 -0.1590 -0.0814  0.3219
  945W        W 4464   0.537   7.183   2.192  0.0876 -0.2223  0.2526
  946W        W 4465   5.768   3.033  10.661 -0.0789  0.1440  0.1368
  947W        W 4466   4.001   7.403   1.649 -0.0634  0.0576 -0.0320
  948W        W 4467   9.035   1.493   9.468  0.0778  0.0036  0.3292
  949W        W 4468   7.580   3.935   0.053  0.0876 -0.2983 -0.2235
  950W        W 4469   7.209   6.681   9.034 -0.0534  0.1299  0.1907
  951W        W 4470   7.071   8.369   0.059  0.1397 -0.1737 -0.1197
  952W        W 4471   7.845   9.018   8.192  0.0667  0.0954 -0.0238
  953W        W 4472   6.888   9.464   1.444 -0.3394  0.1439 -0.0112
  954W        W 4473   4.629   7.173   9.730 -0.0026  0.0116  0.1811
  955W        W 4474   3.564   1.003   1.402  0.0423  0.0468  0.0021
  956W        W 4475   2.891   3.238   0.495  0.2683 -0.3017 -0.1488
  957W        W 4476   7.595   0.165   9.519  0.1487 -0.0189  0.0657
  958W        W 4477   8.792   0.187   3.539 -0.2038 -0.0511  0.1252
  959W        W 4478   9.463   8.910   9.650  0.0454 -0.0108  0.0055
  960W        W 4479   1.671   1.875   1.152 -0.0800  0.0121  0.0164
  961W        W 4480   1.806   5.763  11.087 -0.2872  0.1672  0.0619
  962W        W 4481   4.071   1.340  10.953  0.3000  0.2963 -0.0941
  963W        W 4482   0.002   9.945   0.482 -0.0193 -0.0606  0.0121
  964W        W 4483   6.826   9.183   0.983  0.1464  0.0379  0.0559
  965W        W 4484   4.361   4.359   7.891 -0.1994  0.0494 -0.0513
  966W        W 4485   6.419   2.825  10.928 -0.0296 -0.1047 -0.1952
  967W        W 4486   6.417   5.262  10.642  0.0593 -0.1286  0.0764
  968W        W 4487   6.470   9.940   0.630  0.0583  0.0467 -0.5087
  969W        W 4488   0.883   5.373   1.668  0.2486  0.0637  0.1615
  970W        W 4489   6.370   8.277   9.263 -0.0330  0.1743 -0.1353
  971W        W 4490   7.103   5.147   7.707  0.0374  0.0002  0.1263
  972W        W 4491   4.357   8.946   2.918  0.0146  0.3964  0.0703
  973W        W 4492   6.809   3.479   1.309 -0.0575  0.0510  0.3257
  974W        W 4493   6.214   8.560   2.992  0.0435  0.0648 -0.2227
  975W        W 4494   4.162   6.922  10.724  0.2010  0.0867 -0.3562
  976W        W 4495   9.116   9.882  10.111 -0.1085  0.3172  0.1971
  977W        W 4496   1.941   2.852   1.461  0.3416  0.2553 -0.2855
  978W        W 4497   8.718   7.234   9.716  0.1483 -0.2420  0.3728
  979W        W 4498   8.596   6.329   1.065 -0.1544  0.0745  0.1551
  980W        W 4499   5.849   5.447   3.678  0.2164  0.1242 -0.1097
  981W        W 4500   0.947   2.584   9.355 -0.0813 -0.0114  0.3583
  982W        W 4501   4.991   7.113   1.912  0.1854 -0.2018  0.1510
  983W        W 4502   3.423   3.442   7.965  0.0608  0.1909 -0.2658
  984W        W 4503   9.749   1.856   0.397 -0.1023  0.2152 -0.1839
  985W        W 4504   9.584   0.736   3.878  0.2076  0.1251  0.0395
  986W        W 4505   5.108   1.872   1.570 -0.2258  0.0639  0.0536
  987W        W 4506   4.797   0.229   0.847  0.2486  0.2840 -0.1065
  988W        W 4507   7.057   7.157   2.547 -0.0555 -0.0983  0.3234
  989W        W 4508   7.746   7.441   8.214  0.1207  0.1635 -0.2219
  990W        W 4509   1.411   9.277   9.595 -0.2441  0.2182  0.0302
  991W        W 4510   3.847   4.891   8.694 -0.0766  0.2230 -0.0526
  992W        W 4511   1.361   1.011   7.768 -0.0734  0.0713  0.2119
  993W        W 4512   7.411   5.883  10.729 -0.3338  0.0562  0.2954
  994W        W 4513   2.813   6.590   9.542 -0.0827  0.0696 -0.0234
  995W        W 4514   7.860   5.685   9.548  0.1202 -0.2005  0.0819
  996W        W 4515   0.544   7.855   2.331 -0.1277 -0.3752 -0.2456
  997W        W 4516   5.934   3.983   3.681  0.1341  0.0651  0.0613
  998W        W 4517   1.184   0.987   1.667 -0.2102  0.0756  0.2021
  999W        W 4518   7.203   5.347   4.631 -0.3423  0.0095  0.1912
 1000W        W 4519   7.489   6.219   8.210 -0.0888  0.0315  0.0448
 1001W        W 4520   2.259   1.984   2.707  0.3191  0.0159  0.0267
 1002W        W 4521   1.363   2.649   8.822  0.2687  0.2499  0.1490
 1003W        W 4522   0.978   7.482   0.446 -0.3855  0.2508  0.1270
 1004W        W 4523   7.162   5.971   3.513  0.0563  0.0985  0.0478
 1005W        W 4524   8.812   0.011  11.518  0.2543  0.1853 -0.2997
 1006W        W 4525   9.306   8.846  10.958  0.0726  0.0227 -0.3011
 1007W        W 4526   5.874   2.421   9.103  0.0410 -0.2571 -0.1582
 1008W        W 4527   3.910   1.188   2.043  0.1937  0.2106  0.0006
 1009W        W 4528   9.497   0.377   0.954  0.5426 -0.1137 -0.1421
 1010W        W 4529   5.767   0.130   7.948  0.0539  0.0496  0.1611
 1011W        W 4530   3.128   5.737  10.102 -0.1020  0.0613  0.2220
 1012W        W 4531   0.493   9.094   9.671 -0.3364 -0.0669 -0.2877
 1013W        W 4532   0.451   0.387   0.158 -0.1644 -0.0332  0.1811
 1014W        W 4533   8.337   4.739  10.905 -0.1089  0.0252 -0.0205
 1015W        W 4534   2.312   4.166   2.233 -0.1767  0.3188 -0.1522
 1016W        W 4535   8.263   8.928  11.608 -0.2784 -0.1871  0.2265
 1017W        W 4536   0.515   5.515  11.260  0.0517  0.1616 -0.0647
 1018W        W 4537   2.900   8.557   8.093  0.1113 -0.3904 -0.1476
 1019W        W 4538   6.231   2.516   0.421  0.2752 -0.4791  0.3146
 1020W        W 4539   9.493   1.044  10.155  0.1144 -0.0615 -0.2418
 1021W        W 4540   0.099   1.741   7.665 -0.1654  0.2095 -0.3037
 1022W        W 4541   0.016   5.386   9.413 -0.0069 -0.0916 -0.1559
 1023W        W 4542   9.059   9.395   2.364 -0.1350 -0.2710 -0.2371
 1024W        W 4543   2.151   8.026   3.985 -0.2149 -0.4714 -0.3014
 1025W        W 4544   8.241   7.177   9.482 -0.3536  0.4319  0.0682
 1026W        W 4545   7.589   2.778   2.690 -0.0953 -0.2416  0.2315
 1027W        W 4546   1.028   3.822   0.905 -0.0055 -0.2825  0.2629
 1028W        W 4547   1.814   4.470  10.505 -0.0110 -0.1718  0.1577
 1029W        W 4548   0.718   4.043  11.011 -0.0968  0.0567  0.4316
 1030W        W 4549   0.716   1.662   9.195 -0.0996  0.1799  0.1867
 1031W        W 4550   8.695   2.907  10.287  0.1245 -0.0692 -0.2293
 1032W        W 4551   3.861   7.327   8.170 -0.1604 -0.0802 -0.0577
 1033W        W 4552   9.236   5.694   0.874  0.1850  0.1675  0.0154
 1034W        W 4553   4.340   9.452   7.381  0.1045  0.2481  0.4986
 1035W        W 4554   2.096   6.332   2.612  0.1378 -0.0692  0.1261
 1036W        W 4555   1.395   3.211   2.451 -0.3018  0.1491 -0.0102
 1037W        W 4556   4.284   3.800   2.156  0.2289 -0.0771  0.2843
 1038W        W 4557   9.160   0.063   8.985  0.0363 -0.4341 -0.1403
 1039W        W 4558   1.486   1.596   8.647  0.1891 -0.3158 -0.2307
 1040W        W 4559   6.241   5.860   2.581 -0.1861 -0.1814  0.1251
 1041W        W 4560   7.586   4.139   9.024 -0.2468  0.0098 -0.1406
 1042W        W 4561   4.548   7.406  11.401 -0.0106 -0.0629 -0.1815
 1043W        W 4562   1.275   2.702   0.116  0.2921 -0.2357  0.0928
 1044W        W 4563   8.554   0.443   3.134  0.4020  0.1827  0.0765
 1045W        W 4564   7.859   7.750  10.899  0.3203  0.0066  0.1666
 1046W        W 4565   0.327   8.344   0.320 -0.0232  0.1811 -0.0021
 1047W        W 4566   0.114   7.066   9.519 -0.1167 -0.3092 -0.1260
 1048W        W 4567   4.139   3.539   3.421  0.1654  0.0753  0.1495
 1049W        W 4568   6.958   2.441   2.181 -0.2700 -0.1122 -0.0058
 1050W        W 4569   8.878   7.875   2.745  0.1368  0.1192  0.0702
 1051W        W 4570   2.398   4.669   2.549 -0.1441  0.3174  0.1334
 1052W        W 4571   0.813   6.988  11.550  0.1684 -0.1865  0.0838
 1053W        W 4572   0.555   1.539  10.378  0.0562 -0.3003 -0.1850
 1054W        W 4573   2.962   8.549   0.800  0.0670 -0.0634  0.1875
 1055W        W 4574   7.253   4.706   7.884 -0.0844  0.0246  0.2323
 1056W        W 4575   7.145   2.434   7.218 -0.2882  0.1449 -0.3197
 1057W        W 4576   3.702   8.410   0.114  0.0581 -0.0460 -0.0710
 1058W        W 4577   0.543   6.750  10.402  0.1070 -0.1204  0.3541
 1059W        W 4578   0.556   3.637   2.945 -0.2505 -0.0368 -0.0364
 1060W        W 4579   6.573   7.248   9.601 -0.2325  0.2947  0.0883
 1061W        W 4580   2.758   9.257  10.359 -0.0406 -0.0947  0.0628
 1062W        W 4581   3.633   3.904   9.790 -0.0442  0.1433 -0.0082
 1063W        W 4582   8.421   4.427   2.901 -0.0941  0.0184 -0.0968
 1064W        W 4583   4.268   2.126   8.327  0.0643 -0.0260 -0.0532
 1065W        W 4584   5.315   9.816  11.297 -0.1062  0.1912 -0.1008
 1066W        W 4585   1.839   9.682   0.659  0.2176 -0.1774  0.0053
 1067W        W 4586   9.768   8.891  10.802  0.1585  0.0508  0.1092
 1068W        W 4587  10.074   7.001   8.548 -0.2987 -0.2359  0.1924
 1069W        W 4588   4.861   1.427   8.001  0.0253 -0.0330 -0.0879
 1070W        W 4589   9.140   8.551   8.602  0.0397  0.0934  0.2548
 1071W        W 4590   6.061   5.042   7.805 -0.0203  0.0000 -0.0634
 1072W        W 4591   7.494   5.505   3.754 -0.0150  0.0872 -0.2567
 1073W        W 4592   5.383   0.545   9.670 -0.1020 -0.3170 -0.1592
 1074W        W 4593   1.120   5.224  10.263  0.1041  0.2808 -0.0345
 1075W        W 4594   0.831   0.237  10.749  0.3595 -0.1855 -0.0659
 1076W        W 4595   5.370   5.720  11.310  0.0550  0.0261 -0.1000
 1077W        W 4596   5.678   3.277   8.343  0.1471  0.0015  0.1585
 1078W        W 4597   2.818   0.985   8.045 -0.2208 -0.2431 -0.0387
 1079W        W 4598   1.174   8.022   3.297 -0.0768 -0.1042 -0.4895
 1080W        W 4599   1.388   2.274  11.269  0.3537  0.3841  0.0759
 1081W        W 4600   7.719   9.506   7.392  0.0342 -0.2487 -0.1268
 1082W        W 4601   2.662   9.048   7.141 -0.1248 -0.1962 -0.2863
 1083W        W 4602   0.063   1.781  10.144 -0.0198 -0.0857 -0.0694
 1084W        W 4603   8.215   3.637  10.576 -0.3660 -0.1480  0.1633
 1085W        W 4604   7.665   1.913   1.115  0.3024 -0.0436 -0.1145
 1086W        W 4605   9.702   6.995   7.276 -0.4249 -0.1276  0.0945
 1087W        W 4606   6.037   5.144   2.706  0.0608  0.0612 -0.1987
 1088W        W 4607   9.848   7.141   9.997  0.2736 -0.1281  0.1893
 1089W        W 4608   9.835   0.268   0.611  0.3413  0.0027  0.0264
 1090W        W 4609   5.634   2.435   8.483 -0.1974 -0.2694 -0.1533
 1091W        W 4610   7.286   9.561   5.677  0.2180 -0.1783 -0.3010
 1092W        W 4611   8.928   3.694   9.914 -0.0842 -0.1930  0.0126
 1093W        W 4612   4.590   8.837   0.420  0.3067  0.0908 -0.4828
 1094W        W 4613   4.004   3.718   4.107  0.0390 -0.0343 -0.3820
 1095W        W 4614   9.034   9.609   8.388 -0.0472 -0.0238  0.1761
 1096W        W 4615   7.280   9.591   7.915  0.1851 -0.0743  0.1710
 1097W        W 4616   9.843   0.573   9.959  0.1461  0.1695  0.1326
 1098W        W 4617   1.165   0.111   2.225 -0.1638  0.1075 -0.0179
 1099W        W 4618   3.070   6.378   9.119  0.3765 -0.2870  0.0157
 1100W        W 4619   2.381   1.718   1.004 -0.0634  0.1775 -0.0054
 1101W        W 4620   5.101   3.735   8.963  0.0970 -0.2317  0.0510
 1102W        W 4621   6.393  10.002   3.448  0.2003 -0.0270  0.2968
 1103W        W 4622   3.278   8.838  11.237  0.1691  0.0106  0.0488
 1104W        W 4623   7.165   4.909   3.365 -0.0787  0.0124  0.1564
 1105W        W 4624   4.580   7.860   9.032 -0.0307 -0.1602  0.2869
 1106W        W 4625   3.391   0.218   8.685  0.0398  0.0554 -0.2018
 1107W        W 4626   7.772   9.544  11.307 -0.0763  0.0997 -0.0768
 1108W        W 4627   6.537   5.217   0.461  0.0248 -0.0056 -0.0833
 1109W        W 4628   9.395   4.556   0.165 -0.2014  0.0861  0.0537
 1110W        W 4629   8.405   4.351   1.741 -0.2125 -0.1355 -0.0014
 1111W        W 4630   2.989   3.399   3.314  0.1475 -0.0081 -0.1164
 1112W        W 4631   2.543   2.373  10.063  0.0655  0.0012 -0.2774
 1113W        W 4632   7.129   6.773   3.114 -0.0852  0.1617  0.0257
 1114W        W 4633   1.135   8.800   2.745 -0.1477  0.4756  0.0214
 1115W        W 4634   2.835   5.023   3.761 -0.0072  0.1901  0.0179
 1116W        W 4635   3.506   7.545   8.390 -0.0022 -0.2088  0.0148
 1117W        W 4636   8.740  10.023   8.041  0.1070 -0.0611  0.1765
 1118W        W 4637   0.371   8.898   3.399 -0.0096  0.1794 -0.0564
 1119W        W 4638   3.433   8.695   0.737 -0.1922 -0.1394 -0.1155
 1120W        W 4639   1.949   0.977   2.876 -0.2646 -0.3377  0.1802
 1121W        W 4640   9.162   8.301   2.832  0.0186 -0.0642 -0.0327
 1122W        W 4641   8.639   1.082   2.148 -0.0093 -0.0442 -0.3041
 1123W        W 4642   2.137   4.867  11.572 -0.1832  0.1402  0.0552
 1124W        W 4643   1.822   7.796   0.995 -0.3654 -0.2192 -0.0105
 1125W        W 4644   6.149   9.049  10.383  0.2574  0.2235 -0.1188
 1126W        W 4645   4.602   5.603  10.813  0.2954  0.2859 -0.2945
 1127W        W 4646   1.454   2.403   1.689  0.0308  0.0358 -0.2439
 1128W        W 4647   9.889   9.582   1.786 -0.0999  0.3114  0.1908
 1129W        W 4648   0.153   4.885   9.394 -0.3070  0.2464  0.1985
 1130W        W 4649   4.223   6.074   1.399 -0.1765 -0.0600  0.2180
 1131W        W 4650   2.578   8.900   3.468  0.1206 -0.1338 -0.0309
 1132W        W 4651   5.576   2.901   9.972 -0.0278  0.1487 -0.1302
 1133W        W 4652   1.011   1.214   0.763  0.1318 -0.1742 -0.1608
 1134W        W 4653   5.582   1.096   1.228  0.1832  0.2802 -0.2884
 1135W        W 4654   4.412   1.878   0.292  0.3806  0.1425 -0.0110
 1136W        W 4655   1.216   2.017   2.893  0.2483 -0.1302 -0.1220
 1137W        W 4656   9.102   1.956   3.829 -0.4793  0.0336  0.1104
 1138W        W 4657   9.937   1.031   8.283 -0.1299  0.0973  0.3322
 1139W        W 4658   9.279   0.841   0.331 -0.1414 -0.0100 -0.0628
 1140W        W 4659   5.882   3.680   1.301 -0.0821 -0.3706 -0.0318
 1141W        W 4660   0.846   4.829  10.851  0.2116  0.2609  0.2112
 1142W        W 4661   0.196   7.250   9.035  0.4011 -0.0134  0.1670
 1143W        W 4662   2.320   0.794   0.564  0.3212 -0.0397  0.0049
 1144W        W 4663   4.869   0.484  11.208 -0.1986 -0.0785  0.3388
 1145W        W 4664   2.776   1.362   0.803  0.2222  0.4381 -0.5258
 1146W        W 4665   6.738   4.943   1.180 -0.0321 -0.1769 -0.1867
 1147W        W 4666   4.342   2.599   3.024 -0.0627  0.1530  0.3648
 1148W        W 4667   7.283   6.393  10.724 -0.0934  0.1530 -0.1773
 1149W        W 4668   2.332   1.295   0.672  0.0953  0.0067  0.0350
 1150W        W 4669   9.428   2.444   1.297 -0.0054 -0.1522 -0.0593
 1151W        W 4670   3.667   5.893   8.995  0.0925 -0.2851 -0.2015
 1152W        W 4671   7.667   9.842   0.963  0.1944 -0.3204 -0.3431
 1153W        W 4672   3.924   3.891   2.609 -0.0715  0.2923 -0.1811
 1154W        W 4673   4.683   2.336  10.959 -0.0615  0.2023 -0.1983
 1155W        W 4674   4.794   6.715   8.956  0.1216 -0.0491  0.1089
 1156W        W 4675   9.457   3.270   2.983  0.0788 -0.0136 -0.0919
 1157W        W 4676   8.794   9.030  11.418 -0.1734 -0.1003  0.0722
 1158W        W 4677   0.077   8.768   0.042 -0.0833 -0.1597 -0.0702
 1159W        W 4678   1.091   8.397   1.370  0.0280  0.3268  0.4380
 1160W        W 4679   3.175   3.900   8.040  0.0180 -0.0950  0.3266
 1161W        W 4680   4.414   7.644  10.323  0.0427  0.1761 -0.0686
 1162W        W 4681   6.558   3.762   2.038  0.1271  0.0205  0.1999
 1163W        W 4682   7.858   7.921   3.088 -0.0477 -0.2815 -0.4075
 1164W        W 4683   2.651   1.824   7.972 -0.0674 -0.0297 -0.3193
 1165W        W 4684   3.216   2.850   0.433 -0.2044 -0.0960 -0.0804
 1166W        W 4685   7.056   1.476   2.117  0.0728 -0.1234  0.0252
 1167W        W 4686   3.081   1.921   8.300 -0.1291  0.0213 -0.0086
 1168W        W 4687   1.860   2.714   8.547 -0.0780  0.1077 -0.0516
 1169W        W 4688   4.532   6.201  10.632  0.2140  0.2340  0.1929
 1170W        W 4689   6.014   3.982   4.196  0.4265  0.2019  0.0864
 1171W        W 4690   1.511   2.468   0.854  0.3172  0.4755  0.1110
 1172W        W 4691   8.578   6.871  11.266  0.1565  0.1799  0.1407
 1173W        W 4692   9.747   4.099   2.683 -0.2651  0.0512 -0.0330
 1174W        W 4693   8.910   2.620   9.945 -0.1903 -0.1539 -0.1953
 1175W        W 4694   3.710   4.799   9.205 -0.0052 -0.1842 -0.1598
 1176W        W 4695   8.297   6.402   2.782 -0.1086  0.0333  0.3088
 1177W        W 4696   2.369   4.965   3.423  0.0220 -0.2108 -0.1564
 1178W        W 4697   0.050   9.339   1.301 -0.1764 -0.1963  0.1123
 1179W        W 4698   9.971   5.164   4.181 -0.1320 -0.4303  0.0251
 1180W        W 4699   7.720   5.468  10.298 -0.2997 -0.1683 -0.1455
 1181W        W 4700   5.422   7.987  10.893 -0.1322 -0.1385 -0.2787
 1182W        W 4701   1.713   7.322  11.448  0.1538  0.2333 -0.0003
 1183W        W 4702   9.532   5.241  10.592  0.0210  0.0615 -0.0478
 1184W        W 4703   3.916   8.146   1.365 -0.3709  0.0985  0.1476
 1185W        W 4704   3.913   4.036  10.558 -0.3737  0.0613 -0.2697
 1186W        W 4705   0.866   9.231  10.053  0.3133 -0.1067 -0.1070
 1187W        W 4706   0.349   5.567  10.655 -0.0489 -0.2871 -0.1121
 1188W        W 4707   8.513   0.231   0.817 -0.1056  0.1916  0.0673
 1189W        W 4708  10.039   5.092   8.982  0.0119  0.1577  0.0547
 1190W        W 4709   1.221   2.939   9.697  0.0836  0.1850  0.2514
 1191W        W 4710   1.830   4.635   9.138 -0.4091  0.1069 -0.1585
 1192W        W 4711   8.080   8.236   1.306  0.0562  0.0685 -0.1330
 1193W        W 4712  10.021   0.051   8.199 -0.0552 -0.0736 -0.2700
 1194W        W 4713   5.295   8.702   1.083 -0.1940 -0.0348  0.1494
 1195W        W 4714   8.073   6.232   2.318 -0.0234 -0.2403 -0.0704
 1196W        W 4715   4.124   8.013   2.185  0.0023  0.3274  0.1003
 1197W        W 4716   3.308   7.119   1.344  0.1416 -0.2959 -0.0165
 1198W        W 4717   8.477   0.825  10.951  0.1157  0.2228 -0.0466
 1199W        W 4718   7.351   0.442   6.636 -0.1024 -0.2439  0.1239
 1200W        W 4719   9.616   5.492   4.494  0.1195  0.0368 -0.1196
 1201W        W 4720   0.705   3.022   1.289 -0.1028  0.0065  0.2120
 1202W        W 4721   9.056   5.452  11.278 -0.3542 -0.0092  0.3342
 1203W        W 4722   0.410   0.230  11.023  0.0054 -0.2728  0.0872
 1204W        W 4723   3.856   0.719   7.207 -0.2188  0.2479  0.0274
 1205W        W 4724   5.206   0.002   7.887 -0.0761  0.1674 -0.1267
 1206W        W 4725   9.002   3.075   2.043  0.0060  0.0233  0.0371
 1207W        W 4726   6.768   9.752  10.113  0.2116 -0.3752 -0.1135
 1208W        W 4727   6.734   2.992   2.423 -0.0630  0.0062  0.0373
 1209W        W 4728   1.740   9.265   9.984 -0.2901 -0.2290  0.0221
 1210W        W 4729   6.452   0.293   1.516  0.0994  0.1832  0.0727
 1211W        W 4730   9.879   4.360   3.092 -0.1216 -0.2112 -0.1506
 1212W        W 4731   3.808   0.103   6.541  0.0088  0.0690  0.1104
 1213W        W 4732   9.740   0.332  11.370  0.0009  0.1840  0.0133
 1214W        W 4733   5.155   5.215  11.284 -0.0113  0.3234  0.1134
 1215W        W 4734   7.704   5.359   0.332 -0.0112  0.0060  0.1358
 1216W        W 4735   9.334   3.611   8.283  0.0965 -0.2427 -0.0224
 1217W        W 4736   3.746   4.868   1.413  0.1491 -0.4080  0.0478
 1218W        W 4737   7.791   5.986   9.055  0.1229  0.2519  0.0270
 1219W        W 4738   7.127   1.893   8.623 -0.1026 -0.0938  0.2879
 1220W        W 4739   9.667   3.902  10.556  0.4837 -0.4339 -0.2011
 1221W        W 4740   6.354   5.847   0.726  0.3657 -0.0826 -0.0269
 1222W        W 4741   4.742   9.988   2.282 -0.0222  0.0477 -0.3442
 1223W        W 4742   7.475   9.673   3.865 -0.0583 -0.5129 -0.0695
 1224W        W 4743   6.614   4.367   1.641 -0.0448  0.1114 -0.2690
 1225W        W 4744   3.208   4.261   0.416  0.3264 -0.1017 -0.1029
 1226W        W 4745  10.088   3.598   1.104  0.0250  0.0015  0.0298
 1227W        W 4746   2.429   6.614   1.829 -0.2527  0.1178  0.1096
 1228W        W 4747   1.003   8.371   2.945  0.1021  0.1997  0.5402
 1229W        W 4748   9.505   9.636  11.425 -0.0115  0.1651  0.1289
 1230W        W 4749   8.641   3.204   9.376 -0.0263 -0.1103  0.1598
 1231W        W 4750   7.576   3.050   8.606 -0.0785  0.1124 -0.2092
 1232W        W 4751   2.016   8.296   1.237 -0.1850  0.1410 -0.0418
 1233W        W 4752   4.484   0.647  10.865 -0.2194 -0.1654 -0.3391
 1234W        W 4753   5.606   6.492   0.124  0.2617 -0.1210 -0.2274
 1235W        W 4754   5.681   7.241   8.392 -0.2122 -0.0151  0.0939
 1236W        W 4755   2.275   5.742   8.374 -0.0005 -0.1262 -0.1411
 1237W        W 4756   6.799   3.564   9.723 -0.2726  0.1996 -0.1513
 1238W        W 4757   9.284   3.133  10.649 -0.1312  0.1415  0.2413
 1239W        W 4758   4.704   1.033  11.524 -0.2690  0.1592  0.2523
 1240W        W 4759   3.237   7.487  10.940 -0.0783 -0.1671  0.0101
 1241W        W 4760   5.853   9.073   2.321 -0.0025  0.0692 -0.1348
 1242W        W 4761   3.303   9.269   8.820 -0.0316 -0.1261 -0.0161
 1243W        W 4762   9.429   7.548   9.047  0.0318 -0.0648  0.0895
 1244W        W 4763   8.125   0.580   0.795  0.2449 -0.2133  0.1048
 1245W        W 4764   3.711   6.570  10.775 -0.1116 -0.2797  0.2300
 1246W        W 4765   4.378   6.926   0.043 -0.0865  0.0042  0.1689
 1247W        W 4766   3.549   1.614   2.641 -0.4170 -0.1162 -0.0508
 1248W        W 4767   6.495   6.766   1.621 -0.2890  0.0713 -0.2068
 1249W        W 4768   3.776   8.870   7.559 -0.1158 -0.1736  0.3519
 1250W        W 4769   0.341   1.734   9.676  0.0810 -0.0344 -0.2289
 1251W        W 4770   2.918   8.646   1.401  0.0855 -0.1081  0.1829
 1252W        W 4771   6.428   2.720   3.884 -0.1803  0.0996  0.0256
 1253W        W 4772   2.427   2.254  10.972  0.2898 -0.0529  0.1974
 1254W        W 4773   9.924   2.083   3.141 -0.3077  0.1518 -0.0368
 1255W        W 4774   0.709   4.239   0.909 -0.2333 -0.1577 -0.0314
 1256W        W 4775   4.192   7.652   8.090 -0.1083 -0.0161  0.0289
 1257W        W 4776   1.298   3.272  11.348  0.2478 -0.1523  0.2541
 1258W        W 4777   3.281   0.815   2.906 -0.2939 -0.0386 -0.2226
 1259W        W 4778   9.583   6.960   7.820  0.1644  0.2245 -0.0798
 1260W        W 4779   4.057   7.060   3.380 -0.1298  0.0802 -0.1540
 1261W        W 4780   2.923   0.623   3.219  0.0773  0.1379  0.0714
 1262W        W 4781   3.820   3.898   3.684  0.0886 -0.0992  0.2680
 1263W        W 4782   1.117   6.629   8.641  0.2735 -0.1501  0.3475
 1264W        W 4783   8.323   7.992   2.892  0.0271 -0.0269  0.1998
 1265W        W 4784   4.965   7.779  10.606 -0.1848  0.2869 -0.1570
 1266W        W 4785   3.331   2.753  10.739  0.0242  0.0213 -0.1082
 1267W        W 4786   2.776   5.638   8.765  0.1915 -0.0326  0.0247
 1268W        W 4787   9.479   5.611   2.480  0.1211 -0.0066  0.1807
 1269W        W 4788   5.454   7.481   8.821  0.2578  0.1595  0.2922
 1270W        W 4789   0.958   3.321   9.929  0.2492  0.1408 -0.2114
 1271W        W 4790   1.511   5.149   0.574  0.0632  0.1210  0.1243
 1272W        W 4791   8.051   8.381   9.339  0.1881  0.2104  0.0601
 1273W        W 4792   4.832   5.583   9.554 -0.1245  0.1029 -0.0661
 1274W        W 4793   3.936   0.825   8.257  0.1960  0.3168 -0.2090
 1275W        W 4794   4.662   5.963   2.310  0.1274 -0.2036 -0.1331
 1276W        W 4795   9.251   9.861   9.464 -0.2279 -0.1856  0.0032
 1277W        W 4796   8.274   9.419  11.314 -0.1022  0.3072 -0.1659
 1278W        W 4797   8.983   6.006  10.570  0.2052 -0.1467 -0.1959
 1279W        W 4798   1.316   7.374  10.159 -0.1565 -0.0969  0.0881
 1280W        W 4799   2.148   5.898   3.636  0.1129  0.2001 -0.0685
 1281W        W 4800   9.889   6.968   0.796 -0.1013  0.1683 -0.0269
 1282W        W 4801   7.376   9.082  11.076 -0.0929 -0.1526  0.0337
 1283W        W 4802   8.715   9.508   7.354 -0.0230 -0.0292 -0.3232
 1284W        W 4803   3.361   4.822   2.878  0.2214  0.0284 -0.0931
 1285W        W 4804   7.001   5.046   0.731 -0.0298  0.1699  0.2916
 1286W        W 4805   6.294   8.147   2.716  0.1161  0.0766 -0.1863
 1287W        W 4806   1.477   3.657   1.188 -0.3065  0.0261  0.1111
 1288W        W 4807   1.647   5.052   1.526 -0.0432 -0.0893 -0.0602
 1289W        W 4808   6.528   1.527   1.211  0.1931  0.5942  0.1277
 1290W        W 4809   4.248   2.329  10.647 -0.1871  0.0210  0.0906
 1291W        W 4810   9.266   0.024   2.784 -0.2567  0.0026 -0.0617
 1292W        W 4811   0.065   5.612   0.205 -0.2066 -0.2786 -0.2371
 1293W        W 4812   6.714   4.216   0.452 -0.3169  0.0865  0.0510
 1294W        W 4813   7.788   5.605   0.947 -0.1637 -0.0678  0.0234
 1295W        W 4814   1.754   2.220   3.381  0.4020 -0.2939  0.0257
 1296W        W 4815   9.677   4.621   1.939  0.1203  0.2315  0.0494
 1297W        W 4816   6.995   9.641  10.739 -0.1963  0.0017  0.1444
 1298W        W 4817   3.270   2.372   0.526  0.1393 -0.0822  0.0186
 1299W        W 4818   3.035   6.875   8.965  0.3441  0.3856  0.1580
 1300W        W 4819   1.596   1.956   0.642 -0.1958 -0.3761 -0.2043
 1301W        W 4820   2.913   5.952   7.169  0.0458 -0.0765  0.2447
 1302W        W 4821   7.801   3.071   8.081  0.0745 -0.1633  0.0178
 1303W        W 4822   4.249   0.068   3.096  0.0043  0.2678 -0.1670
 1304W        W 4823   0.124  10.048   9.679  0.1000 -0.4678  0.1997
 1305W        W 4824   8.264   7.015   1.806  0.1358 -0.1906 -0.2224
 1306W        W 4825   9.156   7.177  10.391  0.0251 -0.0778 -0.0226
 1307W        W 4826   2.441   3.271   8.080 -0.1808 -0.3339  0.0150
 1308W        W 4827   8.041   4.772   2.907 -0.2042 -0.0094 -0.1399
 1309W        W 4828   4.536   7.041  10.256  0.0778  0.1653  0.1257
 1310W        W 4829   0.038   6.373  11.292 -0.0321  0.2830 -0.2202
 1311W        W 4830   2.090   8.210   1.744 -0.1724 -0.2365  0.0067
 1312W        W 4831   8.513   9.873   8.464  0.0861 -0.1375 -0.1051
 1313W        W 4832   9.248   8.922   8.202 -0.0689 -0.0746 -0.0044
 1314W        W 4833   9.500   5.135   2.792 -0.0224 -0.1398 -0.1083
 1315W        W 4834   4.499   6.040   0.240 -0.0160 -0.2466 -0.1725
 1316W        W 4835   1.717   6.079   1.427  0.5126  0.1351 -0.1834
 1317W        W 4836   1.135   8.682   8.431 -0.0673  0.2433 -0.1992
 1318W        W 4837   9.352   4.744   1.092 -0.1992 -0.0902  0.0553
 1319W        W 4838   3.534   1.342   9.362 -0.2693  0.0726 -0.2297
 1320W        W 4839   4.364   7.479   0.732 -0.2358  0.1430 -0.0757
 1321W        W 4840   1.532   1.407   1.201  0.1442 -0.0534  0.3099
 1322W        W 4841   2.641   7.225   8.009 -0.1443  0.0103  0.1359
 1323W        W 4842   9.340   4.747   8.521 -0.3478 -0.0151 -0.1155
 1324W        W 4843   6.173   3.183   1.186 -0.4245  0.3138 -0.1459
 1325W        W 4844   0.534   7.696   8.957  0.0745  0.0762  0.0555
 1326W        W 4845   0.331   1.947  11.020 -0.2419  0.1375 -0.2816
 1327W        W 4846   9.980   3.051   7.568 -0.2491  0.1038  0.0737
 1328W        W 4847   6.930   5.587  10.852 -0.0226 -0.0120  0.2479
 1329W        W 4848   0.934   9.209   0.114 -0.2442  0.2909 -0.3751
 1330W        W 4849   1.920   4.897  10.882 -0.0201 -0.1726  0.0036
 1331W        W 4850   8.492   5.937  10.245 -0.2078 -0.2022  0.0542
 1332W        W 4851   6.035   5.494   2.296 -0.1140  0.1342  0.3440
 1333W        W 4852   3.376   2.568  11.167  0.1800  0.5267  0.3780
 1334W        W 4853   4.672   2.696   1.533 -0.1170  0.1115  0.1865
 1335W        W 4854   3.034  10.033   1.811  0.1536 -0.2102  0.0357
 1336W        W 4855   8.628   2.085   0.996  0.0586  0.3017 -0.3441
 1337W        W 4856   3.187   0.927   9.356 -0.0088 -0.2840 -0.1503
 1338W        W 4857   1.849   7.871   1.464  0.0984  0.0312 -0.5012
 1339W        W 4858   5.207   2.671   8.556 -0.1824 -0.1615  0.0611
 1340W        W 4859   9.884   5.907   8.023 -0.0568  0.0477  0.1901
 1341W        W 4860   9.271   3.706   9.155  0.1572 -0.3057 -0.1380
 1342W        W 4861   7.083   5.307   2.396  0.2764  0.0969  0.0548
 1343W        W 4862   2.570   1.094   0.247 -0.0054  0.1838 -0.2438
 1344W        W 4863   4.501   6.017  11.130  0.0937 -0.0038  0.0130
 1345W        W 4864   4.041   3.386   2.372  0.1157  0.1413 -0.0543
 1346W        W 4865   9.744   6.980   8.914  0.1542 -0.2450  0.1412
 1347W        W 4866   0.451   6.851   1.777  0.0405  0.1193 -0.1220
 1348W        W 4867   5.308   7.439   8.062 -0.0644  0.1216 -0.0008
 1349W        W 4868   2.527   9.384   8.664  0.0612 -0.1066 -0.2318
 1350W        W 4869   1.921   6.352   3.474  0.3173 -0.1082  0.1853
 1351W        W 4870   3.526   0.984   9.016 -0.0073 -0.1194  0.2583
 1352W        W 4871   8.473   3.204   3.643  0.0615  0.0426  0.3010
 1353W        W 4872   2.663   7.955   8.846  0.4259  0.1555 -0.0494
 1354W        W 4873   0.747   0.806   1.013 -0.3277  0.3748  0.1534
 1355W        W 4874   0.578   5.886   9.867  0.3976 -0.1117  0.0911
 1356W        W 4875   6.119   1.882   1.214 -0.1311 -0.0600 -0.2990
 1357W        W 4876   4.262   7.342   0.302  0.0407  0.0869  0.1995
 1358W        W 4877   7.741   8.199   2.090 -0.1240  0.2458 -0.0308
 1359W        W 4878   0.875   7.385   2.704 -0.1377 -0.1149  0.0094
 1360W        W 4879   6.710   6.292   8.058 -0.0009  0.4404 -0.1567
 1361W        W 4880   1.294   6.358   0.145 -0.0219 -0.0469  0.0235
 1362W        W 4881   4.373   9.336  10.653 -0.3477 -0.0699 -0.0930
 1363W        W 4882   4.022   3.343  10.885  0.0165  0.2071  0.0631
 1364W        W 4883   7.947   2.817   9.505 -0.0492  0.0128  0.0617
 1365W        W 4884   2.772   8.071   1.506 -0.0248 -0.1530  0.0670
 1366W        W 4885   7.612   4.791   3.165  0.0705  0.2962 -0.2927
 1367W        W 4886   2.045   0.346   9.105 -0.0701 -0.6691  0.0997
 1368W        W 4887   6.383   6.151  10.767  0.4100  0.1036 -0.0440
 1369W        W 4888   1.357   7.852   0.681 -0.0408  0.2564 -0.0768
 1370W        W 4889   9.316   9.293   9.215 -0.0232  0.2633 -0.3353
 1371W        W 4890   4.211   3.572  10.462  0.1676  0.2128 -0.1760
 1372W        W 4891   5.491   4.813  11.348 -0.0602  0.2455  0.2872
 1373W        W 4892   5.617   1.039   3.037  0.0591 -0.2225 -0.2604
 1374W        W 4893   7.848   0.587   7.512 -0.2521 -0.1603 -0.0260
 1375W        W 4894   9.074   1.983   1.212  0.2122 -0.3477 -0.4149
 1376W        W 4895   1.007   2.350   2.580 -0.0964  0.0823 -0.1245
 1377W        W 4896   1.983   9.259   7.839 -0.2773 -0.0355  0.3839
 1378W        W 4897   5.004   2.375   0.359 -0.0242  0.1017 -0.2281
 1379W        W 4898   6.687   9.468   0.487  0.0038 -0.0682 -0.3261
 1380W        W 4899   3.102   5.322   9.126  0.6730 -0.1149  0.2850
 1381W        W 4900   2.312   6.471  10.066 -0.1236  0.3142  0.4023
 1382W        W 4901   5.812   6.990   0.035  0.0236 -0.1829 -0.0183
 1383W        W 4902   1.829   2.492   2.056 -0.2239  0.1576 -0.1292
 1384W        W 4903   1.967   6.866  10.665 -0.0092 -0.1511 -0.1009
 1385W        W 4904   3.169   7.546  11.453 -0.1436  0.2180 -0.2243
 1386W        W 4905   9.767   3.626   3.230  0.0176  0.1446 -0.1209
 1387W        W 4906   1.993   7.014   1.265 -0.1581  0.1969  0.3914
 1388W        W 4907   6.462   5.244   1.808 -0.0137  0.2694 -0.0588
 1389W        W 4908   7.978   2.089  11.241 -0.0476 -0.2757 -0.2438
 1390W        W 4909   9.866   0.310   8.598  0.1487  0.1049  0.0798
 1391W        W 4910   2.603   8.331  11.437  0.0688 -0.1422  0.2625
 1392W        W 4911   7.632   9.632   6.593 -0.3430 -0.1174  0.2198
 1393W        W 4912   2.687   4.418  11.143  0.0210  0.0037 -0.2258
 1394W        W 4913   2.639   0.337   2.927 -0.1657 -0.0994 -0.0238
 1395W        W 4914   7.180   7.232   1.343  0.0807  0.1606  0.1987
 1396W        W 4915   1.484   4.518   9.581 -0.0414 -0.1897  0.1309
 1397W        W 4916   7.170   0.534   0.523 -0.1063  0.1948  0.0101
 1398W        W 4917   7.596   6.582   0.766  0.1062 -0.0527  0.2071
 1399W        W 4918   6.608   7.277  10.220  0.1323 -0.1847 -0.1536
 1400W        W 4919   0.978   2.251   3.335  0.1464 -0.1458 -0.2204
 1401W        W 4920   2.495   6.543   8.286  0.2089 -0.2218 -0.1483
 1402W        W 4921   9.741   0.850  11.155 -0.1012  0.0826  0.1053
 1403W        W 4922   8.666   1.139   1.125 -0.1147 -0.2212  0.2484
 1404W        W 4923   4.883   1.818   1.152  0.2980 -0.0095  0.0602
 1405W        W 4924   5.788   5.413   9.972  0.1348 -0.0505 -0.1350
 1406W        W 4925   7.101   5.346   9.541 -0.2473  0.2492 -0.1897
 1407W        W 4926   6.963   7.548  10.516 -0.0272 -0.2424 -0.2022
 1408W        W 4927   6.893   7.338  10.967 -0.1389  0.1258  0.1067
 1409W        W 4928   0.329   3.253  11.549  0.0911 -0.2459  0.0553
 1410W        W 4929   2.445   2.196   9.188 -0.0061  0.2197  0.3468
 1411W        W 4930   6.526   4.195   2.937  0.0337  0.1541  0.4110
 1412W        W 4931   7.078   5.404   8.657 -0.4551 -0.2832 -0.4281
 1413W        W 4932   1.915   2.052   1.678 -0.1425  0.0024 -0.1672
 1414W        W 4933   5.841   0.861   0.052  0.0965  0.2852  0.1451
 1415W        W 4934   3.519   6.193   8.417 -0.2791  0.0816 -0.1882
 1416W        W 4935   9.328   0.142   2.278  0.0556 -0.1482 -0.0794
 1417W        W 4936   2.083   3.616  10.007 -0.2786  0.2028 -0.0434
 1418W        W 4937   0.537   7.756   2.889  0.0144 -0.0380  0.0685
 1419W        W 4938   1.397   3.106   3.074  0.1944  0.4457 -0.1065
 1420W        W 4939   7.178   6.322   0.975  0.2587 -0.3632 -0.1459
 1421W        W 4940   5.676   4.157  10.640  0.2573 -0.1019 -0.0554
 1422W        W 4941   6.677   3.040   1.032 -0.3921 -0.2146  0.2592
 1423W        W 4942   8.101   3.215   9.754 -0.0957 -0.4092  0.0017
 1424W        W 4943   2.116   8.861   8.379  0.0521 -0.0723 -0.0453
 1425W        W 4944   3.602   6.684   1.154  0.0884  0.1850  0.2895
 1426W        W 4945   1.479   9.248   0.042  0.2894  0.3106 -0.1505
 1427W        W 4946   2.781   9.121   1.366 -0.1319  0.1868 -0.0681
 1428W        W 4947   7.496   1.594  10.422  0.1943 -0.1761  0.0377
 1429W        W 4948   4.385   6.071   3.244 -0.2562 -0.0117 -0.0938
 1430W        W 4949   2.336   2.398   0.378 -0.2039  0.1838 -0.2166
 1431W        W 4950   1.177   5.981   2.567 -0.1264  0.0743  0.0712
 1432W        W 4951   1.606   2.678   4.000 -0.0011  0.0310 -0.1491
 1433W        W 4952   0.070   4.553   1.552 -0.1765  0.0378  0.0482
 1434W        W 4953   7.736   5.494   2.423 -0.0306 -0.2880  0.1695
 1435W        W 4954   1.901   5.268   0.191  0.2807 -0.1406  0.1600
 1436W        W 4955   0.571   6.616   3.187 -0.0148 -0.1583 -0.0125
 1437W        W 4956   7.884   5.031   0.004 -0.1298 -0.0388  0.0748
 1438W        W 4957   3.611   6.044  10.666 -0.0221  0.0970 -0.0143
 1439W        W 4958   4.145   9.878   8.214 -0.0837  0.0249  0.0874
 1440W        W 4959   3.158   0.624  11.570  0.1359 -0.1062  0.1794
 1441W        W 4960   1.295   6.638   0.781  0.2252  0.0481 -0.1213
 1442W        W 4961   9.768   3.959  11.402  0.1459  0.1395 -0.1756
 1443W        W 4962   1.611   2.093   7.713  0.0652  0.3232  0.1814
 1444W        W 4963   6.480   6.320   1.313  0.0036  0.2007 -0.1181
 1445W        W 4964   1.120   4.732   9.347  0.3217 -0.0151  0.0985
 1446W        W 4965   4.045   7.007   1.924 -0.1159  0.0229 -0.1170
 1447W        W 4966   2.968   6.569   2.003 -0.0881 -0.4286 -0.1317
 1448W        W 4967   1.753   1.707   9.080 -0.2997 -0.1391  0.0922
 1449W        W 4968   1.856   9.172   1.562 -0.2592  0.2462 -0.1916
 1450W        W 4969   9.585   3.153   3.483 -0.0720 -0.3457 -0.0952
 1451W        W 4970   2.587   4.900   0.272 -0.2483  0.0351  0.0660
 1452W        W 4971   8.701   6.111   2.886  0.0596  0.1439 -0.0050
 1453W        W 4972   9.285   2.215  10.708  0.0439 -0.2947  0.0811
 1454W        W 4973   4.992   0.533  10.034 -0.2063  0.0138  0.1449
 1455W        W 4974   7.494   5.196   0.804  0.2974  0.4337  0.0984
 1456W        W 4975   6.914   9.393   8.289  0.0930 -0.3235 -0.2099
 1457W        W 4976   6.752   6.060   2.689 -0.0877 -0.0788  0.1202
 1458W        W 4977   9.703   7.147   1.601 -0.1302  0.1263 -0.3675
 1459W        W 4978   7.364   1.550   8.868 -0.3647 -0.0917 -0.0821
 1460W        W 4979   7.812   0.008   2.375 -0.1780 -0.2243  0.0974
 1461W        W 4980   1.765   6.508  10.953  0.2053  0.1971  0.1012
 1462W        W 4981   2.483   8.778   9.684  0.1091  0.3883  0.1937
 1463W        W 4982   0.285   7.176  10.184  0.2655 -0.3987 -0.1444
 1464W        W 4983   2.032   6.124   0.529  0.4085 -0.0183  0.1009
 1465W        W 4984   8.253   1.816  10.843 -0.1459  0.1408  0.0811
 1466W        W 4985   8.010   0.698   1.537  0.0416  0.0085  0.1485
 1467W        W 4986   8.621  10.015   1.822 -0.1033  0.0219  0.0053
 1468W        W 4987   7.496   3.793   3.092 -0.2603  0.2943 -0.3241
 1469W        W 4988   2.488  10.046   8.946  0.1450 -0.0994  0.0005
 1470W        W 4989   7.167   8.219   8.741  0.2110  0.1250 -0.0876
 1471W        W 4990   0.751   3.572   9.451  0.0747 -0.1386  0.3195
 1472W        W 4991   4.970   8.159   8.621  0.0411 -0.1617 -0.4271
 1473W        W 4992   3.039   6.642   0.051  0.1222  0.0207 -0.3215
 1474W        W 4993   1.598   9.515   7.705  0.2013 -0.0730 -0.1827
 1475W        W 4994   4.208   7.344   9.904  0.1131 -0.0408  0.1891
 1476W        W 4995   7.636   9.223   7.820  0.3388 -0.1017  0.0160
 1477W        W 4996   4.349   4.826   0.677 -0.0805  0.0775  0.0419
 1478W        W 4997   9.675   3.271  10.355 -0.0515 -0.2660 -0.2501
 1479W        W 4998   2.708   8.431   3.322 -0.0513  0.2443  0.1557
 1480W        W 4999   2.886   9.676  11.231 -0.2934 -0.4568 -0.1370
 1481W        W 5000   8.310   8.836   8.091 -0.0212  0.1452 -0.0568
 1482W        W 5001   2.236   7.759   8.569  0.0847 -0.0945  0.2270
 1483W        W 5002   4.849   4.933   8.631 -0.2932  0.1308 -0.0965
 1484W        W 5003   5.263   8.997  10.921 -0.0202  0.0491  0.0300
 1485W        W 5004   1.374   8.288   2.398  0.1226  0.2424 -0.3374
 1486W        W 5005   5.696   4.139   1.455 -0.3599  0.1049 -0.1283
 1487W        W 5006   0.604   2.644   2.579 -0.3191 -0.0973  0.3549
 1488W        W 5007   1.227   6.789  11.408 -0.0253 -0.0233  0.0396
 1489W        W 5008   1.490   3.417   0.680  0.2344  0.1887 -0.0196
 1490W        W 5009   2.259   2.719  10.528 -0.1147  0.2029  0.1071
 1491W        W 5010   2.722   0.017   0.387 -0.1662 -0.0355  0.0176
 1492W        W 5011   0.891   2.110  11.078  0.4915 -0.0367 -0.1443
 1493W        W 5012   9.152   8.711   2.459 -0.0417 -0.0212  0.1480
 1494W        W 5013   6.413   9.466  10.232  0.1104 -0.1029 -0.2793
 1495W        W 5014   7.262   8.797   9.492 -0.3552 -0.0955 -0.0315
 1496W        W 5015   3.436   9.751   9.046 -0.0859 -0.1737 -0.2195
 1497W        W 5016   0.944   9.186   9.513  0.0228  0.2944 -0.0532
 1498W        W 5017   5.836   7.374  10.229 -0.2606 -0.1287  0.2163
 1499W        W 5018   6.149   2.067  11.116  0.0734  0.0322  0.0741
 1500W        W 5019   4.147   2.123  10.202 -0.0994  0.0279  0.0944
 1501W        W 5020   5.517   2.898   0.326  0.0174 -0.1248 -0.0376
 1502W        W 5021   3.647   4.203   0.775 -0.0978  0.3573  0.0723
 1503W        W 5022   6.036   9.251  10.919 -0.0753 -0.0224  0.0392
 1504W        W 5023   4.949   3.629   0.376 -0.2827 -0.0637  0.3623
 1505W        W 5024   8.037   0.815   3.499 -0.0819 -0.2243 -0.0026
 1506W        W 5025   6.405   6.329   3.289  0.0307 -0.1016 -0.1496
 1507W        W 5026   1.914   1.966   8.606 -0.0506  0.0223 -0.3083
 1508W        W 5027   7.397   1.452   7.411 -0.1609 -0.1019 -0.0221
 1509W        W 5028   2.634   3.986   8.030  0.0383 -0.2215  0.2408
 1510W        W 5029   5.363   9.747   8.520 -0.1643 -0.0037  0.0986
 1511W        W 5030   0.094   0.273   2.722 -0.0481 -0.1383 -0.1818
 1512W        W 5031   2.579   0.976   8.558 -0.1767 -0.1129  0.0735
 1513W        W 5032   7.660   1.266   0.826  0.2609  0.0087 -0.0898
 1514W        W 5033   5.614   4.000   2.325  0.0912  0.2660  0.3474
 1515W        W 5034   6.216   0.252   0.874 -0.1773 -0.1307 -0.0642
 1516W        W 5035   5.097   9.535   0.311 -0.2195  0.0027 -0.1277
 1517W        W 5036   2.585   6.194   2.073 -0.1281 -0.0708 -0.1368
 1518W        W 5037   2.663   4.970   9.988 -0.2282  0.0064 -0.0621
 1519W        W 5038   7.849   1.455  11.507 -0.1133  0.1439  0.0878
 1520W        W 5039   5.927   0.926   2.277  0.2255  0.0668  0.1468
 1521W        W 5040   8.611   8.593   2.086  0.0492 -0.3490 -0.1401
 1522W        W 5041   8.849   0.955  10.642  0.0851 -0.1504 -0.1425
 1523W        W 5042   5.832   2.814   0.815 -0.4680 -0.0780 -0.3327
 1524W        W 5043   7.463   4.183   3.469 -0.1236 -0.2289  0.1003
 1525W        W 5044   7.843   0.049   6.721 -0.1177 -0.1141  0.2049
 1526W        W 5045   0.807   0.628   1.494  0.0383 -0.0759 -0.0374
 1527W        W 5046   5.265   5.427   9.067 -0.1056 -0.0767  0.0289
 1528W        W 5047   6.623   6.672   0.461  0.1353 -0.1552  0.2919
 1529W        W 5048   8.014   8.674   1.582  0.1148  0.0747  0.2908
 1530W        W 5049   3.198   3.603   2.921 -0.1035  0.1518 -0.1031
 1531W        W 5050   4.574   8.006   8.156  0.0822  0.0869  0.0222
 1532W        W 5051   0.337   4.353  10.227  0.1616 -0.0290  0.0563
 1533W        W 5052   6.619   4.687   8.998  0.0629 -0.0394  0.1935
 1534W        W 5053   9.481   7.867   2.757 -0.2052 -0.1690 -0.1913
 1535W        W 5054   7.555   4.448   0.777 -0.0800 -0.2373 -0.0685
 1536W        W 5055   6.309   5.567   7.898 -0.1427  0.0887 -0.0037
 1537W        W 5056   7.987   8.515   8.303 -0.1301  0.1717  0.0623
 1538W        W 5057   8.357   0.326   9.287 -0.1137  0.2052  0.0891
 1539W        W 5058   3.244   9.538   7.743  0.0332  0.1697 -0.1323
 1540W        W 5059   9.396   6.892   9.973 -0.1491  0.0198  0.0563
 1541W        W 5060   8.837   1.242   2.602 -0.0421 -0.0795  0.1710
 1542W        W 5061   6.096   0.911   8.755 -0.3568  0.0060 -0.2224
 1543W        W 5062   7.859   8.353   2.802  0.2604 -0.4266  0.2156
 1544W        W 5063   4.937   1.952  11.110  0.0197  0.2189  0.0994
 1545W        W 5064   3.241   2.738   9.271 -0.0779 -0.2631 -0.2025
 1546W        W 5065   6.024   2.695   2.161 -0.0727 -0.2419 -0.2750
 1547W        W 5066   6.266   5.107   8.253 -0.3169  0.1053  0.2940
 1548W        W 5067   0.929   7.062   3.178  0.0110  0.1146  0.0609
 1549W        W 5068   6.436   0.106   9.110 -0.0567  0.0808  0.0157
 1550W        W 5069   8.715   2.623   7.396 -0.0970  0.0963  0.2092
 1551W        W 5070   2.670   9.839   9.818 -0.1377 -0.1483 -0.2055
 1552W        W 5071   0.738   0.253   0.781 -0.1195 -0.0104  0.0709
 1553W        W 5072   7.431   5.633   2.018  0.1050 -0.0457  0.0595
 1554W        W 5073   5.766   1.594  11.488  0.2705 -0.0084  0.2679
 1555W        W 5074   4.873   5.105   2.990 -0.1458  0.1447  0.1763
 1556W        W 5075   8.397   1.253   0.060 -0.4631 -0.1246  0.0221
 1557W        W 5076   1.489   1.869   1.995  0.2626 -0.1390  0.0056
 1558W        W 5077   0.061   8.254  10.977  0.0188  0.0291 -0.0004
 1559W        W 5078   8.290   5.257   9.185  0.0562  0.0598 -0.0401
 1560W        W 5079   5.620   9.205  11.213  0.2253  0.3159 -0.1292
 1561W        W 5080   5.067   7.008  10.125  0.0571 -0.1657  0.1885
 1562W        W 5081   4.500   0.527  11.540  0.3500 -0.0051  0.2808
 1563W        W 5082   5.748   0.578   7.795  0.1074  0.0357 -0.1581
 1564W        W 5083   2.926   3.527  10.449 -0.2509 -0.1905 -0.0128
 1565W        W 5084   4.761   8.955   7.949  0.0613 -0.1664 -0.1001
 1566W        W 5085   8.969   7.031   2.963  0.1151 -0.1209 -0.0229
 1567W        W 5086   8.170   6.658   8.079  0.0632  0.1300  0.0673
 1568W        W 5087   1.319   9.669  11.411 -0.2269  0.3751  0.0190
 1569W        W 5088   3.358   1.070   8.069 -0.3314  0.1533 -0.1238
 1570W        W 5089   6.281   5.545   8.612  0.0657 -0.0770 -0.3484
 1571W        W 5090   5.110   6.081   0.347 -0.0579  0.1045  0.1274
 1572W        W 5091   2.132   9.889   1.519  0.1929 -0.2350 -0.1828
 1573W        W 5092   1.334   5.061   7.910 -0.1173  0.3363 -0.0162
 1574W        W 5093   1.594   9.870  10.964 -0.0283 -0.2221 -0.1942
 1575W        W 5094   4.271   2.465   0.146 -0.0378  0.0631  0.2232
 1576W        W 5095   1.920   2.613   9.528  0.1916  0.1049 -0.0164
 1577W        W 5096   6.751   6.158  10.411  0.0121 -0.0801  0.1640
 1578W        W 5097   4.413   8.792   8.281 -0.0094 -0.1612 -0.0382
 1579W        W 5098   9.245   1.362  10.446 -0.1181 -0.1560  0.2309
 1580W        W 5099   3.404   3.860  11.603 -0.0726 -0.2750 -0.1950
 1581W        W 5100   5.696   3.761   1.813 -0.1125  0.0387  0.0329
 1582W        W 5101   5.452   2.495   0.749 -0.0428 -0.2388 -0.4426
 1583W        W 5102   4.853   7.555   0.680 -0.1341  0.2326 -0.2989
 1584W        W 5103   6.133   3.639  10.001 -0.2154  0.3079 -0.1704
 1585W        W 5104   3.933  10.016   8.700 -0.1895 -0.2343 -0.0554
 1586W        W 5105   8.699   7.423   3.709 -0.1779 -0.1169  0.0449
 1587W        W 5106   2.838   7.081   1.746 -0.1111 -0.2129 -0.0917
 1588W        W 5107   3.919   6.674   9.279 -0.0874  0.1966 -0.3681
 1589W        W 5108   9.199   7.393  11.227  0.1289  0.1502 -0.1157
 1590W        W 5109   5.879   5.579   8.961  0.2235 -0.0936  0.0166
 1591W        W 5110   2.698   7.701   8.143 -0.0215  0.0206 -0.0145
 1592W        W 5111   7.670   5.157   1.342 -0.0148  0.3599 -0.1139
 1593W        W 5112   6.377   8.219   1.346 -0.3613  0.1890 -0.0478
 1594W        W 5113   9.169   6.390   8.291  0.0224  0.3682 -0.1370
 1595W        W 5114   4.607   2.168   2.233 -0.1347 -0.0064  0.0174
 1596W        W 5115   5.159   6.436   1.313 -0.0996  0.2196 -0.1270
 1597W        W 5116   2.953   2.679  11.430  0.0255  0.2058  0.0154
 1598W        W 5117   4.225   7.529   2.134  0.1230  0.0116 -0.2380
 1599W        W 5118   3.660   3.671   2.143 -0.1473  0.0040 -0.1022
 1600W        W 5119   4.612   7.442   2.566 -0.0083 -0.0961 -0.0938
 1601W        W 5120   7.586   4.803   8.812 -0.2899  0.0985 -0.1670
 1602W        W 5121   9.286   8.070   9.857 -0.0859  0.0309  0.2062
 1603W        W 5122   9.855   4.166  10.217 -0.0369 -0.0040  0.1788
 1604W        W 5123   3.547   9.847  10.497 -0.3134 -0.2150 -0.3311
 1605W        W 5124   1.562   2.280   8.511  0.0490  0.0980  0.0706
 1606W        W 5125   6.851   5.622   2.050  0.0283 -0.0902 -0.0049
 1607W        W 5126   1.617   4.133   3.075  0.1647 -0.1407 -0.1794
 1608W        W 5127  10.076   4.774   3.359 -0.2963  0.3693 -0.0694
 1609W        W 5128   4.159   3.961  10.139  0.0473  0.0359  0.0075
 1610W        W 5129   6.473   2.544   9.740  0.1706 -0.0822 -0.1465
 1611W        W 5130   8.755   2.771   3.451  0.0894  0.0442  0.4803
 1612W        W 5131   8.351   5.242   0.266  0.2930  0.0303  0.2837
 1613W        W 5132   0.913   5.541   9.135  0.0715 -0.1639  0.0411
 1614W        W 5133   4.763   4.723   3.723  0.0788  0.0548 -0.1750
 1615W        W 5134   1.288   1.897   1.553 -0.0312 -0.0078  0.1199
 1616W        W 5135   2.455   8.775   6.765 -0.2098  0.0235 -0.3438
 1617W        W 5136   7.115   0.065   0.876 -0.1992  0.1937  0.1652
 1618W        W 5137   7.214   5.723  11.187 -0.1486 -0.0011 -0.0449
 1619W        W 5138   7.062   1.327   2.573 -0.1917  0.1531  0.0262
 1620W        W 5139   8.248   3.945   1.439  0.1820  0.0345 -0.0095
 1621W        W 5140   6.084   1.237   1.168 -0.0321 -0.3981 -0.1230
 1622W        W 5141   9.241   8.313  10.654  0.1962 -0.1376  0.2390
 1623W        W 5142   6.023   5.148   8.696  0.1263 -0.0261 -0.2367
 1624W        W 5143   9.735   7.841   2.263  0.1058  0.0908 -0.0066
 1625W        W 5144   6.141   7.090   8.217 -0.0246 -0.3936 -0.1690
 1626W        W 5145   0.182   7.719   0.431  0.3810  0.1322  0.0291
 1627W        W 5146   0.049   0.322   3.239 -0.0642  0.1564 -0.4324
 1628W        W 5147   9.066   6.318   4.170 -0.3217  0.1067  0.2270
 1629W        W 5148   5.073   0.398   1.292 -0.1082  0.2108 -0.2890
 1630W        W 5149   7.243   1.039   8.729  0.2133 -0.2279  0.3352
 1631W        W 5150   2.417   5.484   2.395  0.1689 -0.1636  0.0610
 1632W        W 5151   0.330   6.013   8.558  0.3371  0.1875  0.1547
 1633W        W 5152   8.774   7.542   7.939  0.0429 -0.3638 -0.1349
 1634W        W 5153   8.548   4.814   0.329 -0.1294  0.2909  0.0185
 1635W        W 5154  10.070   0.488   3.726  0.2306 -0.1290 -0.1156
 1636W        W 5155   7.541   7.422   0.894 -0.3911 -0.2256  0.0824
 1637W        W 5156   4.312   0.917   1.781  0.0218 -0.0972  0.2053
 1638W        W 5157   1.275   0.042  11.540 -0.1597 -0.0602 -0.2202
 1639W        W 5158   7.074   1.876  10.248  0.1390  0.0376 -0.1967
 1640W        W 5159   5.302   5.656   2.896  0.0641 -0.0791  0.1758
 1641W        W 5160   6.609  10.075  11.028 -0.2471  0.1505  0.1539
 1642W        W 5161   6.122   3.474   1.752 -0.1068 -0.2140 -0.1086
 1643W        W 5162   3.188   5.690   2.741 -0.2457 -0.0576  0.0228
 1644W        W 5163   2.395   5.393  11.532  0.0792  0.2948  0.0213
 1645W        W 5164   7.333   4.932   9.680  0.4549  0.0944 -0.0658
 1646W        W 5165   9.610   4.763   3.185  0.2443 -0.0344  0.3144
 1647W        W 5166   4.573   2.052   7.270  0.3311 -0.3651  0.0220
 1648W        W 5167   4.391   7.962   8.588 -0.1292  0.3527 -0.1600
 1649W        W 5168   7.675   3.183   3.975  0.2878 -0.0865 -0.0608
 1650W        W 5169   8.117   4.915   8.899  0.3077 -0.0354 -0.4210
 1651W        W 5170   9.276   1.642   3.426 -0.0706 -0.2709  0.0901
 1652W        W 5171   5.655   2.948   2.509 -0.0800 -0.1441 -0.1472
 1653W        W 5172   5.492   1.524   1.775 -0.1398  0.0054 -0.1872
 1654W        W 5173   3.038   8.130   9.107 -0.0046  0.1965 -0.0587
 1655W        W 5174   4.503   2.787  10.882 -0.2131  0.1546 -0.1342
 1656W        W 5175   5.031   6.977   1.408  0.0680 -0.3522 -0.3846
 1657W        W 5176   9.378   0.491   2.638  0.1439 -0.1959  0.0950
 1658W        W 5177   4.906   3.922  10.939  0.0428  0.2565  0.0412
 1659W        W 5178   1.531   2.140  10.410 -0.1325 -0.2839 -0.3037
 1660W        W 5179   1.481   6.115   0.604  0.3905 -0.0787  0.2506
 1661W        W 5180   7.745   6.517   2.849 -0.2757  0.2887  0.0813
 1662W        W 5181   8.213   9.123  10.571 -0.0389  0.2622  0.1903
 1663W        W 5182   2.056   2.302   8.279  0.1041 -0.0996 -0.2760
 1664W        W 5183   8.751   1.553   3.961 -0.0675 -0.1939  0.1977
 1665W        W 5184   3.483   9.107   9.924  0.2582  0.0168  0.1081
 1666W        W 5185   5.508   0.316   0.986 -0.0834 -0.3364 -0.0609
 1667W        W 5186   4.470   8.517   7.805  0.1282  0.2543 -0.0558
 1668W        W 5187   3.107   4.896   0.305 -0.2234  0.1233 -0.3121
 1669W        W 5188   9.877   5.053   3.702  0.2022  0.2845  0.2311
 1670W        W 5189   1.392   4.022   9.487  0.1581 -0.1864 -0.1538
 1671W        W 5190   1.971   3.518   2.341 -0.0696  0.2086  0.0145
 1672W        W 5191   2.158   1.512   2.815 -0.2225 -0.0046 -0.0218
 1673W        W 5192   0.689   6.248   1.860 -0.1645  0.2773  0.1199
 1674W        W 5193   8.068   7.819   9.154  0.1675  0.3853  0.0230
 1675W        W 5194   9.826   3.348   2.173 -0.2217 -0.1137  0.1756
 1676W        W 5195   6.038   4.380  10.929 -0.0362 -0.0337 -0.2607
 1677W        W 5196   9.574   9.234   1.467  0.0141 -0.3855 -0.0047
 1678W        W 5197   3.341   5.041   9.476  0.0517 -0.0070  0.0060
 1679W        W 5198   2.517   8.588   7.276 -0.1567  0.0995 -0.3253
 1680W        W 5199   1.819   7.267   2.756 -0.0448  0.0104  0.2454
 1681W        W 5200   4.641   2.996   4.069  0.1556 -0.3119  0.3650
 1682W        W 5201   3.037  10.086   8.968  0.0934 -0.0371  0.3041
 1683W        W 5202   1.086   5.372   8.192 -0.1567  0.2314  0.3209
 1684W        W 5203   8.875   2.903  10.974  0.0773 -0.1581 -0.0407
 1685W        W 5204   0.838   7.420   7.753 -0.2620 -0.1164 -0.1657
 1686W        W 5205   7.394   2.756   8.193 -0.2141 -0.0381 -0.4948
 1687W        W 5206   1.820   4.062   2.187  0.1285  0.1096 -0.2204
 1688W        W 5207   9.333   2.726   0.840 -0.2179  0.0739 -0.1722
 1689W        W 5208   9.398   3.984   0.126  0.4045 -0.2854  0.0120
 1690W        W 5209   9.171   4.824   9.850  0.0830 -0.1185  0.0739
 1691W        W 5210   4.644   6.782   7.955 -0.0633  0.1744  0.0075
 1692W        W 5211   1.190   4.925   1.490  0.1602  0.1811 -0.0842
 1693W        W 5212   9.303   8.541   9.990  0.0347 -0.0588 -0.0836
 1694W        W 5213   2.605   7.114   8.941 -0.0931  0.2055  0.1302
 1695W        W 5214   2.866   1.917   9.267  0.2609 -0.0440 -0.3642
 1696W        W 5215   3.921   5.634   0.581 -0.0110 -0.0197  0.0312
 1697W        W 5216   1.381   5.305   9.813  0.1446  0.1594  0.0321
 1698W        W 5217   4.604   9.725   1.431  0.2425  0.2173  0.1731
 1699W        W 5218   2.263   4.535   0.816 -0.5062 -0.0467 -0.1686
 1700W        W 5219   4.934   3.197   9.374 -0.0905 -0.1440  0.0628
 1701W        W 5220   7.812   8.242  10.810 -0.3325  0.0115  0.1640
 1702W        W 5221   2.738   6.022  10.010 -0.2115  0.0611  0.1358
 1703W        W 5222   2.880   7.272   9.937 -0.0010  0.1502 -0.1118
 1704W        W 5223   0.576   3.170   2.813  0.2275  0.2517 -0.0815
 1705W        W 5224   5.099   7.157   9.044  0.0702 -0.1555 -0.0836
 1706W        W 5225   8.592   6.149   4.300 -0.3865 -0.1878 -0.1496
 1707W        W 5226   5.841   9.724   8.771  0.0390  0.0912  0.0263
 1708W        W 5227   7.225   9.845   7.449  0.0760 -0.0208 -0.2380
 1709W        W 5228   6.337   0.248   9.595  0.1735 -0.1367  0.1999
 1710W        W 5229   9.481   0.424  10.943  0.5709  0.3277  0.2064
 1711W        W 5230   8.922   2.069   2.439  0.0145  0.0939 -0.1272
 1712W        W 5231   8.412   4.820   1.561  0.0559  0.0217 -0.0680
 1713W        W 5232   8.414   8.947  11.172 -0.0080 -0.1065  0.2825
 1714W        W 5233   4.850   7.458   8.796 -0.2781 -0.1217  0.0038
 1715W        W 5234   5.777   9.066  10.073  0.0542  0.0769 -0.0192
 1716W        W 5235   2.588   6.432   2.804  0.0595  0.1460 -0.1811
 1717W        W 5236   4.042   2.807   1.192  0.0127 -0.1271 -0.1529
 1718W        W 5237   4.186   0.219   0.986 -0.0412 -0.0428  0.0231
 1719W        W 5238   5.075   9.118   3.413 -0.0708 -0.2161 -0.1289
 1720W        W 5239   6.063   5.174  11.046  0.0378 -0.3205  0.0837
 1721W        W 5240   2.401   9.510   7.867  0.1529  0.1284 -0.0766
 1722W        W 5241   0.272   0.315   0.601 -0.0915  0.0083 -0.0967
 1723W        W 5242   4.630   8.721   9.443  0.1167  0.2017  0.0048
 1724W        W 5243   6.813   4.590   2.532 -0.1527  0.0282 -0.0498
 1725W        W 5244   5.213   9.862   2.185 -0.0882  0.6138  0.0255
 1726W        W 5245   4.353   3.177   8.513 -0.2624  0.1451  0.1806
 1727W        W 5246   5.881   6.456   8.744  0.0609 -0.1145  0.1236
 1728W        W 5247   2.917   0.044  11.465 -0.0921  0.0099  0.0800
 1729W        W 5248   9.504   5.848   1.442 -0.2842  0.1293  0.0048
 1730W        W 5249   9.943   1.700  11.016  0.0915 -0.2830 -0.2376
 1731W        W 5250   6.929   0.625   8.505 -0.3448 -0.4219  0.2889
 1732W        W 5251   5.008   2.339  10.571  0.3224 -0.2321 -0.0496
 1733W        W 5252   1.158   0.649   0.691  0.2424  0.0567  0.1467
 1734W        W 5253   8.771   1.455   6.111  0.1425  0.2102  0.2626
 1735W        W 5254   0.240   5.298   3.428 -0.0973 -0.0375  0.1216
 1736W        W 5255   3.327   1.833  10.138 -0.0477 -0.1224 -0.0327
 1737W        W 5256   3.453   3.615   9.402  0.0263  0.1376  0.2381
 1738W        W 5257   5.737   4.305   9.193  0.0159  0.0516 -0.2423
 1739W        W 5258   9.332   6.648   7.503  0.0697  0.0189 -0.1422
 1740W        W 5259   0.106   2.246   9.286  0.2186  0.1118  0.1458
 1741W        W 5260   4.270   3.679   8.336 -0.1511 -0.2162 -0.0081
 1742W        W 5261   6.108   1.027   8.254  0.0588 -0.2497  0.1982
 1743W        W 5262   6.973   0.220  10.319 -0.0740  0.3159  0.0887
 1744W        W 5263   7.946   2.439  10.382  0.3069  0.1517 -0.1816
 1745W        W 5264   2.954   4.642   1.761  0.1820 -0.0307  0.0191
 1746W        W 5265   7.101   5.726  10.356 -0.2531 -0.3530  0.0792
 1747W        W 5266   4.229   5.913  10.366  0.4176 -0.0060 -0.3697
 1748W        W 5267   8.659   0.837   3.524  0.0290 -0.3910 -0.2902
 1749W        W 5268   7.437   3.104  10.742 -0.1227  0.0784 -0.3032
 1750W        W 5269   5.263   8.742   8.133 -0.4603 -0.0654 -0.2051
 1751W        W 5270   7.060   2.090  11.521  0.2429  0.1708 -0.3209
 1752W        W 5271   8.697   6.631   3.251  0.1784  0.2643 -0.0914
 1753W        W 5272   3.707   3.139   1.963  0.1078  0.1286 -0.2183
 1754W        W 5273   6.756   2.501   0.705  0.2791 -0.1052 -0.1256
 1755W        W 5274   1.605   7.989  10.496  0.2237  0.3933 -0.4271
 1756W        W 5275   7.517   6.877   1.150  0.0745 -0.1031  0.1667
 1757W        W 5276   1.565   0.415   8.769 -0.0267 -0.1392  0.1287
 1758W        W 5277   7.606   8.597   2.448 -0.1349  0.0090 -0.1435
 1759W        W 5278   7.460   4.718   8.314  0.0738  0.2396 -0.1042
 1760W        W 5279   6.976   6.068  10.862  0.5514  0.2281 -0.1089
 1761W        W 5280   1.767   7.862   7.617  0.1439  0.2631  0.2258
 1762W        W 5281   0.059   2.842  10.552 -0.1083 -0.1783 -0.0277
 1763W        W 5282   9.252   2.370   9.518 -0.1069  0.2858  0.2598
 1764W        W 5283   8.435   0.318  11.117  0.2813  0.0513 -0.2400
 1765W        W 5284   4.521   6.977   1.088 -0.1143  0.0561 -0.3712
 1766W        W 5285   5.546   2.259   9.404  0.1621  0.0716  0.2186
 1767W        W 5286   8.853   5.862   3.824 -0.2988  0.1050  0.2748
 1768W        W 5287   0.461   6.069   0.805  0.0892 -0.1034 -0.1039
 1769W        W 5288   2.166   3.417   1.416  0.0355 -0.1733 -0.0308
 1770W        W 5289   8.791   8.865   1.749  0.2959  0.1968 -0.0099
 1771W        W 5290  10.022   8.906   2.649 -0.1281 -0.0152  0.0351
 1772W        W 5291   2.709   8.157   0.599 -0.0514  0.1904  0.0858
 1773W        W 5292   1.663   7.327   1.153 -0.3237 -0.0141  0.0657
 1774W        W 5293   1.642   9.029   2.103 -0.0010  0.0980  0.1332
 1775W        W 5294   0.184   0.552   8.363 -0.0864  0.0057 -0.0157
 1776W        W 5295   2.617   0.995   3.500 -0.1275 -0.0633  0.0850
 1777W        W 5296   3.600   8.377   8.305 -0.0088 -0.0677 -0.1434
 1778W        W 5297   1.622   9.995   2.151  0.1264  0.1617 -0.4624
 1779W        W 5298   5.621   4.302   2.869 -0.0446 -0.2609  0.4262
 1780W        W 5299   1.437   8.231   0.296  0.1632 -0.0747 -0.0964
 1781W        W 5300   4.834   5.573   0.961 -0.0074  0.1357  0.1093
 1782W        W 5301   8.079   3.137   9.072  0.0619  0.1990  0.0789
 1783W        W 5302   2.100   7.843  10.274 -0.1020 -0.0806 -0.0006
 1784W        W 5303   4.863   2.898   1.944  0.0245 -0.3875 -0.2312
 1785W        W 5304   3.385   9.133   7.484  0.0051 -0.0816 -0.0159
 1786W        W 5305   4.177   3.226   0.792 -0.1780  0.0867 -0.0573
 1787W        W 5306   0.709   0.603  11.147 -0.0185 -0.0496  0.0258
 1788W        W 5307   9.726   3.670   0.765  0.0135 -0.0989  0.2346
 1789W        W 5308   6.283   7.482   1.503 -0.2253  0.2780  0.2232
 1790W        W 5309   3.991   1.657   0.224 -0.0774 -0.1373  0.0402
 1791W        W 5310   4.835   7.273   0.224  0.0261 -0.0870 -0.0322
 1792W        W 5311   5.078   2.745  10.139 -0.1578  0.3824  0.2039
 1793W        W 5312   3.158   2.259  10.524  0.0061 -0.0093  0.1430
 1794W        W 5313   0.220   9.766  10.575 -0.1403  0.0172 -0.0119
 1795W        W 5314   8.559   5.407  10.071  0.0880  0.0252 -0.0355
 1796W        W 5315   8.359   1.990   2.585  0.1749 -0.0011  0.1640
 1797W        W 5316   1.764   1.071   9.687 -0.0132  0.2995  0.0362
 1798W        W 5317   7.790   3.219   2.528 -0.2182  0.1395  0.0932
 1799W        W 5318   3.754   0.889  10.677  0.4926  0.0876  0.2494
 1800W        W 5319   5.009   2.772   8.001 -0.5505 -0.0839  0.3531
 1801W        W 5320   8.073   7.724  10.170 -0.1882 -0.2389 -0.0032
 1802W        W 5321   9.479   1.928   9.515 -0.2768 -0.0035  0.0819
 1803W        W 5322   7.581   1.963  10.026 -0.1002  0.0797  0.2974
 1804W        W 5323   2.078   8.860   1.250  0.0610 -0.1003 -0.4267
 1805W        W 5324   0.188   6.206   2.537  0.2411 -0.0856 -0.0687
 1806W        W 5325   8.558   4.053   3.924  0.0748 -0.1510  0.0357
 1807W        W 5326   9.480   1.919  11.039 -0.4433  0.2213  0.0802
 1808W        W 5327   5.140   7.518   2.371  0.0178  0.1778  0.0566
 1809W        W 5328   9.514   7.704   0.440  0.1215  0.1192  0.0550
 1810W        W 5329   5.971   9.821   7.720 -0.0446  0.0168 -0.2389
 1811W        W 5330   7.110   5.910   4.552  0.1407 -0.1252 -0.1684
 1812W        W 5331   1.320   3.508  10.785  0.0217 -0.2669  0.3403
 1813W        W 5332   3.956   6.039   1.917 -0.2276 -0.2728  0.1159
 1814W        W 5333   9.217   2.063   8.521 -0.2433  0.0863  0.4003
 1815W        W 5334  10.032   9.592   3.352 -0.2008 -0.2359 -0.0792
 1816W        W 5335   0.774   4.985   1.147 -0.0763 -0.2449  0.0391
 1817W        W 5336   4.868   0.745   8.378  0.1218 -0.1338  0.2330
 1818W        W 5337   9.340   2.301  10.070  0.2262  0.1214 -0.2183
 1819W        W 5338   8.458   4.071   3.426  0.1465 -0.1179 -0.1705
 1820W        W 5339   8.914   4.108  10.177 -0.1858  0.0948  0.0456
 1821W        W 5340   5.022   5.515  10.052  0.0320 -0.0194  0.0902
 1822W        W 5341   5.734   1.744   0.351 -0.2811  0.0404 -0.1531
 1823W        W 5342   2.705   4.681   1.053 -0.1775 -0.1136 -0.2539
 1824W        W 5343   5.204   7.138   8.557 -0.1225  0.3003  0.0327
 1825W        W 5344   8.865   6.385  10.924 -0.1923 -0.1985  0.1752
 1826W        W 5345   3.513   5.886   9.796  0.1535  0.2863 -0.2297
 1827W        W 5346   0.490   0.935  10.037  0.0286 -0.0253 -0.1211
 1828W        W 5347   7.035   9.335  11.445 -0.0613  0.0902 -0.0726
 1829W        W 5348   7.238   6.366   2.804  0.1255 -0.0889 -0.2241
 1830W        W 5349   8.072   5.530   1.440  0.3221  0.0621  0.1289
 1831W        W 5350   2.925   0.642   8.348 -0.0737  0.0176  0.1676
 1832W        W 5351   8.141   2.896   2.530 -0.4842 -0.1126  0.0994
 1833W        W 5352   9.677   7.876  10.700 -0.0180 -0.1088  0.1114
 1834W        W 5353   1.249   8.608  10.924 -0.0319  0.0336 -0.3553
 1835W        W 5354   6.580   3.770   8.267  0.1655  0.1131 -0.1364
 1836W        W 5355   7.442   8.408  10.507  0.0046  0.2745  0.2901
 1837W        W 5356   7.930   9.409  10.851 -0.1056 -0.3004 -0.0429
 1838W        W 5357  10.084   0.597   8.937 -0.0308 -0.0020  0.1096
 1839W        W 5358   3.038   4.505   8.790  0.2155 -0.0211 -0.2040
 1840W        W 5359   8.350   5.100   2.040 -0.0273 -0.2104 -0.4096
 1841W        W 5360   4.934   6.922   3.499 -0.0841  0.3636  0.0062
 1842W        W 5361   1.745   2.652  10.442 -0.0832  0.0497 -0.0605
 1843W        W 5362   5.242   4.181   3.175 -0.1560 -0.1082  0.0646
 1844W        W 5363   1.661   1.399   2.821  0.0805 -0.1127  0.2895
 1845W        W 5364   5.417   1.445   7.833 -0.1299 -0.0151 -0.0416
 1846W        W 5365   2.062   4.231   1.662  0.2569  0.1264 -0.1933
 1847W        W 5366   6.799   1.007   0.401  0.0544  0.2606 -0.1457
 1848W        W 5367   3.686   9.059  11.434  0.2360 -0.2142  0.1975
 1849W        W 5368   8.169   2.144   1.235 -0.2479 -0.0388 -0.1444
 1850W        W 5369   8.839   1.899   8.256 -0.0647  0.4216 -0.0504
 1851W        W 5370   0.013   1.316   1.881  0.0253  0.3006 -0.1490
 1852W        W 5371   4.368   2.797   8.135 -0.1109  0.1349 -0.1687
 1853W        W 5372   2.090   2.279  10.496  0.0442 -0.0326 -0.4320
 1854W        W 5373   0.549   3.471   0.332  0.0294 -0.0939 -0.0235
 1855W        W 5374   3.602   6.378   8.921  0.1551  0.1239  0.1808
 1856W        W 5375   2.140   0.580  10.766 -0.4642 -0.0202 -0.2159
 1857W        W 5376   9.453   9.863   5.094  0.0864  0.0259  0.0934
 1858W        W 5377   1.356   9.101   7.303 -0.0467  0.0443  0.0766
 1859W        W 5378   8.951   5.693   1.614  0.0954 -0.0245 -0.2273
 1860W        W 5379   3.812   5.248   2.153 -0.2237  0.0535 -0.0154
 1861W        W 5380   3.658   9.707   7.957  0.1100 -0.1905 -0.0835
 1862W        W 5381   1.407   2.040   8.893  0.0042  0.1746 -0.2041
 1863W        W 5382   6.639   4.140   1.201  0.2336 -0.2915 -0.0430
 1864W        W 5383   0.493   8.206   2.718  0.0458 -0.1465  0.0717
 1865W        W 5384   9.343   3.876  10.149 -0.1746 -0.1049  0.2946
 1866W        W 5385   9.997   3.111   9.330  0.4490 -0.0237 -0.2536
 1867W        W 5386   2.006   2.429  10.037 -0.2105 -0.0546  0.1183
 1868W        W 5387   9.490   8.023   1.811 -0.1675  0.0515  0.2334
 1869W        W 5388   4.996   6.226  10.591 -0.4647  0.0788 -0.2944
 1870W        W 5389   1.825   7.089   0.295  0.1695  0.0132 -0.0646
 1871W        W 5390   1.670   1.746  11.340 -0.2590  0.1365  0.0981
 1872W        W 5391   2.912   5.017   8.696 -0.4730  0.0880 -0.0979
 1873W        W 5392   5.082   4.132   8.682  0.1428 -0.1673 -0.0029
 1874W        W 5393   3.627   2.540   8.976 -0.0731  0.0227  0.1783
 1875W        W 5394   9.965   0.104  10.098 -0.1712  0.0887 -0.1151
 1876W        W 5395   2.646  10.056  10.948 -0.1959  0.0321 -0.1259
 1877W        W 5396   1.190   3.530   8.655  0.0958 -0.2105 -0.2645
 1878W        W 5397   6.272   4.873   0.946 -0.0716  0.0179 -0.1651
 1879W        W 5398   2.639   7.891   9.354 -0.0620 -0.1920 -0.1542
 1880W        W 5399   8.843   1.363   3.526  0.1465 -0.0125  0.2267
 1881W        W 5400   4.415   0.191   8.741 -0.1327  0.0641  0.1887
 1882W        W 5401   7.403   2.363   2.884  0.1250 -0.0736  0.1810
 1883W        W 5402   6.070   2.703   8.714 -0.0272 -0.0550 -0.1368
 1884W        W 5403   6.641   4.007   8.733  0.1813 -0.5357  0.3150
 1885W        W 5404   0.329   7.239   0.201  0.2601 -0.2420  0.0502
 1886W        W 5405   8.512   0.543   6.864  0.0802  0.1786 -0.0209
 1887W        W 5406   1.409   7.529  11.134  0.2565 -0.0518 -0.1286
 1888W        W 5407   9.369   0.635  11.442  0.0269  0.0061 -0.1688
 1889W        W 5408   8.175   8.250   7.353 -0.0929 -0.2334  0.0164
 1890W        W 5409   1.186   6.472   1.324 -0.0289 -0.3070  0.0667
 1891W        W 5410   3.499   4.082  10.235  0.2616 -0.1958 -0.0093
 1892W        W 5411   7.206   9.707   4.863 -0.0357  0.2934 -0.2717
 1893W        W 5412   3.021   3.640   0.241 -0.1243 -0.1855  0.1317
 1894W        W 5413   9.065   9.490   1.110 -0.0699 -0.0517  0.1025
 1895W        W 5414   6.763   0.610   2.789  0.0054 -0.0533 -0.0080
 1896W        W 5415   2.158   1.357   7.843 -0.2424 -0.0325  0.1697
 1897W        W 5416   7.037   1.918   3.064 -0.2973  0.1165  0.2410
 1898W        W 5417   5.307   3.144  10.317  0.5080 -0.1442 -0.2667
 1899W        W 5418   5.740   2.438   0.298  0.0478  0.1389 -0.1873
 1900W        W 5419   2.772   0.163   2.419  0.0186  0.2243  0.0411
 1901W        W 5420   5.252   3.653   2.015  0.3159  0.2517 -0.4982
 1902W        W 5421   5.603   7.749   8.361  0.2064 -0.0251  0.4855
 1903W        W 5422   4.394   3.386   7.836 -0.2305 -0.2332 -0.0818
 1904W        W 5423   9.159   7.537   1.240 -0.4067 -0.3687  0.1220
 1905W        W 5424   9.049   7.121   2.453  0.1560 -0.0028  0.3288
 1906W        W 5425   2.133   6.209   1.718  0.5190  0.0414  0.2706
 1907W        W 5426   7.265   3.254   7.733  0.0439  0.0552  0.3241
 1908W        W 5427   0.633  10.069   9.722  0.2417 -0.0761  0.1845
 1909W        W 5428   0.732   7.466   0.039  0.6091  0.1085 -0.1107
 1910W        W 5429   1.649   6.261   8.991 -0.2130  0.0554 -0.2843
 1911W        W 5430   3.571   4.563   8.007  0.0266 -0.3485 -0.0304
 1912W        W 5431   2.252   0.391   0.273  0.2558 -0.1443  0.1498
 1913W        W 5432   6.701   2.978   9.479 -0.2630 -0.3191  0.2748
 1914W        W 5433   0.310   2.251   3.360 -0.4493 -0.3980  0.0302
 1915W        W 5434   5.851   1.285   9.682 -0.1581  0.3318  0.0696
 1916W        W 5435   8.297   0.719  11.494 -0.0758 -0.4346 -0.1654
 1917W        W 5436   0.904   6.327   3.835  0.2772  0.0314 -0.1036
 1918W        W 5437   4.671   4.252  11.467 -0.0425 -0.1790  0.1197
 1919W        W 5438   9.301   2.663  10.939  0.1605  0.0764 -0.0045
 1920W        W 5439   7.088   9.249   9.588  0.2500  0.1582 -0.0886
 1921W        W 5440   8.576   3.205   8.766  0.0808 -0.1638 -0.4419
 1922W        W 5441   0.839   5.391   0.042  0.1538 -0.1935  0.0349
 1923W        W 5442   3.128   9.304   2.228 -0.1436  0.0652 -0.2003
 1924W        W 5443   7.392   0.794   7.314 -0.1961  0.2018  0.0068
 1925W        W 5444   9.337   0.606   9.935 -0.2596  0.1036  0.0279
 1926W        W 5445   2.865   7.027   1.140 -0.0315 -0.1812  0.0560
 1927W        W 5446   4.308   3.551   1.182  0.0900  0.1494 -0.1663
 1928W        W 5447   9.512   8.735   0.351 -0.3599 -0.2688 -0.3323
 1929W        W 5448   7.521   2.261   0.037 -0.0525  0.0242  0.1303
 1930W        W 5449   1.312   0.205  10.566  0.1146  0.2645 -0.0656
 1931W        W 5450   0.140   2.717   3.421  0.1223 -0.2529 -0.3196
 1932W        W 5451   1.096   8.855   2.165 -0.3617  0.0263  0.2524
 1933W        W 5452   0.556   8.979   9.186 -0.3792  0.1262  0.1673
 1934W        W 5453   8.329   7.776  10.718 -0.1334 -0.0391 -0.0305
 1935W        W 5454   7.390   3.861  11.198 -0.0696  0.1241 -0.0062
 1936W        W 5455   5.468   7.591   1.989 -0.0766  0.1811 -0.0414
 1937W        W 5456   0.689   2.697  11.020 -0.0117  0.0269  0.3204
 1938W        W 5457   8.892   9.886   3.837  0.0821 -0.1703  0.4358
 1939W        W 5458   2.531   4.606   3.008  0.2722 -0.1404 -0.2446
 1940W        W 5459   8.589   1.602   2.377 -0.3379  0.0296 -0.1551
 1941W        W 5460   6.819   9.678   7.738 -0.1169 -0.4606  0.1624
 1942W        W 5461   7.852   2.920   3.084  0.2134 -0.0057 -0.0983
 1943W        W 5462   5.596   3.267   1.052  0.0633 -0.3637  0.2613
 1944W        W 5463   9.374   1.845   0.759  0.2206 -0.0915  0.0416
 1945W        W 5464   1.303   7.868  10.014  0.0636  0.0195 -0.1007
 1946W        W 5465   5.996   6.913  10.487  0.1184 -0.0814 -0.2159
 1947W        W 5466   7.835   2.029   2.732  0.1071  0.1730  0.1122
 1948W        W 5467   9.533   4.939  10.182 -0.0250 -0.1530 -0.3923
 1949W        W 5468   6.658   0.417   7.044 -0.0137  0.1490 -0.0220
 1950W        W 5469   3.693   8.238  11.231 -0.2006  0.3127 -0.0768
 1951W        W 5470   7.945   7.897   2.522  0.0298  0.1904  0.0387
 1952W        W 5471   4.867   9.952  10.123  0.0171 -0.1599  0.2594
 1953W        W 5472   1.389   7.907   8.915  0.1976  0.1655  0.0670
 1954W        W 5473   2.099   7.452   1.526 -0.0903 -0.0328  0.0098
 1955W        W 5474   2.007   5.333   1.793 -0.4209  0.0924 -0.2595
 1956W        W 5475   4.083   9.304   2.582  0.2241  0.2014  0.2209
 1957W        W 5476   2.919   5.557   0.669  0.1206 -0.0593 -0.0974
 1958W        W 5477   2.419   9.561   1.007  0.2545 -0.3738 -0.0018
 1959W        W 5478   6.917   8.012   2.739  0.2558  0.1642 -0.1341
 1960W        W 5479   8.794   1.591   0.077 -0.0546  0.1775  0.2048
 1961W        W 5480   3.183   8.290   2.501  0.0700  0.1046  0.2216
 1962W        W 5481   9.723   7.507   3.028  0.1251  0.0691 -0.0420
 1963W        W 5482   6.242   7.054   1.161  0.2661  0.0418  0.2128
 1964W        W 5483   4.488   7.750   1.120 -0.1484 -0.0945 -0.2234
 1965W        W 5484   4.743   4.063   2.951  0.0320 -0.0179  0.2331
 1966W        W 5485   8.251   2.672   8.737 -0.0623 -0.0446  0.0807
 1967W        W 5486   5.475   9.010   9.330 -0.0148  0.1431  0.1891
 1968W        W 5487   3.752   9.487  11.484 -0.1926  0.0005 -0.0934
 1969W        W 5488   8.331   8.502   2.964 -0.3993 -0.1615 -0.0190
 1970W        W 5489   1.075   5.031  11.259  0.0194  0.2383 -0.2413
 1971W        W 5490   8.444   4.431   9.907 -0.0519 -0.0399  0.0111
 1972W        W 5491   0.199   5.957  11.470  0.1902  0.0592  0.2750
 1973W        W 5492   5.774   5.680   0.845  0.1481  0.2521 -0.1001
 1974W        W 5493   6.974   7.612   3.509 -0.3146 -0.1452 -0.1860
 1975W        W 5494   8.567   8.011   9.431 -0.4488 -0.0907 -0.0546
 1976W        W 5495   1.077   0.941  11.418 -0.1479 -0.2478  0.0418
 1977W        W 5496   3.766   7.918   1.837 -0.2281 -0.3654 -0.2291
 1978W        W 5497   3.432   8.277  10.351 -0.0726 -0.1087  0.4214
 1979W        W 5498   7.136   0.022  11.581 -0.0335 -0.0637 -0.2266
 1980W        W 5499   7.130   1.989   2.079 -0.0714  0.0025 -0.0351
 1981W        W 5500   6.084   2.035   1.727 -0.2374 -0.2235 -0.3132
 1982W        W 5501   0.681   5.922  11.501  0.0384 -0.1998  0.1321
 1983W        W 5502   0.768   1.336  11.408 -0.0314 -0.2041  0.0582
 1984W        W 5503   1.737   8.247  11.529 -0.0263 -0.0083  0.4860
 1985W        W 5504   4.751   3.247  10.957  0.0599  0.2867 -0.0555
 1986W        W 5505   7.993   1.595   8.221  0.2342 -0.0029  0.0198
 1987W        W 5506   6.648   8.298   3.124 -0.2136 -0.0604 -0.0342
 1988W        W 5507   4.397   5.294  10.384  0.2138  0.1749 -0.3938
 1989W        W 5508   2.959   0.993   1.227 -0.0166 -0.2250 -0.3496
 1990W        W 5509   4.700   6.116   1.230 -0.3941 -0.0732  0.1639
 1991W        W 5510   4.055   4.489   8.935  0.0345  0.0170  0.2285
 1992W        W 5511   0.198   2.322   2.844 -0.0504  0.1029  0.1079
 1993W        W 5512   1.143   2.142   9.618  0.1765 -0.6723  0.4270
 1994W        W 5513   2.196   7.180  11.445  0.1328 -0.1348  0.2810
 1995W        W 5514   2.805   2.396   9.577  0.2798  0.2072 -0.2057
 1996W        W 5515   5.411   6.048  10.837 -0.2584 -0.1520  0.1247
 1997W        W 5516   9.184   4.172  10.605  0.1255  0.1833 -0.1560
 1998W        W 5517   7.220   1.040   0.679  0.0593 -0.1239 -0.1549
 1999W        W 5518   6.823   1.152   9.543 -0.1844 -0.3182 -0.2741
 2000W        W 5519   6.816   8.100   9.774  0.3844 -0.4095  0.2546
 2001W        W 5520   1.177   8.375   0.728  0.1797 -0.1706 -0.2400
 2002W        W 5521   8.715   8.216   8.653  0.0859 -0.1994  0.2645
 2003W        W 5522   9.912   9.902   8.657 -0.2914 -0.3815 -0.0030
 2004W        W 5523   5.248   8.593   9.589  0.1784  0.0805 -0.0547
 2005W        W 5524   7.248   1.323  10.086 -0.0537  0.0758  0.0488
 2006W        W 5525   9.879  10.088   3.502 -0.3475 -0.2584  0.0082
 2007W        W 5526   7.729   6.791   0.216  0.2432 -0.1595  0.0563
 2008W        W 5527   0.497   7.950  10.565  0.0324 -0.0398 -0.4149
 2009W        W 5528   8.160   9.217   7.111  0.0251  0.0633 -0.2649
 2010W        W 5529   9.948   7.397   2.595  0.2478 -0.0155 -0.3588
 2011W        W 5530   3.429   2.133   3.009  0.0451 -0.2792  0.0131
 2012W        W 5531   4.617   6.695  10.659 -0.3079 -0.0748  0.4073
 2013W        W 5532   9.481   6.380   1.210 -0.2047  0.0089  0.0285
 2014W        W 5533   6.580   6.488   9.977  0.0949  0.2790  0.2766
 2015W        W 5534   4.135   2.920  11.378  0.3439 -0.1637 -0.0983
 2016W        W 5535   2.842   9.312   9.512 -0.0528 -0.3239 -0.2197
 2017W        W 5536   3.315   1.280   3.144 -0.1468  0.0399  0.1342
 2018W        W 5537   3.831   4.928   2.819 -0.3036  0.1291 -0.2253
 2019W        W 5538   7.898   8.650  10.416 -0.1193  0.0885  0.1969
 2020W        W 5539   2.475   0.992   1.601  0.1924  0.0641 -0.1322
 2021W        W 5540   6.815   4.047   7.949  0.0933 -0.0245  0.1184
 2022W        W 5541   1.121   3.197   1.897  0.1996 -0.3025  0.0566
 2023W        W 5542   6.145   6.281   9.697 -0.3089 -0.2638  0.0236
 2024W        W 5543   8.690   0.554   1.177 -0.0628  0.0450  0.0469
 2025W        W 5544   0.912   7.978   8.914 -0.1320  0.0101 -0.2246
 2026W        W 5545   8.876   4.792   9.413  0.5675 -0.1375  0.1576
 2027W        W 5546   6.316   2.474   1.780 -0.0201  0.2126 -0.0052
 2028W        W 5547   8.392   3.346  10.231 -0.3032 -0.1741  0.1363
 2029W        W 5548   6.309   4.477   0.603 -0.4988 -0.0694 -0.1822
 2030W        W 5549   5.356   5.858   1.189  0.3759  0.0160  0.0312
 2031W        W 5550   6.764   9.166   7.881  0.1585 -0.0700  0.1519
 2032W        W 5551   0.830   8.945   0.699  0.4026  0.1297  0.3132
 2033W        W 5552   3.387  10.040   3.950  0.2001 -0.1300  0.4699
 2034W        W 5553   7.370   5.482   2.785  0.0626  0.0402  0.0408
 2035W        W 5554   7.070   3.235   1.940  0.3151 -0.0239  0.1823
 2036W        W 5555   4.066   6.133  10.860 -0.0998  0.0008  0.2165
 2037W        W 5556   1.339   6.141   8.624 -0.3248 -0.0311  0.4416
 2038W        W 5557   3.206   7.065   0.198  0.0325  0.1650 -0.0312
 2039W        W 5558   8.615   8.565  11.501 -0.0819  0.0693  0.1105
 2040W        W 5559   8.356   4.816   9.383 -0.1199 -0.1704  0.0269
 2041W        W 5560   2.056   9.893   2.009 -0.1092  0.0242  0.1009
 2042W        W 5561   8.811   8.962   8.434 -0.0181 -0.0803  0.1669
 2043W        W 5562   8.613   4.401   0.730  0.1576  0.3705 -0.1116
 2044W        W 5563   8.723   7.580   0.369  0.1013 -0.1838  0.1759
 2045W        W 5564   1.012   2.451  10.558 -0.1153 -0.2011  0.1278
 2046W        W 5565   8.801   9.423   8.766 -0.0232  0.2038 -0.0039
 2047W        W 5566   1.489   7.123   0.695  0.0137  0.2673 -0.1020
 2048W        W 5567   0.684   8.927   7.689  0.1369 -0.0569  0.1314
 2049W        W 5568   0.156   6.270   3.392  0.0323 -0.0145  0.1323
 2050W        W 5569   7.287   4.791   1.045 -0.0108 -0.1190  0.0772
 2051W        W 5570  10.008   5.794   2.456 -0.2595  0.2165 -0.0259
 2052W        W 5571   0.174   9.835   2.498  0.2418  0.2755 -0.0205
 2053W        W 5572   4.668   5.149   9.977 -0.0177 -0.4215 -0.0913
 2054W        W 5573   1.810   8.080   8.720 -0.3194 -0.1626 -0.1535
 2055W        W 5574   6.099   5.671   4.488  0.0473  0.0785  0.0776
 2056W        W 5575   6.007   1.544  10.127  0.2848  0.0347 -0.1935
 2057W        W 5576   3.328   8.128   2.944  0.4980 -0.0622 -0.0869
 2058W        W 5577   1.627   7.792   8.134 -0.1154  0.0245  0.0777
 2059W        W 5578   0.239   9.286   8.793  0.1724  0.1818  0.0030
 2060W        W 5579   7.052   6.550  11.149 -0.0422 -0.0501  0.0946
 2061W        W 5580   4.984   6.932   3.011  0.2140 -0.1849 -0.1184
 2062W        W 5581   1.561   8.793   7.666  0.0067 -0.0296 -0.0164
 2063W        W 5582   3.331   4.704   8.423  0.1710 -0.1862  0.0322
 2064W        W 5583   2.851   7.908   3.330 -0.0506 -0.0274  0.1924
 2065W        W 5584   2.139   5.024   2.289 -0.3042  0.3032  0.3324
 2066W        W 5585   8.626   0.115   4.185 -0.0805  0.1457 -0.0015
 2067W        W 5586   5.711   9.220   8.925 -0.0779  0.1198  0.0537
 2068W        W 5587   3.071   4.667   9.690  0.0468  0.3884  0.0188
 2069W        W 5588   7.273   7.186   9.726 -0.0186  0.0210 -0.0176
 2070W        W 5589   2.910   5.797   1.139  0.0161  0.0941  0.1108
 2071W        W 5590   2.153   4.971   0.488  0.0846  0.1384  0.1780
 2072W        W 5591   3.712   6.300   1.503  0.0438  0.0604 -0.0003
 2073W        W 5592   5.463   6.632   3.290 -0.1430 -0.2944 -0.0707
 2074W        W 5593   6.760   0.244   7.625 -0.0840  0.0220 -0.1339
 2075W        W 5594   6.421   4.564   2.132  0.0368  0.1817  0.0488
 2076W        W 5595   9.961   3.919   8.400 -0.0668 -0.4130  0.0632
 2077W        W 5596   5.183   5.267   2.586  0.2633  0.1085  0.0095
 2078W        W 5597   3.642   8.774   9.510  0.4017  0.2925  0.2840
 2079W        W 5598   8.574   0.832   1.562 -0.1378 -0.0695  0.0183
 2080W        W 5599   2.904   6.363   2.426 -0.2540 -0.3122  0.1842
 2081W        W 5600   5.439   9.073   0.341  0.1237  0.1914 -0.0605
 2082W        W 5601   7.449   2.373   7.620  0.3115 -0.0699  0.1636
 2083W        W 5602   3.229   1.142  11.400 -0.0467  0.1715 -0.0688
 2084W        W 5603   2.767   5.111  11.395  0.1775  0.2638  0.1684
 2085W        W 5604   8.953   6.457   3.642  0.3576 -0.1501 -0.1201
 2086W        W 5605   2.243   4.877   9.287  0.1343 -0.0466 -0.0832
 2087W        W 5606   6.816   8.522   1.425 -0.2111 -0.1543  0.2099
 2088W        W 5607   0.922   3.396   3.136  0.1343  0.0893  0.2870
 2089W        W 5608   3.625   8.215   6.933 -0.0697 -0.0355  0.2850
 2090W        W 5609   2.572   3.216  10.364  0.0612  0.5192 -0.2756
 2091W        W 5610   5.537   9.608   1.685  0.2330  0.3539  0.2614
 2092W        W 5611   7.963   0.549  10.101  0.1673 -0.1456 -0.2964
 2093W        W 5612   0.946   7.892   2.698 -0.0689 -0.0381  0.2145
 2094W        W 5613   6.501   6.262   8.736 -0.0052 -0.4151 -0.2335
 2095W        W 5614   8.196   0.934   1.967  0.2423 -0.0184 -0.3518
 2096W        W 5615   1.546   6.987  10.398  0.0358  0.0420  0.2672
 2097W        W 5616   9.060   3.206   9.113 -0.1927 -0.1282 -0.0896
 2098W        W 5617   5.128   8.007   0.615 -0.0210 -0.0503 -0.0402
 2099W        W 5618   9.320   5.025  11.531 -0.1415 -0.0682  0.3345
 2100W        W 5619   0.409   6.630   7.846  0.1615 -0.1070 -0.2855
 2101W        W 5620   8.037   5.091   8.004  0.0393 -0.1563 -0.1294
 2102W        W 5621   8.683   7.263  11.588  0.0550  0.2273 -0.3449
 2103W        W 5622   4.641   9.426   0.784 -0.4420 -0.0661 -0.2609
 2104W        W 5623   0.526   7.917  11.151  0.1969 -0.1946  0.2755
 2105W        W 5624   7.828   3.627   9.650 -0.5383  0.0806  0.2822
 2106W        W 5625   7.523   6.780  10.421  0.0368 -0.4137  0.0558
 2107W        W 5626   2.933   7.084  10.734  0.2881  0.1605 -0.0272
 2108W        W 5627   3.550   8.769  10.385  0.0483 -0.2152  0.1147
 2109W        W 5628   2.469   9.711  10.323 -0.3059 -0.0551 -0.1656
 2110W        W 5629   1.067   6.008  10.044  0.2173  0.2442  0.1527
 2111W        W 5630   5.159   8.110   9.854 -0.0756 -0.2026  0.1053
 2112W        W 5631   8.344   0.105  10.231 -0.1007 -0.0837 -0.5290
 2113W        W 5632   3.752   0.253   7.380  0.0872 -0.0286  0.2765
 2114W        W 5633   1.733   3.077  10.794  0.2662 -0.0315 -0.0904
 2115W        W 5634   8.101   8.160   8.677 -0.1870  0.0054 -0.2982
 2116W        W 5635   8.370   9.714   9.250 -0.0552 -0.0193  0.2300
 2117W        W 5636   4.446   4.356  10.173  0.1522 -0.1643 -0.2092
 2118W        W 5637   9.577   2.803  10.364  0.3863 -0.0914 -0.3493
 2119W        W 5638   7.179   0.748  10.825  0.1841 -0.0751 -0.2202
 2120W        W 5639   1.789   8.218   0.745 -0.1451  0.0185  0.1268
 2121W        W 5640   4.719   0.929   9.251  0.0074 -0.0878  0.4090
 2122W        W 5641   9.043   4.982   3.167  0.0185 -0.3766 -0.1430
 2123W        W 5642   9.819   2.331   2.240 -0.1828  0.0108 -0.2648
 2124W        W 5643   8.603   1.006   9.817  0.0692 -0.0358 -0.0344
 2125W        W 5644   5.877   9.349   1.949 -0.1385 -0.1915 -0.1820
 2126W        W 5645   6.764   8.001   0.141 -0.0135  0.1456 -0.2629
 2127W        W 5646   8.658   4.916   2.892 -0.0866 -0.0197  0.0984
 2128W        W 5647   7.900   9.944   0.067 -0.1049 -0.0663 -0.0377
 2129W        W 5648   7.647   5.056  10.872  0.0637 -0.2910  0.3421
 2130W        W 5649   1.179   0.118   2.884  0.1354 -0.1038  0.1808
 2131W        W 5650   6.663   6.883  11.108  0.2813 -0.0132 -0.2827
 2132W        W 5651   4.156   1.154   6.321 -0.0239  0.1801  0.1379
 2133W        W 5652   5.533   6.995  10.308 -0.2303 -0.2710 -0.1038
 2134W        W 5653   8.252   0.485   8.672  0.2245 -0.0528  0.0275
 2135W        W 5654  10.086   7.245   1.210  0.2484  0.5811  0.0787
 2136W        W 5655   1.655   3.114   8.228 -0.1509 -0.4958  0.1323
 2137W        W 5656   2.627   2.663   3.069  0.1470  0.3608 -0.0990
 2138W        W 5657   1.273   2.655  10.173  0.0176 -0.0659  0.3799
 2139W        W 5658   3.091   6.244   1.689  0.1814 -0.1553 -0.0972
 2140W        W 5659   6.576   9.133   8.686  0.1025 -0.2082  0.0260
 2141W        W 5660   4.790   8.576   1.284  0.1935  0.1433  0.0450
 2142W        W 5661   5.946   0.640  11.203  0.1182 -0.0566 -0.0939
 2143W        W 5662   8.355   8.633   8.603  0.1004 -0.1406  0.0859
 2144W        W 5663   7.831   1.705   8.744  0.0112 -0.0780 -0.1155
 2145W        W 5664   9.284   2.219   8.042 -0.1362  0.2194  0.1934
 2146W        W 5665   1.265   9.568   8.163  0.1840  0.0750 -0.2081
 2147W        W 5666   3.055   4.988   1.441 -0.0941 -0.0266 -0.0939
 2148W        W 5667   4.734   8.184   0.909 -0.2208  0.1569 -0.1706
 2149W        W 5668   0.481   7.779   1.244  0.0705  0.4311 -0.1843
 2150W        W 5669   4.064   5.568   1.863  0.3073 -0.1723 -0.0337
 2151W        W 5670   7.051   2.389   7.957  0.1583 -0.1299 -0.0381
 2152W        W 5671   0.781   0.989   2.737 -0.0026 -0.1056 -0.1749
 2153W        W 5672   5.621   1.975   8.281 -0.3376 -0.0357  0.0114
 2154W        W 5673   1.469   6.678   3.443 -0.0663 -0.1129 -0.1338
 2155W        W 5674   3.736   2.438   7.804  0.1540 -0.3799  0.3567
 2156W        W 5675   9.729   1.983  10.454 -0.0836 -0.0412  0.2341
 2157W        W 5676   0.110   2.302   1.877  0.2952 -0.0772  0.0551
 2158W        W 5677   5.066   5.841   3.332 -0.0012 -0.1624  0.2042
 2159W        W 5678   9.032   6.102   1.197 -0.1262  0.1871  0.0301
 2160W        W 5679   2.656   9.271   2.217 -0.0769  0.1232  0.0754
 2161W        W 5680   1.466   9.477   8.967  0.2641 -0.0521 -0.0631
 2162W        W 5681   3.361   0.308   3.103  0.1043 -0.0156  0.0827
 2163W        W 5682   3.193   3.377   8.941  0.0760  0.0886  0.1882
 2164W        W 5683   9.399   9.791   2.348 -0.0577 -0.0694 -0.0033
 2165W        W 5684   0.173   7.553   0.880  0.1024  0.3324 -0.0295
 2166W        W 5685   5.112   5.798   2.033 -0.1557 -0.1841  0.0312
 2167W        W 5686   8.673   9.794  10.285 -0.1024 -0.2274  0.1342
 2168W        W 5687   3.934   3.134   8.202  0.1849  0.1500 -0.1779
 2169W        W 5688   9.739   7.509   0.889 -0.0178  0.2432  0.0667
 2170W        W 5689   8.303   4.722   7.996 -0.1555 -0.1557  0.1954
 2171W        W 5690   9.104   3.708   1.075  0.1362  0.2512  0.1153
 2172W        W 5691   8.687   3.619   1.365  0.0690  0.1167  0.1001
 2173W        W 5692   6.710   8.874   9.561 -0.0055  0.1966  0.0974
 2174W        W 5693   7.975   8.847   2.664  0.2516 -0.0773 -0.2790
 2175W        W 5694   5.671   2.283  11.295 -0.0964  0.1224 -0.3116
 2176W        W 5695   8.213   3.204   0.636  0.3026  0.3879  0.1439
 2177W        W 5696   6.673   7.982   8.790  0.0072  0.0348  0.2505
 2178W        W 5697   5.063   0.866   0.480  0.0101 -0.2309 -0.1699
 2179W        W 5698   2.650   8.420  10.042 -0.0946 -0.1548  0.2655
 2180W        W 5699   7.144   9.849   1.743  0.1473  0.1031  0.1853
 2181W        W 5700   6.893   9.152  11.007 -0.0489 -0.1022  0.3089
 2182W        W 5701   9.559   1.860   2.300 -0.0677  0.0429 -0.0076
 2183W        W 5702   0.705   8.052   1.622  0.1432  0.0026 -0.0490
 2184W        W 5703   5.160   3.091   2.785 -0.1223  0.1027 -0.0561
 2185W        W 5704   5.164   8.662   8.584  0.0223 -0.0273  0.0461
 2186W        W 5705   5.820   5.958   9.377  0.2973 -0.0344 -0.2770
 2187W        W 5706   5.668   9.217   3.531  0.0624 -0.1075  0.0639
 2188W        W 5707   9.929   7.366   0.462 -0.0117  0.5349  0.0848
 2189W        W 5708   0.660   8.106   3.236  0.2844  0.1372 -0.0355
 2190W        W 5709   9.769   9.271   9.392  0.0405 -0.3884 -0.1747
 2191W        W 5710   0.884   7.658   9.872 -0.0078  0.0907  0.0797
 2192W        W 5711   9.455   1.249   8.365 -0.1727  0.0156  0.0085
 2193W        W 5712   4.835   6.076   2.882  0.2689  0.0778  0.3677
 2194W        W 5713   1.088   9.689   2.290  0.1243 -0.0249 -0.2878
 2195W        W 5714   9.028   9.150   0.613  0.0273  0.1123 -0.3438
 2196W        W 5715   8.991   9.024  10.454 -0.1655  0.2353  0.2220
 2197W        W 5716   8.774   7.689   3.194  0.0168 -0.1653 -0.0638
 2198W        W 5717   9.989   9.668  10.199  0.3522 -0.2069 -0.0629
 2199W        W 5718   8.409   4.518   3.717 -0.0753  0.0330 -0.3719
 2200W        W 5719   3.652   3.156  10.034  0.0920 -0.2203 -0.1831
 2201W        W 5720   9.014   5.040   3.705 -0.0086  0.0361  0.0819
 2202W        W 5721   9.592   9.892   3.158  0.1651 -0.0256  0.1402
 2203W        W 5722   1.930   3.036   0.630  0.2930 -0.0953  0.0675
 2204W        W 5723   1.642   0.880   1.938  0.0559 -0.2532 -0.1205
 2205W        W 5724   9.960   3.889   2.137  0.0698 -0.2314  0.1100
 2206W        W 5725   7.558   4.946  10.391  0.0322 -0.1572  0.2023
 2207W        W 5726   9.320   6.449  10.165 -0.0733  0.3672 -0.1117
 2208W        W 5727   1.458   3.544   2.791  0.0057 -0.2895  0.1249
 2209W        W 5728   8.279   0.579   7.280 -0.3097  0.2274 -0.0379
 2210W        W 5729   5.710   4.362  11.389  0.0755  0.3742 -0.0994
 2211W        W 5730   7.617   6.031   2.717  0.2697  0.0834 -0.0726
 2212W        W 5731   6.136   0.220  11.481  0.2630  0.2132  0.4524
 2213W        W 5732   7.732   2.424   1.081 -0.2048 -0.1989 -0.0423
 2214W        W 5733   1.150   0.203   7.079 -0.0124  0.0065  0.0251
 2215W        W 5734   6.599   7.124   2.791 -0.2655 -0.3530 -0.2534
 2216W        W 5735   1.813   5.071   9.965  0.1364  0.1146  0.0657
 2217W        W 5736   5.628   6.344   1.041 -0.4811 -0.0795 -0.1162
 2218W        W 5737   0.398   8.553  10.661 -0.3139  0.2359 -0.0342
 2219W        W 5738   2.769   0.324   1.603  0.1314  0.1644  0.1701
 2220W        W 5739   5.381   6.556   0.632  0.1528 -0.1491 -0.3541
 2221W        W 5740   4.252   0.697   9.502 -0.0961  0.1447 -0.0841
 2222W        W 5741   7.697   0.721   3.124 -0.2525  0.0073  0.0423
 2223W        W 5742   8.230   7.370  11.084  0.3179  0.1559  0.2653
 2224W        W 5743   3.588   2.278  10.003  0.0756  0.6419 -0.0158
 2225W        W 5744   7.642   0.232   1.141 -0.1946  0.1674 -0.2637
 2226W        W 5745   0.692   3.503   8.259  0.0379 -0.2205 -0.2351
 2227W        W 5746   6.430   7.213   7.732 -0.0355 -0.3326  0.1018
 2228W        W 5747   4.171   6.958   7.611 -0.0686  0.2172 -0.0786
 2229W        W 5748   0.044   5.146  10.399 -0.0410  0.1520  0.1451
 2230W        W 5749   5.351   1.577   2.360 -0.3924  0.1196 -0.0161
 2231W        W 5750   3.619   8.425   7.431 -0.0111  0.0250  0.3390
 2232W        W 5751   2.850   6.523  10.050  0.0073  0.1103  0.1698
 2233W        W 5752   3.931   5.399   2.623  0.0266 -0.1092 -0.0782
 2234W        W 5753   3.949   7.815   9.167 -0.1063  0.1702  0.1280
 2235W        W 5754   3.818   2.316  11.034  0.1019 -0.2690  0.2512
 2236W        W 5755   8.662   8.582  10.173 -0.0207  0.0112  0.1043
 2237W        W 5756   2.347   1.173  11.304 -0.0931  0.0088  0.2421
 2238W        W 5757   5.383   7.982   3.087 -0.0484  0.1293  0.1166
 2239W        W 5758   0.298   3.506   8.723 -0.1178  0.2172 -0.0347
 2240W        W 5759   2.348   2.594   2.141  0.1376 -0.0447 -0.2364
 2241W        W 5760   4.852   1.929   7.991  0.2675  0.0003  0.0479
 2242W        W 5761   4.675   1.013   7.781 -0.3083  0.0710 -0.1378
 2243W        W 5762   7.315   3.043   9.076 -0.1202  0.1746  0.2613
 2244W        W 5763   5.221   1.703   8.224  0.2150  0.0373 -0.0135
 2245W        W 5764   0.630   2.502   1.179 -0.0467 -0.2494 -0.0672
 2246W        W 5765   5.366   5.667   8.152  0.0521  0.1416  0.3123
 2247W        W 5766   0.384   7.298   8.546 -0.1221 -0.2565 -0.1217
 2248W        W 5767   0.107   8.267   3.028  0.1530 -0.2513  0.0266
 2249W        W 5768   7.991   7.858   3.663 -0.2210 -0.0527  0.0297
 2250W        W 5769   3.734   8.964   2.391  0.1877 -0.0726 -0.1710
 2251W        W 5770   7.410   5.354  11.521  0.1376 -0.4549  0.0549
 2252W        W 5771   0.491   3.198  10.668  0.1444  0.0721 -0.1784
 2253W        W 5772   7.732   0.928   1.904 -0.1784  0.2035  0.1901
 2254W        W 5773   1.115   5.878   0.056 -0.1120 -0.2060 -0.0402
 2255W        W 5774   8.022   8.565   2.223 -0.1738  0.1280 -0.3335
 2256W        W 5775   8.764   0.372   1.678 -0.0776 -0.1908 -0.0853
 2257W        W 5776   6.235   8.629  10.735  0.2868 -0.1365  0.5491
 2258W        W 5777   9.565   8.736   3.379  0.0770  0.0970  0.1347
 2259W        W 5778   2.807   6.438   7.384  0.0091  0.0936 -0.2616
 2260W        W 5779   5.204   4.203   9.310  0.0156 -0.0766 -0.0314
 2261W        W 5780   1.140   9.100   9.008  0.0294  0.2268  0.0216
 2262W        W 5781   4.690   6.358   8.571 -0.1787 -0.0917  0.0477
 2263W        W 5782   8.553   1.992   9.874  0.0009 -0.1090  0.1125
 2264W        W 5783   0.864   5.930   8.726 -0.2300 -0.0008  0.0498
 2265W        W 5784   7.681   0.649   9.635  0.1118 -0.1808 -0.2679
 2266W        W 5785   0.833   5.648  10.483  0.2723  0.1647  0.0638
 2267W        W 5786   8.581   3.721   8.566 -0.1007  0.1220 -0.0921
 2268W        W 5787   3.451   8.290   2.041  0.1202 -0.0603  0.1633
 2269W        W 5788   2.512   8.948  10.727 -0.1727  0.0362  0.0177
 2270W        W 5789   5.463   5.801   4.281 -0.1647 -0.0602  0.1189
 2271W        W 5790   7.145   5.900   2.982  0.1415 -0.2452  0.0053
 2272W        W 5791   1.868   2.538   0.434  0.1281  0.0731 -0.0094
 2273W        W 5792   5.311   7.764  11.393 -0.2813 -0.1132  0.2539
 2274W        W 5793   6.834   5.288  10.390  0.3385 -0.4129 -0.1091
 2275W        W 5794   1.776   4.317   0.500 -0.2690  0.0159 -0.6533
 2276W        W 5795  10.010   7.668   1.742  0.1583 -0.1897 -0.0933
 2277W        W 5796   5.085   1.913  10.231  0.0450 -0.0813  0.3943
 2278W        W 5797   1.397   8.194   8.268  0.0761  0.0869 -0.4030
 2279W        W 5798   3.169   1.126   7.629 -0.1275  0.1758 -0.2200
 2280W        W 5799   3.478   1.903   0.789  0.2004 -0.0729  0.2069
 2281W        W 5800   3.399   9.612   1.973  0.1739  0.1231  0.2578
 2282W        W 5801   8.114   9.333   2.602  0.0432 -0.0590  0.2831
 2283W        W 5802   4.672   3.259  10.136 -0.1355 -0.2042  0.0113
 2284W        W 5803   7.799   9.976   7.596  0.0735  0.2145 -0.0829
 2285W        W 5804   3.845   7.403   9.474 -0.1943  0.2097 -0.3178
 2286W        W 5805   9.325   2.692   9.149  0.1457  0.2146 -0.1096
 2287W        W 5806   9.786   2.861  10.858 -0.2146 -0.3873 -0.0903
 2288W        W 5807   0.835   3.361   8.929  0.2911 -0.1765 -0.2910
 2289W        W 5808   2.811   6.534   8.671  0.0251 -0.1593 -0.0890
 2290W        W 5809   1.635   9.827   1.304  0.0906  0.0506  0.1320
 2291W        W 5810   7.373   2.599  10.767  0.1882 -0.2488  0.0241
 2292W        W 5811   6.544   1.570   8.268  0.0447 -0.2949  0.2165
 2293W        W 5812   4.023   3.362   8.824  0.0930 -0.0163  0.1241
 2294W        W 5813   4.118   5.300   8.476 -0.2087 -0.2842  0.1162
 2295W        W 5814   3.656   7.041  10.439  0.2474 -0.0973  0.3936
 2296W        W 5815   2.176   6.927  10.186  0.0971  0.0646 -0.1971
 2297W        W 5816   0.873   4.681   0.710  0.0126 -0.0747  0.0189
 2298W        W 5817   8.685   6.979   9.213 -0.1915 -0.0909 -0.1397
 2299W        W 5818   6.127   0.677   0.560 -0.1000  0.1861 -0.0701
 2300W        W 5819   4.714   8.367   2.639  0.0605  0.1185  0.0029
 2301W        W 5820   6.425   7.249  10.685 -0.1479 -0.0954 -0.0780
 2302W        W 5821   3.143   5.359   4.117 -0.1142 -0.0203  0.1010
 2303W        W 5822   9.903   6.015   8.977 -0.1038 -0.1816 -0.0678
 2304W        W 5823   3.867   3.378   9.586  0.1586 -0.0175  0.2735
 2305W        W 5824   2.019   3.519   0.612 -0.1455  0.0649 -0.0996
 2306W        W 5825   1.062   9.915   0.857  0.0362  0.0054  0.1263
 2307W        W 5826   8.726   0.602   9.266  0.1850 -0.1566 -0.3795
 2308W        W 5827   8.176   3.944   9.255 -0.0415  0.1594  0.0450
 2309W        W 5828   0.421   9.982   9.223 -0.0580 -0.1334  0.0233
 2310W        W 5829   3.836   9.004   2.880 -0.1477  0.2081 -0.1715
 2311W        W 5830   4.529   7.103   2.142 -0.3827  0.0839 -0.0628
 2312W        W 5831   0.409   1.297   0.161 -0.0270 -0.0480  0.0072
 2313W        W 5832   8.988   0.913  10.162 -0.1470 -0.0600  0.1834
 2314W        W 5833   3.760   2.805   9.425 -0.1324 -0.1222 -0.0830
 2315W        W 5834   7.204   3.485  10.396 -0.0802 -0.2499  0.2309
 2316W        W 5835   7.076   7.038   1.780  0.0537  0.0272  0.1662
 2317W        W 5836   8.274   1.193   2.527 -0.0388 -0.3005  0.3275
 2318W        W 5837   3.082   7.836   0.775  0.1556 -0.2838  0.1407
 2319W        W 5838   6.758   0.095   9.846 -0.0580  0.2138 -0.1666
 2320W        W 5839   1.253   8.271  10.311 -0.1444 -0.2284 -0.2355
 2321W        W 5840   2.196   1.719   0.497 -0.2937 -0.3778  0.0904
 2322W        W 5841   9.008   3.914   8.686 -0.1192 -0.0395  0.0527
 2323W        W 5842   3.680   3.768  11.049  0.3465 -0.1010  0.2237
 2324W        W 5843   9.179   2.075  11.555 -0.1636  0.3493 -0.1484
 2325W        W 5844   6.938   2.890  10.977 -0.0765  0.1267 -0.1182
 2326W        W 5845   2.700   3.363   1.429  0.0524 -0.1604 -0.1813
 2327W        W 5846   6.590   3.369   1.771  0.1675  0.4716  0.1911
 2328W        W 5847   4.811   8.136   7.760 -0.0954  0.3321  0.0455
 2329W        W 5848   7.981   4.076  10.516  0.1002  0.0287  0.2437
 2330W        W 5849   3.985   9.698  10.228  0.0537  0.1139 -0.0384
 2331W        W 5850   7.255   4.082   0.465 -0.2447  0.2561  0.1001
 2332W        W 5851   7.958   9.318   9.207 -0.0434  0.2204 -0.2116
 2333W        W 5852   3.499   5.322   2.979 -0.2137 -0.1684 -0.1617
 2334W        W 5853   5.121   3.146   9.850  0.1034 -0.0339 -0.2919
 2335W        W 5854   9.309   5.300   0.331 -0.1536 -0.0329 -0.1372
 2336W        W 5855   3.745   7.118   0.363 -0.1336  0.1721 -0.0712
 2337W        W 5856   2.668   5.648  10.493  0.0499 -0.3600  0.1486
 2338W        W 5857   5.909   3.507   9.128 -0.1932  0.3203 -0.1308
 2339W        W 5858   7.630   7.703   2.171  0.0092  0.1274 -0.0437
 2340W        W 5859   8.163   0.833  10.567 -0.0125 -0.1433  0.0600
 2341W        W 5860   5.112   6.629   1.857  0.1578  0.3876  0.1830
 2342W        W 5861   9.835   7.398  10.551  0.6234  0.0156  0.0353
 2343W        W 5862   9.458   2.748   9.852 -0.2981 -0.1123 -0.2046
 2344W        W 5863   4.940   8.646   7.513 -0.2286 -0.0985  0.0611
 2345W        W 5864   7.324   4.195   3.919 -0.0685  0.1464 -0.2528
 2346W        W 5865   6.052   1.066   2.829 -0.0946 -0.0633 -0.1919
 2347W        W 5866   7.173   0.694   1.811 -0.0592  0.1628  0.2250
 2348W        W 5867   5.720   8.773   2.741  0.1096  0.1922 -0.3686
 2349W        W 5868   7.592   1.097   8.356 -0.0309  0.3681 -0.0617
 2350W        W 5869   3.579   1.406   7.605 -0.0648  0.1888 -0.1763
 2351W        W 5870   3.221   1.032   9.895  0.0596 -0.1374  0.1271
 2352W        W 5871   6.109   2.303   7.642  0.1123 -0.0325  0.3320
 2353W        W 5872   1.710   4.896  11.349 -0.1274  0.1761  0.2784
 2354W        W 5873   9.338   3.824   2.854 -0.1203 -0.1960 -0.1035
 2355W        W 5874   2.054   9.397   2.063 -0.1177 -0.0288 -0.2142
 2356W        W 5875   8.790   6.710   2.227  0.0333 -0.1590 -0.0901
 2357W        W 5876   5.508   4.789   9.359  0.0940  0.0041 -0.1385
 2358W        W 5877   9.540   1.416   1.003 -0.1867  0.1069  0.0117
 2359W        W 5878   4.948   9.362  10.005  0.0315  0.1426 -0.1738
 2360W        W 5879   6.922   0.693   7.398 -0.1696  0.2621  0.0438
 2361W        W 5880   1.447   2.479   9.293 -0.0545  0.1375  0.0279
 2362W        W 5881   8.420   1.206   4.302  0.0333 -0.0082 -0.0808
 2363W        W 5882   0.974   1.375  10.129 -0.0885 -0.1104 -0.0993
 2364W        W 5883   6.431   5.930   8.284  0.0483 -0.2198 -0.2332
 2365W        W 5884   1.285   4.380   0.871  0.3515 -0.2568 -0.0195
 2366W        W 5885   4.841   7.452  10.186  0.1917  0.1601 -0.0604
 2367W        W 5886   8.725   5.251   9.394 -0.1114 -0.3416 -0.0523
 2368W        W 5887   2.333   3.493  11.173  0.0189  0.0830 -0.0028
 2369W        W 5888   7.866   5.863   7.478 -0.1945  0.0093  0.3073
 2370W        W 5889   5.776   7.123   9.777  0.0687  0.3113  0.1226
 2371W        W 5890   0.060   3.677  11.509 -0.1818  0.0168  0.1053
 2372W        W 5891   0.075   7.061   2.209  0.1445  0.1737 -0.0379
 2373W        W 5892   6.918   7.884  11.167 -0.3080  0.0018  0.0473
 2374W        W 5893   7.027   3.919   8.377  0.0089  0.2074 -0.0836
 2375W        W 5894   5.983   9.189   0.404 -0.2367  0.3354  0.0412
 2376W        W 5895   0.978   7.711  10.384  0.2415 -0.0398 -0.2706
 2377W        W 5896   8.160   9.997   0.928 -0.0616 -0.3129  0.3043
 2378W        W 5897   2.683   9.144   0.799 -0.1253 -0.2349 -0.1269
 2379W        W 5898   1.588   9.497   2.233  0.1507 -0.2982 -0.0769
 2380W        W 5899   6.266   1.583   2.087  0.1872  0.0186 -0.5194
 2381W        W 5900   6.989   6.249   1.406 -0.1116  0.0639 -0.0309
 2382W        W 5901   2.610   4.123   9.750  0.2463 -0.2479  0.2053
 2383W        W 5902   0.452   0.899   1.793 -0.1544  0.0513 -0.1789
 2384W        W 5903   8.715   5.194   2.358  0.0677 -0.0918  0.3194
 2385W        W 5904   3.082   0.399   2.008 -0.4004  0.1131  0.1728
 2386W        W 5905   3.200   1.277   2.615  0.0656  0.2820 -0.4321
 2387W        W 5906   3.389   4.543   1.481 -0.1288  0.0179 -0.0507
 2388W        W 5907   4.476   4.377   0.630  0.0290 -0.1412  0.0382
 2389W        W 5908   8.217   6.398   1.470 -0.2111 -0.0311 -0.0284
 2390W        W 5909   5.360   6.346   9.641  0.0218 -0.2624  0.0571
 2391W        W 5910   2.902   1.560  11.521  0.1033  0.0058  0.2064
 2392W        W 5911   6.270   6.832   2.085  0.1209  0.2690  0.1851
 2393W        W 5912   6.553   1.152   2.805 -0.2972  0.1225  0.0359
 2394W        W 5913   5.810   5.595   1.345  0.2955  0.2847  0.0367
 2395W        W 5914   4.785   0.702   0.958  0.4420  0.2646  0.3165
 2396W        W 5915   1.729   2.397   1.270 -0.0561 -0.0526 -0.1145
 2397W        W 5916   4.835   3.918   2.418  0.1946 -0.1634 -0.0189
 2398W        W 5917   2.182   4.042   0.692  0.1982  0.0109  0.0123
 2399W        W 5918   5.688   3.508   2.243 -0.1095  0.0128 -0.4720
 2400W        W 5919   6.347   5.471   2.882 -0.3992 -0.0166  0.4680
 2401W        W 5920   8.465   6.905   0.843  0.0994 -0.0141 -0.1139
 2402W        W 5921   5.412   5.315   1.980 -0.3236  0.0029  0.0961
 2403W        W 5922   3.657   5.758   2.861  0.1613 -0.0484  0.0959
 2404W        W 5923   8.839   0.019   0.429 -0.1521 -0.2661 -0.0086
 2405W        W 5924   3.172   2.519   2.340 -0.1174  0.3791  0.1457
 2406W        W 5925   2.139   8.355   2.216 -0.2825 -0.1501 -0.2913
 2407W        W 5926   8.672   5.940   9.050 -0.1351 -0.3131  0.1171
 2408W        W 5927   4.387   0.193  11.109 -0.1251  0.1332  0.2483
 2409W        W 5928   4.994   8.531   2.147  0.0563  0.0553  0.2975
 2410W        W 5929   4.384   3.335  11.365 -0.0351 -0.1518 -0.1541
 2411W        W 5930   9.477   4.520   2.778 -0.0770 -0.2833 -0.1274
 2412W        W 5931   6.224   1.650   0.166  0.1066  0.2257  0.1508
 2413W        W 5932   5.130   6.033   4.031 -0.0800 -0.2605  0.2594
 2414W        W 5933   8.771   4.474  10.713 -0.0980  0.0469 -0.0063
 2415W        W 5934   5.887   6.080   1.496 -0.0175 -0.1857  0.2901
 2416W        W 5935   1.044   2.833  11.318 -0.4297  0.0432  0.0102
 2417W        W 5936   6.028   0.344   8.758 -0.1280 -0.1320 -0.2595
 2418W        W 5937   7.337   2.374  10.279  0.0123  0.1528  0.4174
 2419W        W 5938   7.185   0.573   7.837 -0.2039 -0.0745  0.4014
 2420W        W 5939   2.144   9.376   8.304 -0.2778  0.0168 -0.0216
 2421W        W 5940   9.454   6.702   1.635  0.1579 -0.1964  0.2135
 2422W        W 5941   7.870   5.593   2.909 -0.4297  0.0179 -0.0245
 2423W        W 5942   3.709   3.001  11.065  0.1370 -0.2472  0.1251
 2424W        W 5943   0.948   0.547   2.558 -0.2198 -0.2273  0.2984
 2425W        W 5944   7.631   0.783   0.484  0.3143  0.1737  0.3188
 2426W        W 5945   5.207   1.065  11.598 -0.0030 -0.0655 -0.0847
 2427W        W 5946   2.533   5.306   1.911  0.0852  0.1504  0.0930
 2428W        W 5947   1.291   5.742   1.648 -0.1072  0.0351 -0.1517
 2429W        W 5948   1.281   1.357   0.021 -0.1088 -0.1657  0.1616
 2430W        W 5949   1.800   0.086  10.663 -0.3475 -0.4473 -0.1026
 2431W        W 5950   6.757   8.869   8.301 -0.4274  0.1154  0.1158
 2432W        W 5951   9.139   1.270   0.708 -0.0413  0.3083  0.3440
 2433W        W 5952   4.297   5.215   6.975 -0.0348 -0.0225 -0.2087
 2434W        W 5953   6.806   2.429  11.261 -0.3683 -0.0546 -0.1458
 2435W        W 5954   4.594   0.908   2.529 -0.3661 -0.1229 -0.1796
 2436W        W 5955   1.733   6.550   2.952 -0.0575 -0.0563  0.0675
 2437W        W 5956   7.853   2.086   8.413 -0.0761 -0.1360  0.1764
 2438W        W 5957   5.658   7.126   1.282  0.0178  0.1393 -0.0925
 2439W        W 5958   7.688   8.831   0.756  0.0402  0.0046 -0.0298
 2440W        W 5959   1.106   1.972   0.489  0.0968  0.2201 -0.1097
 2441W        W 5960   7.183   5.144  11.073 -0.1462 -0.2008  0.2519
 2442W        W 5961   6.397   1.960   2.452  0.0205  0.3459  0.2842
 2443W        W 5962   5.367   5.792   9.766 -0.0478  0.0760 -0.0060
 2444W        W 5963   4.898   8.474   7.003 -0.2234  0.0727 -0.2472
 2445W        W 5964   9.197   7.451   2.862  0.0207  0.0572 -0.3112
 2446W        W 5965   4.227   1.092   0.022  0.2015  0.1306  0.2021
 2447W        W 5966   6.544   5.375   9.616 -0.0285 -0.0329 -0.4659
 2448W        W 5967   2.150   6.782  11.116  0.0853  0.0180  0.0675
 2449W        W 5968   1.692   7.163   2.152  0.2704  0.0262 -0.2726
 2450W        W 5969   8.778   2.723   9.178 -0.1273  0.0889  0.4405
 2451W        W 5970   1.977   4.484   8.325  0.4730  0.0416  0.1831
 2452W        W 5971   5.344   8.174   9.258  0.0103 -0.2571  0.0318
 2453W        W 5972   8.717   5.953   0.758  0.0187 -0.2027  0.3340
 2454W        W 5973   3.257   8.742   0.220 -0.0476 -0.0071  0.0822
 2455W        W 5974   8.405  10.006   6.903 -0.0062  0.0536 -0.3090
 2456W        W 5975   2.883   2.935   9.608  0.1188 -0.1879 -0.0777
 2457W        W 5976   4.845   0.290   7.494  0.0562  0.0342 -0.1757
 2458W        W 5977   6.897   8.537  11.205 -0.0642  0.0155 -0.4131
 2459W        W 5978   7.865   3.810  11.080 -0.0129  0.1963  0.0551
 2460W        W 5979   3.140   0.065   1.305  0.0825  0.5790 -0.3465
 2461W        W 5980   3.169   3.339   1.233 -0.2385  0.1742 -0.3061
 2462W        W 5981   6.354   0.840   1.588 -0.0054 -0.1449  0.3448
 2463W        W 5982   3.261   1.198   0.897 -0.0587 -0.1804 -0.0186
 2464W        W 5983   2.270   4.363  11.450  0.1215 -0.1835 -0.0084
 2465W        W 5984   0.654   4.012   7.801  0.2257 -0.1601  0.3661
 2466W        W 5985   9.913   9.880   7.746  0.1235 -0.1521  0.0115
 2467W        W 5986   2.444   8.550   1.527  0.1689  0.3599 -0.0752
 2468W        W 5987   8.007   1.143   3.114  0.2148  0.2181  0.1738
 2469W        W 5988   3.327   1.073  10.460  0.0977  0.2483  0.2793
 2470W        W 5989   9.853   7.254   3.885  0.2062 -0.2412  0.0594
 2471W        W 5990   5.589   1.913  10.156 -0.1347  0.1164 -0.0962
 2472W        W 5991   2.134   1.011   8.238  0.1951  0.0911 -0.0066
 2473W        W 5992   9.014   3.194  11.438 -0.2094 -0.0425  0.3629
 2474W        W 5993   5.602   2.123   3.024 -0.0097 -0.2821 -0.1871
 2475W        W 5994   9.234   9.334   3.475 -0.1448 -0.2187 -0.1191
 2476W        W 5995   0.689   0.537   9.799  0.1316  0.2123  0.2919
 2477W        W 5996   6.176   4.841   9.164 -0.0526 -0.1659  0.3426
 2478W        W 5997   5.819   1.775   9.735 -0.1843 -0.1127  0.0091
 2479W        W 5998   2.005   3.192   7.768 -0.1507  0.2037  0.2880
 2480W        W 5999   7.508   7.642   9.274  0.0976  0.0489 -0.2332
 2481W        W 6000   0.784   6.983   8.585 -0.1566  0.0239 -0.2850
 2482W        W 6001   2.232   7.440   1.080  0.0277 -0.0543  0.0358
 2483W        W 6002   2.064   0.667   1.476  0.2912 -0.1437  0.1916
 2484W        W 6003   3.891   5.176  10.321  0.0832 -0.0918 -0.1265
 2485W        W 6004   8.129   4.018   9.756 -0.0164  0.0645  0.0761
 2486W        W 6005   5.809   1.546   8.147  0.1084 -0.0661  0.0578
 2487W        W 6006   1.522   4.534   8.684 -0.1073 -0.0352 -0.0570
 2488W        W 6007   0.759   6.465  11.575 -0.0922 -0.3942 -0.2335
 2489W        W 6008   2.889   3.740   1.124 -0.1415  0.0585 -0.1595
 2490W        W 6009   9.470   4.848   3.870 -0.3187  0.0341  0.1187
 2491W        W 6010   4.063   1.856   3.446 -0.0350  0.2123  0.0532
 2492W        W 6011   5.563   5.732   0.140  0.0118 -0.0313  0.3038
 2493W        W 6012   1.133   3.977  10.767  0.0506  0.0184 -0.0378
 2494W        W 6013   2.407   3.721  10.537 -0.0853  0.3796 -0.1040
 2495W        W 6014   3.468   0.650  10.187 -0.0447 -0.3933  0.0459
 2496W        W 6015   6.742   9.721   0.972 -0.1366  0.1140 -0.3432
 2497W        W 6016   7.565   1.768   1.737  0.3013  0.1937 -0.1183
 2498W        W 6017   1.588   3.125   8.711 -0.1710 -0.2162  0.0749
 2499W        W 6018   6.003   7.452   2.040 -0.0775  0.0183  0.3406
 2500W        W 6019   0.230   5.783   3.480  0.1331  0.1000 -0.1974
 2501W        W 6020   9.155   0.581  10.496 -0.2077  0.3328 -0.0203
 2502W        W 6021   7.541   3.462   2.133 -0.0658  0.1162  0.2706
 2503W        W 6022   0.910   9.014   1.671 -0.1505 -0.0473 -0.1979
 2504W        W 6023   4.183   6.768   2.422  0.2907 -0.3887 -0.0010
 2505W        W 6024   0.529   6.071  10.591 -0.0585  0.1953  0.1177
 2506W        W 6025   2.872   9.782   6.553 -0.1420 -0.1816 -0.2463
 2507W        W 6026   7.855   2.072   2.045 -0.3077  0.1720  0.1700
 2508W        W 6027   4.403   2.445   0.977  0.1992  0.3007  0.0985
 2509W        W 6028   6.449   6.793  10.441 -0.1905  0.1408 -0.0019
 2510W        W 6029   1.154   5.585   0.425 -0.4308 -0.3164  0.0180
 2511W        W 6030   4.370   6.446   7.681  0.1486  0.1075  0.0969
 2512W        W 6031   0.095   4.609   0.884 -0.2964  0.3030 -0.2585
 2513W        W 6032   8.702   0.811   0.659 -0.1584  0.1466  0.0534
 2514W        W 6033   7.243   9.601   0.611  0.0064 -0.1347 -0.0985
 2515W        W 6034   6.400   1.109   7.431  0.0900  0.3956  0.3122
 2516W        W 6035   5.312   3.645  11.136  0.0691 -0.3432 -0.1057
 2517W        W 6036   8.792   0.357   7.247  0.2816  0.2392 -0.0688
 2518W        W 6037   0.577   9.571   2.315 -0.2085 -0.4396 -0.1853
 2519W        W 6038   3.010   1.832   3.186 -0.3658 -0.1940 -0.2802
 2520W        W 6039   1.631   7.253   3.437  0.0973  0.1769  0.2788
 2521W        W 6040   7.600   1.899   7.388 -0.0284 -0.5197 -0.2770
 2522W        W 6041   3.119   5.328   8.395  0.3393 -0.1695  0.1407
 2523W        W 6042   8.374   0.054   2.252  0.2051 -0.2676  0.1430
 2524W        W 6043   8.334   6.867   2.907  0.0767  0.0433  0.0520
 2525W        W 6044   3.686   9.154   0.667  0.0106 -0.2667  0.2980
 2526W        W 6045   3.328   4.544   0.021  0.3849  0.1500  0.0298
 2527W        W 6046   0.333   4.392   7.687 -0.4507  0.4126  0.1068
 2528W        W 6047   4.427   4.975  11.439 -0.3897  0.1257 -0.1162
 2529W        W 6048   4.748   5.487  11.262  0.2328 -0.1345 -0.2258
 2530W        W 6049   5.777   2.864   1.389  0.1751 -0.2691 -0.1457
 2531W        W 6050   1.414   2.704   2.212 -0.0428  0.2601 -0.3200
 2532W        W 6051   9.452   9.790   4.275  0.1110  0.0661 -0.3032
 2533W        W 6052   5.154   7.288   9.698 -0.0486 -0.3475  0.0614
 2534W        W 6053   9.098   7.765   3.649  0.0314 -0.0803  0.1571
 2535W        W 6054   0.908   8.795   9.871  0.1375 -0.5839 -0.0124
 2536W        W 6055   7.883   2.549   1.766 -0.2026  0.0641 -0.2880
 2537W        W 6056   0.551   2.513  10.511 -0.1897 -0.2165  0.0422
 2538W        W 6057   2.772   0.146   8.508  0.2859  0.1747 -0.2681
 2539W        W 6058   9.414   5.745   3.574 -0.2345 -0.0398 -0.3205
 2540W        W 6059   9.608   2.716   0.403  0.0538  0.2228 -0.0364
 2541W        W 6060   7.103   0.235   7.182  0.2503 -0.0801  0.0236
 2542W        W 6061   6.816   1.684  10.678  0.2398 -0.0741  0.1949
 2543W        W 6062   2.650   6.974   8.446  0.2285 -0.1217  0.0963
 2544W        W 6063   7.022   1.253  11.077  0.3434 -0.1857 -0.0317
 2545W        W 6064   2.082   8.601   2.758  0.0847 -0.3975  0.0455
 2546W        W 6065  10.030   5.900   1.599 -0.0669  0.1113 -0.2130
 2547W        W 6066   7.802   7.783   1.152 -0.2727 -0.0731 -0.1327
 2548W        W 6067   1.237   4.603  11.491  0.0997  0.2532 -0.0869
 2549W        W 6068   2.203   9.772  11.196  0.0025 -0.1782 -0.0474
 2550W        W 6069   6.663   2.801  10.208  0.0270  0.1492 -0.0993
 2551W        W 6070   5.562   3.372   0.543  0.1536  0.1081 -0.0486
 2552W        W 6071   8.626   4.979  10.532  0.0826 -0.2481 -0.0220
 2553W        W 6072   8.734   8.286  10.714  0.1323  0.1099 -0.0464
 2554W        W 6073   2.903   5.326   0.234 -0.2323  0.0394  0.0364
 2555W        W 6074   7.714   0.035  10.113 -0.0384  0.0985  0.4650
 2556W        W 6075   9.905   4.840  10.696 -0.0165  0.0336 -0.0735
 2557W        W 6076   5.425   3.986   3.559  0.6341 -0.1181 -0.2988
 2558W        W 6077   7.110   1.063   7.673 -0.1005 -0.1690  0.2730
 2559W        W 6078   4.329   8.022   9.493 -0.1332  0.0871  0.2541
 2560W        W 6079   2.988   1.379   9.189  0.0018 -0.1702 -0.0579
 2561W        W 6080   2.105   3.124   8.572  0.2775 -0.2824 -0.3137
 2562W        W 6081   8.893   6.955   3.630  0.1515  0.2319  0.2014
 2563W        W 6082   4.500   4.859   1.932 -0.0090 -0.1711 -0.0909
 2564W        W 6083   2.983   4.526   2.738 -0.1845 -0.3053  0.1575
 2565W        W 6084   1.641   8.609   8.285  0.0538  0.0301  0.3002
 2566W        W 6085   4.209   7.793  11.396  0.1445 -0.2650 -0.0373
 2567W        W 6086   7.945   9.996  11.132 -0.0646 -0.4845 -0.0526
 2568W        W 6087   2.837   4.316   9.274  0.0966 -0.0681  0.0197
 2569W        W 6088   7.599   9.249   0.454  0.1446 -0.0064  0.0591
 2570W        W 6089   6.170   6.865   2.623 -0.0650 -0.2828 -0.0523
 2571W        W 6090   2.852   3.744   8.817 -0.3994 -0.1086 -0.2538
 2572W        W 6091   5.688   6.133  11.377 -0.0649  0.2191  0.1810
 2573W        W 6092   7.415   5.725   9.893  0.2633  0.2022  0.3981
 2574W        W 6093   7.193   9.038   1.960  0.4089  0.0701 -0.2128
 2575W        W 6094   9.225   9.642   8.869  0.0001 -0.0776  0.3569
 2576W        W 6095   8.205   9.058   2.200  0.2619  0.3078  0.0710
 2577W        W 6096   7.520   7.960   2.746  0.0773 -0.2051 -0.0004
 2578W        W 6097   3.981   2.790   2.299  0.1937 -0.0413  0.0190
 2579W        W 6098   6.715   4.254   9.303  0.0223 -0.0175 -0.1041
 2580W        W 6099   5.680   8.254   3.762 -0.3463  0.2277  0.1182
 2581W        W 6100   0.386   9.955   0.122 -0.0160  0.2220  0.0851
 2582W        W 6101   0.698   9.775  10.795  0.3428  0.2161 -0.4062
 2583W        W 6102   8.804   6.323   8.650 -0.0727 -0.2399 -0.1757
 2584W        W 6103   8.425   7.022   3.863 -0.0985 -0.0238 -0.0521
 2585W        W 6104   3.823   1.526   8.861 -0.1450 -0.1593 -0.0530
 2586W        W 6105   7.408   1.686   9.641  0.1889 -0.0958  0.1405
 2587W        W 6106   5.805   5.005  10.223  0.1134 -0.0034  0.0984
 2588W        W 6107   9.616   5.540   9.215  0.1036  0.2478  0.0486
 2589W        W 6108   1.852   6.687   8.052 -0.0289  0.3251  0.2924
 2590W        W 6109   2.845   7.716   7.208 -0.3062  0.1105  0.1841
 2591W        W 6110   8.906   5.850   9.589 -0.1355  0.1507  0.0918
 2592W        W 6111   9.127   0.372   1.330 -0.1562  0.1460 -0.3763
 2593W        W 6112   3.539   0.163   1.655  0.2154  0.3321  0.1130
 2594W        W 6113   9.588   8.558   1.739  0.2335 -0.3956  0.0141
 2595W        W 6114   9.808   6.336   1.772  0.3278 -0.2214  0.1822
 2596W        W 6115   1.942   5.353  11.337 -0.0910  0.0453 -0.0341
 2597W        W 6116   9.981   1.460   1.286  0.1877 -0.0084  0.2130
 2598W        W 6117   9.259   5.960   2.189 -0.1201 -0.0497 -0.0635
 2599W        W 6118   3.200   7.900   8.208  0.1140 -0.0699  0.1511
 2600W        W 6119   8.453   9.887  11.167 -0.4789 -0.1967  0.0759
 2601W        W 6120   0.860   5.526   9.948  0.0716 -0.1031 -0.2248
 2602W        W 6121   6.572   3.213   2.867  0.0440 -0.0760  0.3661
 2603W        W 6122   1.515   8.701  11.503  0.2223 -0.0079  0.0710
 2604W        W 6123   9.514   6.047   2.656  0.0294  0.1167 -0.0330
 2605W        W 6124   3.312   5.344   1.183  0.0772 -0.0293  0.1436
 2606W        W 6125   9.851   5.727  10.617 -0.0317  0.1157 -0.2588
 2607W        W 6126   1.005   0.908   9.862  0.0652 -0.3465  0.1947
 2608W        W 6127   7.446   0.019   9.049 -0.2040  0.0380  0.1644
 2609W        W 6128   1.995   8.596   9.683  0.2080 -0.1182  0.1512
 2610W        W 6129   2.736   7.474   8.586 -0.1763 -0.1436  0.1447
 2611W        W 6130   5.124   9.119   7.541 -0.1371  0.0380  0.4472
 2612W        W 6131   7.850   0.154   0.640 -0.0049  0.3645  0.4370
 2613W        W 6132   7.065   2.947   0.661  0.2353  0.0177  0.1324
 2614W        W 6133   5.098   5.182   0.602  0.2475  0.0011  0.1488
 2615W        W 6134   9.088   5.236   8.888 -0.0771  0.1549 -0.1552
 2616W        W 6135   1.581   2.336   9.811  0.1341  0.0412  0.1527
 2617W        W 6136   0.075   3.039   8.600 -0.0736 -0.2148 -0.3070
 2618W        W 6137   0.031   7.185  10.931  0.1697  0.0556  0.1207
 2619W        W 6138   8.661   1.618   1.438  0.3326 -0.0326 -0.3649
 2620W        W 6139   9.772   4.223   9.750 -0.0658  0.1747 -0.1339
 2621W        W 6140   3.096   5.657   9.602 -0.1045 -0.0043  0.2331
 2622W        W 6141   5.381   7.066   2.832 -0.1671  0.1151  0.3080
 2623W        W 6142   0.607   9.468   0.490  0.1227 -0.2270  0.1198
 2624W        W 6143   6.455   7.525   0.262  0.1942 -0.0211  0.0240
 2625W        W 6144   4.430   1.643   8.253 -0.3262 -0.1488  0.0440
 2626W        W 6145   1.068   0.604   0.136  0.0221 -0.0314  0.2009
 2627W        W 6146   7.106   3.845   3.518  0.2960 -0.3207  0.1910
 2628W        W 6147   3.366   3.516   0.797 -0.0409  0.0841 -0.2645
 2629W        W 6148   6.089   7.535  11.545 -0.0577 -0.0996 -0.0652
 2630W        W 6149   6.584   4.356  11.469 -0.0114 -0.0728  0.0516
 2631W        W 6150   2.637   5.588   2.864  0.1600  0.0634 -0.0109
 2632W        W 6151   5.445   7.545   0.590  0.3287 -0.1709 -0.0230
 2633W        W 6152   4.548   5.207   8.274  0.1202 -0.0340 -0.1408
 2634W        W 6153   2.942   8.391  10.486  0.2426 -0.0807  0.0198
 2635W        W 6154   2.022   5.379   0.758  0.2197  0.0364  0.5027
 2636W        W 6155   9.298   3.687   3.332  0.1639  0.2728  0.0050
 2637W        W 6156   0.725   5.997   9.266 -0.0114 -0.0306 -0.2272
 2638W        W 6157   0.311   0.140   1.060  0.0895  0.2220  0.2893
 2639W        W 6158   0.994   2.271   8.688  0.0842  0.2706 -0.1855
 2640W        W 6159   0.797   5.347  10.888  0.0705  0.2963  0.2335
 2641W        W 6160   6.191   3.207   0.698 -0.0375 -0.0929 -0.0386
 2642W        W 6161   4.151   5.477  11.213 -0.1871  0.0950  0.3310
 2643W        W 6162   3.608   6.584   0.054  0.1960 -0.1122 -0.0390
 2644W        W 6163   4.869   6.972   2.537 -0.0635 -0.1925 -0.1399
 2645W        W 6164   9.742   4.722   9.768 -0.1221 -0.0128 -0.2386
 2646W        W 6165   3.805   3.581   8.408 -0.2660 -0.3192 -0.0121
 2647W        W 6166   8.550   1.120   3.111 -0.0282 -0.0281 -0.0613
 2648W        W 6167   1.006   1.508  10.598  0.1835 -0.3119  0.0564
 2649W        W 6168   6.979   5.920   0.683 -0.1227 -0.4745 -0.1078
 2650W        W 6169   9.126   6.365   3.018  0.0623 -0.0394  0.0208
 2651W        W 6170   5.297   1.828   9.212  0.0466  0.3462  0.1230
 2652W        W 6171   0.959   1.123   3.419 -0.2551 -0.2238  0.0231
 2653W        W 6172   8.712   9.048   1.311  0.2799  0.2879 -0.0918
 2654W        W 6173   7.469   0.257   7.567  0.0910 -0.1019  0.0842
 2655W        W 6174   7.817   4.177   0.444 -0.2115 -0.0580 -0.0212
 2656W        W 6175   4.748   1.408   1.720 -0.4584 -0.1639 -0.1528
 2657W        W 6176   8.092   4.610   2.106  0.2325 -0.2611 -0.1454
 2658W        W 6177   1.005   4.085   2.058 -0.2147  0.1633  0.2949
 2659W        W 6178   3.822   8.109   2.649  0.2505 -0.0285  0.3140
 2660W        W 6179   8.725   3.784  10.503  0.0962  0.6598 -0.1097
 2661W        W 6180   6.869   7.871   2.223 -0.2675 -0.0007 -0.0350
 2662W        W 6181   3.267   6.233  10.212 -0.2436 -0.2384  0.2271
 2663W        W 6182   2.787   3.512   2.608  0.0988  0.3242 -0.0079
 2664W        W 6183   8.830   1.869   8.756  0.3637  0.0113  0.1362
 2665W        W 6184   2.961   5.825   0.231 -0.1638 -0.0246  0.2004
 2666W        W 6185   3.170   5.927   2.288 -0.0522  0.1967 -0.0497
 2667W        W 6186   2.410   0.679  11.528  0.0138 -0.1382  0.3281
 2668W        W 6187   8.737   7.526  11.117 -0.3105  0.2024 -0.0851
 2669W        W 6188   1.787   4.728   3.746 -0.1705 -0.0138 -0.2690
 2670W        W 6189   3.231   6.288  10.782 -0.1705  0.1689  0.0478
 2671W        W 6190   4.450   1.208   8.705  0.1572  0.1537 -0.2819
 2672W        W 6191   0.062   0.776  10.332  0.0463  0.2049  0.2188
 2673W        W 6192   4.690   4.759   8.145 -0.1016 -0.2156  0.2143
 2674W        W 6193   3.422   6.144   2.637 -0.1323 -0.1583  0.0726
 2675W        W 6194   1.847   3.309  11.205  0.2855  0.1755 -0.1956
 2676W        W 6195   0.048   8.254   8.448  0.0376  0.2116  0.2550
 2677W        W 6196   0.710   5.377   8.722  0.2536  0.1150 -0.0716
 2678W        W 6197   2.534   6.697  11.436  0.1539  0.2335  0.2556
 2679W        W 6198   9.206   1.235   0.061  0.2712 -0.1449  0.1128
 2680W        W 6199   6.923   3.938   1.622 -0.0676  0.4221  0.0120
 2681W        W 6200   4.209   6.997   9.559 -0.0938 -0.1662 -0.0868
 2682W        W 6201   4.220   1.990  11.055  0.5489  0.4142  0.1859
 2683W        W 6202   7.480   0.438   0.095 -0.0120  0.1825 -0.0261
 2684W        W 6203   3.918   2.056   8.997  0.0224  0.0871 -0.0396
 2685W        W 6204   8.246   7.704   0.547 -0.4593 -0.0019  0.5287
 2686W        W 6205   8.284   2.747   1.939  0.1455  0.1528 -0.1699
 2687W        W 6206   9.964   2.202  11.164  0.0916  0.1537 -0.1467
 2688W        W 6207   3.967   4.471   2.595 -0.0070  0.0480 -0.2011
 2689W        W 6208   4.849   2.479   8.829 -0.2102  0.0169 -0.0655
 2690W        W 6209   7.120   4.626   1.953 -0.0223 -0.1405 -0.0372
 2691W        W 6210   4.078   1.100   7.584  0.1060 -0.0095  0.1750
 2692W        W 6211   6.037   3.220   8.735 -0.3020  0.0089 -0.4418
 2693W        W 6212   4.214   8.350   1.848  0.2521 -0.2670 -0.0836
 2694W        W 6213   0.060   1.914   3.583  0.1180  0.1636 -0.1503
 2695W        W 6214   1.552  10.032   0.842 -0.1287 -0.1171  0.1156
 2696W        W 6215   0.975   4.219   0.493  0.4880 -0.0137  0.0467
 2697W        W 6216   8.276   1.470   9.218  0.1819 -0.1538  0.1305
 2698W        W 6217   6.235   8.229   2.231 -0.0177 -0.2167 -0.0054
 2699W        W 6218   9.222   8.426   8.134 -0.0680 -0.0099  0.1053
 2700W        W 6219   2.593   2.004   0.685 -0.1376  0.0159  0.0429
 2701W        W 6220   4.949   1.248   2.391  0.1201  0.2558  0.0902
 2702W        W 6221   7.780   2.536  11.197 -0.2373  0.1919 -0.1685
 2703W        W 6222   6.534   3.263   8.313  0.0068  0.2733  0.3184
 2704W        W 6223   6.481   7.684   1.947  0.1633 -0.0796  0.1395
 2705W        W 6224   0.877   9.861   8.060  0.2189  0.0639  0.0352
 2706W        W 6225   1.016   9.661   0.431  0.0681  0.3218  0.1043
 2707W        W 6226   9.352   1.116  11.215 -0.1366 -0.2640  0.0446
 2708W        W 6227   7.121   6.564   0.520  0.2017  0.1306 -0.3083
 2709W        W 6228   9.146   7.972   9.384  0.1356 -0.1276 -0.1774
 2710W        W 6229   9.746   0.913   0.048 -0.2430 -0.0248 -0.0036
 2711W        W 6230   7.183   1.451  11.552 -0.1052  0.1165  0.3155
 2712W        W 6231   2.915   0.577   3.739 -0.0406 -0.1179  0.2090
 2713W        W 6232   1.962   1.012   0.858  0.0196  0.0029 -0.3449
 2714W        W 6233   9.323   5.649   2.991  0.0649  0.0575 -0.4342
 2715W        W 6234   0.538   2.365   8.545  0.0504  0.2955 -0.1031
 2716W        W 6235   5.823   7.993   2.165  0.0220  0.1916  0.1610
 2717W        W 6236   2.644   5.926   2.486  0.0424 -0.2789 -0.0407
 2718W        W 6237   6.530   9.700   2.515  0.2301 -0.1783  0.0823
 2719W        W 6238   0.273   2.610   8.952  0.1542  0.3674  0.3864
 2720W        W 6239   5.896   2.127   0.714  0.1468 -0.2885  0.0454
 2721W        W 6240   2.163   9.264  10.380 -0.1911  0.0176 -0.2160
 2722W        W 6241   1.880   8.966  11.566  0.2848  0.3340  0.1265
 2723W        W 6242   0.285   4.172   3.300  0.0567  0.0102  0.2598
 2724W        W 6243   1.803   9.172   0.456 -0.0822 -0.2953  0.0426
 2725W        W 6244   6.873   9.971   3.343 -0.2711 -0.1925 -0.0591
 2726W        W 6245   9.319   6.569   2.154  0.1164  0.1990  0.3180
 2727W        W 6246   6.582   2.043  10.926 -0.2308 -0.0505 -0.0340
 2728W        W 6247   1.010   0.082   8.433 -0.1618 -0.0830 -0.2083
 2729W        W 6248   8.155   1.149   0.816  0.0877 -0.0175 -0.0505
 2730W        W 6249   5.554   3.823   9.130 -0.1634 -0.2610  0.0201
 2731W        W 6250   7.582   4.341   1.296 -0.1479  0.0793  0.3734
 2732W        W 6251   4.871   5.746  10.445  0.2512  0.3107  0.3326
 2733W        W 6252   1.693   9.099  10.527 -0.0159  0.2659 -0.2501
 2734W        W 6253   4.651   4.283   9.525  0.1348 -0.0885 -0.0806
 2735W        W 6254   3.601   2.989   0.693 -0.2180  0.0418  0.0097
 2736W        W 6255   4.538   8.921   7.454 -0.1007 -0.0838  0.2394
 2737W        W 6256   2.689   0.957  10.063  0.0974 -0.0053 -0.0988
 2738W        W 6257   5.410   8.485  10.861  0.1680 -0.0852 -0.4393
 2739W        W 6258   6.803   3.244  10.114  0.2947  0.2461  0.2136
 2740W        W 6259   7.728   9.632   2.475  0.2989  0.2542  0.3153
 2741W        W 6260   8.418   8.118   8.220 -0.1751 -0.0264 -0.3943
 2742W        W 6261   6.662   1.233   7.918 -0.1362  0.1905  0.3128
 2743W        W 6262   6.815   5.079   9.208 -0.0353  0.1318 -0.1846
 2744W        W 6263   5.680   3.490   2.914 -0.3049 -0.0993 -0.3318
 2745W        W 6264   3.853   8.412   2.282 -0.2834  0.0033 -0.2361
 2746W        W 6265   4.852   3.122   2.374 -0.2213 -0.0294 -0.3184
 2747W        W 6266   6.221   0.867   7.810  0.0061  0.1158  0.0298
 2748W        W 6267   8.985   3.299   8.487 -0.0056 -0.3232 -0.2216
 2749W        W 6268   5.380   6.513  11.032 -0.1495 -0.1290 -0.1884
 2750W        W 6269   9.255   3.485   9.583  0.1811 -0.2102  0.0512
 2751W        W 6270   2.240   8.042   9.069  0.1792 -0.0862  0.0373
 2752W        W 6271   3.648   0.485   8.042 -0.1298  0.2233  0.3809
 2753W        W 6272   2.262   3.439   2.760  0.2406 -0.3693  0.1529
 2754W        W 6273   7.087   6.594  10.278 -0.2477  0.0002  0.1172
 2755W        W 6274   6.294   9.504   0.837 -0.4071 -0.1520 -0.1070
 2756W        W 6275   0.013   6.144   9.901 -0.0968  0.2023 -0.1131
 2757W        W 6276   5.088   5.002   9.197 -0.1722 -0.0714  0.1833
 2758W        W 6277   0.500   6.944  10.849 -0.1651  0.0086 -0.1594
 2759W        W 6278   2.157   2.133   1.222  0.2301  0.1128  0.0263
 2760W        W 6279   2.742   7.622   1.832  0.0134 -0.0059  0.2352
 2761W        W 6280   6.796   6.795   7.765 -0.1454  0.0659 -0.1817
 2762W        W 6281   6.820   4.827   1.674 -0.1382 -0.1674 -0.1279
 2763W        W 6282   9.769   2.343   9.557  0.2392  0.2148  0.1599
 2764W        W 6283   1.313   6.885   0.279  0.2705  0.1113  0.1974
 2765W        W 6284   5.749   1.075   7.942 -0.1524 -0.1306  0.2225
 2766W        W 6285   2.565   5.623   1.459 -0.1172  0.1738 -0.1584
 2767W        W 6286   0.747   7.486   4.098  0.2056  0.2899 -0.0665
 2768W        W 6287   5.881   6.671  10.080  0.0783 -0.1087 -0.1159
 2769W        W 6288   2.179   9.118   0.819 -0.1384 -0.0678 -0.1778
 2770W        W 6289   0.490   5.750   1.779  0.1635 -0.0334 -0.2417
 2771W        W 6290   8.942   5.274  10.325 -0.3183  0.0072 -0.0627
 2772W        W 6291   3.504   4.454   4.025  0.1237 -0.1605 -0.3155
 2773W        W 6292   7.534   5.191   8.514 -0.0105 -0.0010  0.0658
 2774W        W 6293   8.214   6.354  10.204 -0.1713  0.2074 -0.0124
 2775W        W 6294   9.586   0.577   3.435 -0.0521 -0.1017  0.3164
 2776W        W 6295   4.430   0.664   7.416 -0.3135 -0.2003 -0.0613
 2777W        W 6296   4.747   1.521  11.494  0.2431  0.2119  0.0554
 2778W        W 6297   6.281   1.602   9.387 -0.3343 -0.1990 -0.0070
 2779W        W 6298   7.859   6.052  10.922 -0.0542 -0.2050  0.2274
 2780W        W 6299   8.265   2.946  10.517  0.0187 -0.0032  0.2169
 2781W        W 6300   1.645   6.815   7.642 -0.0147  0.2966  0.0391
 2782W        W 6301   1.468   8.815   9.734 -0.1504 -0.1710 -0.0743
 2783W        W 6302   2.362   8.132   2.984  0.2030  0.1778 -0.1506
 2784W        W 6303   8.348   2.112  10.414  0.1058 -0.0262  0.0785
 2785W        W 6304   7.052   1.395   8.419  0.2592  0.3644  0.0926
 2786W        W 6305   1.543   0.445   7.639 -0.2514  0.1349 -0.0490
 2787W        W 6306   0.831   1.142   8.452 -0.2584 -0.1546 -0.2225
 2788W        W 6307   4.687   5.114  10.949 -0.0390 -0.2508  0.1001
 2789W        W 6308   7.808   6.385  11.396 -0.2362  0.0560 -0.1560
 2790W        W 6309   5.740   7.741   9.182  0.0944  0.5646  0.1234
 2791W        W 6310   8.489   3.290   1.890  0.0321  0.0241  0.1566
 2792W        W 6311   0.103   8.559   1.763  0.2787  0.0370 -0.0417
 2793W        W 6312   7.508   4.561   9.432 -0.5637  0.2508  0.0362
 2794W        W 6313   4.915   9.041   2.085 -0.2490 -0.0693 -0.1539
 2795W        W 6314   8.444   3.670   9.874 -0.1737  0.1519  0.2734
 2796W        W 6315   4.808   3.302   8.125 -0.1171 -0.2206  0.2197
 2797W        W 6316   8.381   2.124   0.163  0.0300 -0.2365 -0.2526
 2798W        W 6317   6.753   3.099   7.622 -0.0765  0.1039 -0.0379
 2799W        W 6318   3.059   1.608   4.007 -0.0605 -0.0363 -0.0454
 2800W        W 6319   4.427   9.158   2.169 -0.2952  0.1875  0.0821
 2801W        W 6320   5.096  10.034   0.384 -0.1085 -0.1039 -0.0357
 2802W        W 6321   4.601   0.807   9.838 -0.0611 -0.1340  0.0614
 2803W        W 6322   7.412   6.942   8.656 -0.1048 -0.0198 -0.1301
 2804W        W 6323   8.005   9.091   7.533  0.1707  0.1798  0.0057
 2805W        W 6324   4.152   3.115  10.100 -0.0315 -0.0331  0.0995
 2806W        W 6325   6.254   9.838  11.245 -0.0481  0.1585  0.1597
 2807W        W 6326   4.489   8.395  11.191 -0.5594  0.1240 -0.1343
 2808W        W 6327   8.502   6.609   1.893 -0.0737  0.0370  0.2329
 2809W        W 6328   5.328   4.703   8.309  0.0250  0.0344  0.1839
 2810W        W 6329   0.045   2.226   0.514  0.0862 -0.1702  0.0084
 2811W        W 6330   4.431   9.467   6.529  0.0729  0.0526 -0.1399
 2812W        W 6331   9.252   4.750  10.533  0.1402  0.1339  0.1847
 2813W        W 6332   2.334   4.918   8.197  0.1572  0.0871 -0.1029
 2814W        W 6333   4.508   0.181  10.021  0.1579 -0.1960  0.2001
 2815W        W 6334   0.708   5.737   8.292  0.0134  0.1735 -0.0914
 2816W        W 6335   5.028   0.570   0.049  0.0951 -0.2783  0.0490
 2817W        W 6336   5.105   5.594   8.559  0.3136  0.1220 -0.2723
 2818W        W 6337   5.030   8.717  10.579  0.0043 -0.2108 -0.1969
 2819W        W 6338   0.439   9.482   9.288 -0.4190  0.1066  0.3374
 2820W        W 6339   6.988   4.645   7.397 -0.1879 -0.1786  0.3384
 2821W        W 6340   0.184   0.909   7.336 -0.3224 -0.1494 -0.0871
 2822W        W 6341   2.658   9.569   0.540 -0.0771  0.0408  0.1828
 2823W        W 6342   3.759   5.131   6.881 -0.0459 -0.1266 -0.1148
 2824W        W 6343   8.352   4.844   2.466 -0.1964  0.1283 -0.3234
 2825W        W 6344   4.369   5.591   0.101  0.1075 -0.3114  0.1430
 2826W        W 6345   5.081   2.128   2.368 -0.3201 -0.1786  0.0212
 2827W        W 6346   3.411   0.978   1.898 -0.1468  0.3006  0.0197
 2828W        W 6347   7.862   8.677   9.751 -0.1979  0.1342 -0.0395
 2829W        W 6348   5.936   3.187  10.174  0.0039  0.0275  0.1857
 2830W        W 6349   0.615   2.175   0.313  0.0831 -0.1040  0.0444
 2831W        W 6350   6.902   9.993   1.346 -0.0961 -0.1831 -0.2542
 2832W        W 6351   3.347   6.886   2.667 -0.0364  0.1714  0.1840
 2833W        W 6352   5.541   8.270   0.820 -0.3030 -0.1567 -0.3114
 2834W        W 6353   9.726   5.412   1.605  0.0009 -0.0952  0.0549
 2835W        W 6354   3.453   2.003   8.714 -0.1010  0.3180 -0.0013
 2836W        W 6355   2.310   0.054  10.563  0.0356  0.0228 -0.0855
 2837W        W 6356   2.145   2.883  11.249  0.4033 -0.2639  0.0311
 2838W        W 6357   8.570   9.245  10.211  0.0719  0.0579  0.2067
 2839W        W 6358   5.495   7.323   9.322  0.1580  0.0111  0.1915
 2840W        W 6359   5.362   9.436   3.151 -0.0614  0.0370  0.0296
 2841W        W 6360   1.733   3.141   3.591 -0.0774  0.1088  0.0211
 2842W        W 6361   8.178   5.047  10.192 -0.1733  0.2566 -0.0962
 2843W        W 6362   0.774   4.335  10.632  0.0791  0.1621  0.2312
 2844W        W 6363   3.197   3.426   4.224  0.0902  0.1821  0.2047
 2845W        W 6364   1.958   5.549   2.285 -0.3320  0.2450 -0.0228
 2846W        W 6365   6.895   6.917   9.846  0.3000  0.2410 -0.0084
 2847W        W 6366   6.913   9.236   6.847 -0.0957  0.2602  0.0321
 2848W        W 6367   6.880   6.393   9.443  0.2840 -0.0256  0.2410
 2849W        W 6368   5.878   0.796   9.542  0.1816  0.2009  0.0186
 2850W        W 6369   1.705   2.478   7.982 -0.1268 -0.1005 -0.3903
 2851W        W 6370   2.874   4.216   7.615  0.1348  0.2829  0.0615
 2852W        W 6371  10.000   5.010   1.815 -0.2039  0.0335  0.1129
 2853W        W 6372   3.071   7.800   7.631  0.0003 -0.1881  0.0115
 2854W        W 6373   1.230   7.719   8.452 -0.0476 -0.0094  0.2374
 2855W        W 6374   3.262   9.086   1.516  0.0923  0.1529 -0.1837
 2856W        W 6375   7.500   8.136   7.948 -0.0372  0.1949 -0.3918
 2857W        W 6376   5.847   5.612   2.827  0.3606 -0.1927  0.2407
 2858W        W 6377   4.085   5.130   9.049 -0.0997 -0.0615 -0.1452
 2859W        W 6378   1.698   3.845   0.288 -0.1320 -0.0857 -0.1894
 2860W        W 6379   0.399   6.848   8.843  0.0735 -0.0504 -0.0492
 2861W        W 6380   0.477   7.962   9.771 -0.0092  0.3073 -0.0979
 2862W        W 6381   5.560   9.941   9.321 -0.1171  0.2455  0.3844
 2863W        W 6382   2.836   4.353   2.288  0.0426  0.3410  0.0557
 2864W        W 6383   6.250   7.523   9.906  0.1649  0.0252 -0.0893
 2865W        W 6384   5.313   5.102   9.967  0.1223 -0.0025  0.5122
 2866W        W 6385   2.081   9.156  10.901 -0.2584 -0.0208 -0.1428
 2867W        W 6386   8.525   4.015  11.334 -0.0908  0.2058 -0.0626
 2868W        W 6387   5.332   1.434   0.282  0.0079 -0.2745  0.0334
 2869W        W 6388   6.383   0.819   6.949  0.2746 -0.1208 -0.0820
 2870W        W 6389   2.211   4.416   3.386  0.0832  0.2147 -0.0260
 2871W        W 6390   9.632   5.382   1.093 -0.1106 -0.1399 -0.1166
 2872W        W 6391   0.629   5.096  10.010 -0.2513 -0.0477 -0.4240
 2873W        W 6392   3.708   5.114   7.697  0.1182 -0.1105  0.0523
 2874W        W 6393   0.954   6.708   1.733  0.2093 -0.0953 -0.0790
 2875W        W 6394   5.522   8.220  11.384 -0.1282  0.0381  0.1054
 2876W        W 6395   6.451   2.030   0.394  0.0293  0.3118  0.2331
 2877W        W 6396   8.207   3.401   2.724 -0.3177 -0.1501  0.2343
 2878W        W 6397   5.771   6.735   8.293 -0.2794  0.0241 -0.3528
 2879W        W 6398   2.478   4.436   8.426 -0.0536 -0.1793 -0.1208
 2880W        W 6399   7.350   6.244   9.168 -0.0042  0.2122  0.4713
 2881W        W 6400   3.463   3.307   0.288  0.1754 -0.0063 -0.0028
 2882W        W 6401   3.802   3.616   3.015 -0.3194 -0.0423 -0.0599
 2883W        W 6402   9.200   4.721   8.997 -0.2282  0.0781 -0.0502
 2884W        W 6403   9.424   0.925   4.974  0.3918  0.0646  0.0182
 2885W        W 6404   5.327   9.600   2.621  0.1026 -0.0608 -0.0114
 2886W        W 6405   3.755   6.852   9.802 -0.4401  0.3154 -0.1250
 2887W        W 6406   4.419   2.635   2.060  0.0291 -0.1682 -0.0951
 2888W        W 6407   4.876   1.348   0.459  0.2535  0.3780  0.1534
 2889W        W 6408   8.747   2.817   8.319  0.1209  0.0793 -0.0456
 2890W        W 6409   5.204   0.300   2.265  0.1146 -0.1348  0.0910
 2891W        W 6410   0.309   1.710   1.033  0.3665 -0.3304 -0.1418
 2892W        W 6411   0.277   0.941   9.190  0.1591 -0.1140 -0.0140
 2893W        W 6412   2.155   5.419   8.032 -0.0087  0.2889  0.0189
 2894W        W 6413   3.220   7.638   3.056  0.2018 -0.0380 -0.0258
 2895W        W 6414   4.713   6.422  10.234 -0.0660 -0.1528 -0.2490
 2896W        W 6415   0.010   3.405   9.924  0.0535  0.0450 -0.1161
 2897W        W 6416   7.751   2.922   0.053  0.0034  0.0610 -0.2221
 2898W        W 6417   9.597   5.200   9.708  0.0259  0.1872 -0.1599
 2899W        W 6418   3.834   9.415   7.571 -0.2341  0.1388  0.0006
 2900W        W 6419   1.986   0.493  11.359  0.0658 -0.2201  0.1843
 2901W        W 6420   2.645   2.849   8.265 -0.3581  0.1153 -0.1616
 2902W        W 6421   4.357   0.610   1.247  0.0396 -0.1237 -0.0010
 2903W        W 6422   6.989   3.128   3.098 -0.0458 -0.1272  0.0956
 2904W        W 6423   9.946   0.730   2.695 -0.0062 -0.2002 -0.2570
 2905W        W 6424   3.989   2.907   3.272 -0.0583 -0.2095 -0.0188
 2906W        W 6425   9.548   7.050   2.942 -0.3779  0.2107  0.1082
 2907W        W 6426   5.166   3.166   8.444  0.0337 -0.1585 -0.1482
 2908W        W 6427   2.542   5.900   0.732 -0.1956 -0.0013  0.0773
 2909W        W 6428   1.311   4.471  10.581  0.3210 -0.0398 -0.0768
 2910W        W 6429   0.392   7.358   4.441  0.0644 -0.0280  0.2136
 2911W        W 6430   8.089   3.209   2.117 -0.0489 -0.0311 -0.1309
 2912W        W 6431   1.078   5.460   2.347 -0.1270  0.0961 -0.1615
 2913W        W 6432   6.789   2.472  10.605  0.2371 -0.0065 -0.2808
 2914W        W 6433   8.704   9.105   2.713 -0.0609  0.0326  0.3668
 2915W        W 6434   5.747   4.161   7.900 -0.3641  0.0690 -0.1232
 2916W        W 6435   2.325   6.506   0.767 -0.2384  0.1411  0.0741
 2917W        W 6436   0.848  10.039   2.565 -0.2042  0.0305 -0.1322
 2918W        W 6437   5.746   4.996   1.086 -0.3996 -0.0821  0.0845
 2919W        W 6438   3.739   0.314  10.457 -0.0797  0.0690  0.0399
 2920W        W 6439   4.295   0.651   8.997  0.0484 -0.3833 -0.2337
 2921W        W 6440   6.246   7.826   9.467  0.1694  0.1816 -0.1271
 2922W        W 6441   3.336   5.083   8.062  0.3452  0.2231 -0.2441
 2923W        W 6442   0.969   2.261   1.554  0.2261 -0.2175 -0.0322
 2924W        W 6443   1.000   2.876   3.265 -0.2229  0.2229  0.1453
 2925W        W 6444   8.589   6.770   9.684 -0.2304  0.1961 -0.0130
 2926W        W 6445   9.217   0.511   9.449  0.0635  0.1195  0.0391
 2927W        W 6446   4.232   9.494   1.244 -0.1579  0.0880 -0.0053
 2928W        W 6447   8.600   5.243  11.067 -0.1206 -0.1605  0.0957
 2929W        W 6448   2.640   5.478  10.976  0.0642  0.0153  0.0434
 2930W        W 6449   3.312   2.855   1.035  0.1060  0.0422 -0.4508
 2931W        W 6450   0.584   5.422   1.091 -0.2052  0.0468  0.1403
 2932W        W 6451   0.993   2.723   7.860 -0.0085 -0.0097 -0.0696
 2933W        W 6452   0.431   6.763   2.681 -0.0864  0.0910 -0.1511
 2934W        W 6453   6.065   4.086   8.439 -0.0132  0.0623  0.1078
 2935W        W 6454   7.073   2.908  10.483 -0.4537 -0.0350  0.0012
 2936W        W 6455   1.788  10.062  11.545 -0.2619 -0.2882  0.0004
 2937W        W 6456   0.893   1.653   7.302 -0.1055  0.1962 -0.0491
 2938W        W 6457   0.156   4.449   4.220  0.4079 -0.1770 -0.1427
 2939W        W 6458   2.595   8.285   2.447 -0.4733  0.0960  0.3545
 2940W        W 6459   9.113   2.859   8.702 -0.1270  0.3555  0.0073
 2941W        W 6460   2.048   1.648   1.370 -0.2585  0.0579 -0.2762
 2942W        W 6461   4.963   4.266   0.313  0.1094  0.2070  0.0700
 2943W        W 6462   6.802   0.361   8.108  0.1021  0.5840 -0.0098
 2944W        W 6463   1.597   6.276   2.533 -0.2186  0.0055 -0.2201
 2945W        W 6464   3.528   3.476   2.586 -0.1541  0.1825 -0.0677
 2946W        W 6465   7.489   0.721   1.427  0.1928  0.1631 -0.1180
 2947W        W 6466   7.226   9.649   1.128  0.0600 -0.2132  0.2435
 2948W        W 6467   7.426   4.869   4.722  0.1388  0.0438 -0.0869
 2949W        W 6468   2.270   6.085   1.106  0.2625  0.1714 -0.2327
 2950W        W 6469   4.297   8.038  10.047 -0.0230 -0.0791 -0.0234
 2951W        W 6470   1.930   9.705   2.512  0.4718  0.1292  0.0116
 2952W        W 6471   9.566   0.330   8.976 -0.3446 -0.0083  0.3633
 2953W        W 6472   0.086   9.556   9.667 -0.0116 -0.1797 -0.1119
 2954W        W 6473   9.103   5.754   0.361  0.1053 -0.2714 -0.3987
 2955W        W 6474   7.290   7.915   9.707 -0.0602 -0.2082  0.1763
 2956W        W 6475   6.608   3.187   3.858  0.2039 -0.2445  0.0982
 2957W        W 6476   1.681   8.520  10.098 -0.0181 -0.1902  0.0763
 2958W        W 6477   7.456   7.426   8.762 -0.1106  0.1225 -0.1848
 2959W        W 6478   1.315   3.979   3.974 -0.1581 -0.1205  0.0835
 2960W        W 6479   7.768   2.160   1.489  0.1409 -0.0707 -0.2761
 2961W        W 6480   0.861   9.423   0.916 -0.1069 -0.1627 -0.0474
 2962W        W 6481   1.129   7.891  10.845  0.2220 -0.0485  0.1617
 2963W        W 6482   8.981   6.302   9.184 -0.2314 -0.2126  0.1937
 2964W        W 6483   0.620   4.879   9.545 -0.0066 -0.1956 -0.2766
 2965W        W 6484   0.901   6.043   0.455 -0.0361  0.3201 -0.0986
 2966W        W 6485   3.387   5.696   3.730 -0.0532  0.2046  0.2632
 2967W        W 6486   0.318   7.270   2.628 -0.1190  0.1391  0.1968
 2968W        W 6487   3.731   1.375  11.331  0.2151  0.3592 -0.1830
 2969W        W 6488   5.555  10.009   1.341  0.0168  0.0577  0.1751
 2970W        W 6489   8.474   1.328   7.867  0.2153 -0.0815  0.2146
 2971W        W 6490   8.370   3.804   7.834  0.0095 -0.0544 -0.1457
 2972W        W 6491   8.927   8.376   9.254 -0.0512 -0.2152  0.3213
 2973W        W 6492   4.131   7.225   2.503  0.0804 -0.1603  0.1318
 2974W        W 6493   8.534   3.480   2.367 -0.2075 -0.2298  0.1824
 2975W        W 6494   1.278   2.953   9.188 -0.2063 -0.0565  0.1576
 2976W        W 6495   7.768   9.677   7.962 -0.0092  0.2997  0.2041
 2977W        W 6496   6.216   0.572  10.729  0.0874  0.1525 -0.1246
 2978W        W 6497   1.415   9.737   9.426 -0.0757 -0.0842  0.0548
 2979W        W 6498   2.405   8.451   8.231 -0.2585 -0.0678 -0.3157
 2980W        W 6499   8.758   7.414  10.210 -0.1938  0.0797  0.1181
 2981W        W 6500   1.574   7.102   9.885 -0.2891 -0.2302  0.0136
 2982W        W 6501   8.169   0.736   2.883  0.0167  0.0248 -0.2011
 2983W        W 6502   3.085   0.249  11.055 -0.1623 -0.1736  0.1083
 2984W        W 6503   1.479   4.017   2.585 -0.3382  0.2665  0.2214
 2985W        W 6504   1.860   5.947   8.628 -0.0144  0.0815  0.0764
 2986W        W 6505   0.557   6.585   0.817 -0.0325  0.1038 -0.1260
 2987W        W 6506   3.873   5.229   9.517 -0.0792 -0.0050 -0.1987
 2988W        W 6507   8.008   4.530   9.577 -0.0780  0.0200 -0.0638
 2989W        W 6508   3.247   2.322   1.838 -0.1535  0.1068 -0.0806
 2990W        W 6509   6.519   9.666   9.101 -0.0031  0.2712 -0.1214
 2991W        W 6510   7.766   8.057  11.249 -0.0435  0.0013  0.2027
 2992W        W 6511   7.948   0.475   0.226 -0.0848 -0.1102 -0.0083
 2993W        W 6512   4.845   7.503   9.363 -0.0633  0.3212 -0.0127
 2994W        W 6513   8.284   9.467   8.784 -0.1015  0.1554 -0.1739
 2995W        W 6514   9.618   0.645   1.583 -0.4209 -0.0044  0.1461
 2996W        W 6515   8.306   8.293   1.798  0.2478  0.1453  0.1162
 2997W        W 6516   5.964   9.122   1.528 -0.4219  0.1809 -0.2593
 2998W        W 6517   6.666   8.969   2.203  0.2090 -0.0250 -0.1245
 2999W        W 6518   1.505   2.263   0.240  0.3706  0.2019  0.1460
 3000W        W 6519   8.436   4.902  11.394 -0.1124 -0.1147 -0.2758
 3001W        W 6520   7.615   4.468   1.980  0.0373  0.0832 -0.2949
 3002W        W 6521   8.880   8.962   3.350  0.3117  0.1617  0.0381
 3003W        W 6522   9.920   1.617   8.404  0.1379 -0.2560  0.1496
 3004W        W 6523   6.888   6.980  10.644 -0.2587 -0.2039  0.1198
 3005W        W 6524   5.250   1.519  11.428 -0.1064 -0.1316  0.2250
 3006W        W 6525   8.488   6.909  10.267 -0.1156 -0.2218  0.1372
 3007W        W 6526   1.975   3.983  11.343 -0.0658  0.2637  0.1173
 3008W        W 6527   3.673   3.519  10.527 -0.4554 -0.2915 -0.3490
 3009W        W 6528   2.818   8.109   7.926  0.3362 -0.1411  0.2288
 3010W        W 6529   9.748   9.406   9.871 -0.3114  0.3355 -0.0401
 3011W        W 6530   9.186   0.168   4.026  0.1973  0.0634 -0.1434
 3012W        W 6531   3.794   1.923  10.531 -0.0076  0.2213 -0.1809
 3013W        W 6532   6.154   6.364   9.134 -0.1864 -0.2812 -0.2955
 3014W        W 6533   8.346   3.248   1.239  0.0918  0.0129 -0.3574
 3015W        W 6534   2.308   7.383   2.618 -0.2643 -0.0105 -0.1071
 3016W        W 6535   5.380   8.689  11.320  0.3195  0.1230  0.2477
 3017W        W 6536   8.217   6.877   8.974  0.1043  0.1328  0.0763
 3018W        W 6537   7.525   5.260   3.221 -0.0436 -0.0291  0.1106
 3019W        W 6538   0.068   8.152   9.503 -0.3035 -0.3860  0.0279
 3020W        W 6539   5.163   4.769   2.358 -0.2022  0.0864 -0.1768
 3021W        W 6540   8.448   8.282   9.057  0.2872 -0.0812 -0.1068
 3022W        W 6541   8.577   9.509  10.660 -0.0088 -0.0188 -0.0060
 3023W        W 6542   9.401   7.476   2.390  0.3283 -0.1853  0.0082
 3024W        W 6543   4.524   3.440   2.540 -0.1848  0.1698  0.4098
 3025W        W 6544   7.204   0.157   8.585 -0.0778 -0.0659  0.1541
 3026W        W 6545   1.185   0.447  11.209  0.2261  0.0095  0.2887
 3027W        W 6546   9.052   9.853   3.341  0.4508  0.1863 -0.0207
 3028W        W 6547   8.019   0.088   7.244  0.0217  0.1777 -0.1110
 3029W        W 6548   6.647   4.051   3.460 -0.0071 -0.0516  0.2618
 3030W        W 6549   3.619   3.120   2.958  0.0030 -0.1650 -0.0788
 3031W        W 6550   4.185   5.381   1.412 -0.1941 -0.1307  0.3535
 3032W        W 6551   8.057   6.882   1.328 -0.0261  0.1213 -0.3218
 3033W        W 6552   5.134   7.048  11.036 -0.0990  0.1476 -0.0430
 3034W        W 6553   3.703   4.157   2.151  0.0759 -0.0451  0.0233
 3035W        W 6554   5.671   8.551   8.634  0.2946  0.2299  0.1951
 3036W        W 6555   7.581   0.205  10.943  0.0778  0.0383 -0.0783
 3037W        W 6556   5.198   0.381   0.620  0.0615  0.1298  0.2561
 3038W        W 6557   7.074   9.442   8.930  0.0531 -0.0386  0.3157
 3039W        W 6558   0.049   3.445  10.587  0.0278  0.1013 -0.1236
 3040W        W 6559   8.993   4.166  11.462 -0.1175  0.2590  0.1276
 3041W        W 6560   4.141   0.636  10.406  0.0351 -0.1518 -0.2132
 3042W        W 6561   7.176   5.048   2.846 -0.1787  0.0191  0.1871
 3043W        W 6562   1.366   1.675  10.321  0.1758 -0.1838  0.2171
 3044W        W 6563   7.478   4.784   1.538 -0.2797  0.1403  0.0801
 3045W        W 6564   7.842   3.886   7.933 -0.3628 -0.1352  0.1497
 3046W        W 6565   9.171   9.698   7.883  0.0266  0.1095  0.1076
 3047W        W 6566   2.752   2.713   3.667  0.0816  0.2164  0.1657
 3048W        W 6567   8.537   7.895   7.649  0.0715  0.1842  0.1073
 3049W        W 6568   9.671   1.244   1.614  0.0800 -0.0614  0.0583
 3050W        W 6569   5.754   2.760  11.502  0.2318 -0.1030  0.1349
 3051W        W 6570   3.599   6.601   2.976 -0.1512 -0.3149  0.0703
 3052W        W 6571   6.804   6.075   4.173  0.1127  0.0004 -0.0358
 3053W        W 6572   8.511   9.227   9.188  0.0985  0.2082  0.1071
 3054W        W 6573   3.785   0.262   9.025  0.3826  0.0150 -0.0264
 3055W        W 6574   0.448   9.913   0.658  0.1086  0.0210  0.1304
 3056W        W 6575   0.411   5.249   1.546 -0.3734  0.0601  0.1031
 3057W        W 6576   7.422   3.313   2.871 -0.3351  0.2574 -0.3391
 3058W        W 6577   6.523   1.476  10.283  0.1388  0.1010 -0.1079
 3059W        W 6578   6.342   3.451  10.395 -0.1230  0.2366 -0.1466
 3060W        W 6579   4.436   8.599  10.211 -0.1500  0.1911 -0.1685
 3061W        W 6580   4.566   4.661   0.180  0.2986  0.2980 -0.3018
 3062W        W 6581   5.908   1.184   9.154  0.0902 -0.0837  0.1009
 3063W        W 6582   0.048   5.476   1.840  0.1218  0.2315  0.0800
 3064W        W 6583   1.342   1.492   0.475 -0.3201 -0.3277 -0.5894
 3065W        W 6584   7.065   8.650   3.291 -0.2240  0.0289  0.3808
 3066W        W 6585   4.937   4.757   7.652  0.2040  0.3134  0.3030
 3067W        W 6586   2.009   0.756   3.533 -0.3075 -0.1630 -0.0471
 3068W        W 6587   0.908   7.547   1.421 -0.4564 -0.1463  0.0225
 3069W        W 6588   2.497   1.988   0.056 -0.5032  0.0205 -0.3022
 3070W        W 6589   6.454   2.128   2.907  0.2534 -0.0590 -0.1300
 3071W        W 6590   7.511   7.593  10.008 -0.1749 -0.4358 -0.0623
 3072W        W 6591   9.074   1.868   9.804 -0.0219 -0.1881 -0.0229
 3073W        W 6592   5.038   2.352   7.151 -0.1276 -0.0928 -0.0363
 3074W        W 6593   6.843   0.705   1.420 -0.1941  0.1709  0.1062
 3075W        W 6594   6.344   5.206  10.020 -0.0717 -0.2355  0.3264
 3076W        W 6595   7.913   7.963   8.264  0.2128 -0.1239 -0.2128
 3077W        W 6596   1.421   7.319   8.200  0.1352 -0.0651 -0.0340
 3078W        W 6597   6.640   9.249   2.821  0.1087 -0.1357  0.0021
 3079W        W 6598   7.067   7.269   8.452 -0.0009  0.3101 -0.0812
 3080W        W 6599   1.220   0.696   6.944  0.0004  0.2732 -0.3594
 3081W        W 6600   9.745   3.764   9.918  0.0016  0.0012 -0.0620
 3082W        W 6601   9.048   0.427   0.193  0.0971  0.5467 -0.2374
 3083W        W 6602   7.683   5.301   9.783 -0.0990  0.2925 -0.0430
 3084W        W 6603   3.716   1.216   2.878 -0.0407  0.0549  0.0044
 3085W        W 6604   4.454   1.027  10.530 -0.2438 -0.0871 -0.1761
 3086W        W 6605   9.434   5.651   8.786 -0.2483  0.1280 -0.0035
 3087W        W 6606   0.261   4.213  11.129 -0.0773 -0.0315 -0.1067
 3088W        W 6607   2.063  10.035   7.758  0.0508 -0.0273 -0.3158
 3089W        W 6608   1.220   5.797  11.152  0.0435  0.1300  0.0567
 3090W        W 6609   5.724   0.828   3.570 -0.0333 -0.0226  0.0278
 3091W        W 6610   4.207   4.660   1.553 -0.0060 -0.2684  0.2140
 3092W        W 6611   3.456   7.633   7.858  0.2787 -0.1397 -0.5251
 3093W        W 6612   1.957   4.706   9.636 -0.0907  0.1641 -0.3807
 3094W        W 6613   7.502   3.230   3.436 -0.0305  0.2070  0.0115
 3095W        W 6614   4.713   3.612   2.000  0.0650 -0.1314  0.1900
 3096W        W 6615   0.027   7.713  11.059  0.0992 -0.0160  0.0449
 3097W        W 6616   0.656   8.381  10.124 -0.2695  0.1681 -0.1190
 3098W        W 6617   3.748   6.639   0.547  0.0808  0.0820  0.0335
 3099W        W 6618   8.556   0.131   9.746  0.0341 -0.0050 -0.2459
 3100W        W 6619   3.091   8.562   2.900 -0.0266 -0.1139  0.3205
 3101W        W 6620   0.621   0.376   8.048  0.0425 -0.0192 -0.1622
 3102W        W 6621   2.094   3.047   4.002 -0.2701 -0.0902  0.3574
 3103W        W 6622   4.014   0.495  11.447  0.0099  0.0245  0.1042
 3104W        W 6623   5.783   7.744  11.210  0.0740 -0.0659 -0.0971
 3105W        W 6624   3.676   1.012   2.424 -0.1889 -0.1981  0.0901
 3106W        W 6625   9.529   0.759   9.182  0.1096  0.0567 -0.0123
 3107W        W 6626   6.236   3.824   3.287  0.0853  0.0602 -0.2022
 3108W        W 6627  10.089   1.486   2.677 -0.0483 -0.0018 -0.1246
 3109W        W 6628   4.788   7.706   7.340  0.0477  0.1357 -0.0276
 3110W        W 6629   8.062   3.925   3.162 -0.0066  0.4212 -0.0028
 3111W        W 6630   3.237   7.829   2.586 -0.0093  0.3078 -0.1273
 3112W        W 6631   8.490   6.798  10.735  0.0211  0.1455 -0.4107
 3113W        W 6632   8.141   9.591   2.176 -0.2021 -0.0745 -0.0935
 3114W        W 6633   0.393   0.590   1.199  0.1553  0.0704 -0.0712
 3115W        W 6634   9.626   7.002   2.461  0.0056 -0.0690  0.1245
 3116W        W 6635   0.319   1.731   0.411 -0.2496 -0.0493 -0.2341
 3117W        W 6636  10.042   4.697  10.192 -0.2649  0.1225  0.2159
 3118W        W 6637   2.401   9.101   3.065 -0.0216  0.0856  0.0711
 3119W        W 6638   2.717   6.419   0.399 -0.0031  0.1271 -0.3312
 3120W        W 6639   6.513   0.679   8.833 -0.0622  0.0300  0.2859
 3121W        W 6640   3.654   7.455   8.944 -0.1207  0.3219  0.1986
 3122W        W 6641   2.541   1.692  11.202 -0.0021  0.0881 -0.1001
 3123W        W 6642   2.173   0.830   8.929 -0.1477 -0.2148  0.0759
 3124W        W 6643   1.832   3.960   8.467 -0.0208  0.0254 -0.1087
 3125W        W 6644   8.841   8.280   2.432 -0.4883  0.3876  0.1347
 3126W        W 6645   8.501   2.316  11.282 -0.1860  0.1601  0.1383
 3127W        W 6646   3.047   3.170   0.008 -0.5969  0.4162 -0.0431
 3128W        W 6647   3.240   9.368  11.365 -0.0592  0.1186 -0.1424
 3129W        W 6648   8.639   1.097   9.277 -0.0197 -0.1005  0.0417
 3130W        W 6649   3.055   0.098   9.863 -0.1722  0.0283  0.1471
 3131W        W 6650   3.079   4.378   3.174  0.1447 -0.2791 -0.2233
 3132W        W 6651  10.034   9.630   9.143 -0.1990 -0.2148  0.0954
 3133W        W 6652   8.655   3.792   1.830  0.2085 -0.1945  0.1205
 3134W        W 6653   2.437   8.977   3.939 -0.1826 -0.2654  0.0424
 3135W        W 6654   5.921   6.073   0.167  0.2000 -0.2182 -0.3562
 3136W        W 6655   5.079   9.843   1.622 -0.0575 -0.1205  0.0676
 3137W        W 6656   0.823   6.681  11.091  0.1890  0.2187 -0.1159
 3138W        W 6657   2.258   6.995   2.923 -0.0389  0.0628  0.1082
 3139W        W 6658   9.100   2.660  10.448  0.2998  0.0474  0.0292
 3140W        W 6659   6.692   5.418   1.405  0.0838  0.1108  0.1290
 3141W        W 6660   3.238   4.013   2.356 -0.2766  0.0895  0.1029
 3142W        W 6661   6.738   6.902   2.282  0.0494  0.1396 -0.0980
 3143W        W 6662   6.530   1.875   1.504  0.1691  0.1218  0.4467
 3144W        W 6663   3.854   0.509   1.295 -0.2722  0.3285 -0.1389
 3145W        W 6664   4.358   4.727   4.070 -0.1812  0.1180  0.0675
 3146W        W 6665   3.232   9.856   8.141  0.1032  0.2194  0.0580
 3147W        W 6666   5.901   8.244  10.511 -0.0319 -0.0862  0.1900
 3148W        W 6667   6.379   9.350   9.501 -0.2351 -0.1667 -0.0030
 3149W        W 6668   2.387   2.808   9.453 -0.1011  0.0929  0.0090
 3150W        W 6669   0.446   0.979   8.166  0.2145 -0.2579  0.0359
 3151W        W 6670   5.157   0.990   9.784  0.3122  0.0951  0.0373
 3152W        W 6671   7.910   8.776   7.169  0.0350  0.0034  0.0121
 3153W        W 6672   1.804   1.182   8.728  0.3258 -0.1499  0.1641
 3154W        W 6673   1.795   5.157   9.508 -0.1198  0.1725 -0.0045
 3155W        W 6674   7.785   1.864   9.221  0.1919  0.1493  0.1691
 3156W        W 6675   4.981   6.369   2.297  0.1175  0.4781  0.0100
 3157W        W 6676   9.166   4.613   2.107 -0.3661 -0.0770  0.2921
 3158W        W 6677   3.521   6.422   9.839  0.0819  0.0513  0.2028
 3159W        W 6678   4.896   8.261  10.718  0.1530 -0.1088 -0.0950
 3160W        W 6679   3.658   6.185   9.427 -0.2131 -0.0623  0.0237
 3161W        W 6680   2.069   0.350   0.789  0.2579 -0.0395  0.2906
 3162W        W 6681   9.169   8.894   3.786 -0.1050 -0.1659  0.2577
 3163W        W 6682   5.952   0.262   1.355  0.0492  0.0959 -0.0428
 3164W        W 6683   6.519   8.248  11.056 -0.0197 -0.0131 -0.0528
 3165W        W 6684   3.321   0.497   9.071  0.0857 -0.3430  0.0620
 3166W        W 6685   6.381   9.277   1.264 -0.0657  0.0601  0.0643
 3167W        W 6686   7.883   3.533   8.717  0.1978 -0.2649  0.1039
 3168W        W 6687   4.057   2.231   2.140 -0.0045  0.0966  0.0654
 3169W        W 6688   1.813   2.702   3.089  0.3264  0.0550 -0.2655
 3170W        W 6689   2.447   9.554   1.811  0.1283  0.0021  0.0592
 3171W        W 6690   8.398   1.292  10.720  0.2585 -0.0085 -0.0666
 3172W        W 6691   6.266   0.725  10.014  0.1216 -0.2077 -0.1860
 3173W        W 6692   3.007   2.374   2.844 -0.1163  0.2992  0.0922
 3174W        W 6693   6.048   3.814   2.127  0.2235  0.3489  0.2121
 3175W        W 6694   2.569   5.357   8.365  0.1262 -0.0177 -0.0295
 3176W        W 6695   6.562   9.715   8.504 -0.2265 -0.0294 -0.5493
 3177W        W 6696   7.744   6.473   1.438  0.2433  0.1008 -0.0185
 3178W        W 6697   5.282   2.325  11.020 -0.2050 -0.1489  0.5108
 3179W        W 6698   2.805   0.237  10.589 -0.1580 -0.1546  0.1185
 3180W        W 6699   4.047   0.997   1.365  0.4276  0.4154 -0.1090
 3181W        W 6700   9.988   0.213  10.968 -0.0316  0.0332  0.4448
 3182W        W 6701   9.925   5.185   3.085 -0.2025 -0.2326 -0.1598
 3183W        W 6702   2.396   9.848   8.462  0.0559 -0.1528  0.0833
 3184W        W 6703   5.132   0.661   9.168 -0.0243 -0.0929 -0.3823
 3185W        W 6704   9.013   2.266   8.989  0.0896 -0.3486 -0.1987
 3186W        W 6705  10.079   6.418   3.854 -0.2074 -0.0091 -0.0812
 3187W        W 6706   6.418   8.005   8.343  0.1657  0.2111 -0.1052
 3188W        W 6707   4.653   5.084   9.428  0.0102  0.0280 -0.1307
 3189W        W 6708   5.391   6.796   9.793  0.0259 -0.0006 -0.2651
 3190W        W 6709   0.755   3.832   8.681 -0.2031 -0.0609  0.1410
 3191W        W 6710   6.397   5.912  11.609 -0.0664 -0.2993  0.0209
 3192W        W 6711   9.593   2.204   9.046  0.0843 -0.0303 -0.1830
 3193W        W 6712   5.558   5.357   8.519 -0.1854  0.1989 -0.3948
 3194W        W 6713   5.985   1.515   1.596 -0.2254  0.1493 -0.2832
 3195W        W 6714   3.683   4.289  11.288  0.1497  0.4002  0.1930
 3196W        W 6715   6.007   9.729   7.224  0.0695  0.1156 -0.0385
 3197W        W 6716   2.868   4.905   8.209  0.0857  0.0027  0.2145
 3198W        W 6717   7.239   4.682   3.847  0.1190 -0.2414 -0.0675
 3199W        W 6718   0.314   9.079  10.557  0.0247 -0.2692  0.1572
 3200W        W 6719   7.110   7.726   8.956  0.1053 -0.3520  0.3621
 3201W        W 6720   6.077   2.001   8.085  0.2385 -0.1410  0.0086
 3202W        W 6721   0.114   3.882   7.947 -0.2176 -0.2866  0.3078
 3203W        W 6722   8.272   3.865   2.681 -0.0223  0.0849  0.0161
 3204W        W 6723   0.770   9.388  11.084  0.0193  0.0033 -0.2500
 3205W        W 6724   3.494   0.594   2.224  0.3943  0.1651  0.1325
 3206W        W 6725   3.302   5.475  11.585  0.0309 -0.3886  0.2371
 3207W        W 6726   7.073   7.549   9.425  0.2986 -0.0389 -0.1250
 3208W        W 6727   9.405   5.732   9.971 -0.1653 -0.0008 -0.1670
 3209W        W 6728   4.152   9.797   0.409 -0.1382  0.2047  0.2269
 3210W        W 6729   5.409   4.339  10.159  0.4174 -0.0694 -0.3258
 3211W        W 6730   3.156   8.397  11.438 -0.2563  0.2951 -0.2358
 3212W        W 6731   4.156   9.549   3.002 -0.1847  0.4162  0.1142
 3213W        W 6732   6.526   0.244   2.512 -0.2979  0.0617  0.3452
 3214W        W 6733   9.306   8.982   1.052 -0.0772 -0.2321 -0.4335
 3215W        W 6734   8.314   9.521   1.136  0.1526 -0.3960  0.2000
 3216W        W 6735   7.409   1.651   2.834  0.0413 -0.0715  0.0453
 3217W        W 6736   3.958   4.850  11.518  0.0543  0.1440 -0.1296
 3218W        W 6737   2.347   1.831   8.881 -0.3401  0.1183  0.2542
 3219W        W 6738   3.885  10.088   7.748 -0.0043  0.0720 -0.2931
 3220W        W 6739   2.488   6.691  10.678  0.4998  0.1814  0.1741
 3221W        W 6740   1.114   3.906   2.941 -0.0067  0.1780  0.2255
 3222W        W 6741   4.628   7.869   2.971  0.1110  0.0217  0.0397
 3223W        W 6742   3.902   8.680   8.067  0.1382 -0.1166  0.3080
 3224W        W 6743   2.836   4.650  11.565  0.1847  0.0476 -0.3555
 3225W        W 6744   4.058   2.182   0.579 -0.0054  0.0524 -0.1671
 3226W        W 6745   0.623   5.545   0.470 -0.0088  0.1734  0.3330
 3227W        W 6746   7.030   3.773   7.571  0.0463  0.3004  0.1229
 3228W        W 6747   0.920   8.523   8.891  0.6734 -0.0241  0.1303
 3229W        W 6748   7.349   2.341  11.212 -0.0589  0.1874 -0.0261
 3230W        W 6749   8.307   7.714   1.079 -0.2836 -0.1486  0.1057
 3231W        W 6750   9.707   4.408   1.149 -0.2117  0.0292  0.2408
 3232W        W 6751   9.518   7.076  10.958  0.0337  0.2785  0.1470
 3233W        W 6752   8.964   4.079   2.170  0.0856  0.0660 -0.0047
 3234W        W 6753   8.878   6.200   0.324  0.1759 -0.0472  0.1094
 3235W        W 6754   8.631   4.918   9.835  0.2240  0.0823  0.0443
 3236W        W 6755   6.917   9.864   2.199  0.0427  0.1398  0.3284
 3237W        W 6756   8.981   5.337   2.736 -0.0400  0.3576 -0.2524
 3238W        W 6757   6.548   3.427   3.366 -0.0095 -0.1823  0.0490
 3239W        W 6758   6.416   1.154   0.823 -0.1926 -0.2908 -0.3780
 3240W        W 6759   6.127   8.397   7.698  0.2859  0.0315  0.0506
 3241W        W 6760   1.963   9.137   8.888  0.1110  0.0850  0.0170
 3242W        W 6761   0.945   3.472   1.291  0.0514 -0.1098 -0.1379
 3243W        W 6762   8.572   7.959   3.617 -0.2101  0.1815  0.0496
 3244W        W 6763   6.505   7.585   8.109 -0.2126  0.2620 -0.0119
 3245W        W 6764   0.462   7.639   1.744  0.0496  0.2465  0.3623
 3246W        W 6765   8.915   1.407   8.964  0.0119 -0.0940  0.0255
 3247W        W 6766   0.035   6.646   9.137 -0.2510 -0.1071  0.0613
 3248W        W 6767   4.362   1.984   9.269  0.0151  0.0373  0.2057
 3249W        W 6768   2.768   6.865   3.004  0.2542  0.0513 -0.3266
 3250W        W 6769   1.599   0.557  10.794  0.0977  0.1195  0.2216
 3251W        W 6770   4.024   6.586   7.286  0.2160  0.2657  0.2588
 3252W        W 6771   8.118   5.187  10.665 -0.1319  0.5435 -0.1303
 3253W        W 6772   5.014   9.496   1.263 -0.0097  0.1719  0.1575
 3254W        W 6773   6.184   4.645   0.128  0.1455  0.0085  0.2940
 3255W        W 6774   1.385   5.597   7.749 -0.0358  0.0655  0.2062
 3256W        W 6775   3.226   0.325   2.587 -0.0560 -0.0268  0.0537
 3257W        W 6776   9.516   3.170  11.605  0.1273 -0.1320 -0.0337
 3258W        W 6777   2.057   3.558   7.361 -0.0186  0.2511 -0.1022
 3259W        W 6778   8.730   7.240  10.675  0.1480  0.1448  0.0212
 3260W        W 6779   9.283   4.025   9.660  0.3097  0.2275  0.0816
 3261W        W 6780   0.868   1.735   9.716 -0.2391  0.1106  0.0234
 3262W        W 6781   6.297   8.943   0.720 -0.3078 -0.2619 -0.1674
 3263W        W 6782   4.895   6.514   9.779  0.0144 -0.0766  0.1430
 3264W        W 6783   0.285   8.045   2.005  0.1083 -0.1545 -0.0825
 3265W        W 6784   7.872   7.172   8.601  0.0965  0.2591  0.0234
 3266W        W 6785   1.021   4.479   8.418  0.1454  0.1765  0.2444
 3267W        W 6786   6.630   5.297  11.098  0.0229  0.0563 -0.1282
 3268W        W 6787   4.759   1.944   8.527 -0.1563 -0.1846 -0.0865
 3269W        W 6788   1.808   3.171   2.800 -0.1452  0.1069 -0.1032
 3270W        W 6789   0.449   4.478   0.501 -0.2874  0.3752 -0.2750
 3271W        W 6790   8.716   7.420   2.767  0.1034 -0.0246  0.2208
 3272W        W 6791   0.309   8.783  10.027  0.2051 -0.2069 -0.2170
 3273W        W 6792   8.544   0.045   1.300 -0.0166  0.3080  0.0855
 3274W        W 6793   2.557   3.493   0.074  0.0979  0.0190 -0.4234
 3275W        W 6794   9.092   1.533   1.218  0.1287 -0.0508 -0.1686
 3276W        W 6795   5.153   9.075   8.944 -0.1707 -0.0100 -0.1970
 3277W        W 6796   1.764   9.613   1.736 -0.1083 -0.1054 -0.1322
 3278W        W 6797   4.143   5.107   0.239 -0.0387  0.0596  0.2774
 3279W        W 6798   8.195   9.036   9.529 -0.0232 -0.0041 -0.0108
 3280W        W 6799   5.620   7.513   7.507 -0.4315  0.2282 -0.0550
 3281W        W 6800   5.296   7.043   2.327  0.1706  0.0550 -0.0928
 3282W        W 6801   2.448   6.038   7.308  0.0145 -0.3340 -0.3885
 3283W        W 6802   6.389   5.436   3.601  0.1527 -0.1781  0.2069
 3284W        W 6803   2.240   8.251   0.389 -0.1552  0.2870  0.1201
 3285W        W 6804   2.793   3.825  10.858  0.3397 -0.1443  0.0022
 3286W        W 6805   1.981   9.429   3.024 -0.0976  0.1139 -0.1570
 3287W        W 6806   4.539   6.605   2.083  0.1250  0.2666 -0.2888
 3288W        W 6807   2.348   3.633   1.013 -0.2470  0.2700  0.1601
 3289W        W 6808   7.975   7.187   3.189 -0.0161  0.0254  0.2514
 3290W        W 6809  10.071   1.328   9.339  0.0326  0.1278  0.1712
 3291W        W 6810   9.879   2.995   3.148  0.0523  0.0147 -0.2116
 3292W        W 6811   6.472   7.052   9.157  0.0773  0.1871  0.1258
 3293W        W 6812   2.056   4.795   3.074 -0.4078  0.0933  0.0224
 3294W        W 6813   2.319   9.355   9.161  0.0314  0.2421  0.0515
 3295W        W 6814   8.283   5.596   0.972 -0.0994  0.2440  0.0907
 3296W        W 6815   2.647   6.174   9.382  0.1638 -0.0640 -0.3353
 3297W        W 6816   3.914   6.146   2.951 -0.1722 -0.2860  0.3162
 3298W        W 6817   9.312   7.899  11.532 -0.0055 -0.1835  0.1352
 3299W        W 6818   5.779   4.977   8.280  0.2805  0.3801 -0.2235
 3300W        W 6819   5.107   2.977   8.913 -0.0921  0.1693  0.3727
 3301W        W 6820   5.687   3.322   1.534 -0.5331 -0.2752  0.1644
 3302W        W 6821   5.149   8.200   0.093  0.1014 -0.1852 -0.0755
 3303W        W 6822   7.396   0.043   2.055  0.0727 -0.0271 -0.0851
 3304W        W 6823   8.344   8.641  10.695  0.0729  0.0437 -0.1037
 3305W        W 6824   1.407   8.413   8.809 -0.2596  0.0822  0.0166
 3306W        W 6825   7.021   1.412   0.423  0.0314 -0.5177 -0.1635
 3307W        W 6826   4.305   1.723   9.725 -0.0435 -0.1522 -0.0714
 3308W        W 6827   5.419  10.005   0.758 -0.0730  0.0667 -0.1584
 3309W        W 6828   9.046   9.599  10.674  0.1085  0.0796  0.1876
 3310W        W 6829   0.473   2.224   1.566 -0.2750  0.0590 -0.0099
 3311W        W 6830   4.585   4.072   1.241 -0.0698  0.2266  0.0919
 3312W        W 6831   2.633   7.418   1.357 -0.2365  0.0886  0.2120
 3313W        W 6832   6.940   0.177   1.874  0.3322  0.1270  0.1081
 3314W        W 6833   3.251   6.205   0.251  0.0175 -0.0536  0.3157
 3315W        W 6834   9.704   7.189   9.347 -0.0296  0.2056 -0.0401
 3316W        W 6835   7.503   9.353   8.345 -0.1381 -0.1837 -0.0683
 3317W        W 6836   0.850   4.541   8.942 -0.6113  0.2773  0.0807
 3318W        W 6837   2.071   9.919   3.077 -0.2392 -0.0320  0.3361
 3319W        W 6838   6.485   0.350  10.279  0.2597  0.0477  0.0448
 3320W        W 6839   3.044   7.448   3.581  0.1980 -0.1809  0.2710
 3321W        W 6840   7.845   0.374   9.141 -0.2392 -0.1602  0.3599
 3322W        W 6841   0.898   7.395   8.272 -0.0163 -0.3520  0.2554
 3323W        W 6842   1.089   9.212   3.830 -0.0236 -0.0161 -0.3229
 3324W        W 6843   9.527   0.034   8.019  0.0043  0.2192 -0.3463
 3325W        W 6844   4.553   6.425  11.505 -0.0870  0.0347 -0.1534
 3326W        W 6845   5.629   8.413   0.283  0.0451 -0.2623 -0.3110
 3327W        W 6846   3.784   1.750   3.087  0.2296  0.0242 -0.1140
 3328W        W 6847   1.323   9.271   2.599  0.0106  0.0909  0.1010
 3329W        W 6848   7.230   7.652   2.504 -0.3133  0.0571  0.1673
 3330W        W 6849   3.181   8.258   8.586  0.0125 -0.2750 -0.0674
 3331W        W 6850   2.198   4.542   0.324  0.0633 -0.1569  0.2079
 3332W        W 6851   8.045  10.065   8.338 -0.2077 -0.3321  0.1281
 3333W        W 6852   9.019   6.841   7.971 -0.1206  0.2685  0.0131
 3334W        W 6853   0.368   5.945   1.276  0.2202  0.0823 -0.1519
 3335W        W 6854   6.693   8.717   2.809  0.0733 -0.2131  0.1771
 3336W        W 6855   3.699   7.761  11.188  0.0748 -0.0574  0.1069
 3337W        W 6856   0.614   4.361   1.628  0.1557  0.4445  0.1700
 3338W        W 6857   7.003   3.395   0.861 -0.3420 -0.0580  0.1246
 3339W        W 6858   8.065   7.347   0.897  0.0379 -0.1886 -0.0145
 3340W        W 6859   5.987   2.952   0.232 -0.3745 -0.1689 -0.0601
 3341W        W 6860   1.906   3.717  10.844  0.1998 -0.2509  0.2377
 3342W        W 6861   2.088   8.702   7.919  0.2142 -0.0195  0.0386
 3343W        W 6862   9.736   6.411   8.701 -0.1147  0.2721 -0.1614
 3344W        W 6863   8.230   2.246   0.614 -0.1068 -0.0299 -0.0519
 3345W        W 6864   4.197   5.262   9.892 -0.0386 -0.5179  0.1631
 3346W        W 6865   8.054   5.212  11.224 -0.1316  0.1268  0.1666
 3347W        W 6866   6.279   4.124   0.245 -0.3141 -0.0536  0.0230
 3348W        W 6867   4.366   3.828  11.379 -0.3526  0.3892 -0.1468
 3349W        W 6868   3.588   8.582   2.712 -0.1565  0.3754 -0.2337
 3350W        W 6869   6.026   4.217   9.958 -0.0353  0.0677  0.0034
 3351W        W 6870   9.540   0.463   6.008  0.3928 -0.0180 -0.0264
 3352W        W 6871   1.668   5.180   1.039  0.0296  0.3475  0.4067
 3353W        W 6872   6.462   5.706   4.081 -0.3696  0.1508  0.2536
 3354W        W 6873   5.431   6.813   9.308  0.1974  0.1876  0.0736
 3355W        W 6874   3.275   2.505   7.717 -0.0505  0.2747 -0.3389
 3356W        W 6875   8.774   3.899   0.289 -0.2387 -0.1196 -0.0975
 3357W        W 6876   2.474   1.417   8.220  0.1757  0.0121  0.1130
 3358W        W 6877   7.584   3.647  10.745 -0.3041 -0.0112  0.0710
 3359W        W 6878   3.361   2.052  10.943  0.2677  0.0055 -0.3364
 3360W        W 6879   9.575  10.004   1.877 -0.0424 -0.0282 -0.4287
 3361W        W 6880   0.107   6.390   0.167  0.0872  0.0690  0.1802
 3362W        W 6881   5.295   0.455   7.681  0.1025  0.0534  0.1277
 3363W        W 6882   7.972   5.521  11.581  0.0876 -0.1534 -0.0189
 3364W        W 6883   5.924   3.165   9.657 -0.0720 -0.2453  0.1285
 3365W        W 6884   7.233   9.974   3.006 -0.0302 -0.0321  0.0758
 3366W        W 6885   2.853   6.592  11.036 -0.2732  0.0215 -0.1027
 3367W        W 6886   4.751   0.553   8.889  0.2992  0.0187 -0.2820
 3368W        W 6887   0.262   1.177   1.055  0.2353  0.2846  0.1266
 3369W        W 6888   6.847   4.635   3.041  0.3642 -0.0986  0.0370
 3370W        W 6889   0.280   7.472  10.616 -0.0242 -0.1380  0.1331
 3371W        W 6890   7.284   2.158   1.381  0.0761  0.1942  0.1066
 3372W        W 6891   6.344   0.736   0.037 -0.1789  0.2066 -0.1578
 3373W        W 6892   8.480   4.463   9.010  0.0782  0.0481  0.1850
 3374W        W 6893   9.692   0.507   8.145 -0.1717 -0.0931  0.1770
 3375W        W 6894   2.976   1.889   1.685 -0.1630  0.1806  0.2538
 3376W        W 6895   7.592   1.108   2.726  0.1624  0.1156 -0.3806
 3377W        W 6896   7.088   3.787   2.134  0.2466  0.6068 -0.1656
 3378W        W 6897   9.002   1.265   1.751 -0.2515 -0.2952  0.0988
 3379W        W 6898   7.304   6.681   9.608 -0.1301  0.0542  0.1056
 3380W        W 6899   9.715   1.519  10.243  0.0272  0.1753  0.0080
 3381W        W 6900   8.655   5.486   3.063 -0.1272 -0.0483 -0.1436
 3382W        W 6901   5.311   3.796   9.613 -0.2847  0.1686  0.0878
 3383W        W 6902   8.046   6.390   8.944  0.3708  0.1550 -0.2047
 3384W        W 6903   1.562   1.812   8.194 -0.0353  0.1978 -0.0649
 3385W        W 6904   0.508   9.059   2.162 -0.0009  0.2510 -0.2990
 3386W        W 6905   3.241   9.070   9.354  0.0256  0.0446  0.1330
 3387W        W 6906   3.402   1.812   9.127 -0.1290 -0.0077 -0.5265
 3388W        W 6907   1.653   3.144   9.466  0.1384 -0.4344  0.0097
 3389W        W 6908   9.611   1.006   2.503 -0.1024 -0.2536  0.1115
 3390W        W 6909   0.651   3.115   1.805  0.3011 -0.3135  0.2137
 3391W        W 6910   8.245   3.713   3.763  0.2930 -0.0141  0.0107
 3392W        W 6911   2.061   8.842  10.137 -0.1549  0.0555  0.2119
 3393W        W 6912   3.727   5.793  11.099  0.5155 -0.0262 -0.0069
 3394W        W 6913   6.267   9.046   9.935  0.1742 -0.2418  0.2396
 3395W        W 6914   2.253   5.694   8.922 -0.4383  0.1347  0.1276
 3396W        W 6915   4.564   0.972   0.370  0.0001 -0.0491 -0.2470
 3397W        W 6916   5.910   6.212  10.919 -0.4492 -0.1017  0.1293
 3398W        W 6917   3.527   0.359  11.327 -0.1825 -0.2254 -0.2622
 3399W        W 6918   9.514   7.133   1.120 -0.1151  0.0862  0.2214
 3400W        W 6919   7.254   9.943   9.859 -0.0928 -0.3257  0.0162
 3401W        W 6920   3.027   0.279   9.354 -0.0539 -0.2286  0.0654
 3402W        W 6921   5.473   0.130   8.910 -0.0337  0.2396  0.2260
 3403W        W 6922   7.843   1.589  11.037 -0.0915  0.1228  0.0573
 3404W        W 6923   7.380   9.230   9.221 -0.1957 -0.2081 -0.2381
 3405W        W 6924   8.976   4.966  11.123  0.1609  0.1455  0.4645
 3406W        W 6925   1.125   5.925   3.082  0.2017  0.0859 -0.4191
 3407W        W 6926   6.212   1.695   7.370  0.0289  0.0897  0.2872
 3408W        W 6927   2.359   8.808  11.165 -0.1957  0.2850  0.0411
 3409W        W 6928   3.825   5.553   0.057 -0.0496  0.1016 -0.2417
 3410W        W 6929   3.677   1.608   1.691 -0.1276 -0.1021 -0.1726
 3411W        W 6930   2.360   0.496   3.784  0.0391  0.0314 -0.1236
 3412W        W 6931   6.594   1.460   1.741  0.0929  0.1183  0.0663
 3413W        W 6932   9.729   5.745   1.998 -0.3609 -0.2486  0.3509
 3414W        W 6933   1.116   9.016  10.723  0.1287 -0.3196  0.2207
 3415W        W 6934   6.267   4.651   2.586 -0.1910  0.1541  0.0442
 3416W        W 6935   6.368   3.592   8.693 -0.1062 -0.0750 -0.0138
 3417W        W 6936   1.345   7.415   9.618  0.0654 -0.2599 -0.0158
 3418W        W 6937   3.544   1.208   8.533  0.2445 -0.2975 -0.0031
 3419W        W 6938   3.416   7.016  10.846  0.2340 -0.0405 -0.1136
 3420W        W 6939   8.960  10.083   8.467 -0.1567  0.1389 -0.0032
 3421W        W 6940   6.211   1.123  10.326  0.2487  0.0533 -0.0039
 3422W        W 6941   0.418   8.514  11.410 -0.1001 -0.1072 -0.2707
 3423W        W 6942   1.640   3.034  11.604 -0.2212  0.1288  0.0516
 3424W        W 6943   7.474   2.725   9.661 -0.0299 -0.0454 -0.1278
 3425W        W 6944   4.982   1.701   2.061 -0.1074 -0.0331 -0.1352
 3426W        W 6945   4.290   7.481  10.989 -0.1698  0.0605  0.0991
 3427W        W 6946   1.665   4.141  10.873 -0.0386  0.0586  0.1105
 3428W        W 6947   3.572   1.756   9.684 -0.0154  0.0632 -0.0070
 3429W        W 6948   2.607   3.461   4.079  0.1086  0.3018 -0.3740
 3430W        W 6949   1.821   8.552   0.339 -0.0880 -0.0279  0.0666
 3431W        W 6950   5.478   6.312   8.519  0.0695 -0.2245  0.1262
 3432W        W 6951   7.673   4.106   9.533 -0.2025 -0.1086  0.3472
 3433W        W 6952   6.468   4.913   9.537  0.0491  0.0921  0.1485
 3434W        W 6953   2.444   3.739   2.376 -0.0036  0.0762  0.0022
 3435W        W 6954   8.661   7.468   0.876 -0.1389 -0.3746  0.4796
 3436W        W 6955   4.200   0.532   0.333 -0.0890 -0.0379  0.4261
 3437W        W 6956   5.144   6.503   2.748 -0.4962  0.2675  0.1965
 3438W        W 6957   7.410   0.528   8.922 -0.1578 -0.1311  0.2199
 3439W        W 6958   1.797   5.805   1.809 -0.2001  0.0654  0.1431
 3440W        W 6959   3.588   1.365   9.959  0.0610  0.1432  0.0037
 3441W        W 6960   2.568   4.625   9.618 -0.1513 -0.2194 -0.1323
 3442W        W 6961   7.275   0.385   9.928 -0.0926  0.2681 -0.1316
 3443W        W 6962   8.579   5.696   0.261  0.0823  0.1309 -0.2565
 3444W        W 6963   2.349   4.572  10.772  0.3385  0.1408  0.1813
 3445W        W 6964   8.472   6.454   3.772 -0.0632 -0.0608 -0.0513
 3446W        W 6965   2.873   5.065   0.683  0.0627  0.0117  0.0399
 3447W        W 6966   1.814   0.684   0.389 -0.0678 -0.0718  0.2002
 3448W        W 6967   4.054   9.870   7.359  0.2037  0.4849  0.2625
 3449W        W 6968   6.880   5.516   2.796 -0.1364 -0.2907 -0.0066
 3450W        W 6969   0.293   6.169   9.030  0.1187  0.2076  0.1199
 3451W        W 6970   1.850   9.208   2.533 -0.0633 -0.1775 -0.1254
 3452W        W 6971   0.095   6.596   9.716  0.0182 -0.0300  0.1634
 3453W        W 6972   4.888   3.752   8.415  0.0683 -0.1327 -0.0572
 3454W        W 6973   7.439   0.607   8.433 -0.0081  0.0653 -0.0526
 3455W        W 6974   3.037   8.807  10.183 -0.0804 -0.5220 -0.0205
 3456W        W 6975   2.006   0.518   7.881 -0.0825  0.2402  0.0230
 3457W        W 6976   6.570   3.854  11.527  0.0094  0.1246  0.1727
 3458W        W 6977   8.722   8.247   3.220 -0.1899  0.3918 -0.0605
 3459W        W 6978   5.574   4.245   9.656  0.4116 -0.0698 -0.3353
 3460W        W 6979   3.848   4.235   7.413  0.3255 -0.0669  0.1421
 3461W        W 6980   0.982   6.878   9.039  0.1866 -0.0841  0.1118
 3462W        W 6981   2.668   6.972   0.176 -0.1211  0.0959  0.1494
 3463W        W 6982   7.507   9.871   1.438  0.1728 -0.2938 -0.4095
 3464W        W 6983   7.748   6.803   9.041 -0.0588 -0.2169 -0.1524
 3465W        W 6984   6.749  10.037   2.850  0.0832 -0.0096 -0.0331
 3466W        W 6985   9.809   5.778   9.591  0.0533 -0.2017  0.2531
 3467W        W 6986   6.310   4.753   8.664  0.0703  0.1601  0.2809
 3468W        W 6987   1.466   0.109  10.083 -0.1127 -0.0742  0.3073
 3469W        W 6988   8.782   3.776   9.420  0.2007  0.2973 -0.3993
 3470W        W 6989   9.191   0.408   3.144  0.1158 -0.0009  0.2154
 3471W        W 6990   2.575   2.749  11.071 -0.1097  0.2675 -0.0771
 3472W        W 6991   3.228   3.986  11.122 -0.1078 -0.0208  0.1056
 3473W        W 6992   7.345   4.623  10.883  0.1036  0.3013 -0.2564
 3474W        W 6993   8.251   0.889   3.928  0.0135 -0.0575 -0.0769
 3475W        W 6994   7.486   5.109   1.957  0.0316 -0.0974 -0.0468
 3476W        W 6995   5.275   1.919  10.730 -0.3600 -0.3072 -0.2394
 3477W        W 6996   0.294   2.562   0.186  0.2137  0.3350  0.1402
 3478W        W 6997   7.416   6.181  11.155  0.1309 -0.2022  0.1253
 3479W        W 6998   3.173   7.136   3.145  0.2444  0.2424 -0.0549
 3480W        W 6999   5.328   1.993  11.537  0.1044  0.1167  0.0569
 3481W        W 7000   1.010   4.277   2.548  0.0249  0.1508  0.0745
 3482W        W 7001   0.231   3.940   4.205  0.2161 -0.3830 -0.1335
 3483W        W 7002   2.743   2.600   9.095  0.2269 -0.2472 -0.2367
 3484W        W 7003   1.517   8.945   8.743  0.2124  0.0141 -0.0484
 3485W        W 7004   7.659   7.816   0.522  0.0036  0.0678  0.1895
 3486W        W 7005   7.547   8.652   8.055 -0.2479 -0.2598  0.1547
 3487W        W 7006   8.871   1.032   3.956  0.0598  0.2110 -0.0757
 3488W        W 7007   2.493   0.988  10.829 -0.4521  0.0106 -0.3816
 3489W        W 7008   6.464   7.557   9.064  0.2494 -0.1564 -0.0574
 3490W        W 7009   1.644   0.598   0.906 -0.0356 -0.3968  0.0862
 3491W        W 7010   9.192   1.738   2.746  0.2981  0.5448  0.2949
 3492W        W 7011   2.684   0.500   9.737  0.0089 -0.3212  0.1971
 3493W        W 7012   0.040   0.973   1.442  0.0760 -0.2898  0.1508
 3494W        W 7013   5.241   1.526  10.493  0.3774  0.1277 -0.1277
 3495W        W 7014   2.805   6.628   1.433  0.0296  0.1430 -0.0629
 3496W        W 7015   0.885   1.641   0.236 -0.3239  0.0078  0.2238
 3497W        W 7016   5.765   0.230   0.555  0.3577 -0.0584  0.0618
 3498W        W 7017   5.416   1.322   9.037  0.0438 -0.0432 -0.3247
 3499W        W 7018   6.737   8.374   8.467  0.2060  0.0539 -0.0449
 3500W        W 7019   0.655   6.567   2.291 -0.0193  0.0165  0.2014
 3501W        W 7020   5.248   5.339   3.328  0.2731  0.1135 -0.0022
 3502W        W 7021   3.938   9.352   2.089  0.0741 -0.1662 -0.0683
 3503W        W 7022   9.422   9.221  10.644  0.1361 -0.2181  0.1536
 3504W        W 7023   0.221   1.336   8.465 -0.0880 -0.0307 -0.1359
 3505W        W 7024   4.255   9.630   8.650  0.0431  0.0149 -0.0546
 3506W        W 7025   4.387   0.141   0.542  0.1326 -0.2123  0.3567
 3507W        W 7026   0.629   2.602   3.071 -0.1620 -0.1353 -0.0061
 3508W        W 7027   4.541   5.177   7.426 -0.1371 -0.1590  0.1646
 3509W        W 7028   6.603   8.503   9.987 -0.1027 -0.0599 -0.1422
 3510W        W 7029   3.640   1.782   7.231 -0.2445  0.2086  0.0588
 3511W        W 7030   2.935   9.082   8.516 -0.0256  0.3867  0.0290
 3512W        W 7031   6.098   3.024   8.274 -0.1196  0.1291 -0.0944
 3513W        W 7032   2.152   4.836   1.779  0.1788 -0.2725 -0.2161
 3514W        W 7033   2.603   6.108   1.586 -0.1003 -0.0847 -0.0457
 3515W        W 7034   7.134   0.935   8.191  0.0232 -0.2233  0.2373
 3516W        W 7035   5.239   7.313  10.527 -0.2198 -0.2846  0.2633
 3517W        W 7036   2.108   5.551  10.227 -0.0250  0.0940  0.2045
 3518W        W 7037   5.338   4.756   2.884  0.0744 -0.1413  0.3553
 3519W        W 7038   4.664   3.546   3.351  0.2745 -0.1182 -0.1984
 3520W        W 7039   8.834   8.817   0.242  0.2680  0.0950  0.4091
 3521W        W 7040   9.902   0.122   2.257  0.0721  0.2020  0.0228
 3522W        W 7041   1.957   8.159   8.268 -0.3598 -0.0292  0.0757
 3523W        W 7042   4.505   1.408   2.613 -0.2515  0.1702  0.0452
 3524W        W 7043   0.776   2.667   0.335  0.2014  0.1049  0.0221
 3525W        W 7044   5.784   8.798   1.193  0.1697 -0.0527  0.3484
 3526W        W 7045   3.948   1.797   8.478  0.1509 -0.2409  0.0752
 3527W        W 7046   3.779   0.657   1.790 -0.0052  0.0742  0.1227
 3528W        W 7047   1.808   6.586  10.052  0.3492 -0.0068 -0.1351
 3529W        W 7048   3.806   2.903   8.649  0.3030 -0.4380  0.2014
 3530W        W 7049   1.912   8.724   1.742 -0.0617  0.0090 -0.0694
 3531W        W 7050   1.808   9.692   8.153 -0.0916  0.2657 -0.0907
 3532W        W 7051   4.855   8.786   9.911 -0.3050  0.1299 -0.4167
 3533W        W 7052   9.596   3.864   8.790 -0.1111 -0.1743  0.0795
 3534W        W 7053   3.842   2.024   2.520  0.0607  0.0259  0.0021
 3535W        W 7054   5.239   7.295   3.292  0.1687  0.1045  0.0139
 3536W        W 7055   5.377   0.642   8.130  0.1384 -0.0746 -0.1469
 3537W        W 7056   6.599   9.503  11.249  0.3618  0.0533 -0.0387
 3538W        W 7057   5.933   9.239   0.967  0.2804 -0.1185 -0.0792
 3539W        W 7058   7.363   2.491   9.260  0.0622 -0.0466  0.4623
 3540W        W 7059   3.422   7.747  10.007  0.4909 -0.1764  0.0554
 3541W        W 7060   7.369   4.357  10.441  0.3497  0.2037  0.0659
 3542W        W 7061   2.543   5.236   8.931 -0.2149 -0.2590 -0.1635
 3543W        W 7062   1.768   1.470  10.025 -0.1875 -0.1468 -0.1566
 3544W        W 7063   4.849   9.150   0.055  0.1076 -0.0862  0.0705
 3545W        W 7064   9.203   7.344   9.867  0.0045 -0.0104  0.2256
 3546W        W 7065   1.435   0.950   0.232 -0.1125 -0.2575 -0.0539
 3547W        W 7066   5.259   6.604   8.850  0.0419 -0.1479  0.0980
 3548W        W 7067   8.192   8.436   0.072  0.3634  0.0884 -0.0444
 3549W        W 7068   5.677   7.246  11.203 -0.2671  0.2139 -0.1336
 3550W        W 7069   6.314   4.924   3.082  0.0578 -0.2376  0.3214
 3551W        W 7070   3.059   7.685   1.281  0.1044 -0.2403 -0.2141
 3552W        W 7071   9.391   4.128   1.961 -0.2789  0.0652  0.0278
 3553W        W 7072   9.839   6.951  11.347  0.1594 -0.0683  0.0298
 3554W        W 7073   2.357   3.208   2.338 -0.1493  0.2649  0.5115
 3555W        W 7074   4.916   2.272   9.892  0.0612  0.2888  0.1149
 3556W        W 7075   0.735   2.274   8.095 -0.0553  0.1944 -0.1408
 3557W        W 7076   9.789   5.982  11.602  0.0037 -0.3146  0.0897
 3558W        W 7077   5.102   4.087   1.165 -0.0326  0.1088  0.3914
 3559W        W 7078   1.600   2.188   2.368  0.0176  0.3535 -0.0676
 3560W        W 7079   8.607   9.479   1.981 -0.4128  0.0518 -0.1724
 3561W        W 7080   7.419   2.211   8.304  0.1091 -0.1833  0.0506
 3562W        W 7081   4.832   1.258   0.986 -0.4595 -0.0748 -0.0713
 3563W        W 7082   7.817   0.470   3.768 -0.0727  0.3553 -0.1648
 3564W        W 7083   8.959   7.488   2.125  0.0938 -0.2741 -0.3946
 3565W        W 7084   4.979   5.886  11.021 -0.0840 -0.1081 -0.0262
 3566W        W 7085   5.578   3.877  11.592  0.0695  0.2741 -0.2821
 3567W        W 7086   9.639   0.982   9.683 -0.2134  0.3258 -0.1010
 3568W        W 7087   5.522   9.716   8.043  0.3728 -0.0263  0.4298
 3569W        W 7088   9.859   4.312   8.876  0.0359 -0.1291 -0.0449
 3570W        W 7089   4.572   2.071   1.770  0.0704  0.2752 -0.0329
 3571W        W 7090   2.359   8.282   9.532  0.0875 -0.1789  0.2397
 3572W        W 7091   4.746   9.454   7.725  0.1508  0.0237 -0.3445
 3573W        W 7092   9.401   3.254   0.979  0.1757  0.2082 -0.0794
 3574W        W 7093   6.662   5.624  10.001 -0.1085  0.1586  0.2494
 3575W        W 7094   3.376   2.690  10.218 -0.0984 -0.1684 -0.2518
 3576W        W 7095   6.108   6.164   1.068  0.1191 -0.3532  0.4464
 3577W        W 7096   6.892   8.755   8.844 -0.3239 -0.0238  0.2270
 3578W        W 7097   9.006   6.675   1.740 -0.0588  0.0667 -0.0266
 3579W        W 7098   0.030   8.062  10.523 -0.0074  0.4780  0.1791
 3580W        W 7099   6.008   7.416   8.766  0.0708  0.0250  0.1884
 3581W        W 7100   2.054   3.215   9.213 -0.1114 -0.0649 -0.0278
 3582W        W 7101   7.324   6.934  10.876 -0.0480 -0.0680 -0.0937
 3583W        W 7102   0.972   4.104  11.547 -0.1922  0.0416  0.0525
 3584W        W 7103   4.138   4.153   1.831 -0.0862  0.0535  0.3847
 3585W        W 7104   4.642   3.161   2.927  0.2846 -0.0761 -0.3079
 3586W        W 7105   3.746   0.013   0.102  0.1672  0.1479  0.2921
 3587W        W 7106   6.564   7.365  11.394  0.0395  0.2955 -0.2620
 3588W        W 7107   4.606   4.961   1.462  0.1056 -0.1430  0.4127
 3589W        W 7108   0.769   3.986   3.295 -0.1895  0.0332 -0.0831
 3590W        W 7109   6.195   8.501   8.169  0.0180  0.1565 -0.1292
 3591W        W 7110   1.063   4.890   9.844 -0.4302 -0.1353  0.0107
 3592W        W 7111   7.304   4.381   8.606  0.0465 -0.0628  0.0699
 3593W        W 7112   4.979   5.153   1.799 -0.0807 -0.0051 -0.2550
 3594W        W 7113   6.021   4.355   3.224 -0.1915  0.2449  0.2874
 3595W        W 7114   4.575   1.730   3.474  0.2038 -0.1945  0.2329
 3596W        W 7115   0.168   3.986   8.876 -0.0416 -0.3926  0.0918
 3597W        W 7116   0.162   4.760  11.177 -0.1513  0.0271 -0.0500
 3598W        W 7117   9.070   6.301   2.471  0.1534  0.0096 -0.1988
 3599W        W 7118   7.516   8.693  10.094 -0.2566  0.2624 -0.1871
 3600W        W 7119   4.680   7.210  10.700  0.0570  0.0245  0.1605
 3601W        W 7120   2.180   8.577  11.576  0.2374  0.1392 -0.1231
 3602W        W 7121   3.596   5.375   9.159 -0.1372 -0.0323  0.1900
 3603W        W 7122   0.586   8.220   9.187 -0.0047 -0.2572 -0.2087
 3604W        W 7123   0.657   9.335   1.373  0.2822  0.0336 -0.1972
 3605W        W 7124   4.277   0.216   9.211 -0.2558  0.3100  0.0201
 3606W        W 7125   1.360   0.365   9.310  0.3632  0.1603 -0.0369
 3607W        W 7126   9.612   9.230   2.422 -0.1925 -0.0614  0.0054
 3608W        W 7127   6.883   9.342  10.420  0.0560 -0.4312 -0.1789
 3609W        W 7128   8.663   4.684   1.984 -0.2873  0.2958  0.1532
 3610W        W 7129   5.366   2.079   0.447  0.1584  0.1746 -0.0418
 3611W        W 7130   0.014   7.425   8.244 -0.3258 -0.0965  0.2501
 3612W        W 7131   3.856   3.045  10.503  0.1096 -0.0431  0.1322
 3613W        W 7132   3.663   5.436   7.256  0.1377 -0.3146 -0.3096
 3614W        W 7133   9.320   6.146   8.862  0.0138  0.0457  0.0051
 3615W        W 7134   5.088   3.633  10.088  0.1843 -0.2122  0.1205
 3616W        W 7135   9.566  10.020  11.131  0.3907 -0.0977  0.0531
 3617W        W 7136   0.506   7.296   1.372 -0.0803  0.0138 -0.0464
 3618W        W 7137   4.038   3.702   9.238 -0.2987 -0.0277  0.1029
 3619W        W 7138   7.794   3.752   2.685 -0.0028  0.0527  0.2236
 3620W        W 7139   6.859   9.709   0.131 -0.1537  0.0957 -0.0891
 3621W        W 7140   0.096   6.570   0.669  0.3196 -0.0282 -0.1848
 3622W        W 7141   4.884   6.822  11.513 -0.0492  0.1267  0.0429
 3623W        W 7142   2.661   5.485  10.020 -0.2250  0.0731 -0.1391
 3624W        W 7143   4.336   5.691   0.980  0.1695  0.0335 -0.1301
 3625W        W 7144   5.413   5.650   3.772 -0.2095  0.3533  0.0593
 3626W        W 7145   2.210   6.699   0.236 -0.3953 -0.0823 -0.1675
 3627W        W 7146   7.643   6.830   3.178 -0.1437  0.3437 -0.2084
 3628W        W 7147   5.507   5.112  10.919 -0.2099  0.1830  0.1195
 3629W        W 7148   0.325   2.562  10.075  0.0421 -0.0125  0.4087
 3630W        W 7149   7.125   3.106   9.591  0.0149 -0.1836 -0.2510
 3631W        W 7150   5.019   9.659   8.101  0.0016 -0.0271 -0.0059
 3632W        W 7151   9.809   5.463  10.107 -0.2345  0.4590 -0.3240
 3633W        W 7152   2.851   9.759   2.710  0.0146 -0.3853  0.1960
 3634W        W 7153   9.473   3.938  11.011 -0.1857 -0.1926 -0.1446
 3635W        W 7154   1.043   9.718   8.700  0.2700  0.3284  0.1510
 3636W        W 7155   9.744  10.071  10.550 -0.1443  0.0178  0.0441
 3637W        W 7156   3.388   6.135   3.153 -0.2353 -0.0177  0.0642
 3638W        W 7157   3.417   7.500   0.392 -0.0863  0.1848 -0.3634
 3639W        W 7158   1.964   3.145  10.345  0.1560  0.1487  0.0758
 3640W        W 7159   0.834   3.401   0.808 -0.1677  0.2556 -0.1523
 3641W        W 7160   4.143   2.896   1.694 -0.0485 -0.1291 -0.4116
 3642W        W 7161   9.250   9.327  11.136 -0.0992 -0.0507 -0.0563
 3643W        W 7162   1.918   1.537   0.853 -0.0925 -0.1131 -0.0741
 3644W        W 7163   7.683   8.165  10.028 -0.0150 -0.3379  0.3684
 3645W        W 7164   1.505   8.592   1.150 -0.1543 -0.2244  0.1339
 3646W        W 7165   8.640   7.407   1.373 -0.4527 -0.2429 -0.2918
 3647W        W 7166   2.628   7.407  11.489 -0.2781 -0.0269 -0.0011
 3648W        W 7167   3.985   8.262   7.857 -0.0828  0.0172  0.0502
 3649W        W 7168   0.155   8.343  10.056  0.1656 -0.2054  0.1810
 3650W        W 7169   8.216   0.643   9.657  0.1757  0.1636 -0.0478
 3651W        W 7170   6.824   5.076   9.910  0.2264 -0.1822  0.1128
 3652W        W 7171   5.283   0.781   0.960 -0.2054  0.1279  0.1220
 3653W        W 7172   4.418   1.164   8.222  0.1271 -0.1924  0.3153
 3654W        W 7173   8.640   2.596  10.672 -0.1165 -0.3376  0.0128
 3655W        W 7174   6.681   7.901  10.252 -0.0364 -0.1121 -0.3127
 3656W        W 7175   8.042   1.625   7.712 -0.3059 -0.2251 -0.1118
 3657W        W 7176   8.254   2.775   3.425 -0.1939  0.2735  0.0309
 3658W        W 7177   0.115   9.419   0.322  0.1340 -0.0481 -0.1413
 3659W        W 7178   8.703   3.324   2.797 -0.0209 -0.3296 -0.0617
 3660W        W 7179   6.283   3.818  10.944 -0.0544  0.1605 -0.2942
 3661W        W 7180   1.385   2.888   1.567 -0.0792  0.1546 -0.2690
 3662W        W 7181   4.851   2.717   9.679  0.1997  0.1170  0.3295
 3663W        W 7182   6.840   6.050   9.069 -0.2777  0.4234  0.2973
 3664W        W 7183   1.683   5.773   2.652  0.2417 -0.2007 -0.2695
 3665W        W 7184  10.049   6.811  10.427  0.1078  0.1809 -0.2761
 3666W        W 7185   3.231   0.526   1.501 -0.2449  0.2409 -0.3630
 3667W        W 7186   1.783   4.761   0.775 -0.2134  0.0255  0.2609
 3668W        W 7187   9.438   3.128  11.114  0.2630  0.1563 -0.1420
 3669W        W 7188   9.669   9.646   8.155  0.3019  0.1478  0.1360
 3670W        W 7189   7.741   4.336   2.990  0.0431 -0.0754 -0.0679
 3671W        W 7190   4.782   3.328   0.799 -0.3244 -0.1154 -0.1506
 3672W        W 7191   9.206   7.092   8.918 -0.2286  0.0670 -0.2096
 3673W        W 7192   7.424   7.269   2.253 -0.1232  0.0586 -0.3508
 3674W        W 7193   1.829   0.960   7.722  0.2791  0.1095  0.0962
 3675W        W 7194   8.156   4.333   4.150  0.1706  0.0082  0.4953
 3676W        W 7195   1.630   5.438  10.343  0.0556  0.1714  0.1328
 3677W        W 7196   0.130   1.620  10.625  0.0417 -0.0633  0.2927
 3678W        W 7197   1.885   8.062   9.865  0.1596  0.2447 -0.1020
 3679W        W 7198   5.542   0.582   1.456  0.0022  0.1033 -0.0090
 3680W        W 7199   2.538   8.764   1.087 -0.2031 -0.1227  0.0468
 3681W        W 7200   0.180   5.006   1.180  0.1697 -0.1959 -0.3109
 3682W        W 7201   7.329   7.985   1.885  0.0984 -0.0915 -0.1256
 3683W        W 7202   6.234   3.310  10.919  0.5238 -0.1490 -0.0781
 3684W        W 7203   7.157   5.859   9.480 -0.2761 -0.1349 -0.2965
 3685W        W 7204   3.114   6.018   8.663 -0.2011  0.1154  0.2084
 3686W        W 7205   7.574   0.335   8.063  0.2072  0.3634  0.0794
 3687W        W 7206   5.175   1.016   7.879 -0.0621 -0.0670 -0.2365
 3688W        W 7207   6.089   2.165   3.258 -0.0250 -0.0720 -0.1592
 3689W        W 7208   3.075   3.161   1.708  0.1126 -0.1161  0.1154
 3690W        W 7209   3.838   6.140   0.225  0.2139 -0.2148  0.1142
 3691W        W 7210   7.408   4.086   2.704  0.0324 -0.2108  0.2166
 3692W        W 7211   7.249   6.792   2.158  0.1626 -0.0715  0.5497
 3693W        W 7212   1.638   5.015   8.489  0.1333 -0.1293  0.2016
 3694W        W 7213   2.791   0.499   0.256  0.0323  0.1418 -0.3705
 3695W        W 7214   7.973   0.887   7.040 -0.1274 -0.1871  0.0350
 3696W        W 7215   9.849   5.495   3.516 -0.1160  0.0649  0.0205
 3697W        W 7216   3.649   9.676   0.387  0.0301 -0.0497  0.1389
 3698W        W 7217   7.400   7.960  10.857  0.4719  0.0492 -0.0200
 3699W        W 7218   4.898   8.760  11.203 -0.1105  0.1920 -0.2355
 3700W        W 7219   5.890   8.797   9.118  0.0309 -0.1845  0.0820
 3701W        W 7220   5.590   3.985   0.973  0.0754 -0.1819 -0.1264
 3702W        W 7221   3.213   5.685   3.241  0.0823  0.1480 -0.0702
 3703W        W 7222   7.225   3.568   9.387 -0.2836  0.1205 -0.1110
 3704W        W 7223   1.224   8.831   0.255  0.0720 -0.2593 -0.1551
 3705W        W 7224   6.360   8.760   1.364 -0.3053 -0.2509 -0.1119
 3706W        W 7225   2.380   0.745   3.064  0.0338  0.0710 -0.1566
 3707W        W 7226   7.013   0.720   6.851  0.1201  0.0807 -0.0701
 3708W        W 7227   0.039   2.167   8.835  0.1602  0.0199  0.3326
 3709W        W 7228   3.280   2.070   3.859 -0.0784 -0.1685 -0.0463
 3710W        W 7229   4.988   6.451   3.244  0.0271 -0.0271  0.1595
 3711W        W 7230   8.340   4.574  10.392  0.2720  0.0469  0.1789
 3712W        W 7231   8.659   4.487  11.224  0.0223 -0.0718 -0.1181
 3713W        W 7232   1.868   1.784   2.423 -0.2717  0.1403 -0.0807
 3714W        W 7233   0.440   6.747   8.329 -0.2669  0.1523  0.2774
 3715W        W 7234   6.647   8.998   1.693 -0.1782 -0.2803 -0.4011
 3716W        W 7235   6.616   6.929   8.268  0.2089  0.0658  0.3165
 3717W        W 7236   1.554   9.774  10.369  0.0498 -0.0217  0.0955
 3718W        W 7237   0.863   2.404  11.522  0.0432 -0.1232 -0.1771
 3719W        W 7238   9.527   9.653  10.801  0.1806 -0.0275 -0.0882
 3720W        W 7239   7.294   8.154  11.294 -0.0260  0.0347 -0.0101
 3721W        W 7240   5.202   2.768  11.551 -0.3334  0.0201 -0.2246
 3722W        W 7241   7.320   5.337  10.612 -0.3089 -0.1113  0.0673
 3723W        W 7242   0.280   3.486  11.066  0.0119  0.1807  0.1355
 3724W        W 7243   0.959   3.703   0.357 -0.1592 -0.0461 -0.3011
 3725W        W 7244   6.849   3.476   0.382 -0.1182 -0.2777 -0.1392
 3726W        W 7245   8.132   2.061   8.018  0.0053 -0.1246 -0.0997
 3727W        W 7246   0.369   3.780   2.054  0.2182 -0.0972 -0.1010
 3728W        W 7247   3.270   0.149  10.415  0.1600 -0.5031 -0.2300
 3729W        W 7248   2.890   6.984   2.493  0.0639  0.1266 -0.0509
 3730W        W 7249   4.737   0.109   0.126 -0.0062 -0.1769 -0.0893
 3731W        W 7250   7.335   9.530   7.046 -0.3406  0.0558 -0.1924
 3732W        W 7251   7.201   8.618   0.966 -0.1260 -0.1172 -0.0999
 3733W        W 7252  10.025   2.727   0.568  0.0229  0.3110 -0.3534
 3734W        W 7253   9.126   8.469   1.978  0.0703  0.1652 -0.1291
 3735W        W 7254   8.287   2.270   1.681  0.1162  0.3824  0.1208
 3736W        W 7255   9.953   8.438   0.439  0.2316  0.0946  0.0727
 3737W        W 7256   1.074   3.225   7.645 -0.1276 -0.1031 -0.3612
 3738W        W 7257   3.041   1.335   1.901 -0.0396 -0.1571  0.1677
 3739W        W 7258   0.395   3.980   8.280  0.1953  0.0330  0.1386
 3740W        W 7259   7.760   6.416   9.375  0.2532 -0.1438 -0.0992
 3741W        W 7260   6.178   8.489   0.968  0.0494  0.0159  0.0280
 3742W        W 7261   7.971   5.000   1.732  0.2809  0.1629  0.0138
 3743W        W 7262   6.499   2.082   8.390  0.2150 -0.1945 -0.0033
 3744W        W 7263   4.974   9.076   9.461 -0.0298  0.1622  0.0848
 3745W        W 7264   7.161   4.384   9.085  0.2149  0.0561  0.1660
 3746W        W 7265   5.592   6.224  10.087  0.1856  0.0035  0.0685
 3747W        W 7266   6.922   2.917   8.120 -0.0742  0.1223 -0.2212
 3748W        W 7267   6.243   5.731   1.883  0.0044  0.0814  0.0943
 3749W        W 7268   5.197   0.634   1.908  0.1632  0.0769  0.3727
 3750W        W 7269   3.205   1.562   7.863  0.0653 -0.1302 -0.3203
 3751W        W 7270   4.493   4.031   0.262 -0.3109 -0.3939  0.1366
 3752W        W 7271   8.129   6.437  10.837 -0.1753 -0.3857 -0.0141
 3753W        W 7272   1.025   9.592   2.834  0.1240 -0.1513  0.0395
 3754W        W 7273   5.990   9.351   3.191 -0.2859  0.1065  0.1026
 3755W        W 7274   3.551   5.315  10.735  0.2531  0.0999  0.2091
 3756W        W 7275   3.809   8.227   9.960 -0.1537 -0.1490 -0.1480
 3757W        W 7276   6.840   4.426  10.614 -0.1972  0.0351 -0.3332
 3758W        W 7277   7.504   9.192  11.551  0.0524 -0.1799  0.0668
 3759W        W 7278   4.181   2.690   0.638 -0.0912  0.0659 -0.1966
 3760W        W 7279   3.347   9.732   3.410 -0.0571 -0.0756  0.2237
 3761W        W 7280   5.579   5.212   2.904 -0.3095 -0.3315 -0.0948
 3762W        W 7281   9.042   0.767  11.049  0.0938 -0.2352 -0.3733
 3763W        W 7282   6.976   1.862   2.535 -0.0316  0.1407 -0.0487
 3764W        W 7283   5.708   2.735   2.978 -0.1420  0.1831 -0.1160
 3765W        W 7284   6.684   8.236   7.938 -0.1310  0.2173  0.0919
 3766W        W 7285   2.915   0.470   1.136  0.3516 -0.0438  0.0621
 3767W        W 7286   7.753   9.155   6.897  0.0179  0.0220 -0.0699
 3768W        W 7287   4.787   9.647   1.960  0.0704  0.3537  0.0458
 3769W        W 7288   4.850   2.955  10.531  0.2755 -0.0031  0.1424
 3770W        W 7289   2.246   2.475   1.685  0.0074  0.1342  0.0545
 3771W        W 7290   0.075   7.825  10.071 -0.0067  0.0275 -0.0883
 3772W        W 7291   5.465   3.361   8.934 -0.2005  0.0313  0.0057
 3773W        W 7292   4.832   9.570   3.585 -0.0737 -0.1797  0.2064
 3774W        W 7293   7.969   4.498   1.571  0.1936 -0.1471  0.0043
 3775W        W 7294   6.196   6.853   8.651  0.0548 -0.0072  0.3066
 3776W        W 7295   3.317   8.737   2.261 -0.0647 -0.1116  0.0111
 3777W        W 7296   2.597   0.488   2.023  0.1965  0.3489 -0.2992
 3778W        W 7297   7.161   3.979  10.742 -0.2450  0.2390  0.1275
 3779W        W 7298   6.429   0.165   2.033  0.0320  0.2195 -0.0406
 3780W        W 7299   0.780   5.733   2.755 -0.0288  0.1593  0.1174
 3781W        W 7300   7.438   1.819   0.280 -0.2112  0.1944 -0.3729
 3782W        W 7301   3.754   7.835   9.658 -0.2595  0.3751  0.0795
 3783W        W 7302   2.293   3.729   1.901 -0.4816  0.0572  0.0072
 3784W        W 7303   1.483   2.962   0.492  0.3003 -0.1496  0.1017
 3785W        W 7304   1.463   6.494   9.409  0.0299 -0.0234 -0.0413
 3786W        W 7305   7.085   0.035  10.828  0.1855  0.0376  0.0466
 3787W        W 7306   0.706   3.892   2.485  0.3236 -0.0391 -0.0100
 3788W        W 7307   0.484   8.513   9.662 -0.0301 -0.0221 -0.1901
 3789W        W 7308   5.376   6.825   1.045  0.1546  0.0739 -0.0809
 3790W        W 7309   2.786   8.540   8.618 -0.3101 -0.0528 -0.0792
 3791W        W 7310   3.285   8.834   8.358 -0.0632  0.0967 -0.0366
 3792W        W 7311   6.982   9.509   3.115  0.2257  0.1641 -0.3127
 3793W        W 7312   7.798   2.467   7.973  0.0359  0.0558 -0.0371
 3794W        W 7313   3.763   9.389  10.582 -0.0761  0.0544 -0.0399
 3795W        W 7314   8.633   9.562   4.165  0.2243  0.0647 -0.3222
 3796W        W 7315   4.519   9.374   0.337  0.2000  0.1371 -0.2135
 3797W        W 7316   2.757   1.036   9.559  0.2451 -0.2859 -0.0519
 3798W        W 7317  10.042   4.436   8.019 -0.1381 -0.2710 -0.0230
 3799W        W 7318   8.536   9.410   8.305 -0.3388 -0.0513 -0.2505
 3800W        W 7319   9.966   2.465   1.486  0.0169  0.0094  0.1691
 3801W        W 7320   3.111   2.635   7.269 -0.3341 -0.1875  0.4136
 3802W        W 7321   4.353   1.707   8.814 -0.2112  0.4270  0.3118
 3803W        W 7322   4.758   4.568  10.589  0.2339  0.0506 -0.0078
 3804W        W 7323   3.200   8.592   9.383 -0.0332 -0.2700 -0.2353
 3805W        W 7324   0.162   2.187  10.474  0.2776 -0.1896  0.0917
 3806W        W 7325   6.991   1.996   9.702  0.2746 -0.1087 -0.3299
 3807W        W 7326   3.961   8.429  10.404 -0.3241  0.1055  0.1181
 3808W        W 7327   2.908   4.846   3.278  0.0196 -0.0173  0.2070
 3809W        W 7328   7.617   9.405   8.828 -0.2045 -0.0001 -0.0516
 3810W        W 7329   5.962   6.904   9.135  0.2890 -0.2690  0.2431
 3811W        W 7330   4.711   4.576   2.348 -0.0243  0.0654  0.1480
 3812W        W 7331   6.028   7.686   3.211  0.3472  0.2581  0.0638
 3813W        W 7332   3.097   5.899   9.134 -0.0860  0.0769  0.2991
 3814W        W 7333   6.867   8.742   0.452  0.0094  0.2295 -0.0690
 3815W        W 7334   0.165   5.602   0.821  0.0719 -0.0378  0.1192
 3816W        W 7335   6.250   2.931  10.466  0.0659  0.0850 -0.1677
 3817W        W 7336   4.368   8.643   7.061 -0.2273 -0.1193  0.1929
 3818W        W 7337   8.227   5.726   8.870  0.0751 -0.2404 -0.2848
 3819W        W 7338   4.236   0.490   2.802  0.1383  0.1384  0.2292
 3820W        W 7339   9.899   8.156   1.558  0.0254 -0.0943  0.1247
 3821W        W 7340   9.645   7.032   3.454  0.0580 -0.1415 -0.1389
 3822W        W 7341   8.106   3.146   8.539 -0.1880 -0.1732  0.0245
 3823W        W 7342   9.057   4.876   0.401 -0.1130 -0.3306  0.0281
 3824W        W 7343   5.376   6.815  11.399 -0.2613 -0.1993 -0.2033
 3825W        W 7344   7.936   7.643   8.652  0.0518 -0.0534 -0.1075
 3826W        W 7345   1.351   0.866   9.484 -0.1669 -0.1533 -0.2279
 3827W        W 7346   5.025   8.868   1.594 -0.1109 -0.0667  0.2378
 3828W        W 7347   7.073   7.278   7.005  0.0471  0.0015 -0.0575
 3829W        W 7348   4.549   7.395   1.662  0.3412 -0.2743 -0.2819
 3830W        W 7349   6.686   0.128   8.600  0.1280  0.0365  0.1915
 3831W        W 7350   2.565   0.042   9.439  0.3486 -0.4685 -0.4889
 3832W        W 7351   1.723   0.593   3.146 -0.0486  0.2846  0.1648
 3833W        W 7352   4.628   9.059  10.326 -0.0645 -0.2975  0.1306
 3834W        W 7353   3.188   2.069   9.614 -0.1483 -0.0963 -0.0396
 3835W        W 7354   2.732   5.168   9.529  0.1745 -0.0682  0.1258
 3836W        W 7355   9.197   0.643   6.355  0.2075  0.1697 -0.3266
 3837W        W 7356   3.610   4.095   9.277 -0.1537  0.3356 -0.1414
 3838W        W 7357   7.116   5.507   3.340 -0.6905 -0.1369  0.0910
 3839W        W 7358   0.043   5.468   1.317 -0.0091 -0.1313  0.0926
 3840W        W 7359   7.016   5.127   3.782  0.3233 -0.1134 -0.0239
 3841W        W 7360   4.858   1.407   8.511 -0.0957 -0.0118  0.0907
 3842W        W 7361   9.795   4.680   9.242  0.0868  0.1834 -0.1030
 3843W        W 7362   1.230   2.508   3.018 -0.2119 -0.0093  0.0022
 3844W        W 7363   8.999   4.490   2.922  0.0994 -0.1224 -0.1751
 3845W        W 7364   8.903   2.099   0.370  0.0300  0.1940 -0.2114
 3846W        W 7365   0.396   3.177   0.859 -0.0685  0.0168  0.0929
 3847W        W 7366   2.394   5.055   0.936 -0.1533  0.2935  0.1717
 3848W        W 7367   9.665   0.172   3.914 -0.1072 -0.0911  0.0195
 3849W        W 7368   9.130   6.464   9.674  0.2805  0.0327  0.0319
 3850W        W 7369   3.923   6.521   2.056  0.1782 -0.3219 -0.0074
 3851W        W 7370   7.817   7.297  10.369  0.2186 -0.2797  0.3731
 3852W        W 7371   0.337   3.074  10.211  0.0629 -0.0760 -0.1408
 3853W        W 7372   4.845   5.663   9.014  0.0689  0.1269 -0.0556
 3854W        W 7373   4.584   7.920  10.984  0.0065 -0.0413  0.1427
 3855W        W 7374   3.757   0.650   2.750 -0.0695 -0.1921 -0.0150
 3856W        W 7375   7.625   1.133   9.633 -0.2466 -0.0576  0.0742
 3857W        W 7376   5.464   7.862   2.510 -0.3037  0.0499 -0.0938
 3858W        W 7377   7.621   4.970   3.666  0.1947  0.0110  0.0523
 3859W        W 7378   1.000   4.378   3.152 -0.2576 -0.0737  0.1957
 3860W        W 7379   7.589   7.071   0.594 -0.1026 -0.4535  0.2040
 3861W        W 7380   2.718   1.412  10.637 -0.1027 -0.1067  0.2633
 3862W        W 7381   5.327   2.539   9.769  0.0784 -0.0735 -0.0864
 3863W        W 7382   4.478   9.681  11.068  0.0316  0.1189  0.1291
 3864W        W 7383   7.432   7.809   8.483 -0.0842 -0.4140  0.1698
 3865W        W 7384   3.541   0.858   7.558 -0.2217 -0.0667  0.1789
 3866W        W 7385   0.287   3.808   7.437 -0.1887 -0.0382  0.0072
 3867W        W 7386   6.340   1.425   8.817  0.3017 -0.2206  0.3993
 3868W        W 7387   2.001   0.114   8.678 -0.3210  0.2697  0.3824
 3869W        W 7388   5.330   2.789   1.642  0.2726 -0.1063 -0.0123
 3870W        W 7389   9.178   1.588  11.278 -0.0102  0.2772  0.0403
 3871W        W 7390   0.736   0.061   8.854  0.2279 -0.2952 -0.0572
 3872W        W 7391   3.103   1.925   0.172 -0.2378  0.0045 -0.2986
 3873W        W 7392   1.658   2.932   1.048 -0.2464 -0.2913  0.0518
 3874W        W 7393   3.234   6.710  10.479 -0.4189  0.3110  0.0438
 3875W        W 7394   7.989  10.076   1.936 -0.0765  0.0614  0.3180
 3876W        W 7395   0.585   3.100   8.527  0.0337 -0.0974  0.0573
 3877W        W 7396   0.890   2.371   0.715 -0.1333 -0.1283  0.1221
 3878W        W 7397   2.920   4.479  10.697  0.1552  0.1586  0.1173
 3879W        W 7398   1.694   6.596   0.450 -0.0712  0.0943  0.0401
 3880W        W 7399   7.521   0.932   9.200  0.1838 -0.1070 -0.0761
 3881W        W 7400   2.129   4.139   9.787  0.0289 -0.0961  0.0929
 3882W        W 7401   9.323   7.978   8.456 -0.0795 -0.0323 -0.1192
 3883W        W 7402   4.778   4.727  11.242 -0.0283 -0.1148 -0.0904
 3884W        W 7403   7.417   7.125   9.181  0.0173 -0.3021 -0.1373
 3885W        W 7404   1.547   5.620  11.563 -0.2901  0.3455  0.0058
 3886W        W 7405   2.813   2.827  10.619  0.0508 -0.1117 -0.5403
 3887W        W 7406   1.231   4.929   2.559 -0.0372 -0.1750 -0.3633
 3888W        W 7407   4.172   8.481   0.415 -0.1965 -0.1266  0.1512
 3889W        W 7408   5.470   8.080   8.755 -0.0986 -0.0434  0.1074
 3890W        W 7409   1.137   9.781   7.596  0.0396  0.1170 -0.2105
 3891W        W 7410   3.035   1.392   8.312  0.1771 -0.0929  0.3039
 3892W        W 7411   3.371   8.522   9.862  0.0854 -0.1458  0.0928
 3893W        W 7412   3.799   2.578   3.770  0.2458 -0.0945  0.1304
 3894W        W 7413   9.082   0.558   3.646  0.3139  0.2112  0.2585
 3895W        W 7414   7.714   5.118   2.723  0.0135  0.2673  0.0867
 3896W        W 7415   9.035   9.426  10.217  0.1996  0.0267 -0.2386
 3897W        W 7416   5.296   3.499   0.082  0.2973  0.2893 -0.0414
 3898W        W 7417   8.654   6.423  10.465 -0.1971  0.0976  0.2292
 3899W        W 7418   2.483   5.985   3.277 -0.1375  0.3066  0.2594
 3900W        W 7419   9.515   8.782   9.145  0.1871  0.0528 -0.2160
 3901W        W 7420   1.193   8.236   9.262  0.3683 -0.2315  0.0079
 3902W        W 7421   3.815   8.271   9.417  0.0904 -0.0694 -0.1271
 3903W        W 7422   7.298   4.854   2.354  0.0845 -0.4573 -0.0040
 3904W        W 7423   0.275   1.116   2.822 -0.1749 -0.2155  0.0033
 3905W        W 7424   0.984   6.361   3.302 -0.1019 -0.2538 -0.2008
 3906W        W 7425   6.389   0.577   7.455  0.0801  0.0974  0.3442
 3907W        W 7426   8.579   3.233  10.736 -0.1155  0.1631 -0.2213
 3908W        W 7427   1.409   5.104   3.448 -0.0220 -0.1473  0.0805
 3909W        W 7428   9.256   9.961   1.046 -0.0266  0.2677  0.0589
 3910W        W 7429   3.074   7.292   8.220  0.5491 -0.0972 -0.1835
 3911W        W 7430   8.497   6.397   0.575  0.0610 -0.1109  0.1161
 3912W        W 7431   5.332   1.958   9.728 -0.4427 -0.4002  0.0704
 3913W        W 7432   1.616   2.371   7.230  0.2770  0.1299  0.2368
 3914W        W 7433   8.849   7.749   9.772  0.0920  0.0148  0.0110
 3915W        W 7434   8.767   3.682   3.583  0.0030  0.0734 -0.2785
 3916W        W 7435   2.065   6.432  10.500 -0.1059  0.1192  0.1892
 3917W        W 7436   8.410   1.492   1.942 -0.0274 -0.3351  0.0981
 3918W        W 7437   4.775   0.491   9.532 -0.0126  0.1618 -0.0012
 3919W        W 7438   5.249   9.614   7.635  0.0311  0.1130  0.0647
 3920W        W 7439   7.686   9.230   2.153 -0.2878  0.2304 -0.0814
 3921W        W 7440   6.827   1.033   1.842  0.1012 -0.0254 -0.3185
 3922W        W 7441   7.249   1.330   9.317 -0.1066 -0.1715  0.0425
 3923W        W 7442   3.598   2.940   1.473  0.3277  0.2301  0.2542
 3924W        W 7443   8.987   3.647   2.519  0.2507  0.0986 -0.3299
 3925W        W 7444   2.285   3.694   7.835  0.0701 -0.0396  0.0066
 3926W        W 7445   5.254   5.678   0.621  0.2220 -0.0386 -0.3108
 3927W        W 7446   9.893   8.227   7.594  0.0948  0.3325 -0.0863
 3928W        W 7447   3.690   1.520   1.088  0.3023  0.0505 -0.2243
 3929W        W 7448   0.928   6.479  10.227  0.1965  0.0504  0.0710
 3930W        W 7449   6.200   6.296   0.554 -0.0597  0.1573 -0.6040
 3931W        W 7450   7.388   5.667   0.589 -0.5799 -0.0349 -0.0586
 3932W        W 7451   2.318   1.247   1.193 -0.0870 -0.1875  0.0604
 3933W        W 7452   6.524   4.271  10.981  0.0569 -0.2697 -0.1010
 3934W        W 7453   8.533   3.274  11.294 -0.4940 -0.0305  0.0395
 3935W        W 7454   5.939   8.111   8.436  0.3701  0.1740  0.1959
 3936W        W 7455   9.947   1.464   9.772 -0.2081 -0.2148  0.3375
 3937W        W 7456   8.302  10.054   0.433  0.1587 -0.2371  0.3464
 3938W        W 7457   4.519   6.934   1.623 -0.0029  0.1545 -0.1630
 3939W        W 7458   9.009   6.332   7.807  0.1082 -0.1617  0.3483
 3940W        W 7459   3.130   6.267   8.171 -0.1564  0.1028  0.0008
 3941W        W 7460   5.814   6.663  11.232 -0.0200  0.1194  0.0970
 3942W        W 7461   2.752   6.302   1.063  0.0964  0.1312  0.1965
 3943W        W 7462   5.832   8.262   9.079 -0.2354  0.2198 -0.1150
 3944W        W 7463   7.621   3.490   8.260 -0.2910  0.2629  0.0280
 3945W        W 7464   9.912   6.660   1.214  0.2783 -0.2604  0.0361
 3946W        W 7465   4.695   2.730   0.561  0.0565 -0.1030 -0.0265
 3947W        W 7466   8.698   6.645   8.299 -0.1368  0.0955  0.3775
 3948W        W 7467   5.757   4.501   0.726  0.3541  0.5229  0.2987
 3949W        W 7468   2.021   3.469   8.207  0.0576 -0.0006 -0.0154
 3950W        W 7469   0.351   2.711   8.265  0.2339 -0.3169 -0.1662
 3951W        W 7470   2.388   3.454   8.838 -0.0847 -0.0966  0.0269
 3952W        W 7471   3.080   4.809  10.373  0.1630  0.1230 -0.0797
 3953W        W 7472   9.019   3.563  10.888 -0.1707 -0.3734  0.1347
 3954W        W 7473   7.817   6.038   1.923 -0.1435 -0.1479  0.0033
 3955W        W 7474   5.624   4.274   3.948 -0.1615  0.0847 -0.1538
 3956W        W 7475   9.953   5.833   8.505  0.1391 -0.1993  0.1445
 3957W        W 7476   6.965   7.458   0.915 -0.2099 -0.0331  0.0871
 3958W        W 7477   7.493   1.180  11.270  0.4433 -0.2613  0.1958
 3959W        W 7478   8.285   2.410   9.709 -0.0508 -0.0841  0.1438
 3960W        W 7479   9.515   3.899   1.294  0.0727  0.0540  0.5107
 3961W        W 7480   0.190   3.212   2.003  0.2920 -0.3909 -0.0651
 3962W        W 7481   3.834   6.117   1.050  0.1281 -0.1508  0.0906
 3963W        W 7482   5.837   1.419   2.322 -0.1533  0.1119  0.1002
 3964W        W 7483   4.294   5.992   9.421  0.0157  0.1171  0.3957
 3965W        W 7484   5.973   0.257  10.451  0.0560 -0.1474 -0.2968
 3966W        W 7485   4.237   6.528   0.417 -0.3003 -0.1951  0.0644
 3967W        W 7486   1.522  10.040   7.881 -0.0254 -0.1369  0.1170
 3968W        W 7487   6.652   3.964  10.562  0.0236 -0.2653  0.2018
 3969W        W 7488   3.234   0.153   0.187 -0.2316  0.3086 -0.1757
 3970W        W 7489   3.317   9.351   8.313 -0.1177  0.0981  0.0479
 3971W        W 7490   1.831   4.321   1.000  0.2089 -0.0553 -0.1017
 3972W        W 7491   2.602   3.718   3.079  0.4880  0.1028  0.1561
 3973W        W 7492   7.589   0.899  10.118  0.2678 -0.1525 -0.1037
 3974W        W 7493   4.978   9.092   0.519 -0.2956 -0.1422 -0.0854
 3975W        W 7494   2.907   0.863   1.765 -0.2979 -0.3162  0.0268
 3976W        W 7495   9.947   4.505   0.371 -0.0691 -0.0865 -0.0334
 3977W        W 7496   7.699   0.821   6.633  0.0760  0.1504  0.0071
 3978W        W 7497   5.698   3.920   3.143 -0.1445  0.0794 -0.0441
 3979W        W 7498   7.793   4.628   7.940  0.0359  0.0078  0.0791
 3980W        W 7499   2.024   9.905  10.240  0.0906 -0.0156  0.0034
 3981W        W 7500   4.125   1.891   1.624  0.1066  0.1906  0.0054
 3982W        W 7501   2.574   8.558   2.830  0.0873 -0.3230  0.1420
 3983W        W 7502   3.673   6.591  10.280  0.0195 -0.2894  0.0152
 3984W        W 7503   2.042   8.178  10.679 -0.2601 -0.0406  0.2102
 3985W        W 7504   4.589   9.201  11.220 -0.0849 -0.1958 -0.1190
 3986W        W 7505   1.392   0.561   1.517 -0.0108 -0.1494  0.1736
 3987W        W 7506   4.111   1.089   9.218  0.1106 -0.1903  0.0884
 3988W        W 7507   0.777   9.398   8.935  0.2398  0.2899 -0.0326
 3989W        W 7508   4.107   9.102   1.587  0.3443 -0.0141 -0.2182
 3990W        W 7509   3.520   0.203   9.921  0.1820 -0.0188  0.0934
 3991W        W 7510   6.702   0.890   2.371 -0.1316 -0.2741  0.3967
 3992W        W 7511   0.339   4.147   0.061  0.0367  0.0735 -0.1152
 3993W        W 7512   9.439   5.223   3.340  0.0887  0.1152  0.0946
 3994W        W 7513   0.201   5.566   2.971 -0.4506  0.0702 -0.1015
 3995W        W 7514   7.564   5.768   3.300 -0.2483 -0.2435  0.3268
 3996W        W 7515   9.895   2.942   1.664  0.0419 -0.0681 -0.0967
 3997W        W 7516   7.580   1.167   6.987 -0.0915 -0.2702  0.0196
 3998W        W 7517   9.988   6.100   2.988  0.1350 -0.3487  0.0710
 3999W        W 7518   8.716   8.513   8.269  0.1300 -0.0845 -0.0817
 4000W        W 7519   7.013   8.515  10.316  0.1786  0.0420  0.0468
 4001W        W 7520   8.827   9.631   0.403  0.2328  0.1142 -0.0671
 4002W        W 7521   3.490   4.011   2.967  0.1615 -0.0976 -0.0497
 4003W        W 7522   7.965   9.340   0.130 -0.0981  0.0500 -0.0567
 4004W        W 7523   3.502   1.672   8.295  0.1029  0.1757  0.3707
 4005W        W 7524   9.181   9.040   8.771  0.0263  0.0276  0.0453
 4006W        W 7525   2.561   5.102   1.451 -0.2584  0.1302 -0.2378
 4007W        W 7526   1.488   9.132   8.049 -0.1080 -0.5197 -0.0773
 4008W        W 7527   8.026   4.221   0.989  0.0500 -0.0824 -0.2633
 4009W        W 7528   8.555   0.398   0.311 -0.0245  0.0784  0.1222
 4010W        W 7529   4.553   4.313  10.976 -0.2765 -0.0856 -0.1073
 4011W        W 7530   3.619   3.198   9.097  0.2086  0.0873  0.4240
 4012W        W 7531   2.498   3.860   1.467  0.0652  0.2977 -0.0428
 4013W        W 7532   3.555   3.462   1.568  0.0689 -0.1268  0.0379
 4014W        W 7533   8.446   1.534   0.961 -0.1234  0.1149  0.0077
 4015W        W 7534   8.070   9.519   3.556 -0.0440  0.1401 -0.1482
 4016W        W 7535   6.324   2.732   0.845  0.0212  0.3388  0.0596
 4017W        W 7536   4.594   4.392   8.721  0.1745 -0.1703  0.1995
 4018W        W 7537   4.757   0.212  10.736 -0.0213 -0.2859 -0.5763
 4019W        W 7538   3.862   4.855   9.875  0.1947 -0.1692 -0.1375
 4020W        W 7539   0.502   3.491   9.839  0.2293  0.1160  0.1545
 4021W        W 7540   1.727   3.597  10.390  0.3077  0.0156  0.1012
 4022W        W 7541   3.115   6.096   3.612  0.2507 -0.2922  0.1893
 4023W        W 7542   4.951   4.978   0.048 -0.1002 -0.0419  0.0617
 4024W        W 7543   4.394   3.273   9.699  0.1806 -0.1501  0.0563
 4025W        W 7544   3.379   1.870   2.028 -0.1066  0.1993  0.1571
 4026W        W 7545   4.535   6.690   3.270  0.4493 -0.2426  0.2779
 4027W        W 7546   4.814   1.944   9.055 -0.1572  0.0300  0.1134
 4028W        W 7547   9.541   6.753  10.511 -0.0374  0.1223  0.0177
 4029W        W 7548   4.864   2.636   1.030  0.0838  0.1038  0.0463
 4030W        W 7549   9.850   4.118   1.633 -0.2030  0.2972 -0.4149
 4031W        W 7550   8.645   0.269   8.889 -0.2468  0.1069  0.0507
 4032W        W 7551   2.905   9.716   8.610 -0.0004  0.2715  0.0621
 4033W        W 7552   6.993   1.259  10.520  0.1053 -0.0786  0.0175
 4034W        W 7553   6.797   3.821  11.043 -0.0479 -0.0453 -0.0563
 4035W        W 7554   4.581   6.208   0.732  0.3865  0.0627  0.4375
 4036W        W 7555   7.204   5.892   0.162  0.1933  0.1095 -0.2965
 4037W        W 7556   8.008   1.913   9.882 -0.2495  0.0578 -0.1158
 4038W        W 7557   4.429   2.215   8.802 -0.2524 -0.1439 -0.0178
 4039W        W 7558   7.928   1.920   0.127  0.2767  0.2171 -0.0227
 4040W        W 7559   5.885   8.315  11.008  0.2709 -0.1080  0.5254
 4041W        W 7560   3.566   0.482   0.247  0.2803  0.1038 -0.0341
 4042W        W 7561   5.392   8.596   9.033  0.0946  0.0050  0.1681
 4043W        W 7562   1.721   0.197   8.300 -0.2551  0.1494  0.1328
 4044W        W 7563   0.591   4.857   7.726 -0.1600  0.2641 -0.4430
 4045W        W 7564   5.740   2.323   9.918  0.0139  0.0166  0.0543
 4046W        W 7565   8.627   1.675  10.507  0.0873  0.1863 -0.2676
 4047W        W 7566   3.549   7.944   0.958  0.2273  0.2572 -0.1620
 4048W        W 7567   1.977   3.395   0.130  0.4131 -0.2494 -0.0452
 4049W        W 7568   5.601   5.198   1.504  0.6532 -0.1101 -0.1586
 4050W        W 7569   4.918   0.038   8.855  0.0824 -0.1137 -0.2094
 4051W        W 7570   7.740   1.235   3.693 -0.2282  0.1044  0.2781
 4052W        W 7571   7.826   9.111   1.719  0.2261  0.1385  0.3907
 4053W        W 7572   3.474   7.947   0.001  0.0973 -0.0620  0.0921
 4054W        W 7573   0.156   6.508   2.935  0.2231 -0.2594  0.1882
 4055W        W 7574   0.529   6.305  11.138 -0.0738 -0.0631  0.0060
 4056W        W 7575   1.086   1.448   1.525 -0.2057  0.1896  0.0394
 4057W        W 7576   5.393   6.135   1.620 -0.0153  0.1716  0.3235
 4058W        W 7577   7.837   9.959   3.435 -0.0858  0.0994 -0.0139
 4059W        W 7578   9.028   3.251   1.573 -0.1603 -0.1978  0.2171
 4060W        W 7579   9.235   6.893  11.452  0.1145  0.1062  0.1115
 4061W        W 7580   4.034   6.410   9.698  0.0794  0.1734  0.0945
 4062W        W 7581   3.251   7.068   2.079  0.2372  0.0599 -0.1709
 4063W        W 7582   6.565   5.843  11.126  0.2134 -0.1241 -0.1371
 4064W        W 7583   7.852   6.299   7.826 -0.0189  0.1914  0.3124
 4065W        W 7584   7.870   9.496   1.377 -0.0221 -0.2149  0.1835
 4066W        W 7585   8.061   0.469   6.709 -0.1505 -0.0559  0.2711
 4067W        W 7586   3.228   7.515   1.742 -0.0088  0.0324 -0.0418
 4068W        W 7587   2.700   3.275  10.868 -0.2694 -0.2059  0.1826
 4069W        W 7588   4.952   6.850   9.475  0.2069 -0.0246 -0.3154
 4070W        W 7589   2.333   9.250   1.371  0.6043  0.1507  0.0101
 4071W        W 7590   0.973   0.595   3.079  0.0909  0.1419 -0.0931
 4072W        W 7591   2.693   3.361   0.904 -0.0430  0.0988 -0.0682
 4073W        W 7592   0.870   7.622   2.060  0.0581  0.0869 -0.1418
 4074W        W 7593   5.599   7.884   0.280 -0.0781 -0.1083 -0.2356
 4075W        W 7594   6.599   0.647   1.966  0.2199  0.3533  0.1392
 4076W        W 7595   2.321   7.584  11.167  0.2355 -0.1380 -0.1248
 4077W        W 7596   2.131   8.380  10.163 -0.1713  0.2188  0.0600
 4078W        W 7597   0.256   8.638   2.240 -0.0657  0.0105  0.1466
 4079W        W 7598   6.867   9.941   8.954  0.0547 -0.2678  0.0882
 4080W        W 7599   5.030   1.079  10.630  0.2084 -0.2415  0.0843
 4081W        W 7600   4.662   5.087   0.925 -0.0066  0.0759 -0.3541
 4082W        W 7601   4.147   4.265   9.752 -0.1393 -0.0667 -0.5504
 4083W        W 7602   0.854   5.038   9.094 -0.2564  0.2649  0.0351
 4084W        W 7603   5.667   9.884   9.805 -0.0960  0.2157  0.0020
 4085W        W 7604   5.295   9.253   7.989 -0.0921  0.0271  0.0620
 4086W        W 7605   4.866   2.381  11.482 -0.0018  0.4584 -0.1830
 4087W        W 7606   7.197   3.836   4.269  0.0780 -0.1533  0.0756
 4088W        W 7607   9.837   2.619   2.643  0.1076 -0.2790 -0.0529
 4089W        W 7608   7.630   6.928   1.767  0.0012 -0.2702  0.1078
 4090W        W 7609   9.269   0.800   0.913  0.2088  0.2197  0.1211
 4091W        W 7610   1.426   0.592   2.760  0.0558  0.1446  0.0026
 4092W        W 7611   0.458   9.735   8.767 -0.2056 -0.1990 -0.0465
 4093W        W 7612   7.450   1.840  11.376  0.0647  0.1591 -0.1435
 4094W        W 7613   2.506   0.739   1.089  0.1182 -0.3660 -0.2085
 4095W        W 7614   8.929   6.573   0.788  0.2204  0.1254 -0.0845
 4096W        W 7615   9.181   9.827   0.143  0.0689  0.0532  0.0093
 4097W        W 7616   9.831   7.868   3.268 -0.0897 -0.1814 -0.2389
 4098W        W 7617   1.367   0.615   2.257 -0.3526  0.1946  0.2629
 4099W        W 7618   1.763   6.156   0.162  0.2964 -0.1165 -0.0173
 4100W        W 7619   7.339   3.599   3.891 -0.0754 -0.1557  0.1517
 4101W        W 7620   9.990   5.335   2.615  0.3448 -0.0029  0.3784
 4102W        W 7621   9.684   0.278   3.058 -0.0755  0.1242  0.1535
 4103W        W 7622   1.149   1.284   8.864  0.2550 -0.0276 -0.3772
 4104W        W 7623   3.702   5.139   3.438 -0.0668 -0.1057  0.2225
 4105W        W 7624   4.790   2.941   6.873 -0.1256  0.1316 -0.1003
 4106W        W 7625   6.851   9.408   1.935 -0.0660  0.1327 -0.0937
 4107W        W 7626   2.818   8.057   2.828  0.2523 -0.0375 -0.2164
 4108W        W 7627   8.790   0.924   0.176  0.0149  0.0691  0.5341
 4109W        W 7628   4.197   8.567   9.707  0.1062 -0.2079  0.1112
 4110W        W 7629   9.548   8.319   0.073 -0.0831  0.1933  0.2822
 4111W        W 7630   1.045   0.229   1.669 -0.1992  0.1736 -0.0256
 4112W        W 7631   4.015   0.557   9.937 -0.0790  0.0091  0.0378
 4113W        W 7632   5.929   7.393   0.910 -0.2050 -0.0077 -0.3926
 4114W        W 7633   8.664   1.616  11.062 -0.2314 -0.1437 -0.0446
 4115W        W 7634   5.140   9.776   9.753 -0.4666 -0.0530  0.1211
 4116W        W 7635   3.383   2.474   8.505  0.0772  0.0769  0.2971
 4117W        W 7636   5.658   0.119   8.439 -0.1524  0.1377  0.3178
 4118W        W 7637   7.345   2.808   2.225  0.1073 -0.1486  0.4907
 4119W        W 7638   1.490   1.070   0.793  0.1338  0.0595  0.3523
 4120W        W 7639   6.170   2.953   1.718 -0.3332  0.1539  0.1419
 4121W        W 7640   5.842   4.755   2.965  0.1322 -0.1194  0.0596
 4122W        W 7641   5.638   7.963   7.837 -0.1937 -0.3964 -0.1747
 4123W        W 7642   8.236   7.291  10.586 -0.3256 -0.1823  0.2088
 4124W        W 7643   5.907   4.714   2.075 -0.1713 -0.0109 -0.1446
 4125W        W 7644   9.876   5.988   3.580  0.0797  0.0694  0.2538
 4126W        W 7645   3.295   7.208   9.228 -0.0631 -0.0257  0.0788
 4127W        W 7646   1.544   5.403   1.972 -0.1163 -0.3223 -0.0029
 4128W        W 7647   3.770   7.360  10.923  0.1235  0.1508 -0.0849
 4129W        W 7648   0.497   0.816   2.376 -0.0577  0.0984 -0.0962
 4130W        W 7649   9.221   5.237   2.308 -0.4914 -0.1182 -0.1921
 4131W        W 7650   0.535   8.639   8.278 -0.4212  0.0712 -0.0118
 4132W        W 7651   9.374   4.271   8.808  0.3416  0.1422  0.0088
 4133W        W 7652   8.007   7.040   4.135  0.1528 -0.0271  0.1969
 4134W        W 7653   5.787   7.486   1.588  0.1768 -0.0147  0.0178
 4135W        W 7654   6.371   6.519   8.337  0.2436 -0.0279 -0.1076
 4136W        W 7655   4.897   9.510   6.732 -0.0539  0.1180  0.1379
 4137W        W 7656   0.225   4.128   2.528  0.0940 -0.0958  0.0157
 4138W        W 7657   3.777   2.584   1.847  0.1134 -0.3408 -0.3213
 4139W        W 7658   0.186   8.755   1.308 -0.0664  0.3351 -0.0647
 4140W        W 7659   7.760   4.799   9.952 -0.1166  0.3919  0.0658
 4141W        W 7660   0.782   9.518   1.824 -0.2374 -0.0120  0.1892
 4142W        W 7661   6.024   8.857   7.805  0.0825  0.0115  0.1156
 4143W        W 7662   3.557   4.490   8.820  0.1680 -0.1716  0.1044
 4144W        W 7663   9.973   3.174   0.866  0.1327  0.3497 -0.0559
 4145W        W 7664   3.094   2.567   8.123 -0.1788 -0.2367 -0.3120
 4146W        W 7665   1.707   7.163   1.684  0.1926 -0.1556  0.0782
 4147W        W 7666   0.376   6.029   3.011  0.1936  0.1093 -0.0128
 4148W        W 7667   4.797   2.636   2.414 -0.0410 -0.1830 -0.0730
 4149W        W 7668   6.478   7.664   2.762 -0.0196 -0.4483 -0.1330
 4150W        W 7669   9.563   3.115   4.033 -0.3230  0.2710  0.2287
 4151W        W 7670   7.402   2.437   3.424  0.1142  0.5474 -0.4332
 4152W        W 7671   4.969   5.548   0.233 -0.1670  0.1478  0.0789
 4153W        W 7672   4.655   2.798  11.609 -0.2970  0.1081  0.0622
 4154W        W 7673   0.490   5.459   9.606  0.0450  0.2297  0.3518
 4155W        W 7674   4.123   0.984   2.691  0.4208  0.2417  0.2390
 4156W        W 7675   2.710   6.287  10.490 -0.0915  0.3211 -0.1840
 4157W        W 7676   9.088   0.335   8.025 -0.3018 -0.1377  0.0013
 4158W        W 7677   0.244   3.608   2.562  0.0096 -0.2972  0.2098
 4159W        W 7678   3.266   1.654  10.593  0.0733  0.0009 -0.1504
 4160W        W 7679   8.941   1.408   9.999  0.1008 -0.0028 -0.5600
 4161W        W 7680   9.568   0.011   1.383  0.0666  0.1060 -0.1061
 4162W        W 7681   0.860   0.571  10.283  0.0679 -0.1323 -0.0975
 4163W        W 7682   6.118   9.862   9.560  0.1280 -0.3027  0.0209
 4164W        W 7683   4.849   3.506  11.436 -0.1346  0.4246  0.0994
 4165W        W 7684   6.382   0.874   9.565  0.1878  0.0832  0.0566
 4166W        W 7685   9.353   9.679   1.516  0.0641  0.1295 -0.0752
 4167W        W 7686   2.197   8.674   3.215 -0.1002 -0.0357  0.4215
 4168W        W 7687   2.772   6.829   7.719 -0.2830  0.1084  0.2104
 4169W        W 7688   6.256   9.807   2.090 -0.5174  0.1111  0.1799
 4170W        W 7689   4.350   9.980   1.990  0.0173  0.3794 -0.0173
 4171W        W 7690   0.635   3.469  10.297  0.2355 -0.0239 -0.2028
 4172W        W 7691   3.495   2.059  11.412 -0.2953  0.1837 -0.2355
 4173W        W 7692   0.478   7.277  11.232 -0.0533 -0.0787  0.0116
 4174W        W 7693   9.770   1.561   3.418  0.0606  0.1424  0.0080
 4175W        W 7694   6.448   0.941  11.138  0.1306  0.0587 -0.3738
 4176W        W 7695   1.168   1.492   2.816  0.0896 -0.0825 -0.0745
 4177W        W 7696   1.253   3.413   9.558  0.1166 -0.2116 -0.0350
 4178W        W 7697   9.357   8.406   7.624 -0.0985 -0.0424 -0.0668
 4179W        W 7698   7.621   9.124   9.715 -0.0237  0.0531 -0.1324
 4180W        W 7699   1.055  10.046  11.080  0.1914  0.1618  0.0125
 4181W        W 7700   2.061   6.042   2.208 -0.4053  0.3587 -0.0019
 4182W        W 7701   9.398   3.438   7.811 -0.1416  0.0059  0.1388
 4183W        W 7702   8.105   0.260   7.847 -0.3113  0.1464  0.3849
 4184W        W 7703   1.096   8.676   7.407 -0.0325 -0.3026  0.2394
 4185W        W 7704   7.717   8.937  10.741 -0.2628 -0.0091  0.0249
 4186W        W 7705   9.012   4.244   9.219  0.4335 -0.1276  0.1112
 4187W        W 7706   7.967   1.557   9.602 -0.1099 -0.1990 -0.0247
 4188W        W 7707   5.146   7.300  11.427  0.0764 -0.2747  0.1246
 4189W        W 7708   6.654   8.315   0.479 -0.0578  0.0732  0.1478
 4190W        W 7709   5.400   4.819  10.468  0.2257  0.0812 -0.1235
 4191W        W 7710   9.350   6.601  10.950 -0.2809  0.0184  0.2091
 4192W        W 7711   9.565   0.799   3.008  0.2059 -0.1271  0.1061
 4193W        W 7712   9.156   8.699   0.629  0.4544 -0.0843 -0.2264
 4194W        W 7713   6.915   4.708   9.513 -0.1344  0.5213  0.0592
 4195W        W 7714   5.466   9.138   0.889 -0.2489  0.0451  0.0273
 4196W        W 7715   4.130   6.537   0.946 -0.1965  0.1342  0.0334
 4197W        W 7716   8.972   9.438   3.081 -0.0967 -0.0667  0.1458
 4198W        W 7717   8.436   6.087  10.709  0.0299 -0.1741 -0.0206
 4199W        W 7718   0.788   8.335  11.125  0.2537  0.1752 -0.0340
 4200W        W 7719   2.554   9.433  10.751  0.3489 -0.1882 -0.0719
 4201W        W 7720   3.017   5.356   1.817  0.1789 -0.0073  0.4005
 4202W        W 7721   1.273   9.209   0.597 -0.0132 -0.0741 -0.1060
 4203W        W 7722   4.088   5.594  10.731  0.0308  0.1853  0.2222
 4204W        W 7723   4.568   9.810  10.515 -0.1493 -0.0462  0.0280
 4205W        W 7724   2.449   6.951   9.785  0.0344  0.4240  0.1702
 4206W        W 7725   8.126   7.265   9.975 -0.2647 -0.2309  0.0573
 4207W        W 7726   0.071   0.065  11.403 -0.2944  0.1727 -0.2657
 4208W        W 7727   9.279   8.929  11.483  0.0375  0.1519  0.3501
 4209W        W 7728   4.453   5.509   7.796 -0.2146  0.3218  0.1569
 4210W        W 7729   2.051   7.521   0.211  0.3220  0.3557  0.0886
 4211W        W 7730   0.359   8.036   0.810  0.2940  0.0199 -0.2108
 4212W        W 7731   9.858   8.546   9.494  0.1303 -0.3252  0.0646
 4213W        W 7732   5.592   4.312   1.956  0.1985 -0.0647  0.0379
 4214W        W 7733   7.575   2.090  10.877  0.1356 -0.1055  0.0756
 4215W        W 7734   3.819   7.152   1.050  0.1431 -0.0469 -0.3014
 4216W        W 7735   6.723   0.347   1.055 -0.2196 -0.2350 -0.0492
 4217W        W 7736   7.161   3.480  10.911 -0.0541  0.0611 -0.0664
 4218W        W 7737   8.278   0.358   1.711  0.1731  0.4073 -0.0421
 4219W        W 7738   3.517   6.202   0.672  0.3032 -0.1731 -0.1456
 4220W        W 7739   9.431   5.756  10.900 -0.0801  0.2914 -0.3845
 4221W        W 7740   6.628   4.253   7.487  0.0239  0.0606  0.3640
 4222W        W 7741   5.786   8.786   0.667  0.1563 -0.1414  0.1240
 4223W        W 7742   2.345   5.574   1.063 -0.0390  0.3617  0.4925
 4224W        W 7743   1.494   8.468   3.032 -0.1358 -0.1075  0.2555
 4225W        W 7744   7.331   9.632   2.131 -0.0903  0.1318  0.0498
 4226W        W 7745   5.438   1.113   2.574  0.1633 -0.1726  0.1878
 4227W        W 7746   2.947   4.807   9.179  0.2462 -0.0097  0.1568
 4228W        W 7747   9.887   1.216   3.009 -0.1224  0.2827  0.1085
 4229W        W 7748   8.344   5.987   3.920 -0.0522 -0.1489 -0.1490
 4230W        W 7749   0.515   3.637   1.579 -0.0608 -0.0050  0.0125
 4231W        W 7750   2.819   0.270   7.887 -0.1738 -0.4837  0.0745
 4232W        W 7751   9.932   8.979   1.771 -0.2191  0.1020 -0.0053
 4233W        W 7752   3.974   0.618   7.705 -0.0805  0.1001 -0.5564
 4234W        W 7753   7.341   7.687   1.408 -0.2027 -0.1304  0.2043
 4235W        W 7754   6.578   0.792  10.444 -0.0702  0.1101 -0.0573
 4236W        W 7755   1.565   4.636   1.748 -0.0540 -0.0241  0.1088
 4237W        W 7756   6.330   2.396  10.203 -0.0122  0.0732  0.0784
 4238W        W 7757   0.973   0.853   8.023 -0.0102 -0.2228 -0.0774
 4239W        W 7758   8.215   8.173   9.908 -0.1178 -0.2406 -0.1659
 4240W        W 7759   9.684   1.932  11.526 -0.1533 -0.0511 -0.1704
 4241W        W 7760   5.382   2.690  10.596  0.1358  0.0537  0.2141
 4242W        W 7761   7.000   4.837   8.692 -0.2026 -0.1567  0.0500
 4243W        W 7762   1.346   5.866  10.427  0.0653 -0.0228  0.0881
 4244W        W 7763   3.809   3.358  11.521 -0.0857  0.1939  0.2100
 4245W        W 7764   1.390   9.415   1.483 -0.0141  0.1502 -0.1310
 4246W        W 7765   3.008   9.924   7.546 -0.0589  0.2865 -0.1024
 4247W        W 7766   3.965   6.501   3.302  0.1675  0.2508  0.0575
 4248W        W 7767   6.298   5.693   1.308  0.1558  0.3505  0.1451
 4249W        W 7768   1.242   8.274  11.373  0.0902  0.0360  0.2374
 4250W        W 7769   8.169   1.777   1.543 -0.0692 -0.0763  0.2397
 4251W        W 7770   1.557   3.493   9.093  0.0466  0.6045 -0.0568
 4252W        W 7771   8.375   7.184   0.465 -0.3078  0.0949  0.3133
 4253W        W 7772   6.131   1.752   8.521 -0.2505  0.0802  0.0476
 4254W        W 7773   0.599   4.764   8.538 -0.2593 -0.1710  0.1277
 4255W        W 7774   1.267   3.182   1.057 -0.2275  0.1714 -0.1776
 4256W        W 7775   9.079   2.991   9.584  0.0011  0.4231  0.2478
 4257W        W 7776   5.921   1.943   2.194 -0.1301  0.1454  0.2279
 4258W        W 7777   5.007   3.074   0.229 -0.1046 -0.1953  0.1083
 4259W        W 7778   5.394   5.305  10.460  0.0054 -0.1713 -0.1903
 4260W        W 7779   5.669   5.728   1.911 -0.1088  0.2489  0.0178
 4261W        W 7780   5.857   3.714   8.697  0.0207 -0.1759 -0.0315
 4262W        W 7781   0.541   4.156   9.751 -0.5769  0.1850 -0.1272
 4263W        W 7782   2.009   7.721   2.853 -0.2588  0.0138  0.0141
 4264W        W 7783   6.401   3.219   9.829  0.1123  0.3054 -0.0377
 4265W        W 7784   6.538   0.448  11.266  0.1296  0.1459  0.0488
 4266W        W 7785   2.167   1.855   9.385 -0.2084  0.0219  0.1360
 4267W        W 7786   8.320   5.809   2.989  0.0036  0.0900  0.0835
 4268W        W 7787   8.213   6.752   7.569 -0.0664  0.1101 -0.0964
 4269W        W 7788   3.389   8.723   7.797  0.2113  0.0330  0.0037
 4270W        W 7789   7.436   6.229   9.705 -0.1878  0.2727 -0.2344
 4271W        W 7790   5.640   6.978   8.755  0.0080  0.0270 -0.1148
 4272W        W 7791   5.208   2.318   8.120  0.1154  0.0116 -0.1684
 4273W        W 7792   9.797   1.064   3.504 -0.2623  0.0055 -0.3349
 4274W        W 7793   7.537   0.302   3.187  0.0669 -0.0983  0.1184
 4275W        W 7794   4.765   5.211   3.480 -0.1004  0.0488 -0.1398
 4276W        W 7795   5.821   8.083   9.638 -0.2885  0.3199  0.1067
 4277W        W 7796   6.962   0.310   3.142 -0.1390 -0.1227  0.1340
 4278W        W 7797   2.904   7.509   9.082 -0.1096 -0.0046  0.3477
 4279W        W 7798   8.179   6.007   0.067  0.1715  0.2093 -0.1009
 4280W        W 7799   4.995   1.296   7.475  0.1908 -0.0240  0.0743
 4281W        W 7800   4.327   6.539  11.045 -0.1107 -0.2898  0.2623
 4282W        W 7801   6.344   6.660   0.868 -0.2884 -0.0200  0.0596
 4283W        W 7802   8.223   9.824   2.694  0.4266 -0.1312  0.0035
 4284W        W 7803   2.279   0.184   8.152 -0.0936 -0.2630 -0.0136
 4285W        W 7804   8.532   2.662   4.366  0.0493 -0.1913  0.1181
 4286W        W 7805   8.405   2.670   0.376 -0.3083  0.1143  0.3658
 4287W        W 7806   8.055   0.130   9.723  0.3148 -0.1394 -0.1906
 4288W        W 7807   7.818   6.914   7.801  0.2087 -0.1089  0.2001
 4289W        W 7808   4.382   6.164  10.013  0.0910  0.1757  0.0501
 4290W        W 7809   6.576   8.699   7.856 -0.0681 -0.0375 -0.0076
 4291W        W 7810   2.506   1.509  10.100 -0.1060 -0.0104  0.0053
 4292W        W 7811   3.362   3.408  11.327  0.2425  0.1395  0.2670
 4293W        W 7812   7.062   9.210   0.286 -0.2556  0.0748  0.0519
 4294W        W 7813   2.017   2.437   2.562 -0.0761 -0.3251 -0.0395
 4295W        W 7814   0.657   6.379   1.379 -0.0528 -0.3786 -0.0297
 4296W        W 7815   6.230   7.473  11.060  0.4291 -0.1666 -0.1699
 4297W        W 7816   3.358   0.590  10.699  0.0156 -0.0165  0.1526
 4298W        W 7817   6.209   4.091   0.948  0.0526  0.1323 -0.0794
 4299W        W 7818   6.582   0.019  11.594  0.2639  0.1139 -0.1725
 4300W        W 7819   8.025   1.447   0.332 -0.0553  0.3255 -0.4336
 4301W        W 7820   6.924   1.897   8.143  0.2114 -0.0034  0.1140
 4302W        W 7821   1.089   3.057   8.644 -0.0492  0.2178  0.0383
 4303W        W 7822   2.714   6.977  10.249  0.2386  0.0707  0.0310
 4304W        W 7823   9.332   1.308   7.878 -0.1440 -0.1292 -0.0367
 4305W        W 7824   7.105   2.703   1.168  0.1687 -0.0535  0.0968
 4306W        W 7825   0.922   6.584   0.453 -0.1229  0.1644  0.0454
 4307W        W 7826   5.116   4.263   4.378  0.0036  0.0580  0.0568
 4308W        W 7827   6.198   2.565   1.267 -0.2423  0.0264  0.0031
 4309W        W 7828   3.375   0.183   7.738 -0.0373 -0.1692  0.2664
 4310W        W 7829   6.079   3.625  11.459  0.2375  0.0551  0.0084
 4311W        W 7830   4.872   8.068   9.350  0.0012  0.3592  0.0738
 4312W        W 7831   9.487   3.074   8.382  0.0385 -0.0418  0.1218
 4313W        W 7832   0.539   3.724   1.042  0.3703 -0.1925 -0.1601
 4314W        W 7833   0.250   5.050   2.778  0.0090 -0.5970  0.3384
 4315W        W 7834   4.863   6.514   0.363  0.1529  0.2152  0.0432
 4316W        W 7835   1.929   6.649   9.182 -0.1121 -0.1886  0.1990
 4317W        W 7836   4.205   5.024   1.124 -0.0918 -0.0577  0.0349
 4318W        W 7837   3.496   3.975   1.733 -0.3762 -0.1109 -0.0279
 4319W        W 7838   7.404   8.638   8.938 -0.3280  0.1614 -0.0939
 4320W        W 7839   4.572   2.924   3.347  0.1458  0.0514  0.2190
 4321W        W 7840   1.566   7.058  10.969 -0.0178 -0.0489  0.0056
 4322W        W 7841   7.696   6.509  10.011  0.2031 -0.0435  0.1111
 4323W        W 7842   3.799   3.749   0.891 -0.2355  0.0299 -0.0456
 4324W        W 7843   8.821   3.589   8.984 -0.0436 -0.4583 -0.1754
 4325W        W 7844   1.227   5.518  10.741  0.2560 -0.1990  0.0148
 4326W        W 7845   9.966   8.585  10.487  0.3114 -0.1362 -0.2569
 4327W        W 7846   0.470   7.166   8.027 -0.0959 -0.1893 -0.1248
 4328W        W 7847   0.059   0.932   9.765  0.0985  0.1758 -0.4452
 4329W        W 7848   2.881   6.564   3.841 -0.2119 -0.4303  0.0179
 4330W        W 7849   7.957   3.577   1.759 -0.1763 -0.2062 -0.0701
 4331W        W 7850   2.598   4.574   7.952 -0.0390 -0.1430  0.3896
 4332W        W 7851   3.014  10.008   3.087  0.0066  0.0318 -0.0053
 4333W        W 7852   8.371   1.046   8.259  0.0505 -0.0209 -0.0765
 4334W        W 7853   4.685   1.911  10.623 -0.0363 -0.3555  0.3126
 4335W        W 7854   0.291   4.721   8.931 -0.1284 -0.0510  0.1655
 4336W        W 7855   1.182   0.304   7.995  0.0693 -0.1935 -0.1502
 4337W        W 7856  10.079   9.204   2.189 -0.2937 -0.1612  0.2172
 4338W        W 7857   2.383   1.816  10.603 -0.1464  0.1824  0.0831
 4339W        W 7858   8.759   6.599   2.774  0.3747  0.0698  0.0946
 4340W        W 7859   9.782   7.335   2.082  0.0408 -0.0601  0.0020
 4341W        W 7860   7.852   6.186   4.120 -0.1257  0.1682 -0.1643
 4342W        W 7861   7.521   9.972  11.380  0.1534 -0.2304  0.1957
 4343W        W 7862   0.151   0.574  11.339 -0.0646 -0.1130  0.3496
 4344W        W 7863   6.622   9.832   1.728  0.2118 -0.3885  0.0320
 4345W        W 7864   0.535   3.981   0.545  0.0629 -0.0717  0.0473
 4346W        W 7865   9.542   7.970   0.994  0.0741 -0.3696  0.0246
 4347W        W 7866   0.603   9.573   9.739  0.1120  0.0070  0.2091
 4348W        W 7867   0.591   3.279   2.290 -0.0825  0.3140  0.3696
 4349W        W 7868   2.614   7.961  10.416  0.2264 -0.0965  0.1316
 4350W        W 7869   3.197   4.034   9.075  0.3152  0.0324 -0.1300
 4351W        W 7870   5.730   3.310  11.113 -0.2724  0.1370 -0.1658
 4352W        W 7871   0.426   5.980   0.324 -0.0335  0.2655  0.1634
 4353W        W 7872   3.525   2.856   8.064  0.1351  0.0271 -0.1177
 4354W        W 7873   2.879   8.386   0.234 -0.2157 -0.1417  0.1453
 4355W        W 7874   3.010   9.388   9.992 -0.1508  0.4527  0.4140
 4356W        W 7875   8.635   6.249   9.647 -0.1081 -0.0457 -0.0963
 4357W        W 7876   2.540   7.677   3.036  0.1690  0.2300  0.0818
 4358W        W 7877   2.626   4.264   0.263  0.3555 -0.0969  0.0659
 4359W        W 7878   0.397   2.980   0.399 -0.0749 -0.3191 -0.1368
 4360W        W 7879   8.215   5.643  11.014 -0.1084  0.0654 -0.0271
 4361W        W 7880   1.565   3.618   3.247  0.2763  0.1250  0.2035
 4362W        W 7881   0.219   1.283   3.435 -0.1901 -0.1023 -0.2766
 4363W        W 7882   3.101   3.717   1.587  0.0677 -0.0166 -0.0299
 4364W        W 7883   6.368   6.338  11.215 -0.1390 -0.1973  0.2155
 4365W        W 7884   4.390   5.858   2.742  0.4071  0.0822 -0.2335
 4366W        W 7885   1.930   9.553   0.143 -0.1686 -0.0042  0.0029
 4367W        W 7886   8.816   0.052   9.365 -0.0789  0.1722  0.1705
 4368W        W 7887   2.110   5.358   4.065 -0.1583 -0.2681  0.4007
 4369W        W 7888   6.898   6.251   3.213  0.0858 -0.4782  0.0040
 4370W        W 7889   0.135   7.549   3.024  0.0127 -0.0385  0.1556
 4371W        W 7890   6.880   9.714   9.571 -0.3663  0.2232  0.1352
 4372W        W 7891   7.985   2.530   3.808 -0.0846 -0.1425 -0.0201
 4373W        W 7892   9.081   4.794   2.543  0.0984 -0.0362 -0.3868
 4374W        W 7893   7.364   1.634  10.888  0.1713 -0.2112  0.0257
 4375W        W 7894   5.574   6.439  10.569  0.2479  0.3701 -0.2753
 4376W        W 7895   6.588   5.707  10.557  0.3359  0.1231 -0.2977
 4377W        W 7896   5.794   1.289   0.274 -0.1149  0.1324 -0.0249
 4378W        W 7897   0.013   0.803   3.206  0.1312 -0.0139  0.0799
 4379W        W 7898   5.694   2.487   2.521  0.1145 -0.2591 -0.1410
 4380W        W 7899   9.992   1.977   2.660  0.1874  0.3876 -0.2737
 4381W        W 7900   0.303   9.036   1.685 -0.2672 -0.1159  0.0295
 4382W        W 7901   3.805   7.061   2.971  0.1444  0.2172 -0.0177
 4383W        W 7902  10.083   1.227  11.029 -0.0633  0.1202  0.2416
 4384W        W 7903   4.628   8.077   2.007  0.0315  0.0143 -0.0281
 4385W        W 7904   9.450   9.136  10.126 -0.2909  0.2469 -0.4142
 4386W        W 7905   8.845   2.373   8.520 -0.3314  0.3255 -0.0929
 4387W        W 7906   4.693   0.400   2.684 -0.3142 -0.2026 -0.1133
 4388W        W 7907   2.054   1.660   1.978 -0.2129  0.2111  0.0079
 4389W        W 7908   6.022   7.677   2.497  0.3126  0.2658  0.3172
 4390W        W 7909   8.207   1.327   8.707  0.0999  0.1278 -0.1347
 4391W        W 7910   7.379   7.246   3.118 -0.0461  0.0823 -0.0428
 4392W        W 7911   7.313   9.454  10.054 -0.0800  0.1783 -0.4116
 4393W        W 7912   6.685   7.726   1.263  0.3168 -0.4024 -0.0153
 4394W        W 7913   1.101   0.384   8.863  0.2140 -0.0139 -0.0400
 4395W        W 7914   2.932   2.417  10.973 -0.0123 -0.0377 -0.0057
 4396W        W 7915   0.649   6.508   9.162 -0.3831  0.0630  0.0971
 4397W        W 7916   7.690   7.021   9.988 -0.1844 -0.2176  0.0976
 4398W        W 7917   3.227   0.580   9.697 -0.2783 -0.0970 -0.3100
 4399W        W 7918   9.510   3.205   9.281 -0.0590 -0.3826 -0.0150
 4400W        W 7919   7.946   1.347   6.083 -0.0657 -0.0093  0.1095
 4401W        W 7920   8.760   9.993  10.763  0.1319  0.2920  0.2908
 4402W        W 7921   3.240   8.406  10.874 -0.0215 -0.2583 -0.0853
 4403W        W 7922   8.869   0.297   2.138  0.3688 -0.1463  0.1537
 4404W        W 7923   2.593   3.916  11.310 -0.3640 -0.1046  0.1175
 4405W        W 7924   6.023   5.176   0.024 -0.4817  0.2195  0.1611
 4406W        W 7925  10.033   9.689  11.581 -0.3899 -0.1958  0.3247
 4407W        W 7926   9.525   6.528   4.322 -0.2349  0.4269 -0.1452
 4408W        W 7927   9.090   1.409   2.243 -0.2872 -0.2468 -0.1253
 4409W        W 7928   2.257   6.534   3.129  0.0607  0.0355 -0.0317
 4410W        W 7929   5.738   4.438   8.330 -0.0119  0.2350  0.3707
 4411W        W 7930   9.196   1.555   8.579  0.3296 -0.5408  0.2942
 4412W        W 7931   8.749   5.524   1.118  0.2008  0.0348 -0.0502
 4413W        W 7932   1.173   3.653  10.342 -0.1190 -0.1266  0.1317
 4414W        W 7933   9.285   6.118  11.199  0.1894 -0.0852 -0.0054
 4415W        W 7934   7.823   7.781   1.657  0.0015 -0.0695  0.0556
 4416W        W 7935   8.585   7.915  10.285  0.1824  0.0604  0.0782
 4417W        W 7936   9.707   8.165   9.247 -0.0666  0.1590  0.3717
 4418W        W 7937   5.793   3.561   3.462 -0.0244  0.1196 -0.0491
 4419W        W 7938   8.585   9.995   7.458  0.0448  0.1852  0.1240
 4420W        W 7939   6.552   3.705   2.880  0.3368 -0.1076  0.3323
 4421W        W 7940   0.225   9.706   8.281  0.3171 -0.1259  0.0180
 4422W        W 7941   7.252   7.495   0.441  0.0376 -0.2096  0.2455
 4423W        W 7942   2.696   7.749   2.392  0.0344 -0.1620  0.1570
 4424W        W 7943   6.593   8.949  10.303  0.1115  0.0911 -0.0855
 4425W        W 7944   2.550   6.649   9.082 -0.0819 -0.0318  0.0738
 4426W        W 7945   3.629   7.773   2.277 -0.0569  0.0711 -0.2364
 4427W        W 7946   8.775   9.040   2.219 -0.2776 -0.0378  0.1651
 4428W        W 7947   0.779   0.106   1.242  0.2611 -0.1519  0.0938
 4429W        W 7948   8.362   1.822   8.357 -0.0524  0.1224 -0.2133
 4430W        W 7949   7.671   0.417   6.997 -0.0683  0.0355 -0.1551
 4431W        W 7950  10.002   2.951   0.112 -0.0062  0.3973 -0.0108
 4432W        W 7951   9.793   6.732   2.082 -0.2223 -0.1796  0.0498
 4433W        W 7952   3.605   9.408   2.557  0.1928 -0.2247  0.3645
 4434W        W 7953   7.735   9.317   0.921  0.2511 -0.1794  0.0113
 4435W        W 7954   0.676   9.428   7.851 -0.1343  0.1693  0.1560
 4436W        W 7955   7.181   8.145   1.403  0.1140 -0.0858  0.0197
 4437W        W 7956   2.841   9.362   7.567 -0.0840 -0.0205 -0.1629
 4438W        W 7957   8.349   7.618   0.034  0.0275 -0.1233 -0.0878
 4439W        W 7958   2.486   2.943   1.607  0.3321  0.1998  0.3166
 4440W        W 7959   7.021   6.047   8.300 -0.2253 -0.0453 -0.0537
 4441W        W 7960   8.701   9.635   1.414  0.2383 -0.1010 -0.0015
 4442W        W 7961   4.192   7.984   3.085 -0.1592 -0.0290  0.1442
 4443W        W 7962   4.386   4.533   1.118 -0.1826  0.2632  0.3645
 4444W        W 7963   1.525   0.464  11.600  0.1232 -0.1214  0.1309
 4445W        W 7964   0.611   1.261   8.919  0.0022 -0.2253  0.0580
 4446W        W 7965   7.871   5.489   1.926  0.0520 -0.2554 -0.0224
 4447W        W 7966   7.045   5.217   1.776 -0.0672 -0.1311 -0.2909
 4448W        W 7967   6.873   1.568   9.839  0.1153  0.1993  0.0604
 4449W        W 7968   3.194   4.526  11.157  0.1284 -0.1330 -0.0407
 4450W        W 7969   7.540   1.278   0.314 -0.2100  0.0617  0.0534
 4451W        W 7970   7.180   1.910   9.239  0.2733  0.0628 -0.0728
 4452W        W 7971   7.971   1.772   0.685 -0.4084  0.0825 -0.2975
 4453W        W 7972   6.645   1.853   8.806 -0.2626  0.0226 -0.0304
 4454W        W 7973   8.211   5.283   3.122 -0.1342 -0.0555  0.0614
 4455W        W 7974   9.645   7.418  11.578 -0.2304  0.1678  0.0630
 4456W        W 7975   2.299   5.814  10.810  0.0903  0.1311 -0.0935
 4457W        W 7976   8.063   2.401   2.382 -0.0185 -0.1337 -0.4200
 4458W        W 7977   0.706   2.049  10.545 -0.2510 -0.1390  0.0773
 4459W        W 7978   5.707   8.421   7.991 -0.1278 -0.1134 -0.1894
 4460W        W 7979   2.417   6.949   1.479  0.0923  0.0470 -0.2248
 4461W        W 7980   2.603   6.112   8.895  0.2511 -0.1364 -0.0405
 4462W        W 7981   5.436   8.318   2.062  0.2048 -0.0428  0.1131
 4463W        W 7982   2.190   7.934   3.398  0.1429 -0.3556 -0.1324
 4464W        W 7983   9.306   6.184   0.050 -0.1945  0.0011 -0.1160
 4465W        W 7984   4.919   6.643   0.949 -0.2550 -0.1184  0.0881
 4466W        W 7985   3.445   5.554   8.008  0.2039 -0.1072 -0.1745
 4467W        W 7986   8.465   8.712   2.525 -0.0710 -0.2829  0.0873
 4468W        W 7987   9.626   8.400   8.500 -0.0602  0.2012  0.1251
 4469W        W 7988   1.440   6.817   8.221  0.1178  0.3115 -0.0405
 4470W        W 7989   4.031   7.664   3.468  0.2575  0.0485 -0.0981
 4471W        W 7990   6.828   0.492   0.130 -0.4094  0.0637 -0.2303
 4472W        W 7991   7.738   0.762   1.006 -0.1195 -0.0166  0.0107
 4473W        W 7992   1.140   2.666   1.157 -0.0555 -0.2565  0.0055
 4474W        W 7993   5.066   6.149   8.798  0.1492 -0.2534 -0.3160
 4475W        W 7994   8.390   4.077  10.255 -0.0993  0.1663 -0.0417
 4476W        W 7995   3.019   1.039   8.752 -0.3063 -0.4264 -0.0418
 4477W        W 7996   0.822   2.902  10.353  0.2107 -0.2187 -0.1897
 4478W        W 7997   8.836   9.792   9.714  0.0262  0.0194 -0.0166
 4479W        W 7998   3.327   7.306   9.688  0.0102 -0.0282 -0.1443
 4480W        W 7999   1.282   9.459  10.894 -0.0872  0.1425  0.0562
 4481W        W 8000   4.095   4.094  11.089 -0.2943 -0.2960 -0.2007
 4482W        W 8001   8.890   4.418   9.729  0.2948 -0.3223 -0.1414
 4483W        W 8002   2.329   2.330   7.886  0.0240 -0.1424 -0.0962
 4484W        W 8003   3.263   9.227  10.390  0.0999  0.0512  0.0775
 4485W        W 8004   7.050   4.338  11.122 -0.2236  0.1186 -0.1914
 4486W        W 8005   1.178   2.141   1.106 -0.3210 -0.1291 -0.0140
 4487W        W 8006   2.181   3.884   9.056  0.2037  0.1036  0.1615
 4488W        W 8007   1.305   9.333  10.353 -0.1696 -0.0831  0.0833
 4489W        W 8008   0.477   0.578  10.603 -0.0093 -0.0574  0.1362
 4490W        W 8009   7.303   8.975   7.068  0.2030 -0.1831  0.0514
 4491W        W 8010   5.033   6.368   9.251 -0.1342  0.1451 -0.3302
 4492W        W 8011   4.459   2.295   9.759 -0.0860 -0.0659 -0.0311
 4493W        W 8012   8.008   3.280   4.503  0.1996  0.0943 -0.3341
 4494W        W 8013   1.655   5.688   0.445  0.2010  0.0561 -0.0670
 4495W        W 8014   4.411   1.439   0.502 -0.1160  0.3139  0.0837
 4496W        W 8015   2.159   9.120   6.994 -0.0104  0.3243  0.2200
 4497W        W 8016   3.880   1.280   8.079  0.0859  0.0038 -0.3459
 4498W        W 8017   7.253   8.022  10.233 -0.0060  0.0426  0.1320
 4499W        W 8018   1.646   0.245  11.154  0.2156  0.1186  0.1098
 4500W        W 8019   6.456   8.004   0.884 -0.1976  0.1177  0.0879
 4501W        W 8020   7.563   1.386   7.871 -0.0375 -0.0456  0.1190
 4502W        W 8021   4.187   6.155   8.534  0.3148 -0.0414 -0.3178
 4503W        W 8022   0.101   2.149   9.756  0.1282 -0.4900 -0.0163
 4504W        W 8023   4.095   0.684   2.203 -0.0672 -0.3347  0.0554
 4505W        W 8024   0.171   5.015   8.545 -0.0426 -0.0324  0.1154
 4506W        W 8025   9.108   1.029   9.674 -0.2923  0.2357 -0.1489
 4507W        W 8026   4.551   7.734   0.265 -0.0302  0.0247 -0.1902
 4508W        W 8027   6.058   3.876   2.793  0.1064  0.1595 -0.1380
 4509W        W 8028   4.560   1.055   1.295  0.1940  0.1682 -0.1383
 4510W        W 8029   3.778   7.909   8.203  0.0032 -0.2707 -0.1462
 4511W        W 8030   8.751   2.430   1.931 -0.1084  0.1768 -0.1657
 4512W        W 8031   0.259   4.690   0.067  0.3209 -0.2083 -0.0298
 4513W        W 8032   6.762   7.964   9.286  0.2741  0.1593 -0.0762
 4514W        W 8033   7.497   2.177   8.871 -0.0106 -0.1148  0.1685
 4515W        W 8034   9.745   1.382  11.384 -0.0400  0.1782 -0.0826
 4516W        W 8035   1.922   7.646   9.035 -0.2172 -0.1937  0.0355
 4517W        W 8036   9.430   3.732   2.323 -0.1012 -0.3244  0.3072
 4518W        W 8037   9.962   8.338   1.047 -0.0126  0.0628 -0.0168
 4519W        W 8038   2.963   8.958   1.912  0.3572  0.2795  0.0394
 4520W        W 8039   8.485   5.905   1.408  0.0955 -0.1030 -0.3897
 4521W        W 8040   0.879   9.851   3.787 -0.2911  0.0599 -0.2168
 4522W        W 8041   3.861   5.866   2.381 -0.1644  0.2264  0.1361
 4523W        W 8042   7.180   3.316   8.272  0.3320 -0.0240 -0.2339
 4524W        W 8043   4.964   1.374   3.391  0.1066  0.4577 -0.0848
 4525W        W 8044   3.092   2.859   3.155 -0.0705  0.0106 -0.3354
 4526W        W 8045   6.092   8.896   8.600 -0.0941  0.3014  0.2513
 4527W        W 8046   2.609   3.248   7.611 -0.0086 -0.2529  0.0193
 4528W        W 8047   4.267   7.847   1.715 -0.1407 -0.3161 -0.0818
 4529W        W 8048   5.711   6.637   2.880  0.5237  0.0245  0.0785
 4530W        W 8049   4.728   7.552   2.130 -0.3492 -0.2646 -0.1588
 4531W        W 8050   1.988   7.369  10.397  0.2401 -0.0372  0.3727
 4532W        W 8051   9.251   6.189   0.714 -0.1416 -0.0933  0.1753
 4533W        W 8052   8.367   1.569   2.959  0.0227 -0.0620  0.0550
 4534W        W 8053   1.199   7.281  11.596  0.4802  0.0010 -0.2306
 4535W        W 8054   3.902   6.848   8.104  0.1376  0.0954  0.2116
 4536W        W 8055   7.150   5.273   1.212 -0.3431 -0.0703 -0.0654
 4537W        W 8056   6.375   7.048   3.597  0.0217  0.1292 -0.0384
 4538W        W 8057   4.906   9.667   3.044  0.0612  0.0437  0.1534
 4539W        W 8058   3.583   5.306   1.673 -0.0957 -0.0973  0.0912
 4540W        W 8059   7.090   8.157   8.195  0.2076  0.2324 -0.3218
 4541W        W 8060   9.269   3.880   0.584  0.1184 -0.2674  0.2165
 4542W        W 8061   0.674   2.122   3.679 -0.1115 -0.1427 -0.0584
 4543W        W 8062   6.699   1.225  11.581 -0.2091  0.1530  0.1379
 4544W        W 8063   5.732   8.865   8.211 -0.2815  0.3544 -0.0193
 4545W        W 8064   5.889   0.071   1.991 -0.1806 -0.0094 -0.1013
 4546W        W 8065   4.941   6.877   7.477  0.3337 -0.0914 -0.0826
 4547W        W 8066   2.985   0.553  10.155 -0.1885  0.1400  0.1573
 4548W        W 8067   3.314   8.259   0.418 -0.2142 -0.0356 -0.2198
 4549W        W 8068   4.346   4.824   2.774  0.0405 -0.0094 -0.3590
 4550W        W 8069   0.425   2.585   0.714  0.0535 -0.0341 -0.3254
 4551W        W 8070   1.411   7.443   9.137  0.0596 -0.0744 -0.1591
 4552W        W 8071   2.897   1.355  11.038 -0.1816  0.0388 -0.1543
 4553W        W 8072   5.134   7.778   9.012  0.1119  0.1271  0.0321
 4554W        W 8073   1.194   3.449   3.559  0.3992  0.0150 -0.2896
 4555W        W 8074   2.711   1.476   1.306 -0.3091 -0.0304  0.0330
 4556W        W 8075   6.261   4.122   9.537 -0.2252  0.0330  0.1227
 4557W        W 8076   3.388   4.589  10.030 -0.3344  0.1004  0.1245
 4558W        W 8077   4.056   8.999   9.459 -0.0570 -0.1592  0.0405
 4559W        W 8078   4.839   5.914  11.521  0.0890 -0.2177  0.1579
 4560W        W 8079   8.877   9.962   2.340  0.1798 -0.1599  0.0591
 4561W        W 8080   6.915   1.406   8.951 -0.0748  0.0168  0.1526
 4562W        W 8081   9.162   2.184   1.692 -0.1203  0.3322  0.0706
 4563W        W 8082   6.371   8.776   9.211  0.0483 -0.2816  0.0942
 4564W        W 8083   1.170   3.159   8.144 -0.0418 -0.2503 -0.0110
 4565W        W 8084   3.033   9.427  10.812  0.0156  0.1213 -0.0065
 4566W        W 8085   5.067   4.293   9.817  0.0571 -0.1809 -0.0267
 4567W        W 8086   6.225   5.063   2.233  0.1346  0.2222 -0.1559
 4568W        W 8087   6.414   9.028  11.136  0.1092 -0.3492 -0.2832
 4569W        W 8088   3.805   0.624   0.776 -0.1587  0.0704 -0.0826
 4570W        W 8089   4.128   8.849  11.152  0.0448  0.0077  0.0002
 4571W        W 8090   8.664   9.857   0.873  0.2103  0.0470 -0.1872
 4572W        W 8091   0.346   4.688   1.973 -0.0871  0.2923 -0.0596
 4573W        W 8092   5.612   2.053   8.826  0.1755  0.0632  0.0356
 4574W        W 8093   5.776   8.977  11.595  0.1560 -0.1909 -0.0791
 4575W        W 8094   3.697   2.494   0.864 -0.0827  0.1217  0.0643
 4576W        W 8095   4.838   2.676   2.963  0.0200  0.3053 -0.0806
 4577W        W 8096   4.969   4.603   1.935 -0.1909  0.0629  0.0213
 4578W        W 8097   5.434   5.377   7.770 -0.0442  0.1208 -0.1337
 4579W        W 8098   7.956   4.867   8.440  0.1892 -0.0656  0.1613
 4580W        W 8099   4.736   5.087   2.502 -0.0840 -0.2826 -0.1543
 4581W        W 8100   9.504   7.622   9.520  0.1062  0.4258  0.0604
 4582W        W 8101   4.139   2.390   1.503 -0.0493  0.7057 -0.0141
 4583W        W 8102   4.976   9.170   8.456 -0.1463 -0.3038 -0.1245
 4584W        W 8103   6.877   3.528   8.671  0.1205  0.0741  0.2148
 4585W        W 8104   6.735   1.675   0.118  0.0499 -0.3662  0.1473
 4586W        W 8105   0.084   3.882   9.727 -0.2884  0.0749  0.3028
 4587W        W 8106   6.782   3.705   3.943 -0.2422 -0.1128  0.1397
 4588W        W 8107   5.712   9.189  10.560  0.0239  0.0061  0.0142
 4589W        W 8108   2.411   5.136   2.936  0.1332  0.0544 -0.3096
 4590W        W 8109   8.053   3.062   1.617  0.0477 -0.2760 -0.0154
 4591W        W 8110   7.565   5.583   4.292  0.0427  0.2851 -0.0822
 4592W        W 8111   5.688   8.715  10.475  0.1365 -0.1540  0.1916
 4593W        W 8112   4.582   0.185   1.350 -0.1081 -0.3604 -0.1999
 4594W        W 8113   2.073   1.210   1.733 -0.4001 -0.4317 -0.0210
 4595W        W 8114   7.789   7.367   9.588 -0.1016  0.0389 -0.0083
 4596W        W 8115   8.105   7.849   2.028 -0.2079  0.1112  0.0942
 4597W        W 8116   0.664   4.006   9.166 -0.0404 -0.2511  0.1845
 4598W        W 8117   3.885   7.852  10.318 -0.4255  0.1033  0.0183
 4599W        W 8118   8.052   4.585   0.036 -0.0741  0.2054  0.0875
 4600W        W 8119   3.453   9.234   0.218  0.1292 -0.1982  0.2283
 4601W        W 8120   1.451   4.148   1.818 -0.4110 -0.0595 -0.0219
 4602W        W 8121   7.432   6.052   1.509  0.0046  0.0033  0.0726
 4603W        W 8122   5.227   4.364   1.549 -0.2050  0.2145 -0.2597
 4604W        W 8123   9.658   3.291   9.815 -0.2377 -0.4505  0.1950
 4605W        W 8124   5.667   5.316  11.351  0.2563 -0.1627  0.0736
 4606W        W 8125   3.232   1.424   1.341  0.0292 -0.1390 -0.0833
 4607W        W 8126   6.391   5.820   9.084  0.3791 -0.1708  0.2702
 4608W        W 8127   0.140   2.225   8.307  0.0279 -0.0300 -0.1351
 4609W        W 8128   1.360   5.922   2.105  0.0197  0.5093  0.0470
 4610W        W 8129   6.741   9.315   7.380 -0.4913  0.0776  0.2190
 4611W        W 8130   5.229   3.203  11.308  0.1030 -0.0021  0.0441
 4612W        W 8131   8.067   1.661   2.289  0.0822 -0.0974 -0.0318
 4613W        W 8132   8.724   8.402   0.525 -0.1908 -0.3334 -0.1365
 4614W        W 8133   7.867   4.710  11.183 -0.0318 -0.1121  0.1725
 4615W        W 8134   9.109   9.868  11.155 -0.0687  0.0047  0.0002
 4616W        W 8135   1.534   2.779  11.168 -0.1357  0.0981  0.0012
 4617W        W 8136   4.185   8.331   8.278  0.2703  0.0996 -0.2097
 4618W        W 8137   1.944   9.509   6.759 -0.1974  0.0530  0.0204
 4619W        W 8138   9.644   3.248   0.500 -0.0489 -0.0160  0.2797
 4620W        W 8139   0.089   5.048   9.844 -0.2929 -0.5783  0.0216
 4621W        W 8140   1.881   3.593   9.542 -0.3102  0.0188  0.0588
 4622W        W 8141   4.273   9.580  11.528  0.1348 -0.0588  0.2746
 4623W        W 8142   9.562   2.952   7.857 -0.1604 -0.3028 -0.0887
 4624W        W 8143   9.997   1.827   9.436  0.1413 -0.1261 -0.0378
 4625W        W 8144   4.757   7.639   7.839 -0.1462 -0.0297  0.0492
 4626W        W 8145   1.003   9.730   1.373  0.1511 -0.2223  0.0617
 4627W        W 8146   5.101   0.992   1.592  0.1897  0.2252 -0.1365
 4628W        W 8147   6.510   9.088   0.200  0.1332 -0.0498  0.0369
 4629W        W 8148   3.717   6.575   3.756 -0.1067  0.0756 -0.1287
 4630W        W 8149   8.490   1.594   7.360  0.1279  0.1064 -0.5783
 4631W        W 8150   2.419   2.476  11.458  0.4663  0.2545  0.1611
 4632W        W 8151   2.017   1.610   6.914  0.0711  0.0316  0.3169
 4633W        W 8152   2.625   5.061   2.355 -0.2790 -0.0296  0.0253
 4634W        W 8153   3.506   2.915  11.602 -0.0131  0.4762  0.3329
 4635W        W 8154   7.718   9.607   1.858 -0.1993 -0.1109  0.1302
 4636W        W 8155   7.193  10.086   7.899  0.0833  0.0810  0.3114
 4637W        W 8156   6.816   1.636   9.395  0.1192  0.0881  0.0137
 4638W        W 8157   2.605   9.545   0.025 -0.3526 -0.3687  0.2396
 4639W        W 8158   4.169   1.435   1.420  0.1227 -0.1465 -0.2137
 4640W        W 8159   9.872   0.292   1.772  0.0520 -0.0903 -0.0670
 4641W        W 8160   6.247   0.240   0.346  0.1990 -0.2357  0.1149
 4642W        W 8161   0.458   9.034   0.333  0.0006  0.0880  0.1662
 4643W        W 8162   4.148   2.188   3.874  0.2449 -0.1160  0.0215
 4644W        W 8163   9.275   8.219   8.926  0.0208 -0.0863  0.0206
 4645W        W 8164   5.445   1.393  10.954 -0.3199  0.4612 -0.0137
 4646W        W 8165   6.617  10.029  10.516  0.3519  0.1014  0.0107
 4647W        W 8166   5.606   7.044   0.567 -0.1180 -0.3344  0.2118
 4648W        W 8167   0.699   8.829  10.343  0.0522 -0.3163 -0.0835
 4649W        W 8168   4.243   2.653   8.833  0.1654  0.1089  0.0914
 4650W        W 8169   8.250   0.008   8.819  0.1363  0.0384  0.0429
 4651W        W 8170   6.993   9.648   2.640 -0.1125  0.2142 -0.0060
 4652W        W 8171   8.244   8.360  11.113  0.1552  0.0088 -0.0782
 4653W        W 8172   8.277   0.281   3.788 -0.1514  0.1598 -0.0190
 4654W        W 8173   4.005   9.452   9.751  0.1215 -0.2695 -0.4629
 4655W        W 8174   2.675   3.274   1.934 -0.0639 -0.1582 -0.2130
 4656W        W 8175   8.427   8.372   7.775 -0.0153 -0.3534  0.3255
 4657W        W 8176   7.926   9.095  11.216  0.0425  0.2685 -0.1171
 4658W        W 8177   4.278   1.232   0.933 -0.2127  0.1065 -0.1682
 4659W        W 8178   5.269   8.352   7.765 -0.0192  0.1328  0.0081
 4660W        W 8179   5.026   6.590   8.246 -0.1315  0.1314 -0.3512
 4661W        W 8180   1.436   3.700   2.180 -0.2360  0.0993 -0.0987
 4662W        W 8181   0.036   3.887   2.979 -0.3499  0.2739 -0.0938
 4663W        W 8182   5.708   2.200  10.722  0.1775  0.2180  0.2696
 4664W        W 8183   5.768   1.710   9.212  0.2881 -0.0131 -0.3384
 4665W        W 8184   4.272   1.474  10.483 -0.0408  0.1318  0.1257
 4666W        W 8185   0.380   9.157   8.165  0.1722  0.2054 -0.1945
 4667W        W 8186   0.074   8.810   8.355  0.1147  0.1665 -0.1110
 4668W        W 8187   6.020   5.483   9.515  0.1983 -0.0047  0.0058
 4669W        W 8188   3.100   4.137   1.894 -0.0543  0.1197 -0.0764
 4670W        W 8189   0.529   7.584  10.180  0.1668  0.0942 -0.0751
 4671W        W 8190  10.059   5.555  11.108 -0.1656 -0.2673  0.4038
 4672W        W 8191   4.027   1.466   2.584  0.0826 -0.1038 -0.0893
 4673W        W 8192   1.390   1.733   2.451 -0.0571 -0.0909 -0.1433
 4674W        W 8193   3.916   4.436  10.214  0.0970 -0.1105 -0.1094
 4675W        W 8194   7.644   6.069   0.951  0.0828  0.2298  0.2604
 4676W        W 8195   5.319   0.914  10.300 -0.0566 -0.1065  0.0743
 4677W        W 8196   3.854   0.437   8.579  0.1961 -0.1154 -0.0493
 4678W        W 8197   3.711   7.703   2.998 -0.1813 -0.0184  0.1474
 4679W        W 8198   6.275   2.526  11.326 -0.0965  0.2412 -0.1727
 4680W        W 8199   6.487   5.407  11.612  0.3433 -0.0586  0.0832
 4681W        W 8200  10.078   5.572   8.935 -0.2010 -0.2264 -0.2597
 4682W        W 8201   9.455   4.613   8.007 -0.2127  0.2469 -0.0627
 4683W        W 8202   1.982   7.498   8.203 -0.2693  0.1175  0.0708
 4684W        W 8203   5.671   3.794   8.209  0.2194 -0.1080 -0.1468
 4685W        W 8204   4.596   1.594   7.439 -0.4257 -0.0119 -0.0392
 4686W        W 8205   3.606   3.680   8.912 -0.1340 -0.0570 -0.1169
 4687W        W 8206   4.218   5.062   7.869  0.1935 -0.2343 -0.0381
 4688W        W 8207   3.783   2.716   9.947 -0.1965 -0.0099 -0.0367
 4689W        W 8208   0.278   1.145  10.637 -0.0697  0.2607  0.0326
 4690W        W 8209   5.721   3.892  11.112 -0.1005 -0.0132  0.1228
 4691W        W 8210   5.488   0.373  10.430  0.1767 -0.1477  0.0119
 4692W        W 8211   0.367   9.879  10.118 -0.2780 -0.1419  0.0979
 4693W        W 8212   0.526   2.064  10.053  0.0433  0.0063 -0.3506
 4694W        W 8213   8.607   3.571   0.834 -0.2536  0.0251 -0.1431
 4695W        W 8214   5.557   0.806   0.431  0.1353 -0.4622 -0.0616
 4696W        W 8215   4.022   8.618   1.289  0.0490  0.0133  0.0975
 4697W        W 8216   4.142   8.378  11.499  0.0023 -0.1940 -0.0119
 4698W        W 8217   2.888   8.815   2.472  0.0043 -0.0003 -0.2539
 4699W        W 8218   6.737   4.518   0.891  0.1600 -0.1075  0.0346
 4700W        W 8219   2.221   2.779   8.903  0.0857 -0.1305  0.1944
 4701W        W 8220   4.502   8.520   2.256  0.0671  0.0135  0.1142
 4702W        W 8221   0.619   1.606   2.736  0.0649  0.1210  0.2564
 4703W        W 8222   6.728   0.579   9.885 -0.3204 -0.1464 -0.3617
 4704W        W 8223   1.721   9.066   1.021 -0.1294  0.2908  0.0440
 4705W        W 8224   4.337   7.423   8.834  0.1612 -0.0325  0.1740
 4706W        W 8225   7.065   2.111  10.789  0.0566 -0.2002 -0.0233
 4707W        W 8226   3.645   4.769  10.509 -0.1355  0.1487 -0.2221
 4708W        W 8227   8.256   3.106   0.146  0.1119  0.1942 -0.2242
 4709W        W 8228   8.249   1.552  10.122 -0.1854 -0.1231 -0.1811
 4710W        W 8229  10.072   0.337   0.190  0.0801  0.0600  0.1179
 4711W        W 8230   8.919   5.419   8.355  0.2730 -0.1090  0.1593
 4712W        W 8231   5.377   9.397   9.581  0.0860  0.0901  0.1863
 4713W        W 8232   0.872   8.332   3.616  0.2399  0.1637  0.0564
 4714W        W 8233   5.232   8.590  10.178  0.2129 -0.1202 -0.1349
 4715W        W 8234   0.735   5.185   2.696 -0.0242  0.2013 -0.0412
 4716W        W 8235   3.264   6.622   0.453  0.4579 -0.0577 -0.3901
 4717W        W 8236   6.579   5.233   4.144  0.0244 -0.1922  0.2854
 4718W        W 8237   3.697   9.102   8.518 -0.2341 -0.0430  0.2873
 4719W        W 8238   7.617   8.929   1.265  0.0417  0.0059 -0.0377
 4720W        W 8239   6.687   3.760   9.213 -0.0187  0.1471 -0.2996
 4721W        W 8240   1.254   4.950   0.995  0.2047  0.0780  0.0137
 4722W        W 8241   1.392   4.154   8.273  0.0038  0.0251  0.0465
 4723W        W 8242  10.053   2.719   9.554  0.0743  0.1498 -0.3787
 4724W        W 8243   2.949   2.284   3.402  0.1864  0.2261 -0.1457
 4725W        W 8244   4.513   5.374   1.867 -0.0991 -0.3158  0.0392
 4726W        W 8245   5.213   2.440   2.729 -0.1914 -0.1741  0.0970
 4727W        W 8246   0.044   7.927   2.583 -0.2385 -0.1686  0.3052
 4728W        W 8247   3.558   2.933   7.570  0.2807 -0.2592  0.0583
 4729W        W 8248  10.085   9.979   2.991  0.1065  0.0866  0.1063
 4730W        W 8249   8.391   2.020   2.105  0.0099 -0.2208  0.3954
 4731W        W 8250   2.893   7.408   0.336 -0.1345 -0.3215 -0.2733
 4732W        W 8251   0.768   6.825   1.235 -0.2717  0.1967  0.0717
 4733W        W 8252   1.307   5.507   8.676  0.0097  0.0391 -0.1657
 4734W        W 8253   8.613   9.614   3.448  0.1626 -0.2513  0.4605
 4735W        W 8254   9.700   7.935   8.813  0.1583  0.0276 -0.2121
 4736W        W 8255   9.476   8.326   2.372  0.1548 -0.0737  0.1311
 4737W        W 8256   0.891   4.714  10.348  0.1852  0.2698  0.0501
 4738W        W 8257   9.681   8.715   0.796  0.5644  0.0484  0.1392
 4739W        W 8258   5.711   8.547   9.482  0.0481  0.2333 -0.1036
 4740W        W 8259   6.119   3.964  10.407  0.0617 -0.1553  0.0834
 4741W        W 8260   7.123   4.564   0.591  0.1425  0.1048  0.4115
 4742W        W 8261   0.983   3.120   0.434 -0.0883  0.0691  0.1075
 4743W        W 8262   5.610   0.647   2.594  0.1981 -0.1414 -0.0947
 4744W        W 8263   4.848   8.769   3.031  0.1543  0.2417  0.2389
 4745W        W 8264   3.692   1.078   0.115  0.0094  0.0822  0.4440
 4746W        W 8265   2.870   9.491   3.152  0.1123  0.2524 -0.2166
 4747W        W 8266   9.326   5.500   1.891 -0.1562  0.2082 -0.2961
 4748W        W 8267   5.024   8.259   1.653 -0.2328  0.1340  0.2308
 4749W        W 8268   4.580   1.140   3.060 -0.1084 -0.0064 -0.0358
 4750W        W 8269   1.520   6.982   9.404 -0.1683  0.3388  0.0517
 4751W        W 8270   1.158   9.247   8.492 -0.0843  0.0212 -0.0890
 4752W        W 8271   6.662   0.730   7.849  0.0890  0.3298  0.0322
 4753W        W 8272   0.134   9.995   1.949 -0.0062  0.2196  0.2147
 4754W        W 8273   6.114   1.232   7.020  0.2112 -0.0846 -0.1023
 4755W        W 8274   5.833   6.928   2.236 -0.1201 -0.0368 -0.0775
 4756W        W 8275   5.498   6.594   2.381 -0.0468 -0.0476  0.2225
 4757W        W 8276   6.700   2.949   3.430  0.0522  0.0710  0.2387
 4758W        W 8277   2.109   3.101   1.919  0.1837  0.1721  0.1019
 4759W        W 8278   7.752   3.879   1.428 -0.1782 -0.0735  0.1403
 4760W        W 8279   9.440   8.466   1.176  0.0177  0.1734 -0.3639
 4761W        W 8280   9.806   8.629   9.991 -0.2742  0.2301  0.0599
 4762W        W 8281   4.384   8.282   1.286 -0.0426 -0.2878 -0.4198
 4763W        W 8282   6.072   7.244   2.921 -0.1228 -0.0396  0.3059
 4764W        W 8283   3.557   5.086   0.181 -0.1765 -0.4752  0.4827
 4765W        W 8284   7.582   0.907   7.895  0.1095  0.1172  0.0265
 4766W        W 8285   1.863   8.597   8.778  0.3279  0.1337 -0.0438
 4767W        W 8286   3.515   4.634   0.585  0.0375 -0.0848  0.3087
 4768W        W 8287   5.413   5.351   1.003  0.0319 -0.3170  0.0380
 4769W        W 8288   4.098   9.224   8.262 -0.4882 -0.0558 -0.0004
 4770W        W 8289   4.709   8.255   0.419 -0.0102  0.1178 -0.1740
 4771W        W 8290   9.740   1.962   9.893 -0.3720  0.1598 -0.0427
 4772W        W 8291   0.189   6.341   1.614  0.1314 -0.0991  0.2508
 4773W        W 8292   4.273   2.444   7.813  0.0636 -0.3392  0.0585
 4774W        W 8293   3.296   8.332   3.418  0.0262 -0.0223 -0.0426
 4775W        W 8294   8.888   2.188  10.345 -0.0939 -0.3362 -0.0765
 4776W        W 8295   0.465   4.952   0.753  0.2857 -0.2235  0.3376
 4777W        W 8296   0.966   5.751   0.886  0.1486  0.0367  0.3074
 4778W        W 8297   4.184   4.527   2.155 -0.1241  0.0111 -0.0966
 4779W        W 8298   4.410   0.690   7.988 -0.0590  0.0296 -0.1242
 4780W        W 8299   8.294   1.826   8.868  0.0760  0.1225 -0.1839
 4781W        W 8300   8.969   2.269  11.171  0.2173 -0.0494 -0.2807
 4782W        W 8301  10.050   8.768   3.150  0.2797  0.0762  0.2296
 4783W        W 8302   7.050   6.052   1.963 -0.0086  0.2134  0.0667
 4784W        W 8303   0.695   1.189   1.306 -0.1546 -0.0182 -0.1828
 4785W        W 8304   0.756   9.024   2.934 -0.0670 -0.0602 -0.2610
 4786W        W 8305   4.489   9.814   9.070 -0.1574  0.0489 -0.0431
 4787W        W 8306   3.413   6.326   2.181  0.0134 -0.0307  0.3254
 4788W        W 8307   9.413   7.190   0.641 -0.3673 -0.2308 -0.1244
 4789W        W 8308   2.465   3.539   9.601 -0.6367  0.1651  0.1303
 4790W        W 8309   1.774   9.404  11.229 -0.0826 -0.1551 -0.0688
 4791W        W 8310   0.786   1.311   2.291  0.3412  0.0501  0.0071
 4792W        W 8311   7.533   3.892  10.331 -0.1059  0.0276  0.1092
 4793W        W 8312   0.621   1.347   3.153 -0.0390  0.0937  0.3160
 4794W        W 8313   8.599   4.014   1.087 -0.0998  0.0167 -0.2973
 4795W        W 8314   3.972   1.636  10.082  0.2848 -0.1095  0.0905
 4796W        W 8315   8.226   0.935   0.372  0.3280 -0.0121 -0.5016
 4797W        W 8316   4.437   4.835   8.827 -0.1269  0.0017 -0.0088
 4798W        W 8317   0.366   8.433   3.472  0.1352  0.1820 -0.2416
 4799W        W 8318   5.555  10.060   2.474 -0.0909  0.0581 -0.1166
 4800W        W 8319   4.254   5.308   0.687 -0.1783  0.0266 -0.0566
 4801W        W 8320   3.731   8.922   9.004 -0.0492 -0.0844 -0.0182
 4802W        W 8321   2.034   0.608   7.387  0.2777  0.2922 -0.2114
 4803W        W 8322   7.981   3.706  10.125 -0.4419  0.1890  0.2277
 4804W        W 8323   1.279   5.837   9.012 -0.0194  0.0198 -0.1156
 4805W        W 8324   6.666   0.553   9.314 -0.0552 -0.2422 -0.1081
 4806W        W 8325   2.137   5.686   0.264  0.1769  0.1885 -0.2256
 4807W        W 8326   3.288   7.739   9.248  0.2023  0.1066  0.1429
 4808W        W 8327   4.329   0.159   2.421  0.2498  0.0232  0.3281
 4809W        W 8328   3.718   2.107   1.759 -0.3743 -0.1264  0.1419
 4810W        W 8329   2.362   6.863   3.428 -0.1577 -0.1504  0.0655
 4811W        W 8330   1.133   9.041   1.169  0.2328 -0.2172 -0.2981
 4812W        W 8331   4.599   6.490   2.690 -0.2190 -0.0539  0.0556
 4813W        W 8332   8.102   9.352   9.919  0.0925 -0.0127 -0.2428
 4814W        W 8333   3.847   4.454   8.385 -0.0465 -0.0314 -0.1609
 4815W        W 8334   1.482   1.269   9.232  0.3100 -0.0343  0.0573
 4816W        W 8335   0.154   4.104   0.903 -0.0174  0.1264 -0.0830
 4817W        W 8336   8.091   6.788  11.185 -0.4668 -0.1883 -0.1747
 4818W        W 8337   6.852   1.466   7.454 -0.2321  0.1716  0.1936
 4819W        W 8338   3.702   7.948   0.509  0.5695  0.0554  0.2741
 4820W        W 8339   1.501   5.994   9.476 -0.1916  0.2892 -0.0296
 4821W        W 8340   0.840   3.605   2.000  0.0354 -0.1676 -0.0767
 4822W        W 8341   9.553   1.353   9.335  0.3220 -0.1538 -0.0551
 4823W        W 8342   7.149   6.987  11.344 -0.4012 -0.0981  0.1084
 4824W        W 8343   8.665   5.486   8.831  0.2068  0.2182  0.0744
 4825W        W 8344   2.121   3.427   3.186 -0.0099 -0.0227 -0.0626
 4826W        W 8345   9.157   7.978   2.195  0.2109 -0.2302 -0.4670
 4827W        W 8346   8.825   5.736   2.148 -0.0343  0.4067  0.0868
 4828W        W 8347   8.288   3.572  11.552  0.1189 -0.2037 -0.0577
 4829W        W 8348   7.392   2.366   1.906  0.3048 -0.0339 -0.1392
 4830W        W 8349   5.750   0.858  10.003  0.3715 -0.4775  0.4776
 4831W        W 8350   2.617   7.436   9.585  0.0194 -0.1295 -0.3313
 4832W        W 8351   1.114   3.787   9.118 -0.0668 -0.0865  0.1147
 4833W        W 8352   3.054   0.853   2.245  0.0211 -0.1627  0.1752
 4834W        W 8353   2.694   2.248   8.193  0.3262 -0.2504  0.4261
 4835W        W 8354   9.704   1.671   2.935 -0.1741 -0.2849 -0.3326
 4836W        W 8355   5.838   4.535  10.340  0.0571  0.0519  0.2959
 4837W        W 8356   4.053   6.208   8.992 -0.3662 -0.1281 -0.1840
 4838W        W 8357   4.986   9.743   9.236  0.0671 -0.3261 -0.4343
 4839W        W 8358   8.820   7.886   1.206 -0.0973  0.0849  0.2475
 4840W        W 8359   7.259   6.602   7.750 -0.0563 -0.2960 -0.0286
 4841W        W 8360   7.414   9.038   3.323 -0.1494  0.1553 -0.0155
 4842W        W 8361   9.776   1.635   8.961  0.0122  0.1264  0.3146
 4843W        W 8362   6.421   3.691   0.497 -0.3021  0.0284  0.2126
 4844W        W 8363   0.334   7.047   0.739  0.3126  0.3539 -0.1061
 4845W        W 8364   9.236   5.282   1.418 -0.1697  0.0907  0.2692
 4846W        W 8365   9.544   1.428  10.878  0.2569  0.0483 -0.1695
 4847W        W 8366   7.228   3.152   1.364 -0.2853  0.1050 -0.1070
 4848W        W 8367   4.405   4.716   9.836  0.0979 -0.5975 -0.0961
 4849W        W 8368   7.648   8.249   1.570 -0.2393  0.1394 -0.0268
 4850W        W 8369   3.500   0.220   1.019  0.1442  0.0119 -0.1504
 4851W        W 8370   9.059   9.340   1.730  0.0023 -0.2250 -0.0679
 4852W        W 8371   4.830   0.465   7.033 -0.0545 -0.1435 -0.4011
 4853W        W 8372   7.055   4.106   3.110 -0.5045 -0.2309 -0.3730
 4854W        W 8373   7.112   1.500   7.937  0.0169  0.1356  0.1140
 4855W        W 8374   0.912   6.769   3.575 -0.0666 -0.3305  0.0132
 4856W        W 8375   4.912   4.021   1.668  0.2437  0.1530 -0.0682
 4857W        W 8376   9.061   7.952   0.366 -0.2366  0.0467 -0.0283
 4858W        W 8377   6.172   3.908   9.053  0.0223 -0.1344 -0.0195
 4859W        W 8378   1.300   3.994   3.493  0.1882  0.1855  0.3021
 4860W        W 8379   7.188   7.996   0.367 -0.0821  0.0294  0.1693
 4861W        W 8380   2.411   5.233  10.532  0.1955 -0.1544  0.0997
 4862W        W 8381   4.146   2.985   0.276  0.0455  0.0816  0.2378
 4863W        W 8382   1.827   5.757   9.141  0.0615 -0.2420 -0.0345
 4864W        W 8383   4.943   9.431   2.389  0.1680 -0.0449  0.1456
 4865W        W 8384   2.867   9.257   2.668 -0.4440 -0.2405 -0.1613
 4866W        W 8385   1.664   3.974   8.980 -0.0226  0.0873  0.0788
 4867W        W 8386   9.356   8.440   9.539  0.1094 -0.0616  0.2759
 4868W        W 8387   1.631   8.722   9.287  0.0243  0.1076 -0.1010
 4869W        W 8388   5.667   9.441   7.443  0.0033  0.1567 -0.1002
 4870W        W 8389   7.932   4.462   9.081 -0.2016 -0.0710 -0.0244
 4871W        W 8390   9.445   2.312  11.260 -0.2591 -0.0526 -0.0625
 4872W        W 8391   7.717   5.816  11.324  0.2251  0.0418  0.2347
 4873W        W 8392   2.386   9.684   2.341  0.0141 -0.0111  0.0332
 4874W        W 8393   9.980   7.503   9.711  0.0915  0.1787  0.0562
 4875W        W 8394   2.789   9.154  11.256 -0.1336  0.3110  0.1074
 4876W        W 8395   5.865   2.575  10.395  0.0131  0.1416 -0.0683
 4877W        W 8396   3.681   9.280   9.378  0.1033  0.0414 -0.1832
 4878W        W 8397   0.486   6.739   0.276  0.0291 -0.0006 -0.3343
 4879W        W 8398   8.017   6.255   9.758 -0.0518 -0.0379 -0.3788
 4880W        W 8399   4.700   8.262   3.580 -0.2233 -0.2010  0.1308
 4881W        W 8400   3.924   4.059   8.685  0.2834 -0.0171 -0.1898
 4882W        W 8401   3.623   1.450   0.603 -0.0548 -0.1385  0.0115
 4883W        W 8402   4.819   0.957   1.979  0.0775 -0.0258  0.0990
 4884W        W 8403   8.028   2.874   4.186  0.0194  0.0192 -0.2654
 4885W        W 8404   4.989   2.370   1.929 -0.3603 -0.1729  0.4293
 4886W        W 8405   1.339   6.039   1.062  0.1040  0.0718 -0.0507
 4887W        W 8406   1.525   5.307   2.510 -0.0275  0.0440 -0.2831
 4888W        W 8407   1.166   6.218   1.773 -0.3129  0.1797  0.1974
 4889W        W 8408   2.051   8.828   2.256  0.1415 -0.0752  0.2367
 4890W        W 8409   6.976   2.433   3.177 -0.0227 -0.1506  0.2434
 4891W        W 8410   2.468   7.511  10.256  0.3264  0.0804 -0.0676
 4892W        W 8411   9.622   6.487  11.372  0.2273 -0.4323 -0.1400
 4893W        W 8412   7.844   7.873   9.620  0.0802 -0.0296 -0.1000
 4894W        W 8413   6.372   9.416   1.752  0.3321 -0.1024  0.0285
 4895W        W 8414   2.294   4.127  10.957 -0.0347 -0.0771  0.2741
 4896W        W 8415   9.372   0.344   8.456  0.1055 -0.3000 -0.3528
 4897W        W 8416   7.131   2.860  10.026  0.1740 -0.1793  0.0372
 4898W        W 8417   5.377   2.344   1.502  0.3791 -0.2165 -0.4710
 4899W        W 8418   7.531   8.491   6.844  0.0581 -0.2141  0.0075
 4900W        W 8419   6.226   4.428   1.315  0.2756  0.2202 -0.1454
 4901W        W 8420   6.462   1.616  11.221 -0.0471  0.2284  0.0504
 4902W        W 8421   7.321   2.607   8.699 -0.0089  0.1360 -0.0478
 4903W        W 8422   2.800   2.769   1.968 -0.1726  0.0791  0.1016
 4904W        W 8423   6.862   4.761  11.165  0.0562  0.0689 -0.3060
 4905W        W 8424   4.959   9.517  10.478 -0.2545 -0.0893  0.1111
 4906W        W 8425   0.904   1.818   1.850 -0.1277 -0.1035  0.0958
 4907W        W 8426   7.611   1.701   3.718  0.0669 -0.1153 -0.0016
 4908W        W 8427   3.778   2.534  11.489 -0.0652  0.2150  0.2326
 4909W        W 8428  10.072   6.787   1.652 -0.0905 -0.0259 -0.4617
 4910W        W 8429   0.076   1.040  11.494  0.1580 -0.1694  0.1250
 4911W        W 8430   2.385   7.130   7.508  0.0566 -0.1659  0.0463
 4912W        W 8431   0.860   3.250   0.003 -0.1372  0.0285 -0.0687
 4913W        W 8432   1.689   0.083   3.143 -0.0144  0.3448  0.2400
 4914W        W 8433   9.314   0.802   8.136 -0.1213  0.2940 -0.2827
 4915W        W 8434   5.837   4.038   0.512  0.1211 -0.0145  0.2923
 4916W        W 8435   8.377   5.572   2.062 -0.3215 -0.1518  0.0056
 4917W        W 8436   7.115   6.761   8.201  0.0451 -0.0699 -0.1905
 4918W        W 8437   9.653   4.814   1.455 -0.1087 -0.2249 -0.3382
 4919W        W 8438   4.334   7.511   9.382  0.3517 -0.0416  0.1006
 4920W        W 8439   0.072   9.217  11.424 -0.0965 -0.0388 -0.2518
 4921W        W 8440   5.954   5.241   1.844  0.1223  0.1454 -0.2666
 4922W        W 8441   7.916   1.510   1.150 -0.2890  0.1532 -0.0934
 4923W        W 8442   9.580   9.175   0.610  0.1879 -0.2038  0.1566
 4924W        W 8443   9.165   8.450   3.343  0.3643 -0.1237  0.0982
 4925W        W 8444   0.402   1.986   2.513  0.0761 -0.0446  0.0943
 4926W        W 8445   7.510   1.689   8.338 -0.2481 -0.0984 -0.2671
 4927W        W 8446   6.683   2.198   3.922 -0.0855 -0.0732  0.2375
 4928W        W 8447   2.197   7.102   1.906  0.1277 -0.1572  0.0586
 4929W        W 8448  10.062   3.678   1.658  0.0115 -0.0150 -0.0671
 4930W        W 8449   9.917   8.563   8.970 -0.1925  0.0238  0.0971
 4931W        W 8450   5.176   1.972   2.846 -0.3001 -0.3203  0.1077
 4932W        W 8451   1.414   6.652   1.931  0.3196  0.0199 -0.2468
 4933W        W 8452   4.814   2.366   7.693 -0.1178 -0.1154 -0.1036
 4934W        W 8453   2.500   4.571   1.509  0.1091 -0.3743  0.2125
 4935W        W 8454   4.630   7.264   3.367 -0.1062  0.0537  0.0291
 4936W        W 8455   5.916   7.521   0.403  0.1388  0.2150  0.1826
 4937W        W 8456   6.631   5.504   0.892  0.2027 -0.0453 -0.1642
 4938W        W 8457   4.830   8.459   8.227 -0.1301 -0.0734 -0.3907
 4939W        W 8458   2.345   1.870   8.363  0.1188  0.2885  0.1977
 4940W        W 8459   6.140   6.728   3.164 -0.0224 -0.5763  0.1813
 4941W        W 8460   5.081   0.952  11.118  0.2153  0.1528 -0.1374
 4942W        W 8461   1.602   6.300  11.325  0.3030 -0.4008  0.0261
 4943W        W 8462   0.753   8.216   0.012  0.3223  0.0290 -0.0148
 4944W        W 8463   7.798   6.029  10.114 -0.1291  0.2331  0.3208
 4945W        W 8464   2.715   2.813   0.284 -0.2696  0.1266 -0.1315
 4946W        W 8465   5.336   6.170   3.531 -0.0306 -0.2177 -0.2597
 4947W        W 8466   5.785   7.819   0.776 -0.0487 -0.2956 -0.0434
 4948W        W 8467   3.841   8.847   0.264  0.1894  0.4363 -0.2648
 4949W        W 8468   2.853   2.263   7.668  0.1825  0.0842  0.0384
 4950W        W 8469   6.651   2.908  11.524 -0.5051 -0.0630  0.2789
 4951W        W 8470   2.660   3.848   9.291 -0.1279 -0.0645  0.3302
 4952W        W 8471   4.178   4.108   0.976 -0.0158  0.1141  0.1266
 4953W        W 8472   9.904   7.954   0.698 -0.0652  0.1239  0.0416
 4954W        W 8473   4.707   0.482   2.157 -0.0009 -0.0176 -0.0623
 4955W        W 8474   9.602   3.949   8.008  0.2690 -0.0416  0.1360
 4956W        W 8475   5.608   6.924  10.793 -0.0721  0.1740  0.1222
 4957W        W 8476   1.876   3.439   1.056  0.0023  0.0207  0.0576
 4958W        W 8477   3.177   5.920  11.179 -0.3865 -0.1797  0.0254
 4959W        W 8478   2.253  10.043   0.588  0.1128 -0.1355 -0.1654
 4960W        W 8479   8.526   7.567   9.229 -0.1491 -0.1619 -0.1079
 4961W        W 8480   1.618  10.088   7.395 -0.0999  0.0607  0.2949
 4962W        W 8481   6.549   2.929   0.469  0.1617 -0.0115 -0.0529
 4963W        W 8482   9.837   4.818  11.613 -0.3694 -0.0982  0.2155
 4964W        W 8483   3.520   9.559  10.126  0.1359  0.1356  0.1099
 4965W        W 8484   2.167   5.590   7.147 -0.0537  0.0022  0.2979
 4966W        W 8485   9.098   3.623   2.006  0.0288 -0.2073 -0.2957
 4967W        W 8486   6.040   2.203   8.639  0.1342  0.0823  0.1364
 4968W        W 8487   4.799   1.861   9.577  0.2066 -0.2384 -0.0425
 4969W        W 8488   8.648   9.311   9.688 -0.1415  0.0412 -0.1083
 4970W        W 8489   4.048   5.614   8.893  0.1395 -0.1901 -0.1595
 4971W        W 8490   2.883   2.881  10.175 -0.1475  0.4655 -0.0479
 4972W        W 8491   5.339   8.296   8.312  0.2064  0.1262  0.0167
 4973W        W 8492   2.196   6.140   4.091  0.3698  0.0729 -0.4218
 4974W        W 8493   5.832   3.836   9.587  0.2361  0.1989  0.1663
 4975W        W 8494   9.357   8.465  11.252  0.0223 -0.1037 -0.1241
 4976W        W 8495   3.334   6.663  11.169  0.1231  0.0501  0.4332
 4977W        W 8496   1.599   1.405   1.655 -0.2553 -0.0179 -0.3156
 4978W        W 8497   4.512   9.896   0.955  0.0770  0.3416 -0.3579
 4979W        W 8498   3.445   8.076   1.468  0.0682  0.0670  0.2119
 4980W        W 8499   9.252   7.939   3.216 -0.3756  0.3353  0.0406
 4981W        W 8500   8.665   3.010   0.685  0.1845 -0.1097  0.0608
 4982W        W 8501   9.685   6.444   0.342  0.0607  0.5460 -0.0336
 4983W        W 8502   7.703   8.134   8.978 -0.2273  0.1021  0.2054
 4984W        W 8503   6.477   4.526   3.391 -0.2717  0.5000  0.1375
 4985W        W 8504   7.716   5.532  10.936  0.1033 -0.2927  0.1456
 4986W        W 8505   8.862   8.324   9.731 -0.0520  0.0867  0.0315
 4987W        W 8506   0.484   1.071   0.639 -0.0254 -0.1771 -0.0414
 4988W        W 8507   3.214   2.676   9.787  0.0671 -0.0811 -0.3313
 4989W        W 8508   5.564   3.862  10.104 -0.0870  0.0829 -0.3162
 4990W        W 8509   4.283   9.920   9.719  0.1456 -0.0426  0.0695
 4991W        W 8510   3.420   6.991   0.793  0.2848 -0.1126 -0.0927
 4992W        W 8511   6.867   8.477   9.344  0.0857  0.1532 -0.0104
 4993W        W 8512   4.747   1.437  10.452  0.1437  0.0261  0.4027
 4994W        W 8513   2.113   9.626   8.815 -0.0382  0.1546 -0.1556
 4995W        W 8514   9.102   3.449  10.324 -0.0112  0.0089 -0.1024
 4996W        W 8515   0.743   1.665   0.789 -0.4037 -0.1691  0.0112
 4997W        W 8516   4.395   3.130  10.574 -0.1937 -0.0702 -0.0954
 4998W        W 8517   1.008   3.385   2.625  0.1010 -0.1168  0.0912
 4999W        W 8518   5.610   6.251   7.548  0.0298  0.0345 -0.1549
 5000W        W 8519   1.046   6.887  10.511 -0.0198  0.1157 -0.1331
 5001W        W 8520   6.101   4.192   1.764  0.0413  0.1634  0.2412
 5002W        W 8521   7.395   4.143   1.721 -0.1627  0.0409  0.2235
 5003W        W 8522   3.352   0.721   1.041 -0.1659 -0.1039  0.2327
 5004W        W 8523   6.417   6.663   9.472  0.1965 -0.0064 -0.0488
 5005W        W 8524   1.284   7.386   1.920  0.1817  0.0060  0.2090
 5006W        W 8525   1.750   2.851   9.078 -0.0052 -0.4047 -0.1295
 5007W        W 8526   9.266   9.010   2.068 -0.0164 -0.1065 -0.1334
 5008W        W 8527   9.727   2.993   8.782  0.1278 -0.0248  0.1160
 5009W        W 8528   7.838   7.158  10.907 -0.0851  0.1726  0.0544
 5010W        W 8529   0.625   1.424   1.827 -0.1695  0.1971 -0.0763
 5011W        W 8530   7.276   0.995   2.208  0.3103 -0.0545 -0.1072
 5012W        W 8531   2.192   6.095   9.199  0.1306  0.4435  0.1508
 5013W        W 8532   2.177   8.538   0.778 -0.1270  0.1604  0.1473
 5014W        W 8533   1.303   7.777   2.332  0.4610 -0.2290  0.3566
 5015W        W 8534   3.332   2.826   1.950 -0.0142 -0.1555  0.0466
 5016W        W 8535   0.317   6.822  11.426 -0.1636 -0.0661 -0.1170
 5017W        W 8536   2.021   4.833   8.722 -0.1112 -0.1046 -0.0724
 5018W        W 8537   4.116   8.564   7.499 -0.0895 -0.0097 -0.2962
 5019W        W 8538   2.656   1.007   9.070  0.2127 -0.0124 -0.0237
 5020W        W 8539   8.738   5.750  10.984 -0.4719 -0.0986  0.0496
 5021W        W 8540   6.627   3.262  11.181 -0.1410 -0.2694 -0.0225
 5022W        W 8541   1.271   4.713   0.411  0.0104 -0.3270 -0.0540
 5023W        W 8542   0.978   7.236  11.142 -0.0395  0.0981 -0.0580
 5024W        W 8543   3.885   9.886   9.209 -0.0749  0.0538 -0.2001
 5025W        W 8544   6.199   4.538   3.894 -0.2697 -0.0825 -0.0758
 5026W        W 8545   6.538   2.368   8.796  0.2081  0.4315 -0.1408
 5027W        W 8546   9.775   6.308   0.814 -0.0700 -0.2919 -0.0645
 5028W        W 8547   2.764   1.951   2.587  0.2124 -0.1698 -0.0263
 5029W        W 8548   3.061   4.813   2.376 -0.3139 -0.2912 -0.2871
 5030W        W 8549   4.640   8.325   9.781 -0.5043  0.0705  0.1729
 5031W        W 8550   5.267   3.500   7.993 -0.1463 -0.1769  0.1598
 5032W        W 8551   1.801   2.525  11.510 -0.1905  0.1390 -0.1306
 5033W        W 8552   6.706   7.204   1.392  0.3994 -0.0707  0.1964
 5034W        W 8553   7.371   2.808   3.142  0.6904 -0.1716 -0.1856
 5035W        W 8554   2.291   8.038   7.882  0.2939  0.0804 -0.1213
 5036W        W 8555   7.899   4.623  10.614 -0.1558  0.2083 -0.0233
 5037W        W 8556   6.006   0.330   2.412 -0.1582  0.0730 -0.2996
 5038W        W 8557   3.418   9.834   8.578  0.0848 -0.0594  0.2047
 5039W        W 8558   3.545   5.373   9.791  0.0551 -0.0375 -0.0794
 5040W        W 8559   1.050   2.876   2.743 -0.0462 -0.0618  0.2287
 5041W        W 8560   3.498   5.902  11.582  0.1295 -0.0695  0.0799
 5042W        W 8561   9.839   0.629   7.511 -0.0750  0.1730 -0.2531
 5043W        W 8562   7.567   7.243   0.094 -0.0069  0.2585  0.2250
 5044W        W 8563   4.000   7.713   1.088  0.2785 -0.1715 -0.0878
 5045W        W 8564   7.789   9.135   3.037 -0.1766 -0.2008  0.2345
 5046W        W 8565   9.740   6.574   3.323 -0.2169 -0.0232  0.0773
 5047W        W 8566   6.691   4.426  10.070  0.0421 -0.0263 -0.1418
 5048W        W 8567   4.979   3.085   1.327  0.4419  0.0898 -0.0971
 5049W        W 8568   6.781   9.162   9.180  0.2116 -0.0071  0.2364
 5050W        W 8569   9.807   3.582   2.678  0.1361  0.1204 -0.1556
 5051W        W 8570   8.742   8.766   8.934 -0.4431  0.0242 -0.2626
 5052W        W 8571   7.986   3.181   3.536 -0.0204 -0.3081 -0.1231
 5053W        W 8572   3.039   7.673   9.682 -0.0239 -0.1567  0.0632
 5054W        W 8573   8.220   2.815   8.180  0.2995  0.0857 -0.1185
 5055W        W 8574   6.008   4.280   2.333 -0.0471 -0.0407  0.2482
 5056W        W 8575   6.613   7.061   0.857  0.0976 -0.2212  0.2946
 5057W        W 8576   3.868   8.389   0.849  0.0002 -0.0757  0.3336
 5058W        W 8577   6.884   5.011  11.582  0.0345 -0.1925 -0.1015
 5059W        W 8578   1.779   1.302  11.397  0.2363  0.0143 -0.0157
 5060W        W 8579   2.053   9.128   9.653 -0.1558  0.3089  0.5950
 5061W        W 8580   3.782   5.770   1.440  0.0759  0.2537 -0.0500
 5062W        W 8581   7.995   6.547   1.873  0.1520  0.3473 -0.2033
 5063W        W 8582   6.240   0.115   8.337  0.1057 -0.0678  0.3456
 5064W        W 8583   3.434   8.171   7.826 -0.2620  0.1014  0.2576
 5065W        W 8584   7.137   8.750   2.408 -0.0335  0.2107  0.0916
 5066W        W 8585   0.328   5.168   0.269 -0.3993 -0.0083 -0.0197
 5067W        W 8586   2.810   2.932   1.156  0.1586  0.0233 -0.2479
 5068W        W 8587   4.843   9.520   8.797 -0.1010 -0.0262 -0.0184
 5069W        W 8588   4.151   4.360  11.563  0.0810  0.0692 -0.0413
 5070W        W 8589   9.461   9.489   1.983 -0.0573  0.1138 -0.0505
 5071W        W 8590   0.226   3.240   1.375 -0.0445  0.0569  0.0557
 5072W        W 8591   6.092   7.889   1.680  0.0895 -0.0813 -0.0499
 5073W        W 8592   9.190   5.165   0.847 -0.2597 -0.2543 -0.0338
 5074W        W 8593   3.183   9.907   0.843  0.0841 -0.0824  0.0917
 5075W        W 8594   9.440   9.928   8.542 -0.0520  0.2031 -0.0257
 5076W        W 8595   5.484   6.176   2.093 -0.0273 -0.0943  0.1046
 5077W        W 8596   6.836   9.928   8.173 -0.0339 -0.1546  0.4112
 5078W        W 8597   6.550   3.962  10.006 -0.1558 -0.1691  0.1426
 5079W        W 8598   0.815   7.193   1.767 -0.1369 -0.1195  0.1750
 5080W        W 8599   7.732   8.850   9.286  0.3068  0.0176 -0.2034
 5081W        W 8600   6.471   1.274  10.716  0.0863  0.2090 -0.0580
 5082W        W 8601   3.653   0.045   8.262 -0.1827  0.0521 -0.1757
 5083W        W 8602   7.052   8.956   1.374 -0.0638  0.0717  0.1855
 5084W        W 8603  10.047   1.149   8.804  0.1337 -0.0811  0.1012
 5085W        W 8604   6.256   1.717  10.644  0.0617  0.1449  0.1123
 5086W        W 8605   9.275   9.478   9.777 -0.0155  0.0316 -0.0723
 5087W        W 8606   3.765   4.609   1.837  0.1229  0.0766  0.1377
 5088W        W 8607   8.655   2.880   1.627 -0.1031  0.0943 -0.1914
 5089W        W 8608   8.851   2.409   0.027  0.1528 -0.1457 -0.0789
 5090W        W 8609   8.251   9.567   1.690  0.0938  0.1384 -0.2760
 5091W        W 8610   5.363   6.159   3.029 -0.1017  0.0170  0.0518
 5092W        W 8611   2.284   6.321  10.945 -0.3758  0.1167  0.0880
 5093W        W 8612   4.146   6.669   2.896  0.0514 -0.1842 -0.2165
 5094W        W 8613   1.410   4.694  10.150 -0.1843 -0.1079 -0.1407
 5095W        W 8614   7.599   6.231   3.687 -0.3075  0.4969 -0.0668
 5096W        W 8615   7.776   9.849   8.716 -0.1157  0.0928  0.2357
 5097W        W 8616   6.502   9.504  10.718 -0.2228  0.1872 -0.0444
 5098W        W 8617   7.833   0.291  11.391  0.0637 -0.0031  0.2288
 5099W        W 8618  10.039   7.854   1.192  0.2108 -0.1188  0.0647
 5100W        W 8619   3.733   1.792  11.060 -0.0791  0.0625 -0.1630
 5101W        W 8620   0.898   4.017   8.219  0.0794 -0.1162  0.0724
 5102W        W 8621   7.821   8.818   0.235  0.1088  0.0097  0.0222
 5103W        W 8622   6.560   1.556   0.603  0.0510 -0.0424  0.1015
 5104W        W 8623   1.449   7.771  11.555  0.0725 -0.3178 -0.1115
 5105W        W 8624   6.026   7.071   7.396 -0.0125  0.2706  0.1051
 5106W        W 8625   9.099   6.961   8.474  0.0254 -0.0669  0.2222
 5107W        W 8626   0.613   4.201   2.867 -0.0215  0.0868  0.0991
 5108W        W 8627   1.305   9.887   3.219  0.2686 -0.3082  0.3427
 5109W        W 8628   5.221   0.169  11.040  0.0459 -0.2131  0.1077
 5110W        W 8629   1.016   6.946   2.182  0.1168 -0.1540 -0.0668
 5111W        W 8630   0.638   2.322   2.132  0.2345 -0.3076 -0.0737
 5112W        W 8631   6.628   2.047  10.306  0.0108  0.1200 -0.0466
 5113W        W 8632   9.896   4.058   3.445 -0.1271 -0.1005  0.3199
 5114W        W 8633   1.661   1.515   7.782 -0.3316 -0.1485  0.1661
 5115W        W 8634   0.871   8.379  10.618 -0.2331  0.3000 -0.0023
 5116W        W 8635   2.420   6.938   0.962 -0.0497  0.0044  0.1010
 5117W        W 8636   2.057   2.125  11.365  0.2654  0.1951 -0.0592
 5118W        W 8637   1.621   7.506  10.647  0.2121 -0.0694  0.0854
 5119W        W 8638   1.072   6.330   8.244  0.1707  0.2020 -0.0391
 5120W        W 8639   7.383   2.870  11.247  0.0825 -0.1939  0.1989
 5121W        W 8640   1.409   3.115  10.428  0.0898 -0.0746  0.0772
 5122W        W 8641   5.674   1.100  11.271  0.1235  0.3071  0.0314
 5123W        W 8642   7.522   8.590   3.550  0.4174  0.1792 -0.1207
 5124W        W 8643   0.323   8.753   8.787 -0.3306 -0.3233  0.0377
 5125W        W 8644   4.498   9.538  10.086  0.0971  0.4140 -0.0673
 5126W        W 8645   1.786   0.680   9.323  0.1121 -0.1110 -0.0161
 5127W        W 8646   9.138   1.062   9.172 -0.1739 -0.3918 -0.0896
 5128W        W 8647   0.968   6.206  10.732 -0.2847 -0.0907  0.0816
 5129W        W 8648   0.158   0.803   0.352 -0.2419  0.1884  0.5084
 5130W        W 8649   2.348   8.126  11.044  0.0802  0.0050 -0.1528
 5131W        W 8650   3.171   5.741  10.665  0.0670  0.2349 -0.3317
 5132W        W 8651   4.282   8.244   2.681  0.2366  0.0034 -0.1523
 5133W        W 8652   3.583   6.917   8.938 -0.1310  0.3895  0.0128
 5134W        W 8653   8.324   8.186   2.388  0.0634  0.0929 -0.0756
 5135W        W 8654   7.892   7.517  11.438  0.0649 -0.1045  0.1133
 5136W        W 8655   1.965   4.419  11.108 -0.0215  0.2863  0.2737
 5137W        W 8656   5.672   2.966   1.931  0.1421  0.0724 -0.1115
 5138W        W 8657   5.917   8.429   1.859 -0.1633  0.2552  0.1267
 5139W        W 8658   8.763   9.905   8.908 -0.1544 -0.0282  0.0615
 5140W        W 8659   9.085   1.801  10.770  0.0213 -0.0886  0.3109
 5141W        W 8660   9.195   3.054  10.095  0.0704  0.1875 -0.1528
 5142W        W 8661   6.428   1.312   9.835  0.0622 -0.0870  0.0631
 5143W        W 8662   0.422   5.490  10.160 -0.0482  0.0780  0.0107
 5144W        W 8663   4.210   6.227   2.430 -0.0998 -0.0449 -0.1705
 5145W        W 8664   7.896  10.000   3.943 -0.1914 -0.3964  0.0208
 5146W        W 8665   3.843   5.432   1.020  0.2187  0.3274  0.2609
 5147W        W 8666   0.339   3.142   9.516 -0.3242  0.3155 -0.2201
 5148W        W 8667   6.156   5.617  10.218 -0.3752 -0.0240  0.1601
 5149W        W 8668   5.127   6.812  10.584 -0.0056  0.1643  0.5913
 5150W        W 8669   5.365   2.698   2.218 -0.2621 -0.1236 -0.1956
 5151W        W 8670   2.780   3.719   1.982  0.0334  0.0199  0.1309
 5152W        W 8671   5.811   8.001   7.373 -0.0712 -0.1636 -0.1745
 5153W        W 8672   7.864   3.283  10.329 -0.1034 -0.0669  0.1204
 5154W        W 8673   0.820   9.196   3.381 -0.3062 -0.3154 -0.1389
 5155W        W 8674   1.584   0.681   8.078  0.2818 -0.0091  0.3613
 5156W        W 8675   2.239   3.179  10.793 -0.0934  0.4413  0.1709
 5157W        W 8676   7.054   5.617   1.534 -0.1059 -0.3800  0.2472
 5158W        W 8677   9.805   6.544  10.123 -0.0173  0.3344 -0.0252
 5159W        W 8678   6.732   6.573   2.812  0.1891 -0.0164  0.0543
 5160W        W 8679  10.001   9.786  10.950 -0.0911  0.2659 -0.0623
 5161W        W 8680   3.274   2.653   3.629  0.2575 -0.1090  0.0754
 5162W        W 8681   5.052   3.956  11.458  0.1134 -0.1264  0.1398
 5163W        W 8682   6.275   8.430   7.216  0.2834  0.0408 -0.1657
 5164W        W 8683   1.107   4.286  10.132 -0.0874 -0.0046  0.4295
 5165W        W 8684   0.513   0.527   8.946  0.0967  0.0281  0.0012
 5166W        W 8685   9.610   0.166   9.577  0.0389  0.0455  0.0656
 5167W        W 8686   3.385   1.937   1.327  0.0688  0.0847 -0.1042
 5168W        W 8687   9.678   4.361   8.389 -0.2448 -0.0559 -0.0130
 5169W        W 8688   0.309   3.849  10.760  0.0621 -0.1353  0.0512
 5170W        W 8689   6.273   6.521   3.694  0.2732 -0.0485 -0.0252
 5171W        W 8690   4.982   2.202   0.829  0.0353  0.0263  0.1145
 5172W        W 8691   8.757   3.184   9.927 -0.1156 -0.0960 -0.0510
 5173W        W 8692   6.117   7.823   1.177  0.0598  0.1419 -0.0108
 5174W        W 8693   8.252   2.691   1.373  0.0016 -0.0820  0.3227
 5175W        W 8694   4.788   0.085   3.066 -0.0363  0.0851  0.1666
 5176W        W 8695   1.090   4.411  11.038  0.0376 -0.0381  0.1286
 5177W        W 8696   6.464   4.703   7.381  0.2368 -0.1454 -0.1142
 5178W        W 8697   0.971   7.476   8.795  0.0651 -0.0516  0.3157
 5179W        W 8698   3.156   6.840   9.834  0.3218 -0.0320  0.2945
 5180W        W 8699   5.559   0.375   0.123  0.2580  0.0636  0.0654
 5181W        W 8700   6.893   2.307   1.710  0.0852 -0.1477  0.0094
 5182W        W 8701   7.767   3.352   1.364  0.3115 -0.3047  0.0830
 5183W        W 8702   4.581   3.026   8.969  0.0032  0.0986 -0.2403
 5184W        W 8703   5.907   0.303   9.954  0.2246  0.0806 -0.1339
 5185W        W 8704   4.898   9.027   1.042 -0.1081  0.0358 -0.0729
 5186W        W 8705   6.361   5.304   9.161 -0.2609  0.0490  0.3236
 5187W        W 8706   4.535   2.831  10.027 -0.2057  0.1594 -0.0825
 5188W        W 8707   3.015   6.819   8.162 -0.3465  0.1837 -0.1459
 5189W        W 8708   1.189   7.617   7.509 -0.1564  0.4058 -0.1537
 5190W        W 8709   4.744   6.284   1.736  0.3389  0.1207 -0.0627
 5191W        W 8710   8.715   2.302   1.409  0.0113 -0.0879 -0.0662
 5192W        W 8711   7.301   0.036   3.534  0.1951 -0.2262 -0.0590
 5193W        W 8712   7.250   1.079   1.152  0.2035 -0.0285 -0.1850
 5194W        W 8713   9.424   2.103   3.152 -0.4548 -0.0246 -0.0032
 5195W        W 8714   4.746   7.850   1.549  0.2229  0.0501 -0.1369
 5196W        W 8715   2.749   2.249   2.130  0.1824 -0.0039  0.1981
 5197W        W 8716   2.885   3.742   9.689  0.0029  0.2836 -0.2460
 5198W        W 8717   5.095   7.721   0.206 -0.2134 -0.1729  0.1015
 5199W        W 8718   2.670   9.892   7.972 -0.2180  0.0409  0.0383
 5200W        W 8719   0.974   0.861   2.082  0.1341  0.0749 -0.4598
 5201W        W 8720   6.923   0.381   8.937 -0.2077  0.0570 -0.1217
 5202W        W 8721   2.955   9.579   9.067  0.2959  0.2845  0.1768
 5203W        W 8722   1.511   9.816   0.283 -0.0860  0.0857  0.0311
 5204W        W 8723   2.540  10.087   1.976  0.7288 -0.2563 -0.2240
 5205W        W 8724   6.740   5.937   1.128  0.1606  0.3081  0.0600
 5206W        W 8725   7.619   8.309   1.098 -0.0937  0.1964 -0.1372
 5207W        W 8726   0.758   0.159  11.383 -0.2158 -0.3109  0.0126
 5208W        W 8727   7.152   8.505   7.794  0.1370 -0.4374  0.2435
 5209W        W 8728   5.113   9.145   2.798 -0.0157 -0.1290 -0.0422
 5210W        W 8729   9.829   4.422  10.994 -0.1265  0.0911 -0.1217
 5211W        W 8730   2.385   2.360   8.650 -0.0477  0.2031  0.1957
 5212W        W 8731   6.354   3.600   1.034 -0.0709  0.0206  0.0754
 5213W        W 8732   2.196   7.789   9.553  0.2768 -0.1971  0.3514
 5214W        W 8733   7.608   3.928   0.854  0.0408 -0.3524  0.0832
 5215W        W 8734   7.961   6.280   0.471  0.0224  0.3402  0.3820
 5216W        W 8735   5.792   8.827  10.952 -0.1328 -0.2095 -0.0082
 5217W        W 8736   4.824   3.387   8.749 -0.0949 -0.0800 -0.1053
 5218W        W 8737   5.674   7.357   2.438  0.2764  0.3394 -0.2045
 5219W        W 8738   8.124   2.824  10.024  0.1577 -0.1207 -0.1592
 5220W        W 8739   1.681   4.345  10.028  0.0352 -0.1577 -0.1559
 5221W        W 8740   1.803   4.972   8.008  0.0408  0.0743 -0.1009
 5222W        W 8741   0.297   9.344  10.103  0.0357  0.1562 -0.3526
 5223W        W 8742   2.533   1.472   1.846 -0.0455  0.0674  0.0866
 5224W        W 8743   3.459   4.143   8.369  0.1145  0.0703  0.0092
 5225W        W 8744   3.890   1.766   2.103  0.0400 -0.0679 -0.1418
 5226W        W 8745   3.902   1.720   9.344  0.1020  0.1440 -0.2999
 5227W        W 8746   4.150   6.470  10.509  0.0848 -0.2712 -0.1098
 5228W        W 8747   0.632   4.508  11.172 -0.0460  0.1316 -0.2089
 5229W        W 8748   6.260   7.002   9.951  0.0019  0.0420  0.0104
 5230W        W 8749   6.880   1.938   0.643 -0.0704  0.1553 -0.1859
 5231W        W 8750   5.355   1.099   2.033  0.0021  0.5559  0.2474
 5232W        W 8751   7.714   5.890   0.243  0.1379 -0.2446 -0.3742
 5233W        W 8752   6.221   7.150   0.576 -0.1791  0.1109  0.1717
 5234W        W 8753   7.484  10.045   4.664 -0.1195  0.2318  0.1363
 5235W        W 8754   6.940   7.530   2.944  0.0610 -0.0491 -0.2957
 5236W        W 8755   5.438   9.498  10.113  0.0304  0.0251 -0.1329
 5237W        W 8756   3.276   4.891  10.852 -0.3383 -0.2005 -0.0530
 5238W        W 8757   6.089   7.608   8.344 -0.0692  0.1221 -0.0703
 5239W        W 8758   8.537   2.342   8.948  0.1610 -0.1310 -0.2923
 5240W        W 8759   7.635   2.191   0.528 -0.1828 -0.0004 -0.1127
 5241W        W 8760   8.973   5.439   3.422 -0.0815 -0.2189  0.1812
 5242W        W 8761   8.136   4.807   3.439  0.1946  0.1670  0.1751
 5243W        W 8762   4.713   8.872   2.489 -0.0944 -0.1563 -0.0533
 5244W        W 8763   0.915   8.669   9.382 -0.0196  0.3399 -0.0923
 5245W        W 8764   3.521   7.924   8.836  0.2866  0.1236 -0.0585
 5246W        W 8765   8.123   4.283  11.193  0.1522 -0.0674 -0.0432
 5247W        W 8766   7.494   6.399   8.731 -0.0908 -0.2325  0.2330
 5248W        W 8767   7.864   0.953  11.585 -0.3194  0.2617  0.0334
 5249W        W 8768   5.907   6.836   3.563 -0.0351  0.2261 -0.2771
 5250W        W 8769   7.905   1.295  10.500  0.1027  0.2498 -0.0834
 5251W        W 8770   7.568   6.854   8.200 -0.2833 -0.4249  0.0763
 5252W        W 8771   4.517   5.363   8.848  0.2171  0.1374 -0.3305
 5253W        W 8772   6.310   6.533   0.066 -0.4187 -0.2029  0.0676
 5254W        W 8773   9.228   8.042   1.367  0.3101 -0.1875  0.0678
 5255W        W 8774   8.978   7.084   1.053  0.0718  0.1538  0.0521
 5256W        W 8775   3.061   3.051  11.146  0.0512  0.1195  0.1029
 5257W        W 8776   6.820   3.267   9.104 -0.0640  0.0875 -0.2553
 5258W        W 8777   8.803   9.163  10.910  0.2467  0.1251  0.1949
 5259W        W 8778   0.430   1.351   7.459 -0.0063  0.1760 -0.3182
 5260W        W 8779   7.016   0.420   2.322  0.1158 -0.0636 -0.1418
 5261W        W 8780   2.807   1.935  10.292 -0.2356  0.0444 -0.0843
 5262W        W 8781   4.258   7.987   0.695 -0.1607  0.6118  0.1673
 5263W        W 8782   9.130   0.733   1.853 -0.0244 -0.2166 -0.0273
 5264W        W 8783   7.273   5.788   1.104 -0.0726 -0.1837  0.0006
 5265W        W 8784   9.021   5.814   2.649  0.0569  0.1940 -0.2297
 5266W        W 8785   0.576   2.162   9.507  0.1491 -0.2998  0.0405
 5267W        W 8786   4.337   6.657   8.358 -0.1509 -0.0886 -0.0573
 5268W        W 8787   7.035   1.786   1.637 -0.0354  0.2346 -0.1078
 5269W        W 8788   2.609   3.619   3.537  0.0851 -0.0844 -0.1729
 5270W        W 8789   9.876   7.826   0.107 -0.2227 -0.0587 -0.0965
 5271W        W 8790   0.318   8.592   0.791  0.1806 -0.2755 -0.0373
 5272W        W 8791   5.244   4.003   8.195  0.0810  0.0543  0.2134
 5273W        W 8792   5.104   7.723   8.481 -0.2706  0.0525  0.1026
 5274W        W 8793   9.896   2.411  10.097  0.4360 -0.3409  0.4736
 5275W        W 8794   7.073   2.752   2.705 -0.2128 -0.0758  0.2479
 5276W        W 8795   0.645   6.664   9.793 -0.0708  0.2391 -0.0607
 5277W        W 8796   9.738   6.423   8.127  0.2551 -0.0625 -0.1551
 5278W        W 8797   3.485   1.403   2.168 -0.0579 -0.1933  0.0296
 5279W        W 8798   0.872   1.115  10.974  0.3840 -0.0608  0.0928
 5280W        W 8799   2.747   6.392   3.349 -0.0411  0.2535  0.1055
 5281W        W 8800   5.889   6.831   0.898  0.3362 -0.0724  0.0034
 5282W        W 8801   6.909   1.448   0.911  0.1098  0.2793 -0.0853
 5283W        W 8802   2.453   0.185  11.431 -0.1428 -0.2376  0.1122
 5284W        W 8803   8.018   0.590  10.957  0.1478 -0.0269  0.1269
 5285W        W 8804   4.539   5.585  10.041 -0.1138 -0.2745 -0.1022
 5286W        W 8805   6.310   8.101   9.941  0.0734 -0.0636 -0.0082
 5287W        W 8806   8.628   4.909   8.961  0.1336 -0.0777  0.0810
 5288W        W 8807   8.803   7.117   1.899  0.1649 -0.1882  0.1139
 5289W        W 8808   6.058   2.169   9.522  0.1434 -0.1521 -0.1650
 5290W        W 8809   7.841   4.329  10.039 -0.2688  0.1637 -0.0637
 5291W        W 8810   4.604   2.406  10.279  0.0696  0.0233 -0.0416
 5292W        W 8811   3.648   2.124   0.309  0.2096 -0.1936  0.4263
 5293W        W 8812   7.988   2.164   7.581  0.1523 -0.2082 -0.1528
 5294W        W 8813   2.685   4.218   0.854  0.0211  0.1706 -0.0871
 5295W        W 8814   1.430   0.831   8.974 -0.2373 -0.0852 -0.0245
 5296W        W 8815   4.143   6.841   1.357 -0.0748  0.1702 -0.1652
 5297W        W 8816   4.490   8.717  10.696 -0.2262  0.1602 -0.2200
 5298W        W 8817   5.207   3.616   0.854  0.0961 -0.0721 -0.6251
 5299W        W 8818   5.198   5.987   2.548  0.3776  0.1015  0.0390
 5300W        W 8819   2.793   7.400   2.731 -0.3131  0.1286  0.1885
 5301W        W 8820   5.576   7.767   1.238  0.1750 -0.0305  0.1644
 5302W        W 8821   8.410   0.638   2.309  0.1289 -0.0440 -0.1408
 5303W        W 8822   7.404   8.571  10.930 -0.2052 -0.0438  0.1330
 5304W        W 8823   8.906   7.163   0.552  0.1135 -0.0558  0.1185
 5305W        W 8824   4.737   5.671   1.445  0.3893 -0.1494 -0.0277
 5306W        W 8825   8.382   4.131   2.208  0.0052 -0.1307 -0.1620
 5307W        W 8826   1.090   3.746  11.244  0.3538 -0.1271  0.2933
 5308W        W 8827   3.909   2.786   2.793  0.2461 -0.1668 -0.2291
 5309W        W 8828   7.743   3.644   9.147 -0.0072  0.2948  0.0358
 5310W        W 8829   5.423   7.533  10.941  0.1732  0.0501 -0.4876
 5311W        W 8830   1.964   6.841   9.676 -0.1082 -0.1112 -0.0052
 5312W        W 8831   7.947   9.724   7.017  0.2765 -0.1406  0.2097
 5313W        W 8832   5.120   9.276  11.240  0.0431  0.2367 -0.1117
 5314W        W 8833   3.057   2.365   1.171  0.2788  0.0337  0.2114
 5315W        W 8834   0.267   7.231   3.926  0.3684 -0.0598 -0.2497
 5316W        W 8835   2.099   1.229   2.247  0.0132 -0.1064 -0.1305
 5317W        W 8836   0.855   2.730   8.357 -0.0343 -0.4090  0.1033
 5318W        W 8837   4.300   9.672   2.330  0.2004 -0.3085  0.0261
 5319W        W 8838   5.370   3.866   0.458  0.0536  0.2397  0.3471
 5320W        W 8839   0.926   6.888   2.699  0.2586 -0.3578 -0.0181
 5321W        W 8840   5.900   5.317  10.589 -0.3204 -0.1344  0.0104
 5322W        W 8841   1.832   6.355   0.977  0.1087 -0.3113 -0.0831
 5323W        W 8842   0.150   4.462   3.748 -0.2762 -0.0108  0.1945
 5324W        W 8843   2.881   0.793  10.589 -0.0613  0.1399  0.0182
 5325W        W 8844   2.226   5.413   9.295  0.1239  0.0740  0.1150
 5326W        W 8845   4.640   1.801   0.732  0.1072 -0.0040  0.2833
 5327W        W 8846   3.733   8.492   1.713 -0.4060 -0.2599 -0.0913
 5328W        W 8847   8.742   6.299   1.553  0.0347  0.1815  0.4655
 5329W        W 8848   9.402   4.217   3.128  0.0716 -0.0566 -0.0785
 5330W        W 8849   4.514   8.405   8.646  0.4029  0.1734  0.0036
 5331W        W 8850   5.642   5.097   9.048  0.0367 -0.1042  0.0832
 5332W        W 8851   5.636   0.481  10.879 -0.3599  0.1460  0.0099
 5333W        W 8852   7.539   1.804   2.364  0.0844 -0.2634  0.0922
 5334W        W 8853   3.335   9.504   9.612 -0.0265 -0.2110 -0.2808
 5335W        W 8854   7.543  10.035   7.105  0.0522 -0.0552 -0.0130
 5336W        W 8855   5.670   1.958   1.547 -0.0415  0.0673  0.2138
 5337W        W 8856   9.545   1.279   0.408 -0.3045 -0.2519 -0.0111
 5338W        W 8857   9.284   0.148  11.489 -0.0950  0.0248 -0.1339
 5339W        W 8858   0.137   6.324   1.100 -0.1383 -0.2606  0.0651
 5340W        W 8859   8.124   9.158   0.605 -0.2315 -0.1266 -0.1717
 5341W        W 8860   9.455   6.693   0.794  0.1588 -0.1487 -0.2500
 5342W        W 8861   1.240   8.137   3.931 -0.0860 -0.2267 -0.0109
 5343W        W 8862   0.045   7.342  11.437 -0.0329  0.1119 -0.0162
 5344W        W 8863   5.736   1.710  10.587  0.1087  0.0676  0.2028
 5345W        W 8864   9.595   9.898   9.039  0.3308  0.1026 -0.4731
 5346W        W 8865   1.574   8.131  10.985 -0.0090 -0.1965  0.0177
 5347W        W 8866   9.652   9.399   8.858  0.0663 -0.1739  0.0096
 5348W        W 8867   2.975   8.448   2.107 -0.0427  0.0257 -0.2080
 5349W        W 8868   2.558   8.169   1.927 -0.1731 -0.3284  0.0239
 5350W        W 8869   9.568   5.104   8.944 -0.0594  0.2192  0.2230
 5351W        W 8870   1.746   3.688   1.768  0.0704 -0.0872 -0.3301
 5352W        W 8871   8.233   5.180   9.724  0.4246 -0.3623  0.0882
 5353W        W 8872   3.057   7.488   2.233  0.0385  0.0321 -0.2806
 5354W        W 8873   1.330   3.435   0.203  0.0709 -0.1605  0.1107
 5355W        W 8874   8.901   2.680   1.169 -0.0442 -0.1228  0.2704
 5356W        W 8875   5.817   9.487   9.342  0.0064  0.3885  0.1536
 5357W        W 8876   5.934   6.509   7.841 -0.0030  0.2211 -0.3307
 5358W        W 8877   1.212   9.355   1.976 -0.3170 -0.0129 -0.1291
 5359W        W 8878   6.382   1.886   9.842  0.0619  0.2300 -0.3004
 5360W        W 8879   2.140   0.001   9.791 -0.2622 -0.3324 -0.5159
 5361W        W 8880   0.807   3.563  10.766 -0.2170 -0.1084 -0.0939
 5362W        W 8881   2.699   2.874   7.114 -0.1406  0.3968  0.1378
 5363W        W 8882   5.112  10.027   3.443  0.1957 -0.1013  0.0502
 5364W        W 8883   1.400   7.663   1.438  0.2228 -0.0628 -0.1314
 5365W        W 8884   6.566   4.873  10.338  0.2199 -0.2226  0.1622
 5366W        W 8885   2.654   9.985   0.945 -0.2163 -0.0274  0.1573
 5367W        W 8886   9.063   8.403   0.116  0.1406 -0.1436 -0.1011
 5368W        W 8887   9.070   3.044   0.334 -0.2976  0.0773 -0.0364
 5369W        W 8888   0.156   5.865  10.335 -0.1797  0.1674  0.0958
 5370W        W 8889   1.426   9.866   2.610 -0.3005 -0.4647 -0.0626
 5371W        W 8890   4.783   6.096   9.574  0.2201 -0.0136 -0.0187
 5372W        W 8891   1.981   1.508   8.319 -0.0432  0.3081  0.1495
 5373W        W 8892   7.028   4.419   3.524  0.0481  0.1230 -0.1296
 5374W        W 8893   4.522   3.858   8.726 -0.0654 -0.0664  0.0904
 5375W        W 8894   9.927   9.554   0.717 -0.0183 -0.0766 -0.2026
 5376W        W 8895   7.765   6.323  10.534 -0.0566  0.1446  0.0991
 5377W        W 8896   0.871   6.983   0.752  0.0230  0.0913  0.0502
 5378W        W 8897   4.619   6.922   0.472  0.1836  0.0156  0.1913
 5379W        W 8898   1.255   0.474   9.819 -0.3621 -0.2066 -0.1496
 5380W        W 8899   5.532   8.940   7.724 -0.0178 -0.0355 -0.0209
 5381W        W 8900   6.422   0.298   3.058 -0.3409  0.3442  0.1083
 5382W        W 8901   5.337   0.193   1.815  0.0679  0.3946  0.0701
 5383W        W 8902   8.225   6.034   0.930  0.2178 -0.2188 -0.0486
 5384W        W 8903   3.630   5.618   4.215  0.0842 -0.2644 -0.1208
 5385W        W 8904   5.986   6.269   2.968  0.0599  0.2668 -0.1103
 5386W        W 8905   6.835   4.241   2.075 -0.1173 -0.2121  0.0221
 5387W        W 8906   0.323   4.713  10.613  0.2809  0.0182  0.0115
 5388W        W 8907   5.179   1.458   2.907  0.1649 -0.2718 -0.0576
 5389W        W 8908   6.210   8.576   9.680 -0.0889  0.2073  0.0684
 5390W        W 8909   8.700   3.457   0.351 -0.0711  0.4832  0.1987
 5391W        W 8910   5.035   3.204   3.273  0.3462 -0.0651 -0.0245
 5392W        W 8911   2.548   4.665   2.014 -0.1229 -0.2170 -0.0386
 5393W        W 8912   5.136   0.109   8.399 -0.0365  0.1285 -0.0462
 5394W        W 8913   4.084   7.280  11.371 -0.1033 -0.0043 -0.1366
 5395W        W 8914   8.542   1.769   3.372 -0.1173 -0.1389  0.1988
 5396W        W 8915   8.289   2.651   9.252  0.0577 -0.0831  0.0847
 5397W        W 8916   0.753   0.595   8.459 -0.0959 -0.0111 -0.0851
 5398W        W 8917   5.284   5.901   9.217 -0.1801 -0.4781 -0.4378
 5399W        W 8918   5.289   3.682   3.214  0.0495 -0.2271 -0.1138
 5400W        W 8919   0.505   1.252   9.573  0.4207 -0.3784  0.2519
 5401W        W 8920   2.197   5.802   2.726 -0.0445 -0.0979 -0.2785
 5402W        W 8921   5.961   6.558   4.057  0.0889 -0.0110  0.1912
 5403W        W 8922   6.528   3.040   8.778  0.1207 -0.2174  0.0365
 5404W        W 8923   4.628   3.757  10.095  0.0279  0.0335 -0.2390
 5405W        W 8924   1.454   6.401  10.471  0.1232  0.0733  0.2325
 5406W        W 8925   1.471   8.292   9.729 -0.3799 -0.2058 -0.0623
 5407W        W 8926   5.571   9.627   0.516  0.2076  0.0499 -0.1264
 5408W        W 8927   0.187   8.836  11.060  0.2089  0.0757  0.0789
 5409W        W 8928   8.848   3.188   1.123  0.0196  0.0691  0.4332
 5410W        W 8929   1.241   5.806   8.268  0.0326 -0.0207  0.0774
 5411W        W 8930   1.598   5.564   1.327 -0.2509 -0.2087  0.3884
 5412W        W 8931   8.614   2.496   3.057 -0.2895  0.3766 -0.1743
 5413W        W 8932   2.553   1.071   2.110  0.0291  0.1211 -0.2027
 5414W        W 8933   7.484   7.734   0.042 -0.1691  0.3147  0.1372
 5415W        W 8934   9.395   5.671  11.559 -0.0150  0.2318  0.0659
 5416W        W 8935   1.177   7.167   1.335  0.0170  0.0440 -0.2998
 5417W        W 8936   1.904   7.439   0.677  0.3296 -0.0750 -0.3029
 5418W        W 8937   9.742   5.268   2.147 -0.0810 -0.0092 -0.0450
 5419W        W 8938   0.107   1.261  10.165  0.0009 -0.2315  0.1006
 5420W        W 8939   0.442   0.183   2.372  0.1262 -0.1920 -0.1012
 5421W        W 8940   8.071   8.078   0.811 -0.0664  0.1154  0.1487
 5422W        W 8941   2.071   9.764   7.192  0.0521 -0.1429 -0.0926
 5423W        W 8942   7.350   8.700  11.388 -0.0988  0.0070 -0.3815
 5424W        W 8943   7.838   2.818   2.155 -0.4116 -0.0623 -0.3102
 5425W        W 8944   7.577   8.660   1.934  0.0886 -0.2848  0.2470
 5426W        W 8945   9.648   9.615   0.279 -0.1008  0.0280 -0.1262
 5427W        W 8946   4.214   8.681   9.029  0.2826 -0.3935 -0.1603
 5428W        W 8947   9.570   1.783   1.316 -0.1116 -0.2870 -0.1422
 5429W        W 8948   2.116   2.633   1.040  0.2255  0.0498 -0.3234
 5430W        W 8949   9.555   7.590   4.037  0.1580  0.0216  0.1503
 5431W        W 8950   8.322   8.743   9.152  0.2016 -0.0893 -0.0195
 5432W        W 8951   5.863   9.576   2.402  0.1759  0.1992 -0.0240
 5433W        W 8952   4.049   6.491  11.508  0.0087  0.1092  0.0672
 5434W        W 8953   2.834   4.114   3.758  0.2494 -0.2970 -0.3223
 5435W        W 8954   3.845   9.776   1.792 -0.0091  0.1462 -0.1529
 5436W        W 8955   5.626   5.633  10.900  0.1759  0.3023  0.0791
 5437W        W 8956   5.231   4.519   8.965  0.1568 -0.2344 -0.0047
 5438W        W 8957   8.868   6.219  10.085  0.0269  0.0517  0.3229
 5439W        W 8958   7.908   5.414   3.490 -0.0866  0.0444 -0.1102
 5440W        W 8959   9.020   0.384   0.718 -0.1488  0.1705  0.2048
 5441W        W 8960   3.113   8.366   7.490 -0.1977 -0.0104 -0.1163
 5442W        W 8961   3.910   3.878  11.582 -0.1461  0.0737 -0.1972
 5443W        W 8962   1.516   9.541   2.983 -0.0433  0.2741  0.2708
 5444W        W 8963   6.646   6.104   3.663  0.0858  0.1107 -0.1800
 5445W        W 8964   9.550   8.735  10.410 -0.0377  0.0265  0.1192
 5446W        W 8965   6.879   7.727   8.445 -0.0498 -0.1627  0.2824
 5447W        W 8966   9.590   9.894   9.918 -0.2978 -0.0313  0.1403
 5448W        W 8967   2.877   0.521   8.854  0.1887 -0.1418 -0.1649
 5449W        W 8968   0.845   9.162   2.476 -0.1985 -0.1592 -0.0029
 5450W        W 8969   2.253   1.166  10.398 -0.2182 -0.0274 -0.0910
 5451W        W 8970   5.942   6.455   2.518 -0.0409 -0.0239  0.1166
 5452W        W 8971   6.889   0.071   0.419  0.0794 -0.0723  0.1589
 5453W        W 8972   9.930   3.453   8.981  0.0016  0.0793  0.0738
 5454W        W 8973   3.705   2.620   0.352  0.1161 -0.1389  0.0760
 5455W        W 8974   7.130   9.739   8.567 -0.0772 -0.1384 -0.1082
 5456W        W 8975   9.050   2.649   2.391 -0.3361  0.2634  0.4109
 5457W        W 8976   5.491   9.581  10.781 -0.0100  0.2121  0.1558
 5458W        W 8977   2.544   8.272   1.059  0.0468  0.2401  0.1179
 5459W        W 8978   3.525   2.955   2.413  0.0854 -0.0190 -0.0005
 5460W        W 8979   5.436   2.020   2.012  0.1700 -0.2044 -0.0833
 5461W        W 8980   2.889   4.024   2.840  0.1828 -0.0104  0.3149
 5462W        W 8981   5.809   9.288   7.938  0.1224 -0.2786  0.3960
 5463W        W 8982   5.265   9.139  10.404  0.2161  0.1715 -0.4819
 5464W        W 8983   0.050   1.082   2.315 -0.0889 -0.2154 -0.0150
 5465W        W 8984   2.598   7.269   2.116  0.1740 -0.0749 -0.1200
 5466W        W 8985   8.872   1.526   3.056 -0.0843 -0.2308  0.1551
 5467W        W 8986   8.832   7.388   8.853 -0.3674 -0.1411  0.0034
 5468W        W 8987   9.232   9.387   3.991 -0.2984  0.1692 -0.2534
 5469W        W 8988   3.174   9.929  10.832 -0.0265 -0.0127  0.2771
 5470W        W 8989   1.838   2.069  10.892  0.2395 -0.1650  0.0881
 5471W        W 8990   5.460   0.947   9.380  0.0057 -0.0448  0.3893
 5472W        W 8991   1.852   5.850   0.943 -0.1173 -0.1007 -0.0642
 5473W        W 8992   5.771   2.469   1.779  0.0802 -0.4302  0.1600
 5474W        W 8993   3.464   1.545   0.109 -0.2263 -0.1336 -0.0622
 5475W        W 8994   9.102   9.813   1.927 -0.2024  0.0042 -0.1021
 5476W        W 8995   3.874   1.812   7.912  0.2153 -0.0279 -0.0102
 5477W        W 8996   2.047   4.676   1.294  0.1704  0.3040  0.0794
 5478W        W 8997   7.595   5.610   1.506 -0.3176  0.2391  0.2777
 5479W        W 8998   4.272   0.182  10.514 -0.2993  0.0950 -0.2708
 5480W        W 8999   0.276   9.427  10.980 -0.0876  0.0947  0.0828
 5481W        W 9000   8.894   5.917  11.478 -0.0414  0.0208  0.0177
 5482W        W 9001   8.442   7.834   8.798 -0.2839 -0.2370  0.0147
 5483W        W 9002   8.040   9.950   1.460  0.0992 -0.1412 -0.1508
 5484W        W 9003   8.195   6.620   9.404 -0.1364  0.1773  0.0211
 5485W        W 9004   3.019   3.402   9.402  0.0676 -0.0195 -0.1821
 5486W        W 9005   8.534   6.456   9.086  0.0783  0.0747  0.1292
 5487W        W 9006   7.417   9.389   1.549 -0.1003  0.2438 -0.1553
 5488W        W 9007   5.697   2.308   7.947  0.0883  0.0601  0.1273
 5489W        W 9008   5.478   7.697   3.481  0.1558 -0.0675 -0.0931
 5490W        W 9009   6.302   3.172   2.138  0.2502  0.2454 -0.2722
 5491W        W 9010   6.433   4.022   2.476 -0.0909  0.4062  0.1144
 5492W        W 9011   7.616   6.470   2.326 -0.1489  0.0200  0.0635
 5493W        W 9012   1.235   9.068  11.232 -0.0044  0.1433 -0.2217
 5494W        W 9013   2.752   8.107   8.414 -0.2794 -0.1435  0.0320
 5495W        W 9014   0.961   8.704  11.484 -0.0632  0.0165 -0.0130
 5496W        W 9015   6.294   7.959   0.427  0.0064 -0.0500 -0.0591
 5497W        W 9016   4.834   1.012  10.195  0.0545  0.0457  0.1381
 5498W        W 9017   2.809   5.683  11.399 -0.1132 -0.3268  0.0638
 5499W        W 9018   3.715   5.329  11.262 -0.0589 -0.0989 -0.0903
 5500W        W 9019   7.962   0.197  10.584 -0.0074 -0.0020 -0.0112
 5501W        W 9020   7.887   2.447   3.275  0.1079  0.1006 -0.0192
 5502W        W 9021   8.094   3.306  10.921 -0.1168 -0.0330 -0.2170
 5503W        W 9022   9.927   8.434   3.502 -0.1174 -0.2465 -0.1283
 5504W        W 9023   3.924   9.773   0.948 -0.1781  0.3161  0.2176
 5505W        W 9024   8.020   1.207   4.718  0.0892 -0.0595 -0.2620
 5506W        W 9025   1.129   8.483   1.845  0.2616 -0.3159 -0.0855
 5507W        W 9026   3.029   1.445  10.188 -0.2080 -0.1742 -0.0070
 5508W        W 9027   6.183   9.267   9.046  0.0045  0.0901  0.1557
 5509W        W 9028   1.548   6.831   1.153 -0.1079 -0.0289 -0.0004
 5510W        W 9029   5.674   6.089   0.618  0.4043 -0.4101  0.1740
 5511W        W 9030   2.831   5.304   7.847 -0.1846 -0.0319  0.0929
 5512W        W 9031   5.409   8.528   1.555 -0.1820  0.2184  0.1489
 5513W        W 9032   9.782   8.108   9.770 -0.1434  0.1693  0.2019
 5514W        W 9033   5.478   8.916   3.170  0.0463 -0.1116 -0.1900
 5515W        W 9034   5.963   0.243   7.514 -0.1404 -0.2499  0.1571
 5516W        W 9035   2.825   0.747   7.570 -0.0817  0.3147 -0.0591
 5517W        W 9036   0.012   8.263  11.528  0.1852 -0.0757  0.0678
 5518W        W 9037   4.520   8.599   0.836 -0.0751  0.0064  0.1482
 5519W        W 9038   1.946   3.886   1.299 -0.1749  0.1505  0.2656
 5520W        W 9039   9.614   4.427  10.562  0.1167  0.2071  0.0952
 5521W        W 9040   4.596   7.920   2.465 -0.0702 -0.2165  0.4369
 5522W        W 9041   7.468   2.796   0.856  0.0974 -0.0565 -0.1459
 5523W        W 9042   4.959   1.453   9.203  0.1205  0.2355  0.7306
 5524W        W 9043   3.376   3.614  10.072 -0.1545 -0.1638  0.0309
 5525W        W 9044   3.382   5.991   7.260  0.0623 -0.3562 -0.5340
 5526W        W 9045   9.883   2.650   9.107  0.1010 -0.1683 -0.1922
 5527W        W 9046   2.170   0.167  11.056  0.2298 -0.0888  0.1989
 5528W        W 9047   0.615   7.631   3.398  0.0506 -0.1088  0.0181
 5529W        W 9048   6.441   3.300   0.095  0.0410  0.1641 -0.1043
 5530W        W 9049   4.454   1.338  10.027  0.0099 -0.1456  0.1390
 5531W        W 9050   9.581   2.617   1.829  0.1034 -0.0387  0.2060
 5532W        W 9051   5.892   5.038   9.629 -0.1528 -0.1634 -0.0472
 5533W        W 9052   0.402   5.244   9.133  0.0177  0.1122 -0.1898
 5534W        W 9053   2.218   7.408   9.868  0.1929 -0.3609  0.1159
 5535W        W 9054  10.016   8.438   2.589  0.3904 -0.1339 -0.2404
 5536W        W 9055   9.245   8.876   1.493  0.3868  0.0164 -0.2534
 5537W        W 9056   8.922   8.592   1.139  0.1943 -0.2115  0.0987
 5538W        W 9057   7.486   0.568   2.236 -0.1001  0.0288  0.1496
 5539W        W 9058   3.469   4.346  10.735  0.0030 -0.3061  0.3841
 5540W        W 9059   8.058   3.696   2.257 -0.3155 -0.2665  0.1848
 5541W        W 9060   9.046   6.683  10.560 -0.2734 -0.0084 -0.1782
 5542W        W 9061   4.684   9.939   8.464 -0.0590  0.0024 -0.1450
 5543W        W 9062   5.044   7.984   2.642 -0.1359 -0.0103  0.2222
 5544W        W 9063   9.095   3.892   1.564 -0.0051  0.1145  0.0846
 5545W        W 9064   7.386  10.061   0.477  0.1186 -0.0774  0.2798
 5546W        W 9065   5.492   5.844   8.733  0.0447  0.0809  0.1873
 5547W        W 9066   9.739   3.092   2.622 -0.3741  0.1533  0.0580
 5548W        W 9067   3.632   0.000  10.938 -0.1328  0.2694 -0.2420
 5549W        W 9068   2.071   4.898  10.360  0.3066 -0.2109  0.2689
 5550W        W 9069   5.608   2.207   7.458 -0.1883 -0.1183 -0.1589
 5551W        W 9070   6.669   6.616   9.067  0.1286 -0.3192  0.0755
 5552W        W 9071   4.386   4.424   3.036  0.0570  0.2866 -0.4333
 5553W        W 9072   5.108   5.454  10.829  0.0632  0.1587 -0.1762
 5554W        W 9073   8.551   9.232   0.280  0.0100  0.0541 -0.0592
 5555W        W 9074   2.964   5.276  10.583 -0.2253  0.0473  0.1536
 5556W        W 9075   1.112   3.024  10.833  0.0470 -0.1868 -0.0314
 5557W        W 9076   5.821   2.645   9.554 -0.1219  0.1738  0.0651
 5558W        W 9077   7.280   2.305   0.880 -0.0955 -0.2558  0.2900
 5559W        W 9078   6.588   7.744  10.801  0.3167  0.0386  0.1211
 5560W        W 9079   3.970   0.452  10.842  0.3389 -0.0558  0.0569
 5561W        W 9080   1.495   5.337  11.116 -0.0709 -0.0418  0.1280
 5562W        W 9081   8.352   9.580   0.583  0.0162  0.2920 -0.1052
 5563W        W 9082   3.864   8.824   9.956  0.1182 -0.2811  0.1836
 5564W        W 9083   4.567   9.788   7.005 -0.1330 -0.3766  0.0017
 5565W        W 9084   5.674   1.528   2.761 -0.1062 -0.0776  0.2021
 5566W        W 9085   4.330   1.452   7.804 -0.1388 -0.1036 -0.0809
 5567W        W 9086   2.663   3.238   2.994  0.2455  0.0375 -0.0350
 5568W        W 9087   2.029   1.873   7.851 -0.0770  0.1566  0.0326
 5569W        W 9088   2.059   8.751  10.679  0.1455  0.1501  0.0348
 5570W        W 9089   7.822   8.597  11.349  0.0782  0.2805 -0.0214
 5571W        W 9090   2.229   5.510   3.211 -0.3388  0.0208 -0.1366
 5572W        W 9091   0.506   0.007   8.333 -0.2040  0.2147  0.0702
 5573W        W 9092   6.481   8.469   1.809  0.3366 -0.3213 -0.0130
 5574W        W 9093   5.142   0.042  10.502 -0.2843  0.1387 -0.0826
 5575W        W 9094   2.385   0.310   7.632  0.2202 -0.0277 -0.0303
 5576W        W 9095   7.445   0.268  10.478  0.1055  0.0940 -0.0905
 5577W        W 9096   3.207   3.485   2.162 -0.1158  0.1399 -0.2599
 5578W        W 9097   9.693   7.464  11.106  0.2126  0.2788  0.1359
 5579W        W 9098   0.903   8.199   8.381 -0.0228  0.1754  0.2414
 5580W        W 9099   2.306   9.904   0.128  0.3185  0.1646  0.0673
 5581W        W 9100   5.504   1.496  10.039  0.0539 -0.0812  0.0584
 5582W        W 9101   7.219   9.338   7.495  0.0292  0.0611 -0.0422
 5583W        W 9102   7.491   5.545   9.189  0.0084  0.5087 -0.0255
 5584W        W 9103   0.997   3.700   7.468 -0.0683 -0.0610 -0.0068
 5585W        W 9104   5.342   0.263   2.825  0.2401 -0.2272 -0.1611
 5586W        W 9105   2.293   5.174   9.747  0.1905  0.0652  0.0307
 5587W        W 9106   2.634   8.775  11.591 -0.0448 -0.1158  0.0046
 5588W        W 9107   7.988   1.142   7.974 -0.2589 -0.0871 -0.0865
 5589W        W 9108   0.426   2.327  11.346  0.0681 -0.2566 -0.1681
 5590W        W 9109   8.231   7.452   2.841  0.0861 -0.0755 -0.1018
 5591W        W 9110   2.038   0.364   2.826  0.3691  0.2579 -0.2171
 5592W        W 9111   1.305   6.569  10.889  0.3296 -0.0739  0.0647
 5593W        W 9112   1.168   6.317   9.066 -0.0084 -0.0256  0.1884
 5594W        W 9113   8.547   5.500  10.573 -0.0683 -0.0729 -0.0782
 5595W        W 9114   0.991   7.378   3.591  0.1190  0.1652 -0.1704
 5596W        W 9115   6.288  10.012  10.093 -0.0526  0.0069 -0.2329
 5597W        W 9116   1.867   5.927  10.566  0.1094 -0.0378 -0.1119
 5598W        W 9117   6.217   4.369   8.945 -0.0699 -0.1316 -0.1262
 5599W        W 9118   3.612   8.993   1.196 -0.2387  0.0452  0.1116
 5600W        W 9119   3.892   3.400   0.457  0.4523 -0.0848 -0.0688
 5601W        W 9120   2.706   7.386   0.801  0.0954  0.0615 -0.2192
 5602W        W 9121   8.629   0.307   7.720  0.0004 -0.1799  0.1048
 5603W        W 9122   8.341   7.322   8.820  0.1714 -0.0948  0.1844
 5604W        W 9123   9.187   2.849   3.240 -0.4206 -0.1870 -0.0835
 5605W        W 9124   3.138   9.025   1.013  0.1329  0.0037  0.0264
 5606W        W 9125   7.286   0.916   0.094 -0.2655  0.0293 -0.1519
 5607W        W 9126   7.892   5.333   8.871  0.1591 -0.1740 -0.3871
 5608W        W 9127   4.861   7.168   8.120  0.2423 -0.3600 -0.0693
 5609W        W 9128   1.816   4.430  11.556 -0.1154 -0.0512 -0.1201
 5610W        W 9129   5.996   2.066   0.045 -0.0371 -0.2850 -0.2056
 5611W        W 9130   8.206   5.120   1.176  0.0103 -0.1236 -0.3090
 5612W        W 9131   4.107   5.977  11.478  0.1728 -0.2035  0.1287
 5613W        W 9132   4.027   3.949   0.497  0.1146  0.1270  0.0937
 5614W        W 9133   4.873   3.982   0.738 -0.0883 -0.1670 -0.1009
 5615W        W 9134   8.228   2.041   9.355 -0.0328 -0.0607  0.1732
 5616W        W 9135   5.821   8.449   2.414 -0.1263 -0.2592  0.1317
 5617W        W 9136   1.723   7.592   9.967  0.0429 -0.0818 -0.2911
 5618W        W 9137   0.351   5.508   2.416  0.0892  0.0387 -0.0233
 5619W        W 9138   7.441   2.175   9.619 -0.2211  0.0177  0.2452
 5620W        W 9139   5.846   4.647   1.539  0.0859 -0.1594  0.0996
 5621W        W 9140   5.803   8.213   2.825 -0.2448  0.0631  0.0580
 5622W        W 9141   9.547   6.978   0.228 -0.2185  0.1325  0.0358
 5623W        W 9142   6.142   9.328   2.756 -0.1653 -0.5501  0.2815
 5624W        W 9143   7.374   6.708   3.587  0.0418  0.1557 -0.0419
 5625W        W 9144   9.659   2.288   0.755  0.2753 -0.1193 -0.0770
 5626W        W 9145   0.213   4.194   1.867  0.1272  0.0947 -0.2467
 5627W        W 9146   3.975   3.770   7.108  0.1058 -0.0982 -0.0265
 5628W        W 9147   8.914   4.419   3.835  0.0162  0.1080 -0.3490
 5629W        W 9148   0.873   1.888   2.385  0.0454  0.2241  0.3910
 5630W        W 9149   2.630   3.157   9.202 -0.1682  0.1499 -0.0468
 5631W        W 9150   1.843   8.258   9.258 -0.1549 -0.1003 -0.2441
 5632W        W 9151   4.977   1.513  10.924 -0.1424  0.0372  0.1745
 5633W        W 9152   3.864   4.579   0.999 -0.1715  0.0978 -0.0363
 5634W        W 9153   2.714   1.490   8.751  0.1826 -0.0442  0.1168
 5635W        W 9154   6.208   5.205   1.405 -0.1173 -0.0356 -0.0583
 5636W        W 9155   5.088   6.051   8.314  0.1530 -0.0173  0.1812
 5637W        W 9156   2.752   0.240   7.318 -0.1489 -0.4109  0.1217
 5638W        W 9157   4.847   0.125   1.833  0.2043 -0.1370  0.2019
 5639W        W 9158   7.144   9.039   2.900  0.1979  0.2153  0.1393
 5640W        W 9159   0.385   9.222   2.637  0.4235 -0.0706 -0.0165
 5641W        W 9160   8.485   4.240   9.478 -0.0867  0.0985  0.2095
 5642W        W 9161   9.366   6.041   9.364 -0.0552  0.0975  0.2777
 5643W        W 9162   3.308   4.509   2.081 -0.1436  0.0104 -0.4774
 5644W        W 9163   9.361   5.254   8.482  0.1035 -0.0130  0.2146
 5645W        W 9164   9.419   1.492   9.862  0.2079  0.0949  0.2558
 5646W        W 9165   1.845   9.473   9.274 -0.0567  0.1604 -0.0598
 5647W        W 9166   2.107   9.115   3.493  0.0278 -0.1759 -0.0722
 5648W        W 9167   4.027   1.068  10.137 -0.2167 -0.0480 -0.0640
 5649W        W 9168   3.317   9.924   2.543 -0.1332  0.2525  0.3246
 5650W        W 9169   9.878   8.657  11.266  0.2909 -0.1917  0.1768
 5651W        W 9170   3.934   5.484   8.004 -0.0496 -0.1668  0.1312
 5652W        W 9171   0.229   0.116   8.765 -0.1243  0.1302 -0.1278
 5653W        W 9172   4.037   7.833  10.782 -0.3222 -0.2365 -0.3426
 5654W        W 9173   0.751   9.995   2.002  0.1963 -0.0818 -0.0157
 5655W        W 9174   0.957   7.898   1.108  0.2807 -0.1499  0.2723
 5656W        W 9175   8.819   0.524   9.801 -0.0016  0.0682 -0.0618
 5657W        W 9176   3.619   2.253   9.461 -0.1077  0.1153  0.4827
 5658W        W 9177   1.035   5.783   9.553  0.1555  0.2924  0.0424
 5659W        W 9178   6.066   5.555   0.362  0.1151 -0.1992 -0.0807
 5660W        W 9179   3.648   6.011   7.978 -0.1006  0.4841 -0.1930
 5661W        W 9180   5.201   6.475  10.155  0.3390  0.4666  0.0062
 5662W        W 9181   7.528   8.719   3.000  0.1941 -0.0153 -0.1482
 5663W        W 9182   2.939   4.101   8.442 -0.3345 -0.2662  0.2539
 5664W        W 9183   0.735   4.493   0.086 -0.3554  0.0479  0.1432
 5665W        W 9184   6.651   2.928   1.493  0.1652  0.1616 -0.1418
 5666W        W 9185   6.736   8.354   2.365  0.0790 -0.0608  0.1489
 5667W        W 9186   9.701   2.118   8.497  0.1107 -0.1596 -0.2883
 5668W        W 9187   1.435   6.974   3.062  0.1464 -0.2147  0.0507
 5669W        W 9188   6.612   5.039   2.692  0.0323 -0.2182 -0.1021
 5670W        W 9189   8.422   2.628   0.892  0.0996  0.0695 -0.1862
 5671W        W 9190   4.803   5.693   8.119 -0.5978 -0.3131 -0.0358
 5672W        W 9191   4.309   2.417  11.259  0.2028  0.1517  0.0290
 5673W        W 9192   8.353   9.104   1.654  0.3765 -0.0189  0.1693
 5674W        W 9193   4.923   1.856   0.238  0.0316 -0.0861 -0.0765
 5675W        W 9194   9.850   1.851   0.899 -0.2302  0.0026 -0.2102
 5676W        W 9195   7.495   4.469   0.198  0.1198  0.4004 -0.2729
 5677W        W 9196   5.928   3.377   4.222 -0.3660  0.0655  0.0799
 5678W        W 9197   2.575   8.971   8.221 -0.0308 -0.0316  0.4795
 5679W        W 9198   1.769   2.168   2.878 -0.0749  0.3620  0.1086
 5680W        W 9199   6.405   6.479   2.377  0.4541  0.2203 -0.1388
 5681W        W 9200   6.370   8.447   8.752 -0.2698 -0.0492  0.1504
 5682W        W 9201   0.403   0.999  11.139 -0.1073  0.0746  0.3197
 5683W        W 9202   5.750   5.898   7.881  0.2543  0.5117 -0.0974
 5684W        W 9203   5.645   0.869   8.495 -0.3107  0.0164 -0.0637
 5685W        W 9204   3.692   4.325   0.165 -0.4317  0.3507 -0.2640
 5686W        W 9205   9.904   7.688   9.216  0.0926 -0.0087  0.1425
 5687W        W 9206   1.695   1.685   0.197  0.2021 -0.0280 -0.0589
 5688W        W 9207   2.200   0.458   9.646 -0.2135 -0.0003  0.0019
 5689W        W 9208   3.249   3.174  10.327  0.1356 -0.2332  0.2668
 5690W        W 9209   7.765   9.783   9.702 -0.1845 -0.0774 -0.2363
 5691W        W 9210   8.210   9.604  10.341  0.0869  0.1418  0.0797
 5692W        W 9211   7.303   4.992   9.176 -0.1476  0.3041 -0.3259
 5693W        W 9212   9.264   1.768   9.090 -0.3670 -0.1755  0.1111
 5694W        W 9213   6.987   2.534   9.557  0.0094 -0.2927 -0.2010
 5695W        W 9214   8.866   9.544  11.425  0.2919  0.0397 -0.2823
 5696W        W 9215   9.240   4.619   3.481 -0.1929 -0.1067 -0.0333
 5697W        W 9216   9.495   6.221  10.675 -0.1603 -0.1413  0.0889
 5698W        W 9217   4.465   1.629  10.945 -0.0033  0.1498  0.3942
 5699W        W 9218   6.781   7.752   0.556  0.1494  0.0969 -0.1744
 5700W        W 9219   0.700   4.848   1.652 -0.0472 -0.2686  0.1054
 5701W        W 9220   5.011   2.352   9.350 -0.0038 -0.4680 -0.1142
 5702W        W 9221   2.429   0.656  10.363  0.1205 -0.2282  0.0678
 5703W        W 9222   1.926   3.538   8.737  0.2501  0.0624  0.3059
 5704W        W 9223   0.591   0.859  11.554  0.0876  0.0791  0.0843
 5705W        W 9224   0.635   8.406   1.979  0.0150  0.1124  0.1262
 5706W        W 9225   0.977   3.798   9.838  0.1377 -0.1080 -0.0843
 5707W        W 9226   3.028   9.036   7.935 -0.2686 -0.0941 -0.1340
 5708W        W 9227   8.541   7.193   3.293  0.2217  0.1466 -0.2894
 5709W        W 9228   4.255   9.537   7.884 -0.2627 -0.0841 -0.2689
 5710W        W 9229   9.308   4.195   2.472  0.1410 -0.1658 -0.2000
 5711W        W 9230   9.136   4.515  11.058 -0.0408 -0.0529  0.0516
 5712W        W 9231   5.677   8.551   9.986 -0.0566  0.0921  0.2811
 5713W        W 9232   7.289   5.258  10.095  0.1736  0.1311  0.1431
 5714W        W 9233   2.336   6.530   9.468  0.1056 -0.0368 -0.1923
 5715W        W 9234   8.602   2.905   7.806  0.0534  0.1527  0.0196
 5716W        W 9235   4.029   8.944  10.655 -0.0106  0.3802 -0.3075
 5717W        W 9236   3.897   1.509   6.855 -0.0483  0.1354 -0.1550
 5718W        W 9237   5.943   9.929   0.995 -0.3295 -0.1875  0.0501
 5719W        W 9238   8.859   3.801   3.089  0.2038 -0.0576  0.1928
 5720W        W 9239   3.315   9.043   2.727 -0.0988 -0.2030 -0.1140
 5721W        W 9240   4.002   7.068   8.549  0.2640  0.0463 -0.0980
 5722W        W 9241   3.365   5.303  10.259 -0.2880  0.3007  0.0207
 5723W        W 9242   7.683   9.231   3.686  0.2919 -0.2920  0.1061
 5724W        W 9243   6.127   7.932  10.847  0.0527  0.1810 -0.2635
 5725W        W 9244   0.525   2.098   8.996  0.1212 -0.0752  0.1982
 5726W        W 9245   6.124   4.999   0.513  0.0072 -0.0011  0.4451
 5727W        W 9246   0.383   8.682   2.842 -0.0058  0.2601 -0.1909
 5728W        W 9247   4.765   3.515  10.567 -0.1818  0.2058  0.4235
 5729W        W 9248   2.321   4.563   9.997  0.3572 -0.1015 -0.1775
 5730W        W 9249   7.224   0.290   1.488 -0.4275  0.0195 -0.0797
 5731W        W 9250   2.108   5.221   1.287 -0.0035  0.2304  0.0366
 5732W        W 9251   7.763   2.733   9.011  0.1590  0.0123 -0.1923
 5733W        W 9252   9.677   0.780   0.658 -0.0718 -0.2984 -0.0712
 5734W        W 9253   8.723   1.884   9.273 -0.5310 -0.0527 -0.0446
 5735W        W 9254   2.862   1.935  10.792  0.1778  0.1063 -0.0848
 5736W        W 9255   7.326   4.591   2.799  0.2199  0.1010 -0.0930
 5737W        W 9256   9.563   1.928   3.640  0.0604 -0.2018 -0.0946
 5738W        W 9257   0.504   7.131   3.039  0.2565 -0.0056 -0.1375
 5739W        W 9258   2.534   8.857  10.199 -0.2371  0.1414 -0.2483
 5740W        W 9259   9.031   5.284   9.767 -0.2083  0.0232 -0.4421
 5741W        W 9260   3.784   6.491   2.562  0.1322  0.0540 -0.2709
 5742W        W 9261   9.505   9.636  10.297 -0.1598  0.1824 -0.1378
 5743W        W 9262   6.321   9.044   8.144 -0.1451 -0.1373  0.0552
 5744W        W 9263   1.986   4.541   2.150  0.1235 -0.4334  0.1290
 5745W        W 9264   5.510   5.345   9.498 -0.1667  0.1605 -0.0097
 5746W        W 9265   6.612   0.531   3.453 -0.0235  0.0342 -0.1776
 5747W        W 9266   2.559   7.075  11.103 -0.1624  0.2212  0.1462
 5748W        W 9267   6.080   7.337   9.327 -0.3700  0.0967  0.2456
 5749W        W 9268   5.526   1.961   2.541 -0.1351 -0.3422  0.3905
 5750W        W 9269   5.605   4.130   8.706  0.1191 -0.3986  0.2803
 5751W        W 9270   5.180   3.020   0.730 -0.2017  0.0647 -0.0121
 5752W        W 9271   1.000   7.743  11.275  0.0366 -0.0800 -0.1766
 5753W        W 9272   3.107   9.694   0.131 -0.0074 -0.0083  0.1270
 5754W        W 9273   6.394   4.936  11.341  0.0704 -0.1836  0.1330
 5755W        W 9274  10.010   1.319   0.659  0.3639  0.1148  0.1174
 5756W        W 9275   4.647   8.024  11.531 -0.2624 -0.2560  0.3455
 5757W        W 9276   1.598   8.306   1.631  0.1890  0.2932  0.2276
 5758W        W 9277   1.214   0.878   1.138 -0.0564  0.0090  0.1033
 5759W        W 9278   1.913   1.767  10.420  0.1132 -0.1828  0.1124
 5760W        W 9279   4.523   9.895   2.760  0.0748  0.3213 -0.2596
 5761W        W 9280   1.595   4.578   3.246 -0.0058 -0.1532 -0.4440
 5762W        W 9281   2.079   9.939   1.012  0.0407  0.1526 -0.4051
 5763W        W 9282   4.795   4.106   9.087 -0.0095 -0.1347  0.2671
 5764W        W 9283   8.961   7.710   1.654  0.2472  0.0542 -0.0744
 5765W        W 9284   1.224   8.796  10.270 -0.0459 -0.2158 -0.2916
 5766W        W 9285   8.794   9.322   3.734  0.0379 -0.2095 -0.1668
 5767W        W 9286   3.333   6.625   8.597 -0.0262 -0.0948 -0.1682
 5768W        W 9287   7.959   0.466   2.095  0.2550 -0.0938 -0.0938
 5769W        W 9288   4.252   5.046   2.340  0.3778  0.3749  0.2876
 5770W        W 9289   2.941   5.102   2.767 -0.0750 -0.0520  0.2965
 5771W        W 9290   6.439  10.013   7.860 -0.2968 -0.0763 -0.3067
 5772W        W 9291   8.947   4.309   1.725  0.1030 -0.0455 -0.0016
 5773W        W 9292   5.097   1.673   0.754  0.2235  0.0045 -0.0786
 5774W        W 9293   6.504   7.252   8.644 -0.2205 -0.0733  0.4431
 5775W        W 9294   3.331   5.564   8.770  0.0743  0.1912  0.4414
 5776W        W 9295  10.043   6.708   2.557 -0.1072 -0.1566  0.1994
 5777W        W 9296   7.600   3.227   9.407 -0.0663 -0.0340  0.2572
 5778W        W 9297   9.452   3.173   1.887  0.2284 -0.0440  0.0980
 5779W        W 9298   1.397   4.927   8.973 -0.0324  0.1856 -0.0509
 5780W        W 9299   9.697   3.622   3.751 -0.0890  0.1704  0.2028
 5781W        W 9300   7.540   8.280   3.208  0.1220  0.1593 -0.3447
 5782W        W 9301   5.972   1.510  11.058 -0.0218  0.0718 -0.1604
 5783W        W 9302   9.746   9.764   9.485  0.0609 -0.2434 -0.3241
 5784W        W 9303   7.592   2.786  10.241 -0.3236  0.2454 -0.1417
 5785W        W 9304   0.154   6.022   2.088  0.0980 -0.0506  0.3189
 5786W        W 9305   4.132   2.671  10.280 -0.0971  0.0569 -0.3406
 5787W        W 9306   0.176   2.451   2.378 -0.1489 -0.2034 -0.0820
 5788W        W 9307   4.786   7.353   1.178  0.1947  0.1826 -0.0846
 5789W        W 9308   9.914   6.238   9.425  0.5208  0.3669  0.1079
 5790W        W 9309   2.591   3.737  10.081 -0.3617 -0.2957 -0.0025
 5791W        W 9310   5.973   9.827   0.540  0.2573  0.1801  0.0596
 5792W        W 9311   9.244   6.995   9.506 -0.0667 -0.2193  0.1965
 5793W        W 9312   8.642   6.792   0.318  0.2430 -0.1907 -0.1673
 5794W        W 9313   7.693   3.133   0.455 -0.2860  0.0058 -0.3374
 5795W        W 9314   4.647   1.163  11.092  0.0091 -0.1492 -0.0159
 5796W        W 9315   8.552   1.462   9.629  0.1269  0.1302 -0.2315
 5797W        W 9316   9.159   0.591   8.898 -0.1223  0.3244 -0.0720
 5798W        W 9317   6.131   7.952   7.923  0.2196  0.0976  0.1969
 5799W        W 9318   7.317   5.934   8.788 -0.0015  0.2745 -0.0368
 5800W        W 9319   1.559   8.782   0.660 -0.3020  0.2158 -0.4543
 5801W        W 9320   3.691   5.694  10.243  0.2846 -0.1958 -0.0072
 5802W        W 9321   8.926   1.223   7.499  0.2664 -0.2751  0.0827
 5803W        W 9322   2.183   6.382   8.758 -0.1168 -0.0685  0.0441
 5804W        W 9323   8.906   4.956   8.538 -0.2421 -0.1866  0.3328
 5805W        W 9324   2.742   5.992  10.934  0.2241 -0.2686  0.2129
 5806W        W 9325   9.016   1.307  10.860 -0.1018  0.0219 -0.0895
 5807W        W 9326   2.280   2.246   9.650 -0.1134  0.5073 -0.0371
 5808W        W 9327   1.105   6.257  11.252 -0.0584  0.2360 -0.2087
 5809W        W 9328   3.702   9.351   1.548  0.0993 -0.1756 -0.0748
 5810W        W 9329   2.244   2.889   2.726  0.0182  0.1141  0.0804
 5811W        W 9330   1.328   1.324   2.054  0.1796  0.3297 -0.1359
 5812W        W 9331   0.226   1.519  11.355 -0.0836  0.5326  0.1281
 5813W        W 9332   4.415   8.185  10.580  0.1118  0.0324  0.1072
 5814W        W 9333   0.945   5.248   9.524  0.3952  0.2497 -0.4377
 5815W        W 9334   2.335   7.162   0.476  0.0729  0.0845 -0.0390
 5816W        W 9335   2.125   7.427   3.289  0.0923  0.4815  0.0092
 5817W        W 9336   0.898   0.858   8.859  0.2933 -0.0169 -0.0378
 5818W        W 9337   9.288   7.853  11.050  0.2064 -0.0220  0.2394
 5819W        W 9338   5.369   1.454   9.572  0.1368  0.3948  0.1377
 5820W        W 9339   5.216   4.374  10.631  0.0486  0.0043 -0.1716
 5821W        W 9340   3.097   6.483   2.875  0.2045  0.3317 -0.1905
 5822W        W 9341   3.223   7.125  10.236  0.1778 -0.1228  0.1813
 5823W        W 9342   3.113   8.120   7.024  0.0784 -0.2270 -0.1004
 5824W        W 9343   7.113   3.920   8.863  0.1188 -0.2192 -0.2396
 5825W        W 9344   3.501   6.591   8.084  0.3156 -0.0268 -0.2956
 5826W        W 9345   1.134   2.189   2.050 -0.0234  0.0288 -0.0484
 5827W        W 9346   7.545   9.075   2.607  0.2139  0.0758 -0.0326
 5828W        W 9347   3.329   1.687   3.537 -0.1934 -0.2819  0.0203
 5829W        W 9348   3.272   1.646  11.199 -0.2390 -0.0717  0.0465
 5830W        W 9349   6.050   2.713   9.973  0.3325  0.0662 -0.0352
 5831W        W 9350   0.079   3.296   2.928 -0.2006  0.0154 -0.1682
 5832W        W 9351   4.807   4.610   2.815 -0.1073  0.1859 -0.0683
 5833W        W 9352   4.674   0.500   0.444  0.2222  0.1516 -0.0724
 5834W        W 9353   8.297   4.051   0.509 -0.0942 -0.0488  0.1216
 5835W        W 9354   9.460   4.066   3.638 -0.3582 -0.1379 -0.2185
 5836W        W 9355   4.585   3.248   0.351 -0.0835 -0.0154  0.0450
 5837W        W 9356   4.084   1.560   7.400  0.1169  0.2427  0.0994
 5838W        W 9357   9.742   4.499   3.621 -0.5410  0.0343 -0.0038
 5839W        W 9358   2.996   4.175  11.498  0.2863  0.2063 -0.1283
 5840W        W 9359   8.106   6.521   1.010 -0.1486 -0.0828  0.3220
 5841W        W 9360   9.426   4.345   4.061 -0.2232 -0.0187 -0.0248
 5842W        W 9361   6.213   1.504   2.646 -0.2162  0.1006  0.0120
 5843W        W 9362   3.236   6.565   3.348 -0.0408 -0.2337 -0.2290
 5844W        W 9363   2.846   2.014   8.727  0.0015 -0.5381 -0.1205
 5845W        W 9364   0.626   5.449   3.203 -0.2383  0.1443  0.2243
 5846W        W 9365   7.043   3.616   2.914  0.2824  0.4298 -0.1782
 5847W        W 9366   2.879   2.563   8.629  0.2416  0.0972  0.2087
 5848W        W 9367   9.064   0.938   2.935 -0.0696  0.1784 -0.0953
 5849W        W 9368   0.362   2.720   1.584  0.2631  0.2938  0.2250
 5850W        W 9369   1.917   0.957  11.028  0.3273 -0.1131 -0.0006
 5851W        W 9370   6.062   3.287   3.158  0.0174 -0.0683  0.0579
 5852W        W 9371   3.139   9.479   0.612 -0.0893  0.2219 -0.2254
 5853W        W 9372   8.918   4.037  10.991 -0.1628 -0.3509 -0.2776
 5854W        W 9373   8.132   7.166   8.060  0.1744  0.0449 -0.1321
 5855W        W 9374   3.454   0.892   0.539 -0.1731 -0.1094  0.0308
 5856W        W 9375   7.639   4.210  10.825 -0.4163  0.3158 -0.4108
 5857W        W 9376   3.013   1.813   0.960 -0.2390  0.1495 -0.0010
 5858W        W 9377   2.656   7.800   1.039 -0.0574  0.0286  0.1912
 5859W        W 9378   4.447   1.478   9.313 -0.0932  0.0233 -0.1221
 5860W        W 9379   2.647   1.579   0.362  0.0333 -0.2962 -0.5504
 5861W        W 9380   2.372   8.388   8.706 -0.2567  0.3281 -0.3675
 5862W        W 9381   0.608   1.845  11.512  0.1245 -0.1851 -0.1311
 5863W        W 9382   2.790   0.980  11.439  0.1490 -0.2204 -0.0139
 5864W        W 9383   9.959   2.945   8.152 -0.0451 -0.1065  0.0727
 5865W        W 9384   4.313   5.584   2.317 -0.1762  0.4164  0.2052
 5866W        W 9385   3.361   4.846   1.046  0.1322  0.0889 -0.2061
 5867W        W 9386   7.854   1.078  10.953  0.0635  0.0438 -0.0583
 5868W        W 9387   7.590   1.926   3.247  0.1546 -0.2366  0.1369
 5869W        W 9388   0.955   0.102  10.135  0.1983  0.1136 -0.1436
 5870W        W 9389   8.903   6.233   2.027 -0.1825  0.0240  0.3586
 5871W        W 9390   4.096   7.324  10.508 -0.4124 -0.3038  0.0940
 5872W        W 9391   6.647   1.031   8.485 -0.3061 -0.1096  0.1700
 5873W        W 9392   4.909   4.080  10.390 -0.0048  0.3181  0.3379
 5874W        W 9393   1.894   6.834   3.323 -0.1149 -0.3076 -0.0992
 5875W        W 9394   8.254   1.209  11.188  0.0651 -0.2034 -0.3362
 5876W        W 9395   0.142   3.862  10.299  0.1026 -0.0253 -0.2048
 5877W        W 9396   2.215   1.156   3.223  0.0240  0.2909 -0.0059
 5878W        W 9397   6.419   7.854  11.305  0.0942 -0.0697  0.0501
 5879W        W 9398   5.556   3.119   3.268 -0.0361 -0.2172  0.1959
 5880W        W 9399   1.708   0.990   1.360  0.3247 -0.2781  0.2246
 5881W        W 9400   8.612   4.020   8.975  0.0919 -0.1375 -0.1824
 5882W        W 9401   1.066   2.083  10.178  0.0192  0.1682 -0.2368
 5883W        W 9402   4.260   9.099   8.746 -0.0387  0.2808 -0.4094
 5884W        W 9403   3.080   8.180   1.143  0.1334  0.1247 -0.0359
 5885W        W 9404   3.488   3.058   3.445 -0.1478 -0.0954  0.0986
 5886W        W 9405   6.769   3.354  10.676  0.0602  0.1417 -0.0440
 5887W        W 9406   5.522   6.702   1.509 -0.1036 -0.2317 -0.1697
 5888W        W 9407   5.653   5.824   3.302  0.2590  0.0634 -0.2505
 5889W        W 9408   6.151   9.433   8.524 -0.1069 -0.2152  0.2304
 5890W        W 9409   1.440   4.663   8.239 -0.1395  0.0936 -0.1261
 5891W        W 9410   8.958   6.459  11.439  0.0973  0.2794  0.0925
 5892W        W 9411   4.041   8.831   0.792 -0.3259  0.0568  0.1861
 5893W        W 9412   6.333   2.692   9.220 -0.0535  0.2213 -0.1752
 5894W        W 9413   3.637   0.864  11.212 -0.0200  0.0111  0.2535
 5895W        W 9414   5.643   6.383   9.145 -0.0269  0.0040 -0.1295
 5896W        W 9415   9.978   0.116   9.236  0.1079  0.0523  0.4959
 5897W        W 9416   3.262   8.779   8.856 -0.1317  0.0256  0.4652
 5898W        W 9417   3.675   2.409  10.584 -0.0816  0.0007 -0.0162
 5899W        W 9418   0.691   2.872   9.813 -0.1078 -0.1795  0.0231
 5900W        W 9419   7.985   0.633   8.245  0.0747  0.2537  0.0515
 5901W        W 9420   9.363   9.603   2.784 -0.1688 -0.1285 -0.2011
 5902W        W 9421   3.389   5.730   0.455  0.1299 -0.1167 -0.0526
 5903W        W 9422   8.341   7.662   9.710  0.2220  0.1999 -0.1099
 5904W        W 9423   0.563   9.025  11.350  0.1061  0.0734  0.1227
 5905W        W 9424   3.415   2.611   2.732 -0.1006 -0.5084 -0.0331
 5906W        W 9425   4.038   1.312   9.667  0.0186 -0.1571  0.2282
 5907W        W 9426   4.421   9.041   1.087  0.3045  0.0423 -0.1479
 5908W        W 9427   8.898   2.860   2.843  0.3204  0.3414  0.4615
 5909W        W 9428   8.135   3.637   8.260 -0.0747 -0.2880 -0.1401
 5910W        W 9429   9.855   6.655  10.910 -0.3521  0.1000  0.1321
 5911W        W 9430   4.615   4.418   4.463 -0.0652  0.1345  0.0836
 5912W        W 9431   2.638   0.468  11.054 -0.1958 -0.3921 -0.0143
 5913W        W 9432   5.958   0.861   7.390  0.0710  0.1814 -0.2006
 5914W        W 9433   9.067   4.326   0.455 -0.0831  0.1936 -0.0036
 5915W        W 9434   1.828   4.229   9.397 -0.3684 -0.1215 -0.2771
 5916W        W 9435   4.781   0.537   6.511 -0.0078  0.1566 -0.1738
 5917W        W 9436   2.749   1.366   7.748 -0.0285  0.1788  0.3249
 5918W        W 9437   8.242   8.198   3.362  0.1269 -0.3791  0.0938
 5919W        W 9438   1.958   2.549  10.917 -0.0458  0.2524  0.1718
 5920W        W 9439   5.712   7.741  10.578  0.1942 -0.0565  0.1909
 5921W        W 9440   2.261   7.773   1.903 -0.1173  0.0024  0.1691
 5922W        W 9441   7.349   9.756   9.375  0.1409  0.2285 -0.1169
 5923W        W 9442   8.058   3.700   0.943  0.1623  0.2431  0.1322
 5924W        W 9443   7.577   8.399   9.463  0.0198  0.2602 -0.1287
 5925W        W 9444   1.138   9.833  10.585 -0.0863 -0.1517  0.3728
 5926W        W 9445   1.918   6.009  10.094 -0.2856 -0.1700 -0.1047
 5927W        W 9446   0.444   4.097   3.749 -0.2063 -0.1284 -0.0611
 5928W        W 9447   7.063   3.449  11.400 -0.0407 -0.0355 -0.2377
 5929W        W 9448   3.691   7.365   2.044  0.0600 -0.0529  0.0635
 5930W        W 9449   8.182   7.117  11.586  0.1726  0.1141  0.0651
 5931W        W 9450   0.876   1.147   0.254 -0.1280  0.1397  0.2114
 5932W        W 9451   3.343   2.464   0.057 -0.1369  0.3143  0.1232
 5933W        W 9452   8.290   4.598   1.135 -0.1090  0.3815  0.1177
 5934W        W 9453   2.395   8.875   8.804 -0.1758  0.1512  0.0265
 5935W        W 9454   3.418   5.532   2.077  0.3059  0.0379  0.1931
 5936W        W 9455   4.994   8.594   0.661  0.0673 -0.2149 -0.3166
 5937W        W 9456   9.934   4.774   2.770  0.0177 -0.2560 -0.0212
 5938W        W 9457   6.719   6.337   0.805 -0.1388 -0.0796 -0.2186
 5939W        W 9458   9.376   4.350   1.549  0.0816  0.1493 -0.1652
 5940W        W 9459   0.850   4.948   0.285  0.2541  0.1498  0.2209
 5941W        W 9460   3.228   0.665   7.817 -0.1698  0.0503 -0.2586
 5942W        W 9461   6.076   2.485   8.219  0.0860 -0.2821 -0.0087
 5943W        W 9462   7.217   4.359   2.348 -0.1252  0.1755  0.3401
 5944W        W 9463   4.772   8.424   9.066  0.1303  0.1186  0.3654
 5945W        W 9464   0.658   6.025   2.375  0.1204  0.0412  0.1754
 5946W        W 9465   6.045   8.620  11.324 -0.1124 -0.0404 -0.5163
 5947W        W 9466   0.156   2.990  11.019  0.0325 -0.1261  0.0472
 5948W        W 9467   5.928   4.539   4.311 -0.0881  0.0202  0.0176
 5949W        W 9468   2.518   7.688   0.320 -0.2334 -0.1993 -0.2368
 5950W        W 9469   4.402   5.353   2.871 -0.2528  0.1269 -0.1514
 5951W        W 9470   8.519   5.436   1.576 -0.1166 -0.2925  0.1252
 5952W        W 9471   2.145   9.859   9.257 -0.0528  0.2623 -0.0312
 5953W        W 9472   5.900   2.606  10.972  0.0393  0.0988  0.1974
 5954W        W 9473   9.715   3.406   1.390  0.1544 -0.0894 -0.1819
 5955W        W 9474   0.776   8.610   2.438 -0.2383 -0.0790  0.0629
 5956W        W 9475   1.358   2.166   3.701 -0.0575 -0.0030  0.4272
 5957W        W 9476   6.981   9.798  11.223  0.1876  0.0807 -0.3964
 5958W        W 9477   2.489   6.611   2.306  0.0025 -0.0982 -0.1448
 5959W        W 9478   9.063   1.064   8.480  0.1603 -0.3371 -0.3327
 5960W        W 9479   3.408   6.724   9.395 -0.1397  0.3091  0.2117
 5961W        W 9480   1.401   9.494   0.961 -0.1412 -0.0467  0.1046
 5962W        W 9481   8.352   9.858   3.900  0.0720 -0.4395  0.3460
 5963W        W 9482   8.450   8.653   3.395  0.1006  0.3092 -0.3025
 5964W        W 9483   1.017   1.740   8.842 -0.0262  0.2934  0.2680
 5965W        W 9484   9.699   8.582   8.001 -0.1601  0.0328  0.1629
 5966W        W 9485   4.940   3.926   3.493  0.2270 -0.0687  0.0820
 5967W        W 9486   6.285   0.672   2.681  0.2498  0.0420  0.2954
 5968W        W 9487   1.865   7.760  11.196 -0.0741 -0.1646  0.1596
 5969W        W 9488   1.379   1.799   9.822  0.2580 -0.1548 -0.1833
 5970W        W 9489   7.675   0.709  10.612 -0.3851  0.3618 -0.1647
 5971W        W 9490   7.738   0.250   8.627 -0.1885 -0.2090 -0.0245
 5972W        W 9491   2.874   1.110   3.077  0.0279 -0.0346  0.2883
 5973W        W 9492   0.297   0.381  10.060 -0.1074  0.0971  0.0944
 5974W        W 9493   3.223   4.339   0.913 -0.0264 -0.1841 -0.1301
 5975W        W 9494   0.295   1.729   8.166  0.0778  0.2830  0.0690
 5976W        W 9495   0.060   3.263   3.449  0.0039  0.0540 -0.0035
 5977W        W 9496   9.942   0.838   1.889  0.1731 -0.1865  0.0219
 5978W        W 9497   9.608   7.676   1.407 -0.0637 -0.1348  0.1565
 5979W        W 9498   2.875   6.016   2.990  0.1438 -0.2061 -0.0962
 5980W        W 9499   5.116   4.809   3.346  0.1552 -0.2202  0.0321
 5981W        W 9500   9.680   0.623  10.447 -0.2547 -0.1627  0.1425
 5982W        W 9501   0.729   8.376   0.983 -0.0223 -0.2596  0.2519
 5983W        W 9502   4.670   9.197   1.524  0.0093 -0.1328  0.2970
 5984W        W 9503   5.834   1.808   7.682 -0.1823  0.0442  0.0925
 5985W        W 9504   5.871   0.704   1.007  0.0752 -0.0091  0.3369
 5986W        W 9505   1.691   0.284   2.481 -0.0745 -0.1009  0.1806
 5987W        W 9506   6.038   6.591   1.342 -0.1977 -0.2281 -0.3569
 5988W        W 9507   7.632   4.315  11.335 -0.1395 -0.2693 -0.0552
 5989W        W 9508   4.554   7.111   9.177  0.2707  0.0839  0.0386
 5990W        W 9509   8.774   4.088   2.694 -0.1294  0.1017  0.0938
 5991W        W 9510   6.517   2.403   3.378  0.2565 -0.0391 -0.0158
 5992W        W 9511   9.151   2.289   0.836 -0.0285 -0.3833 -0.1832
 5993W        W 9512   1.581   1.636  10.846  0.1149  0.3292  0.1069
 5994W        W 9513   3.942   0.024   1.462 -0.1114  0.1277  0.0429
 5995W        W 9514   0.224   2.436  10.895 -0.2981  0.1866  0.1127
 5996W        W 9515   7.068   4.438   1.409  0.2892 -0.2719  0.0846
 5997W        W 9516   4.101   2.412   3.441  0.1040  0.3951  0.0749
 5998W        W 9517   6.128   9.959   2.508  0.0279 -0.1453  0.0496
 5999W        W 9518   7.956   2.985   1.091  0.1260 -0.0090  0.1648
 6000W        W 9519   9.791   5.337   0.061  0.0538 -0.0867  0.0555
 6001W        W 9520   1.154  10.074   9.644  0.3334  0.1993 -0.2995
 6002W        W 9521   8.747   2.336   9.509  0.0335 -0.1036 -0.1249
 6003W        W 9522   4.658   9.541   9.580  0.1296 -0.1966 -0.2200
 6004W        W 9523   3.399   9.942  11.399  0.0675  0.2472  0.3125
 6005W        W 9524   3.536   9.066   1.965  0.3167 -0.1690 -0.1632
 6006W        W 9525   8.136   6.721   9.890 -0.0489 -0.1485  0.0726
 6007W        W 9526   0.572   1.675   8.632  0.0143  0.3015 -0.0742
 6008W        W 9527   9.333   2.301   2.151  0.2816 -0.1819  0.1003
 6009W        W 9528   8.446   6.082  11.240  0.0643  0.1677  0.1261
 6010W        W 9529   9.379   1.305   2.775  0.0218 -0.2331  0.0423
 6011W        W 9530   6.959   0.911   9.096 -0.0250 -0.0681  0.0050
 6012W        W 9531   5.984   9.850   1.557 -0.2081 -0.1279 -0.1265
 6013W        W 9532   8.123   2.526   2.886 -0.0377  0.1416 -0.0566
 6014W        W 9533   1.606   3.847   9.966  0.0988 -0.1470  0.0130
 6015W        W 9534   6.160   0.569   9.188 -0.1877  0.0934  0.2667
 6016W        W 9535   7.340   6.135  10.224 -0.2401  0.0743  0.1554
 6017W        W 9536   0.457   5.696   8.997 -0.0421 -0.1835  0.1026
 6018W        W 9537   2.992   8.891   9.716 -0.0402  0.1595  0.1057
 6019W        W 9538   0.450   6.283   9.553  0.1742  0.2950  0.1982
 6020W        W 9539   0.029   4.292   9.260 -0.3420  0.2423  0.1138
 6021W        W 9540   3.267   5.746   1.466 -0.0726 -0.3258 -0.1568
 6022W        W 9541   2.912   2.637   0.767  0.1308  0.0575  0.1960
 6023W        W 9542   6.195   7.714  10.399 -0.2516 -0.0230  0.1437
 6024W        W 9543   3.229   4.977  11.364 -0.2369  0.1475 -0.1611
 6025W        W 9544   3.049   8.923  10.696 -0.0501  0.3428  0.0465
 6026W        W 9545   6.678   4.818   8.346 -0.1909  0.1140 -0.0625
 6027W        W 9546   5.491   7.077   1.832 -0.0618 -0.1982 -0.0143
 6028W        W 9547   7.569   2.786   1.386 -0.0752 -0.3975 -0.0523
 6029W        W 9548   5.371   9.897   3.032  0.1361  0.5235 -0.1954
 6030W        W 9549   9.740  10.009   0.932 -0.0650 -0.2046  0.2731
 6031W        W 9550   0.298   7.760  11.572  0.2726 -0.2378  0.2712
 6032W        W 9551   4.622   7.037   8.579 -0.0552  0.0375  0.0917
 6033W        W 9552   5.001   4.702  10.125  0.0609  0.0421 -0.1153
 6034W        W 9553   8.134   2.325  10.845  0.1301 -0.0885  0.0828
 6035W        W 9554   2.680   1.912   9.788 -0.4874  0.4054 -0.2191
 6036W        W 9555   8.786   5.283   0.501  0.0434  0.1391 -0.0363
 6037W        W 9556   0.641   2.672   3.562  0.2197 -0.0865 -0.0077
 6038W        W 9557   3.211   1.553   8.765  0.0265  0.3320 -0.1829
 6039W        W 9558   2.527   8.667   2.111  0.0419  0.2327  0.1286
 6040W        W 9559   5.622   2.823   8.164  0.1442  0.2668  0.2821
 6041W        W 9560   4.020   9.775  10.795 -0.0657 -0.2511 -0.1576
 6042W        W 9561   8.673   0.532   3.939 -0.3108 -0.1293  0.3026
 6043W        W 9562   3.128   2.692   1.517  0.2791 -0.1219 -0.3098
 6044W        W 9563   3.212   0.316   8.199 -0.4789  0.0662  0.0138
 6045W        W 9564   0.018   4.967   2.290  0.1912  0.1615  0.1317
 6046W        W 9565   3.288   3.312  10.812  0.1829  0.2114 -0.0299
 6047W        W 9566   1.745   4.814   0.265  0.0053  0.1665  0.0523
 6048W        W 9567   7.138   5.886   2.424 -0.1305  0.4428  0.2728
 6049W        W 9568   2.336   3.867   8.432 -0.1170  0.0193 -0.0815
 6050W        W 9569   1.253   9.666   9.931  0.1617 -0.3651 -0.3716
 6051W        W 9570   7.876   3.000  11.189  0.1184 -0.0922 -0.2211
 6052W        W 9571   1.783   7.688   2.432  0.2600  0.2932  0.0729
 6053W        W 9572   4.448   0.160   7.221 -0.1474  0.1781 -0.0465
 6054W        W 9573   0.210   3.604   0.672 -0.0174  0.1638  0.1226
 6055W        W 9574   6.291   4.805   1.693  0.0989  0.0143 -0.0754
 6056W        W 9575   3.337   2.017   7.686  0.4860 -0.0098 -0.3209
 6057W        W 9576   1.550   7.503   0.337 -0.2703  0.0196  0.0142
 6058W        W 9577   1.470   8.111   1.188 -0.1153 -0.1256  0.1490
 6059W        W 9578   5.901   6.518   1.837  0.0374 -0.1554  0.0291
 6060W        W 9579   3.195   7.875  10.625 -0.1193 -0.0281 -0.2607
 6061W        W 9580   4.937   7.567  11.048  0.0567  0.0817 -0.0012
 6062W        W 9581   9.287   6.613   8.732  0.2010 -0.1726 -0.0448
 6063W        W 9582   2.685   5.648   9.265  0.2212 -0.2500  0.0451
 6064W        W 9583   1.843   1.288   7.340 -0.0008 -0.0753 -0.4392
 6065W        W 9584   5.806   6.289   3.436  0.3426  0.1235 -0.2327
 6066W        W 9585   9.736   9.309  11.092  0.0838  0.0191 -0.4205
 6067W        W 9586   1.424   8.888   1.653 -0.0750 -0.0040  0.2171
 6068W        W 9587   5.250   0.569   8.711 -0.0475  0.1448 -0.1078
 6069W        W 9588   8.280   1.679  11.475 -0.3320  0.1436  0.2211
 6070W        W 9589   7.453   4.797  11.409 -0.3067  0.1968 -0.0228
 6071W        W 9590   5.701   1.215  10.443 -0.0238 -0.1376 -0.1176
 6072W        W 9591   5.788   7.934  10.120 -0.3547 -0.2444  0.0508
 6073W        W 9592   6.210   6.680  10.861 -0.1025 -0.1280 -0.4113
 6074W        W 9593   7.833   2.363   9.372 -0.2294  0.1722 -0.2529
 6075W        W 9594   1.490   4.058  10.395  0.0773  0.1189 -0.2770
 6076W        W 9595   0.382  10.018   3.439 -0.2449  0.0233 -0.0022
 6077W        W 9596   3.035   3.894   3.347  0.0002  0.1554  0.1734
 6078W        W 9597   5.311   3.179   2.211 -0.0039 -0.4419 -0.0032
 6079W        W 9598   0.314   9.240   0.831 -0.0730  0.1517 -0.0584
 6080W        W 9599   6.561   1.911   3.361 -0.3749 -0.2021  0.0446
 6081W        W 9600  10.064   7.510   3.532  0.0538 -0.2086 -0.2872
 6082W        W 9601   8.769   0.543  11.412 -0.0392  0.0741  0.1310
 6083W        W 9602   5.928   5.883   9.858  0.1562  0.2367  0.2580
 6084W        W 9603   9.055   5.358  10.789  0.0464 -0.4744  0.0486
 6085W        W 9604   9.202   7.339   0.171 -0.1010 -0.1570  0.3206
 6086W        W 9605   9.890   7.454   8.753 -0.1278 -0.2786  0.1484
 6087W        W 9606   6.736   3.846   0.804 -0.0708  0.2200 -0.0514
 6088W        W 9607   4.268   1.913   2.717 -0.0394 -0.0517 -0.0188
 6089W        W 9608   2.136   3.163   9.713  0.0748 -0.1164 -0.2121
 6090W        W 9609   0.536   2.817  11.485 -0.2969  0.1448  0.1673
 6091W        W 9610   9.336   2.278   0.377 -0.0156 -0.0008  0.0969
 6092W        W 9611   2.049   2.580   3.622 -0.1721 -0.1340  0.3199
 6093W        W 9612   4.110   9.082   6.705 -0.2288 -0.1059  0.1404
 6094W        W 9613   0.590   4.285   2.174 -0.0445  0.3116  0.0194
 6095W        W 9614   5.967   6.737   0.443  0.1796  0.2502  0.4878
 6096W        W 9615   7.327   8.799   0.276  0.1563 -0.1408 -0.1540
 6097W        W 9616   5.984   2.043  10.347  0.1970 -0.0264  0.0183
 6098W        W 9617   6.655   0.548   0.587  0.1076  0.4716 -0.0390
 6099W        W 9618   2.237   7.294   8.609 -0.0607  0.2655 -0.2481
 6100W        W 9619   3.098   5.147   9.908  0.0364  0.3065  0.0096
 6101W        W 9620   6.025   7.842   3.661  0.4719  0.0205  0.2402
 6102W        W 9621   5.817   1.144   0.742 -0.1615 -0.0672  0.2189
 6103W        W 9622   0.364   0.236   1.608  0.0364 -0.0225 -0.0957
 6104W        W 9623   1.210   3.754   1.710  0.0915  0.0245 -0.0901
 6105W        W 9624   5.344   1.248   0.786 -0.1013 -0.1284  0.0312
 6106W        W 9625   8.192   9.679   7.404  0.0139  0.0155 -0.1492
 6107W        W 9626   3.483   3.610   3.373  0.1779 -0.0360  0.0446
 6108W        W 9627   0.281   6.787   1.286  0.0798 -0.2923  0.1521
 6109W        W 9628   1.019   6.389   9.637 -0.0450 -0.1418 -0.0100
 6110W        W 9629   7.603   3.952   2.240 -0.0445 -0.1083  0.0932
 6111W        W 9630   7.553   0.673  11.209 -0.1141  0.0431  0.1240
 6112W        W 9631   3.883   2.039   1.217 -0.0775  0.0343 -0.2824
 6113W        W 9632   8.434   5.166   8.460 -0.0836  0.0776 -0.1487
 6114W        W 9633   8.870   0.368   2.656  0.1493  0.0370 -0.0705
 6115W        W 9634   1.413   1.194  11.003  0.0340 -0.0333  0.2882
 6116W        W 9635   0.893   7.820   9.376 -0.0588 -0.1866 -0.1686
 6117W        W 9636   5.037  10.007   2.674  0.1500  0.1045  0.0082
 6118W        W 9637   3.364   4.926   8.881  0.2293 -0.3625  0.2251
 6119W        W 9638   4.177   3.126   9.226 -0.4663  0.0851  0.3415
 6120W        W 9639   9.475   0.212  10.192  0.2169 -0.0209  0.3779
 6121W        W 9640   7.349   4.357   9.893 -0.1204 -0.3279  0.0350
 6122W        W 9641   1.847   7.135   8.955 -0.0623 -0.0934 -0.0268
 6123W        W 9642   4.397   1.941   1.209 -0.2007 -0.3163  0.0638
 6124W        W 9643   5.640   9.984   0.137  0.1426  0.1365  0.3159
 6125W        W 9644   7.964   8.621   8.889 -0.0157 -0.0172  0.1495
 6126W        W 9645   5.026   1.068   8.818  0.2379 -0.2252  0.2163
 6127W        W 9646   7.757   1.421  10.041 -0.1727  0.2246 -0.2375
 6128W        W 9647   7.234   9.848  10.348 -0.1378 -0.0971  0.3806
 6129W        W 9648   6.425   9.974   1.243  0.2096  0.0072 -0.3448
 6130W        W 9649   9.266   1.851  10.315  0.0223 -0.0864  0.0089
 6131W        W 9650   0.658   7.782   8.459  0.1133 -0.1230  0.3260
 6132W        W 9651   9.480   1.065   2.016  0.0554  0.2409 -0.1441
 6133W        W 9652   7.599   3.268   9.944  0.0983  0.2276  0.2607
 6134W        W 9653   6.872   6.879   8.700  0.0019  0.0239 -0.1382
 6135W        W 9654   6.058   4.513   7.596  0.0132  0.0773  0.0110
 6136W        W 9655   1.004   4.557   1.266  0.1725  0.1117  0.4082
 6137W        W 9656   4.001   9.307   0.229  0.2424  0.0114  0.2673
 6138W        W 9657   8.307   5.337   2.619  0.1147  0.2197 -0.0413
 6139W        W 9658   3.435   0.091   9.415  0.0949 -0.0340 -0.0752
 6140W        W 9659   9.833   5.346   8.581 -0.1001 -0.2385  0.1971
 6141W        W 9660   6.332   3.624   9.532  0.0380  0.0750 -0.1269
 6142W        W 9661   3.828   9.829   2.304 -0.2540 -0.2050  0.2054
 6143W        W 9662   9.058   3.354   0.701 -0.2543 -0.1007 -0.1420
 6144W        W 9663   0.213   3.610   9.313 -0.1930 -0.1239 -0.2342
 6145W        W 9664   2.578   2.377   1.009  0.0731 -0.1537  0.0517
 6146W        W 9665   4.396   3.640  10.925 -0.2339  0.0235  0.2587
 6147W        W 9666   0.895   4.031   1.352 -0.2629 -0.0232 -0.1825
 6148W        W 9667   9.433   2.974   1.423  0.1098 -0.3651  0.2918
 6149W        W 9668   2.511   9.249   9.878  0.0353 -0.1063 -0.3064
 6150W        W 9669   4.209   8.112   4.030  0.0031 -0.1162  0.1634
 6151W        W 9670   7.252   8.917  10.490 -0.3548 -0.2632  0.1787
 6152W        W 9671   1.306   5.160   0.103 -0.0159 -0.2052  0.0211
 6153W        W 9672   7.246   9.068   8.696 -0.3433  0.2993 -0.0974
 6154W        W 9673   8.332   7.879  11.238 -0.0055  0.2431  0.0879
 6155W        W 9674   2.240   1.343   8.707 -0.0907 -0.0990  0.0178
 6156W        W 9675   5.023   5.236   1.273  0.1291  0.1039  0.3269
 6157W        W 9676   9.257   6.739   3.315 -0.0034  0.0518  0.0175
 6158W        W 9677   6.676   5.722   0.376  0.3020 -0.1143 -0.2305
 6159W        W 9678   0.795   7.879   7.925 -0.0005 -0.2315 -0.2027
 6160W        W 9679   7.691   7.328   1.424  0.1311  0.3276  0.1145
 6161W        W 9680   5.962   0.581   8.247 -0.1189  0.2124 -0.0904
 6162W        W 9681   3.841   4.380   3.577  0.0368 -0.2872  0.2212
 6163W        W 9682   0.755   5.864  10.995 -0.1529  0.1979  0.0526
 6164W        W 9683   5.331   3.628   8.545  0.1039 -0.0523 -0.0259
 6165W        W 9684   5.242   2.742   3.192  0.0845  0.1280 -0.1785
 6166W        W 9685   8.332   6.446   0.099 -0.0050 -0.1273  0.1924
 6167W        W 9686   8.902   7.793  10.632  0.1134  0.0070  0.0746
 6168W        W 9687   5.873   7.021   4.060  0.2212 -0.2022  0.0692
 6169W        W 9688   5.582   7.447   0.058  0.2366  0.0411 -0.3084
 6170W        W 9689  10.075   7.044   3.083 -0.0486 -0.0905  0.0583
 6171W        W 9690   4.308   6.671   8.958 -0.0735 -0.1460  0.1426
 6172W        W 9691   6.150   4.095  11.387 -0.1738  0.3156  0.0062
 6173W        W 9692   3.696   1.433  10.526  0.1582 -0.0839  0.1995
 6174W        W 9693   1.303   7.905   1.820 -0.0230 -0.1075 -0.2326
 6175W        W 9694   9.168   6.637   0.368  0.3389  0.2617 -0.0831
 6176W        W 9695   4.201   4.636  11.152  0.1240 -0.0304 -0.2061
 6177W        W 9696   9.657   8.398  10.850 -0.0539  0.0214  0.0171
 6178W        W 9697   5.553   3.376   9.937  0.1905  0.0218  0.0763
 6179W        W 9698   7.296   0.009   2.539  0.4378 -0.1124 -0.2952
 6180W        W 9699   8.942   8.161  11.215  0.2202 -0.0419 -0.2053
 6181W        W 9700   1.152   5.388   1.208 -0.2450  0.2732 -0.5080
 6182W        W 9701   4.615   0.877   3.544 -0.0513  0.0038 -0.0471
 6183W        W 9702   1.964   3.885   2.792  0.2647 -0.0349 -0.0720
 6184W        W 9703   8.529   2.821   9.712 -0.2995  0.0774  0.2443
 6185W        W 9704   2.956   4.267   1.361 -0.1233 -0.0217 -0.0285
 6186W        W 9705   3.440   0.012   2.098 -0.0994 -0.4544  0.0595
 6187W        W 9706   9.004   7.424   9.353 -0.0283 -0.2092 -0.0379
 6188W        W 9707   5.286   3.824  10.617  0.1392  0.2077 -0.3018
 6189W        W 9708   9.591   4.849   2.359  0.1951 -0.1272  0.0887
 6190W        W 9709   7.440   7.402  10.647 -0.2294 -0.1202  0.1489
 6191W        W 9710   1.192   0.306   1.050  0.0825 -0.1173 -0.0829
 6192W        W 9711   8.523   3.672  11.001 -0.1105 -0.2061  0.1341
 6193W        W 9712   8.147   0.308   1.227  0.1604 -0.2439  0.4125
 6194W        W 9713   7.071   8.065   7.594  0.3494 -0.1405 -0.0465
 6195W        W 9714   4.414   1.701   2.092 -0.1693 -0.0004  0.0560
 6196W        W 9715   4.903   4.240   3.891 -0.0184  0.1314 -0.0712
 6197W        W 9716   1.839   1.952   9.899 -0.1658  0.2813  0.2806
 6198W        W 9717   7.562   3.358  11.187  0.2771 -0.1288  0.1265
 6199W        W 9718   0.021   1.988   1.407  0.0047  0.0692  0.3562
 6200W        W 9719   3.429   7.444   0.978  0.0200  0.1412  0.2794
 6201W        W 9720   6.552   6.011   9.544 -0.0111 -0.1022  0.0731
 6202W        W 9721   8.456   1.751   0.454  0.0576 -0.0268 -0.0237
 6203W        W 9722   5.113   8.679   0.218 -0.1584  0.2010 -0.0873
 6204W        W 9723   3.923   5.753   3.273  0.1492  0.1944 -0.0622
 6205W        W 9724   8.712   3.979   7.472  0.5227  0.0398 -0.3783
 6206W        W 9725   7.298   1.228   1.718  0.1170 -0.1039  0.0013
 6207W        W 9726   2.427   2.749   0.671  0.1860 -0.2356 -0.0514
 6208W        W 9727   8.044   5.897   3.504  0.4921  0.2138  0.0082
 6209W        W 9728   6.968   7.558  11.534  0.0146  0.0107 -0.3187
 6210W        W 9729   4.926   4.702   9.590  0.0959  0.3300 -0.0710
 6211W        W 9730   1.265   9.829   1.820 -0.1071  0.0018  0.1202
 6212W        W 9731   7.785   1.348   9.190  0.2636 -0.0250  0.2307
 6213W        W 9732   5.607   8.967   1.818  0.3612  0.0442 -0.1042
 6214W        W 9733   9.014  10.030   1.483  0.1414  0.0488  0.1799
 6215W        W 9734   7.259   6.667   1.486 -0.0075  0.4310 -0.1137
 6216W        W 9735   8.940   5.810   4.365  0.0147  0.2894  0.2061
 6217W        W 9736   4.202   8.343   3.442  0.0760 -0.1830  0.1026
 6218W        W 9737   0.147   0.228   7.744  0.0405  0.4991 -0.1979
 6219W        W 9738   3.455   4.365   2.611 -0.2330 -0.0237 -0.3100
 6220W        W 9739   2.294   9.186   0.308 -0.4498 -0.1642  0.4052
 6221W        W 9740   9.340   7.471  10.717  0.0970 -0.3945  0.0556
 6222W        W 9741   9.351   5.682  10.436  0.2013  0.1230  0.0335
 6223W        W 9742   2.419   1.093   2.680  0.1305  0.0136 -0.5186
 6224W        W 9743   1.099   4.558   1.836 -0.1578  0.0606 -0.1900
 6225W        W 9744   4.424   9.107   9.807 -0.0145 -0.1557  0.0822
 6226W        W 9745   1.920   5.363  10.716 -0.0300 -0.1877  0.4628
 6227W        W 9746   7.489   2.670   0.405 -0.2125  0.0248  0.4996
 6228W        W 9747   1.237   1.652   0.916 -0.2202 -0.1323  0.0344
 6229W        W 9748   7.991   9.498   8.319  0.0163 -0.0251 -0.1266
 6230W        W 9749   1.123   0.712  10.768 -0.0700 -0.1981 -0.2642
 6231W        W 9750   0.194   3.419   8.214 -0.3942 -0.1986  0.2358
 6232W        W 9751   2.046   4.038  10.450  0.1875  0.0906  0.0850
 6233W        W 9752   5.358   9.535   8.937  0.3366 -0.1323 -0.1463
 6234W        W 9753   1.840   8.186   2.598  0.1333 -0.2303 -0.0811
 6235W        W 9754   9.718   0.907   1.163 -0.0808 -0.0317  0.0988
 6236W        W 9755   3.351   1.235   3.892 -0.0858  0.3875  0.0473
 6237W        W 9756   5.058   7.075   0.712  0.0322 -0.2737  0.0543
 6238W        W 9757   8.450   9.748   0.062  0.1957  0.0301  0.1521
 6239W        W 9758   4.655   8.584   0.017  0.0852 -0.0224 -0.2619
 6240W        W 9759   3.144   0.358   0.634  0.1140  0.1412  0.3292
 6241W        W 9760   7.053   4.527   0.021 -0.3922 -0.0794 -0.1070
 6242W        W 9761   7.335   3.483   8.830  0.0840  0.2815  0.3872
 6243W        W 9762   0.490   9.449   0.016  0.3136 -0.1740 -0.0813
 6244W        W 9763   6.715   0.473  10.838 -0.0718 -0.1095 -0.0300
 6245W        W 9764   2.600   4.188   1.830 -0.0140 -0.3831 -0.1493
 6246W        W 9765   6.935   6.043  11.396  0.2363  0.3478  0.1633
 6247W        W 9766   1.907   2.933   2.351 -0.1032  0.0499 -0.0908
 6248W        W 9767   1.157   1.766   7.818 -0.0649  0.4857 -0.1520
 6249W        W 9768   7.681   6.573  10.957  0.0408 -0.2465  0.2091
 6250W        W 9769   5.609   1.869  11.079 -0.0808 -0.2330  0.1030
 6251W        W 9770   0.658   3.981  10.306 -0.1651 -0.0838  0.0808
 6252W        W 9771   6.905   1.272   1.412 -0.3191 -0.2345 -0.1139
 6253W        W 9772   5.728   6.050   2.587 -0.0219 -0.0546  0.0705
 6254W        W 9773   6.743   5.835   8.633  0.0301 -0.0027 -0.1301
 6255W        W 9774   5.801   0.309   9.445  0.1212 -0.2095  0.1748
 6256W        W 9775   3.715   6.299  11.192 -0.2062 -0.0393 -0.2989
 6257W        W 9776   1.731   6.483   8.537 -0.1633 -0.0684 -0.1079
 6258W        W 9777   1.674   8.925  11.048  0.0181 -0.0081 -0.1123
 6259W        W 9778   1.599   8.519   2.066  0.0114 -0.1905  0.2426
 6260W        W 9779   4.120   7.723   2.634 -0.1329  0.0284  0.1683
 6261W        W 9780   4.284   4.160   8.363 -0.0855  0.0583  0.0871
 6262W        W 9781   2.911   8.202   9.606  0.3125  0.2839 -0.1909
 6263W        W 9782   2.440   0.509   8.606  0.0973 -0.2641  0.0596
 6264W        W 9783   8.427   5.724   9.701  0.1064 -0.0864 -0.2923
 6265W        W 9784   3.800   8.559   3.579  0.1705 -0.2559 -0.0623
 6266W        W 9785   0.160   6.480   8.629  0.1234  0.1413 -0.1465
 6267W        W 9786   4.739   0.581   1.679  0.0734  0.1728  0.3996
 6268W        W 9787   6.293   3.259   7.861 -0.0496 -0.0533 -0.0055
 6269W        W 9788   4.647   5.646   3.213  0.0779 -0.1909 -0.1704
 6270W        W 9789   1.706   2.057   9.430  0.2703 -0.0922 -0.1015
 6271W        W 9790   9.261   9.320   0.172  0.4366 -0.0325  0.1143
 6272W        W 9791   0.579   5.199   2.118 -0.3138 -0.5146  0.0057
 6273W        W 9792   4.277   4.667   8.411  0.1740 -0.2331  0.1804
 6274W        W 9793   8.579   1.855   7.800 -0.1987  0.2395 -0.4057
 6275W        W 9794   4.490   6.969  11.200 -0.1817  0.0048  0.2594
 6276W        W 9795   2.699   6.001   8.428 -0.0628 -0.2310 -0.0235
 6277W        W 9796   4.333   0.322   1.780  0.1684 -0.1552  0.2772
 6278W        W 9797   8.231   8.827  10.116  0.2737 -0.2585 -0.1363
 6279W        W 9798   5.136   0.188   9.409 -0.0553 -0.0500  0.1499
 6280W        W 9799   6.355   3.223   9.215 -0.0005  0.0912  0.3861
 6281W        W 9800   7.106   0.707  10.310  0.2149 -0.1506  0.0950
 6282W        W 9801   0.375   1.892   1.950  0.1171 -0.0141  0.0405
 6283W        W 9802   7.332   7.893   0.913  0.0484  0.0699  0.1420
 6284W        W 9803   1.105   6.392   2.237  0.1140  0.3068 -0.6128
 6285W        W 9804   1.575   3.962   0.807 -0.0117  0.0672  0.0486
 6286W        W 9805   3.668   6.903   2.290 -0.0004  0.1775  0.2358
 6287W        W 9806   8.428   4.682   8.524 -0.0506  0.3336 -0.0552
 6288W        W 9807   1.372   4.361   9.119  0.1976  0.1367 -0.2229
 6289W        W 9808   3.875   3.799   1.458 -0.0983  0.0306 -0.1888
 6290W        W 9809   9.705  10.087   0.103  0.2316  0.1782 -0.1147
 6291W        W 9810   8.827   1.757   1.944  0.1557  0.1112 -0.1268
 6292W        W 9811   1.498   2.889   7.802  0.0816  0.2570 -0.1003
 6293W        W 9812   6.810   9.827   7.180 -0.0767  0.1283 -0.2420
 6294W        W 9813   7.381   7.478   1.795  0.1056 -0.0265 -0.0399
 6295W        W 9814   8.984   6.961  11.004 -0.0477 -0.4475  0.0124
 6296W        W 9815   3.663   4.798   2.312 -0.3655 -0.3757  0.0283
 6297W        W 9816   3.491   7.509  10.466 -0.1143 -0.2552  0.2063
 6298W        W 9817   7.774   7.031   3.633  0.0339  0.1809  0.0176
 6299W        W 9818   2.896   5.835   1.884  0.2052 -0.2067 -0.3406
 6300W        W 9819   8.095   5.590  10.017 -0.3215 -0.0300 -0.0344
 6301W        W 9820   8.019   6.810  10.398  0.0520  0.2063 -0.0766
 6302W        W 9821   5.155   9.614   0.798  0.5135  0.0458 -0.0034
 6303W        W 9822   3.956   2.247   2.999  0.1850  0.0159 -0.4491
 6304W        W 9823   2.993   7.030  11.332  0.1009  0.1895  0.3636
 6305W        W 9824   9.576   6.226   9.804 -0.0994 -0.0096  0.2096
 6306W        W 9825   6.802   6.227   0.317 -0.0414  0.1315 -0.1796
 6307W        W 9826   6.930   7.353   2.119  0.0822  0.2280 -0.0408
 6308W        W 9827   1.236   1.882  11.557 -0.1599 -0.1515  0.0116
 6309W        W 9828   8.358   0.257   2.665  0.0360 -0.0805 -0.4204
 6310W        W 9829   3.064   3.889   0.688 -0.0927 -0.1007 -0.3236
 6311W        W 9830   7.515   9.909   8.296  0.0042  0.0472 -0.3356
 6312W        W 9831   5.784   5.869  10.518  0.0042 -0.1856  0.1099
 6313W        W 9832   9.755   3.700   9.381  0.1856 -0.3699  0.1942
 6314W        W 9833   5.298   4.703   0.403 -0.2440 -0.6833 -0.1137
 6315W        W 9834   6.558   5.431   2.363 -0.1412  0.0633 -0.2009
 6316W        W 9835   4.220   9.047   7.845  0.0877  0.3673 -0.1196
 6317W        W 9836   6.729   6.492  10.780  0.0144  0.3765  0.1817
 6318W        W 9837   1.703   0.401   1.993 -0.0670 -0.1429  0.1360
 6319W        W 9838   6.832   7.629   9.902  0.0813  0.3439 -0.1485
 6320W        W 9839   0.905   6.285   0.964 -0.1637 -0.1582 -0.1782
 6321W        W 9840   3.753   0.646   9.303 -0.0303  0.2240  0.0970
 6322W        W 9841   6.643   1.453   2.418 -0.3961  0.0770 -0.2093
 6323W        W 9842   4.827   5.585   2.741  0.1087  0.2837 -0.2924
 6324W        W 9843   6.773   0.980   3.255  0.0341  0.1535  0.3529
 6325W        W 9844   5.017   9.910   7.291 -0.1014 -0.4417  0.1497
 6326W        W 9845   7.142   9.944   6.813  0.0505 -0.0962 -0.3550
 6327W        W 9846   8.618   6.852   1.439 -0.0451 -0.3217 -0.0571
 6328W        W 9847   2.951   8.840   7.461  0.0572  0.2327  0.0727
 6329W        W 9848   7.660   3.929   8.455 -0.2106 -0.2092 -0.1133
 6330W        W 9849   0.021   0.746   0.866 -0.0152 -0.0946 -0.0963
 6331W        W 9850   7.916   7.440   0.342 -0.1252 -0.1098  0.0084
 6332W        W 9851   2.674   8.558   9.145  0.1607 -0.1127 -0.0280
 6333W        W 9852   7.575   5.670   8.412  0.4449 -0.2786  0.1511
 6334W        W 9853   6.687   5.459   8.299  0.1164  0.1462  0.2545
 6335W        W 9854   2.250   7.109   9.332 -0.0795  0.0858  0.2545
 6336W        W 9855   2.056   9.731  10.729  0.0927  0.1187 -0.1736
 6337W        W 9856   0.501   0.083  10.436  0.0454  0.0641 -0.0680
 6338W        W 9857   0.102   5.602   9.834 -0.0321 -0.2773  0.1986
 6339W        W 9858   2.485   8.429  10.630 -0.0197  0.0079  0.3430
 6340W        W 9859   8.658   9.319   0.894 -0.1031 -0.1322 -0.1161
 6341W        W 9860   4.570   9.478   8.292  0.1975 -0.3044  0.0807
 6342W        W 9861   7.424   6.421   1.870  0.2926  0.2216 -0.3222
 6343W        W 9862   9.602   9.564   1.070  0.2494 -0.2437  0.2041
 6344W        W 9863   0.914   5.781   2.012  0.2052  0.0153 -0.2284
 6345W        W 9864   3.729   6.986   1.534  0.1719  0.0082 -0.3447
 6346W        W 9865   5.370   3.695   1.459 -0.0718 -0.0277 -0.0174
 6347W        W 9866   1.471   6.788   2.504 -0.0909  0.1107  0.0326
 6348W        W 9867   9.401   4.382  10.056 -0.1581 -0.1359 -0.1691
 6349W        W 9868   4.762   1.306   9.629  0.1088  0.1551  0.1098
 6350W        W 9869   4.028   1.101   0.484  0.1257 -0.0990 -0.1060
 6351W        W 9870   9.457   4.932  10.984  0.1677 -0.1155 -0.1415
 6352W        W 9871   8.426   5.533  11.440 -0.0219 -0.0595 -0.4300
 6353W        W 9872   6.903   6.563   1.893 -0.0764 -0.1046  0.0295
 6354W        W 9873   1.345   5.362   9.302  0.1192  0.2414  0.2470
 6355W        W 9874   9.558   4.810   0.565  0.2407  0.0152  0.2806
 6356W        W 9875   4.042   7.121   9.048  0.0325  0.0590  0.2447
 6357W        W 9876   5.627   0.569   2.052 -0.0857  0.1813  0.0657
 6358W        W 9877   5.380   5.801  10.307  0.0184  0.0606  0.1698
 6359W        W 9878   4.538   2.264   0.539  0.0828  0.1158  0.1009
 6360W        W 9879   0.698   5.057   3.697  0.0761  0.0154  0.0019
 6361W        W 9880   4.833   9.242  10.823  0.3648  0.1696 -0.0273
 6362W        W 9881   9.562   7.551   3.559 -0.0584  0.0402 -0.2874
 6363W        W 9882   8.481   8.115   0.215 -0.1843  0.1899  0.0622
 6364W        W 9883   4.053   3.309   7.373 -0.0282  0.0256 -0.2040
 6365W        W 9884   2.047   1.589  10.978 -0.3059  0.0425  0.1386
 6366W        W 9885   2.020   6.548   2.116 -0.2742 -0.2445 -0.1445
 6367W        W 9886   8.708   2.892   0.025 -0.1424 -0.0812  0.0543
 6368W        W 9887   8.790   7.759   8.427 -0.0489  0.2211 -0.0631
 6369W        W 9888   6.942   4.932  10.688  0.1946 -0.0137  0.2045
 6370W        W 9889   9.951   2.929  10.076 -0.0964 -0.2191  0.1905
 6371W        W 9890   7.990   4.316   3.476 -0.0847 -0.0955  0.1938
 6372W        W 9891   7.669   4.611   2.485 -0.1958 -0.2575  0.2854
 6373W        W 9892   1.928   9.485   1.170 -0.1709 -0.0278 -0.0547
 6374W        W 9893   7.156   2.728   1.679 -0.0534 -0.1125  0.0098
 6375W        W 9894   8.541   4.225   8.457 -0.1311  0.1751 -0.0665
 6376W        W 9895   9.946   4.458   2.302  0.0101  0.0589 -0.0252
 6377W        W 9896   9.575   8.658   2.802 -0.1835 -0.4249  0.0375
 6378W        W 9897   7.359   1.760   0.764 -0.2829  0.1686  0.0419
 6379W        W 9898   9.367   7.054   2.025 -0.1257  0.1276 -0.0553
 6380W        W 9899   1.853   0.705   8.489  0.3509 -0.1450 -0.2500
 6381W        W 9900   4.036   2.106  11.524  0.0287 -0.1783 -0.2539
 6382W        W 9901   3.087   3.087   8.009 -0.2514 -0.0212  0.2320
 6383W        W 9902   5.738   5.088   2.295 -0.0602 -0.0751 -0.0101
 6384W        W 9903   0.581   5.003  11.436 -0.1050  0.1710  0.0411
 6385W        W 9904   0.637   8.578   1.516 -0.0963 -0.1911 -0.0647
 6386W        W 9905   5.809   4.690   8.773  0.1116  0.1237  0.2555
 6387W        W 9906   4.827   4.396   3.322 -0.1284 -0.0284 -0.0095
 6388W        W 9907   7.062   8.914   9.999 -0.0005 -0.0417 -0.1330
 6389W        W 9908   4.699   9.820   0.442  0.2304  0.2991 -0.0032
 6390W        W 9909   2.759   2.890   2.454 -0.0753  0.1666 -0.0283
 6391W        W 9910   4.246   7.470   3.021  0.0969  0.1660  0.0292
 6392W        W 9911   2.237   7.730  10.744  0.0003 -0.2670  0.1176
 6393W        W 9912   0.155   7.219   1.741  0.1505 -0.0734  0.2289
 6394W        W 9913   1.312   6.691   9.999  0.0813  0.1792 -0.1968
 6395W        W 9914   5.480   6.428   8.076  0.1264 -0.2897  0.1695
 6396W        W 9915   1.428   2.438  10.832  0.2557 -0.2038 -0.1504
 6397W        W 9916   7.439   1.144  10.688  0.1844  0.1292  0.1727
 6398W        W 9917   3.435   1.206  10.929 -0.2388 -0.1304 -0.2392
 6399W        W 9918   7.148   7.034   0.790  0.1362 -0.0316 -0.1160
 6400W        W 9919   4.877   4.685   0.604  0.1153  0.1466  0.0505
 6401W        W 9920   4.565   1.977  11.473  0.0122  0.0413 -0.0561
 6402W        W 9921   9.153   7.657   0.781 -0.1751  0.0531 -0.0110
 6403W        W 9922   6.376   7.279   2.349  0.4416  0.4180 -0.0876
 6404W        W 9923   7.183   8.603   8.473 -0.0424 -0.1365 -0.1782
 6405W        W 9924   5.087  10.023   1.181 -0.2920  0.1766  0.0865
 6406W        W 9925   7.923   6.004   1.419 -0.1100  0.2274 -0.0438
 6407W        W 9926   4.242   3.596   0.184  0.0394  0.5765 -0.0870
 6408W        W 9927   7.224   8.154   9.260 -0.0907  0.1583  0.1503
 6409W        W 9928   9.735  10.021   2.674 -0.2017  0.0715  0.0460
 6410W        W 9929   8.983   0.258  11.018  0.0166  0.0079  0.1620
 6411W        W 9930   7.099   2.633  11.569 -0.2122 -0.0665  0.0798
 6412W        W 9931   1.025   4.998   8.615 -0.2109  0.2697 -0.1779
 6413W        W 9932   6.301   9.562   0.144 -0.0334  0.1513  0.2025
 6414W        W 9933   0.047   4.276  10.664 -0.3139  0.0317  0.1458
 6415W        W 9934   8.545   4.916   0.821 -0.1118 -0.0652  0.0652
 6416W        W 9935   6.295   4.413  10.522 -0.3435 -0.0502 -0.1790
 6417W        W 9936   0.243   4.596   3.003 -0.1708 -0.2595 -0.0800
 6418W        W 9937   8.509   8.242   1.022  0.0368 -0.1862 -0.1499
 6419W        W 9938   3.999   4.138   3.095  0.0908  0.0854  0.4433
 6420W        W 9939   3.870   7.466   0.699 -0.1247  0.1013  0.3336
 6421W        W 9940   5.622   4.577   2.469  0.0681  0.0576  0.0145
 6422W        W 9941   8.649   0.833   2.741  0.4849 -0.2217 -0.0068
 6423W        W 9942   3.316   6.691   1.679 -0.1464  0.1965  0.3234
 6424W        W 9943   0.644   3.186  11.168 -0.2012  0.1283 -0.2017
 6425W        W 9944   3.168   2.311   8.990  0.0928 -0.1458  0.0754
 6426W        W 9945   2.688   9.864   1.454  0.0679  0.1372  0.0259
 6427W        W 9946   7.481   9.676   0.183  0.0067  0.0756  0.0402
 6428W        W 9947   1.760   0.589   9.844  0.2883  0.0381 -0.0911
 6429W        W 9948   3.115   1.558   0.502 -0.0541  0.1519 -0.1429
 6430W        W 9949   2.254   7.917  11.558 -0.0367  0.0348 -0.1455
 6431W        W 9950   8.163   1.127   9.528  0.0064  0.0328  0.0429
 6432W        W 9951   0.605   4.549   3.439  0.1312  0.1393 -0.3244
 6433W        W 9952   8.422   5.826   8.378  0.1289  0.0279 -0.2826
 6434W        W 9953   3.506   1.164   6.599  0.1763 -0.1280  0.3467
 6435W        W 9954   3.039   1.591   9.705 -0.1854  0.0615  0.0420
 6436W        W 9955   1.581   3.349   9.964 -0.0220 -0.0766 -0.1755
 6437W        W 9956   1.471   6.232   3.268 -0.1992  0.0029 -0.0451
 6438W        W 9957   9.529   3.535  10.793 -0.0379 -0.1473  0.1984
 6439W        W 9958   1.688   0.108   9.630  0.1422  0.2596 -0.0177
 6440W        W 9959   9.723   8.725   2.260  0.1334 -0.1591  0.0549
 6441W        W 9960   4.010   2.088   9.692  0.2963  0.3543 -0.3457
 6442W        W 9961   7.678   7.857  10.447  0.0997  0.3659  0.2271
 6443W        W 9962   8.693   4.498   2.418  0.1414  0.1574  0.3415
 6444W        W 9963   4.557   6.568   1.330  0.0137  0.3444  0.0026
 6445W        W 9964   9.653   2.130   1.735  0.1224 -0.2152  0.3363
 6446W        W 9965   2.077   6.292  11.407 -0.5512  0.0042  0.0386
 6447W        W 9966   3.546   9.524   1.049  0.0858 -0.0225 -0.1909
 6448W        W 9967   0.299   9.466   1.890 -0.4364 -0.1628 -0.2034
 6449W        W 9968   4.078   5.070   1.790 -0.2243  0.0772 -0.1230
 6450W        W 9969   2.228   1.354   9.687 -0.4206  0.1270  0.0863
 6451W        W 9970   4.168   9.374   9.183  0.0298 -0.0528 -0.0152
 6452W        W 9971   0.338   3.119   9.044  0.1976 -0.0602  0.0548
 6453W        W 9972   0.664   7.444   0.914  0.1123  0.2471  0.3111
 6454W        W 9973   8.871   0.941   8.022 -0.3272  0.0194 -0.3524
 6455W        W 9974   4.566   3.250   1.574  0.1798  0.1647 -0.0279
 6456W        W 9975   8.129   8.193  10.409 -0.2144  0.3032 -0.0116
 6457W        W 9976   9.976   2.623   8.547 -0.0857 -0.1129 -0.1723
 6458W        W 9977   7.250   3.743   9.861  0.1884 -0.0995 -0.0155
 6459W        W 9978   6.972   2.252   8.968  0.2631  0.2548  0.0091
 6460W        W 9979   1.441   5.040  10.571 -0.0269  0.2016 -0.2306
 6461W        W 9980   5.931   9.523  10.314  0.2192  0.1686  0.0746
 6462W        W 9981   6.061   7.057   1.707  0.1535 -0.2890 -0.4304
 6463W        W 9982   6.911   7.590   1.652  0.0689  0.0589 -0.0780
 6464W        W 9983   2.495   1.573   3.238  0.0103  0.3332 -0.3097
 6465W        W 9984   7.172   7.132  10.230  0.0484  0.0342 -0.2746
 6466W        W 9985   2.832   0.769   2.709  0.0468 -0.1401 -0.0081
 6467W        W 9986   9.771   5.682   2.904 -0.2978 -0.2918 -0.4459
 6468W        W 9987   3.522   2.425   1.407  0.1280 -0.1146 -0.2864
 6469W        W 9988   4.528   2.882   7.686  0.0133 -0.1920 -0.1685
 6470W        W 9989   7.908   0.883   2.409  0.1139  0.0682  0.1421
 6471W        W 9990   6.542   2.738   8.389  0.1468 -0.1396 -0.0179
 6472W        W 9991   0.545   1.487  10.889 -0.0849  0.0850  0.0209
 6473W        W 9992   5.946   9.475   9.821 -0.0674  0.0924  0.1092
 6474W        W 9993   9.664   7.640  10.074  0.2131  0.0810  0.3009
 6475W        W 9994   6.341   0.680   1.086 -0.2415 -0.3725  0.0301
 6476W        W 9995   4.803   9.610  11.460  0.2443 -0.0313  0.1460
 6477W        W 9996   7.884   3.445   3.111  0.4843 -0.2352 -0.3406
 6478W        W 9997   8.597   1.269   0.545  0.2348 -0.1606 -0.0120
 6479W        W 9998   7.670   3.444   0.038  0.1691  0.1524 -0.0026
 6480W        W 9999   0.799   8.020   0.612 -0.2008  0.0701  0.0687
 6481W        W10000   5.753   7.607   9.661  0.2405  0.0249  0.1791
 6482W        W10001   5.953   3.649   0.774 -0.0535  0.0713 -0.1609
 6483W        W10002   4.148   8.768   2.484 -0.2069  0.1600 -0.0484
 6484W        W10003   4.869   5.119  10.429 -0.0743 -0.0690  0.0674
 6485W        W10004   1.900   6.684   3.884  0.3133  0.1082 -0.0023
 6486W        W10005   0.057   2.603  11.340 -0.0384 -0.0670  0.1791
 6487W        W10006   3.464   9.184  10.913  0.1445  0.2034 -0.4655
 6488W        W10007   7.357   8.632   1.501  0.3758  0.0494 -0.3200
 6489W        W10008   4.609   6.218   8.132  0.2631 -0.0827  0.1825
 6490W        W10009   2.387   6.107   0.154 -0.0512  0.1541  0.0382
 6491W        W10010   5.438   4.828   1.900 -0.1277 -0.2153  0.0844
 6492W        W10011   0.756   2.770   8.909 -0.2484  0.1642  0.1367
 6493W        W10012   4.452   5.871   1.889 -0.2008  0.0340 -0.0651
 6494W        W10013   1.842   5.897   7.938  0.0757  0.3193  0.0943
 6495W        W10014   6.648   1.674   2.866 -0.0968 -0.2936 -0.0709
 6496W        W10015   8.128   5.102   0.661 -0.0063  0.3110 -0.1236
 6497W        W10016   0.938   7.017  10.038 -0.0625  0.1443 -0.0514
 6498W        W10017   4.260   7.331   1.225  0.0700 -0.1784  0.1557
 6499W        W10018   8.628   0.834   8.780 -0.1435  0.2739 -0.2049
 6500W        W10019   6.150   5.651  10.851  0.0091 -0.1013 -0.1480
 6501W        W10020   3.245   9.267   3.447 -0.1053 -0.2127  0.1470
 6502W        W10021   1.683   0.026   1.677  0.0398 -0.2203  0.3568
 6503W        W10022   2.846   3.491  11.315  0.0248 -0.1730 -0.1272
 6504W        W10023   4.109   0.302   8.167  0.0443 -0.2126 -0.3554
 6505W        W10024   0.703   6.405   8.638  0.2144 -0.0108 -0.0266
 6506W        W10025   6.303   7.028   0.134  0.2473 -0.0958  0.1108
 6507W        W10026   8.657   7.943   0.656  0.0512 -0.1615  0.1865
 6508W        W10027   0.694   9.487   8.432  0.1222  0.1691 -0.2188
 6509W        W10028   5.377   2.903   9.404  0.0428 -0.3106  0.1987
 6510W        W10029   7.114   4.048   9.490 -0.1365  0.2128 -0.0506
 6511W        W10030   9.834   1.107  10.601  0.0436  0.2908  0.2752
 6512W        W10031   8.834   8.652  11.008 -0.1848 -0.3898  0.1053
 6513W        W10032   9.898   9.086   0.977 -0.2651 -0.0950  0.0514
 6514W        W10033   6.714   5.257   3.231 -0.0534  0.1450 -0.2264
 6515W        W10034   9.363   7.539   1.830  0.1545  0.1221  0.0991
 6516W        W10035   6.031   0.186  10.951  0.0080 -0.2101  0.1302
 6517W        W10036   4.006   8.541   2.982 -0.2727  0.0124  0.0643
 6518W        W10037   9.481   6.061   3.177 -0.3467  0.0264 -0.1437
 6519W        W10038   6.158   3.032  11.315 -0.1988  0.1442 -0.0464
 6520W        W10039   4.730  10.024   7.950 -0.3988  0.3777  0.0390
 6521W        W10040   8.796   0.529   8.377  0.1618 -0.3889  0.1390
 6522W        W10041   4.814   5.500   2.262 -0.1899  0.2506 -0.1280
 6523W        W10042   8.317   9.789   9.782 -0.1749  0.6059  0.3529
 6524W        W10043   8.324   3.585   8.951 -0.0368 -0.0597  0.0857
 6525W        W10044   2.927   5.650   3.702  0.3352 -0.2327  0.0898
 6526W        W10045   6.888   2.714   9.081  0.1587 -0.1859 -0.0143
 6527W        W10046   1.678   3.270   1.481  0.1959  0.0001 -0.0847
 6528W        W10047   2.527   4.680   8.902 -0.0086 -0.2805  0.1167
 6529W        W10048   4.812   9.447   7.232  0.0635 -0.3450  0.1076
 6530W        W10049   6.202   3.416   2.613 -0.0291  0.1813 -0.0607
 6531W        W10050   8.947   7.871   8.958  0.1443  0.0871  0.3047
 6532W        W10051   2.789   8.642  11.046  0.1942 -0.0179 -0.1070
 6533W        W10052   8.396   4.183  10.780  0.1163 -0.0342 -0.2308
 6534W        W10053   9.303   9.577   0.611  0.0501 -0.4600 -0.1699
 6535W        W10054   1.845   7.949   0.344 -0.2256 -0.0195 -0.0516
 6536W        W10055   9.418   9.356   8.472  0.0721  0.1211  0.1658
 6537W        W10056   1.488   6.074  10.868  0.0164 -0.2426  0.2311
 6538W        W10057   2.188   9.600   9.669  0.4927 -0.0929 -0.2629
 6539W        W10058   4.745   8.105  10.216  0.0727 -0.1413  0.0751
 6540W        W10059   9.761   6.015  10.223  0.0604 -0.1420  0.2342
 6541W        W10060   7.447   6.925   2.695  0.0448 -0.1916  0.1442
 6542W        W10061   1.048   5.082   3.068  0.0474  0.0090  0.2450
 6543W        W10062   2.590   7.900   9.833  0.1277 -0.3493 -0.0607
 6544W        W10063   9.586   5.372  11.147 -0.0828 -0.1566  0.0542
 6545W        W10064   8.337   2.348   8.364 -0.1547  0.1818  0.1716
 6546W        W10065   9.265   6.715   2.683 -0.2757  0.1191  0.0545
 6547W        W10066   2.957   5.447   2.310 -0.0655  0.1877 -0.2128
 6548W        W10067   8.384   6.133   1.910 -0.0839 -0.0720  0.3114
 6549W        W10068   5.531   4.517   3.453  0.0243 -0.2132  0.0938
 6550W        W10069   6.357   3.826   1.457 -0.0977 -0.0063  0.1237
 6551W        W10070   0.684   8.864  10.900  0.2779  0.0883  0.0732
 6552W        W10071   0.725   7.254  10.465 -0.2789  0.0932 -0.0334
 6553W        W10072   2.254   3.109   1.011 -0.2694 -0.1329  0.2520
 6554W        W10073   4.116   9.026   7.246  0.0058 -0.0230 -0.4235
 6555W        W10074   8.718   1.980   2.931  0.1400 -0.1374  0.0962
 6556W        W10075   5.313   3.803   2.720 -0.2248  0.0768  0.2407
 6557W        W10076   4.097   6.092   0.613  0.1559  0.1139 -0.1477
 6558W        W10077   8.742   1.152  11.354 -0.3012  0.0302 -0.0443
 6559W        W10078   7.977   9.995   9.252  0.1654 -0.2123  0.0422
 6560W        W10079   5.197   4.458  11.479  0.0379 -0.2187 -0.3443
 6561W        W10080   9.177   0.686   4.153 -0.0907  0.0794 -0.0392
 6562W        W10081   1.807   0.256   1.248 -0.2969 -0.0863  0.0502
 6563W        W10082   6.842   9.077   3.348 -0.2715 -0.1989  0.0904
 6564W        W10083   8.854   8.292   1.535 -0.2875  0.1116 -0.1486
 6565W        W10084   6.975   1.748  11.195 -0.2179 -0.1754  0.0341
 6566W        W10085   7.150   4.776  10.170  0.2387 -0.0775  0.0065
 6567W        W10086   8.486   4.340   0.099 -0.0459  0.0689  0.2022
 6568W        W10087   1.552   0.804  11.271 -0.1631  0.0298  0.2057
 6569W        W10088   5.244   1.778   3.289 -0.1256 -0.1310  0.0796
 6570W        W10089   8.947   5.728  10.102  0.2663  0.1692  0.1654
 6571W        W10090   6.103   6.333  10.412 -0.1830 -0.4164 -0.3299
 6572W        W10091   0.007   2.324   1.008 -0.1136  0.0579  0.1414
 6573W        W10092   3.060   7.935   2.040  0.0678 -0.2459  0.0128
 6574W        W10093   5.443   0.651  11.313  0.1061  0.1026  0.1050
 6575W        W10094   2.626   4.183   3.270 -0.2666 -0.0288 -0.1786
 6576W        W10095   5.829   3.020   9.190 -0.0139  0.0943 -0.4660
 6577W        W10096   7.170   0.582   9.429  0.0072  0.3015 -0.1252
 6578W        W10097   8.689   7.237   8.390  0.0494 -0.1784 -0.3974
 6579W        W10098   0.999   2.133   9.162 -0.3675  0.3973 -0.1243
 6580W        W10099   0.843   9.812  11.541 -0.3887 -0.1634 -0.0842
 6581W        W10100   8.398   2.924   2.990 -0.1523 -0.2585 -0.0540
 6582W        W10101   1.304   0.926   8.523  0.3793 -0.3033  0.0618
 6583W        W10102   0.728   0.426   2.039 -0.0997  0.1142  0.1233
 6584W        W10103   5.006   2.710  11.067 -0.0098 -0.0395 -0.3785
 6585W        W10104   8.501   7.668   2.403  0.0845  0.1604 -0.0140
 6586W        W10105   4.604   7.675   9.801 -0.1650 -0.1792  0.0919
 6587W        W10106   6.404   3.529   4.230  0.0519  0.0652 -0.0627
 6588W        W10107   4.707   4.608   9.147 -0.1724  0.1192  0.3914
 6589W        W10108   1.984   0.733   2.477  0.1142  0.0479 -0.4176
 6590W        W10109   6.242   3.544   3.768 -0.3932 -0.2109  0.2914
 6591W        W10110   5.527   3.393   9.431 -0.1337  0.0161  0.0061
 6592W        W10111   5.842   3.631  10.667  0.2609 -0.3188  0.0138
 6593W        W10112   5.819   0.760  10.481 -0.0754  0.0930 -0.0782
 6594W        W10113   1.320   9.141   3.128  0.0606  0.4962 -0.1287
 6595W        W10114   9.558   0.459   0.273  0.1344  0.2711  0.3245
 6596W        W10115   7.895   7.310   1.905  0.0890 -0.0191 -0.0147
 6597W        W10116   9.246   1.056   1.350  0.2633  0.1745  0.2758
 6598W        W10117   5.980   9.784   8.198  0.0249  0.1149  0.3165
 6599W        W10118   1.590   5.112   4.036 -0.1791 -0.0680  0.2802
 6600W        W10119   2.944   7.532  10.353 -0.0433 -0.1096  0.1047
 6601W        W10120   5.358   2.338   3.430  0.0702  0.0704 -0.2429
 6602W        W10121   7.853   2.807  10.744 -0.0068 -0.1223  0.2301
 6603W        W10122   2.628   4.654   4.101  0.1381  0.0823 -0.2082
 6604W        W10123   0.194   3.078   2.466 -0.2668  0.2084 -0.0525
 6605W        W10124   6.200   4.690  10.021  0.0464 -0.1890  0.3031
 6606W        W10125   5.298   1.606   8.708  0.0342 -0.2433 -0.1589
 6607W        W10126   5.511   4.493   1.171  0.0324  0.5016 -0.0220
 6608W        W10127   8.211   1.629   5.645 -0.1395 -0.2623 -0.0872
 6609W        W10128   1.679   9.822   8.644  0.2291 -0.1395  0.2755
 6610W        W10129   2.465   2.832   9.941 -0.1476 -0.3538 -0.0199
 6611W        W10130   3.819   4.089   8.038  0.2585 -0.0961  0.2035
 6612W        W10131   9.828   2.434  10.658 -0.1671  0.1432 -0.0472
 6613W        W10132   1.354   7.262   2.625  0.0710  0.0469  0.1640
 6614W        W10133   7.031   4.074  10.205 -0.0155  0.1310 -0.0348
 6615W        W10134   1.224   4.110   8.721 -0.1655 -0.0829 -0.3131
 6616W        W10135   9.791   2.367   0.048  0.1484 -0.1318  0.0631
 6617W        W10136   4.289   0.745   0.771 -0.2616 -0.1134  0.0285
 6618W        W10137   0.824   9.686  10.170 -0.0578  0.0794  0.3025
 6619W        W10138   7.447   6.306   3.234 -0.1084 -0.1678  0.0726
 6620W        W10139   9.772   2.771   1.085 -0.1004  0.0170 -0.2791
 6621W        W10140   7.810   7.456   3.948  0.1346  0.4668  0.1842
 6622W        W10141   8.973   9.015   9.927 -0.2528  0.0337  0.0704
 6623W        W10142   4.146   9.355   0.735 -0.0493  0.0261  0.4794
 6624W        W10143   3.279   4.215   9.674  0.2209 -0.0073  0.2583
 6625W        W10144   6.253   0.365   7.905 -0.0038 -0.1824  0.0342
 6626W        W10145   2.431   1.959   1.748 -0.1122 -0.0391  0.1213
 6627W        W10146   6.069   2.401   2.811  0.0646 -0.4924 -0.0159
 6628W        W10147   6.742   5.793   3.277  0.1049 -0.2367 -0.0035
 6629W        W10148   8.155   0.758   9.129  0.0555 -0.0078 -0.1332
 6630W        W10149   9.580   0.813   8.647  0.1737  0.0002  0.1966
 6631W        W10150   4.393   3.777   1.598 -0.2030 -0.2713  0.0627
 6632W        W10151   8.596   2.479   2.574 -0.1332  0.0844 -0.0945
 6633W        W10152   0.663   4.594   9.927 -0.1768 -0.2407 -0.0891
 6634W        W10153   0.134   7.541   2.183 -0.4701 -0.3626  0.0228
 6635W        W10154   4.801   4.247   8.256  0.0363  0.1780  0.1599
 6636W        W10155   8.841   4.635  10.193 -0.1674 -0.0272 -0.0533
 6637W        W10156   6.122   7.033  11.221  0.0529 -0.0897  0.0422
 6638W        W10157   6.825   7.254   0.357  0.1257 -0.1673  0.0945
 6639W        W10158   4.214   3.766   9.684  0.1972  0.1993  0.0704
 6640W        W10159   9.806   6.231   2.278  0.0655 -0.3093 -0.3115
 6641W        W10160   9.962   9.493   2.786  0.0465  0.2289  0.1326
 6642W        W10161   8.499   1.066   6.988 -0.0284 -0.0465  0.1012
 6643W        W10162   8.250   6.710   2.293 -0.0299 -0.1386  0.0476
 6644W        W10163   2.940   9.508   1.754 -0.3396 -0.0988  0.1080
 6645W        W10164   2.784   4.927  10.907  0.0625  0.1048 -0.3230
 6646W        W10165   4.042   8.361  10.921 -0.0704 -0.0487  0.0846
 6647W        W10166   2.517   0.497   9.197 -0.0916  0.0257  0.4194
 6648W        W10167   0.475   0.388   3.551 -0.0541  0.0177 -0.3893
 6649W        W10168   5.158   6.292  11.455  0.0688 -0.1887 -0.1790
 6650W        W10169   1.481   6.262   9.904  0.2519  0.1605 -0.0683
 6651W        W10170   4.008   5.041  10.832 -0.3492 -0.0976  0.0492
 6652W        W10171   9.886   9.670   2.231 -0.0010  0.0845 -0.1373
 6653W        W10172   4.346   8.954   0.029 -0.1348 -0.2619  0.2929
 6654W        W10173   2.994   9.014   3.103  0.3979 -0.0425  0.1188
 6655W        W10174   6.146   4.617   8.078 -0.0327  0.0115 -0.0454
 6656W        W10175   4.639   6.179   4.106  0.0089 -0.1176  0.2079
 6657W        W10176   0.895   2.752   1.636 -0.0468  0.0266 -0.2315
 6658W        W10177   5.978   5.693  11.359 -0.2241 -0.1951  0.1510
 6659W        W10178   2.856   9.770   2.204  0.1514  0.0270 -0.1208
 6660W        W10179   3.588   7.397   2.606  0.0976  0.0400 -0.0588
 6661W        W10180   7.432   9.725  10.971  0.0459  0.1530 -0.1115
 6662W        W10181   2.747   2.395   1.645  0.1346 -0.0455 -0.2378
 6663W        W10182   1.741   6.760  11.517  0.0308  0.2850 -0.0212
 6664W        W10183   5.373   2.045   1.073 -0.0204 -0.1513  0.3535
 6665W        W10184   3.490   3.811   0.447 -0.1662  0.0103 -0.0845
 6666W        W10185   6.996   2.956   8.676  0.1392 -0.0728 -0.1223
 6667W        W10186   2.985   7.990  10.107 -0.0859  0.2881  0.2163
 6668W        W10187   9.895   2.094   7.433 -0.0793  0.1290 -0.0643
 6669W        W10188   7.624   9.411   6.062 -0.0685 -0.3013 -0.5380
 6670W        W10189   9.089   0.836   2.371  0.1994  0.0694  0.0708
 6671W        W10190   2.047   2.149   0.743  0.0544  0.5004  0.3919
 6672W        W10191   3.885   6.799  11.167 -0.0967  0.0069  0.0469
 6673W        W10192   2.819   6.917   0.646 -0.0310 -0.0613 -0.3410
 6674W        W10193   2.097   5.263   8.494 -0.2465  0.3273  0.0486
 6675W        W10194   9.391   5.013   1.912 -0.1292  0.0029 -0.1368
 6676W        W10195   1.674   6.282   1.916 -0.1697  0.0444  0.2628
 6677W        W10196   9.103   5.614   9.185  0.2016 -0.0738  0.0571
 6678W        W10197   4.002   8.692   8.589 -0.2822  0.2294 -0.1487
 6679W        W10198   2.459   1.664   2.314  0.0728 -0.1063 -0.0627
 6680W        W10199   3.676   0.942   9.739 -0.1809  0.0223 -0.1995
 6681W        W10200   1.830   7.420   9.515  0.0744  0.1381  0.1074
 6682W        W10201   2.439   4.155   2.764  0.3041  0.2119  0.1753
 6683W        W10202   8.241   6.086   9.285  0.1396 -0.2323 -0.1021
 6684W        W10203   7.165   3.255   2.469  0.0593  0.0734  0.0634
 6685W        W10204   6.489   1.071   9.141  0.0936 -0.1541  0.0470
 6686W        W10205   2.923   0.844   0.716 -0.1229 -0.2357  0.2509
 6687W        W10206   2.614   2.096   3.042  0.2198 -0.3477 -0.4001
 6688W        W10207   9.619   2.563   3.128  0.2158 -0.3333 -0.1471
 6689W        W10208   0.928   9.688   9.415  0.2527 -0.3646 -0.0944
 6690W        W10209   1.285   1.101  10.552  0.2996  0.0251  0.1690
 6691W        W10210   4.208   1.586  11.384 -0.0676 -0.3193 -0.3889
 6692W        W10211   6.928   6.434   2.378 -0.0446 -0.1448 -0.2212
 6693W        W10212   5.072   0.588  10.666 -0.2396  0.0781  0.0098
 6694W        W10213   8.678   2.092  10.775  0.0690 -0.0526  0.0779
 6695W        W10214   7.779   6.870   9.518  0.0946  0.1377 -0.1502
 6696W        W10215   6.704   2.421   1.211 -0.0362 -0.3819  0.1175
 6697W        W10216   0.891   0.153   0.276  0.0463  0.0147 -0.0614
 6698W        W10217   8.087   6.737   0.523  0.1485 -0.4527  0.0816
 6699W        W10218   1.137  10.011   9.072  0.0067 -0.2704 -0.1467
 6700W        W10219   1.726   9.775   9.853  0.1255  0.0670 -0.1279
 6701W        W10220   1.968   4.359   2.845 -0.5407  0.2884  0.0757
 6702W        W10221   1.302   7.121   8.650  0.0359 -0.0600  0.1459
 6703W        W10222   5.591   4.682   9.860  0.0963  0.3361 -0.0426
 6704W        W10223   3.539   9.826   7.461  0.0195  0.0051  0.0644
 6705ION    NA+10224   1.855   4.789   2.608  0.0530 -0.1920  0.2807
 6706ION    NA+10225   2.740   7.544  10.824  0.1598  0.0774 -0.2164
 6707ION    NA+10226   3.830   4.983   0.716  0.1465 -0.0191 -0.0013
 6708ION    NA+10227   4.422   6.690   9.909 -0.2526 -0.0819 -0.1416
 6709ION    NA+10228   8.209   6.797   3.388  0.0131 -0.0608  0.1065
 6710ION    NA+10229   8.247   0.861   1.181  0.0846 -0.0137  0.0419
 6711ION    NA+10230   3.929   8.168   8.684  0.1206  0.0645  0.0892
 6712ION    NA+10231   7.920   5.634   3.945  0.0966 -0.2087  0.0842
 6713ION    NA+10232   4.692   4.465   1.529  0.3155  0.1877  0.1443
 6714ION    NA+10233   5.236   1.481   1.260 -0.0208  0.2010 -0.1922
 6715ION    NA+10234   2.551   8.503   7.763 -0.1289  0.0004 -0.0400
 6716ION    NA+10235   5.954  10.078   9.074 -0.2492 -0.1057 -0.2556
 6717ION    NA+10236  10.069   5.991   0.540 -0.1619 -0.1350 -0.1079
 6718ION    NA+10237   2.593   3.699   0.497 -0.4057 -0.1156 -0.3220
 6719ION    NA+10238   5.038   8.151   7.295 -0.0023 -0.1768  0.0532
 6720ION    NA+10239   0.200   6.526   2.072  0.0415  0.0576 -0.0251
 6721ION    NA+10240   8.824   0.184  10.279 -0.1605  0.1697 -0.0675
 6722ION    NA+10241   1.922   8.458  11.123 -0.1225 -0.2489  0.0105
 6723ION    NA+10242   0.796   4.679   2.764 -0.1179 -0.3445 -0.2029
 6724ION    NA+10243  10.011   7.690   7.664 -0.2433  0.0405  0.0477
 6725ION    NA+10244   8.007   2.048   3.575 -0.2627  0.0394 -0.1008
 6726ION    NA+10245   1.289   3.043   3.824  0.1065 -0.4293 -0.1613
 6727ION    NA+10246   7.044   5.358   0.308 -0.2446 -0.0633 -0.2975
 6728ION    NA+10247   7.975   8.139   7.779  0.2054  0.1992 -0.2929
 6729ION    NA+10248   4.602   9.866   7.511  0.0290  0.2215  0.2286
 6730ION    NA+10249   7.066   6.346   3.872 -0.4007  0.0968 -0.3447
 6731ION    NA+10250   5.140   4.814  10.893 -0.2269 -0.0757 -0.0967
 6732ION    NA+10251   4.569   6.125   9.036 -0.0587  0.4517 -0.0050
 6733ION    NA+10252   0.230   4.865   8.075  0.0920 -0.1269 -0.3750
 6734ION    NA+10253   5.921   2.798   7.790  0.3749 -0.1256 -0.0831
 6735ION    NA+10254   4.513   8.793   1.784  0.0718  0.2648 -0.2933
 6736ION    NA+10255   2.211   2.411   3.007  0.2335 -0.2975  0.2322
 6737ION    NA+10256   5.423   9.373   2.197  0.0020  0.0862 -0.0379
 6738ION    NA+10257   4.390   4.179   2.558  0.2149 -0.0982  0.2580
 6739ION    NA+10258   7.524   3.353   0.882 -0.1475 -0.5926  0.3912
 6740ION    NA+10259   2.670   1.481   2.766 -0.2788 -0.1743 -0.0236
 6741ION    NA+10260   7.370   1.568   1.347 -0.0968  0.0111  0.0224
 6742ION    NA+10261   6.978   1.391   3.085  0.0201  0.2573  0.1045
 6743ION    NA+10262   4.389   3.126   2.100 -0.1624 -0.0072 -0.1118
 6744ION    NA+10263   3.719   1.393   3.513  0.3780 -0.1168 -0.1763
 6745ION    NA+10264   7.861   5.426   7.680  0.2893  0.0149 -0.0013
 6746ION    NA+10265   9.393   3.583  11.349  0.2632  0.1419  0.2105
 6747ION    NA+10266   3.829   0.414   3.197  0.0672  0.2515 -0.0949
 6748ION    NA+10267   3.821   6.296   7.622  0.3426 -0.4053  0.1448
 6749ION    NA+10268   8.056   2.812   7.689  0.1473 -0.2073 -0.2186
 6750ION    NA+10269   9.122   4.759   1.558 -0.3342 -0.0741  0.1504
 6751ION    NA+10270   3.243   3.701   8.491 -0.0087  0.2016  0.0639
 6752ION    NA+10271   8.264   2.673  11.525 -0.1145 -0.2419  0.0603
 6753ION    NA+10272   2.555   4.204  10.450  0.1130 -0.0215  0.0716
 6754ION    NA+10273   8.622   2.995   2.363 -0.2378  0.0425  0.0256
 6755ION    NA+10274   3.872   4.839   3.815  0.2651  0.3023 -0.0189
 6756ION    NA+10275   4.917   7.441   2.931 -0.0555 -0.0100  0.0561
 6757ION    NA+10276   5.261   8.193   1.224  0.1376 -0.3978  0.0237
 6758ION    NA+10277   7.047   4.043   0.021  0.1732 -0.0671  0.2193
 6759ION    NA+10278   2.322   5.045   7.671 -0.1011  0.1504 -0.1167
 6760ION    NA+10279   3.030   6.051   0.706 -0.1839  0.1385 -0.0765
 6761ION    NA+10280   1.872   2.720   7.524  0.1948  0.0109  0.3386
 6762ION    NA+10281   4.499   8.372   3.099  0.1436  0.0011 -0.1739
 6763ION    NA+10282   0.070   0.298  10.499  0.0635 -0.1201 -0.1787
 6764ION    NA+10283   6.926   8.254   0.852 -0.0426  0.2189 -0.3964
 6765ION    NA+10284   8.173   2.008   3.093 -0.2768  0.2317  0.3572
 6766ION    NA+10285   8.490   1.136  10.292  0.0530 -0.0999  0.3518
 6767ION    NA+10286   8.893   4.420   8.738  0.2302 -0.1297  0.2136
 6768ION    NA+10287   2.917   9.511   1.073  0.1383 -0.0732 -0.4155
 6769ION    NA+10288   5.299   4.849   0.880 -0.1316  0.2301  0.1175
 6770ION    NA+10289   8.276   0.160  11.569 -0.0289  0.1296  0.0188
 6771ION    NA+10290   3.952   9.893  11.290 -0.3602  0.0846 -0.0168
 6772ION    NA+10291   9.713   9.121   0.012 -0.1064  0.6486 -0.0548
 6773ION    NA+10292   9.739   1.415   2.252 -0.2256  0.0409  0.1857
 6774ION    NA+10293   0.661   2.971   7.484  0.1605  0.0488  0.0172
 6775ION    NA+10294   9.734   9.066   8.116 -0.3187  0.0307 -0.1852
 6776ION    CL-10295   2.784   8.081  10.857 -0.1043 -0.1465  0.0083
 6777ION    CL-10296   8.773   9.923   2.883 -0.3083 -0.0064  0.0205
 6778ION    CL-10297   3.464   5.769   0.933 -0.1621 -0.1425  0.0650
 6779ION    CL-10298   4.398   2.905   2.555  0.1580 -0.2449 -0.2012
 6780ION    CL-10299   7.817   4.753   1.070  0.2440  0.1657 -0.1577
 6781ION    CL-10300   7.896   6.665   8.558  0.0417 -0.3079 -0.0792
 6782ION    CL-10301   6.977   4.420   8.182 -0.2257  0.0641 -0.2605
 6783ION    CL-10302   7.847   2.641   8.447  0.0831  0.2474  0.1951
 6784ION    CL-10303   4.025   4.761   3.332 -0.0363 -0.0660 -0.1031
 6785ION    CL-10304   1.465   4.509   2.754  0.0574 -0.1394  0.1132
 6786ION    CL-10305   2.563   4.126   8.816  0.0537 -0.2726 -0.0577
 6787ION    CL-10306   2.208   3.972   0.145 -0.0273 -0.1063 -0.1052
 6788ION    CL-10307   6.068   5.318   3.224  0.1062 -0.0290  0.0443
 6789ION    CL-10308   6.858   2.301   2.682 -0.0744  0.1007  0.2957
 6790ION    CL-10309   8.306   2.820  11.035 -0.0608  0.2013  0.2348
 6791ION    CL-10310   1.427   7.968   2.837  0.1505 -0.0591 -0.1382
 6792ION    CL-10311   2.683   3.067   8.728  0.0799  0.0139 -0.2690
 6793ION    CL-10312   6.031   4.542   9.569  0.2652 -0.0529 -0.0654
 6794ION    CL-10313   8.505   6.122   3.340  0.0315 -0.1706 -0.0302
 6795ION    CL-10314   1.624   8.517  10.613 -0.0698 -0.0969  0.1438
 6796ION    CL-10315   4.630   5.808   8.595  0.0187 -0.2926 -0.0956
 6797ION    CL-10316   3.304   9.747   1.485  0.0840  0.2206  0.2261
 6798ION    CL-10317   7.326   4.934   0.262 -0.1651 -0.0012  0.0857
 6799ION    CL-10318   1.763   1.589   9.574  0.0621  0.1911 -0.2720
 6800ION    CL-10319   7.993   1.618   3.308  0.0637  0.1278 -0.0739
 6801ION    CL-10320   0.358   7.677   8.015 -0.0007 -0.0756 -0.0816
 6802ION    CL-10321   8.817   8.642   2.906 -0.3273 -0.2780 -0.1934
 6803ION    CL-10322   5.693   1.566   1.051  0.2835  0.2736  0.1361
 6804ION    CL-10323   7.985   8.670   7.770 -0.0340 -0.0353 -0.2163
 6805ION    CL-10324   5.578   4.569  10.930 -0.0730 -0.1560 -0.1429
 6806ION    CL-10325   9.259   0.033  10.637 -0.0833  0.0408  0.0811
 6807ION    CL-10326   3.010   4.012  10.197 -0.1006 -0.0238  0.2463
 6808ION    CL-10327   2.269   9.239  11.370 -0.0632  0.0611  0.0363
 6809ION    CL-10328   4.621   0.578  10.337 -0.1668 -0.0127  0.0828
 6810ION    CL-10329   7.955   2.438   0.208  0.0216  0.0567  0.1363
 6811ION    CL-10330   4.863   1.716   2.541  0.1557  0.2296  0.0177
 6812ION    CL-10331   4.012   4.500  10.736  0.0417 -0.0397 -0.0133
 6813ION    CL-10332   6.725   9.272   9.922  0.1375 -0.0038  0.1451
 6814ION    CL-10333   4.598   4.229   2.038 -0.2813 -0.0667  0.1018
 6815ION    CL-10334   5.103   7.918   2.024  0.0733  0.3317 -0.3119
 6816ION    CL-10335   3.632   8.408   8.960  0.2899  0.1224  0.0155
 6817ION    CL-10336   3.367   8.561   1.200  0.3603 -0.0146  0.0140
 6818ION    CL-10337   0.070   0.723  10.844  0.3582 -0.4115 -0.3422
 6819ION    CL-10338   2.575   2.420   2.576  0.3280 -0.0165 -0.2087
 6820ION    CL-10339   4.491   6.574   9.396 -0.1830 -0.3151 -0.4274
 6821ION    CL-10340   3.706   4.503   3.016  0.0599  0.0901 -0.1314
 6822ION    CL-10341   4.895   4.611   1.109 -0.1233  0.0753  0.2086
 6823ION    CL-10342   4.705   2.439   8.156 -0.0425 -0.0963  0.0202
 6824ION    CL-10343   1.793   7.062   8.491 -0.0740  0.0345  0.1406
 6825ION    CL-10344   1.608   8.734   2.564 -0.5364  0.3400  0.2771
 6826ION    CL-10345   1.225   1.382   8.180  0.0599  0.1596 -0.2505
 6827ION    CL-10346   7.367   3.560   0.422  0.3204 -0.4279 -0.1236
 6828ION    CL-10347   0.169   4.466   8.445  0.2812 -0.3672 -0.0167
 6829ION    CL-10348   0.479   3.615   3.451  0.2420 -0.0396 -0.0338
 6830ION    CL-10349   2.401   7.184  10.664 -0.0844 -0.0164  0.0536
 6831ION    CL-10350   9.586   5.904   0.423 -0.0107 -0.1070 -0.0999
 6832ION    CL-10351   8.276   1.249   1.486 -0.3963 -0.3911  0.1778
 6833ION    CL-10352   0.345   4.616   2.505 -0.3530 -0.0831  0.4859
 6834ION    CL-10353   5.352   8.861   2.322 -0.4060 -0.0017 -0.2111
 6835ION    CL-10354  10.032   1.871   2.170  0.5544  0.2246 -0.1779
 6836ION    CL-10355   9.578   6.837   8.421  0.2269 -0.0284 -0.1119
 6837ION    CL-10356   4.353   3.744   2.911 -0.2657  0.1933 -0.4556
 6838ION    CL-10357   7.222   9.045   8.057 -0.4810 -0.1883  0.0522
 6839ION    CL-10358   5.925   6.192   8.284  0.1839  0.2832  0.0711
 6840ION    CL-10359   8.289   9.864   7.891  0.6029 -0.0161  0.1280
 6841ION    CL-10360   5.140   9.339   1.731  0.2138  0.0309  0.3450
 6842ION    CL-10361   8.606   0.666  10.237 -0.2567 -0.1440 -0.3179
 6843ION    CL-10362   6.641   8.666   0.949  0.0888  0.1566  0.0210
 6844ION    CL-10363   2.374  10.048   2.731 -0.0461 -0.2118  0.0781
 6845ION    CL-10364   8.764   5.004   1.275 -0.0804 -0.2944 -0.1998
 6846ION    CL-10365   1.515   3.614   8.311  0.3582  0.3412 -0.1734
  10.08929  10.08929  11.61348
