Protein in INSANE! Membrane UpperLeaflet>POPC=1.0 LowerLeaflet>POPC=1.0
11530
    1AU     AUC    1   5.255   5.285   6.000
    1AU     AUC    2   5.557   5.319   5.833
    1AU     AUC    3   5.537   5.302   6.171
    1AU     AUC    4   4.962   5.274   5.834
    1AU     AUC    5   4.971   5.266   6.187
    1AU     AUC    6   5.063   5.531   6.022
    1AU     AUC    7   5.404   5.559   6.003
    1AU     AUC    8   5.095   5.003   5.998
    1AU     AUC    9   5.459   5.051   5.996
    1AU     AUC   10   5.294   5.114   6.271
    1AU     AUC   11   5.240   5.442   6.282
    1AU     AUC   12   5.273   5.130   5.719
    1AU     AUC   13   5.262   5.459   5.722
    1AU     AUC   14   5.870   5.341   5.679
    1AU     AUC   15   5.906   5.342   5.997
    1AU     AUC   16   5.844   5.308   6.364
    1AU     AUC   17   4.661   5.258   5.663
    1AU     AUC   18   4.630   5.285   6.033
    1AU     AUC   19   4.688   5.251   6.373
    1AU     AUC   20   4.890   5.833   6.015
    1AU     AUC   21   5.235   5.892   5.995
    1AU     AUC   22   5.551   5.874   6.011
    1AU     AUC   23   4.923   4.684   5.994
    1AU     AUC   24   5.265   4.723   5.995
    1AU     AUC   25   5.661   4.769   5.973
    1AU     AUC   26   5.310   4.890   6.555
    1AU     AUC   27   5.260   5.214   6.600
    1AU     AUC   28   5.254   5.594   6.570
    1AU     AUC   29   5.279   4.940   5.425
    1AU     AUC   30   5.266   5.279   5.423
    1AU     AUC   31   5.273   5.644   5.440
    1AU     AUC   32   5.594   5.064   6.467
    1AU     AUC   33   5.563   5.428   6.510
    1AU     AUC   34   5.576   5.125   5.518
    1AU     AUC   35   5.596   5.487   5.519
    1AU     AUC   36   4.969   5.052   6.486
    1AU     AUC   37   4.964   5.414   6.500
    1AU     AUC   38   4.936   5.099   5.539
    1AU     AUC   39   4.929   5.458   5.523
    1AU     AUC   40   5.756   5.615   5.853
    1AU     AUC   41   5.704   5.587   6.209
    1AU     AUC   42   4.768   5.559   5.818
    1AU     AUC   43   4.757   5.569   6.209
    1AU     AUC   44   5.776   5.033   5.816
    1AU     AUC   45   5.792   5.016   6.136
    1AU     AUC   46   4.737   4.986   5.847
    1AU     AUC   47   4.778   4.978   6.179
    1AU     AUC   48   5.058   5.760   6.299
    1AU     AUC   49   5.395   5.762   6.308
    1AU     AUC   50   5.082   4.773   6.268
    1AU     AUC   51   5.493   4.797   6.295
    1AU     AUC   52   5.053   5.727   5.684
    1AU     AUC   53   5.451   5.762   5.681
    1AU     AUC   54   5.048   4.810   5.707
    1AU     AUC   55   5.447   4.829   5.676
    1AU    AUSL   56   5.847   5.207   6.724
    1AU    AUSL   57   5.698   4.738   6.588
    1AU     AUL   58   5.951   4.830   6.790
    1AU       S   59   6.129   4.451   6.591
    1AU     LIG   60   6.092   4.152   6.915
    1AU     LIG   61   6.206   3.789   7.182
    1AU       S   62   6.107   5.260   6.889
    1AU     LIG   63   6.063   5.392   7.319
    1AU     LIG   64   6.120   5.118   7.690
    1AU    AUSL   65   5.458   5.020   6.808
    1AU    AUSL   66   5.119   5.341   6.879
    1AU     AUL   67   5.316   5.192   7.137
    1AU       S   68   5.758   5.025   7.158
    1AU     LIG   69   5.606   5.114   7.565
    1AU     LIG   70   5.706   5.019   8.009
    1AU       S   71   4.591   5.125   7.197
    1AU     LIG   72   4.718   5.408   7.550
    1AU     LIG   73   4.658   5.451   8.018
    1AU    AUSL   74   5.464   5.437   6.673
    1AU    AUSL   75   5.872   5.626   6.634
    1AU     AUL   76   5.687   5.454   6.961
    1AU       S   77   5.295   5.695   7.119
    1AU     LIG   78   5.607   5.616   7.425
    1AU     LIG   79   5.827   5.519   7.815
    1AU       S   80   6.002   5.785   6.840
    1AU     LIG   81   6.421   5.773   6.894
    1AU     LIG   82   6.821   5.954   7.031
    1AU    AUSL   83   5.847   5.360   5.267
    1AU    AUSL   84   5.703   5.834   5.329
    1AU     AUL   85   5.801   5.659   5.002
    1AU       S   86   5.788   5.228   4.813
    1AU     LIG   87   6.039   5.249   4.411
    1AU     LIG   88   6.189   5.127   3.976
    1AU       S   89   6.050   5.936   5.282
    1AU     LIG   90   5.876   6.187   5.001
    1AU     LIG   91   6.050   6.568   4.804
    1AU    AUSL   92   5.507   5.093   5.218
    1AU    AUSL   93   5.810   5.048   5.566
    1AU     AUL   94   5.933   5.050   5.208
    1AU       S   95   6.024   4.388   5.304
    1AU     LIG   96   6.430   4.266   5.298
    1AU     LIG   97   6.578   4.165   4.889
    1AU       S   98   5.547   4.917   4.927
    1AU     LIG   99   5.453   4.733   4.470
    1AU     LIG  100   5.737   4.874   4.113
    1AU    AUSL  101   5.439   5.516   5.250
    1AU    AUSL  102   5.099   5.061   5.125
    1AU     AUL  103   5.337   5.340   4.952
    1AU       S  104   4.936   5.105   4.825
    1AU     LIG  105   5.029   5.029   4.391
    1AU     LIG  106   4.670   5.003   4.101
    1AU       S  107   5.752   4.984   4.752
    1AU     LIG  108   5.517   5.242   4.405
    1AU     LIG  109   5.726   5.400   4.007
    1AU    AUSL  110   4.752   5.216   6.693
    1AU    AUSL  111   4.995   5.680   6.663
    1AU     AUL  112   4.856   5.522   6.969
    1AU       S  113   4.514   5.206   6.900
    1AU     LIG  114   4.312   5.528   7.227
    1AU     LIG  115   4.228   5.393   7.704
    1AU       S  116   4.600   5.895   6.811
    1AU     LIG  117   4.479   6.200   7.091
    1AU     LIG  118   4.272   6.466   7.430
    1AU    AUSL  119   5.044   4.914   6.849
    1AU    AUSL  120   4.633   4.826   6.556
    1AU     AUL  121   4.726   4.792   6.845
    1AU       S  122   4.459   4.443   6.661
    1AU     LIG  123   3.990   4.434   6.795
    1AU     LIG  124   3.718   4.375   7.192
    1AU       S  125   4.842   5.084   7.175
    1AU     LIG  126   5.006   4.981   7.556
    1AU     LIG  127   4.718   4.953   7.906
    1AU    AUSL  128   4.706   5.189   5.259
    1AU    AUSL  129   4.973   4.880   5.491
    1AU     AUL  130   4.839   4.805   5.171
    1AU       S  131   4.534   5.122   5.000
    1AU     LIG  132   4.319   5.470   4.793
    1AU     LIG  133   4.203   5.503   4.317
    1AU       S  134   4.387   4.619   5.180
    1AU     LIG  135   4.422   4.158   5.060
    1AU     LIG  136   4.204   3.822   4.804
    1AU    AUSL  137   5.036   5.457   5.305
    1AU    AUSL  138   4.613   5.565   5.437
    1AU     AUL  139   4.791   5.506   5.055
    1AU       S  140   4.418   5.718   5.252
    1AU     LIG  141   4.136   6.026   5.063
    1AU     LIG  142   4.062   6.223   4.628
    1AU       S  143   4.661   5.054   4.754
    1AU     LIG  144   4.709   5.417   4.473
    1AU     LIG  145   4.647   5.508   4.026
    1AU    AUSL  146   5.933   5.902   6.044
    1AU    AUSL  147   5.926   5.602   5.610
    1AU     AUL  148   6.086   5.992   5.752
    1AU       S  149   6.186   5.653   5.423
    1AU     LIG  150   6.288   5.611   4.964
    1AU     LIG  151   6.338   6.057   4.815
    1AU       S  152   6.470   5.884   6.381
    1AU     LIG  153   6.623   6.247   6.093
    1AU     LIG  154   6.918   6.314   5.741
    1AU    AUSL  155   6.206   5.568   5.917
    1AU    AUSL  156   6.225   5.187   6.173
    1AU     AUL  157   6.527   5.381   6.026
    1AU       S  158   6.382   5.802   6.138
    1AU     LIG  159   6.655   5.828   5.786
    1AU     LIG  160   7.088   5.713   5.648
    1AU       S  161   6.496   4.905   6.028
    1AU     LIG  162   6.722   4.817   6.413
    1AU     LIG  163   7.117   4.554   6.469
    1AU    AUSL  164   5.952   5.502   6.248
    1AU    AUSL  165   5.625   5.802   6.315
    1AU     AUL  166   5.977   5.906   6.385
    1AU       S  167   5.968   6.085   6.856
    1AU     LIG  168   6.354   6.255   6.710
    1AU     LIG  169   6.703   6.451   6.943
    1AU       S  170   6.318   5.585   6.420
    1AU     LIG  171   6.838   5.551   6.408
    1AU     LIG  172   7.337   5.686   6.442
    1AU    AUSL  173   4.593   5.777   6.060
    1AU    AUSL  174   4.622   5.557   6.470
    1AU     AUL  175   4.335   5.895   6.322
    1AU       S  176   4.487   5.643   6.684
    1AU     LIG  177   4.108   5.886   6.843
    1AU     LIG  178   4.002   6.035   7.268
    1AU       S  179   4.547   6.206   6.034
    1AU     LIG  180   4.124   6.130   5.894
    1AU     LIG  181   3.823   6.361   5.637
    1AU    AUSL  182   4.512   5.424   5.813
    1AU    AUSL  183   4.663   5.930   5.677
    1AU     AUL  184   4.365   5.747   5.730
    1AU       S  185   4.209   5.316   5.466
    1AU     LIG  186   3.910   5.732   5.532
    1AU     LIG  187   3.481   5.986   5.482
    1AU       S  188   4.481   6.146   5.489
    1AU     LIG  189   4.359   6.474   5.227
    1AU     LIG  190   3.959   6.555   5.035
    1AU    AUSL  191   4.313   5.462   6.198
    1AU    AUSL  192   4.302   5.077   5.921
    1AU     AUL  193   4.117   5.396   5.917
    1AU       S  194   4.064   5.009   6.193
    1AU     LIG  195   3.797   4.971   5.821
    1AU     LIG  196   3.462   4.705   5.629
    1AU       S  197   4.096   5.494   6.404
    1AU     LIG  198   3.801   5.832   6.426
    1AU     LIG  199   3.359   6.012   6.391
    1AU    AUSL  200   6.004   4.891   5.956
    1AU    AUSL  201   5.858   5.043   6.339
    1AU     AUL  202   6.183   4.923   6.383
    1AU       S  203   6.311   4.745   5.963
    1AU     LIG  204   6.387   4.352   5.842
    1AU     LIG  205   6.760   4.126   5.689
    1AU       S  206   6.369   4.461   6.372
    1AU     LIG  207   6.577   4.384   6.788
    1AU     LIG  208   6.499   4.226   7.231
    1AU    AUSL  209   6.173   5.199   5.705
    1AU    AUSL  210   5.853   4.585   5.715
    1AU     AUL  211   6.102   4.828   5.565
    1AU       S  212   6.482   4.992   5.764
    1AU     LIG  213   6.720   4.645   5.579
    1AU     LIG  214   7.167   4.446   5.657
    1AU       S  215   5.981   4.376   5.578
    1AU     LIG  216   6.103   3.967   5.561
    1AU     LIG  217   6.230   3.792   5.143
    1AU    AUSL  218   4.663   4.835   5.995
    1AU    AUSL  219   4.557   4.991   5.593
    1AU     AUL  220   4.298   4.762   5.828
    1AU       S  221   4.390   4.843   5.379
    1AU     LIG  222   3.953   4.688   5.422
    1AU     LIG  223   3.799   4.360   5.117
    1AU       S  224   3.972   4.789   6.263
    1AU     LIG  225   3.901   4.460   5.924
    1AU     LIG  226   3.649   4.232   5.593
    1AU    AUSL  227   4.529   5.120   6.288
    1AU    AUSL  228   4.742   4.527   6.261
    1AU     AUL  229   4.440   4.700   6.267
    1AU       S  230   4.595   4.262   6.353
    1AU     LIG  231   4.137   4.207   6.355
    1AU     LIG  232   3.973   3.911   6.708
    1AU       S  233   4.169   5.031   6.433
    1AU     LIG  234   3.700   5.016   6.596
    1AU     LIG  235   3.285   4.898   6.395
    1AU    AUSL  236   5.228   5.973   6.452
    1AU    AUSL  237   4.798   5.947   6.388
    1AU     AUL  238   5.052   6.012   6.753
    1AU       S  239   4.679   6.152   6.518
    1AU     LIG  240   4.263   6.320   6.588
    1AU     LIG  241   4.060   6.450   6.959
    1AU       S  242   5.204   6.391   6.498
    1AU     LIG  243   5.367   6.813   6.735
    1AU     LIG  244   5.377   7.287   6.827
    1AU    AUSL  245   5.031   6.170   6.114
    1AU    AUSL  246   5.369   6.208   5.760
    1AU     AUL  247   5.077   6.445   5.884
    1AU       S  248   5.272   6.597   6.306
    1AU     LIG  249   4.900   6.783   6.486
    1AU     LIG  250   4.872   7.206   6.587
    1AU       S  251   5.319   6.441   5.457
    1AU     LIG  252   5.705   6.731   5.540
    1AU     LIG  253   5.847   7.219   5.506
    1AU    AUSL  254   5.491   6.162   6.161
    1AU    AUSL  255   5.507   5.845   6.737
    1AU     AUL  256   5.587   6.123   6.532
    1AU       S  257   5.707   5.943   6.972
    1AU     LIG  258   6.025   5.914   7.321
    1AU     LIG  259   6.389   6.176   7.243
    1AU       S  260   5.460   6.425   6.195
    1AU     LIG  261   5.787   6.673   6.393
    1AU     LIG  262   5.798   7.099   6.584
    1AU    AUSL  263   5.329   4.535   6.600
    1AU    AUSL  264   5.884   4.584   6.218
    1AU     AUL  265   5.662   4.366   6.509
    1AU       S  266   5.058   3.989   6.565
    1AU     LIG  267   4.933   3.649   6.809
    1AU     LIG  268   5.111   3.233   6.983
    1AU       S  269   6.089   4.418   6.269
    1AU     LIG  270   6.309   3.988   6.485
    1AU     LIG  271   6.587   3.867   6.853
    1AU    AUSL  272   5.135   4.394   6.231
    1AU    AUSL  273   5.052   4.801   6.446
    1AU     AUL  274   4.974   4.465   6.589
    1AU       S  275   5.059   4.091   6.305
    1AU     LIG  276   4.884   3.634   6.268
    1AU     LIG  277   4.862   3.239   6.529
    1AU       S  278   4.572   4.186   6.636
    1AU     LIG  279   4.415   3.950   6.991
    1AU     LIG  280   4.117   4.032   7.340
    1AU    AUSL  281   5.479   4.632   6.179
    1AU    AUSL  282   5.082   4.479   5.822
    1AU     AUL  283   5.418   4.285   6.029
    1AU       S  284   4.958   4.164   5.836
    1AU     LIG  285   4.738   3.747   5.796
    1AU     LIG  286   4.874   3.426   5.516
    1AU       S  287   5.303   3.953   6.401
    1AU     LIG  288   5.345   3.497   6.451
    1AU     LIG  289   5.583   3.319   6.795
    1AU    AUSL  290   5.308   5.927   5.442
    1AU    AUSL  291   5.623   5.869   5.765
    1AU     AUL  292   5.672   6.143   5.534
    1AU       S  293   5.320   6.148   5.210
    1AU     LIG  294   5.574   6.582   5.061
    1AU     LIG  295   5.444   7.013   5.199
    1AU       S  296   6.349   5.920   5.346
    1AU     LIG  297   6.294   6.389   5.251
    1AU     LIG  298   6.540   6.673   4.969
    1AU    AUSL  299   5.061   5.902   5.800
    1AU    AUSL  300   4.915   5.859   5.332
    1AU     AUL  301   4.951   6.144   5.541
    1AU       S  302   5.129   6.397   5.174
    1AU     LIG  303   4.928   6.759   5.402
    1AU     LIG  304   5.022   7.219   5.470
    1AU       S  305   4.649   5.983   5.189
    1AU     LIG  306   4.552   6.228   4.820
    1AU     LIG  307   4.364   6.650   4.726
    1AU    AUSL  308   5.233   4.568   5.405
    1AU    AUSL  309   4.702   4.579   5.663
    1AU     AUL  310   4.944   4.439   5.447
    1AU       S  311   4.476   4.534   5.441
    1AU     LIG  312   4.141   4.227   5.473
    1AU     LIG  313   3.912   3.858   5.250
    1AU       S  314   5.158   4.027   5.646
    1AU     LIG  315   4.865   3.913   5.320
    1AU     LIG  316   4.864   3.555   5.008
    1AU    AUSL  317   5.456   4.673   5.767
    1AU    AUSL  318   5.625   4.717   5.361
    1AU     AUL  319   5.517   4.383   5.554
    1AU       S  320   5.195   3.882   5.871
    1AU     LIG  321   5.369   3.568   5.563
    1AU     LIG  322   5.296   3.199   5.281
    1AU       S  323   5.826   4.562   5.221
    1AU     LIG  324   6.022   4.287   4.828
    1AU     LIG  325   6.215   3.893   4.623
    2POPC   NC3  326   3.304   8.669   8.032
    2POPC   PO4  327   3.900   8.432   8.177
    2POPC   GL1  328   3.691   8.822   7.760
    2POPC   GL2  329   3.379   8.859   7.587
    2POPC   C1A  330   3.738   8.792   7.241
    2POPC   D2A  331   3.777   8.484   6.930
    2POPC   C3A  332   3.502   8.437   6.579
    2POPC   C4A  333   3.551   8.604   6.214
    2POPC   C1B  334   3.225   8.654   7.265
    2POPC   C2B  335   3.312   8.762   6.908
    2POPC   C3B  336   3.139   8.782   6.537
    2POPC   C4B  337   3.171   8.932   6.126
    3POPC   NC3  338   1.179   5.035   8.111
    3POPC   PO4  339   0.619   4.602   8.165
    3POPC   GL1  340   0.944   4.729   7.754
    3POPC   GL2  341   1.050   5.058   7.638
    3POPC   C1A  342   1.133   4.676   7.329
    3POPC   D2A  343   0.940   4.814   6.937
    3POPC   C3A  344   1.059   4.605   6.550
    3POPC   C4A  345   1.113   4.788   6.135
    3POPC   C1B  346   1.333   5.173   7.338
    3POPC   C2B  347   1.475   5.065   6.950
    3POPC   C3B  348   1.277   5.050   6.580
    3POPC   C4B  349   1.390   5.193   6.211
    4POPC   NC3  350   9.219   1.904   8.116
    4POPC   PO4  351   8.862   2.298   7.753
    4POPC   GL1  352   9.148   2.016   7.557
    4POPC   GL2  353   9.446   1.827   7.678
    4POPC   C1A  354   9.233   2.062   7.147
    4POPC   D2A  355   9.262   1.833   6.792
    4POPC   C3A  356   9.456   2.064   6.484
    4POPC   C4A  357   9.662   2.250   6.140
    4POPC   C1B  358   9.477   1.640   7.291
    4POPC   C2B  359   9.706   1.665   6.937
    4POPC   C3B  360   9.715   1.606   6.505
    4POPC   C4B  361   9.957   1.402   6.196
    5POPC   NC3  362   0.429   7.937   8.319
    5POPC   PO4  363   0.072   7.436   7.994
    5POPC   GL1  364   0.201   7.636   7.539
    5POPC   GL2  365   0.258   7.988   7.410
    5POPC   C1A  366   0.388   7.594   7.130
    5POPC   D2A  367   0.588   7.789   6.792
    5POPC   C3A  368   0.563   7.678   6.341
    5POPC   C4A  369   0.231   7.734   5.989
    5POPC   C1B  370   0.343   8.354   7.241
    5POPC   C2B  371   0.438   8.277   6.857
    5POPC   C3B  372   0.271   8.076   6.518
    5POPC   C4B  373   0.389   8.159   6.157
    6POPC   NC3  374   2.990   1.490   8.101
    6POPC   PO4  375   3.606   1.744   8.234
    6POPC   GL1  376   3.625   1.487   7.868
    6POPC   GL2  377   3.621   1.120   7.865
    6POPC   C1A  378   3.504   1.502   7.455
    6POPC   D2A  379   3.528   1.677   7.048
    6POPC   C3A  380   3.675   1.520   6.644
    6POPC   C4A  381   3.495   1.472   6.229
    6POPC   C1B  382   3.425   1.001   7.438
    6POPC   C2B  383   3.537   1.164   7.010
    6POPC   C3B  384   3.405   1.063   6.573
    6POPC   C4B  385   3.567   0.991   6.156
    7POPC   NC3  386   8.563   9.214   8.151
    7POPC   PO4  387   9.001   9.651   8.355
    7POPC   GL1  388   8.791   9.550   7.820
    7POPC   GL2  389   8.641   9.228   7.654
    7POPC   C1A  390   8.766   9.636   7.374
    7POPC   D2A  391   8.621   9.640   6.949
    7POPC   C3A  392   8.782   9.390   6.625
    7POPC   C4A  393   8.688   9.555   6.241
    7POPC   C1B  394   8.391   9.239   7.288
    7POPC   C2B  395   8.405   9.111   6.875
    7POPC   C3B  396   8.233   9.184   6.506
    7POPC   C4B  397   8.303   9.302   6.080
    8POPC   NC3  398   6.194   0.433   8.171
    8POPC   PO4  399   6.694   0.043   7.952
    8POPC   GL1  400   6.566   0.389   7.627
    8POPC   GL2  401   6.274   0.543   7.691
    8POPC   C1A  402   6.523   0.519   7.197
    8POPC   D2A  403   6.304   0.711   6.857
    8POPC   C3A  404   6.517   0.702   6.480
    8POPC   C4A  405   6.735   0.544   6.116
    8POPC   C1B  406   6.226   0.116   7.396
    8POPC   C2B  407   6.351  10.468   6.984
    8POPC   C3B  408   6.415   0.207   6.611
    8POPC   C4B  409   6.287   0.281   6.191
    9POPC   NC3  410   8.926   4.664   8.149
    9POPC   PO4  411   8.572   5.206   7.957
    9POPC   GL1  412   8.890   5.052   7.705
    9POPC   GL2  413   8.735   4.738   7.665
    9POPC   C1A  414   8.904   5.168   7.272
    9POPC   D2A  415   8.700   5.066   6.893
    9POPC   C3A  416   8.734   4.877   6.521
    9POPC   C4A  417   8.827   4.957   6.106
    9POPC   C1B  418   8.553   4.776   7.276
    9POPC   C2B  419   8.324   4.728   6.879
    9POPC   C3B  420   8.340   4.557   6.444
    9POPC   C4B  421   8.398   4.660   5.985
   10POPC   NC3  422   4.372   9.378   7.956
   10POPC   PO4  423   3.763   9.404   8.266
   10POPC   GL1  424   3.952   9.529   7.718
   10POPC   GL2  425   4.258   9.494   7.490
   10POPC   C1A  426   3.891   9.660   7.224
   10POPC   D2A  427   4.076   9.476   6.857
   10POPC   C3A  428   3.791   9.497   6.503
   10POPC   C4A  429   3.955   9.494   6.037
   10POPC   C1B  430   4.500   9.201   7.223
   10POPC   C2B  431   4.623   9.008   6.854
   10POPC   C3B  432   4.467   8.859   6.486
   10POPC   C4B  433   4.210   9.237   6.402
   11POPC   NC3  434   9.903   5.577   8.304
   11POPC   PO4  435   9.764   5.260   7.786
   11POPC   GL1  436   9.914   5.415   7.466
   11POPC   GL2  437  10.181   5.572   7.677
   11POPC   C1A  438   9.768   5.206   7.101
   11POPC   D2A  439   9.693   5.494   6.805
   11POPC   C3A  440   9.634   5.427   6.391
   11POPC   C4A  441   9.835   5.649   6.077
   11POPC   C1B  442  10.312   5.744   7.300
   11POPC   C2B  443  10.083   5.878   6.933
   11POPC   C3B  444  10.085   5.737   6.521
   11POPC   C4B  445  10.301   5.857   6.140
   12POPC   NC3  446   6.331   1.564   8.250
   12POPC   PO4  447   5.999   2.120   8.264
   12POPC   GL1  448   6.318   1.855   7.850
   12POPC   GL2  449   6.540   2.059   7.671
   12POPC   C1A  450   6.244   1.641   7.391
   12POPC   D2A  451   6.463   1.657   6.958
   12POPC   C3A  452   6.243   1.582   6.554
   12POPC   C4A  453   6.274   1.684   6.125
   12POPC   C1B  454   6.391   2.099   7.239
   12POPC   C2B  455   6.628   2.152   6.877
   12POPC   C3B  456   6.579   1.950   6.498
   12POPC   C4B  457   6.627   2.025   6.077
   13POPC   NC3  458   1.429   0.910   8.046
   13POPC   PO4  459   2.072   0.904   8.063
   13POPC   GL1  460   1.899   1.082   7.677
   13POPC   GL2  461   2.248   1.189   7.639
   13POPC   C1A  462   1.739   1.097   7.269
   13POPC   D2A  463   1.676   0.875   6.854
   13POPC   C3A  464   1.936   0.856   6.449
   13POPC   C4A  465   1.768   0.786   5.998
   13POPC   C1B  466   2.175   1.425   7.275
   13POPC   C2B  467   1.999   1.302   6.879
   13POPC   C3B  468   1.762   1.319   6.510
   13POPC   C4B  469   1.993   1.225   6.102
   14POPC   NC3  470   7.156   2.059   8.124
   14POPC   PO4  471   6.771   1.492   8.161
   14POPC   GL1  472   6.902   1.682   7.738
   14POPC   GL2  473   7.239   1.742   7.615
   14POPC   C1A  474   6.847   1.841   7.280
   14POPC   D2A  475   6.961   1.778   6.831
   14POPC   C3A  476   7.052   2.123   6.526
   14POPC   C4A  477   7.047   1.827   6.253
   14POPC   C1B  478   7.338   1.703   7.159
   14POPC   C2B  479   7.619   1.571   6.834
   14POPC   C3B  480   7.507   1.759   6.457
   14POPC   C4B  481   7.495   2.107   6.199
   15POPC   NC3  482   6.324   9.237   8.044
   15POPC   PO4  483   6.922   9.615   8.108
   15POPC   GL1  484   6.693   9.635   7.705
   15POPC   GL2  485   6.513   9.326   7.584
   15POPC   C1A  486   6.519   9.722   7.278
   15POPC   D2A  487   6.529   9.548   6.867
   15POPC   C3A  488   6.545   9.808   6.517
   15POPC   C4A  489   6.498   9.764   6.076
   15POPC   C1B  490   6.216   9.202   7.236
   15POPC   C2B  491   6.056   9.346   6.821
   15POPC   C3B  492   6.265   9.322   6.413
   15POPC   C4B  493   6.189   9.367   5.962
   16POPC   NC3  494   9.550   3.188   8.134
   16POPC   PO4  495   9.890   3.832   8.060
   16POPC   GL1  496   9.619   3.542   7.786
   16POPC   GL2  497   9.295   3.585   7.676
   16POPC   C1A  498   9.650   3.341   7.363
   16POPC   D2A  499   9.551   3.536   6.933
   16POPC   C3A  500   9.783   3.534   6.527
   16POPC   C4A  501   9.604   3.540   6.092
   16POPC   C1B  502   9.160   3.353   7.296
   16POPC   C2B  503   9.042   3.480   6.891
   16POPC   C3B  504   9.261   3.461   6.501
   16POPC   C4B  505   9.198   3.213   6.128
   17POPC   NC3  506   0.494   5.745   8.273
   17POPC   PO4  507  10.357   5.575   8.181
   17POPC   GL1  508   0.188   5.568   7.796
   17POPC   GL2  509   0.500   5.812   7.761
   17POPC   C1A  510   0.294   5.490   7.317
   17POPC   D2A  511   0.130   5.677   6.903
   17POPC   C3A  512   0.204   5.855   6.493
   17POPC   C4A  513   0.191   5.523   6.195
   17POPC   C1B  514   0.587   5.925   7.321
   17POPC   C2B  515   0.648   5.675   6.944
   17POPC   C3B  516   0.599   5.542   6.518
   17POPC   C4B  517   0.607   5.791   6.137
   18POPC   NC3  518  10.133   0.532   8.157
   18POPC   PO4  519   9.591   0.172   8.084
   18POPC   GL1  520   9.964   0.177   7.770
   18POPC   GL2  521  10.177   0.469   7.636
   18POPC   C1A  522   9.880   0.192   7.296
   18POPC   D2A  523  10.108   0.417   6.993
   18POPC   C3A  524  10.089   0.505   6.593
   18POPC   C4A  525  10.026   0.297   6.222
   18POPC   C1B  526   0.011   0.461   7.278
   18POPC   C2B  527   0.139   0.588   6.825
   18POPC   C3B  528   0.001   0.671   6.370
   18POPC   C4B  529  10.464   0.727   5.897
   19POPC   NC3  530   1.475  10.414   8.068
   19POPC   PO4  531   2.178  10.279   8.012
   19POPC   GL1  532   1.821  10.264   7.683
   19POPC   GL2  533   1.725   9.925   7.538
   19POPC   C1A  534   1.624  10.351   7.266
   19POPC   D2A  535   1.515  10.214   6.862
   19POPC   C3A  536   1.767  10.451   6.555
   19POPC   C4A  537   1.621  10.460   6.134
   19POPC   C1B  538   1.996  10.005   7.226
   19POPC   C2B  539   1.911   9.945   6.814
   19POPC   C3B  540   1.708  10.003   6.376
   19POPC   C4B  541   2.055   9.872   6.104
   20POPC   NC3  542   0.498   6.726   8.221
   20POPC   PO4  543   0.814   6.076   8.163
   20POPC   GL1  544   0.663   6.345   7.805
   20POPC   GL2  545   0.316   6.447   7.767
   20POPC   C1A  546   0.633   6.452   7.353
   20POPC   D2A  547   0.496   6.368   6.942
   20POPC   C3A  548   0.652   6.518   6.560
   20POPC   C4A  549   0.469   6.274   6.227
   20POPC   C1B  550   0.125   6.634   7.369
   20POPC   C2B  551   0.078   6.817   6.971
   20POPC   C3B  552   0.137   6.646   6.598
   20POPC   C4B  553   0.304   6.764   6.212
   21POPC   NC3  554   2.460   2.100   8.036
   21POPC   PO4  555   2.499   1.417   8.066
   21POPC   GL1  556   2.673   1.672   7.736
   21POPC   GL2  557   2.767   2.024   7.616
   21POPC   C1A  558   2.667   1.605   7.329
   21POPC   D2A  559   2.793   1.803   6.979
   21POPC   C3A  560   2.606   1.720   6.602
   21POPC   C4A  561   2.552   1.519   6.229
   21POPC   C1B  562   2.464   2.072   7.289
   21POPC   C2B  563   2.325   2.192   6.869
   21POPC   C3B  564   2.423   2.185   6.433
   21POPC   C4B  565   2.829   2.085   6.296
   22POPC   NC3  566   9.117   0.074   8.125
   22POPC   PO4  567   9.321   9.977   7.963
   22POPC   GL1  568   9.376  10.347   7.703
   22POPC   GL2  569   9.709  10.295   7.549
   22POPC   C1A  570   9.358  10.499   7.269
   22POPC   D2A  571   9.529  10.396   6.858
   22POPC   C3A  572   9.179  10.394   6.554
   22POPC   C4A  573   9.031   0.068   6.159
   22POPC   C1B  574   9.579   9.992   7.284
   22POPC   C2B  575   9.675   9.846   6.875
   22POPC   C3B  576   9.557  10.013   6.530
   22POPC   C4B  577   9.718  10.373   6.299
   23POPC   NC3  578   9.654   8.563   7.996
   23POPC   PO4  579   9.085   8.320   7.765
   23POPC   GL1  580   9.416   8.575   7.565
   23POPC   GL2  581   9.437   8.936   7.688
   23POPC   C1A  582   9.748   8.489   7.284
   23POPC   D2A  583   9.579   8.481   6.903
   23POPC   C3A  584   9.815   8.451   6.576
   23POPC   C4A  585   9.675   8.368   6.202
   23POPC   C1B  586   9.626   8.985   7.303
   23POPC   C2B  587   9.463   8.984   6.908
   23POPC   C3B  588   9.641   8.930   6.517
   23POPC   C4B  589   9.364   8.812   6.212
   24POPC   NC3  590   5.519   2.093   8.250
   24POPC   PO4  591   6.071   2.290   7.767
   24POPC   GL1  592   5.705   2.376   7.558
   24POPC   GL2  593   5.627   2.732   7.594
   24POPC   C1A  594   5.720   2.476   7.125
   24POPC   D2A  595   5.716   2.314   6.746
   24POPC   C3A  596   5.759   2.524   6.388
   24POPC   C4A  597   5.563   2.732   6.018
   24POPC   C1B  598   5.597   2.970   7.185
   24POPC   C2B  599   5.513   2.816   6.759
   24POPC   C3B  600   5.744   3.041   6.400
   24POPC   C4B  601   6.011   3.088   6.041
   25POPC   NC3  602   7.431   4.145   8.118
   25POPC   PO4  603   6.992   3.803   7.846
   25POPC   GL1  604   7.296   3.921   7.564
   25POPC   GL2  605   7.214   4.248   7.636
   25POPC   C1A  606   7.480   4.238   7.220
   25POPC   D2A  607   7.498   4.417   6.795
   25POPC   C3A  608   7.425   4.122   6.452
   25POPC   C4A  609   7.194   4.083   6.044
   25POPC   C1B  610   6.990   4.081   7.205
   25POPC   C2B  611   7.019   4.128   6.755
   25POPC   C3B  612   6.789   4.167   6.355
   25POPC   C4B  613   6.827   4.486   6.049
   26POPC   NC3  614   2.632   9.923   8.004
   26POPC   PO4  615   3.118   0.013   8.169
   26POPC   GL1  616   2.995  10.371   7.795
   26POPC   GL2  617   2.642  10.395   7.780
   26POPC   C1A  618   2.977  10.290   7.359
   26POPC   D2A  619   3.132  10.205   6.967
   26POPC   C3A  620   2.834  10.174   6.691
   26POPC   C4A  621   2.667  10.384   6.383
   26POPC   C1B  622   2.442  10.246   7.372
   26POPC   C2B  623   2.391  10.121   6.922
   26POPC   C3B  624   2.233  10.150   6.498
   26POPC   C4B  625   2.488   9.862   6.345
   27POPC   NC3  626   1.017   0.242   8.108
   27POPC   PO4  627   0.941   0.950   8.019
   27POPC   GL1  628   1.138   0.603   7.732
   27POPC   GL2  629   1.237   0.280   7.667
   27POPC   C1A  630   0.979   0.474   7.297
   27POPC   D2A  631   1.103   0.508   6.851
   27POPC   C3A  632   0.919   0.295   6.488
   27POPC   C4A  633   0.894   0.514   6.070
   27POPC   C1B  634   1.479   0.347   7.295
   27POPC   C2B  635   1.483   0.200   6.908
   27POPC   C3B  636   1.425   0.333   6.496
   27POPC   C4B  637   1.415   0.418   6.092
   28POPC   NC3  638   4.386  10.318   8.070
   28POPC   PO4  639   3.858   9.971   7.909
   28POPC   GL1  640   4.064  10.027   7.551
   28POPC   GL2  641   4.182  10.348   7.607
   28POPC   C1A  642   3.966  10.179   7.129
   28POPC   D2A  643   3.892   9.951   6.739
   28POPC   C3A  644   4.207   9.817   6.406
   28POPC   C4A  645   4.198   9.934   5.939
   28POPC   C1B  646   4.466  10.197   7.275
   28POPC   C2B  647   4.479  10.187   6.832
   28POPC   C3B  648   4.199  10.337   6.530
   28POPC   C4B  649   4.269  10.400   6.127
   29POPC   NC3  650   8.199   1.717   8.033
   29POPC   PO4  651   8.747   1.876   8.154
   29POPC   GL1  652   8.594   1.858   7.718
   29POPC   GL2  653   8.842   1.638   7.632
   29POPC   C1A  654   8.420   2.027   7.307
   29POPC   D2A  655   8.304   2.204   6.876
   29POPC   C3A  656   8.465   2.045   6.477
   29POPC   C4A  657   8.546   1.974   6.017
   29POPC   C1B  658   8.974   1.630   7.219
   29POPC   C2B  659   8.755   1.869   6.902
   29POPC   C3B  660   8.882   1.772   6.477
   29POPC   C4B  661   8.997   2.121   6.265
   30POPC   NC3  662   3.387   4.202   7.967
   30POPC   PO4  663   3.795   3.695   8.119
   30POPC   GL1  664   3.690   3.869   7.642
   30POPC   GL2  665   3.378   4.065   7.475
   30POPC   C1A  666   3.687   3.856   7.151
   30POPC   D2A  667   3.435   4.128   6.853
   30POPC   C3A  668   3.626   4.163   6.431
   30POPC   C4A  669   3.729   3.980   6.033
   30POPC   C1B  670   3.177   4.432   7.281
   30POPC   C2B  671   3.175   4.629   6.859
   30POPC   C3B  672   3.177   4.394   6.479
   30POPC   C4B  673   3.380   4.465   6.076
   31POPC   NC3  674   3.671   1.290   8.384
   31POPC   PO4  675   4.285   1.431   8.152
   31POPC   GL1  676   4.136   1.327   7.763
   31POPC   GL2  677   4.293   0.982   7.744
   31POPC   C1A  678   3.905   1.137   7.420
   31POPC   D2A  679   3.952   0.839   7.066
   31POPC   C3A  680   3.906   1.009   6.640
   31POPC   C4A  681   3.958   1.283   6.277
   31POPC   C1B  682   4.405   1.155   7.332
   31POPC   C2B  683   4.478   1.012   6.921
   31POPC   C3B  684   4.394   1.119   6.525
   31POPC   C4B  685   4.260   0.878   6.238
   32POPC   NC3  686   1.991   9.171   8.162
   32POPC   PO4  687   2.181   8.547   8.152
   32POPC   GL1  688   1.875   8.649   7.800
   32POPC   GL2  689   1.611   8.912   7.862
   32POPC   C1A  690   1.819   8.524   7.357
   32POPC   D2A  691   2.040   8.356   7.000
   32POPC   C3A  692   1.992   8.579   6.636
   32POPC   C4A  693   2.289   8.830   6.403
   32POPC   C1B  694   1.583   8.985   7.409
   32POPC   C2B  695   1.661   8.884   6.979
   32POPC   C3B  696   1.504   8.787   6.564
   32POPC   C4B  697   1.739   8.683   6.203
   33POPC   NC3  698   0.253   5.000   8.043
   33POPC   PO4  699   0.790   5.392   8.122
   33POPC   GL1  700   0.612   5.292   7.704
   33POPC   GL2  701   0.514   4.948   7.630
   33POPC   C1A  702   0.732   5.193   7.261
   33POPC   D2A  703   0.552   5.169   6.864
   33POPC   C3A  704   0.768   5.044   6.489
   33POPC   C4A  705   0.639   4.992   6.060
   33POPC   C1B  706   0.274   4.921   7.261
   33POPC   C2B  707   0.107   4.941   6.850
   33POPC   C3B  708   0.234   4.965   6.403
   33POPC   C4B  709   0.270   4.626   6.072
   34POPC   NC3  710   9.939   4.924   8.049
   34POPC   PO4  711   0.025   4.604   8.010
   34POPC   GL1  712  10.266   4.704   7.701
   34POPC   GL2  713  10.253   5.050   7.673
   34POPC   C1A  714  10.302   4.676   7.279
   34POPC   D2A  715  10.116   4.870   6.945
   34POPC   C3A  716  10.235   4.765   6.535
   34POPC   C4A  717  10.313   4.854   6.115
   34POPC   C1B  718  10.348   5.209   7.292
   34POPC   C2B  719  10.224   5.377   6.932
   34POPC   C3B  720  10.398   5.327   6.567
   34POPC   C4B  721  10.090   5.249   6.324
   35POPC   NC3  722   7.933   1.011   8.409
   35POPC   PO4  723   8.093   0.424   8.063
   35POPC   GL1  724   8.166   0.424   7.618
   35POPC   GL2  725   7.833   0.562   7.576
   35POPC   C1A  726   8.117   0.447   7.145
   35POPC   D2A  727   8.230   0.721   6.795
   35POPC   C3A  728   8.106   0.670   6.352
   35POPC   C4A  729   8.316   0.550   5.949
   35POPC   C1B  730   7.720   0.201   7.350
   35POPC   C2B  731   7.766  10.474   6.978
   35POPC   C3B  732   7.712  10.493   6.552
   35POPC   C4B  733   7.762   0.278   6.169
   36POPC   NC3  734   8.133   5.786   8.588
   36POPC   PO4  735   8.009   5.393   8.087
   36POPC   GL1  736   8.107   5.465   7.661
   36POPC   GL2  737   8.112   5.820   7.692
   36POPC   C1A  738   7.912   5.507   7.239
   36POPC   D2A  739   7.642   5.296   6.904
   36POPC   C3A  740   7.757   5.339   6.472
   36POPC   C4A  741   8.091   5.563   6.353
   36POPC   C1B  742   8.077   5.992   7.295
   36POPC   C2B  743   7.774   5.936   6.961
   36POPC   C3B  744   7.896   5.990   6.546
   36POPC   C4B  745   7.744   5.958   6.142
   37POPC   NC3  746   8.564   0.467   8.112
   37POPC   PO4  747   8.976   0.937   7.899
   37POPC   GL1  748   8.700   0.670   7.614
   37POPC   GL2  749   8.693   0.315   7.640
   37POPC   C1A  750   8.626   0.483   7.177
   37POPC   D2A  751   8.759   0.282   6.826
   37POPC   C3A  752   8.607   0.483   6.462
   37POPC   C4A  753   8.813   0.562   6.089
   37POPC   C1B  754   8.448   0.052   7.379
   37POPC   C2B  755   8.327   0.002   6.957
   37POPC   C3B  756   8.160   0.231   6.652
   37POPC   C4B  757   8.239   0.177   6.252
   38POPC   NC3  758   3.241   7.142   8.057
   38POPC   PO4  759   2.608   7.005   8.099
   38POPC   GL1  760   2.854   7.027   7.707
   38POPC   GL2  761   2.917   7.382   7.723
   38POPC   C1A  762   2.817   6.889   7.256
   38POPC   D2A  763   2.633   6.854   6.837
   38POPC   C3A  764   2.849   6.889   6.443
   38POPC   C4A  765   2.877   7.196   6.114
   38POPC   C1B  766   2.698   7.383   7.317
   38POPC   C2B  767   2.589   7.463   6.898
   38POPC   C3B  768   2.483   7.255   6.526
   38POPC   C4B  769   2.491   7.522   6.202
   39POPC   NC3  770   4.720   8.612   8.045
   39POPC   PO4  771   5.389   8.664   8.114
   39POPC   GL1  772   5.146   8.820   7.767
   39POPC   GL2  773   5.085   8.510   7.598
   39POPC   C1A  774   5.038   8.991   7.340
   39POPC   D2A  775   5.053   8.751   6.935
   39POPC   C3A  776   5.021   8.942   6.548
   39POPC   C4A  777   5.217   9.085   6.180
   39POPC   C1B  778   4.745   8.581   7.277
   39POPC   C2B  779   4.616   8.490   6.859
   39POPC   C3B  780   4.881   8.435   6.556
   39POPC   C4B  781   4.866   8.416   6.166
   40POPC   NC3  782   5.838   1.922   7.870
   40POPC   PO4  783   5.238   1.733   8.123
   40POPC   GL1  784   5.356   2.034   7.764
   40POPC   GL2  785   5.475   1.779   7.556
   40POPC   C1A  786   5.341   2.141   7.269
   40POPC   D2A  787   5.459   1.881   6.899
   40POPC   C3A  788   5.421   2.021   6.466
   40POPC   C4A  789   5.508   1.734   6.154
   40POPC   C1B  790   5.844   1.972   7.228
   40POPC   C2B  791   6.111   2.019   6.810
   40POPC   C3B  792   5.933   1.977   6.376
   40POPC   C4B  793   5.707   2.173   6.023
   41POPC   NC3  794   0.312   2.130   8.068
   41POPC   PO4  795   0.668   1.592   8.125
   41POPC   GL1  796   0.525   1.754   7.707
   41POPC   GL2  797   0.547   2.109   7.609
   41POPC   C1A  798   0.624   1.756   7.249
   41POPC   D2A  799   0.744   1.976   6.917
   41POPC   C3A  800   0.501   2.032   6.596
   41POPC   C4A  801   0.641   1.842   6.235
   41POPC   C1B  802   0.163   2.276   7.389
   41POPC   C2B  803   0.126   2.436   6.963
   41POPC   C3B  804   0.029   2.327   6.538
   41POPC   C4B  805   0.185   2.074   6.207
   42POPC   NC3  806   6.020   1.026   7.914
   42POPC   PO4  807   6.570   0.730   8.138
   42POPC   GL1  808   6.526   0.982   7.768
   42POPC   GL2  809   6.417   1.337   7.787
   42POPC   C1A  810   6.345   0.970   7.350
   42POPC   D2A  811   6.218   1.217   7.027
   42POPC   C3A  812   6.104   1.108   6.606
   42POPC   C4A  813   6.324   1.112   6.215
   42POPC   C1B  814   6.674   1.364   7.417
   42POPC   C2B  815   6.791   1.254   7.033
   42POPC   C3B  816   6.611   1.223   6.658
   42POPC   C4B  817   6.687   1.472   6.303
   43POPC   NC3  818   1.223   1.941   8.135
   43POPC   PO4  819   1.435   2.584   8.176
   43POPC   GL1  820   1.342   2.292   7.763
   43POPC   GL2  821   1.102   1.983   7.646
   43POPC   C1A  822   1.445   2.172   7.298
   43POPC   D2A  823   1.477   1.915   6.873
   43POPC   C3A  824   1.450   2.188   6.479
   43POPC   C4A  825   1.467   2.152   6.013
   43POPC   C1B  826   1.150   1.743   7.288
   43POPC   C2B  827   1.089   1.593   6.899
   43POPC   C3B  828   1.062   1.858   6.540
   43POPC   C4B  829   1.329   1.714   6.241
   44POPC   NC3  830   2.628   4.041   8.042
   44POPC   PO4  831   3.207   3.795   7.857
   44POPC   GL1  832   2.895   3.837   7.596
   44POPC   GL2  833   2.832   4.185   7.586
   44POPC   C1A  834   2.994   3.906   7.179
   44POPC   D2A  835   2.889   4.214   6.917
   44POPC   C3A  836   2.791   4.067   6.556
   44POPC   C4A  837   2.847   4.169   6.130
   44POPC   C1B  838   2.502   4.052   7.244
   44POPC   C2B  839   2.373   4.267   6.833
   44POPC   C3B  840   2.365   4.288   6.363
   44POPC   C4B  841   2.476   4.463   5.959
   45POPC   NC3  842   8.415   7.989   8.146
   45POPC   PO4  843   8.993   8.200   8.281
   45POPC   GL1  844   8.795   7.928   7.835
   45POPC   GL2  845   8.499   8.027   7.649
   45POPC   C1A  846   8.966   7.745   7.410
   45POPC   D2A  847   9.060   7.893   6.985
   45POPC   C3A  848   8.971   7.796   6.554
   45POPC   C4A  849   9.024   7.561   6.164
   45POPC   C1B  850   8.658   8.134   7.253
   45POPC   C2B  851   8.598   8.038   6.850
   45POPC   C3B  852   8.575   8.200   6.475
   45POPC   C4B  853   8.677   7.961   6.149
   46POPC   NC3  854   9.787  10.246   8.029
   46POPC   PO4  855  10.410   0.144   8.071
   46POPC   GL1  856  10.463  10.433   7.722
   46POPC   GL2  857  10.289  10.120   7.775
   46POPC   C1A  858  10.342  10.484   7.315
   46POPC   D2A  859   0.024   0.093   6.914
   46POPC   C3A  860  10.276   0.033   6.575
   46POPC   C4A  861  10.310  10.370   6.156
   46POPC   C1B  862  10.101  10.018   7.372
   46POPC   C2B  863   9.992  10.237   6.992
   46POPC   C3B  864  10.062  10.075   6.575
   46POPC   C4B  865  10.021   9.958   6.161
   47POPC   NC3  866   1.028   4.369   8.067
   47POPC   PO4  867   1.550   4.421   8.480
   47POPC   GL1  868   1.435   4.134   7.915
   47POPC   GL2  869   1.142   3.939   7.765
   47POPC   C1A  870   1.428   4.240   7.396
   47POPC   D2A  871   1.418   4.486   6.947
   47POPC   C3A  872   1.401   4.216   6.559
   47POPC   C4A  873   1.494   4.242   6.097
   47POPC   C1B  874   0.924   4.130   7.403
   47POPC   C2B  875   0.940   4.293   6.979
   47POPC   C3B  876   0.883   4.133   6.563
   47POPC   C4B  877   1.037   4.024   6.171
   48POPC   NC3  878   2.188   0.318   8.041
   48POPC   PO4  879   1.471   0.385   8.098
   48POPC   GL1  880   1.745   0.306   7.748
   48POPC   GL2  881   1.653   0.646   7.651
   48POPC   C1A  882   2.028   0.154   7.397
   48POPC   D2A  883   2.038  10.478   6.982
   48POPC   C3A  884   2.283   0.133   6.625
   48POPC   C4A  885   2.259   0.087   6.154
   48POPC   C1B  886   2.055   0.675   7.418
   48POPC   C2B  887   2.198   0.499   7.030
   48POPC   C3B  888   1.895   0.428   6.727
   48POPC   C4B  889   1.891   0.384   6.302
   49POPC   NC3  890   6.903   0.448   7.973
   49POPC   PO4  891   7.338   0.835   8.058
   49POPC   GL1  892   7.342   0.768   7.632
   49POPC   GL2  893   7.330   0.404   7.636
   49POPC   C1A  894   7.398   0.682   7.203
   49POPC   D2A  895   7.339   0.328   6.920
   49POPC   C3A  896   7.559   0.480   6.583
   49POPC   C4A  897   7.594   0.773   6.236
   49POPC   C1B  898   6.996   0.356   7.331
   49POPC   C2B  899   6.821   0.197   6.952
   49POPC   C3B  900   6.916   0.361   6.571
   49POPC   C4B  901   7.208   0.376   6.220
   50POPC   NC3  902   6.887   3.010   8.235
   50POPC   PO4  903   7.612   3.067   8.051
   50POPC   GL1  904   7.467   2.861   7.688
   50POPC   GL2  905   7.322   2.521   7.767
   50POPC   C1A  906   7.446   2.654   7.275
   50POPC   D2A  907   7.043   2.631   7.031
   50POPC   C3A  908   7.066   2.719   6.621
   50POPC   C4A  909   6.919   2.978   6.265
   50POPC   C1B  910   7.187   2.228   7.393
   50POPC   C2B  911   7.274   2.187   6.969
   50POPC   C3B  912   7.471   2.416   6.613
   50POPC   C4B  913   7.302   2.588   6.215
   51POPC   NC3  914   7.262   9.562   8.418
   51POPC   PO4  915   7.529   9.996   8.014
   51POPC   GL1  916   7.241  10.086   7.688
   51POPC   GL2  917   7.118  10.425   7.699
   51POPC   C1A  918   7.036   9.938   7.328
   51POPC   D2A  919   7.050   9.711   6.953
   51POPC   C3A  920   7.091   9.933   6.594
   51POPC   C4A  921   6.940  10.044   6.218
   51POPC   C1B  922   7.282  10.439   7.300
   51POPC   C2B  923   7.154  10.322   6.923
   51POPC   C3B  924   7.201  10.440   6.509
   51POPC   C4B  925   7.419  10.215   6.228
   52POPC   NC3  926  10.151   1.382   8.125
   52POPC   PO4  927   9.878   0.874   7.949
   52POPC   GL1  928  10.103   1.084   7.644
   52POPC   GL2  929  10.130   1.486   7.629
   52POPC   C1A  930  10.106   0.849   7.263
   52POPC   D2A  931  10.284   0.948   6.882
   52POPC   C3A  932   9.985   1.010   6.568
   52POPC   C4A  933  10.079   0.881   6.211
   52POPC   C1B  934  10.289   1.355   7.238
   52POPC   C2B  935  10.152   1.456   6.844
   52POPC   C3B  936  10.355   1.327   6.519
   52POPC   C4B  937  10.463   1.214   6.129
   53POPC   NC3  938   8.716   7.039   8.059
   53POPC   PO4  939   9.123   7.513   8.089
   53POPC   GL1  940   8.735   7.433   7.745
   53POPC   GL2  941   8.669   7.099   7.570
   53POPC   C1A  942   8.513   7.533   7.327
   53POPC   D2A  943   8.732   7.508   6.918
   53POPC   C3A  944   8.498   7.623   6.535
   53POPC   C4A  945   8.526   7.442   6.113
   53POPC   C1B  946   8.329   7.039   7.326
   53POPC   C2B  947   8.336   7.186   6.908
   53POPC   C3B  948   8.520   7.109   6.542
   53POPC   C4B  949   8.721   6.990   6.210
   54POPC   NC3  950   8.847   3.896   8.082
   54POPC   PO4  951   8.485   4.514   8.054
   54POPC   GL1  952   8.515   4.259   7.652
   54POPC   GL2  953   8.821   4.191   7.670
   54POPC   C1A  954   8.484   3.917   7.337
   54POPC   D2A  955   8.426   3.760   6.925
   54POPC   C3A  956   8.477   4.075   6.637
   54POPC   C4A  957   8.510   3.811   6.305
   54POPC   C1B  958   8.921   4.409   7.312
   54POPC   C2B  959   8.773   4.494   6.911
   54POPC   C3B  960   8.903   4.406   6.540
   54POPC   C4B  961   8.707   4.267   6.211
   55POPC   NC3  962   9.431   7.189   8.230
   55POPC   PO4  963   9.050   6.714   8.280
   55POPC   GL1  964   9.168   7.078   7.817
   55POPC   GL2  965   9.487   7.262   7.726
   55POPC   C1A  966   9.108   7.194   7.338
   55POPC   D2A  967   8.926   7.016   6.930
   55POPC   C3A  968   9.041   7.231   6.547
   55POPC   C4A  969   9.216   7.088   6.137
   55POPC   C1B  970   9.626   7.049   7.347
   55POPC   C2B  971   9.466   6.953   6.944
   55POPC   C3B  972   9.544   7.104   6.562
   55POPC   C4B  973   9.820   7.012   6.273
   56POPC   NC3  974  10.151   7.644   8.046
   56POPC   PO4  975  10.486   8.152   8.264
   56POPC   GL1  976  10.390   7.993   7.767
   56POPC   GL2  977  10.098   7.934   7.651
   56POPC   C1A  978  10.340   7.784   7.265
   56POPC   D2A  979   0.046   7.911   6.946
   56POPC   C3A  980  10.311   7.768   6.678
   56POPC   C4A  981  10.349   7.801   6.290
   56POPC   C1B  982   9.892   7.988   7.290
   56POPC   C2B  983  10.012   8.115   6.914
   56POPC   C3B  984   9.870   7.955   6.507
   56POPC   C4B  985   9.792   7.877   6.101
   57POPC   NC3  986   1.617   2.981   8.348
   57POPC   PO4  987   0.956   3.116   8.080
   57POPC   GL1  988   0.949   3.361   7.703
   57POPC   GL2  989   1.303   3.423   7.673
   57POPC   C1A  990   1.012   3.245   7.283
   57POPC   D2A  991   1.283   3.215   6.951
   57POPC   C3A  992   1.038   3.265   6.600
   57POPC   C4A  993   1.184   3.348   6.204
   57POPC   C1B  994   1.236   3.714   7.317
   57POPC   C2B  995   1.072   3.789   6.924
   57POPC   C3B  996   1.233   3.731   6.532
   57POPC   C4B  997   1.540   3.742   6.200
   58POPC   NC3  998  10.327   3.692   8.049
   58POPC   PO4  999   9.987   3.163   8.289
   58POPC   GL1 1000   9.979   3.182   7.776
   58POPC   GL2 1001  10.081   3.454   7.612
   58POPC   C1A 1002  10.038   3.003   7.339
   58POPC   D2A 1003   9.886   3.153   6.932
   58POPC   C3A 1004  10.104   3.120   6.562
   58POPC   C4A 1005  10.003   3.219   6.148
   58POPC   C1B 1006  10.043   3.627   7.206
   58POPC   C2B 1007  10.253   3.552   6.835
   58POPC   C3B 1008  10.259   3.734   6.439
   58POPC   C4B 1009  10.091   3.698   6.042
   59POPC   NC3 1010   7.145   7.824   8.363
   59POPC   PO4 1011   7.179   7.933   7.851
   59POPC   GL1 1012   7.122   7.989   7.514
   59POPC   GL2 1013   7.024   8.328   7.506
   59POPC   C1A 1014   7.157   7.760   7.183
   59POPC   D2A 1015   7.344   7.593   6.857
   59POPC   C3A 1016   7.157   7.671   6.452
   59POPC   C4A 1017   7.301   7.665   5.993
   59POPC   C1B 1018   7.294   8.273   7.154
   59POPC   C2B 1019   7.181   8.090   6.809
   59POPC   C3B 1020   7.171   8.183   6.464
   59POPC   C4B 1021   7.009   8.038   6.120
   60POPC   NC3 1022   2.799   6.587   8.101
   60POPC   PO4 1023   3.056   5.942   8.006
   60POPC   GL1 1024   2.818   6.216   7.672
   60POPC   GL2 1025   2.650   6.543   7.627
   60POPC   C1A 1026   2.901   6.363   7.216
   60POPC   D2A 1027   3.170   6.259   6.833
   60POPC   C3A 1028   3.026   6.396   6.403
   60POPC   C4A 1029   3.045   6.137   5.986
   60POPC   C1B 1030   2.351   6.319   7.350
   60POPC   C2B 1031   2.249   6.223   6.919
   60POPC   C3B 1032   2.442   6.416   6.530
   60POPC   C4B 1033   2.584   6.360   6.105
   61POPC   NC3 1034   8.120   4.228   7.968
   61POPC   PO4 1035   7.730   3.761   8.207
   61POPC   GL1 1036   7.751   3.843   7.771
   61POPC   GL2 1037   7.766   4.136   7.615
   61POPC   C1A 1038   7.720   3.727   7.318
   61POPC   D2A 1039   7.663   3.920   6.889
   61POPC   C3A 1040   7.985   3.904   6.578
   61POPC   C4A 1041   8.128   4.112   6.235
   61POPC   C1B 1042   8.019   4.183   7.235
   61POPC   C2B 1043   8.011   4.344   6.796
   61POPC   C3B 1044   7.815   4.465   6.386
   61POPC   C4B 1045   7.483   4.511   6.078
   62POPC   NC3 1046   0.127   0.527   7.920
   62POPC   PO4 1047   0.596   0.062   8.034
   62POPC   GL1 1048   0.648   0.237   7.645
   62POPC   GL2 1049   0.628   0.579   7.754
   62POPC   C1A 1050   0.429   0.106   7.257
   62POPC   D2A 1051   0.518   0.243   6.823
   62POPC   C3A 1052   0.294   0.043   6.456
   62POPC   C4A 1053   0.575   0.102   6.070
   62POPC   C1B 1054   0.492   0.632   7.326
   62POPC   C2B 1055   0.697   0.760   6.984
   62POPC   C3B 1056   0.683   0.748   6.587
   62POPC   C4B 1057   0.465   0.495   6.357
   63POPC   NC3 1058   0.233   4.438   8.396
   63POPC   PO4 1059   0.300   3.823   8.090
   63POPC   GL1 1060   0.558   4.082   7.767
   63POPC   GL2 1061   0.488   4.431   7.714
   63POPC   C1A 1062   0.414   4.087   7.312
   63POPC   D2A 1063   0.548   3.965   6.917
   63POPC   C3A 1064   0.386   4.067   6.515
   63POPC   C4A 1065   0.525   4.010   6.118
   63POPC   C1B 1066   0.635   4.555   7.322
   63POPC   C2B 1067   0.446   4.492   6.931
   63POPC   C3B 1068   0.542   4.568   6.523
   63POPC   C4B 1069   0.744   4.452   6.158
   64POPC   NC3 1070   3.930   0.707   8.042
   64POPC   PO4 1071   3.958   0.027   8.098
   64POPC   GL1 1072   3.920   0.277   7.740
   64POPC   GL2 1073   4.252   0.435   7.705
   64POPC   C1A 1074   3.909   0.177   7.308
   64POPC   D2A 1075   3.748   0.355   6.943
   64POPC   C3A 1076   3.845   0.241   6.520
   64POPC   C4A 1077   3.832   0.607   6.304
   64POPC   C1B 1078   4.395   0.209   7.332
   64POPC   C2B 1079   4.245   0.186   6.918
   64POPC   C3B 1080   4.196   0.565   6.676
   64POPC   C4B 1081   4.327   0.380   6.300
   65POPC   NC3 1082   5.008   9.551   8.230
   65POPC   PO4 1083   4.687   9.062   8.100
   65POPC   GL1 1084   5.036   9.326   7.774
   65POPC   GL2 1085   5.092   9.713   7.746
   65POPC   C1A 1086   5.224   9.470   7.334
   65POPC   D2A 1087   4.962   9.387   6.977
   65POPC   C3A 1088   5.184   9.427   6.599
   65POPC   C4A 1089   5.078   9.590   6.240
   65POPC   C1B 1090   4.748   9.601   7.435
   65POPC   C2B 1091   4.535   9.706   7.040
   65POPC   C3B 1092   4.675   9.648   6.606
   65POPC   C4B 1093   4.710   9.283   6.345
   66POPC   NC3 1094   2.788   5.024   8.135
   66POPC   PO4 1095   3.018   4.457   8.059
   66POPC   GL1 1096   2.833   4.706   7.724
   66POPC   GL2 1097   2.470   4.768   7.778
   66POPC   C1A 1098   2.726   5.014   7.384
   66POPC   D2A 1099   2.781   5.342   7.084
   66POPC   C3A 1100   2.894   5.108   6.719
   66POPC   C4A 1101   2.841   5.172   6.296
   66POPC   C1B 1102   2.529   4.540   7.363
   66POPC   C2B 1103   2.660   4.688   6.966
   66POPC   C3B 1104   2.595   4.731   6.524
   66POPC   C4B 1105   2.873   4.671   6.190
   67POPC   NC3 1106   8.779   8.551   8.052
   67POPC   PO4 1107   9.020   9.158   7.993
   67POPC   GL1 1108   8.948   8.829   7.645
   67POPC   GL2 1109   8.711   8.558   7.548
   67POPC   C1A 1110   9.108   8.768   7.234
   67POPC   D2A 1111   9.076   8.407   6.997
   67POPC   C3A 1112   9.116   8.575   6.602
   67POPC   C4A 1113   8.984   8.402   6.227
   67POPC   C1B 1114   8.599   8.771   7.212
   67POPC   C2B 1115   8.626   8.608   6.810
   67POPC   C3B 1116   8.631   8.724   6.389
   67POPC   C4B 1117   8.512   8.446   6.013
   68POPC   NC3 1118   5.271   0.399   7.788
   68POPC   PO4 1119   4.889  10.490   8.130
   68POPC   GL1 1120   4.723   0.181   7.748
   68POPC   GL2 1121   4.771   0.549   7.736
   68POPC   C1A 1122   4.879   0.225   7.307
   68POPC   D2A 1123   5.121   0.436   7.035
   68POPC   C3A 1124   5.106   0.404   6.631
   68POPC   C4A 1125   5.052   0.373   6.227
   68POPC   C1B 1126   4.614   0.673   7.330
   68POPC   C2B 1127   4.642   0.508   6.917
   68POPC   C3B 1128   4.674   0.678   6.525
   68POPC   C4B 1129   4.706   0.706   6.108
   69POPC   NC3 1130   9.363   5.436   7.955
   69POPC   PO4 1131   9.743   6.002   8.167
   69POPC   GL1 1132   9.734   5.810   7.788
   69POPC   GL2 1133   9.409   5.809   7.603
   69POPC   C1A 1134   9.846   5.947   7.390
   69POPC   D2A 1135   9.548   5.938   7.082
   69POPC   C3A 1136   9.624   5.978   6.658
   69POPC   C4A 1137   9.442   5.917   6.281
   69POPC   C1B 1138   9.371   5.481   7.281
   69POPC   C2B 1139   9.205   5.340   6.898
   69POPC   C3B 1140   9.156   5.490   6.509
   69POPC   C4B 1141   9.190   5.330   6.142
   70POPC   NC3 1142   4.320   2.771   7.879
   70POPC   PO4 1143   3.875   2.337   8.043
   70POPC   GL1 1144   3.970   2.504   7.619
   70POPC   GL2 1145   3.877   2.836   7.576
   70POPC   C1A 1146   4.299   2.487   7.252
   70POPC   D2A 1147   4.454   2.728   6.856
   70POPC   C3A 1148   4.259   2.786   6.458
   70POPC   C4A 1149   4.109   2.540   6.113
   70POPC   C1B 1150   3.834   2.676   7.163
   70POPC   C2B 1151   3.843   2.667   6.724
   70POPC   C3B 1152   3.752   2.861   6.360
   70POPC   C4B 1153   3.705   2.752   5.916
   71POPC   NC3 1154   6.991   6.934   8.413
   71POPC   PO4 1155   7.531   6.811   8.052
   71POPC   GL1 1156   7.552   6.683   7.651
   71POPC   GL2 1157   7.348   6.408   7.636
   71POPC   C1A 1158   7.353   6.799   7.246
   71POPC   D2A 1159   7.116   6.769   6.902
   71POPC   C3A 1160   7.271   6.777   6.504
   71POPC   C4A 1161   7.099   6.505   6.202
   71POPC   C1B 1162   7.176   6.326   7.193
   71POPC   C2B 1163   7.119   6.265   6.741
   71POPC   C3B 1164   6.983   6.050   6.389
   71POPC   C4B 1165   7.246   6.030   6.024
   72POPC   NC3 1166   1.115   5.717   8.130
   72POPC   PO4 1167   1.541   6.224   8.048
   72POPC   GL1 1168   1.503   5.848   7.743
   72POPC   GL2 1169   1.276   5.526   7.706
   72POPC   C1A 1170   1.568   5.680   7.318
   72POPC   D2A 1171   1.366   5.779   6.937
   72POPC   C3A 1172   1.518   5.947   6.556
   72POPC   C4A 1173   1.356   5.789   6.184
   72POPC   C1B 1174   1.037   5.610   7.326
   72POPC   C2B 1175   1.060   5.374   6.927
   72POPC   C3B 1176   1.109   5.531   6.539
   72POPC   C4B 1177   0.940   5.408   6.154
   73POPC   NC3 1178   3.562  10.279   8.098
   73POPC   PO4 1179   3.075   9.848   7.917
   73POPC   GL1 1180   3.391  10.051   7.645
   73POPC   GL2 1181   3.648  10.339   7.613
   73POPC   C1A 1182   3.472   9.931   7.241
   73POPC   D2A 1183   3.461   9.689   6.871
   73POPC   C3A 1184   3.307   9.957   6.552
   73POPC   C4A 1185   2.971   9.989   6.248
   73POPC   C1B 1186   3.482  10.439   7.247
   73POPC   C2B 1187   3.594  10.385   6.822
   73POPC   C3B 1188   3.678  10.280   6.405
   73POPC   C4B 1189   3.744   9.909   6.215
   74POPC   NC3 1190   0.172   8.407   7.906
   74POPC   PO4 1191   0.794   8.705   8.076
   74POPC   GL1 1192   0.662   8.488   7.727
   74POPC   GL2 1193   0.546   8.803   7.596
   74POPC   C1A 1194   0.826   8.477   7.325
   74POPC   D2A 1195   0.649   8.728   6.991
   74POPC   C3A 1196   0.765   8.586   6.607
   74POPC   C4A 1197   0.626   8.578   6.221
   74POPC   C1B 1198   0.204   8.853   7.310
   74POPC   C2B 1199   0.159   8.848   6.881
   74POPC   C3B 1200   0.226   8.608   6.535
   74POPC   C4B 1201   0.063   8.547   6.157
   75POPC   NC3 1202   1.123   6.445   8.053
   75POPC   PO4 1203   0.916   6.986   8.219
   75POPC   GL1 1204   1.183   6.882   7.764
   75POPC   GL2 1205   1.062   6.592   7.581
   75POPC   C1A 1206   1.421   6.737   7.293
   75POPC   D2A 1207   1.216   6.549   6.923
   75POPC   C3A 1208   1.420   6.557   6.493
   75POPC   C4A 1209   1.312   6.515   6.036
   75POPC   C1B 1210   1.089   6.168   7.408
   75POPC   C2B 1211   0.962   6.083   6.994
   75POPC   C3B 1212   1.058   6.173   6.573
   75POPC   C4B 1213   0.988   6.141   6.148
   76POPC   NC3 1214   0.070   4.172   7.859
   76POPC   PO4 1215  10.044   4.455   8.203
   76POPC   GL1 1216  10.062   4.253   7.787
   76POPC   GL2 1217  10.153   3.946   7.641
   76POPC   C1A 1218   9.935   4.275   7.338
   76POPC   D2A 1219  10.120   4.342   6.933
   76POPC   C3A 1220   9.895   4.374   6.578
   76POPC   C4A 1221  10.052   4.417   6.180
   76POPC   C1B 1222  10.381   4.019   7.263
   76POPC   C2B 1223   0.017   4.016   6.859
   76POPC   C3B 1224  10.413   4.235   6.478
   76POPC   C4B 1225  10.475   4.044   6.061
   77POPC   NC3 1226   1.887   5.893   8.103
   77POPC   PO4 1227   1.515   5.366   8.153
   77POPC   GL1 1228   1.774   5.405   7.752
   77POPC   GL2 1229   2.036   5.647   7.688
   77POPC   C1A 1230   1.835   5.260   7.334
   77POPC   D2A 1231   1.925   5.350   6.915
   77POPC   C3A 1232   1.631   5.442   6.606
   77POPC   C4A 1233   1.819   5.444   6.195
   77POPC   C1B 1234   2.059   5.887   7.312
   77POPC   C2B 1235   1.867   5.880   6.922
   77POPC   C3B 1236   2.023   5.777   6.527
   77POPC   C4B 1237   2.244   6.006   6.251
   78POPC   NC3 1238   8.394   3.273   7.914
   78POPC   PO4 1239   9.099   3.233   7.992
   78POPC   GL1 1240   8.825   3.291   7.658
   78POPC   GL2 1241   8.779   3.642   7.662
   78POPC   C1A 1242   8.660   3.415   7.250
   78POPC   D2A 1243   8.556   3.233   6.904
   78POPC   C3A 1244   8.713   3.374   6.516
   78POPC   C4A 1245   8.481   3.308   6.148
   78POPC   C1B 1246   9.016   3.850   7.331
   78POPC   C2B 1247   8.894   3.981   6.933
   78POPC   C3B 1248   8.974   3.896   6.504
   78POPC   C4B 1249   8.941   3.633   6.141
   79POPC   NC3 1250   9.825   4.027   8.475
   79POPC   PO4 1251   9.191   4.249   8.142
   79POPC   GL1 1252   9.308   4.102   7.725
   79POPC   GL2 1253   9.616   4.032   7.690
   79POPC   C1A 1254   9.423   4.331   7.330
   79POPC   D2A 1255   9.264   4.322   6.919
   79POPC   C3A 1256   9.408   4.485   6.535
   79POPC   C4A 1257   9.242   4.241   6.184
   79POPC   C1B 1258   9.590   3.852   7.332
   79POPC   C2B 1259   9.688   4.031   6.949
   79POPC   C3B 1260   9.490   3.969   6.573
   79POPC   C4B 1261   9.736   4.020   6.229
   80POPC   NC3 1262   6.287   6.710   7.739
   80POPC   PO4 1263   6.640   7.144   8.155
   80POPC   GL1 1264   6.698   7.133   7.687
   80POPC   GL2 1265   6.395   7.297   7.635
   80POPC   C1A 1266   6.746   6.873   7.271
   80POPC   D2A 1267   6.651   6.933   6.811
   80POPC   C3A 1268   6.623   6.620   6.456
   80POPC   C4A 1269   6.295   6.649   6.119
   80POPC   C1B 1270   6.552   7.366   7.214
   80POPC   C2B 1271   6.301   7.287   6.856
   80POPC   C3B 1272   6.296   7.071   6.462
   80POPC   C4B 1273   6.084   7.358   6.239
   81POPC   NC3 1274   0.613   1.164   8.289
   81POPC   PO4 1275  10.474   0.874   8.175
   81POPC   GL1 1276   0.096   1.042   7.781
   81POPC   GL2 1277   0.116   1.400   7.802
   81POPC   C1A 1278   0.086   0.951   7.348
   81POPC   D2A 1279   0.308   1.056   7.003
   81POPC   C3A 1280   0.265   1.043   6.586
   81POPC   C4A 1281   0.397   0.947   6.170
   81POPC   C1B 1282   0.285   1.411   7.371
   81POPC   C2B 1283   0.171   1.526   6.905
   81POPC   C3B 1284   0.307   1.520   6.412
   81POPC   C4B 1285   0.584   1.374   6.029
   82POPC   NC3 1286   9.282   6.245   8.134
   82POPC   PO4 1287   8.880   6.689   7.797
   82POPC   GL1 1288   9.030   6.286   7.679
   82POPC   GL2 1289   9.408   6.317   7.648
   82POPC   C1A 1290   9.099   6.148   7.261
   82POPC   D2A 1291   8.864   6.283   6.871
   82POPC   C3A 1292   9.136   6.294   6.493
   82POPC   C4A 1293   9.201   6.722   6.468
   82POPC   C1B 1294   9.330   6.598   7.298
   82POPC   C2B 1295   9.424   6.436   6.888
   82POPC   C3B 1296   9.646   6.463   6.484
   82POPC   C4B 1297   9.951   6.186   6.304
   83POPC   NC3 1298   9.430   0.867   7.814
   83POPC   PO4 1299   9.009   0.501   8.272
   83POPC   GL1 1300   9.160   0.441   7.783
   83POPC   GL2 1301   9.501   0.369   7.621
   83POPC   C1A 1302   9.117   0.495   7.306
   83POPC   D2A 1303   9.301   0.347   6.900
   83POPC   C3A 1304   9.150   0.439   6.507
   83POPC   C4A 1305   9.048   0.830   6.445
   83POPC   C1B 1306   9.619   0.636   7.243
   83POPC   C2B 1307   9.682   0.695   6.822
   83POPC   C3B 1308   9.634   0.638   6.382
   83POPC   C4B 1309   9.493   0.307   6.131
   84POPC   NC3 1310   7.210   7.047   7.814
   84POPC   PO4 1311   7.502   7.484   8.246
   84POPC   GL1 1312   7.413   7.498   7.723
   84POPC   GL2 1313   7.101   7.458   7.564
   84POPC   C1A 1314   7.518   7.350   7.286
   84POPC   D2A 1315   7.536   7.108   6.884
   84POPC   C3A 1316   7.549   7.312   6.488
   84POPC   C4A 1317   7.273   7.214   6.234
   84POPC   C1B 1318   7.050   7.254   7.133
   84POPC   C2B 1319   7.031   7.233   6.683
   84POPC   C3B 1320   6.808   7.061   6.320
   84POPC   C4B 1321   6.768   6.771   5.936
   85POPC   NC3 1322   7.665   1.633   7.945
   85POPC   PO4 1323   8.054   2.171   8.080
   85POPC   GL1 1324   8.006   1.881   7.609
   85POPC   GL2 1325   7.723   1.622   7.466
   85POPC   C1A 1326   8.042   1.743   7.128
   85POPC   D2A 1327   8.219   1.694   6.756
   85POPC   C3A 1328   7.994   1.618   6.387
   85POPC   C4A 1329   8.142   1.623   5.939
   85POPC   C1B 1330   7.672   2.056   7.271
   85POPC   C2B 1331   7.771   2.107   6.888
   85POPC   C3B 1332   7.912   2.107   6.533
   85POPC   C4B 1333   8.061   2.064   6.173
   86POPC   NC3 1334   7.063   9.177   7.984
   86POPC   PO4 1335   7.655   9.366   8.321
   86POPC   GL1 1336   7.541   9.329   7.842
   86POPC   GL2 1337   7.275   9.565   7.699
   86POPC   C1A 1338   7.462   9.140   7.397
   86POPC   D2A 1339   7.365   8.878   7.003
   86POPC   C3A 1340   7.338   9.138   6.623
   86POPC   C4A 1341   7.470   9.061   6.182
   86POPC   C1B 1342   6.993   9.379   7.359
   86POPC   C2B 1343   6.919   9.216   6.939
   86POPC   C3B 1344   6.935   9.434   6.512
   86POPC   C4B 1345   7.333   9.590   6.297
   87POPC   NC3 1346   6.962   1.071   8.225
   87POPC   PO4 1347   7.614   1.286   8.232
   87POPC   GL1 1348   7.354   1.271   7.793
   87POPC   GL2 1349   7.004   1.161   7.745
   87POPC   C1A 1350   7.255   1.245   7.337
   87POPC   D2A 1351   7.270   1.145   6.908
   87POPC   C3A 1352   7.130   1.378   6.564
   87POPC   C4A 1353   7.179   1.358   6.116
   87POPC   C1B 1354   6.885   0.871   7.388
   87POPC   C2B 1355   6.948   0.724   6.948
   87POPC   C3B 1356   7.149   0.813   6.543
   87POPC   C4B 1357   6.875   1.003   6.288
   88POPC   NC3 1358   2.521   0.941   8.139
   88POPC   PO4 1359   3.159   1.009   8.092
   88POPC   GL1 1360   3.082   1.249   7.683
   88POPC   GL2 1361   2.761   1.156   7.709
   88POPC   C1A 1362   3.085   1.345   7.229
   88POPC   D2A 1363   3.020   1.083   6.913
   88POPC   C3A 1364   2.878   1.256   6.549
   88POPC   C4A 1365   3.051   1.126   6.202
   88POPC   C1B 1366   2.624   1.098   7.297
   88POPC   C2B 1367   2.530   1.305   6.916
   88POPC   C3B 1368   2.352   1.164   6.530
   88POPC   C4B 1369   2.447   1.034   6.122
   89POPC   NC3 1370   0.489   9.095   8.030
   89POPC   PO4 1371   0.392   9.775   7.960
   89POPC   GL1 1372   0.591   9.430   7.667
   89POPC   GL2 1373   0.314   9.285   7.582
   89POPC   C1A 1374   0.623   9.181   7.221
   89POPC   D2A 1375   0.419   9.278   6.810
   89POPC   C3A 1376   0.520   9.032   6.460
   89POPC   C4A 1377   0.539   9.023   5.989
   89POPC   C1B 1378   0.416   9.650   7.279
   89POPC   C2B 1379   0.317   9.763   6.904
   89POPC   C3B 1380   0.494   9.792   6.535
   89POPC   C4B 1381   0.368   9.484   6.236
   90POPC   NC3 1382   5.624   9.040   8.027
   90POPC   PO4 1383   5.459   9.691   8.128
   90POPC   GL1 1384   5.596   9.475   7.720
   90POPC   GL2 1385   5.962   9.353   7.701
   90POPC   C1A 1386   5.645   9.172   7.346
   90POPC   D2A 1387   5.398   9.112   6.958
   90POPC   C3A 1388   5.591   9.096   6.556
   90POPC   C4A 1389   5.741   9.337   6.215
   90POPC   C1B 1390   5.924   9.615   7.333
   90POPC   C2B 1391   5.626   9.574   7.011
   90POPC   C3B 1392   5.672   9.627   6.626
   90POPC   C4B 1393   6.030   9.758   6.362
   91POPC   NC3 1394   3.762   2.789   8.166
   91POPC   PO4 1395   3.122   2.965   8.241
   91POPC   GL1 1396   3.400   2.965   7.821
   91POPC   GL2 1397   3.473   2.590   7.776
   91POPC   C1A 1398   3.252   3.000   7.372
   91POPC   D2A 1399   3.062   2.800   7.010
   91POPC   C3A 1400   3.192   2.890   6.564
   91POPC   C4A 1401   3.337   3.072   6.190
   91POPC   C1B 1402   3.344   2.487   7.359
   91POPC   C2B 1403   3.426   2.474   6.929
   91POPC   C3B 1404   3.454   2.444   6.501
   91POPC   C4B 1405   3.281   2.561   6.136
   92POPC   NC3 1406   1.849   8.184   8.087
   92POPC   PO4 1407   1.767   7.496   8.203
   92POPC   GL1 1408   1.745   7.772   7.786
   92POPC   GL2 1409   1.665   8.097   7.608
   92POPC   C1A 1410   1.709   7.646   7.332
   92POPC   D2A 1411   1.696   7.919   6.962
   92POPC   C3A 1412   1.696   7.760   6.526
   92POPC   C4A 1413   1.680   8.185   6.309
   92POPC   C1B 1414   2.060   7.988   7.349
   92POPC   C2B 1415   2.169   7.776   6.945
   92POPC   C3B 1416   2.109   8.044   6.600
   92POPC   C4B 1417   2.108   7.850   6.229
   93POPC   NC3 1418   7.698   7.821   7.962
   93POPC   PO4 1419   8.078   8.283   8.073
   93POPC   GL1 1420   7.984   8.088   7.654
   93POPC   GL2 1421   7.609   8.167   7.605
   93POPC   C1A 1422   8.148   7.928   7.267
   93POPC   D2A 1423   8.127   8.181   6.923
   93POPC   C3A 1424   8.106   8.007   6.547
   93POPC   C4A 1425   8.086   8.201   6.165
   93POPC   C1B 1426   7.640   7.856   7.303
   93POPC   C2B 1427   7.672   7.971   6.912
   93POPC   C3B 1428   7.616   7.867   6.503
   93POPC   C4B 1429   7.560   8.118   6.175
   94POPC   NC3 1430   0.522   7.564   7.885
   94POPC   PO4 1431   0.446   6.946   7.835
   94POPC   GL1 1432   0.724   6.969   7.560
   94POPC   GL2 1433   0.592   7.268   7.462
   94POPC   C1A 1434   0.797   6.894   7.147
   94POPC   D2A 1435   0.506   7.130   6.960
   94POPC   C3A 1436   0.492   7.030   6.591
   94POPC   C4A 1437   0.708   7.145   6.243
   94POPC   C1B 1438   0.145   7.178   7.330
   94POPC   C2B 1439  10.433   7.358   7.009
   94POPC   C3B 1440   0.202   7.463   6.655
   94POPC   C4B 1441   0.223   7.306   6.249
   95POPC   NC3 1442   2.202   7.389   8.082
   95POPC   PO4 1443   1.613   6.947   8.016
   95POPC   GL1 1444   1.657   7.071   7.611
   95POPC   GL2 1445   1.878   7.306   7.684
   95POPC   C1A 1446   1.691   7.170   7.170
   95POPC   D2A 1447   1.669   6.899   6.839
   95POPC   C3A 1448   1.601   7.063   6.471
   95POPC   C4A 1449   1.678   6.846   6.126
   95POPC   C1B 1450   2.191   7.462   7.399
   95POPC   C2B 1451   2.210   7.188   7.062
   95POPC   C3B 1452   1.992   7.303   6.714
   95POPC   C4B 1453   2.015   7.328   6.277
   96POPC   NC3 1454   4.269   3.498   8.057
   96POPC   PO4 1455   4.673   3.966   7.816
   96POPC   GL1 1456   4.356   3.647   7.583
   96POPC   GL2 1457   4.366   3.259   7.615
   96POPC   C1A 1458   4.176   3.516   7.183
   96POPC   D2A 1459   4.462   3.404   6.836
   96POPC   C3A 1460   4.448   3.717   6.526
   96POPC   C4A 1461   4.124   3.716   6.239
   96POPC   C1B 1462   4.259   3.009   7.259
   96POPC   C2B 1463   4.058   3.083   6.877
   96POPC   C3B 1464   4.057   3.275   6.503
   96POPC   C4B 1465   4.441   3.275   6.282
   97POPC   NC3 1466   5.122   2.877   8.120
   97POPC   PO4 1467   4.558   3.092   8.089
   97POPC   GL1 1468   4.774   2.922   7.683
   97POPC   GL2 1469   5.111   2.777   7.616
   97POPC   C1A 1470   4.780   2.881   7.213
   97POPC   D2A 1471   4.974   2.785   6.782
   97POPC   C3A 1472   4.761   2.743   6.393
   97POPC   C4A 1473   4.536   2.807   6.009
   97POPC   C1B 1474   5.235   2.625   7.199
   97POPC   C2B 1475   5.208   2.343   6.819
   97POPC   C3B 1476   5.257   2.529   6.399
   97POPC   C4B 1477   5.244   2.979   6.352
   98POPC   NC3 1478   1.857   6.573   8.088
   98POPC   PO4 1479   2.272   6.114   8.000
   98POPC   GL1 1480   1.906   6.195   7.683
   98POPC   GL2 1481   1.753   6.538   7.611
   98POPC   C1A 1482   1.627   6.181   7.293
   98POPC   D2A 1483   1.714   6.403   6.925
   98POPC   C3A 1484   1.911   6.312   6.542
   98POPC   C4A 1485   1.708   6.227   6.166
   98POPC   C1B 1486   1.963   6.730   7.261
   98POPC   C2B 1487   2.140   6.721   6.851
   98POPC   C3B 1488   2.099   6.832   6.438
   98POPC   C4B 1489   2.099   6.544   6.093
   99POPC   NC3 1490   1.310   2.899   7.860
   99POPC   PO4 1491   0.881   2.243   8.005
   99POPC   GL1 1492   0.902   2.490   7.644
   99POPC   GL2 1493   0.858   2.848   7.627
   99POPC   C1A 1494   0.931   2.271   7.270
   99POPC   D2A 1495   1.155   2.299   6.889
   99POPC   C3A 1496   0.973   2.370   6.481
   99POPC   C4A 1497   1.114   2.488   6.055
   99POPC   C1B 1498   1.091   2.745   7.224
   99POPC   C2B 1499   1.059   2.781   6.784
   99POPC   C3B 1500   1.248   2.839   6.425
   99POPC   C4B 1501   0.874   2.912   6.212
  100POPC   NC3 1502   8.133  10.481   7.971
  100POPC   PO4 1503   8.331   9.878   8.063
  100POPC   GL1 1504   8.019  10.027   7.708
  100POPC   GL2 1505   7.729  10.290   7.657
  100POPC   C1A 1506   8.073  10.214   7.303
  100POPC   D2A 1507   8.079  10.035   6.901
  100POPC   C3A 1508   8.180  10.220   6.522
  100POPC   C4A 1509   7.930  10.284   6.157
  100POPC   C1B 1510   7.588  10.035   7.276
  100POPC   C2B 1511   7.557  10.021   6.820
  100POPC   C3B 1512   7.769   9.905   6.459
  100POPC   C4B 1513   7.697   9.855   6.019
  101POPC   NC3 1514   1.998   1.380   8.048
  101POPC   PO4 1515   1.979   2.051   8.064
  101POPC   GL1 1516   1.729   1.936   7.698
  101POPC   GL2 1517   1.822   2.285   7.638
  101POPC   C1A 1518   1.729   1.701   7.270
  101POPC   D2A 1519   1.998   1.809   6.878
  101POPC   C3A 1520   2.102   1.675   6.447
  101POPC   C4A 1521   1.807   1.679   6.061
  101POPC   C1B 1522   1.959   2.159   7.268
  101POPC   C2B 1523   1.799   2.289   6.913
  101POPC   C3B 1524   1.934   2.335   6.542
  101POPC   C4B 1525   1.901   2.114   6.260
  102POPC   NC3 1526   0.614   3.457   8.085
  102POPC   PO4 1527   0.029   3.369   7.803
  102POPC   GL1 1528   0.136   3.712   7.594
  102POPC   GL2 1529   0.464   3.610   7.627
  102POPC   C1A 1530   0.211   3.625   7.157
  102POPC   D2A 1531   0.197   3.243   6.925
  102POPC   C3A 1532   0.084   3.319   6.494
  102POPC   C4A 1533   0.230   3.627   6.256
  102POPC   C1B 1534   0.714   3.653   7.308
  102POPC   C2B 1535   0.674   3.478   6.914
  102POPC   C3B 1536   0.700   3.647   6.515
  102POPC   C4B 1537   0.678   3.390   6.191
  103POPC   NC3 1538   0.285  10.221   8.090
  103POPC   PO4 1539   1.051  10.200   8.136
  103POPC   GL1 1540   0.814  10.252   7.689
  103POPC   GL2 1541   0.481  10.225   7.635
  103POPC   C1A 1542   0.748  10.065   7.241
  103POPC   D2A 1543   0.508  10.232   6.892
  103POPC   C3A 1544   0.718  10.301   6.503
  103POPC   C4A 1545   0.631  10.111   6.150
  103POPC   C1B 1546   0.156  10.078   7.388
  103POPC   C2B 1547  10.473  10.101   7.007
  103POPC   C3B 1548   0.077  10.122   6.613
  103POPC   C4B 1549   0.124   9.970   6.231
  104POPC   NC3 1550   7.759   0.961   7.906
  104POPC   PO4 1551   8.312   1.217   8.231
  104POPC   GL1 1552   8.251   0.917   7.767
  104POPC   GL2 1553   7.965   1.031   7.463
  104POPC   C1A 1554   8.373   0.899   7.272
  104POPC   D2A 1555   8.186   1.207   6.979
  104POPC   C3A 1556   8.122   1.165   6.552
  104POPC   C4A 1557   8.037   1.140   6.126
  104POPC   C1B 1558   7.715   1.111   7.148
  104POPC   C2B 1559   7.702   0.956   6.732
  104POPC   C3B 1560   7.608   1.248   6.404
  104POPC   C4B 1561   7.659   1.499   6.032
  105POPC   NC3 1562   6.803  10.079   7.973
  105POPC   PO4 1563   6.177   9.691   8.028
  105POPC   GL1 1564   6.258   9.926   7.677
  105POPC   GL2 1565   6.312  10.259   7.740
  105POPC   C1A 1566   6.115  10.086   7.278
  105POPC   D2A 1567   6.097   9.889   6.879
  105POPC   C3A 1568   6.111  10.228   6.590
  105POPC   C4A 1569   6.355  10.217   6.262
  105POPC   C1B 1570   6.609  10.237   7.366
  105POPC   C2B 1571   6.685  10.077   6.952
  105POPC   C3B 1572   6.720  10.303   6.606
  105POPC   C4B 1573   6.740   0.037   6.231
  106POPC   NC3 1574   4.845   1.925   7.991
  106POPC   PO4 1575   5.174   2.424   8.081
  106POPC   GL1 1576   4.931   2.298   7.655
  106POPC   GL2 1577   4.948   1.939   7.498
  106POPC   C1A 1578   4.813   2.353   7.224
  106POPC   D2A 1579   4.663   2.256   6.840
  106POPC   C3A 1580   4.856   2.242   6.446
  106POPC   C4A 1581   4.691   2.320   6.018
  106POPC   C1B 1582   4.793   1.831   7.116
  106POPC   C2B 1583   4.970   1.839   6.742
  106POPC   C3B 1584   5.028   1.725   6.361
  106POPC   C4B 1585   5.073   1.996   6.066
  107POPC   NC3 1586  10.211   8.509   8.184
  107POPC   PO4 1587   9.790   9.006   8.045
  107POPC   GL1 1588   9.970   8.794   7.670
  107POPC   GL2 1589  10.097   8.459   7.674
  107POPC   C1A 1590  10.185   8.761   7.275
  107POPC   D2A 1591   9.978   8.831   6.919
  107POPC   C3A 1592  10.231   8.749   6.603
  107POPC   C4A 1593  10.058   8.749   6.227
  107POPC   C1B 1594  10.329   8.284   7.332
  107POPC   C2B 1595  10.430   8.402   6.924
  107POPC   C3B 1596  10.308   8.263   6.523
  107POPC   C4B 1597  10.155   8.238   6.135
  108POPC   NC3 1598   1.944   9.850   7.982
  108POPC   PO4 1599   1.553   9.339   8.222
  108POPC   GL1 1600   1.767   9.413   7.767
  108POPC   GL2 1601   2.009   9.153   7.668
  108POPC   C1A 1602   1.975   9.500   7.319
  108POPC   D2A 1603   1.771   9.446   6.922
  108POPC   C3A 1604   1.893   9.565   6.498
  108POPC   C4A 1605   1.654   9.560   6.145
  108POPC   C1B 1606   2.110   8.976   7.288
  108POPC   C2B 1607   2.142   9.083   6.875
  108POPC   C3B 1608   1.886   9.084   6.550
  108POPC   C4B 1609   1.930   9.140   6.146
  109POPC   NC3 1610   0.845   9.809   7.918
  109POPC   PO4 1611   1.502   9.962   8.004
  109POPC   GL1 1612   1.252   9.991   7.683
  109POPC   GL2 1613   1.305  10.289   7.627
  109POPC   C1A 1614   1.257   9.966   7.248
  109POPC   D2A 1615   1.309   9.750   6.903
  109POPC   C3A 1616   1.030   9.911   6.627
  109POPC   C4A 1617   1.187   9.773   6.273
  109POPC   C1B 1618   1.093  10.467   7.293
  109POPC   C2B 1619   1.040  10.390   6.877
  109POPC   C3B 1620   1.231  10.350   6.452
  109POPC   C4B 1621   1.075   0.028   6.067
  110POPC   NC3 1622   7.863   9.686   8.063
  110POPC   PO4 1623   8.176   9.118   7.919
  110POPC   GL1 1624   8.031   9.385   7.657
  110POPC   GL2 1625   8.287   9.583   7.677
  110POPC   C1A 1626   7.759   9.557   7.365
  110POPC   D2A 1627   7.525   9.515   6.981
  110POPC   C3A 1628   7.753   9.428   6.609
  110POPC   C4A 1629   7.839   9.412   6.220
  110POPC   C1B 1630   8.235   9.728   7.305
  110POPC   C2B 1631   8.114   9.532   6.945
  110POPC   C3B 1632   8.262   9.683   6.552
  110POPC   C4B 1633   8.196   9.813   6.152
  111POPC   NC3 1634   9.257   7.947   8.001
  111POPC   PO4 1635   9.909   8.183   8.041
  111POPC   GL1 1636   9.626   8.129   7.697
  111POPC   GL2 1637   9.627   7.758   7.691
  111POPC   C1A 1638   9.411   8.106   7.283
  111POPC   D2A 1639   9.541   7.958   6.905
  111POPC   C3A 1640   9.370   8.138   6.568
  111POPC   C4A 1641   9.278   7.999   6.177
  111POPC   C1B 1642   9.454   7.591   7.310
  111POPC   C2B 1643   9.335   7.459   6.915
  111POPC   C3B 1644   9.448   7.618   6.524
  111POPC   C4B 1645   9.557   7.449   6.165
  112POPC   NC3 1646   8.740   1.355   8.033
  112POPC   PO4 1647   8.013   1.365   7.803
  112POPC   GL1 1648   8.356   1.416   7.591
  112POPC   GL2 1649   8.637   1.186   7.580
  112POPC   C1A 1650   8.491   1.530   7.206
  112POPC   D2A 1651   8.633   1.396   6.797
  112POPC   C3A 1652   8.483   1.484   6.360
  112POPC   C4A 1653   8.584   1.419   5.936
  112POPC   C1B 1654   8.825   1.119   7.203
  112POPC   C2B 1655   8.719   0.877   6.864
  112POPC   C3B 1656   8.583   0.991   6.512
  112POPC   C4B 1657   8.516   0.968   6.145
  113POPC   NC3 1658   5.207   0.320   8.282
  113POPC   PO4 1659   5.765   0.710   8.132
  113POPC   GL1 1660   5.703   0.658   7.677
  113POPC   GL2 1661   5.809   0.325   7.653
  113POPC   C1A 1662   5.561   0.475   7.230
  113POPC   D2A 1663   5.563   0.629   6.785
  113POPC   C3A 1664   5.527   0.534   6.325
  113POPC   C4A 1665   5.449   0.765   5.932
  113POPC   C1B 1666   6.029   0.557   7.277
  113POPC   C2B 1667   5.989   0.315   6.940
  113POPC   C3B 1668   5.926   0.331   6.556
  113POPC   C4B 1669   6.020   0.701   6.323
  114POPC   NC3 1670   2.032   3.568   8.037
  114POPC   PO4 1671   2.082   2.958   8.280
  114POPC   GL1 1672   2.165   3.162   7.767
  114POPC   GL2 1673   1.966   3.429   7.574
  114POPC   C1A 1674   2.146   3.045   7.315
  114POPC   D2A 1675   1.885   3.104   6.961
  114POPC   C3A 1676   2.146   3.142   6.631
  114POPC   C4A 1677   2.146   3.438   6.347
  114POPC   C1B 1678   1.650   3.419   7.286
  114POPC   C2B 1679   1.590   3.627   6.901
  114POPC   C3B 1680   1.625   3.364   6.554
  114POPC   C4B 1681   1.667   3.177   6.178
  115POPC   NC3 1682   7.792   2.614   8.082
  115POPC   PO4 1683   7.538   2.067   7.879
  115POPC   GL1 1684   7.845   2.374   7.642
  115POPC   GL2 1685   7.966   2.753   7.640
  115POPC   C1A 1686   8.026   2.429   7.248
  115POPC   D2A 1687   7.828   2.617   6.938
  115POPC   C3A 1688   8.046   2.603   6.589
  115POPC   C4A 1689   7.814   2.538   6.234
  115POPC   C1B 1690   8.189   2.933   7.324
  115POPC   C2B 1691   8.089   3.038   6.927
  115POPC   C3B 1692   7.808   3.076   6.613
  115POPC   C4B 1693   8.037   3.023   6.247
  116POPC   NC3 1694   2.964   9.486   8.216
  116POPC   PO4 1695   2.301   9.535   8.041
  116POPC   GL1 1696   2.478   9.362   7.669
  116POPC   GL2 1697   2.774   9.519   7.665
  116POPC   C1A 1698   2.474   9.417   7.217
  116POPC   D2A 1699   2.305   9.603   6.835
  116POPC   C3A 1700   2.342   9.356   6.460
  116POPC   C4A 1701   2.405   9.245   6.046
  116POPC   C1B 1702   2.781   9.820   7.321
  116POPC   C2B 1703   2.946   9.738   6.940
  116POPC   C3B 1704   2.796   9.562   6.620
  116POPC   C4B 1705   2.815   9.508   6.211
  117POPC   NC3 1706   9.261   2.816   7.848
  117POPC   PO4 1707   9.436   2.330   8.258
  117POPC   GL1 1708   9.479   2.349   7.763
  117POPC   GL2 1709   9.225   2.509   7.459
  117POPC   C1A 1710   9.660   2.345   7.325
  117POPC   D2A 1711   9.411   2.480   6.940
  117POPC   C3A 1712   9.544   2.565   6.545
  117POPC   C4A 1713   9.264   2.599   6.191
  117POPC   C1B 1714   9.529   2.844   7.268
  117POPC   C2B 1715   9.367   3.051   6.932
  117POPC   C3B 1716   9.185   2.952   6.568
  117POPC   C4B 1717   9.592   3.060   6.400
  118POPC   NC3 1718   5.607   8.256   8.037
  118POPC   PO4 1719   6.052   8.820   8.099
  118POPC   GL1 1720   5.972   8.547   7.760
  118POPC   GL2 1721   5.633   8.643   7.675
  118POPC   C1A 1722   5.990   8.728   7.336
  118POPC   D2A 1723   5.861   8.888   6.955
  118POPC   C3A 1724   5.911   8.688   6.548
  118POPC   C4A 1725   6.002   8.899   6.171
  118POPC   C1B 1726   5.466   8.697   7.269
  118POPC   C2B 1727   5.491   8.541   6.835
  118POPC   C3B 1728   5.383   8.622   6.412
  118POPC   C4B 1729   5.652   8.511   6.105
  119POPC   NC3 1730   1.182   8.988   8.136
  119POPC   PO4 1731   1.467   8.433   8.026
  119POPC   GL1 1732   1.358   8.518   7.642
  119POPC   GL2 1733   1.125   8.721   7.696
  119POPC   C1A 1734   1.334   8.371   7.248
  119POPC   D2A 1735   1.538   8.383   6.872
  119POPC   C3A 1736   1.260   8.348   6.561
  119POPC   C4A 1737   1.231   8.514   6.224
  119POPC   C1B 1738   1.066   8.913   7.328
  119POPC   C2B 1739   1.155   8.745   6.947
  119POPC   C3B 1740   1.049   8.987   6.634
  119POPC   C4B 1741   0.966   8.934   6.240
  120POPC   NC3 1742   2.747  10.323   8.344
  120POPC   PO4 1743   2.607   0.461   8.202
  120POPC   GL1 1744   2.791   0.401   7.793
  120POPC   GL2 1745   3.007   0.692   7.687
  120POPC   C1A 1746   2.601   0.251   7.399
  120POPC   D2A 1747   2.656   0.053   7.004
  120POPC   C3A 1748   2.764   0.311   6.671
  120POPC   C4A 1749   2.865   0.320   6.257
  120POPC   C1B 1750   2.888   0.661   7.233
  120POPC   C2B 1751   2.625   0.779   6.881
  120POPC   C3B 1752   2.738   0.781   6.471
  120POPC   C4B 1753   2.404   0.551   6.346
  121POPC   NC3 1754   4.016   7.976   8.145
  121POPC   PO4 1755   4.309   7.358   8.057
  121POPC   GL1 1756   4.159   7.413   7.639
  121POPC   GL2 1757   4.031   7.087   7.616
  121POPC   C1A 1758   4.213   7.295   7.180
  121POPC   D2A 1759   4.472   7.406   6.828
  121POPC   C3A 1760   4.369   7.219   6.430
  121POPC   C4A 1761   4.602   6.966   6.120
  121POPC   C1B 1762   3.951   6.847   7.245
  121POPC   C2B 1763   4.091   6.935   6.799
  121POPC   C3B 1764   4.004   6.864   6.346
  121POPC   C4B 1765   4.153   7.114   5.947
  122POPC   NC3 1766   7.934   3.299   8.285
  122POPC   PO4 1767   8.389   3.726   7.982
  122POPC   GL1 1768   8.164   3.608   7.623
  122POPC   GL2 1769   7.906   3.321   7.703
  122POPC   C1A 1770   8.159   3.446   7.250
  122POPC   D2A 1771   7.974   3.517   6.906
  122POPC   C3A 1772   8.196   3.421   6.569
  122POPC   C4A 1773   8.079   3.583   6.206
  122POPC   C1B 1774   7.719   3.164   7.299
  122POPC   C2B 1775   7.492   3.403   6.971
  122POPC   C3B 1776   7.608   3.562   6.535
  122POPC   C4B 1777   7.663   3.334   6.151
  123POPC   NC3 1778   2.488   8.350   8.442
  123POPC   PO4 1779   2.231   7.923   7.974
  123POPC   GL1 1780   2.538   7.798   7.677
  123POPC   GL2 1781   2.865   7.883   7.818
  123POPC   C1A 1782   2.550   7.878   7.248
  123POPC   D2A 1783   2.553   8.135   6.910
  123POPC   C3A 1784   2.586   7.896   6.573
  123POPC   C4A 1785   2.599   8.035   6.182
  123POPC   C1B 1786   3.006   7.783   7.392
  123POPC   C2B 1787   2.989   7.780   6.936
  123POPC   C3B 1788   2.939   7.544   6.527
  123POPC   C4B 1789   2.985   7.689   6.120
  124POPC   NC3 1790   2.391   8.326   7.809
  124POPC   PO4 1791   2.915   8.284   8.263
  124POPC   GL1 1792   2.972   8.372   7.776
  124POPC   GL2 1793   2.895   8.720   7.667
  124POPC   C1A 1794   2.866   8.301   7.312
  124POPC   D2A 1795   2.711   8.623   6.973
  124POPC   C3A 1796   2.681   8.487   6.506
  124POPC   C4A 1797   2.995   8.450   6.170
  124POPC   C1B 1798   2.838   9.032   7.300
  124POPC   C2B 1799   2.648   9.116   6.852
  124POPC   C3B 1800   2.750   9.064   6.433
  124POPC   C4B 1801   2.676   8.835   6.077
  125POPC   NC3 1802   7.802   6.422   8.088
  125POPC   PO4 1803   8.285   6.868   8.160
  125POPC   GL1 1804   8.068   6.713   7.723
  125POPC   GL2 1805   7.987   6.339   7.646
  125POPC   C1A 1806   8.178   6.554   7.256
  125POPC   D2A 1807   8.071   6.333   6.896
  125POPC   C3A 1808   8.004   6.510   6.486
  125POPC   C4A 1809   8.266   6.724   6.197
  125POPC   C1B 1810   7.704   6.382   7.270
  125POPC   C2B 1811   7.574   6.503   6.856
  125POPC   C3B 1812   7.520   6.322   6.443
  125POPC   C4B 1813   7.595   6.444   6.031
  126POPC   NC3 1814   2.612   5.812   7.934
  126POPC   PO4 1815   2.371   5.219   8.090
  126POPC   GL1 1816   2.408   5.286   7.673
  126POPC   GL2 1817   2.714   5.485   7.573
  126POPC   C1A 1818   2.306   5.443   7.279
  126POPC   D2A 1819   2.337   5.674   6.924
  126POPC   C3A 1820   2.589   5.526   6.636
  126POPC   C4A 1821   2.479   5.531   6.254
  126POPC   C1B 1822   2.640   5.868   7.283
  126POPC   C2B 1823   2.708   6.031   6.849
  126POPC   C3B 1824   2.742   5.970   6.412
  126POPC   C4B 1825   2.982   5.662   6.211
  127POPC   NC3 1826   9.326   9.505   8.068
  127POPC   PO4 1827   9.932   9.801   7.998
  127POPC   GL1 1828   9.658   9.614   7.658
  127POPC   GL2 1829   9.273   9.622   7.579
  127POPC   C1A 1830   9.657   9.487   7.222
  127POPC   D2A 1831   9.818   9.329   6.815
  127POPC   C3A 1832   9.847   9.585   6.460
  127POPC   C4A 1833   9.576   9.714   6.135
  127POPC   C1B 1834   9.175   9.323   7.247
  127POPC   C2B 1835   9.299   9.479   6.838
  127POPC   C3B 1836   9.355   9.368   6.429
  127POPC   C4B 1837   9.085   9.248   6.109
  128POPC   NC3 1838   4.683   1.302   7.949
  128POPC   PO4 1839   5.148   0.772   8.066
  128POPC   GL1 1840   5.171   0.883   7.640
  128POPC   GL2 1841   4.876   1.056   7.545
  128POPC   C1A 1842   5.275   0.911   7.197
  128POPC   D2A 1843   5.015   0.896   6.835
  128POPC   C3A 1844   5.126   0.856   6.373
  128POPC   C4A 1845   5.032   1.035   5.927
  128POPC   C1B 1846   5.105   1.395   7.292
  128POPC   C2B 1847   5.222   1.392   6.836
  128POPC   C3B 1848   4.870   1.285   6.545
  128POPC   C4B 1849   4.679   1.361   6.149
  129POPC   NC3 1850   8.827   9.952   8.075
  129POPC   PO4 1851   8.604   0.019   8.036
  129POPC   GL1 1852   8.805  10.297   7.688
  129POPC   GL2 1853   8.552  10.037   7.625
  129POPC   C1A 1854   9.048  10.075   7.358
  129POPC   D2A 1855   9.200  10.002   6.932
  129POPC   C3A 1856   9.058   9.835   6.538
  129POPC   C4A 1857   8.807  10.038   6.261
  129POPC   C1B 1858   8.566  10.094   7.181
  129POPC   C2B 1859   8.728  10.194   6.783
  129POPC   C3B 1860   8.629  10.455   6.446
  129POPC   C4B 1861   8.420  10.253   6.040
  130POPC   NC3 1862   3.421   3.432   8.044
  130POPC   PO4 1863   4.012   3.111   7.965
  130POPC   GL1 1864   3.804   3.361   7.660
  130POPC   GL2 1865   3.422   3.443   7.544
  130POPC   C1A 1866   3.752   3.204   7.256
  130POPC   D2A 1867   3.526   3.016   6.928
  130POPC   C3A 1868   3.474   3.314   6.620
  130POPC   C4A 1869   3.652   3.556   6.316
  130POPC   C1B 1870   3.356   3.496   7.093
  130POPC   C2B 1871   3.158   3.729   6.733
  130POPC   C3B 1872   3.215   3.848   6.319
  130POPC   C4B 1873   3.269   3.549   5.988
  131POPC   NC3 1874   5.203  10.128   8.043
  131POPC   PO4 1875   4.655   9.796   8.043
  131POPC   GL1 1876   4.772  10.118   7.685
  131POPC   GL2 1877   5.089  10.343   7.615
  131POPC   C1A 1878   4.942  10.015   7.232
  131POPC   D2A 1879   5.190   9.854   6.884
  131POPC   C3A 1880   5.084  10.042   6.488
  131POPC   C4A 1881   4.639  10.092   6.334
  131POPC   C1B 1882   5.249  10.407   7.207
  131POPC   C2B 1883   4.961  10.449   6.854
  131POPC   C3B 1884   4.733   0.065   6.478
  131POPC   C4B 1885   4.989  10.386   6.115
  132POPC   NC3 1886   6.445   7.651   8.038
  132POPC   PO4 1887   6.738   8.126   8.317
  132POPC   GL1 1888   6.665   8.036   7.782
  132POPC   GL2 1889   6.688   7.721   7.616
  132POPC   C1A 1890   6.693   8.047   7.248
  132POPC   D2A 1891   6.761   7.731   6.883
  132POPC   C3A 1892   6.717   7.983   6.538
  132POPC   C4A 1893   6.512   8.027   6.147
  132POPC   C1B 1894   6.288   7.766   7.393
  132POPC   C2B 1895   6.270   7.865   6.965
  132POPC   C3B 1896   6.306   7.698   6.551
  132POPC   C4B 1897   6.050   7.863   6.250
  133POPC   NC3 1898   5.447   1.095   8.234
  133POPC   PO4 1899   5.932   1.475   8.019
  133POPC   GL1 1900   5.838   1.412   7.621
  133POPC   GL2 1901   5.583   1.178   7.673
  133POPC   C1A 1902   5.652   1.477   7.221
  133POPC   D2A 1903   5.890   1.578   6.917
  133POPC   C3A 1904   5.707   1.535   6.570
  133POPC   C4A 1905   5.882   1.384   6.208
  133POPC   C1B 1906   5.779   0.996   7.289
  133POPC   C2B 1907   5.677   1.102   6.876
  133POPC   C3B 1908   5.609   1.029   6.445
  133POPC   C4B 1909   5.312   1.307   6.303
  134POPC   NC3 1910   4.641   7.675   7.952
  134POPC   PO4 1911   5.304   7.890   7.996
  134POPC   GL1 1912   5.109   7.951   7.622
  134POPC   GL2 1913   4.793   8.078   7.622
  134POPC   C1A 1914   5.189   7.733   7.245
  134POPC   D2A 1915   4.948   7.600   6.913
  134POPC   C3A 1916   5.154   7.633   6.528
  134POPC   C4A 1917   5.242   7.672   6.099
  134POPC   C1B 1918   4.793   8.072   7.185
  134POPC   C2B 1919   4.644   7.980   6.789
  134POPC   C3B 1920   4.796   7.946   6.385
  134POPC   C4B 1921   4.647   7.979   6.003
  135POPC   NC3 1922   1.030   8.262   8.024
  135POPC   PO4 1923   0.391   8.009   7.873
  135POPC   GL1 1924   0.732   7.989   7.622
  135POPC   GL2 1925   1.099   8.060   7.587
  135POPC   C1A 1926   0.742   7.992   7.220
  135POPC   D2A 1927   0.949   8.194   6.915
  135POPC   C3A 1928   0.811   8.110   6.474
  135POPC   C4A 1929   0.884   8.166   6.054
  135POPC   C1B 1930   1.259   7.850   7.267
  135POPC   C2B 1931   1.346   7.566   6.941
  135POPC   C3B 1932   1.213   7.844   6.648
  135POPC   C4B 1933   1.271   7.882   6.218
  136POPC   NC3 1934   8.646   6.525   8.150
  136POPC   PO4 1935   8.152   6.067   8.183
  136POPC   GL1 1936   8.496   6.132   7.815
  136POPC   GL2 1937   8.488   6.454   7.640
  136POPC   C1A 1938   8.597   6.092   7.337
  136POPC   D2A 1939   8.458   5.962   6.947
  136POPC   C3A 1940   8.412   6.166   6.563
  136POPC   C4A 1941   8.246   6.146   6.168
  136POPC   C1B 1942   8.662   6.636   7.211
  136POPC   C2B 1943   8.472   6.665   6.807
  136POPC   C3B 1944   8.698   6.561   6.449
  136POPC   C4B 1945   8.746   6.248   6.144
  137POPC   NC3 1946   5.604   7.557   7.973
  137POPC   PO4 1947   6.121   7.988   8.027
  137POPC   GL1 1948   5.866   7.972   7.643
  137POPC   GL2 1949   5.574   8.154   7.551
  137POPC   C1A 1950   5.783   7.868   7.181
  137POPC   D2A 1951   5.859   7.570   6.814
  137POPC   C3A 1952   5.648   7.580   6.409
  137POPC   C4A 1953   5.694   7.474   5.952
  137POPC   C1B 1954   5.289   8.229   7.213
  137POPC   C2B 1955   5.159   8.086   6.809
  137POPC   C3B 1956   5.296   8.116   6.380
  137POPC   C4B 1957   5.619   7.998   6.061
  138POPC   NC3 1958   8.406   5.626   8.065
  138POPC   PO4 1959   9.092   5.826   8.063
  138POPC   GL1 1960   8.895   5.785   7.643
  138POPC   GL2 1961   8.595   5.634   7.601
  138POPC   C1A 1962   8.910   5.687   7.187
  138POPC   D2A 1963   9.110   5.855   6.837
  138POPC   C3A 1964   8.837   5.887   6.497
  138POPC   C4A 1965   8.979   5.792   6.094
  138POPC   C1B 1966   8.446   5.489   7.219
  138POPC   C2B 1967   8.602   5.523   6.773
  138POPC   C3B 1968   8.687   5.392   6.371
  138POPC   C4B 1969   8.507   5.680   6.132
  139POPC   NC3 1970   3.976   8.448   7.715
  139POPC   PO4 1971   4.450   8.097   7.992
  139POPC   GL1 1972   4.264   7.945   7.614
  139POPC   GL2 1973   3.897   7.869   7.611
  139POPC   C1A 1974   4.320   7.784   7.183
  139POPC   D2A 1975   4.054   7.680   6.825
  139POPC   C3A 1976   4.310   7.748   6.466
  139POPC   C4A 1977   4.330   7.586   6.076
  139POPC   C1B 1978   3.855   8.031   7.178
  139POPC   C2B 1979   3.682   8.008   6.747
  139POPC   C3B 1980   3.859   8.141   6.362
  139POPC   C4B 1981   3.872   7.755   6.209
  140POPC   NC3 1982   3.242   7.956   8.183
  140POPC   PO4 1983   3.528   8.360   7.770
  140POPC   GL1 1984   3.361   8.133   7.516
  140POPC   GL2 1985   3.386   7.832   7.708
  140POPC   C1A 1986   3.337   8.174   7.087
  140POPC   D2A 1987   3.055   8.298   6.809
  140POPC   C3A 1988   3.073   8.052   6.481
  140POPC   C4A 1989   3.367   8.086   6.175
  140POPC   C1B 1990   3.479   7.711   7.268
  140POPC   C2B 1991   3.452   7.556   6.848
  140POPC   C3B 1992   3.426   7.642   6.405
  140POPC   C4B 1993   3.452   7.614   5.929
  141POPC   NC3 1994   3.508   9.715   8.038
  141POPC   PO4 1995   3.202   9.110   8.123
  141POPC   GL1 1996   3.243   9.347   7.764
  141POPC   GL2 1997   3.546   9.284   7.805
  141POPC   C1A 1998   3.182   9.470   7.316
  141POPC   D2A 1999   3.126   9.240   6.920
  141POPC   C3A 2000   3.245   9.341   6.517
  141POPC   C4A 2001   3.321   9.614   6.186
  141POPC   C1B 2002   3.636   9.260   7.389
  141POPC   C2B 2003   3.634   9.205   6.944
  141POPC   C3B 2004   3.620   8.990   6.558
  141POPC   C4B 2005   3.595   9.174   6.181
  142POPC   NC3 2006   3.495   6.105   8.021
  142POPC   PO4 2007   3.507   6.762   8.077
  142POPC   GL1 2008   3.202   6.637   7.720
  142POPC   GL2 2009   3.309   6.329   7.559
  142POPC   C1A 2010   3.299   6.751   7.253
  142POPC   D2A 2011   3.177   6.756   6.811
  142POPC   C3A 2012   3.471   6.678   6.448
  142POPC   C4A 2013   3.415   6.468   6.027
  142POPC   C1B 2014   3.585   6.342   7.159
  142POPC   C2B 2015   3.681   6.272   6.702
  142POPC   C3B 2016   3.828   6.317   6.272
  142POPC   C4B 2017   3.637   5.998   5.962
  143POPC   NC3 2018   1.957   2.531   8.114
  143POPC   PO4 2019   1.684   3.174   7.936
  143POPC   GL1 2020   1.795   2.806   7.700
  143POPC   GL2 2021   2.137   2.674   7.669
  143POPC   C1A 2022   1.767   2.661   7.276
  143POPC   D2A 2023   1.541   2.724   6.898
  143POPC   C3A 2024   1.758   2.814   6.529
  143POPC   C4A 2025   1.636   2.598   6.174
  143POPC   C1B 2026   2.280   2.550   7.287
  143POPC   C2B 2027   2.126   2.664   6.870
  143POPC   C3B 2028   2.285   2.689   6.436
  143POPC   C4B 2029   2.119   2.976   6.131
  144POPC   NC3 2030   2.498   3.053   8.108
  144POPC   PO4 2031   2.401   3.706   8.292
  144POPC   GL1 2032   2.527   3.541   7.848
  144POPC   GL2 2033   2.840   3.313   7.766
  144POPC   C1A 2034   2.429   3.538   7.395
  144POPC   D2A 2035   2.460   3.320   6.996
  144POPC   C3A 2036   2.578   3.558   6.631
  144POPC   C4A 2037   2.497   3.796   6.260
  144POPC   C1B 2038   2.916   3.409   7.312
  144POPC   C2B 2039   2.966   3.281   6.863
  144POPC   C3B 2040   2.990   3.369   6.392
  144POPC   C4B 2041   2.908   3.193   5.931
  145POPC   NC3 2042   0.793   2.673   8.137
  145POPC   PO4 2043   0.162   2.574   8.151
  145POPC   GL1 2044   0.334   2.901   7.828
  145POPC   GL2 2045   0.412   2.600   7.703
  145POPC   C1A 2046   0.483   3.120   7.403
  145POPC   D2A 2047   0.664   2.988   7.004
  145POPC   C3A 2048   0.544   3.077   6.583
  145POPC   C4A 2049   0.354   2.988   6.179
  145POPC   C1B 2050   0.538   2.599   7.293
  145POPC   C2B 2051   0.641   2.485   6.879
  145POPC   C3B 2052   0.490   2.564   6.475
  145POPC   C4B 2053   0.630   2.399   6.114
  146POPC   NC3 2054   7.858   8.819   8.113
  146POPC   PO4 2055   8.469   8.786   8.294
  146POPC   GL1 2056   8.295   8.642   7.811
  146POPC   GL2 2057   7.923   8.597   7.682
  146POPC   C1A 2058   8.248   8.441   7.355
  146POPC   D2A 2059   8.140   8.680   6.954
  146POPC   C3A 2060   8.166   8.539   6.542
  146POPC   C4A 2061   8.182   8.800   6.186
  146POPC   C1B 2062   7.947   8.923   7.362
  146POPC   C2B 2063   7.841   9.088   6.971
  146POPC   C3B 2064   7.801   8.910   6.544
  146POPC   C4B 2065   7.727   8.601   6.191
  147POPC   NC3 2066   1.212   9.782   8.308
  147POPC   PO4 2067   0.875   9.337   8.058
  147POPC   GL1 2068   1.255   9.504   7.828
  147POPC   GL2 2069   1.234   9.227   7.679
  147POPC   C1A 2070   1.474   9.513   7.364
  147POPC   D2A 2071   1.294   9.255   7.010
  147POPC   C3A 2072   1.402   9.352   6.565
  147POPC   C4A 2073   1.415   9.119   6.183
  147POPC   C1B 2074   0.984   9.507   7.363
  147POPC   C2B 2075   0.818   9.589   6.960
  147POPC   C3B 2076   0.855   9.435   6.545
  147POPC   C4B 2077   0.861   9.410   6.121
  148POPC   NC3 2078   9.628   4.406   8.022
  148POPC   PO4 2079   9.518   5.033   8.215
  148POPC   GL1 2080   9.496   4.835   7.782
  148POPC   GL2 2081   9.225   4.605   7.727
  148POPC   C1A 2082   9.777   4.750   7.399
  148POPC   D2A 2083   9.668   4.629   6.982
  148POPC   C3A 2084   9.707   4.936   6.654
  148POPC   C4A 2085   9.790   4.845   6.251
  148POPC   C1B 2086   9.272   4.824   7.323
  148POPC   C2B 2087   9.166   4.826   6.899
  148POPC   C3B 2088   9.226   4.977   6.503
  148POPC   C4B 2089   9.305   4.782   6.129
  149POPC   NC3 2090   0.903   1.369   7.801
  149POPC   PO4 2091   1.503   1.379   7.986
  149POPC   GL1 2092   1.290   1.088   7.595
  149POPC   GL2 2093   0.890   0.968   7.497
  149POPC   C1A 2094   1.259   0.899   7.172
  149POPC   D2A 2095   1.099   1.023   6.760
  149POPC   C3A 2096   1.393   0.896   6.413
  149POPC   C4A 2097   1.489   1.226   6.101
  149POPC   C1B 2098   0.769   1.248   7.164
  149POPC   C2B 2099   0.641   1.419   6.785
  149POPC   C3B 2100   0.877   1.399   6.436
  149POPC   C4B 2101   0.924   1.025   6.244
  150POPC   NC3 2102   7.870   7.152   8.212
  150POPC   PO4 2103   8.145   7.670   7.955
  150POPC   GL1 2104   7.926   7.500   7.617
  150POPC   GL2 2105   7.794   7.157   7.692
  150POPC   C1A 2106   8.007   7.426   7.205
  150POPC   D2A 2107   7.873   7.514   6.818
  150POPC   C3A 2108   8.016   7.532   6.399
  150POPC   C4A 2109   7.806   7.683   6.045
  150POPC   C1B 2110   7.831   6.930   7.303
  150POPC   C2B 2111   7.972   6.843   6.900
  150POPC   C3B 2112   7.997   7.034   6.521
  150POPC   C4B 2113   7.711   6.907   6.217
  151POPC   NC3 2114   5.839   9.984   8.135
  151POPC   PO4 2115   5.463   0.021   8.005
  151POPC   GL1 2116   5.625  10.329   7.639
  151POPC   GL2 2117   5.735   9.978   7.651
  151POPC   C1A 2118   5.753  10.468   7.226
  151POPC   D2A 2119   5.503   0.129   6.838
  151POPC   C3A 2120   5.421   0.046   6.410
  151POPC   C4A 2121   5.804   0.050   6.164
  151POPC   C1B 2122   5.492   9.965   7.299
  151POPC   C2B 2123   5.628  10.114   6.886
  151POPC   C3B 2124   5.634  10.103   6.458
  151POPC   C4B 2125   5.515   9.805   6.187
  152POPC   NC3 2126   6.286   2.549   8.082
  152POPC   PO4 2127   6.941   2.475   8.229
  152POPC   GL1 2128   6.770   2.632   7.792
  152POPC   GL2 2129   6.397   2.672   7.618
  152POPC   C1A 2130   6.737   2.440   7.370
  152POPC   D2A 2131   6.447   2.592   7.060
  152POPC   C3A 2132   6.589   2.617   6.658
  152POPC   C4A 2133   6.779   2.484   6.266
  152POPC   C1B 2134   6.073   2.805   7.324
  152POPC   C2B 2135   6.015   2.844   6.856
  152POPC   C3B 2136   6.186   2.783   6.428
  152POPC   C4B 2137   6.291   2.339   6.328
  153POPC   NC3 2138  10.195   5.996   8.028
  153POPC   PO4 2139   0.054   6.555   8.201
  153POPC   GL1 2140  10.287   6.497   7.784
  153POPC   GL2 2141   9.923   6.341   7.743
  153POPC   C1A 2142  10.280   6.257   7.375
  153POPC   D2A 2143   0.027   6.172   7.015
  153POPC   C3A 2144  10.352   6.196   6.613
  153POPC   C4A 2145  10.466   6.365   6.216
  153POPC   C1B 2146   9.847   6.514   7.299
  153POPC   C2B 2147  10.126   6.551   6.928
  153POPC   C3B 2148  10.122   6.645   6.481
  153POPC   C4B 2149   9.986   6.623   6.022
  154POPC   NC3 2150   8.180   4.966   8.014
  154POPC   PO4 2151   7.723   4.471   7.987
  154POPC   GL1 2152   7.855   4.645   7.606
  154POPC   GL2 2153   8.190   4.651   7.599
  154POPC   C1A 2154   7.801   4.656   7.157
  154POPC   D2A 2155   7.850   4.844   6.753
  154POPC   C3A 2156   7.520   4.881   6.460
  154POPC   C4A 2157   7.475   5.038   6.036
  154POPC   C1B 2158   8.120   5.037   7.313
  154POPC   C2B 2159   8.170   5.230   6.893
  154POPC   C3B 2160   8.281   5.114   6.523
  154POPC   C4B 2161   8.019   4.924   6.281
  155POPC   NC3 2162   6.319   8.378   8.203
  155POPC   PO4 2163   6.720   8.856   7.939
  155POPC   GL1 2164   6.435   8.811   7.612
  155POPC   GL2 2165   6.496   8.480   7.628
  155POPC   C1A 2166   6.466   8.737   7.144
  155POPC   D2A 2167   6.337   8.917   6.741
  155POPC   C3A 2168   6.482   8.870   6.304
  155POPC   C4A 2169   6.406   8.941   5.848
  155POPC   C1B 2170   6.217   8.274   7.354
  155POPC   C2B 2171   6.128   8.391   6.921
  155POPC   C3B 2172   6.376   8.406   6.525
  155POPC   C4B 2173   6.778   8.455   6.295
  156POPC   NC3 2174   9.217   0.903   8.309
  156POPC   PO4 2175   9.273   1.444   8.070
  156POPC   GL1 2176   9.261   1.334   7.659
  156POPC   GL2 2177   9.635   1.322   7.670
  156POPC   C1A 2178   9.321   1.120   7.260
  156POPC   D2A 2179   9.216   0.880   6.931
  156POPC   C3A 2180   9.099   1.260   6.694
  156POPC   C4A 2181   8.972   1.296   6.253
  156POPC   C1B 2182   9.800   1.250   7.238
  156POPC   C2B 2183   9.599   1.196   6.827
  156POPC   C3B 2184   9.493   1.132   6.383
  156POPC   C4B 2185   9.675   1.059   5.981
  157POPC   NC3 2186   1.813   4.350   8.124
  157POPC   PO4 2187   2.198   3.967   7.868
  157POPC   GL1 2188   1.867   4.052   7.631
  157POPC   GL2 2189   1.831   4.425   7.636
  157POPC   C1A 2190   1.908   3.871   7.241
  157POPC   D2A 2191   2.184   3.770   6.919
  157POPC   C3A 2192   1.939   3.835   6.572
  157POPC   C4A 2193   2.011   3.935   6.188
  157POPC   C1B 2194   2.045   4.376   7.247
  157POPC   C2B 2195   1.862   4.243   6.865
  157POPC   C3B 2196   1.870   4.372   6.437
  157POPC   C4B 2197   1.966   4.384   5.960
  158POPC   NC3 2198   4.021   1.831   8.042
  158POPC   PO4 2199   4.569   1.689   7.726
  158POPC   GL1 2200   4.437   2.008   7.476
  158POPC   GL2 2201   4.107   2.026   7.573
  158POPC   C1A 2202   4.254   1.988   7.068
  158POPC   D2A 2203   4.156   2.298   6.790
  158POPC   C3A 2204   4.353   2.241   6.431
  158POPC   C4A 2205   4.543   1.850   6.312
  158POPC   C1B 2206   3.978   1.650   7.363
  158POPC   C2B 2207   4.053   1.389   6.991
  158POPC   C3B 2208   4.204   1.588   6.623
  158POPC   C4B 2209   3.998   1.867   6.364
  159POPC   NC3 2210   2.827   2.794   8.532
  159POPC   PO4 2211   2.430   2.575   8.078
  159POPC   GL1 2212   2.631   2.778   7.726
  159POPC   GL2 2213   2.964   2.720   7.728
  159POPC   C1A 2214   2.667   2.979   7.357
  159POPC   D2A 2215   2.572   2.815   6.985
  159POPC   C3A 2216   2.685   2.942   6.637
  159POPC   C4A 2217   2.563   3.124   6.303
  159POPC   C1B 2218   2.813   2.475   7.367
  159POPC   C2B 2219   2.810   2.330   6.978
  159POPC   C3B 2220   2.950   2.454   6.614
  159POPC   C4B 2221   2.790   2.631   6.248
  160POPC   NC3 2222   7.424   3.511   7.971
  160POPC   PO4 2223   6.845   3.467   8.308
  160POPC   GL1 2224   6.989   3.323   7.755
  160POPC   GL2 2225   7.328   3.398   7.517
  160POPC   C1A 2226   6.935   3.530   7.244
  160POPC   D2A 2227   7.060   3.621   6.776
  160POPC   C3A 2228   6.749   3.663   6.413
  160POPC   C4A 2229   6.874   3.700   5.951
  160POPC   C1B 2230   7.162   3.075   7.318
  160POPC   C2B 2231   7.068   3.124   6.910
  160POPC   C3B 2232   7.299   3.164   6.543
  160POPC   C4B 2233   7.178   3.449   6.264
  161POPC   NC3 2234   6.580   3.638   7.987
  161POPC   PO4 2235   6.457   2.986   8.060
  161POPC   GL1 2236   6.527   3.152   7.648
  161POPC   GL2 2237   6.502   3.477   7.505
  161POPC   C1A 2238   6.655   3.049   7.222
  161POPC   D2A 2239   6.612   3.348   6.867
  161POPC   C3A 2240   6.505   3.191   6.464
  161POPC   C4A 2241   6.480   3.381   6.070
  161POPC   C1B 2242   6.202   3.280   7.182
  161POPC   C2B 2243   6.095   3.334   6.731
  161POPC   C3B 2244   6.062   3.557   6.330
  161POPC   C4B 2245   5.907   3.970   6.101
  162POPC   NC3 2246   3.454   2.173   8.116
  162POPC   PO4 2247   2.918   1.980   8.100
  162POPC   GL1 2248   3.230   1.839   7.753
  162POPC   GL2 2249   3.593   1.987   7.663
  162POPC   C1A 2250   3.196   1.984   7.300
  162POPC   D2A 2251   3.214   2.036   6.837
  162POPC   C3A 2252   3.170   1.658   6.636
  162POPC   C4A 2253   3.036   1.632   6.221
  162POPC   C1B 2254   3.729   2.138   7.228
  162POPC   C2B 2255   3.717   2.051   6.769
  162POPC   C3B 2256   3.496   1.960   6.381
  162POPC   C4B 2257   3.681   2.231   6.087
  163POPC   NC3 2258   3.907   7.013   8.105
  163POPC   PO4 2259   3.452   7.538   8.159
  163POPC   GL1 2260   3.608   7.374   7.720
  163POPC   GL2 2261   3.510   7.037   7.634
  163POPC   C1A 2262   3.713   7.284   7.255
  163POPC   D2A 2263   3.596   7.057   6.896
  163POPC   C3A 2264   3.800   7.294   6.565
  163POPC   C4A 2265   3.733   7.271   6.156
  163POPC   C1B 2266   3.210   7.256   7.337
  163POPC   C2B 2267   3.057   7.233   6.913
  163POPC   C3B 2268   3.280   7.163   6.489
  163POPC   C4B 2269   3.325   7.001   6.057
  164POPC   NC3 2270   1.911   5.112   8.144
  164POPC   PO4 2271   1.431   4.634   8.007
  164POPC   GL1 2272   1.596   4.909   7.707
  164POPC   GL2 2273   1.981   4.922   7.685
  164POPC   C1A 2274   1.698   4.764   7.283
  164POPC   D2A 2275   1.955   4.771   6.893
  164POPC   C3A 2276   1.768   4.936   6.535
  164POPC   C4A 2277   1.623   4.733   6.172
  164POPC   C1B 2278   2.223   4.934   7.297
  164POPC   C2B 2279   2.373   5.109   6.891
  164POPC   C3B 2280   2.243   5.133   6.470
  164POPC   C4B 2281   2.148   4.758   6.245
  165POPC   NC3 2282   6.914   8.431   7.989
  165POPC   PO4 2283   7.392   8.878   8.096
  165POPC   GL1 2284   7.201   8.782   7.697
  165POPC   GL2 2285   7.445   8.641   7.493
  165POPC   C1A 2286   6.960   8.798   7.316
  165POPC   D2A 2287   6.900   8.524   6.954
  165POPC   C3A 2288   6.852   8.805   6.653
  165POPC   C4A 2289   6.986   8.946   6.282
  165POPC   C1B 2290   7.751   8.463   7.194
  165POPC   C2B 2291   7.664   8.455   6.752
  165POPC   C3B 2292   7.336   8.644   6.513
  165POPC   C4B 2293   7.232   8.536   6.083
  166POPC   NC3 2294   3.098   0.501   8.198
  166POPC   PO4 2295   3.649   0.837   8.368
  166POPC   GL1 2296   3.477   0.621   7.885
  166POPC   GL2 2297   3.391   0.259   7.818
  166POPC   C1A 2298   3.566   0.528   7.414
  166POPC   D2A 2299   3.363   0.688   7.019
  166POPC   C3A 2300   3.394   0.512   6.599
  166POPC   C4A 2301   3.230   0.641   6.227
  166POPC   C1B 2302   3.135   0.261   7.432
  166POPC   C2B 2303   3.163   0.213   6.964
  166POPC   C3B 2304   3.199   0.019   6.518
  166POPC   C4B 2305   3.445   0.150   6.138
  167POPC   NC3 2306   3.803   8.943   8.265
  167POPC   PO4 2307   4.134   9.018   7.763
  167POPC   GL1 2308   4.313   8.759   7.498
  167POPC   GL2 2309   4.456   8.460   7.639
  167POPC   C1A 2310   4.248   8.751   7.094
  167POPC   D2A 2311   4.058   8.932   6.806
  167POPC   C3A 2312   3.999   8.646   6.476
  167POPC   C4A 2313   3.998   8.894   6.111
  167POPC   C1B 2314   4.325   8.276   7.221
  167POPC   C2B 2315   4.181   8.192   6.801
  167POPC   C3B 2316   4.382   8.254   6.428
  167POPC   C4B 2317   4.367   8.502   6.119
  168POPC   NC3 2318   9.880   2.418   8.155
  168POPC   PO4 2319  10.198   1.830   8.081
  168POPC   GL1 2320  10.476   1.896   7.737
  168POPC   GL2 2321  10.213   2.097   7.616
  168POPC   C1A 2322  10.486   1.818   7.295
  168POPC   D2A 2323  10.315   2.022   6.945
  168POPC   C3A 2324  10.441   1.837   6.595
  168POPC   C4A 2325  10.330   1.730   6.223
  168POPC   C1B 2326   9.949   1.929   7.294
  168POPC   C2B 2327   9.813   2.141   6.875
  168POPC   C3B 2328  10.000   2.073   6.475
  168POPC   C4B 2329  10.205   2.306   6.142
  169POPC   NC3 2330   1.315   7.297   8.141
  169POPC   PO4 2331   0.849   7.819   8.106
  169POPC   GL1 2332   0.985   7.553   7.666
  169POPC   GL2 2333   1.339   7.484   7.653
  169POPC   C1A 2334   0.891   7.512   7.157
  169POPC   D2A 2335   0.871   7.391   6.710
  169POPC   C3A 2336   1.209   7.388   6.449
  169POPC   C4A 2337   1.124   7.409   6.031
  169POPC   C1B 2338   1.201   7.185   7.362
  169POPC   C2B 2339   1.212   7.080   6.935
  169POPC   C3B 2340   1.017   6.903   6.594
  169POPC   C4B 2341   1.178   6.950   6.200
  170POPC   NC3 2342  10.359   3.020   8.050
  170POPC   PO4 2343   9.714   2.794   7.919
  170POPC   GL1 2344  10.036   2.590   7.661
  170POPC   GL2 2345  10.386   2.577   7.729
  170POPC   C1A 2346  10.157   2.456   7.240
  170POPC   D2A 2347   9.902   2.640   6.935
  170POPC   C3A 2348  10.064   2.601   6.542
  170POPC   C4A 2349   9.867   2.709   6.158
  170POPC   C1B 2350   0.035   2.799   7.368
  170POPC   C2B 2351  10.360   2.868   6.956
  170POPC   C3B 2352   0.047   2.826   6.573
  170POPC   C4B 2353  10.355   2.874   6.185
  171POPC   NC3 2354  10.071   9.374   7.974
  171POPC   PO4 2355   0.005   8.853   7.969
  171POPC   GL1 2356  10.334   9.155   7.615
  171POPC   GL2 2357  10.401   9.573   7.659
  171POPC   C1A 2358  10.097   9.247   7.247
  171POPC   D2A 2359  10.324   9.231   6.862
  171POPC   C3A 2360  10.171   9.202   6.440
  171POPC   C4A 2361   0.048   9.055   6.235
  171POPC   C1B 2362  10.416   9.632   7.240
  171POPC   C2B 2363  10.164   9.709   6.918
  171POPC   C3B 2364  10.382   9.654   6.550
  171POPC   C4B 2365  10.342   9.557   6.127
  172POPC   NC3 2366   0.001   6.965   7.983
  172POPC   PO4 2367   9.868   7.277   8.114
  172POPC   GL1 2368  10.056   7.130   7.733
  172POPC   GL2 2369  10.260   7.388   7.605
  172POPC   C1A 2370  10.162   6.961   7.306
  172POPC   D2A 2371   9.999   7.062   6.892
  172POPC   C3A 2372  10.330   7.102   6.586
  172POPC   C4A 2373  10.338   7.000   6.192
  172POPC   C1B 2374   9.947   7.459   7.333
  172POPC   C2B 2375   9.878   7.584   6.928
  172POPC   C3B 2376   9.942   7.445   6.526
  172POPC   C4B 2377  10.073   7.427   6.125
  173POPC   NC3 2378   8.519   2.290   8.053
  173POPC   PO4 2379   8.157   2.917   8.100
  173POPC   GL1 2380   8.495   2.796   7.741
  173POPC   GL2 2381   8.446   2.490   7.521
  173POPC   C1A 2382   8.694   2.877   7.302
  173POPC   D2A 2383   8.465   2.700   6.913
  173POPC   C3A 2384   8.456   2.923   6.509
  173POPC   C4A 2385   8.797   2.921   6.191
  173POPC   C1B 2386   8.774   2.359   7.143
  173POPC   C2B 2387   8.963   2.313   6.745
  173POPC   C3B 2388   8.716   2.494   6.452
  173POPC   C4B 2389   8.353   2.471   6.193
  174POPC   NC3 2390   6.390   0.664   4.019
  174POPC   PO4 2391   6.827   0.170   3.971
  174POPC   GL1 2392   6.611   0.343   4.319
  174POPC   GL2 2393   6.275   0.224   4.274
  174POPC   C1A 2394   6.719   0.574   4.681
  174POPC   D2A 2395   6.658   0.311   5.027
  174POPC   C3A 2396   6.569   0.473   5.400
  174POPC   C4A 2397   6.612   0.208   5.760
  174POPC   C1B 2398   6.233   0.426   4.678
  174POPC   C2B 2399   6.122   0.292   5.098
  174POPC   C3B 2400   6.122   0.304   5.531
  174POPC   C4B 2401   6.321   0.645   5.838
  175POPC   NC3 2402   5.626   2.165   3.944
  175POPC   PO4 2403   6.084   1.571   3.927
  175POPC   GL1 2404   6.075   1.712   4.349
  175POPC   GL2 2405   5.727   1.828   4.333
  175POPC   C1A 2406   5.929   1.732   4.799
  175POPC   D2A 2407   5.629   1.836   5.117
  175POPC   C3A 2408   5.820   1.977   5.484
  175POPC   C4A 2409   5.874   1.696   5.806
  175POPC   C1B 2410   5.609   2.115   4.675
  175POPC   C2B 2411   5.274   2.173   4.988
  175POPC   C3B 2412   5.338   2.261   5.391
  175POPC   C4B 2413   5.298   2.345   5.810
  176POPC   NC3 2414   0.033   9.550   4.045
  176POPC   PO4 2415   0.583   9.880   3.751
  176POPC   GL1 2416   0.615   9.607   4.129
  176POPC   GL2 2417   0.447   9.276   4.160
  176POPC   C1A 2418   0.746   9.603   4.558
  176POPC   D2A 2419   0.886   9.615   4.976
  176POPC   C3A 2420   0.647   9.385   5.231
  176POPC   C4A 2421   0.637   9.393   5.658
  176POPC   C1B 2422   0.241   9.222   4.586
  176POPC   C2B 2423   0.156   9.361   5.000
  176POPC   C3B 2424   0.201   9.217   5.399
  176POPC   C4B 2425   0.145   9.353   5.795
  177POPC   NC3 2426   3.535   0.985   3.751
  177POPC   PO4 2427   3.401   0.343   3.975
  177POPC   GL1 2428   3.445   0.424   4.364
  177POPC   GL2 2429   3.636   0.151   4.406
  177POPC   C1A 2430   3.470   0.511   4.788
  177POPC   D2A 2431   3.699   0.575   5.126
  177POPC   C3A 2432   3.621   0.807   5.469
  177POPC   C4A 2433   3.570   0.564   5.850
  177POPC   C1B 2434   3.288   0.043   4.672
  177POPC   C2B 2435   3.155   0.209   5.062
  177POPC   C3B 2436   3.262   0.439   5.406
  177POPC   C4B 2437   3.114   0.375   5.799
  178POPC   NC3 2438   3.033   4.322   4.023
  178POPC   PO4 2439   2.420   4.460   3.882
  178POPC   GL1 2440   2.416   4.357   4.284
  178POPC   GL2 2441   2.621   4.076   4.239
  178POPC   C1A 2442   2.606   4.335   4.687
  178POPC   D2A 2443   2.478   4.178   5.070
  178POPC   C3A 2444   2.605   4.378   5.464
  178POPC   C4A 2445   2.973   4.492   5.721
  178POPC   C1B 2446   2.967   3.988   4.583
  178POPC   C2B 2447   2.952   3.957   5.024
  178POPC   C3B 2448   3.159   4.083   5.413
  178POPC   C4B 2449   3.243   4.038   5.840
  179POPC   NC3 2450   9.490   8.090   3.596
  179POPC   PO4 2451   8.880   8.028   3.890
  179POPC   GL1 2452   9.113   8.103   4.288
  179POPC   GL2 2453   9.445   7.982   4.353
  179POPC   C1A 2454   9.137   7.932   4.725
  179POPC   D2A 2455   9.441   7.977   5.059
  179POPC   C3A 2456   9.209   7.869   5.405
  179POPC   C4A 2457   9.457   7.930   5.727
  179POPC   C1B 2458   9.602   7.657   4.611
  179POPC   C2B 2459   9.811   7.601   4.984
  179POPC   C3B 2460   9.812   7.723   5.388
  179POPC   C4B 2461   9.798   7.507   5.718
  180POPC   NC3 2462   9.418   6.492   3.870
  180POPC   PO4 2463   9.909   6.958   3.981
  180POPC   GL1 2464   9.761   6.674   4.325
  180POPC   GL2 2465   9.395   6.585   4.376
  180POPC   C1A 2466   9.702   6.609   4.764
  180POPC   D2A 2467   9.670   6.351   5.156
  180POPC   C3A 2468   9.687   6.588   5.572
  180POPC   C4A 2469   9.475   6.617   6.016
  180POPC   C1B 2470   9.318   6.290   4.776
  180POPC   C2B 2471   9.161   6.234   5.174
  180POPC   C3B 2472   9.211   6.395   5.553
  180POPC   C4B 2473   9.205   6.198   5.926
  181POPC   NC3 2474   3.205   7.225   4.065
  181POPC   PO4 2475   3.816   7.425   3.963
  181POPC   GL1 2476   3.625   7.395   4.417
  181POPC   GL2 2477   3.240   7.442   4.523
  181POPC   C1A 2478   3.615   7.413   4.894
  181POPC   D2A 2479   3.404   7.266   5.277
  181POPC   C3A 2480   3.613   7.167   5.654
  181POPC   C4A 2481   3.758   6.805   5.899
  181POPC   C1B 2482   3.112   7.025   4.749
  181POPC   C2B 2483   3.147   6.822   5.173
  181POPC   C3B 2484   3.058   7.009   5.580
  181POPC   C4B 2485   3.066   7.442   5.672
  182POPC   NC3 2486   9.654   9.998   3.925
  182POPC   PO4 2487   9.117   9.829   4.234
  182POPC   GL1 2488   9.138  10.112   4.532
  182POPC   GL2 2489   9.392  10.256   4.288
  182POPC   C1A 2490   9.164   9.917   4.960
  182POPC   D2A 2491   9.484   9.898   5.265
  182POPC   C3A 2492   9.457   9.970   5.708
  182POPC   C4A 2493   9.292  10.130   6.125
  182POPC   C1B 2494   9.647  10.383   4.609
  182POPC   C2B 2495   9.516  10.372   5.005
  182POPC   C3B 2496   9.634  10.375   5.402
  182POPC   C4B 2497   9.424  10.462   5.782
  183POPC   NC3 2498   9.625   2.720   3.877
  183POPC   PO4 2499   9.701   2.273   4.329
  183POPC   GL1 2500   9.412   2.616   4.328
  183POPC   GL2 2501   9.211   2.895   4.134
  183POPC   C1A 2502   9.538   2.811   4.696
  183POPC   D2A 2503   9.542   2.546   5.034
  183POPC   C3A 2504   9.410   2.721   5.382
  183POPC   C4A 2505   9.555   2.577   5.767
  183POPC   C1B 2506   9.058   2.925   4.540
  183POPC   C2B 2507   9.122   2.969   4.968
  183POPC   C3B 2508   9.005   3.059   5.364
  183POPC   C4B 2509   9.113   2.861   5.770
  184POPC   NC3 2510   8.827   7.610   4.078
  184POPC   PO4 2511   8.353   8.093   4.188
  184POPC   GL1 2512   8.641   8.183   4.458
  184POPC   GL2 2513   8.696   7.836   4.494
  184POPC   C1A 2514   8.698   8.155   4.876
  184POPC   D2A 2515   8.537   7.929   5.221
  184POPC   C3A 2516   8.548   8.134   5.599
  184POPC   C4A 2517   8.948   8.160   5.775
  184POPC   C1B 2518   8.743   7.609   4.853
  184POPC   C2B 2519   8.501   7.418   5.138
  184POPC   C3B 2520   8.466   7.446   5.574
  184POPC   C4B 2521   8.786   7.692   5.731
  185POPC   NC3 2522   4.673   0.573   3.813
  185POPC   PO4 2523   5.311   0.182   3.926
  185POPC   GL1 2524   5.106   0.397   4.305
  185POPC   GL2 2525   4.777   0.378   4.256
  185POPC   C1A 2526   5.289   0.668   4.675
  185POPC   D2A 2527   5.138   0.808   5.066
  185POPC   C3A 2528   5.064   0.465   5.324
  185POPC   C4A 2529   5.005   0.515   5.745
  185POPC   C1B 2530   4.726   0.383   4.669
  185POPC   C2B 2531   4.615   0.328   5.075
  185POPC   C3B 2532   4.658   0.163   5.501
  185POPC   C4B 2533   4.648   0.192   5.949
  186POPC   NC3 2534   5.727  10.457   3.915
  186POPC   PO4 2535   5.388  10.047   3.598
  186POPC   GL1 2536   5.418  10.223   4.191
  186POPC   GL2 2537   5.765  10.193   4.362
  186POPC   C1A 2538   5.350  10.185   4.656
  186POPC   D2A 2539   5.391  10.125   5.122
  186POPC   C3A 2540   5.298  10.327   5.533
  186POPC   C4A 2541   5.433  10.239   5.973
  186POPC   C1B 2542   5.816  10.277   4.826
  186POPC   C2B 2543   5.839  10.395   5.253
  186POPC   C3B 2544   5.787  10.377   5.659
  186POPC   C4B 2545   5.912  10.098   6.023
  187POPC   NC3 2546  10.392   7.968   4.010
  187POPC   PO4 2547   9.871   8.153   3.856
  187POPC   GL1 2548   9.944   8.064   4.269
  187POPC   GL2 2549  10.000   7.719   4.291
  187POPC   C1A 2550   9.808   8.123   4.676
  187POPC   D2A 2551  10.034   8.058   4.994
  187POPC   C3A 2552   9.868   8.204   5.302
  187POPC   C4A 2553   9.865   8.234   5.727
  187POPC   C1B 2554  10.311   7.774   4.629
  187POPC   C2B 2555  10.494   7.827   5.030
  187POPC   C3B 2556  10.309   7.927   5.410
  187POPC   C4B 2557  10.194   7.817   5.801
  188POPC   NC3 2558   2.826   1.615   3.993
  188POPC   PO4 2559   2.748   0.945   3.876
  188POPC   GL1 2560   2.597   1.206   4.165
  188POPC   GL2 2561   2.968   1.210   4.288
  188POPC   C1A 2562   2.547   1.233   4.582
  188POPC   D2A 2563   2.717   0.985   4.900
  188POPC   C3A 2564   2.396   0.853   5.197
  188POPC   C4A 2565   2.347   0.986   5.617
  188POPC   C1B 2566   3.066   1.443   4.654
  188POPC   C2B 2567   2.929   1.439   5.070
  188POPC   C3B 2568   2.726   1.209   5.368
  188POPC   C4B 2569   2.796   1.257   5.798
  189POPC   NC3 2570   5.647   8.836   3.877
  189POPC   PO4 2571   6.149   8.308   3.880
  189POPC   GL1 2572   5.859   8.372   4.243
  189POPC   GL2 2573   5.767   8.697   4.338
  189POPC   C1A 2574   5.851   8.378   4.707
  189POPC   D2A 2575   6.019   8.513   5.095
  189POPC   C3A 2576   5.842   8.218   5.343
  189POPC   C4A 2577   5.571   8.283   5.654
  189POPC   C1B 2578   5.630   8.970   4.669
  189POPC   C2B 2579   5.763   9.009   5.075
  189POPC   C3B 2580   5.608   8.851   5.450
  189POPC   C4B 2581   5.608   8.985   5.862
  190POPC   NC3 2582   7.373   1.216   3.909
  190POPC   PO4 2583   6.788   0.860   3.919
  190POPC   GL1 2584   7.063   0.953   4.244
  190POPC   GL2 2585   7.089   1.289   4.312
  190POPC   C1A 2586   7.037   0.974   4.705
  190POPC   D2A 2587   7.046   1.129   5.127
  190POPC   C3A 2588   6.878   0.866   5.456
  190POPC   C4A 2589   7.089   0.819   5.881
  190POPC   C1B 2590   7.270   1.431   4.697
  190POPC   C2B 2591   7.083   1.643   4.991
  190POPC   C3B 2592   7.061   1.637   5.383
  190POPC   C4B 2593   7.092   1.277   5.633
  191POPC   NC3 2594   5.848   7.943   3.955
  191POPC   PO4 2595   5.217   8.074   3.958
  191POPC   GL1 2596   5.458   8.077   4.340
  191POPC   GL2 2597   5.783   7.891   4.444
  191POPC   C1A 2598   5.384   8.040   4.763
  191POPC   D2A 2599   5.115   8.218   5.035
  191POPC   C3A 2600   5.154   8.015   5.389
  191POPC   C4A 2601   5.417   7.767   5.631
  191POPC   C1B 2602   5.850   7.892   4.880
  191POPC   C2B 2603   5.738   7.685   5.233
  191POPC   C3B 2604   5.924   7.759   5.603
  191POPC   C4B 2605   6.085   8.114   5.797
  192POPC   NC3 2606   8.044   4.091   3.634
  192POPC   PO4 2607   7.888   4.750   4.029
  192POPC   GL1 2608   7.883   4.493   4.504
  192POPC   GL2 2609   8.067   4.083   4.515
  192POPC   C1A 2610   7.941   4.354   4.914
  192POPC   D2A 2611   8.172   4.033   5.057
  192POPC   C3A 2612   8.067   4.152   5.436
  192POPC   C4A 2613   7.894   4.295   5.836
  192POPC   C1B 2614   7.755   3.887   4.805
  192POPC   C2B 2615   7.675   3.915   5.225
  192POPC   C3B 2616   7.549   3.968   5.659
  192POPC   C4B 2617   7.662   3.861   6.099
  193POPC   NC3 2618   0.292   0.493   3.685
  193POPC   PO4 2619  10.081   0.393   3.846
  193POPC   GL1 2620   9.978   0.214   4.251
  193POPC   GL2 2621  10.147   0.490   4.363
  193POPC   C1A 2622  10.185  10.477   4.621
  193POPC   D2A 2623  10.312   0.038   5.027
  193POPC   C3A 2624  10.187   0.274   5.346
  193POPC   C4A 2625  10.207   0.272   5.755
  193POPC   C1B 2626   9.894   0.358   4.727
  193POPC   C2B 2627   9.732   0.317   5.129
  193POPC   C3B 2628   9.728   0.328   5.591
  193POPC   C4B 2629   9.831   0.602   5.887
  194POPC   NC3 2630   7.246   8.551   3.997
  194POPC   PO4 2631   6.838   8.967   3.684
  194POPC   GL1 2632   6.875   8.852   4.243
  194POPC   GL2 2633   7.130   8.625   4.462
  194POPC   C1A 2634   6.820   8.844   4.742
  194POPC   D2A 2635   7.171   8.764   5.048
  194POPC   C3A 2636   7.089   8.565   5.472
  194POPC   C4A 2637   6.837   8.704   5.825
  194POPC   C1B 2638   7.506   8.481   4.640
  194POPC   C2B 2639   7.749   8.507   5.033
  194POPC   C3B 2640   7.606   8.475   5.450
  194POPC   C4B 2641   7.478   8.805   5.727
  195POPC   NC3 2642   3.827   9.563   3.917
  195POPC   PO4 2643   4.484   9.713   3.863
  195POPC   GL1 2644   4.410   9.366   4.225
  195POPC   GL2 2645   4.150   9.131   4.237
  195POPC   C1A 2646   4.449   9.119   4.656
  195POPC   D2A 2647   4.212   9.192   5.066
  195POPC   C3A 2648   4.474   9.174   5.454
  195POPC   C4A 2649   4.397   9.260   5.911
  195POPC   C1B 2650   4.048   9.434   4.624
  195POPC   C2B 2651   4.051   9.669   5.073
  195POPC   C3B 2652   4.137   9.551   5.509
  195POPC   C4B 2653   3.963   9.164   5.644
  196POPC   NC3 2654   8.780   0.321   3.862
  196POPC   PO4 2655   9.224   0.882   3.960
  196POPC   GL1 2656   9.114   0.671   4.302
  196POPC   GL2 2657   8.950   0.365   4.331
  196POPC   C1A 2658   9.119   0.779   4.697
  196POPC   D2A 2659   8.895   0.882   5.029
  196POPC   C3A 2660   8.981   0.684   5.380
  196POPC   C4A 2661   8.660   0.586   5.596
  196POPC   C1B 2662   8.684   0.498   4.676
  196POPC   C2B 2663   8.672   0.370   5.095
  196POPC   C3B 2664   8.792   0.127   5.441
  196POPC   C4B 2665   8.627   0.152   5.854
  197POPC   NC3 2666  10.223   2.915   3.952
  197POPC   PO4 2667   9.855   2.352   3.726
  197POPC   GL1 2668  10.118   2.475   4.181
  197POPC   GL2 2669  10.399   2.669   4.356
  197POPC   C1A 2670  10.176   2.423   4.712
  197POPC   D2A 2671  10.012   2.733   5.012
  197POPC   C3A 2672   9.929   2.642   5.424
  197POPC   C4A 2673  10.086   2.887   5.744
  197POPC   C1B 2674  10.252   2.975   4.626
  197POPC   C2B 2675  10.438   3.037   5.020
  197POPC   C3B 2676  10.454   2.779   5.357
  197POPC   C4B 2677   0.095   2.919   5.731
  198POPC   NC3 2678   8.297   3.544   3.812
  198POPC   PO4 2679   8.932   3.291   3.820
  198POPC   GL1 2680   8.883   3.323   4.236
  198POPC   GL2 2681   8.670   3.619   4.228
  198POPC   C1A 2682   8.746   3.311   4.675
  198POPC   D2A 2683   8.509   3.180   5.059
  198POPC   C3A 2684   8.521   3.334   5.455
  198POPC   C4A 2685   8.814   3.266   5.787
  198POPC   C1B 2686   8.488   3.765   4.640
  198POPC   C2B 2687   8.574   3.702   5.055
  198POPC   C3B 2688   8.503   3.872   5.431
  198POPC   C4B 2689   8.535   3.689   5.818
  199POPC   NC3 2690   7.966   7.140   3.826
  199POPC   PO4 2691   8.611   7.208   3.955
  199POPC   GL1 2692   8.254   7.338   4.277
  199POPC   GL2 2693   7.908   7.242   4.337
  199POPC   C1A 2694   8.223   7.235   4.749
  199POPC   D2A 2695   7.970   7.065   5.128
  199POPC   C3A 2696   7.980   7.282   5.531
  199POPC   C4A 2697   8.075   7.239   5.995
  199POPC   C1B 2698   7.678   7.234   4.741
  199POPC   C2B 2699   7.560   7.417   5.152
  199POPC   C3B 2700   7.327   7.404   5.528
  199POPC   C4B 2701   7.588   7.268   5.859
  200POPC   NC3 2702   0.401   7.818   3.803
  200POPC   PO4 2703   0.070   8.404   3.987
  200POPC   GL1 2704   0.327   8.100   4.234
  200POPC   GL2 2705   0.252   7.754   4.285
  200POPC   C1A 2706   0.326   8.108   4.689
  200POPC   D2A 2707   0.491   8.000   5.101
  200POPC   C3A 2708   0.251   8.195   5.399
  200POPC   C4A 2709   0.045   8.184   5.795
  200POPC   C1B 2710   0.329   7.606   4.661
  200POPC   C2B 2711   0.369   7.490   5.074
  200POPC   C3B 2712   0.278   7.682   5.481
  200POPC   C4B 2713   0.568   7.978   5.710
  201POPC   NC3 2714   7.317   7.127   3.847
  201POPC   PO4 2715   7.738   6.722   3.989
  201POPC   GL1 2716   7.489   6.969   4.311
  201POPC   GL2 2717   7.389   7.327   4.309
  201POPC   C1A 2718   7.264   6.883   4.684
  201POPC   D2A 2719   7.431   6.760   5.085
  201POPC   C3A 2720   7.545   6.943   5.469
  201POPC   C4A 2721   7.312   6.844   5.877
  201POPC   C1B 2722   7.177   7.372   4.681
  201POPC   C2B 2723   7.116   7.183   5.088
  201POPC   C3B 2724   7.008   7.003   5.484
  201POPC   C4B 2725   6.964   7.234   5.853
  202POPC   NC3 2726   8.877  10.189   4.052
  202POPC   PO4 2727   8.416   9.700   3.911
  202POPC   GL1 2728   8.553   9.934   4.347
  202POPC   GL2 2729   8.545  10.322   4.412
  202POPC   C1A 2730   8.680  10.043   4.795
  202POPC   D2A 2731   8.498  10.383   5.066
  202POPC   C3A 2732   8.468  10.236   5.503
  202POPC   C4A 2733   8.521   9.833   5.751
  202POPC   C1B 2734   8.844   0.018   4.678
  202POPC   C2B 2735   9.014  10.398   5.035
  202POPC   C3B 2736   9.135  10.258   5.408
  202POPC   C4B 2737   8.909  10.223   5.790
  203POPC   NC3 2738   9.513   5.715   3.652
  203POPC   PO4 2739   9.633   6.189   4.172
  203POPC   GL1 2740   9.642   5.870   4.429
  203POPC   GL2 2741   9.536   5.568   4.279
  203POPC   C1A 2742   9.702   5.921   4.826
  203POPC   D2A 2743   9.524   5.829   5.169
  203POPC   C3A 2744   9.560   6.025   5.519
  203POPC   C4A 2745   9.709   6.168   5.880
  203POPC   C1B 2746   9.277   5.546   4.680
  203POPC   C2B 2747   9.420   5.349   5.066
  203POPC   C3B 2748   9.321   5.457   5.471
  203POPC   C4B 2749   9.395   5.674   5.831
  204POPC   NC3 2750   6.433   1.935   3.938
  204POPC   PO4 2751   6.057   2.446   3.873
  204POPC   GL1 2752   6.103   2.212   4.271
  204POPC   GL2 2753   6.445   2.095   4.399
  204POPC   C1A 2754   6.122   2.252   4.738
  204POPC   D2A 2755   6.168   2.053   5.118
  204POPC   C3A 2756   6.228   2.271   5.466
  204POPC   C4A 2757   6.173   2.107   5.868
  204POPC   C1B 2758   6.418   1.826   4.736
  204POPC   C2B 2759   6.607   1.797   5.147
  204POPC   C3B 2760   6.465   1.801   5.572
  204POPC   C4B 2761   6.776   1.620   5.834
  205POPC   NC3 2762   1.780   3.434   3.858
  205POPC   PO4 2763   1.614   2.858   3.886
  205POPC   GL1 2764   1.805   3.136   4.277
  205POPC   GL2 2765   1.714   3.548   4.339
  205POPC   C1A 2766   1.701   3.224   4.723
  205POPC   D2A 2767   1.850   3.055   5.092
  205POPC   C3A 2768   1.820   3.272   5.440
  205POPC   C4A 2769   2.187   3.112   5.625
  205POPC   C1B 2770   2.030   3.613   4.686
  205POPC   C2B 2771   1.942   3.712   5.127
  205POPC   C3B 2772   2.159   3.636   5.520
  205POPC   C4B 2773   1.951   3.501   5.896
  206POPC   NC3 2774   6.345   3.553   3.926
  206POPC   PO4 2775   6.841   3.855   3.920
  206POPC   GL1 2776   6.701   3.673   4.332
  206POPC   GL2 2777   6.420   3.462   4.408
  206POPC   C1A 2778   6.652   3.665   4.807
  206POPC   D2A 2779   6.577   3.420   5.172
  206POPC   C3A 2780   6.531   3.691   5.570
  206POPC   C4A 2781   6.408   3.878   5.999
  206POPC   C1B 2782   6.212   3.362   4.788
  206POPC   C2B 2783   6.143   3.162   5.198
  206POPC   C3B 2784   6.307   3.250   5.603
  206POPC   C4B 2785   6.058   3.539   5.820
  207POPC   NC3 2786   9.796   7.415   3.929
  207POPC   PO4 2787   0.019   7.543   3.860
  207POPC   GL1 2788  10.408   7.390   4.272
  207POPC   GL2 2789  10.279   7.090   4.289
  207POPC   C1A 2790  10.462   7.275   4.725
  207POPC   D2A 2791  10.283   7.138   5.098
  207POPC   C3A 2792  10.253   7.424   5.423
  207POPC   C4A 2793  10.461   7.374   5.806
  207POPC   C1B 2794   9.955   7.258   4.589
  207POPC   C2B 2795   9.737   7.100   4.961
  207POPC   C3B 2796   9.843   7.085   5.391
  207POPC   C4B 2797  10.080   7.061   5.760
  208POPC   NC3 2798   0.129   9.991   3.704
  208POPC   PO4 2799   0.396   0.097   3.923
  208POPC   GL1 2800   0.279  10.374   4.280
  208POPC   GL2 2801   0.332  10.036   4.188
  208POPC   C1A 2802   0.221  10.489   4.717
  208POPC   D2A 2803   0.440   0.022   5.118
  208POPC   C3A 2804   0.431  10.250   5.488
  208POPC   C4A 2805   0.230  10.302   5.870
  208POPC   C1B 2806   0.485  10.047   4.628
  208POPC   C2B 2807   0.418   9.809   5.003
  208POPC   C3B 2808   0.238   9.726   5.413
  208POPC   C4B 2809   0.371   9.808   5.822
  209POPC   NC3 2810   3.882   0.420   4.015
  209POPC   PO4 2811   4.276   0.788   3.696
  209POPC   GL1 2812   4.315   0.646   4.178
  209POPC   GL2 2813   4.264   0.308   4.346
  209POPC   C1A 2814   4.335   0.722   4.631
  209POPC   D2A 2815   4.169   0.709   5.054
  209POPC   C3A 2816   4.361   0.600   5.412
  209POPC   C4A 2817   4.342   0.548   5.806
  209POPC   C1B 2818   4.000   0.330   4.727
  209POPC   C2B 2819   4.105   0.201   5.150
  209POPC   C3B 2820   3.920   0.355   5.537
  209POPC   C4B 2821   3.958   0.270   5.969
  210POPC   NC3 2822   1.921   8.195   3.818
  210POPC   PO4 2823   2.126   7.488   3.763
  210POPC   GL1 2824   2.119   7.621   4.208
  210POPC   GL2 2825   2.028   7.997   4.292
  210POPC   C1A 2826   2.306   7.636   4.622
  210POPC   D2A 2827   2.448   7.759   5.039
  210POPC   C3A 2828   2.243   7.626   5.419
  210POPC   C4A 2829   2.096   7.541   5.821
  210POPC   C1B 2830   1.942   7.960   4.747
  210POPC   C2B 2831   2.020   8.013   5.178
  210POPC   C3B 2832   1.796   7.888   5.506
  210POPC   C4B 2833   1.696   7.857   5.923
  211POPC   NC3 2834   1.756   9.732   4.009
  211POPC   PO4 2835   2.022  10.359   3.816
  211POPC   GL1 2836   1.967  10.189   4.209
  211POPC   GL2 2837   1.604  10.198   4.214
  211POPC   C1A 2838   2.059  10.164   4.665
  211POPC   D2A 2839   2.180  10.359   5.075
  211POPC   C3A 2840   2.077  10.121   5.455
  211POPC   C4A 2841   1.989  10.281   5.838
  211POPC   C1B 2842   1.505  10.173   4.659
  211POPC   C2B 2843   1.713  10.148   5.058
  211POPC   C3B 2844   1.570  10.191   5.469
  211POPC   C4B 2845   1.699   9.870   5.745
  212POPC   NC3 2846   2.292   5.636   3.821
  212POPC   PO4 2847   1.663   5.367   3.705
  212POPC   GL1 2848   1.831   5.460   4.160
  212POPC   GL2 2849   1.504   5.513   4.326
  212POPC   C1A 2850   1.956   5.553   4.648
  212POPC   D2A 2851   2.192   5.847   4.985
  212POPC   C3A 2852   2.321   5.775   5.442
  212POPC   C4A 2853   2.203   5.620   5.865
  212POPC   C1B 2854   1.505   5.786   4.686
  212POPC   C2B 2855   1.716   5.767   5.088
  212POPC   C3B 2856   1.839   5.589   5.519
  212POPC   C4B 2857   1.756   5.827   5.878
  213POPC   NC3 2858   3.101   9.516   3.930
  213POPC   PO4 2859   3.746   9.111   3.835
  213POPC   GL1 2860   3.673   9.264   4.305
  213POPC   GL2 2861   3.609   9.627   4.372
  213POPC   C1A 2862   3.619   9.189   4.742
  213POPC   D2A 2863   3.710   9.103   5.154
  213POPC   C3A 2864   3.645   9.471   5.357
  213POPC   C4A 2865   3.514   9.445   5.767
  213POPC   C1B 2866   3.294   9.577   4.665
  213POPC   C2B 2867   3.201   9.332   5.037
  213POPC   C3B 2868   3.139   9.494   5.439
  213POPC   C4B 2869   2.989   9.758   5.793
  214POPC   NC3 2870   1.760   7.208   3.836
  214POPC   PO4 2871   2.212   6.777   3.919
  214POPC   GL1 2872   2.107   7.057   4.229
  214POPC   GL2 2873   1.782   7.049   4.343
  214POPC   C1A 2874   2.175   7.146   4.661
  214POPC   D2A 2875   2.319   7.271   5.039
  214POPC   C3A 2876   2.165   7.112   5.424
  214POPC   C4A 2877   2.047   7.024   5.848
  214POPC   C1B 2878   1.780   7.463   4.605
  214POPC   C2B 2879   1.855   7.538   5.069
  214POPC   C3B 2880   1.726   7.375   5.503
  214POPC   C4B 2881   1.617   7.344   5.962
  215POPC   NC3 2882   1.760   6.480   3.992
  215POPC   PO4 2883   2.328   6.079   3.932
  215POPC   GL1 2884   2.036   6.116   4.236
  215POPC   GL2 2885   2.163   6.445   4.313
  215POPC   C1A 2886   1.905   6.115   4.661
  215POPC   D2A 2887   1.836   6.312   5.064
  215POPC   C3A 2888   1.879   6.095   5.444
  215POPC   C4A 2889   2.127   6.143   5.787
  215POPC   C1B 2890   2.018   6.648   4.669
  215POPC   C2B 2891   2.173   6.728   5.085
  215POPC   C3B 2892   2.105   6.608   5.537
  215POPC   C4B 2893   1.727   6.512   5.738
  216POPC   NC3 2894   4.640   2.102   4.097
  216POPC   PO4 2895   5.270   1.847   4.023
  216POPC   GL1 2896   5.214   1.994   4.397
  216POPC   GL2 2897   4.891   2.062   4.528
  216POPC   C1A 2898   5.211   1.724   4.754
  216POPC   D2A 2899   4.959   1.780   5.094
  216POPC   C3A 2900   5.216   1.666   5.394
  216POPC   C4A 2901   5.396   1.860   5.694
  216POPC   C1B 2902   4.797   2.379   4.826
  216POPC   C2B 2903   4.838   2.401   5.284
  216POPC   C3B 2904   4.913   2.064   5.581
  216POPC   C4B 2905   4.658   1.800   5.818
  217POPC   NC3 2906   7.925   9.955   3.852
  217POPC   PO4 2907   7.621   0.169   3.886
  217POPC   GL1 2908   7.824   0.168   4.295
  217POPC   GL2 2909   8.066  10.411   4.227
  217POPC   C1A 2910   7.749   0.075   4.731
  217POPC   D2A 2911   7.983  10.438   5.092
  217POPC   C3A 2912   7.726  10.356   5.421
  217POPC   C4A 2913   7.594  10.459   5.812
  217POPC   C1B 2914   8.105  10.192   4.632
  217POPC   C2B 2915   8.217   9.956   4.977
  217POPC   C3B 2916   8.138   9.845   5.364
  217POPC   C4B 2917   8.038  10.071   5.719
  218POPC   NC3 2918   4.981   7.679   3.953
  218POPC   PO4 2919   4.601   7.927   4.270
  218POPC   GL1 2920   4.973   7.892   4.456
  218POPC   GL2 2921   4.962   8.234   4.531
  218POPC   C1A 2922   4.961   7.743   4.904
  218POPC   D2A 2923   4.711   7.588   5.271
  218POPC   C3A 2924   4.895   7.677   5.699
  218POPC   C4A 2925   4.800   7.471   6.152
  218POPC   C1B 2926   4.643   8.153   4.868
  218POPC   C2B 2927   4.626   8.095   5.312
  218POPC   C3B 2928   4.814   8.295   5.652
  218POPC   C4B 2929   5.149   8.126   5.890
  219POPC   NC3 2930   2.697   8.660   3.973
  219POPC   PO4 2931   3.221   9.134   4.159
  219POPC   GL1 2932   3.032   8.742   4.344
  219POPC   GL2 2933   2.678   8.805   4.440
  219POPC   C1A 2934   2.932   8.450   4.717
  219POPC   D2A 2935   2.837   8.579   5.091
  219POPC   C3A 2936   2.956   8.400   5.425
  219POPC   C4A 2937   2.974   8.723   5.696
  219POPC   C1B 2938   2.442   8.672   4.782
  219POPC   C2B 2939   2.355   8.821   5.166
  219POPC   C3B 2940   2.492   8.635   5.513
  219POPC   C4B 2941   2.565   8.405   5.856
  220POPC   NC3 2942   6.348   7.170   4.106
  220POPC   PO4 2943   6.945   7.331   4.007
  220POPC   GL1 2944   6.745   7.375   4.404
  220POPC   GL2 2945   6.695   7.040   4.525
  220POPC   C1A 2946   6.705   7.422   4.865
  220POPC   D2A 2947   6.609   7.137   5.186
  220POPC   C3A 2948   6.545   7.288   5.569
  220POPC   C4A 2949   6.446   7.152   5.972
  220POPC   C1B 2950   6.296   7.090   4.779
  220POPC   C2B 2951   6.123   6.924   5.176
  220POPC   C3B 2952   6.213   6.861   5.614
  220POPC   C4B 2953   5.920   6.966   5.968
  221POPC   NC3 2954   0.989   4.660   3.864
  221POPC   PO4 2955   1.147   5.276   4.037
  221POPC   GL1 2956   1.174   5.086   4.374
  221POPC   GL2 2957   1.237   4.759   4.306
  221POPC   C1A 2958   1.340   5.036   4.748
  221POPC   D2A 2959   1.540   5.316   4.954
  221POPC   C3A 2960   1.479   5.228   5.367
  221POPC   C4A 2961   1.527   4.965   5.741
  221POPC   C1B 2962   0.926   4.724   4.638
  221POPC   C2B 2963   0.949   4.937   5.043
  221POPC   C3B 2964   1.125   4.827   5.435
  221POPC   C4B 2965   1.037   5.125   5.751
  222POPC   NC3 2966   3.028   0.638   4.056
  222POPC   PO4 2967   2.387   0.288   4.055
  222POPC   GL1 2968   2.579   0.330   4.426
  222POPC   GL2 2969   2.947   0.252   4.353
  222POPC   C1A 2970   2.390   0.268   4.836
  222POPC   D2A 2971   2.339   0.314   5.253
  222POPC   C3A 2972   2.355   0.051   5.574
  222POPC   C4A 2973   2.623   0.233   5.829
  222POPC   C1B 2974   2.948   0.527   4.721
  222POPC   C2B 2975   2.784   0.528   5.133
  222POPC   C3B 2976   2.822   0.728   5.517
  222POPC   C4B 2977   2.782   0.723   5.954
  223POPC   NC3 2978   8.434   5.731   3.969
  223POPC   PO4 2979   9.174   5.648   3.966
  223POPC   GL1 2980   8.847   5.601   4.278
  223POPC   GL2 2981   8.703   5.914   4.380
  223POPC   C1A 2982   8.715   5.494   4.695
  223POPC   D2A 2983   8.907   5.276   5.023
  223POPC   C3A 2984   8.826   5.316   5.432
  223POPC   C4A 2985   8.804   5.403   5.827
  223POPC   C1B 2986   8.866   5.981   4.801
  223POPC   C2B 2987   9.032   5.744   5.137
  223POPC   C3B 2988   8.973   5.850   5.561
  223POPC   C4B 2989   8.577   5.968   5.742
  224POPC   NC3 2990   3.380  10.363   3.955
  224POPC   PO4 2991   2.811   9.913   3.866
  224POPC   GL1 2992   3.168   9.924   4.258
  224POPC   GL2 2993   3.495  10.137   4.424
  224POPC   C1A 2994   3.090  10.043   4.714
  224POPC   D2A 2995   3.242  10.221   5.098
  224POPC   C3A 2996   3.297  10.006   5.481
  224POPC   C4A 2997   3.363  10.076   5.932
  224POPC   C1B 2998   3.730  10.359   4.809
  224POPC   C2B 2999   3.616   0.072   5.191
  224POPC   C3B 3000   3.513   0.005   5.624
  224POPC   C4B 3001   3.804  10.310   5.912
  225POPC   NC3 3002   6.696  10.214   3.954
  225POPC   PO4 3003   6.047  10.038   3.956
  225POPC   GL1 3004   6.290  10.212   4.311
  225POPC   GL2 3005   6.640  10.351   4.423
  225POPC   C1A 3006   6.307  10.163   4.754
  225POPC   D2A 3007   6.176  10.016   5.160
  225POPC   C3A 3008   6.343  10.350   5.428
  225POPC   C4A 3009   6.227  10.432   5.843
  225POPC   C1B 3010   6.824  10.125   4.755
  225POPC   C2B 3011   6.696  10.102   5.140
  225POPC   C3B 3012   6.714   9.900   5.515
  225POPC   C4B 3013   6.665  10.187   5.836
  226POPC   NC3 3014   6.540   8.664   3.927
  226POPC   PO4 3015   6.866   8.109   4.013
  226POPC   GL1 3016   6.668   8.379   4.377
  226POPC   GL2 3017   6.325   8.535   4.363
  226POPC   C1A 3018   6.524   8.460   4.834
  226POPC   D2A 3019   6.667   8.676   5.212
  226POPC   C3A 3020   6.412   8.529   5.533
  226POPC   C4A 3021   6.366   8.475   5.999
  226POPC   C1B 3022   6.156   8.817   4.681
  226POPC   C2B 3023   6.274   8.964   5.087
  226POPC   C3B 3024   6.084   9.012   5.481
  226POPC   C4B 3025   5.963   8.631   5.727
  227POPC   NC3 3026   7.141   1.857   3.873
  227POPC   PO4 3027   6.703   2.353   3.998
  227POPC   GL1 3028   6.945   2.154   4.323
  227POPC   GL2 3029   7.039   1.813   4.373
  227POPC   C1A 3030   6.865   2.043   4.766
  227POPC   D2A 3031   7.073   2.135   5.122
  227POPC   C3A 3032   6.875   2.096   5.536
  227POPC   C4A 3033   7.062   2.223   5.925
  227POPC   C1B 3034   7.359   1.972   4.680
  227POPC   C2B 3035   7.536   1.883   5.083
  227POPC   C3B 3036   7.410   2.031   5.475
  227POPC   C4B 3037   7.274   1.779   5.821
  228POPC   NC3 3038   9.402   1.299   3.904
  228POPC   PO4 3039  10.037   1.456   3.861
  228POPC   GL1 3040   9.780   1.430   4.226
  228POPC   GL2 3041   9.721   1.074   4.254
  228POPC   C1A 3042   9.834   1.384   4.696
  228POPC   D2A 3043   9.830   1.103   5.062
  228POPC   C3A 3044   9.701   1.170   5.467
  228POPC   C4A 3045   9.774   1.490   5.722
  228POPC   C1B 3046   9.386   1.186   4.534
  228POPC   C2B 3047   9.322   1.182   4.965
  228POPC   C3B 3048   9.219   1.139   5.380
  228POPC   C4B 3049   9.288   1.310   5.823
  229POPC   NC3 3050   9.279   5.151   4.019
  229POPC   PO4 3051   9.861   5.255   3.896
  229POPC   GL1 3052   9.736   5.062   4.318
  229POPC   GL2 3053   9.500   4.785   4.311
  229POPC   C1A 3054   9.695   4.926   4.765
  229POPC   D2A 3055   9.666   4.748   5.185
  229POPC   C3A 3056   9.689   5.080   5.468
  229POPC   C4A 3057   9.632   5.203   5.912
  229POPC   C1B 3058   9.198   5.004   4.621
  229POPC   C2B 3059   9.223   4.904   4.985
  229POPC   C3B 3060   9.206   4.944   5.362
  229POPC   C4B 3061   9.185   5.052   5.734
  230POPC   NC3 3062   7.100   0.530   3.819
  230POPC   PO4 3063   7.694   0.816   3.972
  230POPC   GL1 3064   7.456   0.546   4.267
  230POPC   GL2 3065   7.090   0.462   4.322
  230POPC   C1A 3066   7.344   0.556   4.721
  230POPC   D2A 3067   7.113   0.591   5.093
  230POPC   C3A 3068   7.380   0.741   5.436
  230POPC   C4A 3069   7.479   0.504   5.821
  230POPC   C1B 3070   7.021   0.152   4.691
  230POPC   C2B 3071   7.311   0.106   5.037
  230POPC   C3B 3072   7.359   0.215   5.422
  230POPC   C4B 3073   7.035   0.399   5.613
  231POPC   NC3 3074   1.968   4.406   3.998
  231POPC   PO4 3075   2.083   3.732   4.008
  231POPC   GL1 3076   2.022   4.012   4.340
  231POPC   GL2 3077   1.662   4.092   4.304
  231POPC   C1A 3078   2.081   4.315   4.699
  231POPC   D2A 3079   2.090   4.506   5.130
  231POPC   C3A 3080   2.133   4.163   5.445
  231POPC   C4A 3081   2.346   4.000   5.815
  231POPC   C1B 3082   1.677   3.985   4.736
  231POPC   C2B 3083   1.656   4.282   5.066
  231POPC   C3B 3084   1.673   4.362   5.523
  231POPC   C4B 3085   1.778   3.957   5.749
  232POPC   NC3 3086   2.471   7.174   3.876
  232POPC   PO4 3087   2.986   7.601   3.895
  232POPC   GL1 3088   2.748   7.435   4.279
  232POPC   GL2 3089   2.610   7.080   4.352
  232POPC   C1A 3090   2.728   7.367   4.740
  232POPC   D2A 3091   2.927   7.354   5.120
  232POPC   C3A 3092   2.648   7.314   5.425
  232POPC   C4A 3093   2.504   7.245   5.781
  232POPC   C1B 3094   2.556   6.828   4.724
  232POPC   C2B 3095   2.648   6.892   5.157
  232POPC   C3B 3096   2.590   6.771   5.608
  232POPC   C4B 3097   2.485   6.860   6.087
  233POPC   NC3 3098   3.975   1.349   3.975
  233POPC   PO4 3099   3.291   1.335   3.913
  233POPC   GL1 3100   3.533   1.223   4.226
  233POPC   GL2 3101   3.441   0.918   4.269
  233POPC   C1A 3102   3.628   1.331   4.622
  233POPC   D2A 3103   3.428   1.360   5.012
  233POPC   C3A 3104   3.643   1.469   5.386
  233POPC   C4A 3105   3.683   1.278   5.762
  233POPC   C1B 3106   3.252   0.961   4.663
  233POPC   C2B 3107   3.200   0.877   5.092
  233POPC   C3B 3108   3.224   1.138   5.439
  233POPC   C4B 3109   3.226   0.927   5.785
  234POPC   NC3 3110   2.036   8.803   3.732
  234POPC   PO4 3111   2.193   8.941   4.291
  234POPC   GL1 3112   1.914   8.773   4.573
  234POPC   GL2 3113   1.739   8.417   4.570
  234POPC   C1A 3114   1.913   8.972   4.936
  234POPC   D2A 3115   1.781   8.998   5.301
  234POPC   C3A 3116   2.103   9.027   5.574
  234POPC   C4A 3117   2.194   8.778   5.902
  234POPC   C1B 3118   1.992   8.454   4.940
  234POPC   C2B 3119   1.990   8.509   5.381
  234POPC   C3B 3120   1.853   8.392   5.799
  234POPC   C4B 3121   2.153   8.359   6.185
  235POPC   NC3 3122   6.846   2.769   4.159
  235POPC   PO4 3123   7.425   3.044   3.914
  235POPC   GL1 3124   7.349   2.858   4.293
  235POPC   GL2 3125   7.350   2.485   4.253
  235POPC   C1A 3126   7.280   2.957   4.707
  235POPC   D2A 3127   7.484   2.934   5.086
  235POPC   C3A 3128   7.293   3.012   5.492
  235POPC   C4A 3129   7.349   3.016   5.944
  235POPC   C1B 3130   7.156   2.459   4.676
  235POPC   C2B 3131   7.035   2.649   5.055
  235POPC   C3B 3132   7.132   2.524   5.465
  235POPC   C4B 3133   6.974   2.708   5.828
  236POPC   NC3 3134   7.183   3.588   3.798
  236POPC   PO4 3135   7.820   3.683   3.812
  236POPC   GL1 3136   7.431   3.516   4.205
  236POPC   GL2 3137   7.076   3.302   4.208
  236POPC   C1A 3138   7.369   3.463   4.644
  236POPC   D2A 3139   7.619   3.421   5.016
  236POPC   C3A 3140   7.480   3.487   5.408
  236POPC   C4A 3141   7.347   3.524   5.806
  236POPC   C1B 3142   6.873   3.248   4.625
  236POPC   C2B 3143   7.072   3.283   5.054
  236POPC   C3B 3144   6.977   3.433   5.471
  236POPC   C4B 3145   6.882   3.209   5.816
  237POPC   NC3 3146   2.475   3.563   3.814
  237POPC   PO4 3147   3.076   3.846   3.957
  237POPC   GL1 3148   2.768   3.601   4.293
  237POPC   GL2 3149   2.409   3.437   4.312
  237POPC   C1A 3150   2.511   3.804   4.665
  237POPC   D2A 3151   2.448   3.678   5.092
  237POPC   C3A 3152   2.672   3.851   5.445
  237POPC   C4A 3153   2.820   3.746   5.859
  237POPC   C1B 3154   2.570   3.305   4.733
  237POPC   C2B 3155   2.414   3.180   5.152
  237POPC   C3B 3156   2.621   3.345   5.526
  237POPC   C4B 3157   2.445   3.424   5.923
  238POPC   NC3 3158   9.616   0.495   3.846
  238POPC   PO4 3159   9.152   0.031   3.912
  238POPC   GL1 3160   9.446   0.251   4.255
  238POPC   GL2 3161   9.621   0.581   4.335
  238POPC   C1A 3162   9.382   0.311   4.687
  238POPC   D2A 3163   9.154   0.378   4.995
  238POPC   C3A 3164   9.279   0.258   5.365
  238POPC   C4A 3165   9.124   0.359   5.754
  238POPC   C1B 3166   9.624   0.781   4.737
  238POPC   C2B 3167   9.469   0.742   5.165
  238POPC   C3B 3168   9.439   0.747   5.607
  238POPC   C4B 3169   9.282   0.764   6.016
  239POPC   NC3 3170   8.569   8.480   4.030
  239POPC   PO4 3171   9.144   8.684   4.028
  239POPC   GL1 3172   8.984   8.614   4.435
  239POPC   GL2 3173   8.680   8.695   4.486
  239POPC   C1A 3174   8.947   8.660   4.905
  239POPC   D2A 3175   9.024   8.347   5.210
  239POPC   C3A 3176   8.971   8.602   5.546
  239POPC   C4A 3177   8.853   8.815   5.932
  239POPC   C1B 3178   8.431   8.608   4.811
  239POPC   C2B 3179   8.528   8.491   5.202
  239POPC   C3B 3180   8.472   8.646   5.544
  239POPC   C4B 3181   8.390   8.952   5.749
  240POPC   NC3 3182   1.841   0.229   4.013
  240POPC   PO4 3183   1.809   0.837   3.824
  240POPC   GL1 3184   2.085   0.646   4.242
  240POPC   GL2 3185   2.048   0.361   4.458
  240POPC   C1A 3186   2.270   0.747   4.688
  240POPC   D2A 3187   1.957   0.547   5.004
  240POPC   C3A 3188   2.017   0.610   5.470
  240POPC   C4A 3189   2.243   0.586   5.883
  240POPC   C1B 3190   1.795   0.108   4.714
  240POPC   C2B 3191   1.615   0.141   5.101
  240POPC   C3B 3192   1.861   0.115   5.431
  240POPC   C4B 3193   1.876   0.263   5.824
  241POPC   NC3 3194   4.299   3.651   3.926
  241POPC   PO4 3195   4.696   3.261   3.936
  241POPC   GL1 3196   4.492   3.312   4.330
  241POPC   GL2 3197   4.171   3.205   4.362
  241POPC   C1A 3198   4.416   3.327   4.799
  241POPC   D2A 3199   4.448   3.372   5.246
  241POPC   C3A 3200   4.378   3.781   5.446
  241POPC   C4A 3201   4.325   4.031   5.891
  241POPC   C1B 3202   3.977   3.057   4.703
  241POPC   C2B 3203   3.945   3.246   5.102
  241POPC   C3B 3204   4.052   3.279   5.536
  241POPC   C4B 3205   4.313   3.470   5.837
  242POPC   NC3 3206   0.366   8.780   4.006
  242POPC   PO4 3207   0.710   8.182   3.829
  242POPC   GL1 3208   0.772   8.379   4.297
  242POPC   GL2 3209   0.467   8.534   4.430
  242POPC   C1A 3210   0.853   8.758   4.633
  242POPC   D2A 3211   0.573   8.935   5.000
  242POPC   C3A 3212   0.656   8.862   5.477
  242POPC   C4A 3213   0.470   8.491   5.753
  242POPC   C1B 3214   0.125   8.716   4.644
  242POPC   C2B 3215   0.046   8.861   5.027
  242POPC   C3B 3216   0.192   8.710   5.371
  242POPC   C4B 3217   0.132   8.856   5.765
  243POPC   NC3 3218   1.261   2.592   4.010
  243POPC   PO4 3219   1.311   3.389   3.833
  243POPC   GL1 3220   1.300   3.206   4.215
  243POPC   GL2 3221   1.094   3.487   4.309
  243POPC   C1A 3222   1.219   3.056   4.642
  243POPC   D2A 3223   0.900   3.211   4.921
  243POPC   C3A 3224   0.903   3.139   5.358
  243POPC   C4A 3225   0.941   3.223   5.780
  243POPC   C1B 3226   1.311   3.587   4.675
  243POPC   C2B 3227   1.363   3.421   5.080
  243POPC   C3B 3228   1.217   3.507   5.472
  243POPC   C4B 3229   1.461   3.447   5.796
  244POPC   NC3 3230   6.043   2.841   4.106
  244POPC   PO4 3231   5.480   2.819   3.923
  244POPC   GL1 3232   5.541   2.845   4.344
  244POPC   GL2 3233   5.687   2.512   4.327
  244POPC   C1A 3234   5.484   3.010   4.798
  244POPC   D2A 3235   5.712   2.864   5.211
  244POPC   C3A 3236   5.710   3.056   5.619
  244POPC   C4A 3237   5.378   3.199   5.916
  244POPC   C1B 3238   5.769   2.599   4.762
  244POPC   C2B 3239   5.763   2.365   5.142
  244POPC   C3B 3240   5.763   2.486   5.597
  244POPC   C4B 3241   6.039   2.578   5.970
  245POPC   NC3 3242   0.226   4.512   3.957
  245POPC   PO4 3243   0.722   4.999   3.724
  245POPC   GL1 3244   0.709   5.017   4.190
  245POPC   GL2 3245   0.498   4.788   4.387
  245POPC   C1A 3246   0.672   5.188   4.637
  245POPC   D2A 3247   0.464   5.058   5.021
  245POPC   C3A 3248   0.630   4.977   5.443
  245POPC   C4A 3249   0.658   4.638   5.694
  245POPC   C1B 3250   0.126   4.879   4.687
  245POPC   C2B 3251   0.044   4.778   5.134
  245POPC   C3B 3252   0.140   4.821   5.576
  245POPC   C4B 3253   0.166   5.124   5.894
  246POPC   NC3 3254   4.354  10.138   3.958
  246POPC   PO4 3255   3.668  10.004   3.948
  246POPC   GL1 3256   3.968   9.991   4.245
  246POPC   GL2 3257   4.024  10.346   4.297
  246POPC   C1A 3258   3.948   9.930   4.649
  246POPC   D2A 3259   3.603   9.881   4.938
  246POPC   C3A 3260   3.769  10.078   5.302
  246POPC   C4A 3261   3.771   9.867   5.685
  246POPC   C1B 3262   4.238  10.364   4.693
  246POPC   C2B 3263   4.400  10.054   4.996
  246POPC   C3B 3264   4.294  10.037   5.423
  246POPC   C4B 3265   4.205  10.434   5.621
  247POPC   NC3 3266   6.230   9.597   4.001
  247POPC   PO4 3267   6.828   9.798   4.083
  247POPC   GL1 3268   6.536   9.787   4.433
  247POPC   GL2 3269   6.320   9.483   4.471
  247POPC   C1A 3270   6.474   9.708   4.890
  247POPC   D2A 3271   6.156   9.454   5.057
  247POPC   C3A 3272   6.167   9.537   5.466
  247POPC   C4A 3273   6.234   9.927   5.679
  247POPC   C1B 3274   6.534   9.239   4.733
  247POPC   C2B 3275   6.738   9.210   5.139
  247POPC   C3B 3276   6.663   9.326   5.598
  247POPC   C4B 3277   6.675   9.294   6.086
  248POPC   NC3 3278   0.814   7.038   4.115
  248POPC   PO4 3279   1.456   6.871   3.973
  248POPC   GL1 3280   1.268   7.071   4.350
  248POPC   GL2 3281   1.085   7.408   4.355
  248POPC   C1A 3282   1.166   7.005   4.772
  248POPC   D2A 3283   1.298   6.930   5.177
  248POPC   C3A 3284   0.929   6.935   5.382
  248POPC   C4A 3285   0.872   7.019   5.785
  248POPC   C1B 3286   1.262   7.511   4.763
  248POPC   C2B 3287   1.349   7.617   5.193
  248POPC   C3B 3288   1.210   7.353   5.531
  248POPC   C4B 3289   1.376   6.946   5.711
  249POPC   NC3 3290   4.148   7.131   3.879
  249POPC   PO4 3291   4.619   7.465   3.781
  249POPC   GL1 3292   4.476   7.404   4.227
  249POPC   GL2 3293   4.143   7.268   4.361
  249POPC   C1A 3294   4.500   7.356   4.707
  249POPC   D2A 3295   4.377   7.060   5.053
  249POPC   C3A 3296   4.277   7.270   5.424
  249POPC   C4A 3297   4.571   7.295   5.727
  249POPC   C1B 3298   3.970   7.054   4.734
  249POPC   C2B 3299   3.876   7.034   5.200
  249POPC   C3B 3300   4.109   6.798   5.533
  249POPC   C4B 3301   4.237   6.613   5.954
  250POPC   NC3 3302   4.792   8.283   4.034
  250POPC   PO4 3303   4.724   8.944   3.962
  250POPC   GL1 3304   4.903   8.715   4.315
  250POPC   GL2 3305   5.228   8.545   4.195
  250POPC   C1A 3306   4.932   8.772   4.770
  250POPC   D2A 3307   4.796   8.583   5.161
  250POPC   C3A 3308   4.794   8.799   5.593
  250POPC   C4A 3309   4.738   8.879   6.040
  250POPC   C1B 3310   5.365   8.527   4.618
  250POPC   C2B 3311   5.482   8.561   5.049
  250POPC   C3B 3312   5.214   8.549   5.432
  250POPC   C4B 3313   5.209   8.655   5.874
  251POPC   NC3 3314   7.752   5.098   4.335
  251POPC   PO4 3315   8.246   5.277   4.004
  251POPC   GL1 3316   8.259   5.167   4.386
  251POPC   GL2 3317   8.267   4.830   4.380
  251POPC   C1A 3318   8.177   5.315   4.785
  251POPC   D2A 3319   7.897   5.098   5.113
  251POPC   C3A 3320   7.855   5.222   5.535
  251POPC   C4A 3321   7.908   5.301   5.955
  251POPC   C1B 3322   8.133   4.814   4.776
  251POPC   C2B 3323   8.249   4.696   5.135
  251POPC   C3B 3324   7.984   4.654   5.449
  251POPC   C4B 3325   7.884   4.796   5.831
  252POPC   NC3 3326   7.557   9.029   3.768
  252POPC   PO4 3327   8.165   8.662   3.824
  252POPC   GL1 3328   7.885   8.777   4.162
  252POPC   GL2 3329   8.204   8.768   4.341
  252POPC   C1A 3330   7.821   8.883   4.637
  252POPC   D2A 3331   8.062   9.011   4.994
  252POPC   C3A 3332   7.977   8.883   5.412
  252POPC   C4A 3333   7.896   9.052   5.855
  252POPC   C1B 3334   8.020   8.422   4.600
  252POPC   C2B 3335   8.153   8.175   4.966
  252POPC   C3B 3336   8.095   8.308   5.389
  252POPC   C4B 3337   8.031   8.546   5.779
  253POPC   NC3 3338   8.836   1.192   4.021
  253POPC   PO4 3339   8.403   0.691   3.856
  253POPC   GL1 3340   8.405   1.038   4.241
  253POPC   GL2 3341   8.680   0.944   4.448
  253POPC   C1A 3342   8.413   1.395   4.610
  253POPC   D2A 3343   8.422   1.658   5.016
  253POPC   C3A 3344   8.391   1.438   5.438
  253POPC   C4A 3345   8.393   1.012   5.654
  253POPC   C1B 3346   8.901   1.275   4.682
  253POPC   C2B 3347   8.860   1.409   5.103
  253POPC   C3B 3348   8.879   1.442   5.542
  253POPC   C4B 3349   8.889   1.015   5.795
  254POPC   NC3 3350   1.317   5.655   3.837
  254POPC   PO4 3351   0.706   5.956   3.795
  254POPC   GL1 3352   0.977   6.013   4.146
  254POPC   GL2 3353   0.969   5.680   4.259
  254POPC   C1A 3354   1.059   6.027   4.615
  254POPC   D2A 3355   0.817   6.011   5.003
  254POPC   C3A 3356   0.979   6.012   5.402
  254POPC   C4A 3357   0.986   5.739   5.779
  254POPC   C1B 3358   1.082   5.499   4.673
  254POPC   C2B 3359   1.157   5.630   5.084
  254POPC   C3B 3360   1.373   5.723   5.448
  254POPC   C4B 3361   1.420   5.468   5.805
  255POPC   NC3 3362   7.229   9.550   3.988
  255POPC   PO4 3363   7.365   8.959   4.167
  255POPC   GL1 3364   7.203   9.256   4.401
  255POPC   GL2 3365   6.862   9.356   4.340
  255POPC   C1A 3366   7.160   9.207   4.789
  255POPC   D2A 3367   7.324   9.301   5.113
  255POPC   C3A 3368   7.145   9.092   5.441
  255POPC   C4A 3369   7.091   9.145   5.840
  255POPC   C1B 3370   6.928   9.625   4.692
  255POPC   C2B 3371   6.964   9.671   5.105
  255POPC   C3B 3372   7.143   9.607   5.490
  255POPC   C4B 3373   6.985   9.645   5.906
  256POPC   NC3 3374   0.443   3.738   4.153
  256POPC   PO4 3375   0.669   3.200   3.879
  256POPC   GL1 3376   0.398   3.199   4.237
  256POPC   GL2 3377   0.626   3.366   4.454
  256POPC   C1A 3378   0.173   3.265   4.616
  256POPC   D2A 3379   0.342   3.491   4.992
  256POPC   C3A 3380   0.199   3.343   5.399
  256POPC   C4A 3381   0.442   3.275   5.762
  256POPC   C1B 3382   0.786   3.675   4.720
  256POPC   C2B 3383   0.890   3.669   5.120
  256POPC   C3B 3384   0.683   3.601   5.453
  256POPC   C4B 3385   0.818   3.713   5.833
  257POPC   NC3 3386   7.252   0.042   4.113
  257POPC   PO4 3387   7.476   9.936   3.990
  257POPC   GL1 3388   7.290   9.824   4.396
  257POPC   GL2 3389   7.103  10.121   4.346
  257POPC   C1A 3390   7.404   9.744   4.837
  257POPC   D2A 3391   7.711   9.971   5.072
  257POPC   C3A 3392   7.621   9.844   5.495
  257POPC   C4A 3393   7.291  10.023   5.761
  257POPC   C1B 3394   7.338  10.220   4.724
  257POPC   C2B 3395   7.229  10.115   5.180
  257POPC   C3B 3396   7.000  10.355   5.484
  257POPC   C4B 3397   7.101  10.481   5.903
  258POPC   NC3 3398   0.189   3.753   3.667
  258POPC   PO4 3399   0.688   4.093   3.967
  258POPC   GL1 3400   0.482   4.228   4.352
  258POPC   GL2 3401   0.178   4.407   4.456
  258POPC   C1A 3402   0.355   4.006   4.723
  258POPC   D2A 3403   0.520   4.004   5.095
  258POPC   C3A 3404   0.249   3.863   5.362
  258POPC   C4A 3405   0.282   3.742   5.768
  258POPC   C1B 3406   0.471   4.517   4.825
  258POPC   C2B 3407   0.741   4.470   5.194
  258POPC   C3B 3408   0.718   4.150   5.543
  258POPC   C4B 3409   0.318   4.246   5.716
  259POPC   NC3 3410   9.095   7.293   3.674
  259POPC   PO4 3411   9.483   7.749   3.931
  259POPC   GL1 3412   9.292   7.404   4.168
  259POPC   GL2 3413   9.468   7.103   4.284
  259POPC   C1A 3414   9.170   7.404   4.599
  259POPC   D2A 3415   9.236   7.519   5.002
  259POPC   C3A 3416   9.437   7.373   5.332
  259POPC   C4A 3417   9.291   7.458   5.741
  259POPC   C1B 3418   9.312   6.943   4.722
  259POPC   C2B 3419   9.348   6.744   5.144
  259POPC   C3B 3420   9.297   6.928   5.561
  259POPC   C4B 3421   9.593   7.060   5.824
  260POPC   NC3 3422   2.817   2.465   3.871
  260POPC   PO4 3423   2.400   3.098   3.855
  260POPC   GL1 3424   2.420   2.894   4.264
  260POPC   GL2 3425   2.528   2.541   4.301
  260POPC   C1A 3426   2.477   2.813   4.718
  260POPC   D2A 3427   2.795   2.874   5.024
  260POPC   C3A 3428   2.643   2.826   5.456
  260POPC   C4A 3429   2.523   2.827   5.873
  260POPC   C1B 3430   2.913   2.561   4.583
  260POPC   C2B 3431   3.216   2.535   4.915
  260POPC   C3B 3432   3.110   2.586   5.331
  260POPC   C4B 3433   2.946   2.550   5.758
  261POPC   NC3 3434   8.887   4.322   3.919
  261POPC   PO4 3435   9.566   3.946   3.927
  261POPC   GL1 3436   9.515   4.167   4.298
  261POPC   GL2 3437   9.216   4.337   4.325
  261POPC   C1A 3438   9.408   3.999   4.701
  261POPC   D2A 3439   9.483   3.748   5.049
  261POPC   C3A 3440   9.365   3.959   5.403
  261POPC   C4A 3441   9.483   3.989   5.798
  261POPC   C1B 3442   9.366   4.500   4.718
  261POPC   C2B 3443   9.191   4.447   5.154
  261POPC   C3B 3444   9.351   4.481   5.564
  261POPC   C4B 3445   9.622   4.451   5.926
  262POPC   NC3 3446   5.065   2.993   3.935
  262POPC   PO4 3447   4.531   2.507   3.887
  262POPC   GL1 3448   4.766   2.599   4.279
  262POPC   GL2 3449   5.116   2.484   4.203
  262POPC   C1A 3450   4.901   2.866   4.659
  262POPC   D2A 3451   4.823   3.035   5.098
  262POPC   C3A 3452   4.764   2.931   5.556
  262POPC   C4A 3453   4.851   3.206   5.976
  262POPC   C1B 3454   5.268   2.518   4.630
  262POPC   C2B 3455   5.233   2.676   5.084
  262POPC   C3B 3456   5.274   2.768   5.545
  262POPC   C4B 3457   5.041   2.737   5.955
  263POPC   NC3 3458   0.257   6.125   3.898
  263POPC   PO4 3459   0.605   6.732   3.863
  263POPC   GL1 3460   0.593   6.392   4.185
  263POPC   GL2 3461   0.241   6.358   4.327
  263POPC   C1A 3462   0.589   6.217   4.613
  263POPC   D2A 3463   0.510   6.470   4.976
  263POPC   C3A 3464   0.554   6.282   5.361
  263POPC   C4A 3465   0.668   6.127   5.767
  263POPC   C1B 3466   0.078   6.312   4.728
  263POPC   C2B 3467  10.485   6.511   5.068
  263POPC   C3B 3468   0.206   6.644   5.390
  263POPC   C4B 3469   0.424   6.556   5.767
  264POPC   NC3 3470   0.622   1.446   3.803
  264POPC   PO4 3471   0.901   0.824   3.756
  264POPC   GL1 3472   0.681   1.059   4.144
  264POPC   GL2 3473   0.351   1.276   4.201
  264POPC   C1A 3474   0.649   1.196   4.611
  264POPC   D2A 3475   0.548   0.989   4.999
  264POPC   C3A 3476   0.626   1.114   5.397
  264POPC   C4A 3477   0.777   0.970   5.763
  264POPC   C1B 3478   0.138   1.123   4.585
  264POPC   C2B 3479   0.069   0.888   4.944
  264POPC   C3B 3480   0.006   0.910   5.385
  264POPC   C4B 3481   0.226   1.136   5.711
  265POPC   NC3 3482   6.461   7.958   3.864
  265POPC   PO4 3483   6.046   7.519   4.027
  265POPC   GL1 3484   6.296   7.657   4.330
  265POPC   GL2 3485   6.586   7.864   4.363
  265POPC   C1A 3486   6.254   7.610   4.756
  265POPC   D2A 3487   6.228   7.494   5.181
  265POPC   C3A 3488   6.415   7.775   5.476
  265POPC   C4A 3489   6.333   7.643   5.886
  265POPC   C1B 3490   6.257   8.088   4.596
  265POPC   C2B 3491   6.292   8.067   5.061
  265POPC   C3B 3492   6.694   8.159   5.278
  265POPC   C4B 3493   6.771   8.214   5.718
  266POPC   NC3 3494   8.080   1.034   3.842
  266POPC   PO4 3495   7.692   1.469   3.672
  266POPC   GL1 3496   7.796   1.280   4.184
  266POPC   GL2 3497   7.541   1.066   4.391
  266POPC   C1A 3498   8.006   1.091   4.559
  266POPC   D2A 3499   8.103   0.915   4.962
  266POPC   C3A 3500   7.830   0.965   5.319
  266POPC   C4A 3501   7.956   1.243   5.645
  266POPC   C1B 3502   7.560   1.021   4.853
  266POPC   C2B 3503   7.494   1.364   5.148
  266POPC   C3B 3504   7.530   1.455   5.533
  266POPC   C4B 3505   7.516   1.073   5.823
  267POPC   NC3 3506   0.588   5.440   3.868
  267POPC   PO4 3507   0.198   4.962   4.039
  267POPC   GL1 3508   0.303   5.325   4.282
  267POPC   GL2 3509   0.358   5.716   4.226
  267POPC   C1A 3510   0.167   5.446   4.671
  267POPC   D2A 3511   0.022   5.301   5.042
  267POPC   C3A 3512   0.255   5.309   5.421
  267POPC   C4A 3513   0.561   5.427   5.763
  267POPC   C1B 3514   0.602   5.704   4.618
  267POPC   C2B 3515   0.502   5.598   5.064
  267POPC   C3B 3516   0.364   5.820   5.464
  267POPC   C4B 3517   0.190   6.043   5.857
  268POPC   NC3 3518   9.195   6.049   4.205
  268POPC   PO4 3519   8.592   6.210   3.895
  268POPC   GL1 3520   8.674   6.399   4.258
  268POPC   GL2 3521   8.951   6.499   4.160
  268POPC   C1A 3522   8.517   6.337   4.657
  268POPC   D2A 3523   8.359   6.280   5.036
  268POPC   C3A 3524   8.582   6.312   5.381
  268POPC   C4A 3525   8.457   6.468   5.785
  268POPC   C1B 3526   8.951   6.601   4.627
  268POPC   C2B 3527   8.834   6.612   5.054
  268POPC   C3B 3528   8.840   6.735   5.505
  268POPC   C4B 3529   8.971   6.665   5.930
  269POPC   NC3 3530   5.605   9.833   3.931
  269POPC   PO4 3531   5.914   9.226   3.966
  269POPC   GL1 3532   5.829   9.576   4.310
  269POPC   GL2 3533   5.507   9.753   4.419
  269POPC   C1A 3534   5.958   9.785   4.690
  269POPC   D2A 3535   5.710   9.735   5.058
  269POPC   C3A 3536   5.753   9.901   5.461
  269POPC   C4A 3537   5.826   9.665   5.822
  269POPC   C1B 3538   5.389   9.470   4.712
  269POPC   C2B 3539   5.377   9.340   5.122
  269POPC   C3B 3540   5.623   9.367   5.473
  269POPC   C4B 3541   5.387   9.448   5.858
  270POPC   NC3 3542   4.353   2.955   3.924
  270POPC   PO4 3543   3.938   2.427   4.023
  270POPC   GL1 3544   4.241   2.403   4.286
  270POPC   GL2 3545   4.255   2.711   4.366
  270POPC   C1A 3546   4.247   2.274   4.678
  270POPC   D2A 3547   4.353   2.334   5.082
  270POPC   C3A 3548   4.011   2.272   5.292
  270POPC   C4A 3549   3.922   2.342   5.671
  270POPC   C1B 3550   4.411   2.765   4.777
  270POPC   C2B 3551   4.328   2.859   5.208
  270POPC   C3B 3552   4.180   2.784   5.632
  270POPC   C4B 3553   4.093   3.044   6.016
  271POPC   NC3 3554   3.461   2.180   4.036
  271POPC   PO4 3555   3.920   1.733   3.723
  271POPC   GL1 3556   3.657   1.718   4.211
  271POPC   GL2 3557   3.278   1.704   4.284
  271POPC   C1A 3558   3.503   1.804   4.715
  271POPC   D2A 3559   3.655   1.951   5.130
  271POPC   C3A 3560   3.485   1.918   5.535
  271POPC   C4A 3561   3.236   1.576   5.745
  271POPC   C1B 3562   3.058   2.011   4.653
  271POPC   C2B 3563   3.128   2.030   5.102
  271POPC   C3B 3564   3.028   2.106   5.530
  271POPC   C4B 3565   3.204   2.062   5.958
  272POPC   NC3 3566   7.824   3.279   4.042
  272POPC   PO4 3567   8.208   3.941   4.036
  272POPC   GL1 3568   8.162   3.565   4.293
  272POPC   GL2 3569   7.862   3.547   4.467
  272POPC   C1A 3570   8.256   3.285   4.626
  272POPC   D2A 3571   8.105   3.522   4.949
  272POPC   C3A 3572   8.072   3.603   5.369
  272POPC   C4A 3573   8.039   3.796   5.766
  272POPC   C1B 3574   7.780   3.113   4.647
  272POPC   C2B 3575   7.988   3.001   5.010
  272POPC   C3B 3576   7.854   3.144   5.411
  272POPC   C4B 3577   8.094   3.289   5.786
  273POPC   NC3 3578   2.283   0.910   3.853
  273POPC   PO4 3579   2.345   1.625   3.886
  273POPC   GL1 3580   2.122   1.432   4.245
  273POPC   GL2 3581   2.006   1.126   4.263
  273POPC   C1A 3582   2.078   1.437   4.695
  273POPC   D2A 3583   2.363   1.383   5.039
  273POPC   C3A 3584   2.169   1.433   5.405
  273POPC   C4A 3585   2.320   1.454   5.795
  273POPC   C1B 3586   1.823   0.977   4.675
  273POPC   C2B 3587   1.929   1.050   5.111
  273POPC   C3B 3588   1.831   1.055   5.544
  273POPC   C4B 3589   1.720   1.383   5.677
  274POPC   NC3 3590   7.178   7.729   4.006
  274POPC   PO4 3591   7.544   8.236   3.880
  274POPC   GL1 3592   7.294   8.138   4.299
  274POPC   GL2 3593   7.351   7.815   4.484
  274POPC   C1A 3594   7.059   8.186   4.694
  274POPC   D2A 3595   7.278   8.277   5.062
  274POPC   C3A 3596   7.194   8.049   5.397
  274POPC   C4A 3597   7.305   8.163   5.747
  274POPC   C1B 3598   7.248   7.777   4.960
  274POPC   C2B 3599   6.920   7.633   5.287
  274POPC   C3B 3600   6.855   7.712   5.735
  274POPC   C4B 3601   6.745   7.566   6.180
  275POPC   NC3 3602   4.199   2.110   3.801
  275POPC   PO4 3603   4.549   1.638   4.096
  275POPC   GL1 3604   4.420   1.806   4.442
  275POPC   GL2 3605   4.122   1.912   4.279
  275POPC   C1A 3606   4.503   1.869   4.869
  275POPC   D2A 3607   4.509   1.875   5.314
  275POPC   C3A 3608   4.417   2.209   5.591
  275POPC   C4A 3609   4.227   2.072   5.963
  275POPC   C1B 3610   3.999   1.814   4.716
  275POPC   C2B 3611   4.071   1.658   5.130
  275POPC   C3B 3612   4.002   1.835   5.549
  275POPC   C4B 3613   3.769   1.760   5.922
  276POPC   NC3 3614   2.456   9.298   4.218
  276POPC   PO4 3615   1.949   9.380   3.765
  276POPC   GL1 3616   1.916   9.345   4.263
  276POPC   GL2 3617   1.661   9.102   4.288
  276POPC   C1A 3618   2.099   9.411   4.733
  276POPC   D2A 3619   2.366   9.338   5.092
  276POPC   C3A 3620   2.142   9.542   5.411
  276POPC   C4A 3621   2.024   9.483   5.796
  276POPC   C1B 3622   1.606   9.286   4.667
  276POPC   C2B 3623   1.698   9.531   5.028
  276POPC   C3B 3624   1.627   9.478   5.432
  276POPC   C4B 3625   1.624   9.187   5.737
  277POPC   NC3 3626   4.986   1.474   4.165
  277POPC   PO4 3627   4.939   0.950   3.730
  277POPC   GL1 3628   4.743   0.910   4.186
  277POPC   GL2 3629   4.554   1.182   4.338
  277POPC   C1A 3630   4.820   0.880   4.652
  277POPC   D2A 3631   4.635   0.866   5.042
  277POPC   C3A 3632   4.775   0.890   5.467
  277POPC   C4A 3633   4.493   1.042   5.797
  277POPC   C1B 3634   4.755   1.386   4.752
  277POPC   C2B 3635   4.945   1.276   5.146
  277POPC   C3B 3636   4.841   1.379   5.571
  277POPC   C4B 3637   5.082   1.530   5.893
  278POPC   NC3 3638   0.830   0.525   4.105
  278POPC   PO4 3639   0.223   0.837   3.973
  278POPC   GL1 3640   0.362   0.701   4.368
  278POPC   GL2 3641   0.186   0.396   4.342
  278POPC   C1A 3642   0.502   0.454   4.742
  278POPC   D2A 3643   0.760   0.431   5.100
  278POPC   C3A 3644   0.530   0.625   5.418
  278POPC   C4A 3645   0.451   0.576   5.837
  278POPC   C1B 3646  10.471   0.436   4.737
  278POPC   C2B 3647   0.136   0.431   5.158
  278POPC   C3B 3648   0.193   0.225   5.570
  278POPC   C4B 3649   0.102   0.270   6.051
  279POPC   NC3 3650   0.474   2.284   3.905
  279POPC   PO4 3651   0.676   1.707   4.168
  279POPC   GL1 3652   0.354   1.788   4.392
  279POPC   GL2 3653   0.491   2.146   4.410
  279POPC   C1A 3654   0.305   1.556   4.792
  279POPC   D2A 3655   0.239   1.375   5.202
  279POPC   C3A 3656   0.465   1.561   5.556
  279POPC   C4A 3657   0.212   1.660   5.913
  279POPC   C1B 3658   0.635   1.955   4.783
  279POPC   C2B 3659   0.438   1.894   5.146
  279POPC   C3B 3660   0.237   2.002   5.477
  279POPC   C4B 3661   0.483   2.050   5.802
  280POPC   NC3 3662   9.869   4.338   3.948
  280POPC   PO4 3663   0.047   3.973   4.037
  280POPC   GL1 3664  10.260   4.160   4.276
  280POPC   GL2 3665  10.001   3.966   4.361
  280POPC   C1A 3666  10.333   4.171   4.722
  280POPC   D2A 3667   0.077   4.265   5.072
  280POPC   C3A 3668  10.363   4.201   5.442
  280POPC   C4A 3669  10.367   4.460   5.801
  280POPC   C1B 3670   9.839   4.246   4.676
  280POPC   C2B 3671   9.640   4.254   5.075
  280POPC   C3B 3672   9.806   4.279   5.462
  280POPC   C4B 3673  10.001   4.105   5.786
  281POPC   NC3 3674   2.560   6.469   3.924
  281POPC   PO4 3675   2.904   6.900   3.985
  281POPC   GL1 3676   2.831   6.598   4.348
  281POPC   GL2 3677   2.638   6.256   4.382
  281POPC   C1A 3678   2.933   6.496   4.787
  281POPC   D2A 3679   2.810   6.418   5.204
  281POPC   C3A 3680   3.050   6.475   5.584
  281POPC   C4A 3681   2.952   6.678   5.974
  281POPC   C1B 3682   2.402   6.307   4.793
  281POPC   C2B 3683   2.328   6.266   5.244
  281POPC   C3B 3684   2.575   6.241   5.612
  281POPC   C4B 3685   2.620   5.891   5.896
  282POPC   NC3 3686   2.451  10.324   3.986
  282POPC   PO4 3687   2.273   9.732   4.188
  282POPC   GL1 3688   2.637   9.930   4.375
  282POPC   GL2 3689   2.795  10.266   4.353
  282POPC   C1A 3690   2.559  10.069   4.790
  282POPC   D2A 3691   2.397   9.895   5.137
  282POPC   C3A 3692   2.595  10.085   5.517
  282POPC   C4A 3693   2.508  10.199   5.940
  282POPC   C1B 3694   2.800  10.495   4.754
  282POPC   C2B 3695   2.710  10.451   5.171
  282POPC   C3B 3696   2.982  10.447   5.526
  282POPC   C4B 3697   2.995  10.412   5.977
  283POPC   NC3 3698   5.365   0.678   3.994
  283POPC   PO4 3699   6.005   0.901   3.921
  283POPC   GL1 3700   5.853   0.532   4.292
  283POPC   GL2 3701   5.594   0.221   4.344
  283POPC   C1A 3702   5.737   0.433   4.770
  283POPC   D2A 3703   5.616   0.681   5.134
  283POPC   C3A 3704   5.841   0.714   5.498
  283POPC   C4A 3705   5.852   0.472   5.907
  283POPC   C1B 3706   5.277   0.170   4.714
  283POPC   C2B 3707   5.435   0.163   5.111
  283POPC   C3B 3708   5.545   0.302   5.502
  283POPC   C4B 3709   5.402   0.231   5.903
  284POPC   NC3 3710   4.518   1.163   3.775
  284POPC   PO4 3711   3.889   0.891   4.022
  284POPC   GL1 3712   4.007   1.030   4.384
  284POPC   GL2 3713   4.097   1.393   4.447
  284POPC   C1A 3714   3.830   0.889   4.736
  284POPC   D2A 3715   3.877   1.136   5.098
  284POPC   C3A 3716   4.088   1.034   5.462
  284POPC   C4A 3717   3.966   0.869   5.847
  284POPC   C1B 3718   4.283   1.207   4.799
  284POPC   C2B 3719   4.448   1.321   5.194
  284POPC   C3B 3720   4.336   1.469   5.577
  284POPC   C4B 3721   4.240   1.563   5.987
  285POPC   NC3 3722   3.223   5.228   4.028
  285POPC   PO4 3723   2.656   5.356   3.818
  285POPC   GL1 3724   2.402   5.332   4.218
  285POPC   GL2 3725   2.323   5.684   4.322
  285POPC   C1A 3726   2.391   5.283   4.682
  285POPC   D2A 3727   2.518   5.460   5.063
  285POPC   C3A 3728   2.761   5.426   5.413
  285POPC   C4A 3729   2.722   5.395   5.829
  285POPC   C1B 3730   2.587   5.805   4.668
  285POPC   C2B 3731   2.694   5.935   5.108
  285POPC   C3B 3732   2.947   5.923   5.490
  285POPC   C4B 3733   3.183   5.630   5.746
  286POPC   NC3 3734   4.810   9.382   3.890
  286POPC   PO4 3735   5.138   9.849   4.064
  286POPC   GL1 3736   4.833   9.643   4.329
  286POPC   GL2 3737   4.896   9.264   4.378
  286POPC   C1A 3738   4.513   9.653   4.675
  286POPC   D2A 3739   4.550   9.565   5.134
  286POPC   C3A 3740   4.660   9.686   5.571
  286POPC   C4A 3741   4.623   9.692   6.038
  286POPC   C1B 3742   4.900   9.331   4.812
  286POPC   C2B 3743   4.931   9.094   5.183
  286POPC   C3B 3744   5.173   9.109   5.552
  286POPC   C4B 3745   4.904   9.313   5.836
  287POPC   NC3 3746   7.861   5.223   3.769
  287POPC   PO4 3747   7.892   5.806   3.911
  287POPC   GL1 3748   7.949   5.593   4.300
  287POPC   GL2 3749   8.249   5.680   4.434
  287POPC   C1A 3750   7.830   5.660   4.746
  287POPC   D2A 3751   8.010   5.589   5.200
  287POPC   C3A 3752   7.705   5.713   5.559
  287POPC   C4A 3753   7.481   5.563   5.956
  287POPC   C1B 3754   8.346   5.817   4.838
  287POPC   C2B 3755   8.527   5.713   5.232
  287POPC   C3B 3756   8.350   5.530   5.597
  287POPC   C4B 3757   8.101   5.754   5.862
  288POPC   NC3 3758   9.793   9.290   3.794
  288POPC   PO4 3759  10.488   9.105   3.903
  288POPC   GL1 3760  10.252   9.166   4.264
  288POPC   GL2 3761  10.066   9.495   4.250
  288POPC   C1A 3762  10.204   9.040   4.685
  288POPC   D2A 3763  10.154   9.198   5.084
  288POPC   C3A 3764  10.249   8.993   5.451
  288POPC   C4A 3765  10.186   9.115   5.881
  288POPC   C1B 3766  10.297   9.552   4.657
  288POPC   C2B 3767  10.275   9.702   5.085
  288POPC   C3B 3768  10.250   9.524   5.495
  288POPC   C4B 3769   9.944   9.587   5.811
  289POPC   NC3 3770   9.274   9.097   4.125
  289POPC   PO4 3771   9.439   9.608   3.785
  289POPC   GL1 3772   9.559   9.528   4.265
  289POPC   GL2 3773   9.544   9.792   4.501
  289POPC   C1A 3774   9.799   9.419   4.735
  289POPC   D2A 3775   9.783   9.502   5.230
  289POPC   C3A 3776   9.777   9.176   5.566
  289POPC   C4A 3777   9.716   9.196   6.072
  289POPC   C1B 3778   9.288   9.418   4.704
  289POPC   C2B 3779   9.087   9.193   5.035
  289POPC   C3B 3780   9.236   9.368   5.393
  289POPC   C4B 3781   9.416   9.464   5.744
  290POPC   NC3 3782   8.859   9.608   3.941
  290POPC   PO4 3783   8.715   8.992   4.097
  290POPC   GL1 3784   8.853   9.306   4.377
  290POPC   GL2 3785   8.523   9.423   4.336
  290POPC   C1A 3786   8.781   9.536   4.780
  290POPC   D2A 3787   8.756   9.544   5.249
  290POPC   C3A 3788   8.987   9.789   5.510
  290POPC   C4A 3789   9.049   9.736   5.940
  290POPC   C1B 3790   8.453   9.120   4.677
  290POPC   C2B 3791   8.579   9.005   5.109
  290POPC   C3B 3792   8.811   9.072   5.466
  290POPC   C4B 3793   8.727   9.365   5.760
  291POPC   NC3 3794   2.476   4.922   3.869
  291POPC   PO4 3795   3.160   4.777   4.007
  291POPC   GL1 3796   2.825   5.004   4.235
  291POPC   GL2 3797   2.534   4.850   4.369
  291POPC   C1A 3798   2.881   5.205   4.630
  291POPC   D2A 3799   2.829   5.046   5.052
  291POPC   C3A 3800   3.113   5.033   5.414
  291POPC   C4A 3801   3.082   5.001   5.867
  291POPC   C1B 3802   2.349   4.767   4.753
  291POPC   C2B 3803   2.365   4.926   5.170
  291POPC   C3B 3804   2.636   4.914   5.552
  291POPC   C4B 3805   2.512   4.968   5.975
  292POPC   NC3 3806  10.232   8.707   3.859
  292POPC   PO4 3807   9.644   8.636   3.675
  292POPC   GL1 3808   9.889   8.567   4.191
  292POPC   GL2 3809  10.219   8.637   4.342
  292POPC   C1A 3810   9.874   8.631   4.698
  292POPC   D2A 3811  10.062   8.680   5.060
  292POPC   C3A 3812   9.842   8.691   5.434
  292POPC   C4A 3813   9.732   8.742   5.842
  292POPC   C1B 3814  10.302   8.305   4.617
  292POPC   C2B 3815  10.459   8.345   5.021
  292POPC   C3B 3816  10.292   8.430   5.428
  292POPC   C4B 3817  10.213   8.598   5.782
  293POPC   NC3 3818   8.291   9.098   3.943
  293POPC   PO4 3819   7.704   9.464   3.736
  293POPC   GL1 3820   7.691   9.358   4.194
  293POPC   GL2 3821   8.014   9.263   4.328
  293POPC   C1A 3822   7.652   9.351   4.673
  293POPC   D2A 3823   7.821   9.476   5.094
  293POPC   C3A 3824   7.666   9.296   5.469
  293POPC   C4A 3825   7.493   9.440   5.831
  293POPC   C1B 3826   8.137   9.551   4.651
  293POPC   C2B 3827   8.322   9.460   5.033
  293POPC   C3B 3828   8.261   9.342   5.448
  293POPC   C4B 3829   8.008   9.549   5.752
  294POPC   NC3 3830   0.987   8.551   3.870
  294POPC   PO4 3831   1.469   8.202   3.981
  294POPC   GL1 3832   1.289   8.435   4.297
  294POPC   GL2 3833   1.249   8.793   4.229
  294POPC   C1A 3834   1.168   8.370   4.720
  294POPC   D2A 3835   1.016   8.556   5.101
  294POPC   C3A 3836   0.892   8.334   5.475
  294POPC   C4A 3837   0.949   8.602   5.822
  294POPC   C1B 3838   1.396   8.821   4.642
  294POPC   C2B 3839   1.525   8.641   5.005
  294POPC   C3B 3840   1.468   8.573   5.423
  294POPC   C4B 3841   1.433   8.740   5.813
  295POPC   NC3 3842   1.455   0.959   4.122
  295POPC   PO4 3843   1.105   1.421   3.743
  295POPC   GL1 3844   1.082   1.404   4.225
  295POPC   GL2 3845   1.111   1.135   4.427
  295POPC   C1A 3846   1.033   1.554   4.700
  295POPC   D2A 3847   0.774   1.508   5.084
  295POPC   C3A 3848   1.002   1.427   5.481
  295POPC   C4A 3849   1.062   1.410   5.916
  295POPC   C1B 3850   1.345   1.123   4.813
  295POPC   C2B 3851   1.441   1.263   5.231
  295POPC   C3B 3852   1.318   1.062   5.604
  295POPC   C4B 3853   1.244   0.838   5.912
  296POPC   NC3 3854   8.000   1.673   3.942
  296POPC   PO4 3855   7.428   1.620   4.126
  296POPC   GL1 3856   7.727   1.776   4.366
  296POPC   GL2 3857   7.767   2.122   4.243
  296POPC   C1A 3858   7.953   1.621   4.717
  296POPC   D2A 3859   7.987   1.419   5.119
  296POPC   C3A 3860   7.950   1.708   5.468
  296POPC   C4A 3861   7.759   1.930   5.807
  296POPC   C1B 3862   7.843   2.141   4.700
  296POPC   C2B 3863   8.026   1.996   5.070
  296POPC   C3B 3864   7.936   2.206   5.431
  296POPC   C4B 3865   8.005   2.386   5.805
  297POPC   NC3 3866   2.505   1.961   3.618
  297POPC   PO4 3867   3.016   2.039   4.027
  297POPC   GL1 3868   2.667   2.039   4.285
  297POPC   GL2 3869   2.498   1.737   4.363
  297POPC   C1A 3870   2.566   2.208   4.694
  297POPC   D2A 3871   2.733   2.373   5.058
  297POPC   C3A 3872   2.579   2.315   5.464
  297POPC   C4A 3873   2.550   2.300   5.916
  297POPC   C1B 3874   2.638   1.714   4.746
  297POPC   C2B 3875   2.616   1.870   5.141
  297POPC   C3B 3876   2.753   1.688   5.492
  297POPC   C4B 3877   2.747   1.822   5.864
  298POPC   NC3 3878  10.417   0.128   4.017
  298POPC   PO4 3879  10.229   9.906   3.919
  298POPC   GL1 3880  10.316  10.114   4.277
  298POPC   GL2 3881   9.966  10.201   4.263
  298POPC   C1A 3882  10.470  10.045   4.718
  298POPC   D2A 3883   0.068  10.136   5.147
  298POPC   C3A 3884  10.362  10.296   5.503
  298POPC   C4A 3885  10.365   9.948   5.788
  298POPC   C1B 3886   9.977   9.977   4.659
  298POPC   C2B 3887   9.983  10.125   5.074
  298POPC   C3B 3888   9.948   9.990   5.496
  298POPC   C4B 3889   9.925  10.329   5.821
  299POPC   NC3 3890   1.006   9.524   3.817
  299POPC   PO4 3891   0.803   8.949   3.970
  299POPC   GL1 3892   0.942   9.202   4.306
  299POPC   GL2 3893   1.222   9.414   4.295
  299POPC   C1A 3894   1.074   9.210   4.736
  299POPC   D2A 3895   1.338   9.142   5.077
  299POPC   C3A 3896   1.129   9.303   5.406
  299POPC   C4A 3897   1.045   9.090   5.769
  299POPC   C1B 3898   1.301   9.684   4.666
  299POPC   C2B 3899   1.301   9.867   5.090
  299POPC   C3B 3900   1.245   9.802   5.496
  299POPC   C4B 3901   1.277   9.535   5.834
  300POPC   NC3 3902   8.005   0.441   3.898
  300POPC   PO4 3903   8.507  10.454   3.927
  300POPC   GL1 3904   8.415   0.294   4.249
  300POPC   GL2 3905   8.194   0.584   4.346
  300POPC   C1A 3906   8.262   0.193   4.675
  300POPC   D2A 3907   8.175   0.415   5.045
  300POPC   C3A 3908   8.297   0.229   5.429
  300POPC   C4A 3909   8.097   0.083   5.776
  300POPC   C1B 3910   7.849   0.581   4.648
  300POPC   C2B 3911   7.678   0.474   5.080
  300POPC   C3B 3912   7.836   0.435   5.479
  300POPC   C4B 3913   7.906   0.758   5.799
  301POPC   NC3 3914   4.076   8.776   3.841
  301POPC   PO4 3915   4.397   8.235   3.787
  301POPC   GL1 3916   4.358   8.489   4.191
  301POPC   GL2 3917   4.049   8.628   4.311
  301POPC   C1A 3918   4.466   8.579   4.632
  301POPC   D2A 3919   4.325   8.718   5.040
  301POPC   C3A 3920   4.389   8.537   5.446
  301POPC   C4A 3921   4.309   8.795   5.739
  301POPC   C1B 3922   3.968   8.819   4.681
  301POPC   C2B 3923   3.784   8.607   5.022
  301POPC   C3B 3924   3.908   8.692   5.435
  301POPC   C4B 3925   3.896   8.486   5.849
  302POPC   NC3 3926   9.962   3.656   3.976
  302POPC   PO4 3927   0.049   3.335   3.841
  302POPC   GL1 3928  10.402   3.535   4.261
  302POPC   GL2 3929  10.070   3.412   4.407
  302POPC   C1A 3930  10.408   3.674   4.730
  302POPC   D2A 3931  10.254   3.497   5.144
  302POPC   C3A 3932  10.323   3.672   5.570
  302POPC   C4A 3933  10.447   3.364   5.921
  302POPC   C1B 3934   9.896   3.669   4.749
  302POPC   C2B 3935  10.014   3.933   5.097
  302POPC   C3B 3936   9.827   3.748   5.459
  302POPC   C4B 3937   9.930   3.372   5.666
  303POPC   NC3 3938   0.883   6.386   3.739
  303POPC   PO4 3939   1.453   6.127   3.893
  303POPC   GL1 3940   1.427   6.238   4.300
  303POPC   GL2 3941   1.171   6.505   4.250
  303POPC   C1A 3942   1.450   6.363   4.711
  303POPC   D2A 3943   1.343   6.116   5.045
  303POPC   C3A 3944   1.407   6.298   5.409
  303POPC   C4A 3945   1.350   6.103   5.778
  303POPC   C1B 3946   0.966   6.542   4.675
  303POPC   C2B 3947   0.998   6.485   5.147
  303POPC   C3B 3948   0.979   6.501   5.638
  303POPC   C4B 3949   0.811   6.620   6.081
  304POPC   NC3 3950   9.992   5.897   4.062
  304POPC   PO4 3951   0.060   5.648   3.789
  304POPC   GL1 3952  10.341   5.528   4.264
  304POPC   GL2 3953  10.030   5.476   4.315
  304POPC   C1A 3954  10.221   5.717   4.719
  304POPC   D2A 3955   0.026   5.860   5.006
  304POPC   C3A 3956  10.380   5.657   5.353
  304POPC   C4A 3957  10.492   5.593   5.745
  304POPC   C1B 3958   9.781   5.436   4.695
  304POPC   C2B 3959   9.923   5.490   5.102
  304POPC   C3B 3960   9.830   5.561   5.503
  304POPC   C4B 3961  10.039   5.835   5.673
  305POPC   NC3 3962   8.370   4.772   3.894
  305POPC   PO4 3963   9.077   4.722   4.025
  305POPC   GL1 3964   8.799   4.685   4.343
  305POPC   GL2 3965   8.753   5.048   4.327
  305POPC   C1A 3966   8.873   4.602   4.777
  305POPC   D2A 3967   8.746   4.795   5.181
  305POPC   C3A 3968   8.773   4.811   5.607
  305POPC   C4A 3969   8.946   4.526   5.860
  305POPC   C1B 3970   8.584   5.009   4.753
  305POPC   C2B 3971   8.411   5.177   5.189
  305POPC   C3B 3972   8.318   5.020   5.598
  305POPC   C4B 3973   8.384   5.181   6.016
  306POPC   NC3 3974   1.052   2.969   3.741
  306POPC   PO4 3975   0.907   2.314   4.101
  306POPC   GL1 3976   0.947   2.397   4.442
  306POPC   GL2 3977   1.255   2.472   4.522
  306POPC   C1A 3978   0.772   2.447   4.787
  306POPC   D2A 3979   0.861   2.727   5.079
  306POPC   C3A 3980   1.068   2.622   5.448
  306POPC   C4A 3981   0.836   2.371   5.644
  306POPC   C1B 3982   1.292   2.489   4.973
  306POPC   C2B 3983   1.360   2.895   5.124
  306POPC   C3B 3984   1.380   3.031   5.508
  306POPC   C4B 3985   1.308   2.924   5.920
  307POPC   NC3 3986   7.998   8.143   3.905
  307POPC   PO4 3987   7.628   7.475   3.883
  307POPC   GL1 3988   7.864   7.730   4.230
  307POPC   GL2 3989   7.795   8.052   4.351
  307POPC   C1A 3990   8.094   7.729   4.659
  307POPC   D2A 3991   8.029   7.598   5.091
  307POPC   C3A 3992   8.122   7.803   5.473
  307POPC   C4A 3993   8.266   7.811   5.892
  307POPC   C1B 3994   7.690   8.031   4.782
  307POPC   C2B 3995   7.688   7.981   5.196
  307POPC   C3B 3996   7.625   7.798   5.561
  307POPC   C4B 3997   7.815   8.098   5.756
  308POPC   NC3 3998   4.319   7.811   3.919
  308POPC   PO4 3999   3.826   8.385   3.890
  308POPC   GL1 4000   3.963   8.127   4.250
  308POPC   GL2 4001   4.047   7.768   4.326
  308POPC   C1A 4002   4.032   8.277   4.676
  308POPC   D2A 4003   4.193   8.245   5.074
  308POPC   C3A 4004   4.055   8.169   5.483
  308POPC   C4A 4005   4.167   8.070   5.945
  308POPC   C1B 4006   4.224   7.799   4.766
  308POPC   C2B 4007   4.220   7.750   5.189
  308POPC   C3B 4008   4.328   7.746   5.595
  308POPC   C4B 4009   3.954   7.540   5.761
  309POPC   NC3 4010   0.831  10.239   3.904
  309POPC   PO4 4011   1.294   9.819   4.001
  309POPC   GL1 4012   1.029   9.967   4.305
  309POPC   GL2 4013   1.110  10.347   4.338
  309POPC   C1A 4014   0.984  10.074   4.742
  309POPC   D2A 4015   0.804  10.156   5.121
  309POPC   C3A 4016   0.746   9.849   5.425
  309POPC   C4A 4017   0.876   9.826   5.838
  309POPC   C1B 4018   1.140   0.091   4.761
  309POPC   C2B 4019   1.116   0.066   5.231
  309POPC   C3B 4020   1.037  10.266   5.587
  309POPC   C4B 4021   1.305  10.110   5.926
  310POPC   NC3 4022   3.397   8.801   3.908
  310POPC   PO4 4023   3.167   8.283   3.637
  310POPC   GL1 4024   3.409   8.391   4.186
  310POPC   GL2 4025   3.548   8.745   4.377
  310POPC   C1A 4026   3.506   8.326   4.643
  310POPC   D2A 4027   3.310   8.311   5.049
  310POPC   C3A 4028   3.530   8.369   5.413
  310POPC   C4A 4029   3.359   8.419   5.793
  310POPC   C1B 4030   3.298   8.802   4.773
  310POPC   C2B 4031   3.270   8.811   5.196
  310POPC   C3B 4032   3.330   9.035   5.519
  310POPC   C4B 4033   3.575   8.877   5.788
  311POPC   NC3 4034   8.677   2.925   3.929
  311POPC   PO4 4035   9.107   2.411   3.909
  311POPC   GL1 4036   8.908   2.480   4.293
  311POPC   GL2 4037   8.559   2.576   4.290
  311POPC   C1A 4038   8.785   2.381   4.715
  311POPC   D2A 4039   9.041   2.456   5.080
  311POPC   C3A 4040   8.925   2.464   5.497
  311POPC   C4A 4041   8.822   2.473   5.944
  311POPC   C1B 4042   8.572   2.834   4.684
  311POPC   C2B 4043   8.573   2.680   5.135
  311POPC   C3B 4044   8.602   2.836   5.566
  311POPC   C4B 4045   8.367   2.869   5.898
  312POPC   NC3 4046   8.886   2.002   3.859
  312POPC   PO4 4047   8.431   1.491   3.943
  312POPC   GL1 4048   8.368   1.809   4.293
  312POPC   GL2 4049   8.673   2.017   4.325
  312POPC   C1A 4050   8.347   2.063   4.689
  312POPC   D2A 4051   8.531   2.157   5.089
  312POPC   C3A 4052   8.395   1.968   5.452
  312POPC   C4A 4053   8.456   2.335   5.643
  312POPC   C1B 4054   8.823   1.809   4.718
  312POPC   C2B 4055   8.970   1.902   5.157
  312POPC   C3B 4056   8.881   1.957   5.593
  312POPC   C4B 4057   8.992   1.721   5.960
  313POPC   NC3 4058   7.901   4.275   4.085
  313POPC   PO4 4059   8.453   4.345   3.709
  313POPC   GL1 4060   8.409   4.372   4.193
  313POPC   GL2 4061   8.610   4.129   4.298
  313POPC   C1A 4062   8.415   4.411   4.670
  313POPC   D2A 4063   8.598   4.299   5.076
  313POPC   C3A 4064   8.477   4.430   5.494
  313POPC   C4A 4065   8.408   4.176   5.827
  313POPC   C1B 4066   8.891   4.103   4.639
  313POPC   C2B 4067   9.001   3.991   5.042
  313POPC   C3B 4068   8.912   4.168   5.459
  313POPC   C4B 4069   8.946   4.011   5.827
  314POPC   NC3 4070   3.494   8.036   3.844
  314POPC   PO4 4071   2.928   8.284   4.120
  314POPC   GL1 4072   3.146   7.929   4.293
  314POPC   GL2 4073   3.504   7.878   4.312
  314POPC   C1A 4074   3.248   7.894   4.751
  314POPC   D2A 4075   3.285   7.741   5.154
  314POPC   C3A 4076   3.256   7.966   5.542
  314POPC   C4A 4077   2.963   8.090   5.822
  314POPC   C1B 4078   3.731   7.863   4.680
  314POPC   C2B 4079   3.738   8.016   5.059
  314POPC   C3B 4080   3.716   7.806   5.419
  314POPC   C4B 4081   3.693   8.026   5.805
  315POPC   NC3 4082   2.789   8.019   3.774
  315POPC   PO4 4083   2.278   8.456   3.959
  315POPC   GL1 4084   2.462   8.297   4.318
  315POPC   GL2 4085   2.553   7.935   4.240
  315POPC   C1A 4086   2.395   8.170   4.727
  315POPC   D2A 4087   2.433   8.305   5.128
  315POPC   C3A 4088   2.450   8.113   5.455
  315POPC   C4A 4089   2.206   8.037   5.776
  315POPC   C1B 4090   2.771   7.865   4.627
  315POPC   C2B 4091   2.864   8.042   5.044
  315POPC   C3B 4092   2.820   7.792   5.391
  315POPC   C4B 4093   2.613   7.730   5.762
  316POPC   NC3 4094   0.303   2.929   3.819
  316POPC   PO4 4095   0.782   2.566   3.666
  316POPC   GL1 4096   0.708   2.761   4.111
  316POPC   GL2 4097   0.406   2.644   4.270
  316POPC   C1A 4098   0.737   2.888   4.556
  316POPC   D2A 4099   0.439   2.962   4.919
  316POPC   C3A 4100   0.465   2.904   5.365
  316POPC   C4A 4101   0.644   2.812   5.778
  316POPC   C1B 4102   0.267   2.523   4.704
  316POPC   C2B 4103   0.409   2.423   5.154
  316POPC   C3B 4104   0.316   2.478   5.600
  316POPC   C4B 4105   0.163   2.526   6.024
  317POPC   NC3 4106   2.054   2.662   3.909
  317POPC   PO4 4107   1.537   2.196   4.028
  317POPC   GL1 4108   1.706   2.526   4.299
  317POPC   GL2 4109   2.023   2.610   4.405
  317POPC   C1A 4110   1.669   2.713   4.735
  317POPC   D2A 4111   1.781   2.547   5.166
  317POPC   C3A 4112   1.591   2.548   5.566
  317POPC   C4A 4113   1.782   2.872   5.779
  317POPC   C1B 4114   2.135   2.455   4.799
  317POPC   C2B 4115   2.285   2.639   5.161
  317POPC   C3B 4116   2.155   2.580   5.576
  317POPC   C4B 4117   2.096   2.486   5.997
  318POPC   NC3 4118  10.224   1.920   3.852
  318POPC   PO4 4119   0.044   2.554   3.901
  318POPC   GL1 4120   0.012   2.160   4.233
  318POPC   GL2 4121  10.166   1.998   4.366
  318POPC   C1A 4122   0.056   2.046   4.717
  318POPC   D2A 4123  10.427   1.783   5.095
  318POPC   C3A 4124  10.241   1.943   5.478
  318POPC   C4A 4125  10.307   2.366   5.653
  318POPC   C1B 4126   9.968   1.915   4.807
  318POPC   C2B 4127   9.914   2.191   5.175
  318POPC   C3B 4128   9.800   2.146   5.626
  318POPC   C4B 4129   9.965   1.900   5.944
  319POPC   NC3 4130   7.830   6.270   3.894
  319POPC   PO4 4131   8.175   6.785   3.613
  319POPC   GL1 4132   8.159   6.832   4.185
  319POPC   GL2 4133   8.168   6.476   4.261
  319POPC   C1A 4134   7.972   6.804   4.617
  319POPC   D2A 4135   7.898   6.557   4.988
  319POPC   C3A 4136   8.103   6.601   5.392
  319POPC   C4A 4137   7.946   6.785   5.781
  319POPC   C1B 4138   8.030   6.168   4.598
  319POPC   C2B 4139   7.913   6.056   5.040
  319POPC   C3B 4140   8.134   6.035   5.429
  319POPC   C4B 4141   7.980   6.256   5.765
  320POPC   NC3 4142   5.049  10.242   3.837
  320POPC   PO4 4143   4.476   0.087   3.929
  320POPC   GL1 4144   4.606  10.397   4.335
  320POPC   GL2 4145   4.923  10.221   4.346
  320POPC   C1A 4146   4.744  10.394   4.780
  320POPC   D2A 4147   4.976  10.443   5.130
  320POPC   C3A 4148   4.828  10.147   5.420
  320POPC   C4A 4149   4.623  10.181   5.813
  320POPC   C1B 4150   4.938   9.922   4.734
  320POPC   C2B 4151   5.036   9.735   5.115
  320POPC   C3B 4152   5.237   9.772   5.492
  320POPC   C4B 4153   5.061   9.919   5.866
  321POPC   NC3 4154   7.715   2.745   3.724
  321POPC   PO4 4155   8.234   3.073   3.907
  321POPC   GL1 4156   8.132   2.907   4.305
  321POPC   GL2 4157   7.838   2.713   4.243
  321POPC   C1A 4158   8.156   2.570   4.630
  321POPC   D2A 4159   8.068   2.495   5.047
  321POPC   C3A 4160   8.123   2.721   5.445
  321POPC   C4A 4161   7.827   2.853   5.821
  321POPC   C1B 4162   7.652   2.613   4.661
  321POPC   C2B 4163   7.536   2.411   5.045
  321POPC   C3B 4164   7.626   2.593   5.428
  321POPC   C4B 4165   7.511   2.427   5.799
  322POPC   NC3 4166   3.775   2.858   3.986
  322POPC   PO4 4167   3.254   2.609   4.033
  322POPC   GL1 4168   3.417   2.465   4.439
  322POPC   GL2 4169   3.734   2.678   4.450
  322POPC   C1A 4170   3.699   2.298   4.758
  322POPC   D2A 4171   3.899   2.643   4.982
  322POPC   C3A 4172   3.672   2.714   5.387
  322POPC   C4A 4173   3.432   2.412   5.662
  322POPC   C1B 4174   3.395   2.943   4.616
  322POPC   C2B 4175   3.260   3.086   5.011
  322POPC   C3B 4176   3.071   3.083   5.415
  322POPC   C4B 4177   3.283   2.914   5.721
  323POPC   NC3 4178   1.155   3.830   3.915
  323POPC   PO4 4179   1.420   4.467   3.893
  323POPC   GL1 4180   1.164   4.267   4.197
  323POPC   GL2 4181   0.967   4.002   4.369
  323POPC   C1A 4182   1.318   4.338   4.605
  323POPC   D2A 4183   1.220   4.522   4.992
  323POPC   C3A 4184   1.189   4.312   5.379
  323POPC   C4A 4185   1.111   4.412   5.796
  323POPC   C1B 4186   0.876   4.175   4.768
  323POPC   C2B 4187   1.231   3.999   4.984
  323POPC   C3B 4188   1.488   3.892   5.330
  323POPC   C4B 4189   1.278   3.932   5.738
  324POPC   NC3 4190   9.476   8.368   4.009
  324POPC   PO4 4191   9.752   9.059   4.175
  324POPC   GL1 4192   9.489   8.776   4.413
  324POPC   GL2 4193   9.469   8.468   4.473
  324POPC   C1A 4194   9.400   8.895   4.769
  324POPC   D2A 4195   9.642   9.021   5.076
  324POPC   C3A 4196   9.372   8.884   5.370
  324POPC   C4A 4197   9.290   8.973   5.741
  324POPC   C1B 4198   9.342   8.383   4.771
  324POPC   C2B 4199   9.523   8.495   5.085
  324POPC   C3B 4200   9.437   8.381   5.488
  324POPC   C4B 4201   9.329   8.450   5.866
  325POPC   NC3 4202   5.694   1.296   3.885
  325POPC   PO4 4203   5.209   1.069   4.186
  325POPC   GL1 4204   5.636   0.986   4.323
  325POPC   GL2 4205   5.943   1.219   4.327
  325POPC   C1A 4206   5.828   0.940   4.739
  325POPC   D2A 4207   5.998   1.254   5.035
  325POPC   C3A 4208   5.840   1.232   5.469
  325POPC   C4A 4209   5.929   0.991   5.900
  325POPC   C1B 4210   5.605   1.394   4.624
  325POPC   C2B 4211   5.454   1.308   5.058
  325POPC   C3B 4212   5.323   1.136   5.478
  325POPC   C4B 4213   5.519   1.290   5.853
  326POPC   NC3 4214  10.381   1.138   3.884
  326POPC   PO4 4215   0.174   1.782   3.790
  326POPC   GL1 4216  10.425   1.574   4.186
  326POPC   GL2 4217  10.224   1.232   4.331
  326POPC   C1A 4218  10.329   1.595   4.628
  326POPC   D2A 4219  10.289   1.302   4.952
  326POPC   C3A 4220  10.142   1.421   5.347
  326POPC   C4A 4221  10.273   1.518   5.757
  326POPC   C1B 4222  10.126   0.916   4.644
  326POPC   C2B 4223  10.117   0.683   5.035
  326POPC   C3B 4224   9.987   0.748   5.429
  326POPC   C4B 4225  10.117   1.048   5.732
  327POPC   NC3 4226   1.090   1.887   4.050
  327POPC   PO4 4227   1.608   1.405   4.158
  327POPC   GL1 4228   1.483   1.636   4.456
  327POPC   GL2 4229   1.377   1.958   4.443
  327POPC   C1A 4230   1.538   1.637   4.870
  327POPC   D2A 4231   1.239   1.762   5.181
  327POPC   C3A 4232   1.320   2.097   5.493
  327POPC   C4A 4233   1.394   1.747   5.733
  327POPC   C1B 4234   1.137   2.052   4.781
  327POPC   C2B 4235   0.913   2.162   5.168
  327POPC   C3B 4236   0.846   1.898   5.495
  327POPC   C4B 4237   0.994   1.980   5.927
  328POPC   NC3 4238   9.294   3.560   3.891
  328POPC   PO4 4239   9.851   3.194   3.969
  328POPC   GL1 4240   9.539   3.295   4.283
  328POPC   GL2 4241   9.560   3.647   4.348
  328POPC   C1A 4242   9.499   3.314   4.744
  328POPC   D2A 4243   9.750   3.295   5.117
  328POPC   C3A 4244   9.488   3.219   5.464
  328POPC   C4A 4245   9.592   3.058   5.874
  328POPC   C1B 4246   9.132   3.615   4.576
  328POPC   C2B 4247   9.046   3.480   5.029
  328POPC   C3B 4248   8.957   3.625   5.430
  328POPC   C4B 4249   9.237   3.557   5.742
  329POPC   NC3 4250   9.497   2.157   3.950
  329POPC   PO4 4251   9.070   1.597   4.025
  329POPC   GL1 4252   9.177   1.958   4.292
  329POPC   GL2 4253   9.484   1.819   4.359
  329POPC   C1A 4254   9.220   2.137   4.712
  329POPC   D2A 4255   9.448   2.047   5.066
  329POPC   C3A 4256   9.348   2.220   5.422
  329POPC   C4A 4257   9.254   2.183   5.845
  329POPC   C1B 4258   9.383   1.647   4.759
  329POPC   C2B 4259   9.566   1.574   5.187
  329POPC   C3B 4260   9.369   1.742   5.575
  329POPC   C4B 4261   9.484   1.757   6.054
  330POPC   NC3 4262   0.252   7.128   3.873
  330POPC   PO4 4263   0.029   6.543   3.894
  330POPC   GL1 4264   0.227   6.841   4.273
  330POPC   GL2 4265   0.368   7.177   4.378
  330POPC   C1A 4266   0.223   6.827   4.724
  330POPC   D2A 4267   0.463   6.986   5.084
  330POPC   C3A 4268   0.210   7.146   5.420
  330POPC   C4A 4269   0.365   7.069   5.818
  330POPC   C1B 4270   0.706   7.258   4.705
  330POPC   C2B 4271   0.885   7.364   5.091
  330POPC   C3B 4272   0.678   7.366   5.471
  330POPC   C4B 4273   0.652   7.495   5.870
  331POPC   NC3 4274   1.483   4.994   3.907
  331POPC   PO4 4275   2.082   4.850   4.096
  331POPC   GL1 4276   2.013   5.050   4.433
  331POPC   GL2 4277   1.684   5.021   4.388
  331POPC   C1A 4278   1.961   5.065   4.864
  331POPC   D2A 4279   2.040   5.359   5.134
  331POPC   C3A 4280   2.259   5.263   5.524
  331POPC   C4A 4281   2.026   5.106   5.884
  331POPC   C1B 4282   1.693   4.672   4.691
  331POPC   C2B 4283   1.619   4.789   5.130
  331POPC   C3B 4284   1.900   4.920   5.400
  331POPC   C4B 4285   2.188   4.686   5.616
  332POPC   NC3 4286   1.087   7.943   3.928
  332POPC   PO4 4287   0.602   7.441   4.004
  332POPC   GL1 4288   0.751   7.799   4.295
  332POPC   GL2 4289   1.089   7.957   4.412
  332POPC   C1A 4290   0.796   7.770   4.749
  332POPC   D2A 4291   1.021   7.989   5.024
  332POPC   C3A 4292   0.901   7.810   5.371
  332POPC   C4A 4293   1.062   7.807   5.749
  332POPC   C1B 4294   1.453   7.962   4.650
  332POPC   C2B 4295   1.539   8.124   5.049
  332POPC   C3B 4296   1.340   8.086   5.426
  332POPC   C4B 4297   1.353   8.231   5.831
  333POPC   NC3 4298  10.065   6.489   3.962
  333POPC   PO4 4299  10.422   6.001   4.196
  333POPC   GL1 4300  10.139   6.260   4.406
  333POPC   GL2 4301  10.290   6.584   4.391
  333POPC   C1A 4302  10.074   6.270   4.823
  333POPC   D2A 4303  10.061   6.014   5.178
  333POPC   C3A 4304  10.395   6.158   5.437
  333POPC   C4A 4305  10.230   6.259   5.805
  333POPC   C1B 4306  10.179   6.798   4.724
  333POPC   C2B 4307  10.026   6.701   5.127
  333POPC   C3B 4308  10.189   6.650   5.488
  333POPC   C4B 4309  10.459   6.717   5.818
  334POPC   NC3 4310   3.469   3.662   3.863
  334POPC   PO4 4311   3.961   3.309   3.935
  334POPC   GL1 4312   3.644   3.265   4.276
  334POPC   GL2 4313   3.285   3.407   4.282
  334POPC   C1A 4314   3.599   3.407   4.710
  334POPC   D2A 4315   3.465   3.552   5.110
  334POPC   C3A 4316   3.550   3.242   5.433
  334POPC   C4A 4317   3.671   3.269   5.870
  334POPC   C1B 4318   3.074   3.481   4.700
  334POPC   C2B 4319   2.913   3.460   5.118
  334POPC   C3B 4320   3.133   3.577   5.499
  334POPC   C4B 4321   3.574   3.717   5.611
  335POPC   NC3 4322  10.348   5.213   3.875
  335POPC   PO4 4323  10.277   4.480   3.828
  335POPC   GL1 4324  10.291   4.677   4.235
  335POPC   GL2 4325  10.271   5.011   4.316
  335POPC   C1A 4326  10.147   4.662   4.669
  335POPC   D2A 4327  10.102   4.468   5.065
  335POPC   C3A 4328  10.129   4.675   5.423
  335POPC   C4A 4329   9.954   4.788   5.775
  335POPC   C1B 4330  10.201   5.175   4.679
  335POPC   C2B 4331  10.096   5.021   5.062
  335POPC   C3B 4332  10.237   5.169   5.453
  335POPC   C4B 4333  10.123   5.276   5.834
  336POPC   NC3 4334   6.374   1.216   3.861
  336POPC   PO4 4335   6.745   1.765   3.623
  336POPC   GL1 4336   6.681   1.536   4.129
  336POPC   GL2 4337   6.586   1.158   4.300
  336POPC   C1A 4338   6.754   1.477   4.632
  336POPC   D2A 4339   6.557   1.248   4.984
  336POPC   C3A 4340   6.644   1.337   5.413
  336POPC   C4A 4341   6.663   1.108   5.843
  336POPC   C1B 4342   6.330   0.946   4.621
  336POPC   C2B 4343   6.256   0.794   5.058
  336POPC   C3B 4344   6.293   0.979   5.466
  336POPC   C4B 4345   6.248   1.360   5.745
  337POPC   NC3 4346   2.359   9.655   3.749
  337POPC   PO4 4347   2.752   9.159   3.884
  337POPC   GL1 4348   2.886   9.457   4.360
  337POPC   GL2 4349   2.971   9.205   4.574
  337POPC   C1A 4350   2.781   9.613   4.784
  337POPC   D2A 4351   2.897   9.826   5.152
  337POPC   C3A 4352   2.651   9.585   5.457
  337POPC   C4A 4353   2.479   9.698   5.848
  337POPC   C1B 4354   2.775   9.049   4.884
  337POPC   C2B 4355   2.812   9.055   5.286
  337POPC   C3B 4356   2.611   9.108   5.613
  337POPC   C4B 4357   2.929   9.239   5.823
  338POPC   NC3 4358   6.457   2.545   3.654
  338POPC   PO4 4359   6.433   3.104   4.028
  338POPC   GL1 4360   6.460   2.951   4.438
  338POPC   GL2 4361   6.404   2.609   4.364
  338POPC   C1A 4362   6.495   2.925   4.886
  338POPC   D2A 4363   6.198   2.651   5.113
  338POPC   C3A 4364   6.183   2.779   5.551
  338POPC   C4A 4365   6.472   2.888   5.961
  338POPC   C1B 4366   6.614   2.467   4.706
  338POPC   C2B 4367   6.607   2.338   5.104
  338POPC   C3B 4368   6.638   2.598   5.431
  338POPC   C4B 4369   6.557   2.430   5.810
  339POPC   NC3 4370   1.314   1.009   3.627
  339POPC   PO4 4371   1.299   0.490   4.099
  339POPC   GL1 4372   1.223   0.628   4.460
  339POPC   GL2 4373   1.563   0.548   4.548
  339POPC   C1A 4374   0.940   0.779   4.759
  339POPC   D2A 4375   1.035   0.907   5.191
  339POPC   C3A 4376   1.039   0.576   5.511
  339POPC   C4A 4377   0.778   0.210   5.615
  339POPC   C1B 4378   1.360   0.555   4.940
  339POPC   C2B 4379   1.528   0.745   5.255
  339POPC   C3B 4380   1.534   0.552   5.603
  339POPC   C4B 4381   1.392   0.128   5.674
  340POPC   NC3 4382   1.839   1.776   3.996
  340POPC   PO4 4383   2.333   2.263   3.928
  340POPC   GL1 4384   2.162   2.123   4.378
  340POPC   GL2 4385   1.928   1.884   4.455
  340POPC   C1A 4386   2.173   1.941   4.865
  340POPC   D2A 4387   2.135   2.149   5.245
  340POPC   C3A 4388   2.303   1.911   5.574
  340POPC   C4A 4389   2.274   1.900   6.021
  340POPC   C1B 4390   1.721   2.189   4.700
  340POPC   C2B 4391   1.617   2.087   5.076
  340POPC   C3B 4392   1.767   1.817   5.386
  340POPC   C4B 4393   1.868   2.093   5.729
  341POPC   NC3 4394   8.524   6.725   3.905
  341POPC   PO4 4395   9.137   6.883   3.891
  341POPC   GL1 4396   8.917   6.993   4.308
  341POPC   GL2 4397   8.720   7.284   4.446
  341POPC   C1A 4398   8.505   6.836   4.537
  341POPC   D2A 4399   8.362   6.774   4.952
  341POPC   C3A 4400   8.446   6.974   5.332
  341POPC   C4A 4401   8.431   6.969   5.772
  341POPC   C1B 4402   8.808   7.091   4.823
  341POPC   C2B 4403   8.993   7.095   5.142
  341POPC   C3B 4404   8.933   7.328   5.409
  341POPC   C4B 4405   8.874   7.190   5.786
  342W        W 4406   1.287   4.694  10.456
  343W        W 4407   6.560   2.885   1.424
  344W        W 4408   6.506   8.517   9.175
  345W        W 4409   2.635   8.747  11.379
  346W        W 4410   6.211   6.129   1.327
  347W        W 4411   8.621   1.960   1.222
  348W        W 4412   3.757   7.515  11.549
  349W        W 4413   3.851   1.825   1.716
  350W        W 4414   6.950   3.258   0.068
  351W        W 4415   3.765   7.461   2.334
  352W        W 4416   7.651   7.478   3.074
  353W        W 4417   7.255   2.906  10.933
  354W        W 4418   6.629   6.060   2.525
  355W        W 4419  10.428   4.076   2.349
  356W        W 4420   0.733   2.871  11.586
  357W        W 4421   2.107   0.947  11.408
  358W        W 4422   0.806   2.586   8.755
  359W        W 4423   3.849   2.357  10.516
  360W        W 4424   7.606   0.739  11.923
  361W        W 4425   7.980   6.279  10.360
  362W        W 4426   9.615   5.033   1.980
  363W        W 4427   2.662   7.885   2.251
  364W        W 4428   3.754   6.447  10.491
  365W        W 4429   3.644   8.963   2.269
  366W        W 4430   5.595   9.697   1.308
  367W        W 4431   2.551   8.900   9.185
  368W        W 4432   4.954   4.827   1.683
  369W        W 4433   6.094   7.999   0.896
  370W        W 4434   9.179   3.305   9.397
  371W        W 4435  10.267   4.676   1.623
  372W        W 4436   8.594   9.362   3.196
  373W        W 4437   9.810   1.694  10.521
  374W        W 4438   4.625   4.385  10.873
  375W        W 4439   2.845   9.545   0.901
  376W        W 4440   3.924   8.611  11.471
  377W        W 4441  10.425   0.162   9.886
  378W        W 4442   8.533   8.315  10.377
  379W        W 4443   2.303   4.349   3.396
  380W        W 4444   3.349   9.665   0.979
  381W        W 4445   1.143   4.470   1.803
  382W        W 4446   6.147   8.555  10.895
  383W        W 4447   1.659   6.043   3.397
  384W        W 4448   1.537   9.231   0.400
  385W        W 4449   0.424   1.203   3.119
  386W        W 4450   2.181   7.840  11.009
  387W        W 4451   6.801   9.038  10.336
  388W        W 4452   3.061   7.687  11.919
  389W        W 4453   6.087   7.789  10.617
  390W        W 4454   2.585   5.227   2.846
  391W        W 4455   6.625   8.437  11.114
  392W        W 4456   9.067   9.518   3.041
  393W        W 4457   4.646  10.253   0.035
  394W        W 4458   7.312   6.231   3.884
  395W        W 4459   3.592   4.129   2.680
  396W        W 4460   1.515   9.637   3.557
  397W        W 4461  10.209   9.580   0.151
  398W        W 4462   3.755   7.708   9.978
  399W        W 4463   7.505  10.485   1.389
  400W        W 4464   5.140   4.588   8.236
  401W        W 4465   0.316   9.549  10.112
  402W        W 4466   9.689   9.437   2.433
  403W        W 4467   6.031   3.978   1.263
  404W        W 4468   7.192   1.313  10.348
  405W        W 4469   8.389   7.649   0.766
  406W        W 4470   3.788   0.258  10.069
  407W        W 4471   9.324   4.415   3.085
  408W        W 4472   2.363   3.237   9.354
  409W        W 4473   7.898   4.490  10.884
  410W        W 4474   7.938   7.614   3.491
  411W        W 4475   5.619   6.979   0.438
  412W        W 4476   9.086   9.159   2.167
  413W        W 4477   5.616   7.323   1.873
  414W        W 4478   8.426   6.226   8.628
  415W        W 4479   1.090   9.218   9.644
  416W        W 4480   8.055  10.169  10.214
  417W        W 4481   1.909  10.429   3.294
  418W        W 4482   7.907   0.947   2.289
  419W        W 4483   6.881   4.665   0.033
  420W        W 4484   8.863   3.496   2.371
  421W        W 4485   1.697   2.023   2.288
  422W        W 4486   9.681   8.352   0.805
  423W        W 4487   5.452   7.463  10.002
  424W        W 4488   1.329   7.450  10.916
  425W        W 4489   6.058   4.756  11.452
  426W        W 4490   0.925   9.549   0.421
  427W        W 4491   1.359   9.886   2.403
  428W        W 4492   4.130   4.515   0.211
  429W        W 4493   4.083   9.456   9.876
  430W        W 4494   4.815   3.211  10.301
  431W        W 4495   5.131   7.934   8.974
  432W        W 4496   6.053   9.979   2.742
  433W        W 4497   8.872   4.816  11.814
  434W        W 4498   0.847   7.548   3.105
  435W        W 4499   0.849   4.951   2.646
  436W        W 4500   4.367  10.399  10.014
  437W        W 4501   3.846   0.446  11.453
  438W        W 4502   0.013   6.995  11.323
  439W        W 4503   8.433   3.154   8.855
  440W        W 4504   3.621   6.438   3.654
  441W        W 4505   4.262   8.475   0.752
  442W        W 4506   4.275   8.842  11.111
  443W        W 4507   1.928   5.609   3.344
  444W        W 4508   7.595   8.585   1.265
  445W        W 4509   5.003   7.204   4.101
  446W        W 4510   6.448   9.798  11.488
  447W        W 4511   7.222   0.888   9.175
  448W        W 4512   4.781  10.454  10.593
  449W        W 4513   9.017   5.611   3.474
  450W        W 4514   1.669   6.631   9.330
  451W        W 4515   8.432   4.036   2.207
  452W        W 4516   8.985   6.581   1.460
  453W        W 4517   7.451   7.713   2.668
  454W        W 4518   7.030   5.970   3.106
  455W        W 4519   1.829   6.602  10.881
  456W        W 4520   8.715   3.407   0.049
  457W        W 4521   7.166   0.802   0.996
  458W        W 4522   1.909   5.268   9.101
  459W        W 4523   9.057   5.466  10.121
  460W        W 4524  10.250   5.009   0.726
  461W        W 4525   2.798   4.672   3.560
  462W        W 4526   0.973   7.005   1.321
  463W        W 4527   0.887   4.434  10.288
  464W        W 4528   6.971   4.906   0.963
  465W        W 4529   6.396   2.050   9.514
  466W        W 4530   7.511   0.505  11.282
  467W        W 4531   5.637   8.494  10.844
  468W        W 4532   3.762   7.110   9.124
  469W        W 4533  10.130   7.585  10.396
  470W        W 4534   9.343   1.836  10.359
  471W        W 4535   1.608   1.948   1.766
  472W        W 4536   7.053   3.133   3.078
  473W        W 4537   4.003   0.349   8.705
  474W        W 4538   4.744   4.900   8.413
  475W        W 4539   5.038   2.588   0.353
  476W        W 4540   6.691   6.681  11.921
  477W        W 4541   7.736   0.473   2.312
  478W        W 4542   4.542   9.647   8.521
  479W        W 4543   8.442   0.825   2.251
  480W        W 4544   5.265   9.145  11.971
  481W        W 4545   4.701   6.593  10.716
  482W        W 4546   6.720   3.104   0.981
  483W        W 4547   0.846   2.123   0.694
  484W        W 4548   8.374   7.387   3.344
  485W        W 4549   1.289  10.301   3.269
  486W        W 4550   6.480   6.948   3.266
  487W        W 4551   3.767   8.497   0.891
  488W        W 4552   5.688   8.433   2.688
  489W        W 4553   2.684   6.139   8.309
  490W        W 4554   3.709   8.710   3.511
  491W        W 4555   2.154   8.533   1.634
  492W        W 4556   7.263   6.491  10.717
  493W        W 4557   1.181   5.630   9.041
  494W        W 4558   7.730   6.837   9.271
  495W        W 4559   4.554   7.113  10.728
  496W        W 4560   5.459   3.666   8.178
  497W        W 4561   3.157   4.119   9.762
  498W        W 4562   8.963   1.345   9.743
  499W        W 4563   0.072   3.186   2.666
  500W        W 4564   6.027   4.785   2.489
  501W        W 4565   7.775   8.960  11.499
  502W        W 4566   4.122   2.590   9.446
  503W        W 4567  10.017   0.189  10.212
  504W        W 4568   7.555   0.105   3.374
  505W        W 4569   0.738   2.511  10.741
  506W        W 4570   3.222   6.738   2.473
  507W        W 4571   1.142   2.374   9.719
  508W        W 4572   4.108   6.213   1.986
  509W        W 4573   3.831   5.013  10.624
  510W        W 4574   9.242   2.767  11.367
  511W        W 4575   5.427   4.889   3.661
  512W        W 4576   8.565   9.870   1.680
  513W        W 4577   2.432   9.179   1.264
  514W        W 4578   4.500   4.549   9.987
  515W        W 4579   6.760   7.528   1.314
  516W        W 4580   4.655   9.295  11.557
  517W        W 4581   5.173   3.620   3.266
  518W        W 4582   8.915   6.012   0.842
  519W        W 4583   2.812   3.687   3.185
  520W        W 4584   6.986   4.367   3.928
  521W        W 4585   4.820   9.835  10.307
  522W        W 4586  10.403   6.075   8.868
  523W        W 4587   5.274   4.071   0.191
  524W        W 4588   9.479   4.258   0.732
  525W        W 4589   5.302   4.134  10.326
  526W        W 4590  10.247   4.275  10.102
  527W        W 4591   4.280  10.108   2.720
  528W        W 4592   2.588   1.370   3.108
  529W        W 4593   6.183   3.452   3.111
  530W        W 4594   6.933   0.375   2.007
  531W        W 4595   2.776   1.426   1.013
  532W        W 4596   5.963   3.148   8.880
  533W        W 4597   3.153   2.222   9.542
  534W        W 4598   9.128   4.174   9.586
  535W        W 4599   8.462   2.447   0.397
  536W        W 4600   5.691   5.467   9.464
  537W        W 4601   2.637   1.556   9.068
  538W        W 4602   8.906   4.286  10.522
  539W        W 4603   2.215   9.957   9.009
  540W        W 4604   5.759   7.178  11.874
  541W        W 4605   8.471   3.866   2.759
  542W        W 4606  10.188   9.567   2.382
  543W        W 4607   9.325   5.092  11.020
  544W        W 4608   7.931   6.437   2.263
  545W        W 4609   6.942   4.762   9.796
  546W        W 4610   1.267   5.127   2.362
  547W        W 4611   9.642   0.440  10.459
  548W        W 4612   9.802   0.386   1.236
  549W        W 4613   4.796   1.774   1.958
  550W        W 4614   5.312   7.373   0.304
  551W        W 4615   0.528   4.014  11.392
  552W        W 4616   8.013   5.622   3.436
  553W        W 4617   4.247   8.277  11.179
  554W        W 4618   4.731   9.857   2.696
  555W        W 4619   1.339   9.773   1.411
  556W        W 4620  10.372   1.197   1.382
  557W        W 4621   7.934   5.455   9.365
  558W        W 4622   3.868   0.678   9.766
  559W        W 4623   0.490   0.879   2.733
  560W        W 4624   3.755   9.514   0.647
  561W        W 4625   1.594   1.971  10.983
  562W        W 4626   5.478   2.622   9.229
  563W        W 4627   3.480   3.370   0.374
  564W        W 4628   4.075   8.240  10.311
  565W        W 4629   9.142   1.355   8.895
  566W        W 4630   8.037   6.244  11.713
  567W        W 4631   8.091   4.619  10.440
  568W        W 4632   3.254   0.886   8.745
  569W        W 4633   2.323   8.178   1.333
  570W        W 4634   0.669   6.095   3.302
  571W        W 4635   3.549   6.730   3.208
  572W        W 4636   8.250   3.406   0.254
  573W        W 4637   3.039   0.096   0.955
  574W        W 4638   2.648  10.237   8.838
  575W        W 4639   3.745   1.412   1.401
  576W        W 4640   2.077   5.086   9.742
  577W        W 4641   4.234   0.223  11.762
  578W        W 4642   9.923   4.875  10.067
  579W        W 4643   5.442   1.310  10.014
  580W        W 4644   9.981   8.541   9.472
  581W        W 4645   0.760   4.037   9.974
  582W        W 4646   9.331   0.469   9.564
  583W        W 4647   3.926   5.932   3.217
  584W        W 4648  10.230   7.384   8.480
  585W        W 4649   5.181   8.232   1.433
  586W        W 4650   7.055   1.539  10.829
  587W        W 4651  10.233   1.638   2.876
  588W        W 4652   2.275   2.692   0.659
  589W        W 4653  10.343   9.393   9.003
  590W        W 4654   1.738   3.327  11.490
  591W        W 4655   7.871   9.361   2.124
  592W        W 4656   9.951   3.756   1.144
  593W        W 4657   1.259   0.046  10.325
  594W        W 4658   1.481   8.969   9.398
  595W        W 4659   7.947   8.493  10.725
  596W        W 4660  10.098   4.334   3.320
  597W        W 4661   5.560   5.003  11.356
  598W        W 4662   1.733   2.696   2.929
  599W        W 4663   0.099   4.274   3.513
  600W        W 4664   8.375   0.495  11.255
  601W        W 4665  10.348  10.374   1.253
  602W        W 4666   0.982   4.820   3.134
  603W        W 4667   4.527   6.204   8.541
  604W        W 4668  10.186   3.447   3.495
  605W        W 4669  10.384   5.175  10.083
  606W        W 4670   8.932   5.257   2.293
  607W        W 4671   9.425   6.131   3.268
  608W        W 4672  10.304   0.620  10.078
  609W        W 4673   4.258   3.832   2.716
  610W        W 4674  10.362  10.080  10.760
  611W        W 4675   7.108   3.284  10.589
  612W        W 4676   4.960   2.146   9.688
  613W        W 4677   6.345   3.473   8.489
  614W        W 4678  10.390   3.764   1.450
  615W        W 4679   9.545   5.865   2.383
  616W        W 4680   5.079   2.620   9.555
  617W        W 4681   1.771  10.284  11.662
  618W        W 4682   3.634   1.290  10.399
  619W        W 4683   8.350  10.051  10.910
  620W        W 4684   2.897   1.269   0.236
  621W        W 4685   2.391   8.398   9.191
  622W        W 4686  10.247  10.200   1.754
  623W        W 4687   9.720   2.670   0.462
  624W        W 4688   0.390   1.168   1.741
  625W        W 4689   2.113   5.545   9.530
  626W        W 4690   8.052   6.974   1.415
  627W        W 4691   0.321   9.535   9.595
  628W        W 4692   5.324   5.048   1.407
  629W        W 4693   5.340   0.203   1.180
  630W        W 4694   9.498   7.972   9.937
  631W        W 4695   9.755   7.829  11.865
  632W        W 4696   3.750   2.265   3.595
  633W        W 4697   9.888   3.841   9.323
  634W        W 4698   6.529   7.430  10.134
  635W        W 4699   7.670   3.186   9.269
  636W        W 4700   3.194   0.605   3.568
  637W        W 4701   0.848   3.975   8.962
  638W        W 4702   8.454   0.348  11.724
  639W        W 4703   0.824   0.475   8.971
  640W        W 4704   7.082   4.109   2.587
  641W        W 4705   9.547  10.404   8.515
  642W        W 4706   5.163   7.250   1.664
  643W        W 4707   6.047   2.063   2.155
  644W        W 4708   9.568   7.046  11.514
  645W        W 4709   5.188   7.635   2.584
  646W        W 4710   7.492   7.619   8.961
  647W        W 4711   3.580   5.165   1.215
  648W        W 4712   7.876   3.980  11.005
  649W        W 4713   6.144   5.987   2.744
  650W        W 4714   6.169   1.862   9.082
  651W        W 4715   7.916   4.340   0.466
  652W        W 4716   5.791   8.388  10.001
  653W        W 4717   7.133   5.947  11.823
  654W        W 4718   0.923   1.421   9.808
  655W        W 4719   9.954   6.235   0.903
  656W        W 4720   8.166   5.635   0.580
  657W        W 4721   2.829   5.036   9.553
  658W        W 4722   0.396   1.250  11.851
  659W        W 4723   8.038   5.472   1.331
  660W        W 4724   4.546   9.858   2.205
  661W        W 4725   2.599   1.986  11.804
  662W        W 4726   1.776   4.853   8.550
  663W        W 4727   6.032   3.238   0.739
  664W        W 4728   0.151   9.305   2.508
  665W        W 4729   6.529   1.373   1.340
  666W        W 4730   7.188   0.373   9.414
  667W        W 4731   2.139   6.595   9.008
  668W        W 4732   7.002   3.188   0.564
  669W        W 4733   2.439   9.656   0.210
  670W        W 4734   4.017   3.268  10.032
  671W        W 4735   5.073   3.545   2.785
  672W        W 4736   8.804   8.411  11.860
  673W        W 4737   4.578   0.596  10.497
  674W        W 4738   4.247   0.924   9.979
  675W        W 4739   5.154   0.875   8.911
  676W        W 4740   9.973   0.308   0.218
  677W        W 4741   6.055   9.640   0.030
  678W        W 4742   6.527   4.743  11.675
  679W        W 4743   2.271   1.266   8.480
  680W        W 4744   1.758   4.675  10.612
  681W        W 4745   4.202   7.981   1.643
  682W        W 4746   4.627   0.524   1.000
  683W        W 4747   7.472   0.151  10.865
  684W        W 4748   0.100   4.945  11.279
  685W        W 4749   4.043   2.880  10.385
  686W        W 4750   7.959   6.799   0.927
  687W        W 4751   7.870   9.028   1.353
  688W        W 4752   5.671   4.514  10.299
  689W        W 4753   2.093   8.590  11.428
  690W        W 4754   5.665   7.572   2.330
  691W        W 4755   7.721   1.852  11.377
  692W        W 4756   0.513   6.978  11.126
  693W        W 4757   2.813   4.520   1.498
  694W        W 4758   9.854   1.208  10.681
  695W        W 4759   6.001   0.656   1.444
  696W        W 4760   0.711   0.678  10.354
  697W        W 4761   9.566   2.583  10.001
  698W        W 4762   3.559   9.177   1.803
  699W        W 4763   1.487   5.594   2.382
  700W        W 4764   4.969   6.576   9.025
  701W        W 4765   6.411   0.730   9.517
  702W        W 4766   2.369   3.061  10.970
  703W        W 4767   4.637   6.025   2.842
  704W        W 4768   5.191   2.230   0.022
  705W        W 4769   3.772   9.851   2.736
  706W        W 4770   3.039   8.000  10.052
  707W        W 4771   3.821   8.216   1.877
  708W        W 4772   2.472   0.950   2.196
  709W        W 4773   3.000   1.122  11.365
  710W        W 4774   0.366   2.400   9.154
  711W        W 4775   8.540   7.176   1.581
  712W        W 4776   2.286   1.221   1.711
  713W        W 4777   4.152   1.777   0.205
  714W        W 4778   5.678   7.958   2.915
  715W        W 4779   2.782   7.022  11.337
  716W        W 4780   7.174   1.719   2.285
  717W        W 4781   7.318   8.563  11.513
  718W        W 4782   1.337   3.287   8.721
  719W        W 4783   0.922   3.699  11.255
  720W        W 4784   1.880   4.142   1.287
  721W        W 4785   8.004   8.345   9.742
  722W        W 4786   2.060   7.621  10.060
  723W        W 4787   6.187   3.047   2.234
  724W        W 4788   1.194  10.002  11.688
  725W        W 4789   6.440   6.995  10.515
  726W        W 4790   5.764   6.586   8.486
  727W        W 4791   0.895   2.623   0.592
  728W        W 4792   9.960   6.118  11.970
  729W        W 4793   9.415   8.703  11.314
  730W        W 4794   9.230   5.216  10.527
  731W        W 4795   9.029   2.734   3.154
  732W        W 4796   0.597   9.484   3.430
  733W        W 4797   1.404   6.700   1.392
  734W        W 4798   6.529   8.004  11.383
  735W        W 4799   6.110   8.435   8.873
  736W        W 4800   0.997  10.191   2.255
  737W        W 4801   2.795   2.178   1.268
  738W        W 4802   5.141   3.604   0.035
  739W        W 4803   7.558   4.543   3.698
  740W        W 4804   5.996   0.568  10.625
  741W        W 4805   0.769   0.134   2.299
  742W        W 4806  10.189  10.226   9.997
  743W        W 4807   3.522   8.847  11.688
  744W        W 4808   2.785   5.067   1.842
  745W        W 4809   1.462   0.953   2.573
  746W        W 4810   6.611   6.525   2.196
  747W        W 4811   2.588   7.009   9.742
  748W        W 4812   4.757   7.531   2.296
  749W        W 4813   0.006   3.456  11.947
  750W        W 4814   3.233   8.961   1.471
  751W        W 4815   4.641  10.237   3.513
  752W        W 4816   9.121   8.801   1.818
  753W        W 4817   6.105  10.473   2.690
  754W        W 4818   6.446   3.375   2.658
  755W        W 4819   4.524   3.098   8.914
  756W        W 4820   4.634   0.793   3.354
  757W        W 4821   2.171   8.033   2.428
  758W        W 4822   8.649   1.791   2.015
  759W        W 4823   9.473   6.976   8.859
  760W        W 4824   7.394   2.315   8.770
  761W        W 4825   2.753   1.661   0.557
  762W        W 4826   7.707   8.528   8.869
  763W        W 4827   3.255   4.523   1.760
  764W        W 4828   9.855   8.773   1.024
  765W        W 4829   0.239   9.857  10.536
  766W        W 4830   9.421   5.123  10.033
  767W        W 4831   7.907   4.570   1.531
  768W        W 4832   3.365   9.466   1.437
  769W        W 4833   0.692   5.623   9.577
  770W        W 4834   4.028   6.624   9.207
  771W        W 4835   5.856   1.651   1.922
  772W        W 4836   7.310  10.006   9.219
  773W        W 4837   6.739   4.684   9.085
  774W        W 4838   2.309   8.219  10.680
  775W        W 4839   4.488   8.326   8.442
  776W        W 4840   5.604   8.791   9.682
  777W        W 4841   8.381   9.430  11.811
  778W        W 4842   7.313   7.843  11.037
  779W        W 4843   6.825   9.796   1.674
  780W        W 4844   7.673   2.631  10.965
  781W        W 4845   7.074   6.891   0.819
  782W        W 4846   0.472  10.298  10.483
  783W        W 4847   1.244   7.936   9.112
  784W        W 4848   1.854   8.383   0.260
  785W        W 4849   1.699   3.824   0.423
  786W        W 4850   8.387   9.032   9.249
  787W        W 4851   2.359   5.723  11.896
  788W        W 4852   6.402   4.011   9.720
  789W        W 4853   9.797   2.820   1.460
  790W        W 4854   3.184   7.486   0.390
  791W        W 4855   1.823   5.719   0.516
  792W        W 4856   6.232   5.551   3.031
  793W        W 4857   9.972   9.972   0.370
  794W        W 4858   4.589  10.404   9.177
  795W        W 4859  10.479   7.927   1.828
  796W        W 4860   3.723   7.053  11.853
  797W        W 4861   8.388   1.292   9.063
  798W        W 4862   9.134   8.033   0.619
  799W        W 4863   1.262   5.524   0.594
  800W        W 4864   2.274  10.011   2.531
  801W        W 4865   3.755   8.433  11.937
  802W        W 4866   0.788   0.181  10.473
  803W        W 4867   9.565   8.942   0.185
  804W        W 4868   4.898   1.615   3.687
  805W        W 4869   3.413  10.374  10.380
  806W        W 4870   3.102   8.527  10.327
  807W        W 4871   4.905   4.172  11.270
  808W        W 4872   6.198   1.404   0.240
  809W        W 4873   9.085   5.526  10.937
  810W        W 4874   0.412   6.038   8.830
  811W        W 4875   7.017   2.722   1.718
  812W        W 4876   2.674   3.199   1.970
  813W        W 4877   1.871   7.942   1.450
  814W        W 4878   1.922  10.384   2.663
  815W        W 4879   8.588   4.678  10.567
  816W        W 4880   9.852   8.325   3.305
  817W        W 4881   3.893   3.410   0.695
  818W        W 4882   5.041   4.541   3.664
  819W        W 4883   3.587   7.867   9.428
  820W        W 4884   5.082   8.456   8.865
  821W        W 4885   4.610   6.852   3.459
  822W        W 4886   6.961   8.042   2.532
  823W        W 4887   0.022   3.665   8.829
  824W        W 4888   8.514   9.977   2.179
  825W        W 4889   0.351   9.904   1.719
  826W        W 4890   6.941  10.481   9.682
  827W        W 4891   6.507   6.608   9.774
  828W        W 4892  10.245   6.107   3.673
  829W        W 4893   7.661   8.881   1.998
  830W        W 4894   9.118   7.566  11.958
  831W        W 4895  10.009   3.284  10.971
  832W        W 4896   6.113   0.045   0.714
  833W        W 4897   1.232   3.626  10.086
  834W        W 4898   9.924   2.017   8.505
  835W        W 4899   0.291   2.692   1.496
  836W        W 4900   9.359   8.362   1.991
  837W        W 4901   2.811   7.431   3.427
  838W        W 4902   0.088   6.583   0.702
  839W        W 4903   8.149   9.188   8.457
  840W        W 4904   2.911   1.629  10.514
  841W        W 4905   2.350   7.025   8.763
  842W        W 4906   3.265   8.450  10.936
  843W        W 4907   4.013   6.146   8.347
  844W        W 4908   5.530   3.874   3.544
  845W        W 4909   1.686   8.029   9.369
  846W        W 4910   7.542   8.384   1.859
  847W        W 4911  10.430   4.197   1.173
  848W        W 4912   7.765   6.432  10.787
  849W        W 4913   7.124   7.459   3.183
  850W        W 4914   9.674   6.472  10.735
  851W        W 4915   3.156   2.651   0.994
  852W        W 4916   2.991   1.773   0.063
  853W        W 4917   3.285   4.898  11.551
  854W        W 4918   5.180   5.752  11.857
  855W        W 4919   1.341   3.314   1.196
  856W        W 4920   9.026   3.560  10.838
  857W        W 4921   8.178   8.799   0.414
  858W        W 4922   2.742   6.973   1.450
  859W        W 4923   9.837   7.334   1.756
  860W        W 4924   5.162  10.476  11.359
  861W        W 4925   5.734   8.067   3.443
  862W        W 4926   3.343   9.387   3.476
  863W        W 4927  10.419   0.867   1.802
  864W        W 4928   7.392   6.675   3.637
  865W        W 4929   7.497   4.897  11.801
  866W        W 4930   6.467   8.858   2.521
  867W        W 4931   6.976   7.478   1.797
  868W        W 4932   1.921   4.773   2.542
  869W        W 4933   7.629   9.137   9.990
  870W        W 4934   0.261   4.265   0.469
  871W        W 4935   7.086   2.727   8.825
  872W        W 4936   8.136   3.217   1.492
  873W        W 4937   1.284   6.220   1.522
  874W        W 4938   4.245   4.687  11.730
  875W        W 4939  10.439   7.523  10.005
  876W        W 4940   9.590   0.677   9.953
  877W        W 4941   9.929   0.717  10.797
  878W        W 4942   4.131   4.533   3.687
  879W        W 4943   3.552   9.060   9.086
  880W        W 4944   3.306   9.270   2.472
  881W        W 4945   5.001   7.649   0.025
  882W        W 4946   8.614   5.058  11.373
  883W        W 4947   0.415   0.522   9.277
  884W        W 4948   0.947   8.568  10.224
  885W        W 4949   4.211   2.352   2.972
  886W        W 4950   0.461   8.323   1.238
  887W        W 4951   1.823   8.851   1.869
  888W        W 4952   5.561   3.171   8.050
  889W        W 4953   3.814   0.383   0.445
  890W        W 4954   1.195   5.166   9.705
  891W        W 4955   9.062   9.400   3.519
  892W        W 4956   1.628   0.942   1.095
  893W        W 4957   7.618   1.045   1.144
  894W        W 4958   9.984  10.031   1.243
  895W        W 4959   1.241   5.022   0.371
  896W        W 4960   1.749   0.719   9.485
  897W        W 4961   1.822   6.676   2.270
  898W        W 4962   7.840   8.930  10.420
  899W        W 4963  10.406   3.172   8.710
  900W        W 4964  10.208   7.890   8.684
  901W        W 4965   9.133   9.590  10.963
  902W        W 4966  10.116   9.931   8.969
  903W        W 4967   2.389   7.262   0.950
  904W        W 4968  10.062   9.078   0.344
  905W        W 4969   0.287   0.697  10.677
  906W        W 4970   4.788   0.832   2.179
  907W        W 4971   4.511   8.669   3.564
  908W        W 4972  10.381   8.579   0.232
  909W        W 4973   3.271   2.093  10.810
  910W        W 4974   6.508   0.741  11.282
  911W        W 4975   0.046   3.268   2.157
  912W        W 4976   5.121   7.189   2.194
  913W        W 4977   1.139   3.790   2.392
  914W        W 4978   7.626   9.277  11.907
  915W        W 4979   9.846   1.238   0.491
  916W        W 4980   5.625   7.697  10.425
  917W        W 4981   2.812   7.432   0.725
  918W        W 4982   8.519   3.578   3.286
  919W        W 4983   0.649   5.609  11.864
  920W        W 4984   2.178   9.573   1.470
  921W        W 4985   5.462   7.673   3.739
  922W        W 4986   0.468   8.464   0.390
  923W        W 4987   5.966   7.561  11.577
  924W        W 4988   6.614   7.188   0.824
  925W        W 4989   8.762   7.329   0.906
  926W        W 4990   4.973   0.771   2.678
  927W        W 4991   4.421   6.928  11.203
  928W        W 4992   7.460   5.034   3.550
  929W        W 4993   3.083   3.016   1.740
  930W        W 4994   8.633   3.292   1.751
  931W        W 4995   1.339   2.798   3.306
  932W        W 4996   7.532   8.550  10.270
  933W        W 4997   4.855   3.099   2.230
  934W        W 4998   5.831   2.241   9.209
  935W        W 4999   6.505   9.340  10.737
  936W        W 5000   7.104   7.392   0.925
  937W        W 5001   5.006   5.487   2.134
  938W        W 5002   4.592   7.673   9.052
  939W        W 5003   0.527   9.907   0.276
  940W        W 5004   3.098   2.826  10.314
  941W        W 5005   0.299   5.541   1.864
  942W        W 5006  10.331   9.931   2.779
  943W        W 5007   9.928   9.565   9.289
  944W        W 5008   7.119   9.878   2.141
  945W        W 5009   5.666   6.007   2.929
  946W        W 5010  10.069   2.515   2.837
  947W        W 5011   8.385   2.938   0.309
  948W        W 5012   3.808   7.053  11.331
  949W        W 5013   6.097   6.541  10.095
  950W        W 5014   8.019   5.575   2.398
  951W        W 5015   5.224   7.660   2.060
  952W        W 5016   6.016   9.569   0.525
  953W        W 5017   9.716  10.495   3.869
  954W        W 5018   6.066   0.020  11.271
  955W        W 5019   6.536   4.008   0.021
  956W        W 5020   7.734   2.469   0.656
  957W        W 5021   1.884   4.871   3.616
  958W        W 5022   6.582   9.136   9.891
  959W        W 5023   1.387   0.535   2.939
  960W        W 5024   9.516   6.972  10.753
  961W        W 5025   9.092   3.059   2.367
  962W        W 5026   9.898   0.946   3.777
  963W        W 5027   0.631   4.708   8.675
  964W        W 5028   3.312   6.159  10.495
  965W        W 5029   6.204   7.194   3.611
  966W        W 5030   2.780   3.683   2.142
  967W        W 5031   3.590   6.472   2.201
  968W        W 5032   5.238   2.107   1.235
  969W        W 5033   3.391   5.003   0.785
  970W        W 5034   2.673   0.186   9.284
  971W        W 5035   4.589   4.587   1.946
  972W        W 5036  10.093   7.250   2.397
  973W        W 5037   7.135   8.304   8.578
  974W        W 5038   5.231   2.211   2.115
  975W        W 5039   1.192   5.253   2.936
  976W        W 5040   8.116   1.779   9.040
  977W        W 5041   6.669   5.414   9.497
  978W        W 5042   6.501   4.136   0.933
  979W        W 5043   4.979   1.413  10.199
  980W        W 5044   2.203   6.053   8.532
  981W        W 5045   0.926   6.830   2.813
  982W        W 5046   7.150   3.116   2.045
  983W        W 5047   7.469   6.596   0.993
  984W        W 5048   2.923   9.553  11.775
  985W        W 5049   0.730   2.343   2.147
  986W        W 5050   4.524   8.211   9.964
  987W        W 5051   2.444   9.395   3.200
  988W        W 5052   4.557   1.241   9.416
  989W        W 5053   3.862   3.630   3.547
  990W        W 5054   6.276   1.545   9.450
  991W        W 5055   4.737   6.519   4.206
  992W        W 5056   6.257   1.427   3.253
  993W        W 5057   9.508   4.132  11.350
  994W        W 5058   2.285   7.954   3.566
  995W        W 5059   1.625   5.518   1.877
  996W        W 5060   8.677   1.576   1.536
  997W        W 5061   1.290   9.487   9.251
  998W        W 5062   0.819   6.842   8.703
  999W        W 5063   2.929   1.461   2.759
 1000W        W 5064   5.595   9.496   9.932
 1001W        W 5065   0.562   1.803   1.370
 1002W        W 5066   5.535   6.962   0.955
 1003W        W 5067   5.509   4.861  10.852
 1004W        W 5068   1.750   9.973  10.837
 1005W        W 5069   3.793   4.939  11.618
 1006W        W 5070   0.022   6.218  10.894
 1007W        W 5071   8.370   2.778  11.419
 1008W        W 5072   6.801   8.504  11.574
 1009W        W 5073   1.327   0.535   1.150
 1010W        W 5074   0.932   7.315   2.655
 1011W        W 5075   1.223   0.605   1.669
 1012W        W 5076   5.200   5.617   9.427
 1013W        W 5077   7.665   4.749   8.730
 1014W        W 5078   3.706   4.588   2.434
 1015W        W 5079   9.565   9.763   9.635
 1016W        W 5080   5.824   3.249   3.914
 1017W        W 5081   9.079   3.105  11.026
 1018W        W 5082   8.166   1.733   1.289
 1019W        W 5083   0.699   9.910  11.788
 1020W        W 5084   8.696   8.935   0.486
 1021W        W 5085   6.950   7.956   9.334
 1022W        W 5086   9.084   2.603  10.894
 1023W        W 5087   7.580   0.969   8.805
 1024W        W 5088   4.088   4.702  10.270
 1025W        W 5089   4.506   8.948   1.659
 1026W        W 5090   3.548   0.006   0.199
 1027W        W 5091   6.730   6.189   1.293
 1028W        W 5092   7.668   1.741   2.342
 1029W        W 5093   7.938   1.928  10.028
 1030W        W 5094   6.043   4.536   3.851
 1031W        W 5095   2.806   6.039   0.552
 1032W        W 5096   4.931  10.493   0.405
 1033W        W 5097   1.913   6.117   8.966
 1034W        W 5098   8.945   9.377   0.800
 1035W        W 5099   6.500   8.899  11.542
 1036W        W 5100   8.657   0.212  10.382
 1037W        W 5101  10.046   2.615  10.096
 1038W        W 5102   1.323   2.376   2.964
 1039W        W 5103   1.981   7.588   2.646
 1040W        W 5104   4.234   9.953   0.166
 1041W        W 5105   0.264   8.609   9.946
 1042W        W 5106   9.436   6.566  11.673
 1043W        W 5107   2.087   7.599   8.723
 1044W        W 5108   7.497   3.146  11.819
 1045W        W 5109   4.076   6.616   0.438
 1046W        W 5110   4.099   6.611   0.949
 1047W        W 5111   8.447  10.033   0.742
 1048W        W 5112   5.071   6.723   3.874
 1049W        W 5113   6.505   3.502   0.064
 1050W        W 5114   0.268   3.722   2.224
 1051W        W 5115   0.690   6.439   9.024
 1052W        W 5116   9.071   5.015   0.373
 1053W        W 5117   9.580   3.154   2.273
 1054W        W 5118   3.443   4.661   9.114
 1055W        W 5119   9.724   7.280  10.381
 1056W        W 5120   6.567   3.922   8.442
 1057W        W 5121   1.285   4.144   9.997
 1058W        W 5122   4.238   4.685  10.761
 1059W        W 5123   8.143   9.548  10.965
 1060W        W 5124   4.493   6.880   9.337
 1061W        W 5125   9.784   9.856   2.141
 1062W        W 5126   7.416   4.673   0.280
 1063W        W 5127   8.563   3.773   0.916
 1064W        W 5128   0.079   1.941  10.698
 1065W        W 5129   4.377   5.253   0.988
 1066W        W 5130   9.302   8.850   9.886
 1067W        W 5131   5.865   0.417   9.119
 1068W        W 5132   9.941   2.215   9.309
 1069W        W 5133   4.123   7.881   9.269
 1070W        W 5134   6.565   2.810   1.940
 1071W        W 5135   3.577   1.424   3.498
 1072W        W 5136   1.772   1.670   9.084
 1073W        W 5137   5.997  10.417   1.176
 1074W        W 5138   9.998   6.130   9.626
 1075W        W 5139   2.768   4.725   3.036
 1076W        W 5140   9.008   0.932   1.701
 1077W        W 5141   2.737   5.505   0.265
 1078W        W 5142   5.916   4.861   1.993
 1079W        W 5143   2.663  10.224   0.213
 1080W        W 5144   5.593   9.753   3.214
 1081W        W 5145   0.014   2.318   0.438
 1082W        W 5146   5.696   1.911   2.540
 1083W        W 5147   5.995  10.087   0.450
 1084W        W 5148   2.639   2.691  11.277
 1085W        W 5149   4.827   8.597   1.476
 1086W        W 5150   8.091   8.118   3.421
 1087W        W 5151   0.783  10.304   3.358
 1088W        W 5152   5.611   5.950   9.471
 1089W        W 5153   2.866   7.891   0.979
 1090W        W 5154   0.320   2.618   3.326
 1091W        W 5155   6.573   1.191  11.520
 1092W        W 5156   5.989   0.836   0.926
 1093W        W 5157   7.904   7.794   0.688
 1094W        W 5158   1.820   5.507   1.388
 1095W        W 5159   2.703   3.387  11.758
 1096W        W 5160   1.386   6.465   3.520
 1097W        W 5161   3.315   8.387   2.119
 1098W        W 5162   6.614   6.686   0.881
 1099W        W 5163   3.306   8.668   1.057
 1100W        W 5164   7.409   0.265   2.887
 1101W        W 5165   0.505   3.375  11.824
 1102W        W 5166   3.796   8.808   2.750
 1103W        W 5167   2.753   4.321   1.029
 1104W        W 5168   6.012   3.675   0.468
 1105W        W 5169   2.327   8.110   0.389
 1106W        W 5170   9.947   6.327  10.318
 1107W        W 5171   9.819   8.971   9.958
 1108W        W 5172   1.637   3.875   2.325
 1109W        W 5173   2.803   9.520   3.531
 1110W        W 5174   9.932   5.446   1.934
 1111W        W 5175   2.179   7.324   9.160
 1112W        W 5176  10.484   1.132   9.871
 1113W        W 5177   3.139  10.264   1.951
 1114W        W 5178   7.012  10.349   1.246
 1115W        W 5179   0.420   9.335   1.003
 1116W        W 5180   4.528   0.477   2.981
 1117W        W 5181   3.399   3.554   0.857
 1118W        W 5182   7.165  10.355  10.517
 1119W        W 5183   5.082  10.483  11.905
 1120W        W 5184   4.800   9.988   9.363
 1121W        W 5185   7.231   8.846   0.808
 1122W        W 5186   5.404   5.777   9.895
 1123W        W 5187   9.328   9.064   3.045
 1124W        W 5188   3.529   3.098  10.091
 1125W        W 5189   1.299   8.168  10.154
 1126W        W 5190   4.099   4.182  10.878
 1127W        W 5191   9.446   3.257   2.762
 1128W        W 5192   5.717  10.016   9.846
 1129W        W 5193   4.610   9.445   1.507
 1130W        W 5194   9.224   8.637   8.888
 1131W        W 5195   3.423   1.810  11.764
 1132W        W 5196   3.497   6.227   3.206
 1133W        W 5197   0.031   4.067  11.323
 1134W        W 5198   6.491   6.115  10.998
 1135W        W 5199   5.590   8.772   1.502
 1136W        W 5200   1.304   6.956  10.512
 1137W        W 5201   4.741   1.699   9.567
 1138W        W 5202   4.564   9.571   9.530
 1139W        W 5203   6.029   1.057   9.457
 1140W        W 5204   9.630   6.690   2.667
 1141W        W 5205   6.683   7.936  10.386
 1142W        W 5206   9.892   2.618   9.604
 1143W        W 5207  10.382   4.709   1.140
 1144W        W 5208   4.309   2.248   2.486
 1145W        W 5209   3.836   9.842  10.903
 1146W        W 5210   7.778   7.040   2.817
 1147W        W 5211   9.023   7.945  10.125
 1148W        W 5212   3.247   7.264  11.683
 1149W        W 5213   7.540   7.396  10.955
 1150W        W 5214  10.453   3.279   9.222
 1151W        W 5215   4.054   6.504   2.438
 1152W        W 5216   3.271   6.227   1.376
 1153W        W 5217   5.546   5.338  11.755
 1154W        W 5218   3.703   4.593   9.892
 1155W        W 5219  10.268   9.367   1.585
 1156W        W 5220   1.279   7.608   1.197
 1157W        W 5221   0.683   1.965  10.870
 1158W        W 5222   9.183   0.418   3.571
 1159W        W 5223  10.351   6.161   9.971
 1160W        W 5224   0.804  10.274   9.577
 1161W        W 5225   9.878   8.587   0.409
 1162W        W 5226   6.074   9.452   1.461
 1163W        W 5227   0.863   1.650   0.990
 1164W        W 5228   0.363   3.676  11.032
 1165W        W 5229   8.132   8.677  11.211
 1166W        W 5230   0.355   7.854   1.444
 1167W        W 5231   4.743   8.604   0.971
 1168W        W 5232   4.699   5.150   0.272
 1169W        W 5233   5.653   2.127   1.847
 1170W        W 5234   5.440   6.483   0.391
 1171W        W 5235   9.300   9.618   0.541
 1172W        W 5236   2.726   8.043   9.022
 1173W        W 5237   3.565   9.395  10.812
 1174W        W 5238   7.605   2.717   9.041
 1175W        W 5239   0.389   6.670  10.398
 1176W        W 5240   9.397   3.916  10.881
 1177W        W 5241   9.745   0.908   2.247
 1178W        W 5242   9.061   4.492   1.248
 1179W        W 5243   8.428  10.007   9.915
 1180W        W 5244   3.748   4.569  10.875
 1181W        W 5245   7.234   0.306   2.409
 1182W        W 5246   2.109   0.282   0.130
 1183W        W 5247   7.597   5.172   0.242
 1184W        W 5248   8.076   0.843   0.939
 1185W        W 5249   6.402  10.291  11.576
 1186W        W 5250   5.003   5.709   8.947
 1187W        W 5251   8.157   0.732  10.858
 1188W        W 5252   0.677   2.384   1.640
 1189W        W 5253   6.520   5.081   9.951
 1190W        W 5254   5.632   3.130  11.416
 1191W        W 5255   9.779   2.587  10.534
 1192W        W 5256   8.381   2.673   3.037
 1193W        W 5257   3.141   8.832  11.271
 1194W        W 5258   4.129   7.960   9.775
 1195W        W 5259   6.030   2.788  11.464
 1196W        W 5260   9.836   5.294   2.407
 1197W        W 5261   2.632   2.391   9.765
 1198W        W 5262   3.640   0.362   2.488
 1199W        W 5263   4.580   3.296   3.131
 1200W        W 5264   0.236   7.923   2.350
 1201W        W 5265   4.245   5.483   3.254
 1202W        W 5266   3.326   5.475   2.750
 1203W        W 5267   3.848   7.459   9.497
 1204W        W 5268   3.927   5.772   7.975
 1205W        W 5269   0.797   3.567   9.762
 1206W        W 5270   9.817   6.300   2.346
 1207W        W 5271   1.672   0.302  11.384
 1208W        W 5272   9.563   3.665  11.939
 1209W        W 5273   2.656   8.833   3.195
 1210W        W 5274   5.164   8.564   2.397
 1211W        W 5275   8.819   4.584   8.655
 1212W        W 5276   2.206   4.170   9.559
 1213W        W 5277   9.853   3.075  10.362
 1214W        W 5278   9.690   2.649   9.132
 1215W        W 5279   8.473   8.582   0.781
 1216W        W 5280   2.148   3.873   3.535
 1217W        W 5281   2.412   7.496   9.613
 1218W        W 5282   3.620   9.015  11.207
 1219W        W 5283   4.351   4.056   2.247
 1220W        W 5284   5.224   7.170  11.831
 1221W        W 5285   0.766   3.268   1.068
 1222W        W 5286   1.429   2.598  11.096
 1223W        W 5287   2.265   7.009  11.483
 1224W        W 5288   5.680   6.415   9.347
 1225W        W 5289   4.315   3.135  10.954
 1226W        W 5290   7.636   5.828  11.802
 1227W        W 5291   1.651   5.357   9.595
 1228W        W 5292   4.227   3.142   9.448
 1229W        W 5293   0.399   2.260   2.927
 1230W        W 5294   0.379   6.389   1.633
 1231W        W 5295   1.398  10.232   8.987
 1232W        W 5296   7.103   4.717  11.007
 1233W        W 5297   9.715   3.655  11.443
 1234W        W 5298   4.448   5.733   8.781
 1235W        W 5299   8.885   8.957   9.135
 1236W        W 5300   4.987   1.342   8.697
 1237W        W 5301   5.509  10.350  11.692
 1238W        W 5302   8.047   2.768   1.206
 1239W        W 5303   9.394  10.480   0.009
 1240W        W 5304   4.155   8.922   9.022
 1241W        W 5305   2.146   1.815   2.506
 1242W        W 5306  10.000   0.476   2.031
 1243W        W 5307   3.498   8.117   9.857
 1244W        W 5308   6.473   6.781   1.766
 1245W        W 5309   6.184   3.254  10.207
 1246W        W 5310   3.294   8.556   0.133
 1247W        W 5311   0.638   9.937   8.385
 1248W        W 5312   8.948   2.680   8.639
 1249W        W 5313   5.520   6.509   4.058
 1250W        W 5314   9.558   1.645   8.996
 1251W        W 5315   9.626   4.254   9.532
 1252W        W 5316   4.575   4.251   2.708
 1253W        W 5317   5.615   5.169   0.227
 1254W        W 5318   1.599   9.106  11.281
 1255W        W 5319   9.272   7.689  11.449
 1256W        W 5320   9.927   0.793   0.725
 1257W        W 5321   3.738   5.995   1.692
 1258W        W 5322   0.393   2.099   3.424
 1259W        W 5323   5.605  10.282  11.190
 1260W        W 5324   5.998  10.411   8.720
 1261W        W 5325   7.832   2.287   9.548
 1262W        W 5326   4.626   1.229   2.470
 1263W        W 5327   6.449   4.417   9.418
 1264W        W 5328   9.608   4.748  10.797
 1265W        W 5329   3.366   5.215  10.759
 1266W        W 5330   4.554   6.440   3.182
 1267W        W 5331   2.182  10.416   0.464
 1268W        W 5332   9.815   5.666   9.435
 1269W        W 5333   4.288   2.166   1.985
 1270W        W 5334  10.238   6.854   3.256
 1271W        W 5335   7.041   1.259  11.257
 1272W        W 5336   7.412   8.276  10.750
 1273W        W 5337   9.705  10.089   9.257
 1274W        W 5338   6.584   2.789   8.962
 1275W        W 5339   0.015  10.360   2.598
 1276W        W 5340   4.505   2.309   9.841
 1277W        W 5341   6.569   2.188   3.302
 1278W        W 5342   9.951   1.300   2.536
 1279W        W 5343   2.409   5.950   9.485
 1280W        W 5344   5.775   3.763   3.119
 1281W        W 5345   8.124   1.794   3.471
 1282W        W 5346   2.719   1.498   2.304
 1283W        W 5347   1.855   2.577  10.058
 1284W        W 5348   8.955   3.667   2.877
 1285W        W 5349   1.215   5.591  11.889
 1286W        W 5350   0.922   1.289  11.229
 1287W        W 5351   0.339   4.481   0.958
 1288W        W 5352   1.226   3.131  10.326
 1289W        W 5353  10.479   4.587   3.096
 1290W        W 5354   7.011   3.586   3.318
 1291W        W 5355   3.702   0.933   9.365
 1292W        W 5356   4.854   1.858  10.569
 1293W        W 5357   5.594  10.388   0.797
 1294W        W 5358   3.631   6.193  10.926
 1295W        W 5359  10.323   8.215   2.219
 1296W        W 5360   4.076   4.700  11.250
 1297W        W 5361  10.297   3.496   2.965
 1298W        W 5362   1.565  10.147  10.383
 1299W        W 5363   8.025  10.376   1.290
 1300W        W 5364   4.713   2.063   2.754
 1301W        W 5365   7.460   4.533   1.818
 1302W        W 5366   3.136   3.799  10.604
 1303W        W 5367   5.176   5.155   0.488
 1304W        W 5368   4.739   4.516  11.621
 1305W        W 5369   8.287   1.323   2.280
 1306W        W 5370   4.679   8.494   0.458
 1307W        W 5371   5.184   1.588   1.287
 1308W        W 5372   0.032   4.801   3.554
 1309W        W 5373   1.355   9.393  10.090
 1310W        W 5374   5.491   3.807  10.733
 1311W        W 5375   3.808  10.298   9.832
 1312W        W 5376   9.224   4.475   0.116
 1313W        W 5377   5.044   4.082   1.154
 1314W        W 5378   4.919   5.579   1.203
 1315W        W 5379   7.528   1.766  10.844
 1316W        W 5380   2.304   9.440   9.140
 1317W        W 5381   2.661   7.949   3.228
 1318W        W 5382   7.507   7.115   8.898
 1319W        W 5383   3.786   6.262   0.712
 1320W        W 5384   0.569   0.338   0.264
 1321W        W 5385   3.145   3.294   2.202
 1322W        W 5386   4.909   2.075   0.413
 1323W        W 5387   6.889   2.240   8.891
 1324W        W 5388   6.488  10.197   2.425
 1325W        W 5389  10.341   6.584   9.573
 1326W        W 5390   4.606   5.025  10.087
 1327W        W 5391   9.497   0.557   0.879
 1328W        W 5392   7.501   3.308   3.198
 1329W        W 5393   3.348   5.853   4.060
 1330W        W 5394   0.034   1.829   0.606
 1331W        W 5395   8.104   1.714  11.038
 1332W        W 5396   7.886   3.457  11.139
 1333W        W 5397   4.776   2.007  11.068
 1334W        W 5398   4.489   5.714   0.206
 1335W        W 5399   8.812   6.082   2.749
 1336W        W 5400   4.022   3.637   0.267
 1337W        W 5401   4.173   2.727   0.710
 1338W        W 5402   7.444   9.914  10.593
 1339W        W 5403   9.805   6.658   3.581
 1340W        W 5404   8.531   1.916   9.317
 1341W        W 5405   3.148   7.848   3.368
 1342W        W 5406   7.488   6.096  10.467
 1343W        W 5407   0.275   2.208   1.883
 1344W        W 5408   3.106   8.475   9.799
 1345W        W 5409   9.817   9.839  10.108
 1346W        W 5410   5.906   1.097   3.437
 1347W        W 5411   3.859   2.691   1.204
 1348W        W 5412   7.305   9.012  10.356
 1349W        W 5413   9.781  10.352   1.918
 1350W        W 5414   9.867   0.342   9.232
 1351W        W 5415   5.964   2.207   9.688
 1352W        W 5416   5.651   0.881   8.670
 1353W        W 5417   0.429   6.782   9.907
 1354W        W 5418   2.556   5.613   0.734
 1355W        W 5419   1.232   3.231   9.771
 1356W        W 5420   0.774   5.703  10.916
 1357W        W 5421   0.352   3.413   0.777
 1358W        W 5422   7.995   4.790   2.944
 1359W        W 5423   7.018   6.975   8.975
 1360W        W 5424   5.578   9.323   0.408
 1361W        W 5425   2.699   3.883   0.740
 1362W        W 5426   8.311   8.527  11.705
 1363W        W 5427   2.458   6.891   0.084
 1364W        W 5428   7.733   8.636   0.772
 1365W        W 5429   1.771   9.887   2.699
 1366W        W 5430   5.070   4.177  10.768
 1367W        W 5431   0.421   5.646   3.319
 1368W        W 5432   7.280   0.288   1.048
 1369W        W 5433   7.558   2.148   2.717
 1370W        W 5434   5.682   2.478  10.025
 1371W        W 5435   0.334   4.163  10.914
 1372W        W 5436   6.968   3.726   1.723
 1373W        W 5437   3.841   9.631   0.174
 1374W        W 5438   3.251   9.308   9.485
 1375W        W 5439   8.159  10.465  11.874
 1376W        W 5440   3.872   5.764   0.664
 1377W        W 5441   8.374   0.201   1.526
 1378W        W 5442   8.833   2.332   9.398
 1379W        W 5443   1.898   2.799  10.894
 1380W        W 5444   7.086   6.603   9.855
 1381W        W 5445   2.448   3.764   1.165
 1382W        W 5446   6.081   7.030   1.505
 1383W        W 5447   1.809   7.439   1.299
 1384W        W 5448   5.958   6.119  10.388
 1385W        W 5449   9.330   1.447   9.392
 1386W        W 5450   9.466   4.215   1.743
 1387W        W 5451   8.925   8.592  11.083
 1388W        W 5452   8.949   4.241   3.422
 1389W        W 5453   3.687   7.190   3.393
 1390W        W 5454   3.138   4.030   1.842
 1391W        W 5455   2.807   7.897  11.507
 1392W        W 5456   3.385   8.010   0.201
 1393W        W 5457   3.817   5.083   8.574
 1394W        W 5458   0.464   7.353   0.555
 1395W        W 5459   2.851   7.628  10.401
 1396W        W 5460   5.962   3.564  10.809
 1397W        W 5461   2.165   6.894   9.425
 1398W        W 5462   5.041   5.502   2.641
 1399W        W 5463   9.357   1.020   0.433
 1400W        W 5464   4.974   8.100  10.816
 1401W        W 5465   0.385   8.112   3.356
 1402W        W 5466   4.640   0.823   0.151
 1403W        W 5467   6.603   4.201   2.802
 1404W        W 5468   0.019   7.067   9.766
 1405W        W 5469   1.289   3.555  10.601
 1406W        W 5470   2.614   5.537   1.726
 1407W        W 5471   0.686   9.849  10.310
 1408W        W 5472   3.105   9.693   2.276
 1409W        W 5473   1.705   8.004   8.829
 1410W        W 5474   8.549   9.461  11.328
 1411W        W 5475   5.935   3.081  10.619
 1412W        W 5476   6.998  10.436   9.168
 1413W        W 5477   0.673   2.257  10.013
 1414W        W 5478   6.020   7.324   3.091
 1415W        W 5479   5.471   6.077  10.294
 1416W        W 5480   5.510   9.414  11.417
 1417W        W 5481   4.222   4.603   3.180
 1418W        W 5482   7.202   5.165   2.407
 1419W        W 5483   3.437   7.031   2.822
 1420W        W 5484   1.848   5.843   3.821
 1421W        W 5485   8.808   6.863  10.246
 1422W        W 5486   1.271   7.640  10.019
 1423W        W 5487   3.963   8.754  10.296
 1424W        W 5488   5.075  10.066   1.368
 1425W        W 5489   6.910   5.614   8.703
 1426W        W 5490   2.894  10.377   9.660
 1427W        W 5491   6.773   2.938  10.800
 1428W        W 5492   3.030  10.305   9.173
 1429W        W 5493   8.106   2.901   9.957
 1430W        W 5494   0.932   5.651   3.462
 1431W        W 5495   3.417   9.775   9.338
 1432W        W 5496   1.467   1.796   8.575
 1433W        W 5497   9.889   4.683   9.590
 1434W        W 5498   1.180   3.445   0.741
 1435W        W 5499   9.747   5.306   3.407
 1436W        W 5500   7.871   2.441  11.407
 1437W        W 5501   7.101   5.777   9.564
 1438W        W 5502   4.195   5.227   1.955
 1439W        W 5503   5.971   4.758  10.676
 1440W        W 5504   8.486   2.867   0.928
 1441W        W 5505   0.927   6.565   3.257
 1442W        W 5506   9.522   1.340  10.276
 1443W        W 5507   3.382   4.342   0.304
 1444W        W 5508   9.361   4.982   2.425
 1445W        W 5509   9.341   3.269  11.459
 1446W        W 5510   9.498   4.706  10.297
 1447W        W 5511   2.821   8.373   2.259
 1448W        W 5512   0.421   5.887   1.515
 1449W        W 5513   8.552   8.327   3.544
 1450W        W 5514   5.306   1.862   3.514
 1451W        W 5515   7.642   5.827   9.583
 1452W        W 5516   3.532   8.008  10.934
 1453W        W 5517   3.185   6.245   2.387
 1454W        W 5518   1.392   0.946  10.386
 1455W        W 5519   5.167   5.187  11.062
 1456W        W 5520   5.737   4.404  11.966
 1457W        W 5521   6.951   6.461   8.972
 1458W        W 5522   7.024   2.833  10.284
 1459W        W 5523   7.942   8.601   1.642
 1460W        W 5524   9.781   9.791  11.920
 1461W        W 5525   1.728   1.138  11.684
 1462W        W 5526  10.361   4.494   0.696
 1463W        W 5527   5.651   4.227   0.472
 1464W        W 5528   9.829   3.051   3.490
 1465W        W 5529   6.037   1.264   1.187
 1466W        W 5530   0.256   0.958   2.260
 1467W        W 5531   3.622   0.752  10.218
 1468W        W 5532   4.425  10.487   1.526
 1469W        W 5533   8.828   3.170   3.340
 1470W        W 5534   4.252   0.828   9.460
 1471W        W 5535   6.467   2.471   0.403
 1472W        W 5536   6.571   0.310  10.927
 1473W        W 5537   2.740  10.331  11.156
 1474W        W 5538   5.298   9.756   1.719
 1475W        W 5539   3.267   1.379   1.183
 1476W        W 5540   2.286   0.037  11.034
 1477W        W 5541   1.358   5.723   1.474
 1478W        W 5542   7.948   0.297  11.542
 1479W        W 5543   9.083   3.735   0.162
 1480W        W 5544   1.721   1.190   9.265
 1481W        W 5545   7.153   1.280   1.222
 1482W        W 5546   9.785   3.303   1.283
 1483W        W 5547   3.627   5.074   3.160
 1484W        W 5548   8.511   5.214   1.257
 1485W        W 5549   8.360   3.656   9.417
 1486W        W 5550   2.699   8.145  10.385
 1487W        W 5551   3.619   7.484   0.732
 1488W        W 5552   6.003   5.126   9.281
 1489W        W 5553   8.373   9.254   0.282
 1490W        W 5554   7.065   9.406   1.459
 1491W        W 5555   6.185   7.525   9.317
 1492W        W 5556   8.108   4.017   0.832
 1493W        W 5557   8.183   9.917   9.455
 1494W        W 5558   0.827   0.591   1.014
 1495W        W 5559   7.338   5.090   0.666
 1496W        W 5560  10.470   1.353  11.371
 1497W        W 5561   3.832   9.300  10.356
 1498W        W 5562   2.759   7.397   2.312
 1499W        W 5563   8.973   3.164   0.932
 1500W        W 5564   4.023   7.458  11.985
 1501W        W 5565   6.758   7.744  11.024
 1502W        W 5566   9.534   4.082   3.427
 1503W        W 5567   1.632   5.147   3.239
 1504W        W 5568   4.661   9.971   9.851
 1505W        W 5569   0.936   8.191   0.402
 1506W        W 5570   9.932   3.640   1.673
 1507W        W 5571   8.823   6.123  11.365
 1508W        W 5572   5.184   8.005   3.248
 1509W        W 5573   1.276   2.103  11.392
 1510W        W 5574   6.480   6.508   2.701
 1511W        W 5575   0.659   5.656   9.069
 1512W        W 5576   1.820   4.379   9.293
 1513W        W 5577   8.547   4.710   0.997
 1514W        W 5578   0.887   8.967  10.857
 1515W        W 5579   6.209   7.965   8.546
 1516W        W 5580   6.002   9.012   1.712
 1517W        W 5581   8.152   5.005   9.538
 1518W        W 5582   2.753   4.214   8.854
 1519W        W 5583   9.499   9.404  10.605
 1520W        W 5584   3.726   7.671   3.218
 1521W        W 5585   0.858   6.016  11.339
 1522W        W 5586   9.936   2.412   1.159
 1523W        W 5587   8.591   1.461   1.068
 1524W        W 5588   3.258   2.903   0.505
 1525W        W 5589   4.063   5.015   3.425
 1526W        W 5590   0.221   7.879   8.819
 1527W        W 5591   3.783   0.885   2.229
 1528W        W 5592  10.268   0.821  11.428
 1529W        W 5593  10.246   0.968   2.273
 1530W        W 5594   3.372   4.263   2.227
 1531W        W 5595   0.819   7.389   9.424
 1532W        W 5596   5.750   6.327  11.643
 1533W        W 5597   1.943   1.536   0.222
 1534W        W 5598   2.846   0.964   2.950
 1535W        W 5599   1.935   2.209   1.419
 1536W        W 5600   2.612   8.048   9.519
 1537W        W 5601   4.201   2.756   9.922
 1538W        W 5602   6.971   7.909   1.037
 1539W        W 5603   6.702  10.039   8.962
 1540W        W 5604   3.191   6.660   1.051
 1541W        W 5605   4.271   7.512   2.056
 1542W        W 5606   5.984   5.724   2.203
 1543W        W 5607   8.826   7.422  11.499
 1544W        W 5608   3.337   0.407   0.664
 1545W        W 5609  10.223   0.467  11.806
 1546W        W 5610   2.448  10.417  10.021
 1547W        W 5611   7.724   6.518   3.282
 1548W        W 5612   9.029   9.866   1.475
 1549W        W 5613   5.148   9.566  10.737
 1550W        W 5614   7.884   5.712  11.211
 1551W        W 5615  10.330   1.673   1.617
 1552W        W 5616   1.750   3.568   0.852
 1553W        W 5617   4.973   5.046   3.428
 1554W        W 5618   3.743   3.638   2.645
 1555W        W 5619   4.183   4.221   0.900
 1556W        W 5620   3.673   0.321  10.554
 1557W        W 5621   6.674   0.621   3.221
 1558W        W 5622   0.759   4.771   0.315
 1559W        W 5623   6.839   2.679   3.282
 1560W        W 5624   0.928   1.756   9.412
 1561W        W 5625   7.710   8.940   8.580
 1562W        W 5626   8.170   3.206   9.285
 1563W        W 5627   5.471   8.019  10.822
 1564W        W 5628   3.587   3.658  10.891
 1565W        W 5629   5.050   7.837   9.916
 1566W        W 5630   3.255   6.193   0.818
 1567W        W 5631   1.138   9.436   2.266
 1568W        W 5632   2.589   8.068   2.730
 1569W        W 5633   5.104  10.422   9.310
 1570W        W 5634   8.381   4.397   2.878
 1571W        W 5635   9.965   4.148   1.477
 1572W        W 5636   2.139   2.714   2.591
 1573W        W 5637   9.246   0.302  11.495
 1574W        W 5638   9.864   7.964  10.616
 1575W        W 5639   5.080   7.484   8.238
 1576W        W 5640   1.620   9.873   9.948
 1577W        W 5641   1.233   5.671   9.563
 1578W        W 5642   6.548   5.995  11.500
 1579W        W 5643   4.506   4.495   0.577
 1580W        W 5644   1.211   4.745   9.366
 1581W        W 5645   8.640   6.266   1.249
 1582W        W 5646   3.582   9.973   1.399
 1583W        W 5647  10.484   2.815  11.143
 1584W        W 5648   6.151   4.677   2.955
 1585W        W 5649  10.396   9.479   1.090
 1586W        W 5650   9.840   9.282  11.929
 1587W        W 5651   5.042   3.720   8.496
 1588W        W 5652   2.706   0.665   9.470
 1589W        W 5653   7.946   5.421  10.754
 1590W        W 5654   5.136   2.353   0.793
 1591W        W 5655   8.294   7.817   2.304
 1592W        W 5656   1.880   2.361  11.189
 1593W        W 5657   3.231   3.781   2.420
 1594W        W 5658   7.091   8.492   2.772
 1595W        W 5659   7.525   3.345   2.686
 1596W        W 5660   1.386   4.733   3.454
 1597W        W 5661   3.226   1.939   2.949
 1598W        W 5662   8.302  10.316   1.856
 1599W        W 5663   2.394   2.449   1.382
 1600W        W 5664   3.473   6.898   1.960
 1601W        W 5665   7.659   0.004   2.514
 1602W        W 5666   1.340   6.940   8.984
 1603W        W 5667   7.200  10.324   2.668
 1604W        W 5668   6.551   2.257   2.335
 1605W        W 5669   1.809   9.146   2.291
 1606W        W 5670   3.673   7.221  10.050
 1607W        W 5671   2.831   2.600   1.910
 1608W        W 5672   4.906   0.247   2.598
 1609W        W 5673   7.714   1.925   3.190
 1610W        W 5674   2.941   3.609   1.104
 1611W        W 5675   3.574   2.631   0.196
 1612W        W 5676   6.725   0.142   1.558
 1613W        W 5677   8.432   4.590   2.004
 1614W        W 5678   7.973   6.055   3.129
 1615W        W 5679   1.034   9.972   9.246
 1616W        W 5680   8.530   9.260  10.417
 1617W        W 5681   8.064   0.506   9.686
 1618W        W 5682   0.216  10.393   1.599
 1619W        W 5683   8.549   0.686   9.101
 1620W        W 5684   4.732   6.415   9.447
 1621W        W 5685   3.202   9.106  11.982
 1622W        W 5686  10.055   9.944   9.589
 1623W        W 5687  10.085   4.742  10.952
 1624W        W 5688   2.161   1.678  11.728
 1625W        W 5689   1.072   0.781  11.166
 1626W        W 5690   8.885   8.005   0.151
 1627W        W 5691   3.892   5.170   0.801
 1628W        W 5692   5.560   5.892   1.017
 1629W        W 5693  10.292   8.862   9.764
 1630W        W 5694   0.238   7.957   9.336
 1631W        W 5695   6.219   6.486   3.160
 1632W        W 5696   3.165   6.053   3.606
 1633W        W 5697   9.453   2.950   9.636
 1634W        W 5698   6.444   1.863   0.466
 1635W        W 5699   0.867   1.249   2.864
 1636W        W 5700   1.722   1.506   2.378
 1637W        W 5701   5.285   7.491   9.254
 1638W        W 5702   8.831   9.984  10.753
 1639W        W 5703   8.232   7.860   0.301
 1640W        W 5704   1.391   1.979   9.556
 1641W        W 5705   4.158   9.942   9.996
 1642W        W 5706   4.932   6.480   1.458
 1643W        W 5707   2.020   8.011   0.945
 1644W        W 5708   1.285   0.766   9.044
 1645W        W 5709   6.981   0.419   9.978
 1646W        W 5710   7.226   1.843   3.350
 1647W        W 5711   3.644   1.750   0.216
 1648W        W 5712   3.236   3.578   2.905
 1649W        W 5713   2.124   3.852   0.159
 1650W        W 5714   9.453   3.321  10.012
 1651W        W 5715   8.281   6.286  10.801
 1652W        W 5716   6.648   5.000   0.441
 1653W        W 5717   1.077   5.155  11.419
 1654W        W 5718   0.455   1.314  10.000
 1655W        W 5719   9.833   7.678   2.657
 1656W        W 5720   0.006   6.964   2.306
 1657W        W 5721   4.238   5.132  11.019
 1658W        W 5722   3.096   8.195  11.823
 1659W        W 5723   1.026   9.992   0.178
 1660W        W 5724   9.612   6.209   9.953
 1661W        W 5725   8.700   6.032   2.246
 1662W        W 5726   7.506   2.414   3.169
 1663W        W 5727   4.113   0.318   2.267
 1664W        W 5728   1.939   1.707  10.635
 1665W        W 5729   1.742   4.059  11.824
 1666W        W 5730   0.498   2.694  10.206
 1667W        W 5731   6.919   2.575   9.290
 1668W        W 5732   6.969   5.864   0.845
 1669W        W 5733   6.208   0.924  11.931
 1670W        W 5734   2.884   5.608   2.963
 1671W        W 5735  10.332   3.719   1.967
 1672W        W 5736   9.195   3.748  11.349
 1673W        W 5737   6.239   4.026   3.133
 1674W        W 5738   6.279  10.088   0.867
 1675W        W 5739   0.682   0.880   1.405
 1676W        W 5740   8.763   4.629   0.294
 1677W        W 5741   4.583   4.769  11.217
 1678W        W 5742   1.419   1.881  10.498
 1679W        W 5743   5.801   9.867   1.754
 1680W        W 5744   5.153   8.531  11.593
 1681W        W 5745   4.071   7.512   0.973
 1682W        W 5746   4.675   5.536   2.978
 1683W        W 5747   4.571   0.354   2.028
 1684W        W 5748   9.556   1.106   9.042
 1685W        W 5749  10.225   1.879  11.062
 1686W        W 5750   6.652   7.649   8.527
 1687W        W 5751   7.919   6.048   2.627
 1688W        W 5752   5.026   3.347   8.948
 1689W        W 5753   3.680   6.339  11.768
 1690W        W 5754   7.888   5.939  10.736
 1691W        W 5755   3.824   5.959   2.701
 1692W        W 5756   4.226   5.180  11.548
 1693W        W 5757   6.595   5.718   3.364
 1694W        W 5758   2.989   4.687   8.902
 1695W        W 5759   2.696   3.769   2.663
 1696W        W 5760   0.816   2.797   3.239
 1697W        W 5761   6.006   9.150   0.194
 1698W        W 5762   5.529   8.942   1.981
 1699W        W 5763   7.020   6.074  11.320
 1700W        W 5764   1.353   9.125  11.750
 1701W        W 5765   3.426   8.001   2.932
 1702W        W 5766   2.660   4.068   9.346
 1703W        W 5767   5.027   3.657   3.764
 1704W        W 5768   7.087   2.833  11.845
 1705W        W 5769   8.162   4.135   1.341
 1706W        W 5770   5.173   3.287  11.242
 1707W        W 5771   5.652   1.873   1.394
 1708W        W 5772   4.039   3.253   1.896
 1709W        W 5773   7.375   0.794   2.138
 1710W        W 5774   7.029   1.426  11.726
 1711W        W 5775   8.002   4.055   2.898
 1712W        W 5776   5.249   1.690   0.509
 1713W        W 5777   9.451   0.873   3.537
 1714W        W 5778   8.370   8.843   1.402
 1715W        W 5779  10.118   7.115  10.083
 1716W        W 5780   0.408   2.251  10.463
 1717W        W 5781   4.060   1.977   3.309
 1718W        W 5782   3.055   1.692   1.975
 1719W        W 5783   8.404   5.975  10.409
 1720W        W 5784   2.241   0.920   9.448
 1721W        W 5785   0.420   3.880  11.886
 1722W        W 5786  10.056   1.765   2.345
 1723W        W 5787   4.225   9.613  10.385
 1724W        W 5788   5.225   6.639   9.474
 1725W        W 5789   9.020   1.333   3.558
 1726W        W 5790   5.413   5.577   1.388
 1727W        W 5791   7.451   6.234   9.326
 1728W        W 5792   5.206   4.795   0.853
 1729W        W 5793   1.707   9.424  11.948
 1730W        W 5794   2.829   8.826   0.200
 1731W        W 5795   0.273   5.013   3.142
 1732W        W 5796   8.911   4.599   1.708
 1733W        W 5797   4.766  10.335   2.958
 1734W        W 5798   5.702   4.521  11.188
 1735W        W 5799   7.678  10.409  10.453
 1736W        W 5800   8.148   6.760  11.553
 1737W        W 5801   0.465   7.237   0.038
 1738W        W 5802   7.444   4.825   9.480
 1739W        W 5803   5.987   7.880  10.107
 1740W        W 5804   0.120   7.498  10.496
 1741W        W 5805   7.957   9.258   9.582
 1742W        W 5806   6.257   7.007  10.033
 1743W        W 5807   8.597   5.134   0.367
 1744W        W 5808   9.413   4.701   0.524
 1745W        W 5809   5.540   4.791   2.350
 1746W        W 5810   5.584   3.631  11.260
 1747W        W 5811   8.003   8.817   9.891
 1748W        W 5812   9.471   0.344   0.418
 1749W        W 5813   8.983   7.220   9.398
 1750W        W 5814   8.886   8.079   9.653
 1751W        W 5815   7.649   5.607  10.391
 1752W        W 5816   5.072   1.278   2.851
 1753W        W 5817   2.195   0.775   0.316
 1754W        W 5818   3.607   3.533   9.851
 1755W        W 5819  10.338   6.081   2.010
 1756W        W 5820   4.251   3.708   0.970
 1757W        W 5821   9.340   7.459   9.099
 1758W        W 5822   2.177   3.786   1.601
 1759W        W 5823   9.051   6.226  11.827
 1760W        W 5824   4.710   1.317   3.310
 1761W        W 5825   0.004   1.852   2.137
 1762W        W 5826   9.736   5.127  10.481
 1763W        W 5827   1.495   1.706  10.005
 1764W        W 5828   1.228   3.349   3.326
 1765W        W 5829   4.698   9.826   0.306
 1766W        W 5830  10.009   8.512   1.426
 1767W        W 5831   2.174   5.040  10.718
 1768W        W 5832   9.614   2.160   8.923
 1769W        W 5833   4.779   7.630  10.733
 1770W        W 5834   8.209   5.374  11.416
 1771W        W 5835   6.921   0.367   2.853
 1772W        W 5836   7.072   9.835   1.192
 1773W        W 5837   2.949   8.360  11.351
 1774W        W 5838   3.249   1.037   3.319
 1775W        W 5839   6.556   5.711   9.079
 1776W        W 5840   7.877   4.530   9.568
 1777W        W 5841   4.278   4.064   0.406
 1778W        W 5842   9.600   0.323   1.717
 1779W        W 5843   9.589   7.894   3.139
 1780W        W 5844   2.236   6.426   2.064
 1781W        W 5845   9.985   6.855  10.516
 1782W        W 5846   2.637   0.791   1.704
 1783W        W 5847   8.308   2.360   9.269
 1784W        W 5848  10.119   7.461  11.788
 1785W        W 5849   7.539   4.390   9.207
 1786W        W 5850   0.411   3.649   3.217
 1787W        W 5851   7.969   7.364   8.776
 1788W        W 5852   1.053   8.349   0.931
 1789W        W 5853   0.887   1.593   2.467
 1790W        W 5854   0.351   1.398   0.735
 1791W        W 5855   9.424   0.797   1.419
 1792W        W 5856   0.482   4.798  11.879
 1793W        W 5857   6.136   2.728   9.959
 1794W        W 5858   6.686   0.899   9.103
 1795W        W 5859   7.234   8.325   9.514
 1796W        W 5860   4.576   9.479  10.035
 1797W        W 5861   7.036   3.737   8.730
 1798W        W 5862   0.843   7.068   0.346
 1799W        W 5863   6.430   8.720   3.453
 1800W        W 5864   8.033  10.422   3.283
 1801W        W 5865   8.319   3.730  11.030
 1802W        W 5866  10.150   6.562   2.762
 1803W        W 5867   7.390   5.709  11.372
 1804W        W 5868   6.019   5.643  10.836
 1805W        W 5869   1.656   7.354   9.879
 1806W        W 5870   3.841   2.724   1.758
 1807W        W 5871   2.114   0.090   1.384
 1808W        W 5872   8.385   7.442   1.985
 1809W        W 5873   4.154   5.177   2.444
 1810W        W 5874   8.832   2.114  10.400
 1811W        W 5875   4.703   5.502   0.699
 1812W        W 5876   4.654   7.882   0.436
 1813W        W 5877   7.449   2.723  11.475
 1814W        W 5878   9.127   7.078  11.749
 1815W        W 5879  10.496   7.030   2.825
 1816W        W 5880   6.489   4.919   9.481
 1817W        W 5881   6.024   5.234  10.494
 1818W        W 5882   1.615   9.636  10.465
 1819W        W 5883   0.232   9.007  10.342
 1820W        W 5884   9.957   9.459   9.787
 1821W        W 5885   2.831   4.711  11.171
 1822W        W 5886   5.409   4.093  11.167
 1823W        W 5887  10.384   0.188   3.472
 1824W        W 5888   3.706   2.844   2.826
 1825W        W 5889   2.386   3.658  11.156
 1826W        W 5890   4.194   7.058   1.220
 1827W        W 5891   7.113   5.468   1.739
 1828W        W 5892   5.965   9.468   9.137
 1829W        W 5893   1.175   6.502   9.177
 1830W        W 5894   4.663   4.054   0.775
 1831W        W 5895  10.228   8.816  11.261
 1832W        W 5896   1.222   1.836   2.156
 1833W        W 5897  10.008   0.951   9.847
 1834W        W 5898   7.099   0.842   2.979
 1835W        W 5899   0.193   0.789   1.381
 1836W        W 5900   2.897   5.786   9.864
 1837W        W 5901   8.089   7.729   1.720
 1838W        W 5902   2.184   9.828   2.997
 1839W        W 5903   0.263   2.600  11.551
 1840W        W 5904   2.968   5.216  11.327
 1841W        W 5905   0.278   5.237  11.694
 1842W        W 5906   2.779   3.185   1.355
 1843W        W 5907   6.726   6.519   3.188
 1844W        W 5908   7.865   5.785   0.950
 1845W        W 5909   7.558   4.666  11.278
 1846W        W 5910   0.258   0.933  11.464
 1847W        W 5911   1.486   1.823   3.627
 1848W        W 5912   8.551   6.369   9.430
 1849W        W 5913   5.147   4.268   0.666
 1850W        W 5914   5.698  10.251   2.974
 1851W        W 5915   5.686   2.883   1.433
 1852W        W 5916   0.197  10.063  11.887
 1853W        W 5917   2.702   2.365   0.818
 1854W        W 5918   4.497   0.266  10.913
 1855W        W 5919   3.391   9.475   2.945
 1856W        W 5920   9.972   9.379  10.296
 1857W        W 5921   9.028   9.421   9.997
 1858W        W 5922   3.623   4.532  11.395
 1859W        W 5923   1.796   1.255   1.917
 1860W        W 5924   6.724   4.948   8.237
 1861W        W 5925   8.532   9.516   9.966
 1862W        W 5926   9.410   1.471   0.192
 1863W        W 5927   6.097   5.443   0.816
 1864W        W 5928   9.210   0.454   2.657
 1865W        W 5929   2.917   5.482  10.821
 1866W        W 5930   4.131   3.607  10.858
 1867W        W 5931   1.460  10.393   2.351
 1868W        W 5932   4.995   2.717  10.554
 1869W        W 5933   4.064   1.264   9.634
 1870W        W 5934   1.777   4.785  11.105
 1871W        W 5935   9.385  10.162   2.269
 1872W        W 5936   3.219   7.523   1.024
 1873W        W 5937   5.621   0.760  10.234
 1874W        W 5938   3.292   2.727   9.812
 1875W        W 5939   3.224   9.109   8.641
 1876W        W 5940   9.933   0.204  10.815
 1877W        W 5941   5.608   5.511   0.659
 1878W        W 5942   2.274   6.919  10.448
 1879W        W 5943   5.783   3.996  10.352
 1880W        W 5944   8.594  10.272  11.671
 1881W        W 5945   3.751   5.056  10.106
 1882W        W 5946   1.931   3.363   0.363
 1883W        W 5947   6.480   3.854   0.500
 1884W        W 5948   8.914   0.194  11.900
 1885W        W 5949   6.428   6.321   9.160
 1886W        W 5950   8.301   4.700   0.500
 1887W        W 5951   6.107   2.316   3.126
 1888W        W 5952   4.531   6.652  11.662
 1889W        W 5953   9.162   1.926  11.989
 1890W        W 5954   1.476   0.753  10.836
 1891W        W 5955   1.647   8.820   8.364
 1892W        W 5956   3.775   5.166   1.677
 1893W        W 5957   2.499   6.233   2.855
 1894W        W 5958  10.262   0.274   8.901
 1895W        W 5959  10.017   2.768  10.954
 1896W        W 5960   6.207   7.476   8.791
 1897W        W 5961   5.499   4.291   9.881
 1898W        W 5962   8.804   8.959  10.092
 1899W        W 5963   8.348   2.675  10.516
 1900W        W 5964   5.430   9.196   1.260
 1901W        W 5965   3.294   2.619  10.864
 1902W        W 5966   9.241   0.948   9.421
 1903W        W 5967   7.309   3.285   8.401
 1904W        W 5968   6.119   6.989   0.993
 1905W        W 5969   5.678   0.233  10.421
 1906W        W 5970   9.740   8.450   9.924
 1907W        W 5971   0.428   7.039   9.460
 1908W        W 5972   2.586   3.365   0.820
 1909W        W 5973   0.737   6.496   9.532
 1910W        W 5974   1.698   8.186   2.300
 1911W        W 5975   7.891   2.890  10.415
 1912W        W 5976   4.698   0.829   9.713
 1913W        W 5977   9.885   1.486   8.618
 1914W        W 5978   5.736   2.964  10.168
 1915W        W 5979   4.278   8.987   9.970
 1916W        W 5980   5.515   8.354   0.221
 1917W        W 5981   1.437   0.445   0.649
 1918W        W 5982   4.162   9.743   1.293
 1919W        W 5983   2.033   5.550  10.503
 1920W        W 5984   7.828   7.479   9.782
 1921W        W 5985   2.312   8.780  11.858
 1922W        W 5986   3.016   1.728   8.737
 1923W        W 5987   5.209   8.933   3.318
 1924W        W 5988   6.063   0.919  10.003
 1925W        W 5989   6.167   7.598   2.174
 1926W        W 5990   2.151   7.768   0.066
 1927W        W 5991   7.551   9.938   2.467
 1928W        W 5992   8.632   2.671   3.488
 1929W        W 5993  10.482   5.164   1.715
 1930W        W 5994   9.823   4.572   1.827
 1931W        W 5995   7.900   7.162  10.671
 1932W        W 5996   8.141   8.159   1.478
 1933W        W 5997   4.685   3.428  11.164
 1934W        W 5998   9.284   0.262   2.189
 1935W        W 5999   7.447   0.830  10.454
 1936W        W 6000   0.060   0.339   1.148
 1937W        W 6001   1.371   3.677  11.594
 1938W        W 6002   9.990   5.463   0.527
 1939W        W 6003  10.114   9.332   3.331
 1940W        W 6004   3.633   4.060  11.232
 1941W        W 6005   4.967   9.071   1.423
 1942W        W 6006   4.639   8.414  11.958
 1943W        W 6007   1.560   5.261  11.304
 1944W        W 6008   1.657   0.782   2.104
 1945W        W 6009   3.815   9.582   1.647
 1946W        W 6010   2.751   1.846   3.153
 1947W        W 6011   1.855   4.030   3.156
 1948W        W 6012   9.894   2.035   2.750
 1949W        W 6013   6.434   8.001   2.374
 1950W        W 6014   2.860   6.448  10.595
 1951W        W 6015   3.067   5.042   2.740
 1952W        W 6016   1.249   9.069  10.479
 1953W        W 6017   2.198   7.047   3.441
 1954W        W 6018   5.141   4.719   9.228
 1955W        W 6019   8.747   6.220   9.905
 1956W        W 6020   2.244   7.367   0.429
 1957W        W 6021   6.876   4.251   9.871
 1958W        W 6022   4.642   6.084  10.956
 1959W        W 6023   7.439   4.488   4.193
 1960W        W 6024   2.758   0.997  11.817
 1961W        W 6025   8.993   8.029  11.099
 1962W        W 6026   8.881   6.324   9.015
 1963W        W 6027   7.628   4.134  11.437
 1964W        W 6028   9.745   6.224   2.858
 1965W        W 6029   9.307   2.363  10.477
 1966W        W 6030   8.163   4.632   2.476
 1967W        W 6031   0.475   7.019   2.502
 1968W        W 6032  10.458   2.255  11.357
 1969W        W 6033   2.693   6.897   3.520
 1970W        W 6034   7.996   9.055   3.519
 1971W        W 6035   5.492   8.847   0.311
 1972W        W 6036   2.520   9.877  11.768
 1973W        W 6037   4.503   3.180   9.891
 1974W        W 6038   2.211  10.295   0.965
 1975W        W 6039   0.857   9.005  11.785
 1976W        W 6040   3.564  10.498   1.209
 1977W        W 6041   8.311   5.131   0.791
 1978W        W 6042   7.617   0.603   8.435
 1979W        W 6043   0.773   1.106   2.365
 1980W        W 6044   9.526   0.182  10.011
 1981W        W 6045   9.116   2.849   3.641
 1982W        W 6046   6.594   7.130  10.997
 1983W        W 6047   5.593   7.894   9.216
 1984W        W 6048   1.985   6.980   0.227
 1985W        W 6049   6.015   4.096   3.589
 1986W        W 6050   2.787  10.043   0.970
 1987W        W 6051   9.686   3.421   9.553
 1988W        W 6052   0.729   8.556   2.480
 1989W        W 6053   0.660   8.656   0.834
 1990W        W 6054   5.732   9.954   8.857
 1991W        W 6055   7.632   3.198  10.756
 1992W        W 6056   3.567   0.314   9.070
 1993W        W 6057   2.896   2.136  10.472
 1994W        W 6058   3.909   1.326   0.316
 1995W        W 6059   0.354   5.856  10.656
 1996W        W 6060   8.337   4.746  11.022
 1997W        W 6061   3.326   9.455  10.358
 1998W        W 6062   5.137   6.229   3.754
 1999W        W 6063   7.160   4.287  11.334
 2000W        W 6064   5.482   0.931   2.648
 2001W        W 6065   7.893   2.775   3.247
 2002W        W 6066   0.344   2.522   9.663
 2003W        W 6067  10.323   7.421   3.345
 2004W        W 6068   5.760   2.706   0.944
 2005W        W 6069   7.445   2.678  10.511
 2006W        W 6070   2.242   2.881   8.993
 2007W        W 6071   6.870   8.083   1.501
 2008W        W 6072   6.538   0.620   1.681
 2009W        W 6073   9.995   8.318   8.999
 2010W        W 6074   7.401   8.702   9.220
 2011W        W 6075   3.362   3.152   3.830
 2012W        W 6076   8.348   1.266   2.824
 2013W        W 6077   9.266   1.588   3.191
 2014W        W 6078   7.239   7.634   1.388
 2015W        W 6079   0.726   1.866   2.868
 2016W        W 6080   1.294   8.056   2.018
 2017W        W 6081   5.785   3.900   2.280
 2018W        W 6082   5.005   0.412   9.691
 2019W        W 6083  10.332   7.472   9.501
 2020W        W 6084   9.617  10.346   3.175
 2021W        W 6085   5.150   8.073   9.470
 2022W        W 6086   0.480   4.590  10.013
 2023W        W 6087   5.206   9.026  11.480
 2024W        W 6088   9.134   8.334  11.478
 2025W        W 6089   2.828   9.239   2.264
 2026W        W 6090   7.769   9.428   3.190
 2027W        W 6091  10.256   8.415  10.010
 2028W        W 6092   2.724   0.733   0.257
 2029W        W 6093   1.484   7.609   0.733
 2030W        W 6094   8.057   1.424  10.361
 2031W        W 6095   3.810   7.588  11.027
 2032W        W 6096   4.170   4.648   2.228
 2033W        W 6097   7.410   7.954   0.736
 2034W        W 6098   9.054   1.597  11.594
 2035W        W 6099   1.246   8.566   3.242
 2036W        W 6100   0.470   1.400  11.365
 2037W        W 6101   9.857   8.380  10.983
 2038W        W 6102   3.788   0.390   0.948
 2039W        W 6103   8.545   1.370   0.571
 2040W        W 6104   5.726   2.889   2.341
 2041W        W 6105   3.383   5.738   3.213
 2042W        W 6106   8.404   2.814   9.527
 2043W        W 6107   8.886   6.194   1.767
 2044W        W 6108   2.334   0.339   3.218
 2045W        W 6109   8.663   9.025   1.801
 2046W        W 6110   6.700   1.791   9.190
 2047W        W 6111   1.490   9.955   9.451
 2048W        W 6112   1.866   8.072  11.456
 2049W        W 6113   1.683   6.134   8.518
 2050W        W 6114   1.310   1.075   1.821
 2051W        W 6115  10.073   6.969  11.594
 2052W        W 6116   3.598   2.293   9.101
 2053W        W 6117   2.341   5.687   2.738
 2054W        W 6118   7.414   2.610   9.505
 2055W        W 6119   2.388   9.656  11.313
 2056W        W 6120   1.246   9.388  11.025
 2057W        W 6121  10.416   5.710  10.878
 2058W        W 6122   9.981   1.375  11.522
 2059W        W 6123   0.293   1.487   9.492
 2060W        W 6124  10.368   2.423   9.528
 2061W        W 6125   6.175   6.505   0.743
 2062W        W 6126   2.361   9.640  10.120
 2063W        W 6127   1.073   7.412  10.431
 2064W        W 6128   4.595   5.150   8.828
 2065W        W 6129   5.137   9.544   2.655
 2066W        W 6130   2.371   2.127   0.511
 2067W        W 6131   3.965   4.134   3.998
 2068W        W 6132   4.696   2.407   3.166
 2069W        W 6133   2.720   4.592   8.466
 2070W        W 6134   5.557   4.384   3.581
 2071W        W 6135   5.238   0.888  11.430
 2072W        W 6136   4.552   4.618   1.436
 2073W        W 6137   5.620   0.756   3.124
 2074W        W 6138   1.471   8.932   1.523
 2075W        W 6139   1.106   8.985  11.323
 2076W        W 6140   2.353   6.028   2.356
 2077W        W 6141   0.804   2.638   9.264
 2078W        W 6142   3.903   1.902  10.246
 2079W        W 6143   0.848   7.679   1.874
 2080W        W 6144   5.288   4.448  11.507
 2081W        W 6145   5.253  10.496  10.843
 2082W        W 6146   2.857   4.004   1.412
 2083W        W 6147   7.449   6.111  11.017
 2084W        W 6148   5.933   3.184   9.759
 2085W        W 6149   8.467   9.490   9.464
 2086W        W 6150   9.617  10.174  11.604
 2087W        W 6151   8.297   5.095  10.482
 2088W        W 6152   2.628   7.056   9.204
 2089W        W 6153   6.158   9.386   8.658
 2090W        W 6154   0.820   5.256   0.523
 2091W        W 6155  10.092   1.414   9.688
 2092W        W 6156   6.499   1.133   1.886
 2093W        W 6157   0.065   9.523   2.987
 2094W        W 6158   9.487   2.885  11.795
 2095W        W 6159   3.671   9.338  11.788
 2096W        W 6160   9.848   5.230   2.917
 2097W        W 6161   6.575   4.337   0.424
 2098W        W 6162   8.291  10.469  11.263
 2099W        W 6163   9.192   6.136   2.163
 2100W        W 6164   0.446   2.052   0.391
 2101W        W 6165   3.024   8.699  11.734
 2102W        W 6166   5.474   2.151   0.451
 2103W        W 6167   8.976   7.524  11.013
 2104W        W 6168   8.739   3.563  11.263
 2105W        W 6169   5.048   5.211   9.083
 2106W        W 6170   8.975   8.369  10.616
 2107W        W 6171   2.284   4.892   8.456
 2108W        W 6172   3.692   0.868   0.184
 2109W        W 6173   4.252   9.248   3.735
 2110W        W 6174   9.163   2.379   8.998
 2111W        W 6175   2.657   0.534   2.488
 2112W        W 6176   8.492   7.946  10.959
 2113W        W 6177   7.042   3.574   2.273
 2114W        W 6178   3.629  10.372   8.798
 2115W        W 6179   6.253   6.739  11.055
 2116W        W 6180   3.551   1.721   2.156
 2117W        W 6181   9.828   1.544  11.046
 2118W        W 6182   3.756   0.400   1.461
 2119W        W 6183  10.065  10.248   3.521
 2120W        W 6184   8.371   8.109   1.021
 2121W        W 6185   8.868   9.239  11.865
 2122W        W 6186   2.952   7.692   2.893
 2123W        W 6187   9.953   9.283  10.778
 2124W        W 6188   5.658   6.693   9.760
 2125W        W 6189   7.948   6.223  11.205
 2126W        W 6190   7.466   0.321   1.910
 2127W        W 6191   6.834   9.411  11.582
 2128W        W 6192   8.145   1.335   0.867
 2129W        W 6193   1.182   2.624  11.556
 2130W        W 6194   8.927   9.967   2.497
 2131W        W 6195   4.969   5.986  10.068
 2132W        W 6196   1.007   4.696   2.229
 2133W        W 6197   2.793   8.902  10.890
 2134W        W 6198   4.256   0.304   0.711
 2135W        W 6199  10.381   0.392  10.522
 2136W        W 6200   4.044   9.843   2.296
 2137W        W 6201   9.110   3.839  10.430
 2138W        W 6202   5.734   0.210   1.485
 2139W        W 6203   3.214   3.410   8.612
 2140W        W 6204   3.631   9.030   0.801
 2141W        W 6205   0.848   0.780   9.386
 2142W        W 6206   2.400   1.247   0.343
 2143W        W 6207   0.856   6.957   9.741
 2144W        W 6208   1.779   2.130   8.809
 2145W        W 6209   3.420   1.414  11.374
 2146W        W 6210   5.780   7.385   1.240
 2147W        W 6211   0.797   5.851   0.777
 2148W        W 6212   6.073   7.958   9.059
 2149W        W 6213   1.945  10.414  10.154
 2150W        W 6214   6.153   1.677   2.462
 2151W        W 6215   1.804   6.763   3.594
 2152W        W 6216   1.393   5.930  10.973
 2153W        W 6217   1.489   2.635   1.774
 2154W        W 6218   7.886   1.690   0.572
 2155W        W 6219   9.746   1.815   0.366
 2156W        W 6220   2.077   5.426   0.918
 2157W        W 6221   3.999   6.479   3.304
 2158W        W 6222   4.262   9.554   1.867
 2159W        W 6223   2.843   5.540  11.731
 2160W        W 6224   9.372   9.855   3.317
 2161W        W 6225   8.023   2.291   2.994
 2162W        W 6226   2.227   2.211   3.284
 2163W        W 6227   8.010  10.154   2.332
 2164W        W 6228   6.912  10.343  11.460
 2165W        W 6229   2.733   3.619   8.753
 2166W        W 6230   7.823   8.478  11.614
 2167W        W 6231   9.111  10.301  11.574
 2168W        W 6232   6.970   2.706   0.338
 2169W        W 6233   3.108   0.880   1.456
 2170W        W 6234   1.056   4.974   8.884
 2171W        W 6235   0.692  10.340   1.425
 2172W        W 6236   7.096   2.293   0.059
 2173W        W 6237   6.533   4.661   2.606
 2174W        W 6238   8.596   2.804  10.019
 2175W        W 6239   3.640   7.970  10.400
 2176W        W 6240   9.052   6.997   1.183
 2177W        W 6241   8.042   4.399   3.253
 2178W        W 6242   1.402   4.672  11.467
 2179W        W 6243   4.719   8.922  10.731
 2180W        W 6244   6.693   7.202  11.895
 2181W        W 6245   8.013   9.672   8.591
 2182W        W 6246   9.481   4.099   2.251
 2183W        W 6247   9.383   8.031  10.478
 2184W        W 6248   5.039   3.296  10.755
 2185W        W 6249   5.661   5.827  11.678
 2186W        W 6250   3.667   9.537   8.955
 2187W        W 6251   4.092  10.446   9.040
 2188W        W 6252   5.641   8.487   2.185
 2189W        W 6253   3.319   6.640  10.851
 2190W        W 6254   1.663   6.626   0.064
 2191W        W 6255   8.068   1.232  10.860
 2192W        W 6256   3.269   6.652  10.329
 2193W        W 6257   9.551   1.817   2.436
 2194W        W 6258   8.941   0.852   3.385
 2195W        W 6259   7.345   4.374  11.833
 2196W        W 6260   1.185   2.732  10.666
 2197W        W 6261   1.171   4.522   0.519
 2198W        W 6262   3.387   2.042   1.809
 2199W        W 6263   2.181   7.012  10.956
 2200W        W 6264   4.503   3.188   0.809
 2201W        W 6265   5.653   6.039   0.562
 2202W        W 6266   5.366   6.838   1.914
 2203W        W 6267   1.755   3.634   1.351
 2204W        W 6268   7.635   4.055   9.588
 2205W        W 6269   9.357   7.568   1.792
 2206W        W 6270   6.972   1.934  11.711
 2207W        W 6271   1.700   5.221  10.809
 2208W        W 6272   2.848   0.565   0.808
 2209W        W 6273   9.526   7.001   9.368
 2210W        W 6274   2.621   4.108   1.869
 2211W        W 6275   2.438   6.260  11.946
 2212W        W 6276   6.174   4.748   1.568
 2213W        W 6277   0.599   8.148   0.791
 2214W        W 6278   9.002   8.325   9.232
 2215W        W 6279   9.709   1.702   8.131
 2216W        W 6280   6.453   5.219   9.076
 2217W        W 6281   3.688   5.715  11.193
 2218W        W 6282   2.560   5.584  10.433
 2219W        W 6283   5.346   1.742  10.387
 2220W        W 6284   5.271   1.287   0.161
 2221W        W 6285   8.831   7.839   1.008
 2222W        W 6286   8.779   5.086  10.336
 2223W        W 6287   6.707   5.670   2.862
 2224W        W 6288   3.181   5.295   0.423
 2225W        W 6289   8.673   2.258   0.814
 2226W        W 6290   0.679   7.933  10.974
 2227W        W 6291   8.587   9.004   8.720
 2228W        W 6292   3.348   3.034   3.170
 2229W        W 6293   2.291   0.248   2.717
 2230W        W 6294   5.220   2.136   2.637
 2231W        W 6295   6.971   8.024   9.849
 2232W        W 6296   1.893   0.134   2.214
 2233W        W 6297   2.883   9.899  10.869
 2234W        W 6298   4.023   9.108  11.483
 2235W        W 6299   1.904   2.182   3.685
 2236W        W 6300   7.101   4.047   3.550
 2237W        W 6301   0.293   0.518   9.777
 2238W        W 6302   9.011   2.320   2.857
 2239W        W 6303   2.855   2.680   1.409
 2240W        W 6304   7.123   7.964   3.020
 2241W        W 6305   3.235   1.812   9.205
 2242W        W 6306   4.623   1.288   1.985
 2243W        W 6307   9.441   9.264   9.559
 2244W        W 6308   0.403   0.752   8.748
 2245W        W 6309  10.297   8.316  11.240
 2246W        W 6310   5.414   0.433   8.841
 2247W        W 6311   0.812  10.326  11.481
 2248W        W 6312   8.458   9.504   0.728
 2249W        W 6313   7.952   2.312   3.497
 2250W        W 6314   3.492   8.931  10.346
 2251W        W 6315   4.206   6.041   0.961
 2252W        W 6316   5.269  10.489   9.790
 2253W        W 6317   7.367   8.414   3.234
 2254W        W 6318   6.666   0.220   2.451
 2255W        W 6319   1.605   9.584   2.081
 2256W        W 6320   4.359   1.959  10.476
 2257W        W 6321   1.520   4.693   2.261
 2258W        W 6322   3.157   9.469   9.007
 2259W        W 6323   8.954   1.118  11.368
 2260W        W 6324   3.079   2.205  11.747
 2261W        W 6325   3.384   8.344   9.359
 2262W        W 6326   1.390   7.554   9.487
 2263W        W 6327   0.931   7.388  11.912
 2264W        W 6328   5.151   9.065   2.825
 2265W        W 6329   6.940   6.954   1.846
 2266W        W 6330   1.870   2.139  10.358
 2267W        W 6331   8.990   0.510   0.313
 2268W        W 6332   7.627   6.888   9.767
 2269W        W 6333   6.673   1.145   0.007
 2270W        W 6334   1.413   5.132  11.798
 2271W        W 6335   4.573   9.299  11.053
 2272W        W 6336   4.635   9.380   3.425
 2273W        W 6337   3.365   7.878  11.530
 2274W        W 6338   1.043  10.470  11.928
 2275W        W 6339   8.910   1.534   0.269
 2276W        W 6340   3.626   5.550   1.966
 2277W        W 6341   6.190   1.862  10.464
 2278W        W 6342   3.042   6.913   3.131
 2279W        W 6343   1.077   1.896   1.392
 2280W        W 6344   7.340   9.681  11.046
 2281W        W 6345   8.184   9.437   2.876
 2282W        W 6346   3.295   4.265   8.786
 2283W        W 6347   2.284   9.088  11.443
 2284W        W 6348   1.540   6.189   2.906
 2285W        W 6349   8.184   2.562  10.995
 2286W        W 6350   5.657   2.047  11.990
 2287W        W 6351   1.561   1.779   1.257
 2288W        W 6352   0.420   7.115  10.643
 2289W        W 6353   0.449   2.130  11.459
 2290W        W 6354   1.283   4.104   8.743
 2291W        W 6355   1.950   7.011   0.965
 2292W        W 6356   0.955   0.267   0.636
 2293W        W 6357   3.705   2.212   3.042
 2294W        W 6358   8.977   4.159   0.430
 2295W        W 6359   2.377   8.605   0.336
 2296W        W 6360   1.770   4.247  10.982
 2297W        W 6361   1.912   8.405   8.551
 2298W        W 6362   4.252   7.053   0.186
 2299W        W 6363   9.207   7.464   2.305
 2300W        W 6364   0.678   3.946   2.904
 2301W        W 6365   2.147   7.974   9.692
 2302W        W 6366   7.135   6.684   4.092
 2303W        W 6367   9.435   6.172   0.706
 2304W        W 6368   7.685   9.715   0.853
 2305W        W 6369   1.071   9.440   2.792
 2306W        W 6370   6.878   1.305   2.198
 2307W        W 6371   2.286   4.823   3.235
 2308W        W 6372   3.808   8.457   1.402
 2309W        W 6373   8.895   8.368   0.957
 2310W        W 6374   3.985   6.704   1.977
 2311W        W 6375   9.188   3.584   8.930
 2312W        W 6376   5.524   9.892   2.171
 2313W        W 6377   0.475   6.142  11.662
 2314W        W 6378   8.805   6.665   0.559
 2315W        W 6379   6.128   1.855  11.544
 2316W        W 6380  10.454   1.339   1.967
 2317W        W 6381   9.843   1.728   9.999
 2318W        W 6382   9.988   1.173   0.001
 2319W        W 6383   8.990   1.975   1.633
 2320W        W 6384   7.984   2.714   1.711
 2321W        W 6385   1.585   5.361   0.223
 2322W        W 6386   0.864   8.048  10.528
 2323W        W 6387   6.675   7.984   0.252
 2324W        W 6388   5.476   5.212   2.679
 2325W        W 6389  10.470   8.458   2.646
 2326W        W 6390  10.028   2.625   3.329
 2327W        W 6391   3.177   3.534   1.760
 2328W        W 6392   9.844   3.243  11.836
 2329W        W 6393   7.192   3.032   9.306
 2330W        W 6394   1.377   0.501   8.590
 2331W        W 6395   3.460   4.165  10.763
 2332W        W 6396   7.651   5.988   8.335
 2333W        W 6397   4.827   2.793   0.927
 2334W        W 6398   1.727   5.849   9.720
 2335W        W 6399   7.370   6.042   1.790
 2336W        W 6400   4.138   8.843   2.373
 2337W        W 6401   4.542   3.638  10.128
 2338W        W 6402   0.737   1.652   0.494
 2339W        W 6403   1.587   6.467   1.858
 2340W        W 6404   4.330   0.992  11.404
 2341W        W 6405   6.990   7.608  10.136
 2342W        W 6406   1.687   0.056   0.364
 2343W        W 6407   4.397   2.641  11.057
 2344W        W 6408   4.232   3.399  11.410
 2345W        W 6409   3.544   1.726   0.869
 2346W        W 6410   6.452   0.207   1.988
 2347W        W 6411   5.127   4.073   8.119
 2348W        W 6412   3.194   4.640  10.044
 2349W        W 6413   1.449   0.757  11.876
 2350W        W 6414   8.957   8.460  10.098
 2351W        W 6415   8.964   7.937   1.543
 2352W        W 6416   2.914   0.274   0.400
 2353W        W 6417   9.969   8.776  11.937
 2354W        W 6418   2.225   6.043  10.992
 2355W        W 6419   3.626   2.598   0.745
 2356W        W 6420  10.160   8.706  10.745
 2357W        W 6421   1.861   7.427  11.130
 2358W        W 6422   0.271   0.262   8.862
 2359W        W 6423   7.458   7.541  11.442
 2360W        W 6424   8.541   6.562  11.785
 2361W        W 6425   9.637   6.625   0.893
 2362W        W 6426   7.235   3.184   1.015
 2363W        W 6427   7.712   9.088   9.074
 2364W        W 6428   8.916   7.855  10.619
 2365W        W 6429   3.353   6.975   8.539
 2366W        W 6430   6.673   1.697  10.260
 2367W        W 6431   3.291   7.887   0.683
 2368W        W 6432   4.571   9.846   3.174
 2369W        W 6433   9.711  10.237   9.817
 2370W        W 6434   9.864   5.442  11.523
 2371W        W 6435   7.951  10.171   0.831
 2372W        W 6436   6.586   8.750   2.991
 2373W        W 6437   0.430   1.449   2.688
 2374W        W 6438   0.138   6.739  10.883
 2375W        W 6439   7.603   5.551   1.716
 2376W        W 6440   6.684   1.690   9.731
 2377W        W 6441   6.402   5.727   1.614
 2378W        W 6442   3.378   9.768  11.628
 2379W        W 6443   4.769   1.246  11.887
 2380W        W 6444   1.167   6.078   3.244
 2381W        W 6445   6.280   3.660   0.941
 2382W        W 6446   8.138   3.072  10.824
 2383W        W 6447   7.160   5.472   2.805
 2384W        W 6448   5.672  10.276   2.465
 2385W        W 6449   1.382   6.569  10.200
 2386W        W 6450   8.129   7.522  10.333
 2387W        W 6451   8.013   2.273   2.480
 2388W        W 6452   7.061   3.356  11.586
 2389W        W 6453   2.736   8.842  10.053
 2390W        W 6454  10.072   0.156   1.608
 2391W        W 6455   1.846   6.470   3.192
 2392W        W 6456   1.667   9.218  10.764
 2393W        W 6457   2.710   4.451   0.043
 2394W        W 6458   4.492   6.621   2.703
 2395W        W 6459   1.401   7.215   1.510
 2396W        W 6460   2.247   6.022  10.457
 2397W        W 6461   7.413   4.546   1.315
 2398W        W 6462   4.703   9.354   0.064
 2399W        W 6463   8.761   5.196   3.249
 2400W        W 6464   9.806   6.964   0.549
 2401W        W 6465   4.857   5.016   1.212
 2402W        W 6466   3.183   6.351   8.334
 2403W        W 6467   2.592   3.875  11.931
 2404W        W 6468   7.488   7.506   1.851
 2405W        W 6469   6.939   0.876   1.907
 2406W        W 6470   9.473   1.502   0.707
 2407W        W 6471   7.516   5.464   1.213
 2408W        W 6472   5.035   9.659   2.167
 2409W        W 6473   2.005   2.850   9.443
 2410W        W 6474   6.911   5.598  11.522
 2411W        W 6475   9.816   5.613   0.047
 2412W        W 6476   4.246   8.391   9.148
 2413W        W 6477   2.352   2.264   2.788
 2414W        W 6478   7.000   4.188   0.181
 2415W        W 6479   0.361   7.543   3.377
 2416W        W 6480   7.019   9.862  11.776
 2417W        W 6481   5.113   5.391  11.509
 2418W        W 6482   3.796   6.471   9.625
 2419W        W 6483   2.940   9.872   9.466
 2420W        W 6484   7.945   3.330  11.627
 2421W        W 6485   3.544   4.314   9.504
 2422W        W 6486   0.802   1.151   0.964
 2423W        W 6487   7.062   5.821   4.098
 2424W        W 6488   3.802   9.874   8.581
 2425W        W 6489   4.197   7.950   0.678
 2426W        W 6490   9.088   2.373   0.561
 2427W        W 6491   8.466   2.844   1.556
 2428W        W 6492   9.387   4.588   2.095
 2429W        W 6493   8.194   1.027   1.848
 2430W        W 6494   2.963   9.244   3.145
 2431W        W 6495   5.012   0.350   3.082
 2432W        W 6496   8.527   7.982   1.859
 2433W        W 6497   8.121   6.623   9.514
 2434W        W 6498   5.198   4.638  10.521
 2435W        W 6499   6.041  10.213   9.200
 2436W        W 6500   8.332   1.706   0.262
 2437W        W 6501   1.934   7.375   1.805
 2438W        W 6502   3.238   9.398   0.567
 2439W        W 6503   3.988   1.139   3.513
 2440W        W 6504   9.971   1.362   9.172
 2441W        W 6505   5.902   4.101  11.427
 2442W        W 6506   8.066   5.631   1.884
 2443W        W 6507   7.542   8.204   2.783
 2444W        W 6508  10.284   7.970   2.651
 2445W        W 6509  10.146   6.750   0.894
 2446W        W 6510   5.721  10.287  10.678
 2447W        W 6511   5.656   0.727  11.697
 2448W        W 6512   4.223  10.319  10.855
 2449W        W 6513   3.723   6.928   2.413
 2450W        W 6514   7.018   9.882   3.634
 2451W        W 6515   3.280   3.810  11.506
 2452W        W 6516   1.197   5.651  11.382
 2453W        W 6517   2.115   3.178   0.786
 2454W        W 6518  10.483   7.004  10.412
 2455W        W 6519   4.011   2.258   9.874
 2456W        W 6520   5.923   2.665   9.501
 2457W        W 6521   3.577   6.555  11.320
 2458W        W 6522   4.732   3.194   9.380
 2459W        W 6523   3.840   2.406   2.584
 2460W        W 6524   6.389   6.676   3.684
 2461W        W 6525   0.177   6.592   2.619
 2462W        W 6526   8.635   6.512   3.453
 2463W        W 6527   4.580   8.035   9.462
 2464W        W 6528   3.661   1.366  11.844
 2465W        W 6529   5.689   7.913   8.705
 2466W        W 6530   0.838   5.038   1.258
 2467W        W 6531   0.972   3.301  10.924
 2468W        W 6532   6.524   4.366   1.390
 2469W        W 6533   6.986   2.015  10.973
 2470W        W 6534   7.610   6.679  10.350
 2471W        W 6535   4.114   9.600   9.239
 2472W        W 6536   5.026   7.761   1.615
 2473W        W 6537   1.143   8.951   3.565
 2474W        W 6538   4.075   3.124   1.048
 2475W        W 6539   1.342   1.446   3.289
 2476W        W 6540   3.834   9.838   9.610
 2477W        W 6541   3.280   1.347   1.682
 2478W        W 6542   8.453  10.257   0.242
 2479W        W 6543   3.266   8.939   2.871
 2480W        W 6544   8.016   8.173   1.993
 2481W        W 6545   0.749   9.032  10.362
 2482W        W 6546   7.330   2.854   3.412
 2483W        W 6547   9.239  10.365   0.517
 2484W        W 6548   5.958   0.327   1.923
 2485W        W 6549   7.172   4.179   1.596
 2486W        W 6550   6.154   9.082   3.229
 2487W        W 6551   8.670   3.610   9.002
 2488W        W 6552  10.470   5.315   0.383
 2489W        W 6553   8.944   2.497   1.521
 2490W        W 6554   6.491   1.938   8.687
 2491W        W 6555   6.177   7.806   3.163
 2492W        W 6556  10.002   9.227   0.840
 2493W        W 6557  10.465   8.000  10.244
 2494W        W 6558   7.971   7.305   0.810
 2495W        W 6559   3.282   9.970   8.870
 2496W        W 6560   5.985   9.112   9.534
 2497W        W 6561   8.826   0.441   3.069
 2498W        W 6562   4.430   7.044   8.457
 2499W        W 6563   1.184   8.517   2.267
 2500W        W 6564   8.627   7.061  11.798
 2501W        W 6565   5.232   8.687   1.151
 2502W        W 6566   3.622   3.827   3.125
 2503W        W 6567   6.043   1.217   1.690
 2504W        W 6568  10.390   5.689   3.238
 2505W        W 6569   3.279   0.259   2.134
 2506W        W 6570  10.406   5.752   0.695
 2507W        W 6571   9.504   2.665   3.380
 2508W        W 6572  10.069   3.035   0.371
 2509W        W 6573   1.696   7.065   3.218
 2510W        W 6574   3.625   6.734   0.684
 2511W        W 6575   8.160   7.090   9.718
 2512W        W 6576   4.215   7.027   2.350
 2513W        W 6577   5.631   8.913   9.171
 2514W        W 6578   9.304   3.327   1.428
 2515W        W 6579   8.828   7.135   2.192
 2516W        W 6580   3.525   7.503   0.024
 2517W        W 6581   2.786   6.457   1.357
 2518W        W 6582   3.062   3.151   0.903
 2519W        W 6583   8.590   3.308   0.631
 2520W        W 6584   7.479   1.375   9.160
 2521W        W 6585   0.492   9.427  10.571
 2522W        W 6586   7.371   6.745   1.540
 2523W        W 6587   5.341   3.932   4.353
 2524W        W 6588   1.260   9.414   1.752
 2525W        W 6589   8.028   3.798   9.813
 2526W        W 6590   8.176   7.057   9.164
 2527W        W 6591   1.269   0.488   9.483
 2528W        W 6592   5.593   3.178   1.013
 2529W        W 6593   1.680   2.198   0.940
 2530W        W 6594   8.456   0.218   3.468
 2531W        W 6595   2.853   8.356   1.232
 2532W        W 6596   5.277   9.880   8.581
 2533W        W 6597   0.765   6.123  10.378
 2534W        W 6598   6.691   0.134   3.374
 2535W        W 6599   2.314   6.252   1.258
 2536W        W 6600   8.457   2.186   3.305
 2537W        W 6601   2.243   0.437  10.726
 2538W        W 6602   3.143   2.748   2.815
 2539W        W 6603   0.349   0.188   2.004
 2540W        W 6604   7.477   7.703  10.061
 2541W        W 6605   6.991   8.420   9.067
 2542W        W 6606   7.297   9.519   3.383
 2543W        W 6607   2.380   0.798  10.396
 2544W        W 6608   4.693   8.373   1.931
 2545W        W 6609   5.562   8.125  11.767
 2546W        W 6610   0.195   3.615  11.501
 2547W        W 6611   8.889   9.127  11.081
 2548W        W 6612  10.373   6.507  10.521
 2549W        W 6613   0.328   2.826   8.819
 2550W        W 6614   0.027   1.657   9.893
 2551W        W 6615   1.418  10.038  11.231
 2552W        W 6616   4.500   5.136   1.552
 2553W        W 6617   6.136   2.554   2.167
 2554W        W 6618   3.250   0.904  11.935
 2555W        W 6619   2.150   6.627   9.865
 2556W        W 6620   8.071   4.125   1.837
 2557W        W 6621   7.991   8.150   2.520
 2558W        W 6622   7.066   8.578  10.504
 2559W        W 6623   7.611   2.299   1.686
 2560W        W 6624   9.316   4.042   2.737
 2561W        W 6625   9.968   4.226   0.960
 2562W        W 6626   7.465   9.452   0.435
 2563W        W 6627   9.050   0.778   0.779
 2564W        W 6628   3.082   5.616  10.339
 2565W        W 6629   6.432   5.440   8.620
 2566W        W 6630   5.681   3.026  11.950
 2567W        W 6631   4.260   0.793   1.398
 2568W        W 6632   2.766   9.278  11.267
 2569W        W 6633   3.610   2.736  11.256
 2570W        W 6634   7.178   9.363   0.936
 2571W        W 6635   5.689   1.874   9.967
 2572W        W 6636   3.678   2.132   0.552
 2573W        W 6637   0.005   5.183   9.062
 2574W        W 6638   4.662   9.813  11.270
 2575W        W 6639  10.116   4.982   1.988
 2576W        W 6640   7.466   9.296   1.772
 2577W        W 6641   4.279   7.592  10.786
 2578W        W 6642   3.181   4.586  11.917
 2579W        W 6643  10.219   4.971  10.505
 2580W        W 6644   5.597   5.531  11.240
 2581W        W 6645   0.491   4.625   2.896
 2582W        W 6646   8.123   3.881   0.331
 2583W        W 6647   2.414   8.513   2.514
 2584W        W 6648   1.312   4.196   9.276
 2585W        W 6649   7.965   0.796  11.370
 2586W        W 6650   3.365   0.887   1.918
 2587W        W 6651   5.658   5.004   0.707
 2588W        W 6652   1.961   1.625   1.556
 2589W        W 6653   4.073   5.755   9.179
 2590W        W 6654   6.530   8.433   1.242
 2591W        W 6655   3.668   6.695   8.851
 2592W        W 6656   1.795   1.049   0.166
 2593W        W 6657   5.130   7.362   3.036
 2594W        W 6658   6.096   8.633   2.952
 2595W        W 6659   1.379   5.896   0.258
 2596W        W 6660   3.059   6.514  11.355
 2597W        W 6661   0.874   9.303   8.980
 2598W        W 6662   3.123   9.955  10.256
 2599W        W 6663   2.518   7.198   1.913
 2600W        W 6664   0.402   7.742  10.144
 2601W        W 6665   7.264   3.647   0.776
 2602W        W 6666   2.936   1.713   1.449
 2603W        W 6667   1.952   3.072   3.201
 2604W        W 6668   3.734   1.880  10.752
 2605W        W 6669   9.372   2.882  10.371
 2606W        W 6670   0.857   1.384   1.449
 2607W        W 6671   1.299   3.477   2.012
 2608W        W 6672   3.061   8.809   2.421
 2609W        W 6673  10.284   9.844  10.311
 2610W        W 6674   3.771  10.447  11.721
 2611W        W 6675   1.412   5.193   9.183
 2612W        W 6676   1.317   8.299   0.062
 2613W        W 6677   6.089   4.774  10.172
 2614W        W 6678   1.330   2.325   3.546
 2615W        W 6679   3.548   5.031   3.676
 2616W        W 6680   3.987   5.727   0.163
 2617W        W 6681   6.690   3.663  10.508
 2618W        W 6682   8.461   1.868   9.892
 2619W        W 6683   2.721   6.722   2.750
 2620W        W 6684   4.256   9.869   0.706
 2621W        W 6685   8.192   6.498   1.285
 2622W        W 6686   8.949   0.065   9.526
 2623W        W 6687   5.067   9.404  10.232
 2624W        W 6688   6.510  10.303  11.097
 2625W        W 6689   7.207   7.261  11.792
 2626W        W 6690   6.593   1.248  11.019
 2627W        W 6691   2.027   1.849  11.225
 2628W        W 6692   9.563   5.511  10.776
 2629W        W 6693   0.503   4.659   2.360
 2630W        W 6694   9.410   4.734   1.562
 2631W        W 6695   8.495   4.287   8.992
 2632W        W 6696   8.330   8.794  10.435
 2633W        W 6697   6.736   8.416   9.631
 2634W        W 6698   6.452   8.060   9.416
 2635W        W 6699   2.251   3.401  11.968
 2636W        W 6700   6.466   7.906   9.915
 2637W        W 6701   0.698   5.405   2.813
 2638W        W 6702   2.780   0.741   8.577
 2639W        W 6703   8.602   0.486  10.801
 2640W        W 6704   7.498   6.214  11.510
 2641W        W 6705   1.969   0.828  10.929
 2642W        W 6706   6.069   9.957   3.288
 2643W        W 6707   8.916  10.409   2.205
 2644W        W 6708   6.424   5.512  11.659
 2645W        W 6709   7.054   4.441   9.413
 2646W        W 6710   8.605   5.909   0.457
 2647W        W 6711   5.806   9.921   0.885
 2648W        W 6712   2.019   3.894   2.669
 2649W        W 6713   7.388   2.248  11.236
 2650W        W 6714   5.682   7.844   1.895
 2651W        W 6715  10.300   0.689   8.616
 2652W        W 6716   1.436   8.469   8.695
 2653W        W 6717   9.831   3.854   0.649
 2654W        W 6718   0.876   2.213  11.731
 2655W        W 6719   9.729   0.267  11.739
 2656W        W 6720   2.151   0.829   3.335
 2657W        W 6721   4.855   6.877   1.875
 2658W        W 6722   0.266  10.376   0.320
 2659W        W 6723   1.628   0.742   9.978
 2660W        W 6724   9.239   2.724   0.207
 2661W        W 6725   8.895   0.634   2.117
 2662W        W 6726   4.428   6.586   8.182
 2663W        W 6727   4.030   2.893   9.037
 2664W        W 6728   8.565   3.357  10.770
 2665W        W 6729   9.982   3.536  10.528
 2666W        W 6730   8.918   4.562   9.160
 2667W        W 6731   0.488   9.057   1.656
 2668W        W 6732   5.142   0.416   0.200
 2669W        W 6733   8.208   8.012   8.639
 2670W        W 6734   4.403   1.658   3.620
 2671W        W 6735   7.699   0.318   9.388
 2672W        W 6736   8.922   4.712   3.132
 2673W        W 6737   3.820   5.365  11.864
 2674W        W 6738   2.840   2.109   1.757
 2675W        W 6739   7.547  10.429   9.004
 2676W        W 6740   2.539  10.174   9.344
 2677W        W 6741   7.826   5.303   0.797
 2678W        W 6742   6.548   7.719  11.826
 2679W        W 6743   3.104   4.295   9.261
 2680W        W 6744   4.785   7.346   0.376
 2681W        W 6745   7.917   8.023  11.804
 2682W        W 6746   3.801   3.318  10.540
 2683W        W 6747   2.204   5.703   9.061
 2684W        W 6748   0.014   6.103  11.880
 2685W        W 6749  10.203   0.295   2.579
 2686W        W 6750   3.217   9.099   9.952
 2687W        W 6751   9.440   4.740   1.034
 2688W        W 6752   6.010   1.241   2.213
 2689W        W 6753   8.715   6.674   8.658
 2690W        W 6754   2.849   2.874  10.811
 2691W        W 6755   5.089   8.131  11.911
 2692W        W 6756   9.307   2.871   0.679
 2693W        W 6757   1.374   4.177   1.449
 2694W        W 6758   7.428   9.510  10.284
 2695W        W 6759   4.081   0.588  10.360
 2696W        W 6760   4.232   1.900   8.876
 2697W        W 6761   8.953   5.609   2.961
 2698W        W 6762   4.504   2.838  10.580
 2699W        W 6763   2.814   4.575   2.012
 2700W        W 6764   7.654   8.489  11.143
 2701W        W 6765  10.282   2.351   1.976
 2702W        W 6766  10.260  10.399   0.337
 2703W        W 6767  10.166   2.675  11.514
 2704W        W 6768   7.852   2.258   9.038
 2705W        W 6769   8.102   0.907  11.898
 2706W        W 6770   4.071   5.116   2.929
 2707W        W 6771   3.290   4.665   8.458
 2708W        W 6772   8.507  10.225  10.427
 2709W        W 6773   8.131   5.691   9.793
 2710W        W 6774   3.207   3.952   3.455
 2711W        W 6775   9.521   6.229   1.229
 2712W        W 6776   5.005   1.257   9.711
 2713W        W 6777   3.070   8.305   3.146
 2714W        W 6778   0.402  10.012  11.396
 2715W        W 6779   0.709   4.793   9.245
 2716W        W 6780   1.781   4.693   3.051
 2717W        W 6781   8.345  10.118   3.568
 2718W        W 6782   2.440   8.224  11.271
 2719W        W 6783   7.137  10.465   1.755
 2720W        W 6784   2.869   1.854  11.002
 2721W        W 6785   1.168   5.094   0.878
 2722W        W 6786   6.397   5.277  10.829
 2723W        W 6787   5.660   6.530   2.218
 2724W        W 6788   4.538   1.472  10.439
 2725W        W 6789   2.444   1.228   2.638
 2726W        W 6790   4.142   7.403   9.911
 2727W        W 6791   5.452   1.307   8.936
 2728W        W 6792   3.709   5.989   2.214
 2729W        W 6793   6.122   0.793   1.961
 2730W        W 6794   0.279   6.339   9.752
 2731W        W 6795   6.189   8.516  11.410
 2732W        W 6796  10.320   8.976   1.177
 2733W        W 6797   4.215   2.484   3.461
 2734W        W 6798   7.646   1.180  10.093
 2735W        W 6799  10.181   2.622   0.685
 2736W        W 6800   3.659   6.515   1.176
 2737W        W 6801   6.247   6.930   2.832
 2738W        W 6802   9.016   1.297   0.755
 2739W        W 6803   9.105   7.929   2.048
 2740W        W 6804   2.778   8.997   1.672
 2741W        W 6805   2.640   1.482  11.823
 2742W        W 6806   0.304   9.459   1.996
 2743W        W 6807   1.309   6.855   0.439
 2744W        W 6808   4.796   2.124   3.600
 2745W        W 6809  10.225   3.068   1.212
 2746W        W 6810   5.504   3.793   9.971
 2747W        W 6811   7.818   4.223  10.042
 2748W        W 6812   4.868   1.682  11.467
 2749W        W 6813   6.463  10.335   0.398
 2750W        W 6814   2.528   1.887   0.968
 2751W        W 6815   7.004   7.880   8.838
 2752W        W 6816   0.310  10.205  10.945
 2753W        W 6817  10.450   6.105   9.386
 2754W        W 6818   3.780   7.928  11.871
 2755W        W 6819   1.210   0.893   0.820
 2756W        W 6820   5.225   1.366   3.371
 2757W        W 6821   2.289   5.239   1.403
 2758W        W 6822   2.736   5.002   1.335
 2759W        W 6823   0.786   9.567   9.405
 2760W        W 6824   3.434   4.488   4.349
 2761W        W 6825   4.051   9.303  10.968
 2762W        W 6826   3.038   7.130  10.875
 2763W        W 6827   0.876   2.055   3.632
 2764W        W 6828   9.615   5.118   9.564
 2765W        W 6829   8.611   3.784   0.387
 2766W        W 6830   0.413  10.481   9.271
 2767W        W 6831   4.550   5.688  10.045
 2768W        W 6832   3.129  10.454   8.687
 2769W        W 6833   7.079   8.821   3.181
 2770W        W 6834   7.893   2.794   9.503
 2771W        W 6835   9.327   9.061  11.699
 2772W        W 6836   5.606   0.925   9.728
 2773W        W 6837   8.275   4.193  11.763
 2774W        W 6838   8.821   5.527   9.143
 2775W        W 6839   5.065   3.458   4.246
 2776W        W 6840   4.391   4.299  11.329
 2777W        W 6841   9.498   5.934  11.802
 2778W        W 6842   2.736   4.380   9.768
 2779W        W 6843   2.165   6.051   3.220
 2780W        W 6844   5.153   1.079   1.410
 2781W        W 6845   7.771  10.391   9.858
 2782W        W 6846   4.669   2.205   8.846
 2783W        W 6847   0.409   0.020   9.790
 2784W        W 6848   8.483   0.770   2.765
 2785W        W 6849   6.532   7.404  11.423
 2786W        W 6850   4.379   8.775  11.643
 2787W        W 6851   3.795   9.933   0.946
 2788W        W 6852   8.417   2.635   2.012
 2789W        W 6853   9.566   8.662   1.611
 2790W        W 6854   2.087   9.405  10.511
 2791W        W 6855   0.040   4.538   2.586
 2792W        W 6856   8.424   4.736   3.270
 2793W        W 6857   8.510   9.635   8.485
 2794W        W 6858   2.663   7.848  10.837
 2795W        W 6859   4.426   1.992   1.001
 2796W        W 6860   6.046   7.678   2.686
 2797W        W 6861   1.700   6.348   9.867
 2798W        W 6862   7.980   0.346   1.102
 2799W        W 6863   1.832   0.485   1.221
 2800W        W 6864   8.045   1.425   9.854
 2801W        W 6865   7.428   2.647  10.009
 2802W        W 6866   8.894   3.985   2.457
 2803W        W 6867   3.165   0.237   3.215
 2804W        W 6868   9.956   5.661  11.057
 2805W        W 6869   2.878   5.651   3.464
 2806W        W 6870   8.789   4.223   9.991
 2807W        W 6871   9.894   7.084  11.129
 2808W        W 6872   8.386   5.832   2.669
 2809W        W 6873   8.364   3.543   2.334
 2810W        W 6874   4.593   2.756   9.596
 2811W        W 6875   4.497   6.148   9.846
 2812W        W 6876   0.395   9.787   0.765
 2813W        W 6877   0.500   4.618  11.049
 2814W        W 6878   1.728   4.616   1.482
 2815W        W 6879   5.272   8.404   9.877
 2816W        W 6880   5.512   4.639   1.741
 2817W        W 6881   0.984   4.465   8.972
 2818W        W 6882   2.750   8.557   8.836
 2819W        W 6883   0.983   0.989  10.716
 2820W        W 6884   0.335   7.511   9.676
 2821W        W 6885   4.761   4.631   2.996
 2822W        W 6886   5.105   5.905   1.833
 2823W        W 6887   8.422   4.242  10.333
 2824W        W 6888   6.980   9.397   1.964
 2825W        W 6889   2.260   6.483   3.505
 2826W        W 6890   5.244   1.400  11.179
 2827W        W 6891   7.414   4.198   0.491
 2828W        W 6892   0.317   8.832   2.650
 2829W        W 6893   2.443   0.265   1.021
 2830W        W 6894   7.890   1.358   2.603
 2831W        W 6895   8.203   6.005   2.213
 2832W        W 6896  10.220   8.889  10.282
 2833W        W 6897   1.370   8.816  10.906
 2834W        W 6898   4.250   1.245  10.969
 2835W        W 6899   1.883   8.440   1.207
 2836W        W 6900   3.915   8.800   9.481
 2837W        W 6901   5.242   2.368   3.698
 2838W        W 6902   0.834   9.020   1.148
 2839W        W 6903   7.396   1.825   1.840
 2840W        W 6904   7.584   9.505   8.810
 2841W        W 6905   5.972   0.472   8.630
 2842W        W 6906   8.032   3.829  11.471
 2843W        W 6907   1.318   4.463  10.962
 2844W        W 6908   0.423   4.972   0.686
 2845W        W 6909   8.900   5.801   0.064
 2846W        W 6910   6.988   1.326   8.984
 2847W        W 6911   7.797   9.862  11.171
 2848W        W 6912   6.868   8.562   0.410
 2849W        W 6913   5.160   0.836   9.968
 2850W        W 6914   5.597   5.017  10.341
 2851W        W 6915   3.577   8.585   9.989
 2852W        W 6916   8.782  10.365   1.687
 2853W        W 6917   2.569   3.572   0.328
 2854W        W 6918   8.462   1.449   9.561
 2855W        W 6919   5.027   5.692  10.907
 2856W        W 6920   8.583   9.096   1.016
 2857W        W 6921   3.360   2.651  11.695
 2858W        W 6922   0.119   7.436   2.459
 2859W        W 6923   5.682   2.149  10.423
 2860W        W 6924   5.925   6.071   9.041
 2861W        W 6925   9.477   6.630   9.714
 2862W        W 6926   1.160   4.706   9.945
 2863W        W 6927   9.380   2.293   2.485
 2864W        W 6928   4.674   4.634   8.897
 2865W        W 6929   4.193   2.779   2.671
 2866W        W 6930   3.118   5.322   1.397
 2867W        W 6931   0.894   7.034   2.223
 2868W        W 6932   8.419   0.272   0.242
 2869W        W 6933   1.744   1.239  10.742
 2870W        W 6934  10.414   8.109   0.527
 2871W        W 6935   7.193  10.001   9.722
 2872W        W 6936   3.566   2.861  10.533
 2873W        W 6937   4.061   4.622   4.203
 2874W        W 6938   3.934  10.312  10.341
 2875W        W 6939   0.451   9.972   9.328
 2876W        W 6940   6.085  10.418   2.190
 2877W        W 6941   6.568   8.578  10.600
 2878W        W 6942   2.449   0.566   8.973
 2879W        W 6943   5.601   5.995   1.973
 2880W        W 6944   7.588   4.022   1.940
 2881W        W 6945   9.484   8.559  11.817
 2882W        W 6946   1.902   0.326   9.817
 2883W        W 6947   8.852   7.534   1.853
 2884W        W 6948   7.586   4.189   3.326
 2885W        W 6949   3.225   7.883   9.051
 2886W        W 6950   3.704   8.701   0.396
 2887W        W 6951   1.310   2.356   8.677
 2888W        W 6952   1.212   2.423   0.944
 2889W        W 6953   3.761   9.046   9.905
 2890W        W 6954   0.359   3.251   0.299
 2891W        W 6955   4.370   2.631  11.733
 2892W        W 6956   0.257   7.451   9.168
 2893W        W 6957   8.551   7.506  10.630
 2894W        W 6958   5.258   6.180   2.287
 2895W        W 6959  10.395   0.446   0.671
 2896W        W 6960   1.354   1.205   9.962
 2897W        W 6961   7.018   5.667   8.211
 2898W        W 6962   4.212   8.274  11.714
 2899W        W 6963  10.385   5.456   2.178
 2900W        W 6964   4.462   6.527   8.971
 2901W        W 6965   4.230   4.895   9.092
 2902W        W 6966   1.387   8.501   1.270
 2903W        W 6967   3.465   5.368  11.503
 2904W        W 6968   3.246   3.328  10.453
 2905W        W 6969   3.642   4.035   9.924
 2906W        W 6970   1.790   9.879   1.700
 2907W        W 6971   4.036   2.097   9.362
 2908W        W 6972   9.357   7.520  10.105
 2909W        W 6973   7.554   0.565   3.584
 2910W        W 6974   2.035   9.602   2.370
 2911W        W 6975   0.617   5.382   0.970
 2912W        W 6976   0.418   3.323   8.976
 2913W        W 6977   6.646   6.022   8.272
 2914W        W 6978   2.435   1.679  10.800
 2915W        W 6979   9.224   7.529   0.804
 2916W        W 6980   8.968   1.188  11.889
 2917W        W 6981   6.032   4.674   9.530
 2918W        W 6982   3.124   5.679   9.418
 2919W        W 6983   6.739   6.416   0.415
 2920W        W 6984  10.501   0.728   9.083
 2921W        W 6985   5.517   1.811   3.023
 2922W        W 6986   3.787   5.482   9.814
 2923W        W 6987   6.956   9.337   9.511
 2924W        W 6988   5.779   7.438   8.484
 2925W        W 6989   8.454   9.356   1.458
 2926W        W 6990   2.136   8.885  10.555
 2927W        W 6991   1.706   9.388   1.488
 2928W        W 6992   9.881   5.884   3.268
 2929W        W 6993   1.086   9.423   3.322
 2930W        W 6994   6.521   4.218   3.739
 2931W        W 6995   6.514   8.909  10.999
 2932W        W 6996   6.772   3.632   0.858
 2933W        W 6997   1.752   3.568  11.936
 2934W        W 6998   1.509   8.051   1.016
 2935W        W 6999   0.764   5.692   1.972
 2936W        W 7000   1.692   1.786   2.832
 2937W        W 7001   7.238   6.724   9.378
 2938W        W 7002   2.176   5.692  11.382
 2939W        W 7003   4.774   9.937  10.786
 2940W        W 7004   7.809   5.101  10.354
 2941W        W 7005   9.769   5.030   0.436
 2942W        W 7006   3.413   8.826   9.543
 2943W        W 7007  10.407   8.864  11.735
 2944W        W 7008   6.447   5.600   9.910
 2945W        W 7009   1.166   4.048   2.828
 2946W        W 7010   9.499   9.136   1.829
 2947W        W 7011   1.856  10.247   9.238
 2948W        W 7012   8.368   4.658  11.946
 2949W        W 7013   4.057  10.464   0.170
 2950W        W 7014   2.577   1.611   1.812
 2951W        W 7015   0.290   9.092   9.822
 2952W        W 7016   8.496   1.220   0.069
 2953W        W 7017   5.070  10.386   0.904
 2954W        W 7018   7.470   0.306   9.842
 2955W        W 7019   6.039   9.529   3.003
 2956W        W 7020   8.783   4.515  11.004
 2957W        W 7021   8.505   4.705  10.048
 2958W        W 7022   0.972   2.615   0.051
 2959W        W 7023   6.672   2.405   1.314
 2960W        W 7024   3.841   2.213   0.062
 2961W        W 7025   7.055   4.649   2.444
 2962W        W 7026   5.996   6.165  10.897
 2963W        W 7027   2.457   3.075   3.347
 2964W        W 7028   6.605   7.260   9.101
 2965W        W 7029  10.260   8.780   0.704
 2966W        W 7030   4.109   0.010  11.324
 2967W        W 7031   2.643  10.434   0.684
 2968W        W 7032   7.931   6.342   8.582
 2969W        W 7033   2.717   9.038   2.724
 2970W        W 7034   0.707   2.197   9.512
 2971W        W 7035   5.998   3.769   1.818
 2972W        W 7036   2.149   2.858  10.409
 2973W        W 7037   7.645   5.995   7.818
 2974W        W 7038  10.450   3.871   3.248
 2975W        W 7039   1.365   1.197  11.053
 2976W        W 7040   2.627   8.390  11.757
 2977W        W 7041   2.887   4.160   2.333
 2978W        W 7042   1.369   7.184   2.299
 2979W        W 7043   9.439   4.259   9.059
 2980W        W 7044   9.027   7.096   8.616
 2981W        W 7045   9.936   5.733   0.952
 2982W        W 7046   7.559   6.790   2.419
 2983W        W 7047   7.090   5.219   7.938
 2984W        W 7048   4.106   3.652   9.350
 2985W        W 7049   2.173   7.943   2.998
 2986W        W 7050   8.556   0.195   8.896
 2987W        W 7051   0.312   8.427   2.235
 2988W        W 7052   9.600   8.093  11.416
 2989W        W 7053   2.821   9.547  10.326
 2990W        W 7054   3.860   2.670  11.769
 2991W        W 7055   8.868   7.303   2.692
 2992W        W 7056   2.331   2.562   0.183
 2993W        W 7057   8.371   8.784   3.320
 2994W        W 7058   1.780   3.327  10.532
 2995W        W 7059  10.378   0.587  10.982
 2996W        W 7060   1.136   0.694  10.003
 2997W        W 7061   9.430   1.300  11.307
 2998W        W 7062   9.518   6.089   9.465
 2999W        W 7063   6.106   4.261   1.711
 3000W        W 7064   5.428   7.102   8.230
 3001W        W 7065   5.583   9.340   2.828
 3002W        W 7066   0.902   8.153   1.700
 3003W        W 7067   4.628   7.515   0.827
 3004W        W 7068   4.120   3.796  10.375
 3005W        W 7069   0.266   0.725   0.448
 3006W        W 7070   3.666   7.464   1.354
 3007W        W 7071   3.885   5.231   8.084
 3008W        W 7072   1.246   8.533   1.765
 3009W        W 7073   4.766   2.239   1.724
 3010W        W 7074   6.522   2.225  10.974
 3011W        W 7075   8.955   8.195   2.472
 3012W        W 7076   9.048   3.663   3.416
 3013W        W 7077  10.404   3.805   9.321
 3014W        W 7078   6.607   8.180   0.770
 3015W        W 7079   8.867   9.482   0.299
 3016W        W 7080   5.605   8.371   9.000
 3017W        W 7081   2.230   3.740   9.268
 3018W        W 7082   9.133   6.503  10.064
 3019W        W 7083   3.361   3.164   9.587
 3020W        W 7084   5.281   1.824   9.364
 3021W        W 7085   3.993   8.029  10.781
 3022W        W 7086   6.920   4.255  10.867
 3023W        W 7087   0.874   8.027   3.312
 3024W        W 7088   8.328   9.734  10.397
 3025W        W 7089   4.995   7.114  10.459
 3026W        W 7090   0.958   0.921   0.014
 3027W        W 7091   0.891  10.433   9.077
 3028W        W 7092   7.811   4.021   8.976
 3029W        W 7093   3.716   5.448   3.965
 3030W        W 7094   6.532   2.644  11.400
 3031W        W 7095   8.717   7.642   3.601
 3032W        W 7096   6.932   1.783   0.224
 3033W        W 7097   1.238   3.963  10.924
 3034W        W 7098   4.059   3.032   8.516
 3035W        W 7099  10.377   9.734   1.933
 3036W        W 7100   3.064   2.625   0.097
 3037W        W 7101   0.464   0.957   3.552
 3038W        W 7102   0.055   2.632   2.815
 3039W        W 7103   7.589   2.220   2.193
 3040W        W 7104   1.288   8.092   3.027
 3041W        W 7105   9.445   7.342  11.097
 3042W        W 7106   1.794   4.394   3.504
 3043W        W 7107   3.149   1.802   2.462
 3044W        W 7108   4.398   1.999  11.403
 3045W        W 7109   4.504   1.283   8.911
 3046W        W 7110   2.195   0.682   0.892
 3047W        W 7111   9.965   5.847  10.081
 3048W        W 7112   9.376   3.796   9.353
 3049W        W 7113   3.438   4.300   3.138
 3050W        W 7114   6.661   1.129   3.130
 3051W        W 7115   9.342   1.994   9.350
 3052W        W 7116   5.643   0.324   0.473
 3053W        W 7117   8.384   7.351   0.344
 3054W        W 7118   3.654   4.561   3.897
 3055W        W 7119   0.821   6.161   1.781
 3056W        W 7120   0.214   5.573   8.758
 3057W        W 7121   9.026   6.228   0.372
 3058W        W 7122   8.727   3.533  10.240
 3059W        W 7123   8.578   6.935  11.276
 3060W        W 7124   9.877   6.609  11.943
 3061W        W 7125   3.794   4.631   2.915
 3062W        W 7126   4.950   9.019   0.360
 3063W        W 7127   6.717  10.050   9.884
 3064W        W 7128   6.196   5.910   8.630
 3065W        W 7129   8.979   7.463   1.358
 3066W        W 7130   5.564   7.957   0.803
 3067W        W 7131   5.313   3.103  10.387
 3068W        W 7132   5.962   1.384   0.698
 3069W        W 7133   5.784   3.637   0.941
 3070W        W 7134   1.394   6.363   0.434
 3071W        W 7135   3.647   3.108  11.579
 3072W        W 7136   0.576   6.393   2.905
 3073W        W 7137   4.642   6.977   0.936
 3074W        W 7138   0.837   6.898  11.851
 3075W        W 7139   9.434   3.798   0.947
 3076W        W 7140   7.541   1.152   2.940
 3077W        W 7141   7.021   2.150   1.026
 3078W        W 7142   8.912   4.027  10.988
 3079W        W 7143   3.602   7.598   8.790
 3080W        W 7144   3.238   0.748   9.289
 3081W        W 7145   3.688   4.177   1.085
 3082W        W 7146  10.346   7.455   1.711
 3083W        W 7147   6.053   9.944   1.320
 3084W        W 7148  10.440  10.319   9.089
 3085W        W 7149   8.614   8.079   0.584
 3086W        W 7150   7.580   7.567   1.013
 3087W        W 7151   5.329   7.506   8.736
 3088W        W 7152   2.224   1.423   2.181
 3089W        W 7153   6.458   4.061  10.766
 3090W        W 7154   9.915   8.429  10.408
 3091W        W 7155   1.626   4.262   2.754
 3092W        W 7156   2.378   8.141   1.906
 3093W        W 7157   8.370   3.122  11.810
 3094W        W 7158   6.725  10.230  11.948
 3095W        W 7159   9.938   3.530  10.022
 3096W        W 7160   5.235   4.558   1.291
 3097W        W 7161   3.020   1.810   3.573
 3098W        W 7162   0.829   4.255   8.521
 3099W        W 7163   7.157   8.055   3.563
 3100W        W 7164   6.842   8.356   3.214
 3101W        W 7165   5.539   6.372  10.733
 3102W        W 7166   2.134   8.972   3.253
 3103W        W 7167   6.050   8.543   1.389
 3104W        W 7168   1.860   4.537  11.991
 3105W        W 7169   9.955   0.385   9.737
 3106W        W 7170   6.134   8.158   2.792
 3107W        W 7171   3.897   5.913   4.106
 3108W        W 7172   5.066   5.142   9.592
 3109W        W 7173   7.008   9.006  10.794
 3110W        W 7174   8.906   1.712  10.099
 3111W        W 7175   7.329   0.952   1.574
 3112W        W 7176   9.863   4.811   9.087
 3113W        W 7177   2.800   2.727   3.217
 3114W        W 7178   7.887   2.452  10.051
 3115W        W 7179   4.693   1.067  10.712
 3116W        W 7180   7.127   5.693  10.512
 3117W        W 7181   2.728   3.176   2.474
 3118W        W 7182   6.014   5.245   9.969
 3119W        W 7183   1.340   6.686   2.507
 3120W        W 7184   7.808   5.200   3.216
 3121W        W 7185   9.756   1.726   9.468
 3122W        W 7186   6.532   3.152  11.221
 3123W        W 7187   7.007   0.933   3.474
 3124W        W 7188   5.986   0.036   0.238
 3125W        W 7189   7.422   8.530   0.382
 3126W        W 7190   8.453   4.820   8.949
 3127W        W 7191   8.618   5.752   1.265
 3128W        W 7192   8.895   6.472   2.453
 3129W        W 7193   7.477   2.626   2.486
 3130W        W 7194   3.730   5.093  11.133
 3131W        W 7195   3.004   9.391  10.797
 3132W        W 7196   4.048   0.425   9.234
 3133W        W 7197   4.013   1.851   2.301
 3134W        W 7198   8.145   0.524   1.954
 3135W        W 7199   8.144   5.550  10.288
 3136W        W 7200   3.789  10.374   3.225
 3137W        W 7201   5.128   9.054   9.430
 3138W        W 7202   0.166   3.099  11.545
 3139W        W 7203   8.825   5.061  10.891
 3140W        W 7204   0.880   9.979   0.677
 3141W        W 7205   5.460   5.128   3.196
 3142W        W 7206   7.823   0.817   9.243
 3143W        W 7207   9.562   1.200   9.778
 3144W        W 7208   2.294   4.324   9.078
 3145W        W 7209   9.304   8.045  11.854
 3146W        W 7210   5.135   9.959   3.035
 3147W        W 7211   5.585   5.357  10.757
 3148W        W 7212   2.263   6.577   2.542
 3149W        W 7213   5.688   2.147  11.487
 3150W        W 7214   5.928   1.396   9.091
 3151W        W 7215   7.678   5.181   8.429
 3152W        W 7216   9.835   0.251   3.420
 3153W        W 7217   0.429   4.240   8.819
 3154W        W 7218  10.377   2.316  10.371
 3155W        W 7219   4.839   6.935   3.009
 3156W        W 7220   9.443   0.997  10.887
 3157W        W 7221   9.918   9.375   1.970
 3158W        W 7222   3.686   2.647   8.705
 3159W        W 7223   7.924   6.822   8.772
 3160W        W 7224   4.672   5.260  11.294
 3161W        W 7225   1.874   7.553  11.644
 3162W        W 7226   4.610   7.314   3.288
 3163W        W 7227   6.221   6.423  11.882
 3164W        W 7228   8.499   5.554   2.202
 3165W        W 7229   0.796   0.321  11.311
 3166W        W 7230   5.175   2.317  11.508
 3167W        W 7231   5.004   8.468   3.469
 3168W        W 7232   2.645   0.817   9.965
 3169W        W 7233   8.768   7.698   2.368
 3170W        W 7234   1.042   1.918   9.923
 3171W        W 7235   8.423  10.337   9.242
 3172W        W 7236   6.094   3.769   2.704
 3173W        W 7237   9.819   9.957   2.625
 3174W        W 7238   7.426   9.787   2.948
 3175W        W 7239   6.901   5.199  10.731
 3176W        W 7240   9.451   3.691   3.080
 3177W        W 7241   4.172   7.253  10.405
 3178W        W 7242   8.545   7.827  10.250
 3179W        W 7243   9.325   1.108   3.127
 3180W        W 7244   1.373   2.767   9.969
 3181W        W 7245   2.171   3.981  10.820
 3182W        W 7246   2.219   5.433   0.367
 3183W        W 7247   4.782   2.753   1.456
 3184W        W 7248   6.193   5.591   9.467
 3185W        W 7249   6.919   0.242  11.769
 3186W        W 7250   0.653   6.371   8.528
 3187W        W 7251   1.838   3.362   9.326
 3188W        W 7252   5.138   6.122   9.602
 3189W        W 7253   6.416   5.100  11.319
 3190W        W 7254   2.335   5.552  10.894
 3191W        W 7255   8.687   5.532  10.573
 3192W        W 7256   0.778   7.452  11.052
 3193W        W 7257   4.533   1.752   0.549
 3194W        W 7258   1.936   2.738   1.553
 3195W        W 7259   0.715   5.226   3.280
 3196W        W 7260   8.612   7.580  11.951
 3197W        W 7261   9.671   1.332   3.470
 3198W        W 7262   2.421   9.109   0.290
 3199W        W 7263   6.001   6.574   8.966
 3200W        W 7264   4.692   2.435  11.396
 3201W        W 7265   2.310   9.151  10.953
 3202W        W 7266   9.067   0.249  10.962
 3203W        W 7267   1.038   1.247   0.496
 3204W        W 7268   7.211   6.140   8.067
 3205W        W 7269   0.518   0.305   3.256
 3206W        W 7270   9.128   8.408   1.510
 3207W        W 7271   6.980   5.962   3.607
 3208W        W 7272   8.342   7.070  10.238
 3209W        W 7273   1.421   3.535  11.113
 3210W        W 7274   3.728   3.583  11.432
 3211W        W 7275   8.088   1.840   9.549
 3212W        W 7276   1.228   2.349   2.298
 3213W        W 7277   5.244   2.408   1.645
 3214W        W 7278   1.220   1.958   2.663
 3215W        W 7279   8.898   9.870   9.752
 3216W        W 7280   9.859  10.445   2.404
 3217W        W 7281   3.407   9.887   0.510
 3218W        W 7282   4.529   5.548  10.875
 3219W        W 7283   3.811   4.384   0.589
 3220W        W 7284   5.308   2.854   0.717
 3221W        W 7285   7.899   7.916   9.043
 3222W        W 7286   0.190   6.443   0.215
 3223W        W 7287   5.233   6.706  10.987
 3224W        W 7288   3.474   5.468   4.414
 3225W        W 7289   7.833   4.421   1.019
 3226W        W 7290   4.774   5.582   3.468
 3227W        W 7291   9.832   3.635   2.210
 3228W        W 7292   7.993   1.319  11.357
 3229W        W 7293   2.178   5.225   2.511
 3230W        W 7294   5.785   0.349   0.963
 3231W        W 7295   0.255   9.078   3.116
 3232W        W 7296   0.893   8.262   9.328
 3233W        W 7297   3.844   8.288   2.785
 3234W        W 7298   2.738  10.475   2.709
 3235W        W 7299   8.644   5.027   1.791
 3236W        W 7300   3.569   3.066   0.956
 3237W        W 7301  10.031   0.783   2.701
 3238W        W 7302   6.134   4.329  10.490
 3239W        W 7303   8.460   4.080   3.271
 3240W        W 7304   0.014  10.406   8.564
 3241W        W 7305   7.358   3.523   9.492
 3242W        W 7306   9.274   8.093   1.137
 3243W        W 7307   5.561   5.239   8.970
 3244W        W 7308   4.181   8.528  10.721
 3245W        W 7309   1.932   0.238   0.784
 3246W        W 7310   0.993   0.770   2.693
 3247W        W 7311   2.688   0.225   8.669
 3248W        W 7312   8.434   9.055   9.747
 3249W        W 7313   9.952   7.553   0.263
 3250W        W 7314  10.300   9.345  11.723
 3251W        W 7315   0.256   4.715   9.024
 3252W        W 7316   3.771   9.427   1.141
 3253W        W 7317   4.724  10.331  11.099
 3254W        W 7318   2.708   6.014   1.053
 3255W        W 7319   2.427   0.376   0.522
 3256W        W 7320   9.342   0.861  10.386
 3257W        W 7321   5.990   9.542  11.519
 3258W        W 7322   0.740   1.461  10.789
 3259W        W 7323   6.891   7.218  10.450
 3260W        W 7324   6.148   7.494   9.820
 3261W        W 7325  10.062   1.792   0.779
 3262W        W 7326   6.225   3.952   9.251
 3263W        W 7327   8.518   6.674   9.857
 3264W        W 7328   2.145   0.566   2.349
 3265W        W 7329   4.060   8.416   3.247
 3266W        W 7330   4.173   5.620   3.752
 3267W        W 7331   1.317   3.255   9.250
 3268W        W 7332   8.942   3.147   2.842
 3269W        W 7333   9.206   2.269  11.304
 3270W        W 7334   9.007   5.477   1.498
 3271W        W 7335   6.218   4.466  11.036
 3272W        W 7336   0.410   3.206  10.817
 3273W        W 7337   5.640   6.057   3.822
 3274W        W 7338   1.710   8.944   2.778
 3275W        W 7339   8.002   5.586   2.905
 3276W        W 7340   5.656   1.207  11.444
 3277W        W 7341   2.886   5.469   2.475
 3278W        W 7342   0.504  10.240   2.454
 3279W        W 7343   1.892   8.410   9.071
 3280W        W 7344   3.113   6.150  10.975
 3281W        W 7345   3.253   5.315   9.776
 3282W        W 7346   7.834   3.654   1.622
 3283W        W 7347   6.775  10.069   0.798
 3284W        W 7348   1.172   0.509  10.518
 3285W        W 7349   0.250  10.097  10.064
 3286W        W 7350   0.954  10.367   2.762
 3287W        W 7351   3.307   8.948  10.812
 3288W        W 7352   8.122   8.854   8.875
 3289W        W 7353  10.358   8.363  11.753
 3290W        W 7354   2.152   2.770  11.368
 3291W        W 7355   6.395   0.877   1.238
 3292W        W 7356   0.778   9.457   1.411
 3293W        W 7357   6.596   8.215   8.787
 3294W        W 7358   7.536   8.666   9.748
 3295W        W 7359   6.242  10.105   0.005
 3296W        W 7360   9.519   1.933   0.970
 3297W        W 7361   0.859   6.506   1.390
 3298W        W 7362  10.377   2.409  10.864
 3299W        W 7363   6.953  10.367   2.225
 3300W        W 7364   1.887   2.356   1.903
 3301W        W 7365   1.975   4.595   9.895
 3302W        W 7366   5.162   9.453   3.180
 3303W        W 7367   5.437   0.948   3.574
 3304W        W 7368   8.947   3.225   9.869
 3305W        W 7369  10.195   4.907   0.214
 3306W        W 7370   3.868   7.783   2.737
 3307W        W 7371   3.822   8.225   0.444
 3308W        W 7372   8.700   9.922   9.297
 3309W        W 7373   4.606   6.868   1.432
 3310W        W 7374   3.802   5.940  10.502
 3311W        W 7375   9.281   4.426  11.019
 3312W        W 7376   8.344   7.576   9.866
 3313W        W 7377   9.877   4.616   1.283
 3314W        W 7378   9.458   7.641   1.258
 3315W        W 7379   3.173   4.021   0.870
 3316W        W 7380   2.899   4.392   0.545
 3317W        W 7381   0.480   2.790  11.128
 3318W        W 7382   8.813   2.593  11.593
 3319W        W 7383   8.164   6.017   0.185
 3320W        W 7384   3.398   0.288  11.687
 3321W        W 7385   6.459   7.937   1.248
 3322W        W 7386   0.796   3.504   1.528
 3323W        W 7387   9.523   6.668  11.176
 3324W        W 7388   6.495   5.686   0.630
 3325W        W 7389   7.455   9.817   0.053
 3326W        W 7390   4.293   0.847   2.039
 3327W        W 7391   3.681   2.298  11.035
 3328W        W 7392   7.817   4.822   0.648
 3329W        W 7393  10.339   1.351   0.800
 3330W        W 7394   4.619   3.213   1.306
 3331W        W 7395   8.136   0.871   8.856
 3332W        W 7396   2.030   1.729   3.468
 3333W        W 7397   5.942   4.051  10.916
 3334W        W 7398   4.058   8.502   8.672
 3335W        W 7399   8.787   4.302  11.887
 3336W        W 7400   6.015   5.120   8.749
 3337W        W 7401   1.534   9.442   2.574
 3338W        W 7402   2.222   8.920   2.752
 3339W        W 7403   8.040   8.418  10.233
 3340W        W 7404   1.022   0.235   3.147
 3341W        W 7405   7.313   4.002   9.985
 3342W        W 7406   1.709   2.129   3.219
 3343W        W 7407   0.921   5.262   9.291
 3344W        W 7408   8.159   5.069   1.628
 3345W        W 7409   2.553   9.924   3.340
 3346W        W 7410   5.458   4.823  11.831
 3347W        W 7411  10.329   9.823   3.322
 3348W        W 7412  10.458   6.134   1.495
 3349W        W 7413   4.250   7.493   2.554
 3350W        W 7414   6.617   9.760   2.136
 3351W        W 7415  10.417   1.428  11.885
 3352W        W 7416   9.010   7.056   1.702
 3353W        W 7417   0.259   9.471   1.470
 3354W        W 7418   7.874   3.577   2.145
 3355W        W 7419   2.970   5.111  11.996
 3356W        W 7420   5.472   6.561   8.919
 3357W        W 7421   6.039   2.230   8.748
 3358W        W 7422   3.845   7.140   8.606
 3359W        W 7423   3.821   8.906  10.753
 3360W        W 7424   8.114   8.977   0.883
 3361W        W 7425   5.204   2.661  10.093
 3362W        W 7426   0.986   9.485  10.564
 3363W        W 7427   3.146   1.368  11.801
 3364W        W 7428   7.502   5.551   8.096
 3365W        W 7429   6.744  10.484  10.148
 3366W        W 7430   6.721   5.009   2.278
 3367W        W 7431   0.293   0.264   2.491
 3368W        W 7432   6.905   9.426  11.054
 3369W        W 7433   5.987   8.972   2.226
 3370W        W 7434  10.014   4.329   9.207
 3371W        W 7435   9.157   6.453   2.905
 3372W        W 7436   7.113   1.905  10.473
 3373W        W 7437   5.953   5.115  11.032
 3374W        W 7438   2.684   5.528   1.225
 3375W        W 7439   6.946   2.512  11.061
 3376W        W 7440   9.515   1.175   1.799
 3377W        W 7441   1.765   0.341  10.890
 3378W        W 7442   4.949  10.069  11.598
 3379W        W 7443   6.470   3.094   9.812
 3380W        W 7444   1.203   3.953   0.579
 3381W        W 7445   0.445   6.251   1.154
 3382W        W 7446   5.151   5.729   0.751
 3383W        W 7447   2.588   8.638  10.488
 3384W        W 7448   9.558   9.564   2.900
 3385W        W 7449   1.331   7.037  11.953
 3386W        W 7450   2.234   8.101   8.800
 3387W        W 7451   6.437   8.870   1.966
 3388W        W 7452   9.359   8.655   0.567
 3389W        W 7453  10.323   5.029   2.909
 3390W        W 7454   4.662   7.802   3.197
 3391W        W 7455   7.554   8.063  11.435
 3392W        W 7456   4.716   7.056  11.953
 3393W        W 7457   3.351   2.178   0.146
 3394W        W 7458   4.661   9.408   2.455
 3395W        W 7459   4.975   9.063   0.900
 3396W        W 7460   1.116  10.477   1.846
 3397W        W 7461   6.330   9.285  11.800
 3398W        W 7462   4.596   0.809   8.140
 3399W        W 7463   8.105   6.718  11.042
 3400W        W 7464  10.397   2.282   3.498
 3401W        W 7465   8.725   8.047   8.870
 3402W        W 7466   4.681   3.625  10.625
 3403W        W 7467   7.235   4.738   9.013
 3404W        W 7468   4.145   8.148   1.155
 3405W        W 7469   3.532   5.603   1.464
 3406W        W 7470   8.497   2.178   2.785
 3407W        W 7471  10.311   1.765   3.377
 3408W        W 7472   6.528   6.115  10.433
 3409W        W 7473   8.977   2.279   3.418
 3410W        W 7474   4.249   4.922   0.497
 3411W        W 7475   5.067   7.578  11.521
 3412W        W 7476   8.876   0.629  11.240
 3413W        W 7477   5.124   0.495   3.554
 3414W        W 7478   2.044   8.869   9.307
 3415W        W 7479   5.603   1.412   2.522
 3416W        W 7480   5.067   4.313   1.700
 3417W        W 7481   7.106  10.395   3.646
 3418W        W 7482   9.391   4.540  11.646
 3419W        W 7483   4.601   1.499   1.006
 3420W        W 7484   6.594  10.375  10.611
 3421W        W 7485   6.496   3.538   9.475
 3422W        W 7486   6.102   5.111   0.415
 3423W        W 7487   2.870   1.319   3.556
 3424W        W 7488   4.456   8.600  10.300
 3425W        W 7489   3.481   1.904   3.399
 3426W        W 7490   5.734   5.577   3.199
 3427W        W 7491   7.059   7.364  11.123
 3428W        W 7492   7.399   3.388   0.282
 3429W        W 7493   3.668   5.982   1.132
 3430W        W 7494   6.299   6.416   8.568
 3431W        W 7495   5.383   1.721   2.156
 3432W        W 7496   4.752   2.190   2.251
 3433W        W 7497   1.055   7.870   0.774
 3434W        W 7498   7.171   8.428   2.261
 3435W        W 7499   5.906   5.631   1.719
 3436W        W 7500   7.974   0.961   3.338
 3437W        W 7501   5.445   4.328   8.944
 3438W        W 7502   7.724   6.423   1.404
 3439W        W 7503   6.071   5.993   3.277
 3440W        W 7504  10.170   3.184  11.453
 3441W        W 7505   9.896   7.038   1.309
 3442W        W 7506   8.037   6.684  10.032
 3443W        W 7507   9.846   1.879  11.417
 3444W        W 7508   6.423   5.154   0.010
 3445W        W 7509   9.416   5.429  11.774
 3446W        W 7510   4.066   0.435   2.776
 3447W        W 7511  10.302   4.420   0.207
 3448W        W 7512   1.800   2.125   9.311
 3449W        W 7513   0.258   0.418  11.702
 3450W        W 7514   1.305   1.384   0.995
 3451W        W 7515  10.349   5.200  10.918
 3452W        W 7516   4.374   2.601   1.154
 3453W        W 7517   1.744   8.441  10.021
 3454W        W 7518   4.799   4.514   0.997
 3455W        W 7519   1.262   6.766  11.535
 3456W        W 7520   3.269   7.387   3.162
 3457W        W 7521   1.260   1.401  10.557
 3458W        W 7522   1.405  10.377  10.822
 3459W        W 7523   0.423   3.768   0.394
 3460W        W 7524   3.641   8.091   8.496
 3461W        W 7525   2.514   1.235  11.406
 3462W        W 7526   5.133   4.603   2.120
 3463W        W 7527   2.853   9.358   0.248
 3464W        W 7528   3.911   1.876  11.242
 3465W        W 7529   9.340   4.716   8.793
 3466W        W 7530   2.886   8.457   9.327
 3467W        W 7531  10.283   5.192   1.246
 3468W        W 7532   6.076   0.937  11.443
 3469W        W 7533  10.370   7.728  10.859
 3470W        W 7534   3.224   0.351  10.275
 3471W        W 7535   4.718   0.451   0.499
 3472W        W 7536   6.928   5.759  10.050
 3473W        W 7537   7.212   9.028  11.699
 3474W        W 7538   6.533   7.772   1.725
 3475W        W 7539   1.598   9.432   9.641
 3476W        W 7540   4.297   6.058   2.451
 3477W        W 7541   8.522   6.813   2.475
 3478W        W 7542   5.183   0.353   0.711
 3479W        W 7543   8.510   0.424   9.934
 3480W        W 7544   1.422   7.244  11.453
 3481W        W 7545   9.966   6.985   9.065
 3482W        W 7546   7.114   7.390   8.652
 3483W        W 7547   4.121   9.404   8.738
 3484W        W 7548   2.617   6.666   1.831
 3485W        W 7549   6.198   2.320  11.776
 3486W        W 7550   5.005   3.340   1.790
 3487W        W 7551   9.328   6.638   0.490
 3488W        W 7552   8.876   2.838   1.930
 3489W        W 7553  10.259   7.430   8.993
 3490W        W 7554   4.921   6.374   8.187
 3491W        W 7555   9.805   5.724   2.795
 3492W        W 7556   7.934   1.445   3.122
 3493W        W 7557   5.567   6.119   8.666
 3494W        W 7558   0.304   8.111   9.813
 3495W        W 7559   1.014   2.699   1.921
 3496W        W 7560   8.411   8.540   1.812
 3497W        W 7561   6.830   6.463   8.470
 3498W        W 7562   1.057   2.607   1.410
 3499W        W 7563   7.415   0.023  11.409
 3500W        W 7564   9.525   2.025  10.812
 3501W        W 7565   8.373   5.208   9.968
 3502W        W 7566   2.064   7.389  10.589
 3503W        W 7567   0.258   2.722  10.663
 3504W        W 7568   5.744   3.889   0.091
 3505W        W 7569   2.829   7.864   0.449
 3506W        W 7570   7.475   0.477   8.961
 3507W        W 7571   3.185   1.508   3.187
 3508W        W 7572   2.397   0.632  11.848
 3509W        W 7573   4.706   6.382  10.251
 3510W        W 7574   2.128  10.372   1.850
 3511W        W 7575   3.327   5.065   8.780
 3512W        W 7576   9.119   8.660   2.806
 3513W        W 7577   8.475   7.407   9.418
 3514W        W 7578   4.265   0.789   8.952
 3515W        W 7579  10.465   9.790   9.316
 3516W        W 7580   1.330   8.901   9.978
 3517W        W 7581   7.410   3.543   1.917
 3518W        W 7582   1.675   5.723   9.215
 3519W        W 7583   5.632   2.192   0.929
 3520W        W 7584   6.835   9.115   0.606
 3521W        W 7585   6.053   7.478   0.790
 3522W        W 7586   4.189   2.230   0.453
 3523W        W 7587   5.161   5.159  10.565
 3524W        W 7588   9.657  10.404   1.418
 3525W        W 7589   4.045   1.211   9.120
 3526W        W 7590   0.451   1.842   9.122
 3527W        W 7591   3.098   7.406   8.800
 3528W        W 7592   1.451   7.597   1.845
 3529W        W 7593   6.639   4.171   8.003
 3530W        W 7594   7.643   5.925   1.379
 3531W        W 7595   6.895   2.190   0.528
 3532W        W 7596   8.432   4.645   1.490
 3533W        W 7597   9.010   3.650   0.676
 3534W        W 7598   3.290   6.962  11.284
 3535W        W 7599   7.395   7.053  11.336
 3536W        W 7600   5.546   1.249   2.034
 3537W        W 7601  10.409   8.729   2.218
 3538W        W 7602  10.258   1.519  10.710
 3539W        W 7603   0.342   8.857   1.197
 3540W        W 7604   2.893   1.162   1.963
 3541W        W 7605   2.652   3.596   1.638
 3542W        W 7606   3.153   5.775   1.142
 3543W        W 7607   8.444   8.413   0.239
 3544W        W 7608   0.346   0.524  11.181
 3545W        W 7609   9.843   3.725   2.722
 3546W        W 7610   2.356   8.638  10.965
 3547W        W 7611   0.350   6.761  11.724
 3548W        W 7612  10.403   7.054   1.391
 3549W        W 7613   4.112   6.140   3.674
 3550W        W 7614   3.863  10.422   2.704
 3551W        W 7615  10.030  10.458  11.493
 3552W        W 7616   6.030   9.078   2.721
 3553W        W 7617   0.017   9.917   0.395
 3554W        W 7618   8.571   1.892  11.203
 3555W        W 7619   9.110   6.502   0.963
 3556W        W 7620  10.463   5.674  10.122
 3557W        W 7621   4.530   6.433   0.701
 3558W        W 7622   8.137   4.872  11.493
 3559W        W 7623   9.544   5.025  11.480
 3560W        W 7624   9.464   3.572   0.454
 3561W        W 7625   7.577   6.053   3.468
 3562W        W 7626  10.393   1.159   9.357
 3563W        W 7627  10.471   4.774  11.792
 3564W        W 7628   5.334   9.496   3.667
 3565W        W 7629   8.368   9.839   3.133
 3566W        W 7630   5.066   9.505   9.740
 3567W        W 7631   4.696   8.406   2.555
 3568W        W 7632   5.832   4.021   9.594
 3569W        W 7633   6.502   6.198   3.523
 3570W        W 7634   8.645   8.549   2.684
 3571W        W 7635   1.695   6.527  11.554
 3572W        W 7636   5.501   7.834   1.376
 3573W        W 7637   8.839  10.346   3.518
 3574W        W 7638   0.868   3.187   1.943
 3575W        W 7639   2.848  10.325   3.185
 3576W        W 7640  10.329   9.066   2.824
 3577W        W 7641   4.241   3.184   0.370
 3578W        W 7642   5.438   9.890  11.525
 3579W        W 7643   9.784   0.399   8.714
 3580W        W 7644   6.883   0.091   0.260
 3581W        W 7645   3.721   4.627   3.404
 3582W        W 7646   8.586   6.884   9.402
 3583W        W 7647   7.556   6.092   8.832
 3584W        W 7648   8.793   0.048   0.457
 3585W        W 7649   4.425   5.957   3.304
 3586W        W 7650   2.059   5.222  11.196
 3587W        W 7651   7.668   4.117   1.439
 3588W        W 7652   1.587   1.301   1.439
 3589W        W 7653   7.660   8.520   2.379
 3590W        W 7654   6.892   5.112   8.852
 3591W        W 7655   1.793   6.029   1.252
 3592W        W 7656   0.969   2.833  11.103
 3593W        W 7657   5.918   5.146   2.948
 3594W        W 7658   5.516  10.436   8.947
 3595W        W 7659   2.195   3.338  10.220
 3596W        W 7660   9.735   0.324   2.925
 3597W        W 7661   6.136   8.500   2.412
 3598W        W 7662   2.262   1.773   3.001
 3599W        W 7663   5.997   7.945   9.591
 3600W        W 7664   7.616   3.112   2.260
 3601W        W 7665   7.429  10.072   3.410
 3602W        W 7666   4.489   3.616   0.529
 3603W        W 7667   3.842   6.690  10.928
 3604W        W 7668   6.963   1.246   2.699
 3605W        W 7669   1.482   8.319  10.825
 3606W        W 7670   8.268   9.898  11.387
 3607W        W 7671  10.406   0.273  11.373
 3608W        W 7672   9.358   9.149   9.057
 3609W        W 7673   6.455   2.603   9.540
 3610W        W 7674   3.580   1.272   8.907
 3611W        W 7675   5.961   9.024   0.679
 3612W        W 7676   9.326   9.888  11.313
 3613W        W 7677   4.203   6.641   3.745
 3614W        W 7678   4.577   9.134   8.636
 3615W        W 7679   0.146   1.874   2.633
 3616W        W 7680   7.091   9.656   8.930
 3617W        W 7681   6.687   4.486  11.264
 3618W        W 7682   0.906   6.592  10.554
 3619W        W 7683   9.001   4.271  11.423
 3620W        W 7684   6.529   7.678   0.828
 3621W        W 7685   9.742   2.698   2.492
 3622W        W 7686   8.091  10.414   2.772
 3623W        W 7687  10.028   0.069   8.404
 3624W        W 7688   6.398   9.288   2.289
 3625W        W 7689   4.120   4.274   8.543
 3626W        W 7690   1.134   6.441   2.086
 3627W        W 7691   1.981   8.949   1.374
 3628W        W 7692   4.225   6.995   8.924
 3629W        W 7693   2.116   0.788   1.876
 3630W        W 7694   9.991   0.807   9.018
 3631W        W 7695   6.972   5.023   3.437
 3632W        W 7696   5.250   5.285   0.968
 3633W        W 7697   8.792   9.926  11.280
 3634W        W 7698   8.603   5.682  10.041
 3635W        W 7699   4.715   0.823   9.179
 3636W        W 7700   4.296   9.479   0.368
 3637W        W 7701   0.357   9.465   9.096
 3638W        W 7702   5.664   8.302   1.687
 3639W        W 7703   7.075   4.520   2.934
 3640W        W 7704   4.648   8.154   8.911
 3641W        W 7705   2.117   5.560   1.820
 3642W        W 7706  10.287   3.592   2.463
 3643W        W 7707   5.557   2.264  10.978
 3644W        W 7708   7.429   5.623   8.615
 3645W        W 7709   5.127   3.536   2.279
 3646W        W 7710   0.693   9.438  11.985
 3647W        W 7711   0.926   6.011   8.776
 3648W        W 7712   7.339   8.930   2.412
 3649W        W 7713   3.741   7.957   0.906
 3650W        W 7714   1.784   3.388   2.154
 3651W        W 7715   0.816   0.748   0.501
 3652W        W 7716   6.935   3.466   1.293
 3653W        W 7717   3.840   3.208   0.033
 3654W        W 7718   8.064   7.881   9.528
 3655W        W 7719   4.307   0.146  10.455
 3656W        W 7720   0.957   4.692  11.230
 3657W        W 7721   5.395   6.624   8.009
 3658W        W 7722   3.726   4.850   0.422
 3659W        W 7723   2.859   5.955   1.554
 3660W        W 7724   7.172   8.095   0.300
 3661W        W 7725   3.172   1.377   0.692
 3662W        W 7726   5.021   6.656  11.832
 3663W        W 7727   8.029   1.241   1.392
 3664W        W 7728   7.087   3.596   2.788
 3665W        W 7729   1.182   9.841  10.245
 3666W        W 7730   5.085   0.876   0.466
 3667W        W 7731  10.462   6.648  10.056
 3668W        W 7732   6.077   5.990   0.836
 3669W        W 7733   7.125   0.465   1.535
 3670W        W 7734   4.297  10.425   3.143
 3671W        W 7735   4.031   1.773   0.705
 3672W        W 7736   0.472   9.519  11.494
 3673W        W 7737   6.042   3.648   8.868
 3674W        W 7738   0.518   2.796   1.944
 3675W        W 7739   8.910   7.109  10.702
 3676W        W 7740   9.082   2.167   1.128
 3677W        W 7741   6.831   8.048   2.030
 3678W        W 7742   5.719   7.575  10.921
 3679W        W 7743   0.761   0.529  10.847
 3680W        W 7744   5.493   6.912  11.463
 3681W        W 7745   1.953   9.511   3.300
 3682W        W 7746   5.041   8.782   1.899
 3683W        W 7747   2.280   3.310   1.321
 3684W        W 7748   0.695   0.359   2.775
 3685W        W 7749   1.255   6.953   3.506
 3686W        W 7750   5.221   4.113   3.879
 3687W        W 7751   6.274   3.296   1.791
 3688W        W 7752   8.832   7.612   0.470
 3689W        W 7753   5.881   3.022   3.165
 3690W        W 7754   3.090   9.911   1.388
 3691W        W 7755  10.476   8.407   9.552
 3692W        W 7756   7.410   8.130   9.002
 3693W        W 7757   5.951   4.940  11.914
 3694W        W 7758   1.919   3.413   2.799
 3695W        W 7759   0.872   8.395   2.936
 3696W        W 7760   0.074   7.668  11.685
 3697W        W 7761   4.089   3.384   8.909
 3698W        W 7762   8.386   4.572   9.420
 3699W        W 7763   4.550   2.153   9.350
 3700W        W 7764   2.606   4.276  11.019
 3701W        W 7765   2.854   6.665  10.023
 3702W        W 7766   4.990   2.824   9.084
 3703W        W 7767   8.796   4.758   3.614
 3704W        W 7768   3.292  10.153   0.961
 3705W        W 7769   1.867   2.841   0.363
 3706W        W 7770   7.389  10.180  11.019
 3707W        W 7771  10.104   7.822   0.885
 3708W        W 7772   1.481   4.120  11.368
 3709W        W 7773   6.834   5.526   2.401
 3710W        W 7774   9.475   6.327   0.121
 3711W        W 7775   2.346   1.277   3.519
 3712W        W 7776   2.251   2.207  10.032
 3713W        W 7777   8.563   4.557  11.475
 3714W        W 7778   8.491   8.072   9.319
 3715W        W 7779   5.036   6.206   8.668
 3716W        W 7780   5.166  10.044   2.498
 3717W        W 7781   1.058   4.217   3.608
 3718W        W 7782   7.490   1.640   2.820
 3719W        W 7783   7.489   4.761   2.693
 3720W        W 7784   0.681   0.864   9.867
 3721W        W 7785   5.052   2.447  11.026
 3722W        W 7786   7.580   2.181   0.237
 3723W        W 7787   1.393   2.431   0.434
 3724W        W 7788   1.263   8.471   9.740
 3725W        W 7789   8.169   0.943  10.004
 3726W        W 7790   5.963   8.652  10.421
 3727W        W 7791   8.915   8.465   0.427
 3728W        W 7792   3.233   2.274   3.625
 3729W        W 7793   0.946   6.042  11.882
 3730W        W 7794  10.146   7.939  11.560
 3731W        W 7795   5.601   3.883   8.625
 3732W        W 7796   6.951   7.548   2.690
 3733W        W 7797   6.850   5.134  11.740
 3734W        W 7798   9.833   6.463   0.449
 3735W        W 7799   0.989   2.597  10.235
 3736W        W 7800   3.629   0.311   2.998
 3737W        W 7801   8.618   9.735   1.159
 3738W        W 7802   6.156   5.983   3.821
 3739W        W 7803   6.680   7.573   2.203
 3740W        W 7804   5.297   4.067   9.441
 3741W        W 7805   9.492   2.272   0.268
 3742W        W 7806   0.494   7.678   0.969
 3743W        W 7807   6.997   1.761   2.747
 3744W        W 7808   8.201   0.107  10.642
 3745W        W 7809   3.744   1.374  10.928
 3746W        W 7810   7.818   3.595   0.036
 3747W        W 7811   4.141   0.857   3.089
 3748W        W 7812   3.618   5.535   9.337
 3749W        W 7813   2.728   6.574   9.030
 3750W        W 7814   8.921   3.003   1.420
 3751W        W 7815   5.501   2.637  10.527
 3752W        W 7816   5.189   3.061   0.227
 3753W        W 7817   4.249   1.636   9.317
 3754W        W 7818   4.312   5.127  10.508
 3755W        W 7819   1.303   7.660   3.328
 3756W        W 7820  10.230   2.990   3.016
 3757W        W 7821   5.756   7.403   9.036
 3758W        W 7822   4.812   7.958   2.762
 3759W        W 7823   3.735   4.185   9.053
 3760W        W 7824   4.791   2.875  11.911
 3761W        W 7825   4.678   5.089   2.073
 3762W        W 7826   1.467   5.244   8.670
 3763W        W 7827   3.820   3.221  11.069
 3764W        W 7828   5.637   4.116   7.996
 3765W        W 7829   1.461   3.097  10.862
 3766W        W 7830   0.005   4.248   9.085
 3767W        W 7831   2.406   8.904   9.673
 3768W        W 7832   9.870   1.396   1.009
 3769W        W 7833   3.155   1.169  10.593
 3770W        W 7834   6.791   0.427   1.135
 3771W        W 7835   7.881   7.436   0.311
 3772W        W 7836   7.953   1.890  10.550
 3773W        W 7837   1.497   7.727  11.358
 3774W        W 7838  10.464  10.274   3.136
 3775W        W 7839   4.166   1.343   2.735
 3776W        W 7840   0.963   4.940   1.727
 3777W        W 7841   5.559   5.673   0.174
 3778W        W 7842   2.762   7.444   1.262
 3779W        W 7843  10.267   1.822  10.299
 3780W        W 7844   1.520   4.469   9.682
 3781W        W 7845   8.630   8.334   1.404
 3782W        W 7846   7.806   0.455  10.568
 3783W        W 7847   5.163   3.626  10.358
 3784W        W 7848   4.998   5.472   9.964
 3785W        W 7849   1.593   5.641   0.965
 3786W        W 7850   1.939   2.892   2.042
 3787W        W 7851  10.210  10.082   2.289
 3788W        W 7852   1.824   4.096   9.894
 3789W        W 7853   6.141   5.534   3.544
 3790W        W 7854   5.562   6.969   1.465
 3791W        W 7855   7.635   5.014   1.676
 3792W        W 7856   5.696   5.593  10.310
 3793W        W 7857   1.907   4.311   2.334
 3794W        W 7858   7.681   3.766   0.513
 3795W        W 7859   3.011   9.040  10.419
 3796W        W 7860   0.046   4.632  10.818
 3797W        W 7861   3.531   9.973   2.298
 3798W        W 7862   3.284   0.438   1.662
 3799W        W 7863   9.778   7.401   8.800
 3800W        W 7864   2.489   4.783   8.905
 3801W        W 7865   0.223   1.365  10.882
 3802W        W 7866   6.947   5.436   0.531
 3803W        W 7867   0.859   9.925   1.187
 3804W        W 7868   6.407   8.855   0.457
 3805W        W 7869   7.159   7.588   9.659
 3806W        W 7870   7.459   3.215  11.295
 3807W        W 7871   9.904   1.851   1.838
 3808W        W 7872   3.077   7.957  11.087
 3809W        W 7873   0.427   7.367   2.877
 3810W        W 7874   4.488   6.417   1.213
 3811W        W 7875   4.994   3.034   9.828
 3812W        W 7876   0.890   3.939   1.245
 3813W        W 7877   1.993   9.551  10.984
 3814W        W 7878   1.162   2.225   1.804
 3815W        W 7879   7.904   2.400  10.555
 3816W        W 7880   5.709   1.611  11.755
 3817W        W 7881   5.599   1.277   3.036
 3818W        W 7882  10.231   7.696   2.210
 3819W        W 7883   9.386   5.445   2.172
 3820W        W 7884   0.908   4.152   0.203
 3821W        W 7885   0.355   7.229  10.129
 3822W        W 7886   4.725   5.049  10.818
 3823W        W 7887  10.371   3.473   9.713
 3824W        W 7888   9.338   2.677   2.168
 3825W        W 7889   4.968   6.461   2.866
 3826W        W 7890   7.446   6.593   8.919
 3827W        W 7891   8.936   5.584   9.643
 3828W        W 7892   7.331   5.216  10.466
 3829W        W 7893   8.366   4.241  10.860
 3830W        W 7894   8.193   1.808  11.569
 3831W        W 7895  10.477   7.100  11.911
 3832W        W 7896   3.279   7.213   2.311
 3833W        W 7897   6.116   0.414   3.323
 3834W        W 7898   9.398   3.387  10.520
 3835W        W 7899   0.812   0.266   9.464
 3836W        W 7900   8.318   9.904   8.949
 3837W        W 7901   5.893   0.424   2.834
 3838W        W 7902   0.363   0.202  10.776
 3839W        W 7903   9.401   9.200  11.180
 3840W        W 7904   2.034   9.399   1.907
 3841W        W 7905   0.863   6.522  10.048
 3842W        W 7906   7.018   5.616  11.023
 3843W        W 7907   2.093   5.246   3.014
 3844W        W 7908   8.657   7.191   8.996
 3845W        W 7909   4.739  10.295   2.429
 3846W        W 7910   7.594   9.966  10.097
 3847W        W 7911   2.367   8.437   3.018
 3848W        W 7912   8.740   2.005   0.358
 3849W        W 7913   0.174   5.616   0.030
 3850W        W 7914   6.418   8.935   1.422
 3851W        W 7915   9.163   5.763  10.505
 3852W        W 7916   7.813   4.114  11.991
 3853W        W 7917   2.371   6.019   1.790
 3854W        W 7918   4.164   1.857   2.807
 3855W        W 7919   5.925   6.844   3.866
 3856W        W 7920   2.109   7.142   9.874
 3857W        W 7921   4.001   7.925   2.255
 3858W        W 7922   4.684   0.884   8.650
 3859W        W 7923   7.289  10.005   1.633
 3860W        W 7924   7.007   2.202   3.036
 3861W        W 7925   1.918   3.319  11.024
 3862W        W 7926   1.199   9.729   8.822
 3863W        W 7927   7.447   3.721  11.124
 3864W        W 7928   5.952   3.483   1.406
 3865W        W 7929   2.349   3.135   2.844
 3866W        W 7930   7.376  10.495   0.326
 3867W        W 7931   7.868   6.530   2.762
 3868W        W 7932   2.890   6.949  11.853
 3869W        W 7933   4.969   4.680   0.426
 3870W        W 7934   2.385   4.787   2.723
 3871W        W 7935   0.641   0.617   2.302
 3872W        W 7936   9.963   4.535  10.478
 3873W        W 7937   7.147   0.441   3.313
 3874W        W 7938   1.659   1.622  11.802
 3875W        W 7939  10.210   0.629   1.397
 3876W        W 7940   9.385   4.648   9.800
 3877W        W 7941   2.827   7.027   0.413
 3878W        W 7942   8.412   6.496   0.826
 3879W        W 7943   1.390   4.283   3.213
 3880W        W 7944   3.619   6.477   1.693
 3881W        W 7945   1.297   0.243   9.026
 3882W        W 7946  10.255   6.715   0.314
 3883W        W 7947   6.943   3.678   0.354
 3884W        W 7948   4.404   0.089   2.660
 3885W        W 7949   7.492   8.777  10.758
 3886W        W 7950   3.390   1.032  11.029
 3887W        W 7951   4.647   2.349  10.711
 3888W        W 7952   4.934   8.481  10.456
 3889W        W 7953   9.302   8.491   3.310
 3890W        W 7954   4.710   9.384   2.938
 3891W        W 7955   6.098   4.095   8.648
 3892W        W 7956   9.236   7.960   8.942
 3893W        W 7957   8.150   8.356   9.044
 3894W        W 7958   7.139   2.265   1.500
 3895W        W 7959   3.374   0.580   9.792
 3896W        W 7960   2.308   7.809  11.566
 3897W        W 7961   0.438   5.203   0.192
 3898W        W 7962   1.964   4.567   0.888
 3899W        W 7963   2.821   5.952   0.048
 3900W        W 7964   6.188   1.893   3.480
 3901W        W 7965   2.603   2.536  10.280
 3902W        W 7966   6.680   0.304   9.394
 3903W        W 7967   2.899  10.361  10.660
 3904W        W 7968   8.632   4.237   1.226
 3905W        W 7969  10.294   4.611   8.785
 3906W        W 7970   6.715   1.252  10.526
 3907W        W 7971   7.540   5.650   3.108
 3908W        W 7972   5.259   6.147   9.122
 3909W        W 7973   2.357   6.761   1.165
 3910W        W 7974   4.731   3.295   0.210
 3911W        W 7975   6.048   7.547   1.678
 3912W        W 7976   7.001   6.445   1.756
 3913W        W 7977   9.653   3.400   8.599
 3914W        W 7978   4.157   1.248  11.829
 3915W        W 7979   7.965   7.503   2.647
 3916W        W 7980   7.804   9.946   9.054
 3917W        W 7981  10.220   3.664  11.313
 3918W        W 7982   2.641   5.055   2.341
 3919W        W 7983   1.295   1.854   9.061
 3920W        W 7984   5.079   4.627  11.040
 3921W        W 7985   9.383   6.436   1.760
 3922W        W 7986   5.169   8.544  11.071
 3923W        W 7987   3.699  10.443   2.210
 3924W        W 7988   9.436   7.190   1.482
 3925W        W 7989   7.418   2.082   0.702
 3926W        W 7990   5.182   7.680  11.043
 3927W        W 7991  10.349   0.696   9.571
 3928W        W 7992   4.081  10.356   0.881
 3929W        W 7993   7.555   3.568   9.952
 3930W        W 7994   4.696   1.735   9.063
 3931W        W 7995   0.219   8.644  11.406
 3932W        W 7996   0.891   5.699   0.290
 3933W        W 7997   7.074   6.699   2.321
 3934W        W 7998  10.081   3.728  11.803
 3935W        W 7999   5.665   0.776   2.189
 3936W        W 8000   4.276   9.083  10.535
 3937W        W 8001   1.264  10.443   9.447
 3938W        W 8002   6.966   9.957  10.773
 3939W        W 8003   7.930   4.106   2.364
 3940W        W 8004   2.667   0.806   3.394
 3941W        W 8005   1.712   8.323   1.790
 3942W        W 8006   8.980   0.878   2.843
 3943W        W 8007   6.932   9.002   2.726
 3944W        W 8008   2.637   2.744   2.735
 3945W        W 8009   4.616   3.658   1.563
 3946W        W 8010   0.467   0.773  11.990
 3947W        W 8011   0.355   5.348   9.875
 3948W        W 8012   2.295   8.995   1.774
 3949W        W 8013   3.715   8.954   1.340
 3950W        W 8014   8.487   0.302   9.426
 3951W        W 8015   7.015   0.327  11.264
 3952W        W 8016  10.357   4.989   2.416
 3953W        W 8017   4.595   6.886  10.264
 3954W        W 8018   7.215   9.003   0.275
 3955W        W 8019   6.229   4.328  11.756
 3956W        W 8020   4.177   0.819   8.465
 3957W        W 8021   1.917  10.423  10.656
 3958W        W 8022   7.971  10.499   0.361
 3959W        W 8023   4.356   5.766   8.280
 3960W        W 8024   9.910  10.334  11.977
 3961W        W 8025   6.111   2.331  11.268
 3962W        W 8026   8.921   4.764   2.184
 3963W        W 8027   5.246   6.655   8.489
 3964W        W 8028   6.961   2.407  10.564
 3965W        W 8029   1.068   9.103   0.239
 3966W        W 8030   5.470   4.683   0.345
 3967W        W 8031   6.960   7.717   0.571
 3968W        W 8032   9.976   3.196   2.611
 3969W        W 8033   2.399   2.932  11.816
 3970W        W 8034   2.607   6.084   3.509
 3971W        W 8035   9.413   9.004   2.543
 3972W        W 8036   6.850   9.051   1.154
 3973W        W 8037   2.359   7.660   1.735
 3974W        W 8038   9.528   8.313   9.238
 3975W        W 8039   3.699  10.347  10.813
 3976W        W 8040   9.770   4.284  10.914
 3977W        W 8041   6.514   1.479   2.782
 3978W        W 8042   5.671   2.379   2.351
 3979W        W 8043   1.209   9.556  11.987
 3980W        W 8044   6.281   7.442   1.239
 3981W        W 8045   5.597   7.379   2.791
 3982W        W 8046   8.301   0.130   8.448
 3983W        W 8047   1.668   0.468   2.523
 3984W        W 8048   7.402   5.205   8.920
 3985W        W 8049   2.733   3.574   9.264
 3986W        W 8050   2.715   0.302  10.891
 3987W        W 8051   5.075   2.266   9.179
 3988W        W 8052   2.330  10.314   2.988
 3989W        W 8053   4.298   1.673   1.905
 3990W        W 8054   4.315   6.593   9.696
 3991W        W 8055   0.752   8.880   9.863
 3992W        W 8056   6.924   9.878  11.278
 3993W        W 8057   7.231   1.729  11.319
 3994W        W 8058   9.316   5.642   9.277
 3995W        W 8059   6.186   3.118   3.578
 3996W        W 8060   0.762   8.557   1.964
 3997W        W 8061   9.442   1.853   8.555
 3998W        W 8062   4.773   8.866  11.272
 3999W        W 8063   5.276   9.858  10.099
 4000W        W 8064   1.357   8.028   1.508
 4001W        W 8065   1.242   2.936   0.389
 4002W        W 8066   1.761   5.959  10.215
 4003W        W 8067   9.387   0.705   1.951
 4004W        W 8068   2.262   2.248  11.520
 4005W        W 8069   4.541   3.905  11.015
 4006W        W 8070   0.898   7.055  10.782
 4007W        W 8071   1.501   0.250   3.371
 4008W        W 8072   0.554   1.792   9.817
 4009W        W 8073   9.510   7.117   0.981
 4010W        W 8074   0.330   7.339   1.444
 4011W        W 8075   3.207   4.824   1.273
 4012W        W 8076   2.810   5.922   2.084
 4013W        W 8077   4.169   7.994   8.745
 4014W        W 8078   6.084   4.313   8.178
 4015W        W 8079   6.489   3.348   0.562
 4016W        W 8080   2.954   7.873   8.603
 4017W        W 8081   7.126   0.927  11.887
 4018W        W 8082   3.185   0.245   9.418
 4019W        W 8083   2.686   9.956   2.825
 4020W        W 8084   8.546   7.917   3.216
 4021W        W 8085   6.943   9.514   2.963
 4022W        W 8086   6.066   7.113   2.004
 4023W        W 8087   6.586   7.428   3.134
 4024W        W 8088   1.157   0.728   2.210
 4025W        W 8089   4.539   9.775  11.780
 4026W        W 8090   0.026   4.635  10.296
 4027W        W 8091  10.462   7.585   1.217
 4028W        W 8092   2.644   4.316  11.537
 4029W        W 8093   5.190   1.722   9.855
 4030W        W 8094   4.544   0.391   9.445
 4031W        W 8095   5.135   1.189   2.333
 4032W        W 8096   6.116   7.268  10.814
 4033W        W 8097   0.388   0.671   1.846
 4034W        W 8098   5.739   5.169   1.643
 4035W        W 8099   4.905   0.430   8.663
 4036W        W 8100   7.980   9.392   0.587
 4037W        W 8101   4.233   5.643  10.468
 4038W        W 8102   9.734   8.925  10.482
 4039W        W 8103   4.299   6.208  10.532
 4040W        W 8104   8.673   9.088   3.609
 4041W        W 8105   0.751   3.575  10.291
 4042W        W 8106   2.286   7.678   1.231
 4043W        W 8107   0.993   8.758   9.426
 4044W        W 8108   4.610   4.058   8.796
 4045W        W 8109   3.350   3.824   1.339
 4046W        W 8110   7.536   2.765   1.466
 4047W        W 8111   9.573   5.568  10.263
 4048W        W 8112   3.145   6.472   2.906
 4049W        W 8113   9.524   9.380  10.064
 4050W        W 8114   2.587   7.515   8.890
 4051W        W 8115   7.509   3.644  11.624
 4052W        W 8116  10.369   5.707   1.207
 4053W        W 8117   4.591   4.698   3.502
 4054W        W 8118   2.770   1.302  10.925
 4055W        W 8119   7.878   0.257   1.610
 4056W        W 8120   1.541   5.650  10.554
 4057W        W 8121   7.532   7.057   0.170
 4058W        W 8122   0.389   9.047  10.875
 4059W        W 8123   2.861   7.505  11.165
 4060W        W 8124   6.574   9.452   1.320
 4061W        W 8125   5.635  10.410   1.934
 4062W        W 8126   7.425   5.333   9.501
 4063W        W 8127   8.033   2.257   1.394
 4064W        W 8128   6.022   3.676   9.923
 4065W        W 8129   5.814   7.459   0.325
 4066W        W 8130   3.409   7.941   1.886
 4067W        W 8131   5.678   6.911   9.218
 4068W        W 8132   6.059   9.073  10.846
 4069W        W 8133   8.441   6.444   2.112
 4070W        W 8134   0.354   8.550   1.682
 4071W        W 8135   6.898   5.006   2.777
 4072W        W 8136   4.134   3.895   8.908
 4073W        W 8137   9.040   4.043   1.506
 4074W        W 8138   4.926   6.898   8.139
 4075W        W 8139   6.130   1.396  11.237
 4076W        W 8140   7.978   8.982   3.003
 4077W        W 8141   3.269   7.109   0.735
 4078W        W 8142   4.966   0.420  10.774
 4079W        W 8143   4.059   3.959   1.392
 4080W        W 8144   6.542   2.967   0.252
 4081W        W 8145   2.264   3.501   3.186
 4082W        W 8146   1.682   7.174   0.575
 4083W        W 8147   6.038   3.157  11.110
 4084W        W 8148   4.690   3.791   3.009
 4085W        W 8149  10.284   4.126   2.848
 4086W        W 8150   7.995   3.684   3.290
 4087W        W 8151   8.438   0.730   3.296
 4088W        W 8152   8.393   1.717   3.050
 4089W        W 8153   1.351   6.499  10.787
 4090W        W 8154   4.050   5.598   1.640
 4091W        W 8155   3.255   2.410   3.159
 4092W        W 8156   2.666   9.314   9.853
 4093W        W 8157   6.208   1.772   9.932
 4094W        W 8158   0.763   4.115   1.707
 4095W        W 8159   5.546   7.028   8.718
 4096W        W 8160   6.170   8.536   0.827
 4097W        W 8161   9.167   5.953   9.995
 4098W        W 8162   3.783   3.599   1.157
 4099W        W 8163   9.062   4.615   2.657
 4100W        W 8164   9.872   0.946   1.223
 4101W        W 8165   5.031   9.537   9.237
 4102W        W 8166   2.393   2.587  10.779
 4103W        W 8167   1.371   6.564   0.902
 4104W        W 8168   2.907   8.915   9.581
 4105W        W 8169   0.945   3.797   3.289
 4106W        W 8170   4.203   1.225   1.687
 4107W        W 8171   0.686   7.324   8.900
 4108W        W 8172   5.560   3.823   1.415
 4109W        W 8173   9.025   0.347   9.963
 4110W        W 8174   0.996   3.052   2.861
 4111W        W 8175   2.963   7.196   2.719
 4112W        W 8176   3.142   3.825   9.061
 4113W        W 8177   8.353   0.312   2.959
 4114W        W 8178   9.789   8.992  11.516
 4115W        W 8179   5.085   6.709   0.767
 4116W        W 8180  10.496   2.825   1.922
 4117W        W 8181   8.664   6.635  10.810
 4118W        W 8182   4.257   9.107   2.807
 4119W        W 8183   9.977   3.057   9.323
 4120W        W 8184   7.447   9.297  10.746
 4121W        W 8185   5.984   5.298  11.501
 4122W        W 8186   9.432   4.284  10.545
 4123W        W 8187   6.696   4.286   2.314
 4124W        W 8188   3.726   9.828  10.296
 4125W        W 8189   7.288   2.199   9.251
 4126W        W 8190   9.740   0.769   0.220
 4127W        W 8191   5.060   3.737  11.010
 4128W        W 8192   0.501   8.265  10.249
 4129W        W 8193   0.825   7.878   2.722
 4130W        W 8194   5.095   3.096   3.050
 4131W        W 8195   9.919   0.278   0.736
 4132W        W 8196   7.495   6.287   0.021
 4133W        W 8197   3.561   1.104   9.839
 4134W        W 8198   8.283   4.280   9.838
 4135W        W 8199   2.250   3.273  11.459
 4136W        W 8200   4.128   6.151   8.855
 4137W        W 8201   4.598   4.656   0.101
 4138W        W 8202   7.907   1.354   8.827
 4139W        W 8203   9.543   0.869   2.741
 4140W        W 8204   6.641   2.299   1.817
 4141W        W 8205   4.766   1.867   1.389
 4142W        W 8206   5.793  10.353   3.442
 4143W        W 8207   4.363   7.407   9.423
 4144W        W 8208   5.795   3.181   1.884
 4145W        W 8209  10.417   3.278  10.610
 4146W        W 8210   5.164   9.066  10.959
 4147W        W 8211   8.614   2.874  10.946
 4148W        W 8212   5.530   0.677   1.242
 4149W        W 8213   4.210   7.756  10.291
 4150W        W 8214   2.500   5.640   8.422
 4151W        W 8215   1.373   6.112   2.427
 4152W        W 8216   4.716   4.972   0.738
 4153W        W 8217   0.297   7.980  10.623
 4154W        W 8218   7.444   6.076   0.910
 4155W        W 8219   4.624   5.157   2.628
 4156W        W 8220   5.232  10.056  10.576
 4157W        W 8221   5.744   6.215   9.891
 4158W        W 8222  10.427   1.136   2.916
 4159W        W 8223   7.490   1.062   3.439
 4160W        W 8224   5.670   9.007  10.143
 4161W        W 8225   2.722   5.718   9.055
 4162W        W 8226   3.629   1.607   9.921
 4163W        W 8227   5.704   2.386   1.398
 4164W        W 8228   3.401   5.775   9.955
 4165W        W 8229   8.023   2.929   0.681
 4166W        W 8230   3.406   6.095  11.389
 4167W        W 8231   2.480   6.522   8.587
 4168W        W 8232   2.380   1.947   1.488
 4169W        W 8233   4.561   5.569   1.829
 4170W        W 8234   6.899   2.149   9.585
 4171W        W 8235   0.358   0.032  11.343
 4172W        W 8236   8.379   6.938   2.003
 4173W        W 8237   6.451   3.377   1.321
 4174W        W 8238   9.403   6.200  10.407
 4175W        W 8239   9.002   6.824   9.073
 4176W        W 8240   2.430   2.879   1.651
 4177W        W 8241   0.767   8.356   9.808
 4178W        W 8242   1.941   8.451   2.692
 4179W        W 8243   2.725   9.245   8.832
 4180W        W 8244   8.930   9.127   9.607
 4181W        W 8245   5.954   6.773  11.610
 4182W        W 8246   8.673   4.990   9.371
 4183W        W 8247   5.043   2.719   3.395
 4184W        W 8248   1.694   3.225   1.683
 4185W        W 8249   4.283   6.445  11.001
 4186W        W 8250   2.700   9.101  11.775
 4187W        W 8251   0.785   9.403   1.910
 4188W        W 8252   7.461  10.287   2.101
 4189W        W 8253   9.761   4.345  10.023
 4190W        W 8254   4.091   0.384   3.304
 4191W        W 8255   4.518   8.949   0.658
 4192W        W 8256   7.228   5.725   2.165
 4193W        W 8257   0.780   3.748  10.772
 4194W        W 8258   3.102   2.223   2.171
 4195W        W 8259  10.414   9.852   1.433
 4196W        W 8260   5.915   9.586   3.594
 4197W        W 8261   6.927   8.158  10.784
 4198W        W 8262   0.785   5.163   2.158
 4199W        W 8263   0.523   1.900   2.283
 4200W        W 8264   1.164   6.453   8.634
 4201W        W 8265   4.492   1.732   2.388
 4202W        W 8266   0.880   3.073   8.980
 4203W        W 8267   2.725   6.485   0.838
 4204W        W 8268   0.487   7.731  11.391
 4205W        W 8269   3.714   0.433   1.970
 4206W        W 8270   0.836   1.794  11.396
 4207W        W 8271   4.953   4.264   9.111
 4208W        W 8272   7.741   0.783   1.806
 4209W        W 8273   5.504   6.690   3.588
 4210W        W 8274   1.261   6.066   9.935
 4211W        W 8275   9.998   4.025   0.214
 4212W        W 8276   8.378   1.287   3.389
 4213W        W 8277  10.239   5.483   2.684
 4214W        W 8278   5.756   7.068  10.071
 4215W        W 8279   7.473   2.702   1.974
 4216W        W 8280   9.206  10.309   9.882
 4217W        W 8281   0.312   5.452  11.057
 4218W        W 8282   4.765   7.943  10.321
 4219W        W 8283   8.858   1.553   9.254
 4220W        W 8284   1.218   3.984   1.934
 4221W        W 8285   3.739   5.829  11.708
 4222W        W 8286   6.592   8.354   2.713
 4223W        W 8287   3.234   6.974   9.053
 4224W        W 8288   1.367   2.271  11.880
 4225W        W 8289   7.894   9.433  10.528
 4226W        W 8290   6.737   4.023   9.311
 4227W        W 8291   8.391   2.611  11.908
 4228W        W 8292   8.032   9.988   0.358
 4229W        W 8293   7.589   6.598   0.485
 4230W        W 8294   8.762   9.534   2.264
 4231W        W 8295   4.565   4.224   3.242
 4232W        W 8296   6.013   8.595   9.375
 4233W        W 8297   3.734   1.312   1.919
 4234W        W 8298   0.853   6.909   9.210
 4235W        W 8299   7.872   1.808   0.045
 4236W        W 8300   6.679   6.487  11.333
 4237W        W 8301  10.442   8.266   3.118
 4238W        W 8302   9.641   3.812   8.894
 4239W        W 8303   4.221   7.412  11.272
 4240W        W 8304  10.412   9.422   0.589
 4241W        W 8305   4.675   8.916   3.152
 4242W        W 8306   3.182   3.731  10.086
 4243W        W 8307   6.061   9.567  11.008
 4244W        W 8308  10.482   9.701  11.419
 4245W        W 8309   1.518   3.710   2.958
 4246W        W 8310   7.615   1.298  10.624
 4247W        W 8311   8.387   7.063  10.791
 4248W        W 8312   4.303   5.256   8.404
 4249W        W 8313   2.291   3.905   8.772
 4250W        W 8314   4.741   6.018   1.024
 4251W        W 8315   1.893   3.058  11.899
 4252W        W 8316   3.308   7.158  10.450
 4253W        W 8317   9.334   2.833   1.692
 4254W        W 8318   3.581   2.733   2.300
 4255W        W 8319   4.724   7.035   2.486
 4256W        W 8320   6.109   2.233  10.149
 4257W        W 8321   1.805   5.986   1.755
 4258W        W 8322   7.808   9.780  11.686
 4259W        W 8323   6.662   6.161  11.957
 4260W        W 8324   9.388   9.064   1.312
 4261W        W 8325   9.428  10.492   2.674
 4262W        W 8326   1.943   9.756   0.703
 4263W        W 8327   2.059   9.952  10.412
 4264W        W 8328   0.383   2.899   0.708
 4265W        W 8329   2.165   4.509  10.849
 4266W        W 8330   3.263   4.449   3.594
 4267W        W 8331   0.035   2.825   0.340
 4268W        W 8332  10.306   8.210  10.732
 4269W        W 8333   5.237   9.478   0.771
 4270W        W 8334   4.794   2.326   1.184
 4271W        W 8335   1.711   8.477  11.777
 4272W        W 8336   3.214   7.200   1.404
 4273W        W 8337   0.258   5.237   3.575
 4274W        W 8338   8.912   6.205   8.481
 4275W        W 8339   6.951   4.075   0.679
 4276W        W 8340   1.346   7.853   0.306
 4277W        W 8341   2.856   9.838   1.873
 4278W        W 8342   2.117   6.638  11.800
 4279W        W 8343   1.931   9.435  11.481
 4280W        W 8344   5.963   4.338   9.085
 4281W        W 8345   8.005   9.702   9.918
 4282W        W 8346   8.126   8.615   2.677
 4283W        W 8347   9.364   1.692   9.844
 4284W        W 8348   3.616   3.568   2.152
 4285W        W 8349   3.567   9.519   9.908
 4286W        W 8350   1.382   3.201  11.851
 4287W        W 8351   2.203   3.720   9.815
 4288W        W 8352   3.206   8.842   3.402
 4289W        W 8353   8.370   5.254  10.955
 4290W        W 8354   3.266   0.670   2.970
 4291W        W 8355   3.809   4.640   8.306
 4292W        W 8356  10.231   6.038   2.882
 4293W        W 8357   6.552   4.871   1.259
 4294W        W 8358   3.723   4.559   1.947
 4295W        W 8359   2.595   2.029   8.854
 4296W        W 8360   4.409  10.101  10.437
 4297W        W 8361   7.048   2.308  10.065
 4298W        W 8362   9.566   2.983  10.825
 4299W        W 8363   1.684   7.539   9.050
 4300W        W 8364   6.682   6.200   4.008
 4301W        W 8365   1.801   7.053  11.760
 4302W        W 8366   0.036  10.225   9.592
 4303W        W 8367   0.268   3.110   1.196
 4304W        W 8368   9.493   5.647   0.718
 4305W        W 8369   8.951   5.048   8.926
 4306W        W 8370   8.516   6.604   1.647
 4307W        W 8371   0.867   4.780  10.723
 4308W        W 8372   2.311   4.765  11.252
 4309W        W 8373   3.869   8.288   9.477
 4310W        W 8374   2.088   1.011   1.296
 4311W        W 8375   6.339   9.812   9.279
 4312W        W 8376   5.075   4.228   8.609
 4313W        W 8377   6.136   2.260   1.673
 4314W        W 8378   4.679   5.875  10.494
 4315W        W 8379  10.309   2.991  11.910
 4316W        W 8380   8.427   4.254   0.244
 4317W        W 8381   7.847   9.003   2.493
 4318W        W 8382   2.841   8.535   2.778
 4319W        W 8383   3.362  10.367   2.930
 4320W        W 8384   0.011  10.463   0.774
 4321W        W 8385   2.750  10.315  11.683
 4322W        W 8386   8.189   6.631   3.137
 4323W        W 8387   0.258   6.552   9.280
 4324W        W 8388   4.142   9.235   1.426
 4325W        W 8389   3.456   0.385   8.569
 4326W        W 8390   6.550   3.678   1.987
 4327W        W 8391   8.951  10.203   0.062
 4328W        W 8392   0.370   8.956   2.148
 4329W        W 8393   1.333   1.290   0.032
 4330W        W 8394   8.864   9.989   3.020
 4331W        W 8395   0.561   0.983  11.030
 4332W        W 8396   5.945   6.404   3.585
 4333W        W 8397   6.174   0.960  10.934
 4334W        W 8398   7.878   0.834   0.366
 4335W        W 8399   9.585   7.366  11.900
 4336W        W 8400   2.356   1.118   8.959
 4337W        W 8401   2.016   9.820  11.825
 4338W        W 8402   3.357   7.472  11.230
 4339W        W 8403   0.039   2.668   1.048
 4340W        W 8404   2.757   2.197  11.376
 4341W        W 8405   5.232   9.992   0.008
 4342W        W 8406   6.519   8.390   1.742
 4343W        W 8407   4.731   5.508  11.819
 4344W        W 8408   1.676   7.924   9.885
 4345W        W 8409   1.310   2.757   2.606
 4346W        W 8410  10.164   7.272   0.953
 4347W        W 8411   6.560  10.261   9.420
 4348W        W 8412   4.089   8.499   9.879
 4349W        W 8413   5.977   0.005  11.757
 4350W        W 8414   0.115   5.331   0.883
 4351W        W 8415  10.274   6.539   9.069
 4352W        W 8416   8.121   4.111   9.376
 4353W        W 8417   3.361   2.392  10.417
 4354W        W 8418   7.676   5.267  11.421
 4355W        W 8419   6.618   6.906   0.384
 4356W        W 8420   6.125   1.865   0.054
 4357W        W 8421   9.300   0.307   1.291
 4358W        W 8422   5.916   5.736   9.869
 4359W        W 8423   9.033   5.716   2.463
 4360W        W 8424   9.522   0.008   0.927
 4361W        W 8425   0.469   6.075   9.344
 4362W        W 8426   7.501   6.143   2.942
 4363W        W 8427   6.096   6.120   9.516
 4364W        W 8428   6.709   3.063   9.368
 4365W        W 8429   0.805   9.001   2.712
 4366W        W 8430   4.913   2.668   1.963
 4367W        W 8431   3.070   0.224  11.299
 4368W        W 8432   4.231   1.062  10.475
 4369W        W 8433  10.390   6.943   8.742
 4370W        W 8434   3.740   3.332   3.051
 4371W        W 8435   7.582   3.980   4.348
 4372W        W 8436   9.350   6.162  11.377
 4373W        W 8437   2.683   7.416  11.656
 4374W        W 8438   0.523   7.742  11.927
 4375W        W 8439   7.139   4.996   1.918
 4376W        W 8440   0.325   5.045   2.650
 4377W        W 8441   4.174   6.262   2.893
 4378W        W 8442   3.602   3.761  10.372
 4379W        W 8443   5.567   1.660   0.922
 4380W        W 8444   3.751   0.769   8.877
 4381W        W 8445   7.533   1.343  11.122
 4382W        W 8446   2.722   9.760   9.014
 4383W        W 8447   4.725  10.036   0.805
 4384W        W 8448   6.647   8.476   2.227
 4385W        W 8449   5.047   4.015   9.883
 4386W        W 8450   6.924   0.788   9.579
 4387W        W 8451   2.125   6.893   1.895
 4388W        W 8452   8.812   2.912   0.011
 4389W        W 8453   5.090   6.678   2.332
 4390W        W 8454   0.773   2.231   1.169
 4391W        W 8455   9.018   8.870   0.870
 4392W        W 8456   9.828   8.186   2.795
 4393W        W 8457   3.321   7.606  10.221
 4394W        W 8458   4.900   6.201  11.558
 4395W        W 8459   7.049   5.394   1.023
 4396W        W 8460   7.910   6.291   0.911
 4397W        W 8461   8.339   5.926  11.360
 4398W        W 8462   6.321   2.717  10.929
 4399W        W 8463   8.341   6.340   2.601
 4400W        W 8464  10.012   6.170  10.980
 4401W        W 8465   2.089   8.499   2.138
 4402W        W 8466   8.952   2.648   1.015
 4403W        W 8467   9.493   5.458   1.687
 4404W        W 8468   4.084   8.900   0.985
 4405W        W 8469   2.590  10.001  10.436
 4406W        W 8470   5.075   9.562   1.280
 4407W        W 8471   7.049   7.481   9.164
 4408W        W 8472  10.129   6.668  10.970
 4409W        W 8473   4.124   3.759  11.789
 4410W        W 8474   9.936   2.981   8.802
 4411W        W 8475   2.894   9.903  11.400
 4412W        W 8476   5.524   0.746   0.729
 4413W        W 8477   0.204   7.046   3.377
 4414W        W 8478   5.600  10.332   9.435
 4415W        W 8479   7.918   3.300   9.708
 4416W        W 8480   7.386   1.432   8.656
 4417W        W 8481   5.444   5.528   1.882
 4418W        W 8482   9.537   4.482   2.599
 4419W        W 8483   9.939   4.079   1.975
 4420W        W 8484   9.299   8.846  10.812
 4421W        W 8485   5.987   3.522   9.366
 4422W        W 8486   2.832   8.328   0.261
 4423W        W 8487   1.483   4.702   0.912
 4424W        W 8488   9.776   8.886  11.016
 4425W        W 8489   9.832   5.194   0.976
 4426W        W 8490   1.450   6.162   9.448
 4427W        W 8491   8.074   6.105   9.483
 4428W        W 8492   5.192   0.310  10.300
 4429W        W 8493   4.985   3.757   0.510
 4430W        W 8494   2.707   1.189  10.336
 4431W        W 8495   8.542   1.701   2.543
 4432W        W 8496   4.571   3.845  11.528
 4433W        W 8497   5.233   9.998   9.616
 4434W        W 8498   1.381   6.680   3.041
 4435W        W 8499   0.416   8.216   2.745
 4436W        W 8500   6.115   4.281   2.627
 4437W        W 8501   8.032   0.215  10.153
 4438W        W 8502   3.529   9.918   3.184
 4439W        W 8503   5.450   8.565  10.345
 4440W        W 8504   9.411   7.276   0.374
 4441W        W 8505   2.370   7.092   2.504
 4442W        W 8506   2.809   1.786   9.504
 4443W        W 8507   2.352   7.766  10.455
 4444W        W 8508   6.121   4.178   0.259
 4445W        W 8509   4.298   8.054   2.868
 4446W        W 8510   2.702   4.599   9.319
 4447W        W 8511  10.366   8.429   1.778
 4448W        W 8512   1.815   0.312   8.895
 4449W        W 8513   2.219   4.148  11.302
 4450W        W 8514   4.799   6.060   0.021
 4451W        W 8515   6.041   0.840   2.537
 4452W        W 8516   4.656   9.012   9.195
 4453W        W 8517   8.520   1.085   1.428
 4454W        W 8518   8.375   2.648   2.523
 4455W        W 8519   4.679  10.343   1.933
 4456W        W 8520   9.054   0.704  10.771
 4457W        W 8521   0.756   8.532   3.428
 4458W        W 8522   6.114   1.675   1.468
 4459W        W 8523   5.248   8.184   2.767
 4460W        W 8524   0.315   1.681   1.777
 4461W        W 8525   7.398   7.161  10.502
 4462W        W 8526   8.297   5.199   3.051
 4463W        W 8527   7.049   5.383   3.810
 4464W        W 8528  10.292   4.201  11.760
 4465W        W 8529   0.327   7.550   1.919
 4466W        W 8530   9.928   5.518   1.418
 4467W        W 8531   5.651   3.511  11.765
 4468W        W 8532   4.073   2.391  11.375
 4469W        W 8533   6.025   4.091   0.767
 4470W        W 8534   8.002   3.571  10.665
 4471W        W 8535   3.133   0.309   2.644
 4472W        W 8536   5.742   9.147  11.766
 4473W        W 8537   2.835   0.745  10.590
 4474W        W 8538   6.682   1.402   0.448
 4475W        W 8539   7.401   5.572   9.961
 4476W        W 8540   4.179   3.455   1.435
 4477W        W 8541   3.590  10.044   0.003
 4478W        W 8542   4.261   9.612   2.748
 4479W        W 8543   5.626   6.583  10.271
 4480W        W 8544   9.387   1.504  10.782
 4481W        W 8545   8.257   3.746  10.267
 4482W        W 8546   0.693   5.505  11.385
 4483W        W 8547   0.433   1.892   0.893
 4484W        W 8548   4.175   7.053   0.704
 4485W        W 8549   4.227   0.735  11.835
 4486W        W 8550   5.265   8.577   9.344
 4487W        W 8551   1.794   2.114   9.839
 4488W        W 8552   3.341   6.127   9.568
 4489W        W 8553   7.044  10.085   0.316
 4490W        W 8554   1.678   7.758   3.679
 4491W        W 8555   8.428   3.293   9.813
 4492W        W 8556   6.569   2.137  11.482
 4493W        W 8557   1.783   6.980  10.269
 4494W        W 8558   0.356   6.028   2.007
 4495W        W 8559   5.939   7.096   9.603
 4496W        W 8560   2.691   5.146   3.346
 4497W        W 8561   1.878   0.359   1.757
 4498W        W 8562   1.698   7.972  11.938
 4499W        W 8563   6.280   8.254  10.306
 4500W        W 8564   7.063   2.215   2.512
 4501W        W 8565   6.172   8.974   9.061
 4502W        W 8566   8.888   6.187  10.404
 4503W        W 8567   6.323   2.771   3.221
 4504W        W 8568   7.085   2.722   1.209
 4505W        W 8569   9.930   6.482  11.443
 4506W        W 8570   9.512   3.792   1.438
 4507W        W 8571   0.877   6.059   2.311
 4508W        W 8572   7.783   8.147   1.037
 4509W        W 8573   4.263   3.278   3.531
 4510W        W 8574   0.544   8.960   0.211
 4511W        W 8575   5.680   0.278   2.352
 4512W        W 8576   2.172   0.357  10.239
 4513W        W 8577   9.859   6.569   9.382
 4514W        W 8578   3.789   2.978   0.480
 4515W        W 8579   8.859   4.604   9.661
 4516W        W 8580   0.969   9.434  11.533
 4517W        W 8581   1.333   1.432   2.757
 4518W        W 8582   1.803   5.740  11.986
 4519W        W 8583   7.892   7.144  11.207
 4520W        W 8584   9.177   0.086   3.141
 4521W        W 8585   1.511   9.504   0.865
 4522W        W 8586   8.573   0.247   2.010
 4523W        W 8587  10.415   4.194   1.739
 4524W        W 8588   7.186   5.084   1.408
 4525W        W 8589   8.443  10.445   2.395
 4526W        W 8590   3.186   3.321  11.552
 4527W        W 8591   4.640   6.858   0.444
 4528W        W 8592   3.396   5.732  10.762
 4529W        W 8593   9.714   5.658   8.923
 4530W        W 8594   7.874   9.068  10.964
 4531W        W 8595   2.932   0.502  11.782
 4532W        W 8596   9.086   3.745   9.927
 4533W        W 8597   5.727   5.273   2.228
 4534W        W 8598   4.247  10.309   2.245
 4535W        W 8599   0.450   8.074   1.896
 4536W        W 8600   0.904   6.630  11.081
 4537W        W 8601   0.832   3.899   8.168
 4538W        W 8602   5.740   6.892   2.797
 4539W        W 8603   8.373   2.127  10.775
 4540W        W 8604   6.730   0.790  10.844
 4541W        W 8605   5.815   1.526  10.319
 4542W        W 8606   8.259   7.266  11.521
 4543W        W 8607   5.066   9.102   2.313
 4544W        W 8608   6.996   5.281   9.853
 4545W        W 8609   9.836   5.952   0.464
 4546W        W 8610   6.959   3.286   9.764
 4547W        W 8611   4.739   3.807   2.496
 4548W        W 8612   8.658   7.164   9.838
 4549W        W 8613   5.529   7.603   3.241
 4550W        W 8614   3.553   7.147  10.893
 4551W        W 8615   3.013   0.687  11.060
 4552W        W 8616   8.061   8.991  11.937
 4553W        W 8617   9.825   5.112  11.919
 4554W        W 8618   8.932   1.888   9.635
 4555W        W 8619   6.140   3.783  11.787
 4556W        W 8620   7.367   0.326  10.344
 4557W        W 8621   1.136   2.215  10.900
 4558W        W 8622   3.296   3.306   1.327
 4559W        W 8623   8.925   7.818   2.854
 4560W        W 8624   4.744   9.415   0.599
 4561W        W 8625   7.068   1.760   1.412
 4562W        W 8626   2.220   8.648  10.115
 4563W        W 8627   4.329   9.726  10.871
 4564W        W 8628   3.118   5.553   1.857
 4565W        W 8629   5.708   3.093   9.308
 4566W        W 8630   7.182   8.087  10.315
 4567W        W 8631   6.718   5.335   1.431
 4568W        W 8632   9.828   0.772  11.695
 4569W        W 8633   3.938   9.791  11.703
 4570W        W 8634   3.687   6.959   1.502
 4571W        W 8635   1.483   0.199   1.491
 4572W        W 8636   6.064   5.807  11.325
 4573W        W 8637   3.838   4.046   2.199
 4574W        W 8638   4.073   4.294   2.610
 4575W        W 8639   3.235   4.769   3.207
 4576W        W 8640   9.154   6.903   2.589
 4577W        W 8641   2.652   8.410   3.487
 4578W        W 8642   3.841   0.857   1.703
 4579W        W 8643   4.838   6.702   9.850
 4580W        W 8644   2.574   0.229  11.455
 4581W        W 8645   3.341   3.131  10.914
 4582W        W 8646   9.572   9.370   3.354
 4583W        W 8647   6.972   2.918  11.358
 4584W        W 8648   1.268   1.570   1.726
 4585W        W 8649   5.081   6.940   1.242
 4586W        W 8650   7.050   7.207   2.292
 4587W        W 8651   8.022   6.977   2.367
 4588W        W 8652   5.503   3.791   2.688
 4589W        W 8653   8.739   9.795   3.481
 4590W        W 8654   3.652   4.705   1.474
 4591W        W 8655   5.978   8.336  11.955
 4592W        W 8656   1.254   8.080   2.528
 4593W        W 8657   7.879   0.387   2.814
 4594W        W 8658   1.880   8.806  10.982
 4595W        W 8659   1.880   9.464  10.053
 4596W        W 8660   4.643   2.851   2.905
 4597W        W 8661   9.921   1.385   1.530
 4598W        W 8662   6.184   0.383   2.395
 4599W        W 8663   6.590   7.040   1.315
 4600W        W 8664   3.827   4.098   0.151
 4601W        W 8665   3.677   0.725   3.314
 4602W        W 8666   7.834   5.288   9.863
 4603W        W 8667   7.097   8.508   9.992
 4604W        W 8668   4.718   9.026  10.224
 4605W        W 8669   0.827   0.916   1.884
 4606W        W 8670   4.253   7.491   0.470
 4607W        W 8671   2.763   1.048   0.675
 4608W        W 8672   2.764   0.448   2.984
 4609W        W 8673   7.649   3.296   0.724
 4610W        W 8674   4.195   5.331  10.052
 4611W        W 8675   0.535   2.790   2.816
 4612W        W 8676   4.240   4.380   9.030
 4613W        W 8677   7.381   3.864   0.089
 4614W        W 8678   1.923   6.470  10.336
 4615W        W 8679   3.703   4.584  11.963
 4616W        W 8680   8.467   8.998   2.842
 4617W        W 8681   6.421   8.093  10.817
 4618W        W 8682  10.437   6.477  11.332
 4619W        W 8683   6.046   5.566   8.995
 4620W        W 8684   0.747   5.910   2.801
 4621W        W 8685   0.054   6.598   1.231
 4622W        W 8686   8.657  10.467  10.865
 4623W        W 8687   0.032   2.671  10.034
 4624W        W 8688   9.831   5.168  11.053
 4625W        W 8689   5.057   2.817  11.418
 4626W        W 8690   0.600   9.001  11.329
 4627W        W 8691   2.716   2.305   8.446
 4628W        W 8692   8.760   1.076   9.349
 4629W        W 8693   3.504   4.175  11.761
 4630W        W 8694   8.814   8.868  10.619
 4631W        W 8695   8.488   5.018   2.281
 4632W        W 8696   1.139   2.935   0.920
 4633W        W 8697   9.371   6.512   9.217
 4634W        W 8698   7.111   8.350   0.806
 4635W        W 8699   9.863   2.333   1.673
 4636W        W 8700   5.632   4.739   2.857
 4637W        W 8701   2.936  10.423  10.162
 4638W        W 8702   4.524   0.551   2.488
 4639W        W 8703   6.758   6.205   9.923
 4640W        W 8704   5.922   8.582   3.448
 4641W        W 8705   3.063   8.077   2.580
 4642W        W 8706   5.095   8.982   8.926
 4643W        W 8707   6.547   3.607   9.994
 4644W        W 8708   2.553   3.301   9.852
 4645W        W 8709   0.965   6.168  10.855
 4646W        W 8710   8.872   7.416   3.182
 4647W        W 8711   6.900   6.511   3.666
 4648W        W 8712  10.351   4.718   9.827
 4649W        W 8713   5.476   0.445   1.846
 4650W        W 8714   5.493   3.618   1.919
 4651W        W 8715   8.515   7.716   1.413
 4652W        W 8716   6.503   4.550   4.132
 4653W        W 8717   1.801   9.803   1.183
 4654W        W 8718   8.632   4.140   9.477
 4655W        W 8719   0.375   2.881  11.956
 4656W        W 8720   5.018   8.592   2.942
 4657W        W 8721   8.335   5.172   3.536
 4658W        W 8722   8.079  10.363   8.853
 4659W        W 8723  10.431   2.494  11.950
 4660W        W 8724   4.285   8.590   2.811
 4661W        W 8725   9.556  10.074  10.902
 4662W        W 8726   3.894   4.642   9.365
 4663W        W 8727   1.168   7.420   9.044
 4664W        W 8728   4.779   2.093  11.766
 4665W        W 8729   8.770   0.139  11.361
 4666W        W 8730   3.903   5.598   8.462
 4667W        W 8731   3.736   2.288   1.502
 4668W        W 8732   2.212   2.362   9.013
 4669W        W 8733   7.389   4.591   0.813
 4670W        W 8734   5.167   0.840   9.438
 4671W        W 8735   7.035   8.479   1.775
 4672W        W 8736   9.352   3.178   3.272
 4673W        W 8737   0.827   1.008   8.907
 4674W        W 8738   1.171   7.988  11.064
 4675W        W 8739  10.494   0.526   2.176
 4676W        W 8740   5.663   7.040  10.962
 4677W        W 8741   6.582  10.126   3.461
 4678W        W 8742   8.517   1.480  10.851
 4679W        W 8743   7.536   4.804  10.730
 4680W        W 8744   4.675   4.686  10.461
 4681W        W 8745   3.765   0.902  11.680
 4682W        W 8746   9.604   3.833  10.332
 4683W        W 8747   8.675   3.222   9.346
 4684W        W 8748   3.321   5.521  11.981
 4685W        W 8749   5.686   4.799   9.877
 4686W        W 8750   0.255   0.836  10.178
 4687W        W 8751   3.257   5.871   8.523
 4688W        W 8752   1.835   7.911  10.434
 4689W        W 8753   6.599  10.228   1.874
 4690W        W 8754   8.088   9.858   1.914
 4691W        W 8755   4.614   7.864  11.181
 4692W        W 8756   2.608   0.888   1.157
 4693W        W 8757   6.210   7.407   0.017
 4694W        W 8758   9.322   2.472   9.532
 4695W        W 8759   1.822   6.751   2.772
 4696W        W 8760   1.669   6.850   9.792
 4697W        W 8761   0.215   2.031   9.517
 4698W        W 8762   8.535   6.058  11.816
 4699W        W 8763   3.195   2.843   8.873
 4700W        W 8764   9.910   0.881   1.738
 4701W        W 8765   5.470   8.992   0.800
 4702W        W 8766   6.118   3.263  11.661
 4703W        W 8767   9.993   1.723  11.917
 4704W        W 8768   3.020   4.098  11.830
 4705W        W 8769   1.754   1.303  10.247
 4706W        W 8770   3.574   0.068  11.251
 4707W        W 8771   0.374   6.929   8.957
 4708W        W 8772   7.042   5.780   1.344
 4709W        W 8773   5.504   2.844   9.713
 4710W        W 8774   8.478   2.159   1.691
 4711W        W 8775   8.464   9.754   0.279
 4712W        W 8776   6.446   9.346   0.348
 4713W        W 8777   6.969   4.678   4.348
 4714W        W 8778   8.548   3.806   9.857
 4715W        W 8779   3.226   2.333   1.440
 4716W        W 8780   1.371   5.204   1.380
 4717W        W 8781   0.204   0.717   3.163
 4718W        W 8782   7.897   5.003  11.040
 4719W        W 8783   0.719   4.985   9.747
 4720W        W 8784  10.284   5.659   9.635
 4721W        W 8785  10.123   3.602   8.500
 4722W        W 8786   9.116   4.732  10.648
 4723W        W 8787   7.623   0.413   0.361
 4724W        W 8788   5.292   4.039   2.279
 4725W        W 8789   9.879   9.926   3.116
 4726W        W 8790   1.952   8.305  11.020
 4727W        W 8791   9.252   4.056  11.803
 4728W        W 8792   1.402   5.546  10.051
 4729W        W 8793   2.190   8.461   9.648
 4730W        W 8794   8.441   6.431  11.286
 4731W        W 8795   8.344   8.358   3.055
 4732W        W 8796   7.673   9.973   1.305
 4733W        W 8797   7.076   3.587  10.171
 4734W        W 8798   9.392   6.004  10.897
 4735W        W 8799   7.799  10.230   1.728
 4736W        W 8800   4.738   5.820   9.531
 4737W        W 8801   6.189   6.247   2.296
 4738W        W 8802   7.513   2.178  10.256
 4739W        W 8803   6.606   0.213   0.690
 4740W        W 8804   6.145   0.930   8.417
 4741W        W 8805   7.378   0.875   0.398
 4742W        W 8806   9.580   3.848   9.824
 4743W        W 8807  10.387   9.207   2.065
 4744W        W 8808   6.159   8.053   1.902
 4745W        W 8809  10.211   1.562   0.335
 4746W        W 8810   7.105   5.087   0.189
 4747W        W 8811   8.581   3.065   2.301
 4748W        W 8812   2.814   5.183   9.038
 4749W        W 8813   8.245   6.204   9.938
 4750W        W 8814   4.214   6.722  10.558
 4751W        W 8815   3.632   3.663   8.929
 4752W        W 8816   0.861   3.524   8.707
 4753W        W 8817   4.319   3.306  10.453
 4754W        W 8818   3.684   6.717  10.050
 4755W        W 8819   0.766   0.741   3.158
 4756W        W 8820   2.776   8.349  10.867
 4757W        W 8821   4.672   4.937   9.334
 4758W        W 8822   5.520   5.862  10.766
 4759W        W 8823   5.321   5.057   1.954
 4760W        W 8824   7.491   0.753   9.606
 4761W        W 8825   5.134   6.208  11.042
 4762W        W 8826   6.531   6.099   3.028
 4763W        W 8827   5.502   1.352   9.461
 4764W        W 8828  10.430   3.511   0.459
 4765W        W 8829   2.471   5.227  11.500
 4766W        W 8830  10.185   3.985   3.677
 4767W        W 8831   9.377   6.607   2.238
 4768W        W 8832   2.672   1.221   9.458
 4769W        W 8833  10.401   9.115  10.890
 4770W        W 8834   0.874   3.113   0.063
 4771W        W 8835   4.662   6.419   3.696
 4772W        W 8836   2.451   5.159  12.000
 4773W        W 8837   7.743   0.656  10.076
 4774W        W 8838   0.825   0.249   3.660
 4775W        W 8839   3.101  10.445   1.448
 4776W        W 8840   8.405   7.303   2.457
 4777W        W 8841   8.451   7.562   2.874
 4778W        W 8842   0.846   7.655   0.349
 4779W        W 8843   0.926   9.509   0.920
 4780W        W 8844   0.912   9.866  11.270
 4781W        W 8845   8.744   9.783  11.795
 4782W        W 8846   1.062   6.324   2.779
 4783W        W 8847  10.423   9.965   0.912
 4784W        W 8848   4.576   2.984  11.426
 4785W        W 8849   1.843   0.863   2.893
 4786W        W 8850   1.698   2.547   2.335
 4787W        W 8851   5.976   0.530   0.121
 4788W        W 8852   8.078   4.880   1.157
 4789W        W 8853   2.692   2.388   2.401
 4790W        W 8854   0.285   3.636  10.520
 4791W        W 8855   3.635   6.208  10.049
 4792W        W 8856   6.571   5.241   0.896
 4793W        W 8857   6.582   5.937   9.533
 4794W        W 8858   6.690   8.687   0.853
 4795W        W 8859   2.347   0.755   2.843
 4796W        W 8860   6.770   9.113   0.020
 4797W        W 8861   1.775   3.072   8.890
 4798W        W 8862   4.967   7.325   9.942
 4799W        W 8863   1.907  10.028   0.280
 4800W        W 8864   8.995   1.598   8.483
 4801W        W 8865   6.554   0.682   2.207
 4802W        W 8866   9.577   6.606   3.152
 4803W        W 8867   2.260   3.385   8.866
 4804W        W 8868   1.771   7.454   0.164
 4805W        W 8869   1.314   6.115  10.454
 4806W        W 8870   3.842   4.633   8.823
 4807W        W 8871   3.730   8.584   9.057
 4808W        W 8872   4.087   2.389   8.937
 4809W        W 8873   1.197   7.990   9.642
 4810W        W 8874   4.258   4.830   8.100
 4811W        W 8875   3.940   2.739  10.870
 4812W        W 8876   4.030  10.497   1.833
 4813W        W 8877   6.569   9.965   1.271
 4814W        W 8878   7.025   6.204   2.199
 4815W        W 8879   4.293  10.035   9.469
 4816W        W 8880   3.661   0.813   0.685
 4817W        W 8881  10.409   3.571   0.980
 4818W        W 8882   1.234   1.069  11.558
 4819W        W 8883   9.583   7.877   0.803
 4820W        W 8884   5.546   3.462   8.970
 4821W        W 8885   7.010   2.421  11.557
 4822W        W 8886   0.991   4.204  11.329
 4823W        W 8887   9.455   0.027  10.711
 4824W        W 8888   1.243  10.223   9.908
 4825W        W 8889   4.335   0.491  11.341
 4826W        W 8890   2.715   9.976   9.933
 4827W        W 8891   4.126   2.921   3.164
 4828W        W 8892  10.467   9.422  10.511
 4829W        W 8893   3.271   8.428   1.587
 4830W        W 8894   3.368   3.171   2.637
 4831W        W 8895   3.252   5.121  10.253
 4832W        W 8896   5.241   0.008   2.288
 4833W        W 8897   9.478   1.897   1.483
 4834W        W 8898   4.151   8.911   3.282
 4835W        W 8899   2.346   5.285   8.795
 4836W        W 8900   7.938   8.447   0.120
 4837W        W 8901   0.471   4.319   9.315
 4838W        W 8902   4.608   6.944   3.946
 4839W        W 8903   9.870   4.671   0.766
 4840W        W 8904   8.144   9.031   1.826
 4841W        W 8905   0.688   9.878  10.815
 4842W        W 8906   5.180   0.425  11.665
 4843W        W 8907   4.925   7.079   9.490
 4844W        W 8908   9.748   4.164  11.803
 4845W        W 8909   1.356   5.739   8.570
 4846W        W 8910   5.723   9.878  10.354
 4847W        W 8911   2.355   4.614   2.247
 4848W        W 8912   4.133   6.908  10.057
 4849W        W 8913   6.929   4.422   1.040
 4850W        W 8914   5.743  10.052   0.010
 4851W        W 8915   9.424   2.924   8.682
 4852W        W 8916   8.112   4.345  11.308
 4853W        W 8917   6.630   9.934  10.381
 4854W        W 8918   5.487   3.617   3.974
 4855W        W 8919   2.945   6.420  11.862
 4856W        W 8920   6.855   7.168   3.540
 4857W        W 8921   2.354  10.446   2.307
 4858W        W 8922   9.742   2.162  10.246
 4859W        W 8923   6.978   4.612   0.535
 4860W        W 8924   3.682   9.496   2.174
 4861W        W 8925   0.275   4.190   3.039
 4862W        W 8926   3.061   0.426   8.938
 4863W        W 8927   0.702   6.674   1.890
 4864W        W 8928   6.648   2.586  11.909
 4865W        W 8929   6.357   9.160   3.712
 4866W        W 8930   4.686   1.833  10.064
 4867W        W 8931   0.672   3.690   2.495
 4868W        W 8932   4.483   0.335   8.932
 4869W        W 8933   0.877   6.353   0.887
 4870W        W 8934   0.341   2.311  11.001
 4871W        W 8935  10.378   0.867   0.969
 4872W        W 8936   3.606   3.676  11.938
 4873W        W 8937   7.576   8.771  11.949
 4874W        W 8938   8.510   1.365  10.074
 4875W        W 8939   7.130   7.636  10.623
 4876W        W 8940   0.341  10.028   1.218
 4877W        W 8941   5.126   6.909   0.278
 4878W        W 8942   4.918   0.036   1.413
 4879W        W 8943   4.352   7.014   1.839
 4880W        W 8944   6.462   0.329   9.861
 4881W        W 8945   0.769  10.380   0.362
 4882W        W 8946   8.377   3.159  10.336
 4883W        W 8947   2.985   5.312   0.889
 4884W        W 8948   5.968   3.221   2.687
 4885W        W 8949   2.421   6.464   9.432
 4886W        W 8950   4.932   3.229   3.498
 4887W        W 8951   6.939   0.794  10.395
 4888W        W 8952   6.351   4.595   2.091
 4889W        W 8953   1.890   8.443  10.516
 4890W        W 8954   2.629   0.729  11.402
 4891W        W 8955   7.898   1.661   8.421
 4892W        W 8956   9.454   6.716   1.337
 4893W        W 8957   0.988   0.241   1.378
 4894W        W 8958   7.182   7.689   2.230
 4895W        W 8959   5.134   7.590  10.381
 4896W        W 8960   9.427   9.531   1.537
 4897W        W 8961  10.496   8.502   1.298
 4898W        W 8962   7.399   6.676   2.890
 4899W        W 8963   8.670   2.228   8.910
 4900W        W 8964   8.238   9.957  11.881
 4901W        W 8965   2.336   2.629   8.571
 4902W        W 8966   6.633   4.912   1.777
 4903W        W 8967   0.169   8.490   0.812
 4904W        W 8968   9.287   2.756   2.718
 4905W        W 8969   4.410   6.186  11.436
 4906W        W 8970   3.124  10.315   0.487
 4907W        W 8971   8.953   1.182  10.781
 4908W        W 8972   2.777   1.258   8.638
 4909W        W 8973   8.846   2.613  10.445
 4910W        W 8974   7.806   4.987   9.163
 4911W        W 8975   0.831   4.475   9.647
 4912W        W 8976   6.418   2.857  10.440
 4913W        W 8977   0.229   8.982   0.657
 4914W        W 8978   6.456   1.146   2.414
 4915W        W 8979   5.936   3.646   4.236
 4916W        W 8980   6.469   7.392   2.633
 4917W        W 8981   7.576   3.772   2.950
 4918W        W 8982   9.654   3.227   1.779
 4919W        W 8983   9.383   1.799  11.244
 4920W        W 8984   9.465   7.768   0.301
 4921W        W 8985   1.465   8.783   0.128
 4922W        W 8986   7.042   5.477   9.165
 4923W        W 8987   0.038   4.158  10.511
 4924W        W 8988   7.688   8.082  10.392
 4925W        W 8989   0.761   7.078   3.334
 4926W        W 8990   0.624   9.837   2.148
 4927W        W 8991   2.203   1.287  11.011
 4928W        W 8992   3.289   6.011  11.866
 4929W        W 8993   0.016   3.318  11.106
 4930W        W 8994   8.557   3.308   1.197
 4931W        W 8995   4.485   6.455   1.727
 4932W        W 8996   5.989   2.614  10.442
 4933W        W 8997   1.711   7.995   2.774
 4934W        W 8998   6.952   9.495  10.012
 4935W        W 8999   7.201   6.568  11.215
 4936W        W 9000   2.480   7.547   2.748
 4937W        W 9001   7.276   1.689   0.960
 4938W        W 9002   6.268   4.489   3.393
 4939W        W 9003   6.013   0.428  10.102
 4940W        W 9004   0.136   4.718   1.985
 4941W        W 9005   0.557   4.085   3.466
 4942W        W 9006   9.947   3.519   0.264
 4943W        W 9007   7.930   7.199   1.902
 4944W        W 9008   4.722   4.107   3.719
 4945W        W 9009  10.018   9.046   2.381
 4946W        W 9010   8.562   4.993   8.439
 4947W        W 9011   7.477   4.148  10.441
 4948W        W 9012   2.228   1.147  11.870
 4949W        W 9013   0.780   3.688   2.005
 4950W        W 9014   9.076   1.669   1.217
 4951W        W 9015   4.425   4.206  11.893
 4952W        W 9016   5.581   1.398   1.545
 4953W        W 9017   7.473   0.746   2.634
 4954W        W 9018   6.647   4.717   3.666
 4955W        W 9019   0.983   8.984   1.665
 4956W        W 9020   1.973   6.224   9.453
 4957W        W 9021   3.677   2.663   3.305
 4958W        W 9022   2.331   4.257  10.038
 4959W        W 9023   7.608   7.966   3.266
 4960W        W 9024   8.862   8.901   3.171
 4961W        W 9025   0.177   4.760   0.300
 4962W        W 9026   2.771   4.807  11.656
 4963W        W 9027   6.248   8.355   9.780
 4964W        W 9028   1.038   3.551   2.854
 4965W        W 9029   6.876   8.950   2.206
 4966W        W 9030   2.671   8.503   1.688
 4967W        W 9031   6.964   3.820  11.320
 4968W        W 9032  10.356   8.871   3.373
 4969W        W 9033   1.962   2.549  11.824
 4970W        W 9034   5.620   0.874   9.197
 4971W        W 9035   7.544   8.731   2.828
 4972W        W 9036   0.868   4.334   3.154
 4973W        W 9037   5.436   3.298   9.919
 4974W        W 9038   3.091   4.076   2.832
 4975W        W 9039   7.840   4.522  11.697
 4976W        W 9040   1.391   2.992   2.143
 4977W        W 9041   7.596   9.771   1.962
 4978W        W 9042   0.798   3.154   0.567
 4979W        W 9043   3.613   6.437   2.717
 4980W        W 9044   2.766   9.075   0.689
 4981W        W 9045   9.140   6.543   3.434
 4982W        W 9046   5.472   0.614  10.696
 4983W        W 9047   0.854   9.851   2.599
 4984W        W 9048   7.597   9.965   8.555
 4985W        W 9049   4.209   7.773  11.623
 4986W        W 9050   1.977   1.039   2.416
 4987W        W 9051   2.168  10.089   1.432
 4988W        W 9052   3.627   1.954   2.611
 4989W        W 9053   7.442   4.270  10.926
 4990W        W 9054   7.169   1.805   8.954
 4991W        W 9055   8.571   6.833   1.186
 4992W        W 9056   7.939   2.714   2.220
 4993W        W 9057   9.443   5.577   9.770
 4994W        W 9058   4.620   7.869   1.911
 4995W        W 9059   4.818   0.328  11.305
 4996W        W 9060   6.397   0.851  10.449
 4997W        W 9061   1.632   2.831  10.444
 4998W        W 9062   0.720   1.663   3.341
 4999W        W 9063   4.527   7.108   9.805
 5000W        W 9064   1.823   2.598   8.601
 5001W        W 9065   9.801   5.916  10.585
 5002W        W 9066   4.858   7.592   9.492
 5003W        W 9067   3.387   6.547   9.275
 5004W        W 9068   0.481   2.560   0.326
 5005W        W 9069   1.836   4.168   8.834
 5006W        W 9070   2.204   1.674   8.804
 5007W        W 9071   2.718   3.796   9.785
 5008W        W 9072   4.818   1.174  11.390
 5009W        W 9073   1.649   5.184   0.707
 5010W        W 9074   9.932   6.104   9.120
 5011W        W 9075   9.011   4.232   2.035
 5012W        W 9076   9.207  10.088   9.398
 5013W        W 9077   6.500   9.475  10.255
 5014W        W 9078   8.289   4.549   8.540
 5015W        W 9079   8.831   2.083  11.619
 5016W        W 9080   8.123   9.248  10.116
 5017W        W 9081   9.964   2.139   3.250
 5018W        W 9082  10.216   5.649   9.097
 5019W        W 9083   7.097   6.773  10.334
 5020W        W 9084   9.978  10.277  10.508
 5021W        W 9085   2.242   0.760   8.546
 5022W        W 9086   4.748   5.999   0.528
 5023W        W 9087   8.101   6.729  10.538
 5024W        W 9088   1.196   1.923   3.193
 5025W        W 9089   8.515   5.502   1.690
 5026W        W 9090   5.536   3.339   2.934
 5027W        W 9091  10.270   7.482   2.834
 5028W        W 9092   8.856   4.210   2.921
 5029W        W 9093   0.188   5.638   9.285
 5030W        W 9094   7.602   4.627  10.264
 5031W        W 9095   6.244   0.224   1.516
 5032W        W 9096   4.299  10.044   1.757
 5033W        W 9097   7.987   9.552   0.109
 5034W        W 9098   6.473   4.556   9.925
 5035W        W 9099   9.294   8.366   9.697
 5036W        W 9100   4.167   2.225  10.889
 5037W        W 9101   0.335   4.951   1.190
 5038W        W 9102   3.881   7.192   1.921
 5039W        W 9103   1.628  10.373   1.839
 5040W        W 9104   4.701   7.462   2.797
 5041W        W 9105   8.875   9.827   8.832
 5042W        W 9106   2.097   7.182   2.929
 5043W        W 9107   1.815   1.232   3.284
 5044W        W 9108   8.069   2.133   0.412
 5045W        W 9109   7.024   6.248  10.336
 5046W        W 9110   0.713   4.336  11.756
 5047W        W 9111   5.931   7.841   0.005
 5048W        W 9112  10.339   0.923  10.505
 5049W        W 9113   9.961   6.021   1.410
 5050W        W 9114   7.511   3.627  10.476
 5051W        W 9115   1.433   0.058   0.985
 5052W        W 9116   5.941   6.593   0.295
 5053W        W 9117   2.678   7.447   0.173
 5054W        W 9118   0.234   4.137  10.048
 5055W        W 9119   5.943  10.048  11.541
 5056W        W 9120   9.329   7.894   9.447
 5057W        W 9121   4.455   0.347   8.387
 5058W        W 9122   7.930   7.665  11.337
 5059W        W 9123   6.147   5.930  11.816
 5060W        W 9124   1.845   8.968  11.707
 5061W        W 9125   6.427   6.903  11.526
 5062W        W 9126   4.735   3.381  11.698
 5063W        W 9127   8.479   2.199   2.275
 5064W        W 9128   6.905   5.149  11.237
 5065W        W 9129   5.580   7.886  11.323
 5066W        W 9130   9.404   3.713   1.922
 5067W        W 9131   2.938   0.646   2.084
 5068W        W 9132   5.285   0.456  11.156
 5069W        W 9133   2.875   8.572   0.736
 5070W        W 9134   4.060   1.539  10.583
 5071W        W 9135   1.829   4.923  11.600
 5072W        W 9136   2.816   0.116   2.233
 5073W        W 9137   4.155   0.783   0.895
 5074W        W 9138   6.145   6.749   2.350
 5075W        W 9139   3.672   6.102   0.233
 5076W        W 9140   8.817   5.977  10.867
 5077W        W 9141   7.899   9.911   3.336
 5078W        W 9142   4.124   7.488   3.534
 5079W        W 9143   2.584   7.128   3.061
 5080W        W 9144   2.756   1.246   1.486
 5081W        W 9145   1.967   7.519   0.826
 5082W        W 9146   1.247   5.770   2.818
 5083W        W 9147   8.489   7.436  11.116
 5084W        W 9148   3.967   6.771   2.872
 5085W        W 9149   6.988   7.618   0.071
 5086W        W 9150   7.933   0.079   2.084
 5087W        W 9151   0.292   2.327   2.425
 5088W        W 9152   7.978   0.891   2.816
 5089W        W 9153   5.778   3.402   8.488
 5090W        W 9154   5.258   4.636   3.200
 5091W        W 9155   6.511   1.980   2.788
 5092W        W 9156   6.624   0.668  11.773
 5093W        W 9157   1.908   9.912  11.330
 5094W        W 9158   4.714   0.901   1.672
 5095W        W 9159   9.869   8.354   1.902
 5096W        W 9160   7.553   5.717   2.599
 5097W        W 9161   0.308  10.404   3.474
 5098W        W 9162   8.147   1.816   2.205
 5099W        W 9163   9.004   1.165   1.244
 5100W        W 9164   3.852   6.434   4.104
 5101W        W 9165   6.886   3.209   8.757
 5102W        W 9166   8.723   0.374   2.527
 5103W        W 9167   1.148   6.874   1.799
 5104W        W 9168   7.940   0.943  10.457
 5105W        W 9169   9.054   9.479  11.463
 5106W        W 9170   5.066   1.277   0.908
 5107W        W 9171   9.925   0.451  11.283
 5108W        W 9172   5.941   1.065  10.493
 5109W        W 9173   9.977   6.533   1.344
 5110W        W 9174   5.575  10.212   1.407
 5111W        W 9175   7.462   2.894   0.450
 5112W        W 9176   8.601   1.708   8.821
 5113W        W 9177   6.092   9.917   2.208
 5114W        W 9178   2.295   4.660   0.247
 5115W        W 9179   1.695   8.760   0.599
 5116W        W 9180   0.323   1.184   9.047
 5117W        W 9181  10.306   5.270  11.872
 5118W        W 9182   4.049   6.658  11.932
 5119W        W 9183   8.273   0.948   9.473
 5120W        W 9184   4.313   1.755  10.958
 5121W        W 9185   5.730   5.278   1.129
 5122W        W 9186   1.675   3.163  10.065
 5123W        W 9187  10.104   7.880   3.113
 5124W        W 9188   5.601   8.891  11.178
 5125W        W 9189   4.720   0.269  10.116
 5126W        W 9190   3.644   2.450   9.582
 5127W        W 9191   3.637   2.232  11.579
 5128W        W 9192   0.499   6.354  10.782
 5129W        W 9193   9.001   0.362   1.700
 5130W        W 9194   7.139   6.678   0.225
 5131W        W 9195   7.551   9.480   1.292
 5132W        W 9196   1.630   2.521   9.592
 5133W        W 9197   1.399   6.092   8.950
 5134W        W 9198   2.476   4.148   0.376
 5135W        W 9199   0.881   8.985   2.197
 5136W        W 9200   2.294   0.556   1.433
 5137W        W 9201   6.443   9.342  11.262
 5138W        W 9202   1.577   8.584   3.634
 5139W        W 9203  10.192   7.003   1.903
 5140W        W 9204  10.365   9.318   9.509
 5141W        W 9205   0.737   9.418  11.050
 5142W        W 9206   2.494   5.125   0.912
 5143W        W 9207   0.819   2.382  11.250
 5144W        W 9208   4.164   1.229   1.179
 5145W        W 9209   6.014   5.721   0.403
 5146W        W 9210   2.249   4.246  11.858
 5147W        W 9211   9.079   8.786   0.059
 5148W        W 9212   9.456  10.003   0.241
 5149W        W 9213   4.773   6.546  11.214
 5150W        W 9214   9.391   2.248   1.894
 5151W        W 9215   1.734   7.145   9.375
 5152W        W 9216   3.893   5.480  10.802
 5153W        W 9217   4.626   3.763   0.043
 5154W        W 9218   4.350   4.276  10.428
 5155W        W 9219   2.815   0.916   9.049
 5156W        W 9220   5.312   6.243  11.896
 5157W        W 9221   4.201   0.311   1.221
 5158W        W 9222   3.176   2.372   0.577
 5159W        W 9223   8.926   1.647  10.594
 5160W        W 9224  10.372   3.749  10.213
 5161W        W 9225   6.300   9.016  10.381
 5162W        W 9226   9.567   3.246   9.077
 5163W        W 9227   1.732   9.025  10.288
 5164W        W 9228   6.111   3.639  11.291
 5165W        W 9229   0.881   1.183   3.371
 5166W        W 9230   3.539  10.480   1.718
 5167W        W 9231   4.991   9.454   8.730
 5168W        W 9232   0.353   9.103  11.766
 5169W        W 9233   2.238   8.708   8.803
 5170W        W 9234   0.372   1.309   1.243
 5171W        W 9235   6.445   3.840   1.506
 5172W        W 9236   2.827   5.957   2.598
 5173W        W 9237   0.202   5.485   2.874
 5174W        W 9238   0.885   4.428   2.652
 5175W        W 9239   3.528   2.158   9.998
 5176W        W 9240   4.693   6.089   9.062
 5177W        W 9241   7.019   6.374   0.875
 5178W        W 9242   8.093   8.666   2.176
 5179W        W 9243   5.176   7.200  10.929
 5180W        W 9244   8.957   1.568  11.103
 5181W        W 9245   9.804   4.454   8.732
 5182W        W 9246   0.398   1.428   2.197
 5183W        W 9247   1.317   7.635   2.801
 5184W        W 9248   0.480   6.001   0.166
 5185W        W 9249   6.238   6.504  10.599
 5186W        W 9250   8.297   3.666   1.844
 5187W        W 9251   9.008   6.073   9.457
 5188W        W 9252   0.646   5.365  10.527
 5189W        W 9253   2.197   0.241   8.554
 5190W        W 9254   1.652   8.680   2.327
 5191W        W 9255   5.633   8.507   0.710
 5192W        W 9256   5.217   6.017   0.327
 5193W        W 9257   4.543   1.914   3.208
 5194W        W 9258   4.089   3.758   9.854
 5195W        W 9259   2.907   6.036  11.510
 5196W        W 9260   0.878   1.385  11.742
 5197W        W 9261   6.286   1.679   0.957
 5198W        W 9262   8.222   0.398   2.445
 5199W        W 9263   9.471   7.080   2.989
 5200W        W 9264   3.162   8.067  10.573
 5201W        W 9265  10.160   2.144   9.908
 5202W        W 9266   7.714   8.995   0.390
 5203W        W 9267   5.831   6.528   1.368
 5204W        W 9268   4.566  10.056   1.302
 5205W        W 9269   7.118   8.572  11.044
 5206W        W 9270   1.451   6.110  11.770
 5207W        W 9271   8.678   5.576  11.200
 5208W        W 9272   2.268   7.821   9.212
 5209W        W 9273   4.215   4.019   3.557
 5210W        W 9274   1.680   9.972   3.190
 5211W        W 9275   7.006   4.173   8.407
 5212W        W 9276   8.044   9.484   9.114
 5213W        W 9277   1.955   5.027   0.110
 5214W        W 9278   4.280   8.369   2.260
 5215W        W 9279   0.411   4.177   2.541
 5216W        W 9280   5.399   6.382   1.709
 5217W        W 9281   7.338   9.009   1.315
 5218W        W 9282   7.708   3.751   1.028
 5219W        W 9283   1.332   4.722   2.740
 5220W        W 9284   4.262   6.185   9.375
 5221W        W 9285   6.094   3.050   1.203
 5222W        W 9286   6.171   9.984  10.581
 5223W        W 9287   7.640   1.842   9.319
 5224W        W 9288   8.105   7.571  11.882
 5225W        W 9289  10.248   1.849   9.489
 5226W        W 9290   5.081   5.043   2.402
 5227W        W 9291   5.791   8.181  10.472
 5228W        W 9292   9.202   5.536   8.782
 5229W        W 9293   1.714  10.279   1.306
 5230W        W 9294   2.673   2.233   9.306
 5231W        W 9295   7.736   6.029   0.480
 5232W        W 9296   4.338   8.595   1.302
 5233W        W 9297   6.878   3.964   1.245
 5234W        W 9298   9.434   5.613   3.158
 5235W        W 9299   5.094   8.599   0.113
 5236W        W 9300   4.825   2.285  10.244
 5237W        W 9301   9.376   1.957   2.888
 5238W        W 9302   2.438   2.783   2.183
 5239W        W 9303   8.744   1.184   2.497
 5240W        W 9304   1.510   9.496   3.064
 5241W        W 9305   7.204   0.568  10.841
 5242W        W 9306   0.810   4.179   2.211
 5243W        W 9307  10.220   4.493   2.149
 5244W        W 9308   5.426   6.068   3.359
 5245W        W 9309   8.625   0.490   0.679
 5246W        W 9310   4.525   4.045   9.321
 5247W        W 9311   6.592   7.424   0.359
 5248W        W 9312   1.473  10.204   0.068
 5249W        W 9313   0.866   2.120   8.504
 5250W        W 9314   2.938   8.096   1.861
 5251W        W 9315   8.478   6.477  10.325
 5252W        W 9316   2.124   4.223   1.876
 5253W        W 9317   4.837  10.080   8.408
 5254W        W 9318   2.034   1.843   1.083
 5255W        W 9319   0.370   3.424   9.484
 5256W        W 9320   9.462   3.302   0.888
 5257W        W 9321   4.953   7.802   1.127
 5258W        W 9322   6.525   3.764   3.492
 5259W        W 9323   9.909   3.056   9.850
 5260W        W 9324   0.477   5.059   1.686
 5261W        W 9325   2.211   2.142   8.516
 5262W        W 9326   9.073   8.673   2.309
 5263W        W 9327   9.512   0.018   9.464
 5264W        W 9328   6.447   8.211  11.835
 5265W        W 9329  10.438   9.762   9.836
 5266W        W 9330   9.672   2.148   9.736
 5267W        W 9331   8.928   0.666   1.267
 5268W        W 9332   9.415   7.429   9.616
 5269W        W 9333   4.863   1.357   0.456
 5270W        W 9334   2.012   6.153   2.730
 5271W        W 9335   6.102   2.233   2.623
 5272W        W 9336   9.764   9.486   0.408
 5273W        W 9337   9.890   1.193   3.013
 5274W        W 9338   3.410   2.803   1.413
 5275W        W 9339   1.776   5.154   2.196
 5276W        W 9340   4.600   3.659   3.496
 5277W        W 9341   4.612   0.941   0.661
 5278W        W 9342   7.555   8.948   3.278
 5279W        W 9343   1.682   5.730  11.490
 5280W        W 9344   4.848   4.387   9.589
 5281W        W 9345   5.544   7.444   0.760
 5282W        W 9346   7.798   8.005  10.935
 5283W        W 9347   3.203   5.543   8.933
 5284W        W 9348   3.920   6.144  11.348
 5285W        W 9349   9.270  10.437   1.803
 5286W        W 9350   6.987   0.782   2.456
 5287W        W 9351   5.229   7.016   2.677
 5288W        W 9352   0.473   6.853   1.443
 5289W        W 9353   2.931   3.219   3.481
 5290W        W 9354   0.848   2.361   2.664
 5291W        W 9355  10.003   4.116  11.356
 5292W        W 9356   0.114   6.080   8.390
 5293W        W 9357   5.067   7.085   3.526
 5294W        W 9358   9.726   2.887   2.978
 5295W        W 9359   7.405  10.019  11.498
 5296W        W 9360  10.420   3.097   0.755
 5297W        W 9361   9.444   9.502   1.018
 5298W        W 9362   4.622   8.115   0.905
 5299W        W 9363   8.904   9.958   0.499
 5300W        W 9364   4.277   0.405   9.900
 5301W        W 9365   8.445   5.421   9.486
 5302W        W 9366  10.428   2.140   9.094
 5303W        W 9367   2.559   9.664   2.265
 5304W        W 9368   5.274   7.411   1.195
 5305W        W 9369   1.735   6.169   0.758
 5306W        W 9370   9.506   0.492  10.982
 5307W        W 9371  10.037   8.844   1.890
 5308W        W 9372   9.734   0.801   9.458
 5309W        W 9373   9.304   5.964   2.812
 5310W        W 9374   5.216   8.289   1.935
 5311W        W 9375   2.153   0.423   9.353
 5312W        W 9376   4.000  10.254   1.375
 5313W        W 9377   0.325   0.299  10.253
 5314W        W 9378   4.059   5.023   1.294
 5315W        W 9379   3.192   0.865   0.447
 5316W        W 9380  10.059   2.422   8.838
 5317W        W 9381  10.262   5.211   3.374
 5318W        W 9382   9.060   3.226   0.407
 5319W        W 9383   6.967  10.451  10.956
 5320W        W 9384   4.071   4.459   1.339
 5321W        W 9385   6.047   9.041  11.363
 5322W        W 9386   1.965   4.241  10.406
 5323W        W 9387   7.568   1.440  11.636
 5324W        W 9388   2.893   9.827   0.468
 5325W        W 9389   7.644   5.242   2.711
 5326W        W 9390   0.952   8.427   8.849
 5327W        W 9391  10.298   4.531  11.361
 5328W        W 9392   0.746   4.522   1.355
 5329W        W 9393   3.054   0.983   9.704
 5330W        W 9394   1.190   8.884   8.963
 5331W        W 9395   7.489   3.821   2.428
 5332W        W 9396   5.215   5.852  11.372
 5333W        W 9397   4.362   7.093   2.868
 5334W        W 9398   7.493   3.729   3.443
 5335W        W 9399   0.229   3.142   3.168
 5336W        W 9400   7.439   7.011   1.970
 5337W        W 9401   2.712   6.503   3.221
 5338W        W 9402   5.100   2.610   2.860
 5339W        W 9403   2.367   6.877   0.614
 5340W        W 9404   9.000   6.922   3.095
 5341W        W 9405   8.361   0.883   0.486
 5342W        W 9406   5.357   6.517   1.205
 5343W        W 9407   2.267   7.547   2.226
 5344W        W 9408   5.040   9.481  11.234
 5345W        W 9409   9.814   0.750   3.227
 5346W        W 9410   9.369   2.885   1.186
 5347W        W 9411   0.799   7.428   9.949
 5348W        W 9412   5.157   4.732   8.729
 5349W        W 9413   6.444   1.374   8.989
 5350W        W 9414   1.504   2.768   1.260
 5351W        W 9415   9.404   8.539  10.352
 5352W        W 9416   0.657   6.458   0.023
 5353W        W 9417   1.354   8.445   9.199
 5354W        W 9418   7.571   7.065   1.173
 5355W        W 9419   4.242   6.756   4.249
 5356W        W 9420   0.490   0.349   1.441
 5357W        W 9421   8.163   8.007  10.554
 5358W        W 9422   4.143   6.149  11.897
 5359W        W 9423   7.979   5.871   9.056
 5360W        W 9424   9.955   7.848   1.780
 5361W        W 9425   5.616   8.949  10.647
 5362W        W 9426   7.822   1.379   2.006
 5363W        W 9427   0.113   0.232   2.959
 5364W        W 9428   1.274   3.672   1.544
 5365W        W 9429   8.404   7.005   0.725
 5366W        W 9430   1.266   7.051   9.486
 5367W        W 9431   4.118   5.353   8.883
 5368W        W 9432   6.145   3.539   2.258
 5369W        W 9433   9.829   2.746   1.981
 5370W        W 9434   6.551   6.161   0.816
 5371W        W 9435   9.401   4.716   9.303
 5372W        W 9436   1.556   1.304   0.546
 5373W        W 9437   9.462   5.625  11.276
 5374W        W 9438   0.770   2.991  10.543
 5375W        W 9439   2.432   5.599   3.240
 5376W        W 9440   0.643   9.397   2.412
 5377W        W 9441   2.421   0.374   9.788
 5378W        W 9442   9.948   1.856   1.279
 5379W        W 9443   2.239   7.306  11.900
 5380W        W 9444   6.948   3.774  11.842
 5381W        W 9445   4.613   8.335   3.152
 5382W        W 9446   5.604   9.844  10.887
 5383W        W 9447   8.360   6.595   9.013
 5384W        W 9448   8.821   9.857  10.254
 5385W        W 9449   4.537   9.071   1.151
 5386W        W 9450   3.195   9.179   1.019
 5387W        W 9451   3.721   8.082   8.997
 5388W        W 9452   5.984   3.597   3.566
 5389W        W 9453   8.378   0.053   0.855
 5390W        W 9454   2.010   9.407   0.356
 5391W        W 9455   4.722   1.488  11.011
 5392W        W 9456   2.318   9.176   2.295
 5393W        W 9457   6.598   4.813  10.903
 5394W        W 9458   0.256   7.429  11.029
 5395W        W 9459   9.245   1.891   0.492
 5396W        W 9460   4.173   0.455   1.744
 5397W        W 9461   2.217   4.404   8.573
 5398W        W 9462   4.134   3.569   2.309
 5399W        W 9463   7.408   6.464   8.428
 5400W        W 9464   2.920   0.367   9.851
 5401W        W 9465   4.711   7.167   8.986
 5402W        W 9466   0.794   3.119   9.496
 5403W        W 9467   0.035   1.168   0.348
 5404W        W 9468   7.507   5.676   9.123
 5405W        W 9469   1.273   1.906   0.851
 5406W        W 9470   5.158   8.965  10.459
 5407W        W 9471  10.405   0.054  10.917
 5408W        W 9472   3.158   7.702   2.247
 5409W        W 9473   2.860   6.150   9.337
 5410W        W 9474   7.054   6.937  10.855
 5411W        W 9475   0.356   5.024  10.784
 5412W        W 9476   3.746   1.273   0.867
 5413W        W 9477   9.083   0.269   0.813
 5414W        W 9478   7.926   3.355  10.213
 5415W        W 9479   8.132   2.763   9.034
 5416W        W 9480   9.876   9.785  10.622
 5417W        W 9481   4.300   8.794   8.310
 5418W        W 9482   6.291  10.337   9.845
 5419W        W 9483  10.329   4.735   9.307
 5420W        W 9484   3.186   6.265   0.281
 5421W        W 9485   5.021   3.842   1.883
 5422W        W 9486  10.212   5.738  11.729
 5423W        W 9487   3.303   5.258   2.268
 5424W        W 9488   1.239   6.571   9.693
 5425W        W 9489   1.686   7.863  10.918
 5426W        W 9490   7.265   7.184   9.990
 5427W        W 9491   5.745   1.773  10.757
 5428W        W 9492   3.049   3.261   9.980
 5429W        W 9493   7.296   6.111   9.905
 5430W        W 9494   6.441   1.205   0.849
 5431W        W 9495   7.559   0.217  11.875
 5432W        W 9496   1.963   9.372   2.825
 5433W        W 9497   8.689   7.012   3.488
 5434W        W 9498   0.447   6.859   2.989
 5435W        W 9499   6.190   0.153   9.434
 5436W        W 9500   1.910   7.586   9.515
 5437W        W 9501   7.151   4.550  10.506
 5438W        W 9502   5.236   2.654   2.365
 5439W        W 9503   5.693   3.917   9.130
 5440W        W 9504   4.315   9.968   8.938
 5441W        W 9505   3.400   7.415   1.841
 5442W        W 9506   5.661   0.281  11.448
 5443W        W 9507   1.255   7.091  10.026
 5444W        W 9508   7.465   8.266  11.912
 5445W        W 9509   2.898   1.029   2.458
 5446W        W 9510   0.072   7.536   0.189
 5447W        W 9511   5.035   7.578   3.470
 5448W        W 9512   1.261   3.717   9.564
 5449W        W 9513   4.716   4.683   2.432
 5450W        W 9514   4.208   9.375   0.868
 5451W        W 9515   3.203   1.445   9.590
 5452W        W 9516   3.196   7.083   3.579
 5453W        W 9517   1.150   5.387   1.862
 5454W        W 9518  10.031   7.030   9.578
 5455W        W 9519   9.786   7.728   8.395
 5456W        W 9520   7.537   8.175   9.895
 5457W        W 9521  10.056   6.365   3.254
 5458W        W 9522   6.531   0.249  11.428
 5459W        W 9523   1.995   4.754   8.988
 5460W        W 9524   5.640   0.905   1.676
 5461W        W 9525   2.406  10.471  10.533
 5462W        W 9526   0.149   9.796   2.359
 5463W        W 9527   2.623   4.289   2.785
 5464W        W 9528   6.102   8.803  11.838
 5465W        W 9529   4.703   6.016   1.536
 5466W        W 9530   7.537   4.268   2.813
 5467W        W 9531   5.272   3.590   0.939
 5468W        W 9532   4.589   5.937   3.793
 5469W        W 9533   9.895   9.731   3.572
 5470W        W 9534   3.430   1.829   1.364
 5471W        W 9535   4.430   5.649   1.307
 5472W        W 9536   7.687   9.958   9.581
 5473W        W 9537   6.038   9.476  10.502
 5474W        W 9538   8.492   7.142   8.529
 5475W        W 9539   8.500   8.044   2.704
 5476W        W 9540   2.875   7.574   1.827
 5477W        W 9541   1.920   1.323   3.774
 5478W        W 9542   3.606   9.181   0.278
 5479W        W 9543   1.412   7.093   1.006
 5480W        W 9544   1.688   0.212   9.373
 5481W        W 9545   6.719   6.551  10.790
 5482W        W 9546   5.653   9.833   9.351
 5483W        W 9547   0.336   0.969   9.518
 5484W        W 9548  10.456   6.168   0.981
 5485W        W 9549   5.069   6.156  10.563
 5486W        W 9550   0.107   9.188  11.333
 5487W        W 9551   7.098   7.144   1.384
 5488W        W 9552   4.996  10.423   8.802
 5489W        W 9553   3.745   6.193   9.176
 5490W        W 9554   3.330   0.477   1.164
 5491W        W 9555   4.809   2.921  10.986
 5492W        W 9556   2.743   3.238  11.268
 5493W        W 9557   6.497   9.910   3.011
 5494W        W 9558   4.248   9.540  11.382
 5495W        W 9559   0.719   9.123   0.646
 5496W        W 9560   9.003   2.163   8.511
 5497W        W 9561   9.959   6.627   9.906
 5498W        W 9562   5.157  10.007  11.110
 5499W        W 9563   7.041   2.659   2.793
 5500W        W 9564   3.803   2.941   9.674
 5501W        W 9565   3.222   2.370  11.287
 5502W        W 9566   6.558   3.768   8.916
 5503W        W 9567   1.028   7.899  11.911
 5504W        W 9568  10.342   3.155  10.115
 5505W        W 9569   3.063   2.783   2.318
 5506W        W 9570   0.458   5.626   2.393
 5507W        W 9571   7.738   1.540   1.059
 5508W        W 9572   1.143   9.729   9.739
 5509W        W 9573   2.163   6.118   9.936
 5510W        W 9574   9.253   6.526   8.710
 5511W        W 9575   0.170   6.085   3.412
 5512W        W 9576   8.084   6.452   0.444
 5513W        W 9577   7.553   1.916   1.345
 5514W        W 9578   9.834   3.359   3.092
 5515W        W 9579   5.450   2.976   8.868
 5516W        W 9580   6.005   6.607   1.849
 5517W        W 9581   6.157   0.854   3.043
 5518W        W 9582   7.574   1.596   9.760
 5519W        W 9583   0.438   6.491  11.274
 5520W        W 9584   6.286   6.152   0.343
 5521W        W 9585   3.834   3.159   2.400
 5522W        W 9586   2.835   0.444   1.303
 5523W        W 9587   3.729   9.525  11.310
 5524W        W 9588   0.704   3.660   3.704
 5525W        W 9589   7.965   6.673   1.811
 5526W        W 9590   9.231   2.848   9.167
 5527W        W 9591   1.298   0.989   9.516
 5528W        W 9592   1.370   1.487   9.532
 5529W        W 9593   1.855   3.784  11.260
 5530W        W 9594   9.066   5.282  11.427
 5531W        W 9595   4.216   8.013   0.156
 5532W        W 9596   5.078   4.092   2.785
 5533W        W 9597   3.745   3.302   9.294
 5534W        W 9598   6.081   3.255   0.192
 5535W        W 9599   3.536   8.011   2.411
 5536W        W 9600   3.327   0.694  10.633
 5537W        W 9601   0.123   7.072   0.886
 5538W        W 9602   4.495   7.599   0.046
 5539W        W 9603   1.883   0.823  10.424
 5540W        W 9604   7.485   5.479   4.097
 5541W        W 9605   1.790   6.666   0.599
 5542W        W 9606   3.949   5.546   1.138
 5543W        W 9607   8.588   8.811   2.252
 5544W        W 9608   5.058   4.895  11.484
 5545W        W 9609   9.073   5.758  11.584
 5546W        W 9610   5.245   6.421   9.984
 5547W        W 9611   5.688   6.463   0.842
 5548W        W 9612   2.409  10.403   3.482
 5549W        W 9613   2.481   0.854  10.937
 5550W        W 9614   1.036   5.686  10.458
 5551W        W 9615   7.124   2.249   2.002
 5552W        W 9616   3.986   0.313  10.944
 5553W        W 9617   7.464   6.286   2.463
 5554W        W 9618   2.268   1.915   9.262
 5555W        W 9619   5.936   7.614   3.549
 5556W        W 9620   4.437  10.343   0.502
 5557W        W 9621   4.111   6.613   8.593
 5558W        W 9622   5.743   2.529  11.832
 5559W        W 9623   6.956   7.131   9.528
 5560W        W 9624   7.408   2.240  10.743
 5561W        W 9625   6.439   5.679   0.136
 5562W        W 9626   3.355   9.598   8.525
 5563W        W 9627   2.169   5.922   0.878
 5564W        W 9628   5.991   2.813   0.437
 5565W        W 9629   6.500   2.457   8.565
 5566W        W 9630   0.820   2.810   2.383
 5567W        W 9631   2.076   8.457   0.724
 5568W        W 9632   4.214   6.106   0.432
 5569W        W 9633   5.719   1.269  10.928
 5570W        W 9634   6.400   9.120   0.918
 5571W        W 9635   0.052   6.468   3.091
 5572W        W 9636   5.157   1.827   8.857
 5573W        W 9637   5.901   0.960   0.427
 5574W        W 9638   2.062   9.971   3.504
 5575W        W 9639   4.673   9.424  10.571
 5576W        W 9640   7.034   8.577   1.264
 5577W        W 9641   1.715   8.531   9.528
 5578W        W 9642   8.045   7.902   2.967
 5579W        W 9643   6.109   0.489  11.119
 5580W        W 9644   1.154   0.422   0.179
 5581W        W 9645   1.511   4.258   0.259
 5582W        W 9646   9.304   4.611   3.566
 5583W        W 9647   3.153   3.626   9.566
 5584W        W 9648   8.891   8.820  11.547
 5585W        W 9649   9.768   7.442   0.707
 5586W        W 9650   3.279   1.570  10.880
 5587W        W 9651   7.401   1.635   0.466
 5588W        W 9652   5.922   8.042   2.343
 5589W        W 9653   6.995   2.783   9.750
 5590W        W 9654   2.658   2.860   0.964
 5591W        W 9655   3.031   9.792   3.173
 5592W        W 9656   9.595   7.194   2.512
 5593W        W 9657   8.192   6.262   3.541
 5594W        W 9658   4.706   0.322  11.953
 5595W        W 9659   0.264   5.422   1.368
 5596W        W 9660   5.986   8.000   1.416
 5597W        W 9661   6.572   3.644  11.032
 5598W        W 9662   7.132   1.365   3.174
 5599W        W 9663   9.971   7.037   2.853
 5600W        W 9664   9.829   0.987  11.217
 5601W        W 9665   5.229   3.162   9.395
 5602W        W 9666   9.355   6.059   8.961
 5603W        W 9667   1.322   9.978   1.901
 5604W        W 9668   6.971   8.087  11.826
 5605W        W 9669   3.137   6.663   0.554
 5606W        W 9670   7.287  10.386  10.040
 5607W        W 9671   7.519   2.371   1.141
 5608W        W 9672   6.578   2.123   9.994
 5609W        W 9673   9.456   1.054   0.940
 5610W        W 9674   2.254   9.138  10.099
 5611W        W 9675   8.081   1.403  11.846
 5612W        W 9676   5.631   3.406   2.365
 5613W        W 9677   3.817   5.953   9.615
 5614W        W 9678  10.453   1.959   0.050
 5615W        W 9679   4.142   1.312   2.230
 5616W        W 9680   4.684   9.296   1.980
 5617W        W 9681   7.848   5.605   0.197
 5618W        W 9682   5.543   8.920   2.497
 5619W        W 9683   0.795   5.192  10.994
 5620W        W 9684   8.985   4.583   0.754
 5621W        W 9685   5.260   9.996   9.087
 5622W        W 9686   0.227   6.938   0.362
 5623W        W 9687   8.024   4.519   9.049
 5624W        W 9688   0.261   2.821   2.373
 5625W        W 9689   7.455   3.138  10.248
 5626W        W 9690   1.444   9.240   3.862
 5627W        W 9691   2.261  10.038  10.927
 5628W        W 9692   8.890   8.842   1.361
 5629W        W 9693   6.586   7.871   2.862
 5630W        W 9694   0.929   8.629   0.131
 5631W        W 9695   4.190   6.086   1.479
 5632W        W 9696   6.562   8.662   0.006
 5633W        W 9697   2.418   1.733   0.193
 5634W        W 9698   0.174   9.914   8.860
 5635W        W 9699   7.544   8.042   2.255
 5636W        W 9700   2.272   5.104   1.998
 5637W        W 9701   2.721   3.567  10.278
 5638W        W 9702   5.278   2.643   1.190
 5639W        W 9703   5.937   9.025   1.192
 5640W        W 9704   7.860   3.228   3.541
 5641W        W 9705   4.682   7.933  11.696
 5642W        W 9706   1.958   8.918   0.201
 5643W        W 9707  10.484   0.247   9.376
 5644W        W 9708   4.983   4.468  10.099
 5645W        W 9709   0.463  10.363   2.957
 5646W        W 9710   4.562   2.863   3.453
 5647W        W 9711   7.254   3.177   1.545
 5648W        W 9712   8.431   8.108   9.847
 5649W        W 9713   1.565   8.547  11.298
 5650W        W 9714   0.855   7.986   1.229
 5651W        W 9715   8.156   3.639   1.219
 5652W        W 9716   1.921   7.866   1.972
 5653W        W 9717   2.870   9.412   1.389
 5654W        W 9718   8.503   2.452   1.253
 5655W        W 9719   1.833   1.180   9.753
 5656W        W 9720   3.303   5.035   1.786
 5657W        W 9721   7.079   5.970   9.066
 5658W        W 9722   0.121   5.402  10.519
 5659W        W 9723   6.084  10.291   1.697
 5660W        W 9724   4.082   2.906  11.374
 5661W        W 9725   6.431   9.311   9.371
 5662W        W 9726   6.916   8.965  11.299
 5663W        W 9727   3.478   2.210   1.024
 5664W        W 9728   3.342   6.727  11.748
 5665W        W 9729   0.592   4.976  11.413
 5666W        W 9730  10.361   5.430  11.356
 5667W        W 9731   5.567   4.123   1.841
 5668W        W 9732   0.843   2.294   3.185
 5669W        W 9733   5.204   7.020   9.079
 5670W        W 9734   3.261   5.155   9.285
 5671W        W 9735   0.489   8.287   9.021
 5672W        W 9736   1.008   7.367   0.780
 5673W        W 9737   1.010   2.134   0.227
 5674W        W 9738   7.862   6.640   0.013
 5675W        W 9739   9.333   0.590   3.124
 5676W        W 9740   4.550   4.518   3.986
 5677W        W 9741   6.425   0.161  11.957
 5678W        W 9742  10.489   3.929   0.155
 5679W        W 9743   6.082   9.315  10.014
 5680W        W 9744   4.577   5.312   9.682
 5681W        W 9745   8.537   5.898   9.581
 5682W        W 9746   9.902   8.287  11.982
 5683W        W 9747   5.652   1.810   8.987
 5684W        W 9748   1.244   0.315  11.034
 5685W        W 9749   3.238   8.363   8.863
 5686W        W 9750   9.472   7.840  10.971
 5687W        W 9751   9.934   9.793   1.676
 5688W        W 9752   5.704   3.473  10.350
 5689W        W 9753   7.385   3.138   8.859
 5690W        W 9754   1.842   7.897   0.468
 5691W        W 9755   1.356   3.824   1.058
 5692W        W 9756   5.141   8.639   0.631
 5693W        W 9757   0.749   0.881  11.544
 5694W        W 9758   1.408   0.237   9.890
 5695W        W 9759   8.147   5.988   1.346
 5696W        W 9760   9.498   5.714   1.234
 5697W        W 9761   0.882   5.431  10.024
 5698W        W 9762   3.656   5.917   3.647
 5699W        W 9763   3.507  10.311   9.369
 5700W        W 9764   7.652   1.842   8.816
 5701W        W 9765   1.293   4.960  10.957
 5702W        W 9766   7.719   6.376   9.753
 5703W        W 9767   5.085   3.643   1.401
 5704W        W 9768   1.211  10.260   1.402
 5705W        W 9769   6.606   3.260   3.313
 5706W        W 9770   0.854   4.002   9.465
 5707W        W 9771   1.328   7.855  10.558
 5708W        W 9772   3.406   7.544   2.690
 5709W        W 9773   2.808   4.073  10.204
 5710W        W 9774   1.666   2.804  11.500
 5711W        W 9775   0.862   6.468  11.565
 5712W        W 9776   5.468   8.425   3.181
 5713W        W 9777   2.189   3.307   1.829
 5714W        W 9778   5.995   5.454  11.981
 5715W        W 9779   7.672   0.105   0.767
 5716W        W 9780   2.130   9.325   9.617
 5717W        W 9781   7.664   1.214   0.657
 5718W        W 9782   3.713   3.636   1.662
 5719W        W 9783   7.118  10.460   3.150
 5720W        W 9784   5.683   0.780  11.140
 5721W        W 9785   7.988   2.620   0.253
 5722W        W 9786   3.325   0.737  11.464
 5723W        W 9787   8.757   2.306   9.923
 5724W        W 9788   2.765   1.466   9.903
 5725W        W 9789   6.941   4.949  10.265
 5726W        W 9790   4.488   5.192   3.646
 5727W        W 9791   1.248   9.295   1.252
 5728W        W 9792   2.401   5.668   9.954
 5729W        W 9793   3.218   3.311   9.123
 5730W        W 9794   9.133   3.283   1.913
 5731W        W 9795   5.498   3.720   0.505
 5732W        W 9796   0.197   9.568  11.952
 5733W        W 9797   5.106   3.148   1.176
 5734W        W 9798   5.665   6.474   3.146
 5735W        W 9799  10.319   7.188  10.851
 5736W        W 9800   9.883   9.044   1.460
 5737W        W 9801   6.885   9.923   2.621
 5738W        W 9802   4.607   2.386   0.701
 5739W        W 9803   1.341   0.871   0.348
 5740W        W 9804   6.147   0.062  10.771
 5741W        W 9805   3.751   5.028   2.160
 5742W        W 9806   1.269   0.997   3.078
 5743W        W 9807   3.877   0.895  11.186
 5744W        W 9808   7.414   9.551   9.784
 5745W        W 9809   7.030   8.142  11.312
 5746W        W 9810  10.041  10.385   2.878
 5747W        W 9811   1.842   1.677   9.595
 5748W        W 9812   4.742  10.454   9.672
 5749W        W 9813   6.238   9.915   8.766
 5750W        W 9814   2.849   7.589   9.324
 5751W        W 9815   2.413   6.121  11.466
 5752W        W 9816   7.602   5.385   2.192
 5753W        W 9817   4.556   3.109   1.815
 5754W        W 9818   8.986   0.382   9.137
 5755W        W 9819   8.321   2.226  10.261
 5756W        W 9820   9.157  10.323   1.308
 5757W        W 9821   6.967   6.086  10.813
 5758W        W 9822   4.440   7.736   1.242
 5759W        W 9823   9.475   2.163   3.374
 5760W        W 9824   4.146   6.997   3.326
 5761W        W 9825   4.593   8.818   2.155
 5762W        W 9826   2.171   2.373   9.546
 5763W        W 9827   4.677   8.385  11.448
 5764W        W 9828   4.533   5.474   9.211
 5765W        W 9829   5.180   0.958  10.933
 5766W        W 9830   9.476   4.881   2.923
 5767W        W 9831  10.409   2.918   3.490
 5768W        W 9832   4.622   0.441   1.506
 5769W        W 9833   3.470   5.587   8.144
 5770W        W 9834   8.606   0.976   0.922
 5771W        W 9835   1.460   9.293   8.767
 5772W        W 9836   2.214   6.416   0.784
 5773W        W 9837   2.907   4.800   0.865
 5774W        W 9838   8.094   8.531   1.129
 5775W        W 9839   8.874   7.408  10.251
 5776W        W 9840   0.980  10.202  10.551
 5777W        W 9841   7.343   4.110   1.029
 5778W        W 9842   1.170   6.513  11.992
 5779W        W 9843   2.490   9.598  10.775
 5780W        W 9844   7.101   9.930  10.224
 5781W        W 9845   3.103   7.968   9.551
 5782W        W 9846   0.430   5.205   9.376
 5783W        W 9847   9.070   7.934   3.340
 5784W        W 9848   0.305   8.609  11.922
 5785W        W 9849   7.505   5.560   3.601
 5786W        W 9850   0.536   8.627  10.610
 5787W        W 9851   8.383   9.460   1.951
 5788W        W 9852   8.955   6.623  11.502
 5789W        W 9853   0.863   2.145   9.027
 5790W        W 9854   7.486   6.494   1.987
 5791W        W 9855   4.535   4.115   1.272
 5792W        W 9856   0.458   4.552  10.536
 5793W        W 9857   3.714   0.799   2.749
 5794W        W 9858   5.540   3.302  10.861
 5795W        W 9859   2.502   1.737  11.346
 5796W        W 9860   2.365   0.332   1.947
 5797W        W 9861   3.169   5.275   3.224
 5798W        W 9862   4.222  10.209  11.737
 5799W        W 9863   0.508   4.618   3.425
 5800W        W 9864   9.151   6.631  10.571
 5801W        W 9865  10.290   7.198   0.466
 5802W        W 9866   0.730   6.063   9.839
 5803W        W 9867   0.183   8.139   0.088
 5804W        W 9868   2.129   2.111   0.025
 5805W        W 9869   3.630   4.974   4.209
 5806W        W 9870   4.586   5.620   2.386
 5807W        W 9871   7.527   2.633   0.002
 5808W        W 9872   8.993   9.439  10.502
 5809W        W 9873   9.994  10.240  11.047
 5810W        W 9874   3.344   8.383   0.617
 5811W        W 9875   0.953  10.392   0.977
 5812W        W 9876   8.452   1.751  10.410
 5813W        W 9877   3.161   4.794   0.384
 5814W        W 9878   5.644   2.305   2.888
 5815W        W 9879   0.502   1.130  10.506
 5816W        W 9880   3.629   8.156   3.380
 5817W        W 9881   9.357   9.426   0.062
 5818W        W 9882   1.698   3.781  10.275
 5819W        W 9883   6.220   7.675  11.114
 5820W        W 9884   2.604  10.382   1.318
 5821W        W 9885   9.081   9.848   0.966
 5822W        W 9886   0.665   8.233  11.969
 5823W        W 9887   9.974   4.624  11.796
 5824W        W 9888   1.465   3.436   2.536
 5825W        W 9889   3.799   9.322   2.668
 5826W        W 9890   3.075   9.601   9.878
 5827W        W 9891   0.370   3.912   9.627
 5828W        W 9892   1.308   3.714   9.053
 5829W        W 9893   0.875   8.563   1.389
 5830W        W 9894   4.091   7.486   8.957
 5831W        W 9895   3.335   0.464   0.161
 5832W        W 9896   9.462   9.985   1.757
 5833W        W 9897   2.309   5.971   0.371
 5834W        W 9898   3.813   0.426  11.953
 5835W        W 9899   1.086   9.931   3.539
 5836W        W 9900   9.510   3.443  11.020
 5837W        W 9901   2.122   4.369   2.834
 5838W        W 9902   5.033   7.106   8.595
 5839W        W 9903   4.221   1.791   9.806
 5840W        W 9904   0.487  10.298   0.795
 5841W        W 9905   2.683   5.941  10.792
 5842W        W 9906   0.782   0.329   9.972
 5843W        W 9907   6.566   1.633  11.855
 5844W        W 9908   4.532   5.063   3.138
 5845W        W 9909   4.054   5.059   3.922
 5846W        W 9910   1.933   4.701   1.976
 5847W        W 9911   1.846   7.027   8.892
 5848W        W 9912   8.289   2.368   9.768
 5849W        W 9913   4.654   5.016  11.760
 5850W        W 9914   5.118   4.977  10.104
 5851W        W 9915   0.215   7.025   1.846
 5852W        W 9916  10.294   0.064   2.111
 5853W        W 9917   6.772   7.001   9.989
 5854W        W 9918   1.055   3.975  10.420
 5855W        W 9919   6.972   4.528   1.970
 5856W        W 9920   5.961   6.452   2.721
 5857W        W 9921   1.963   9.773   9.441
 5858W        W 9922   3.065  10.009  11.986
 5859W        W 9923   2.581   6.607  11.568
 5860W        W 9924   4.718   0.726  11.631
 5861W        W 9925   7.125   1.741   9.987
 5862W        W 9926   2.627  10.290   1.835
 5863W        W 9927  10.062   9.521   2.864
 5864W        W 9928   2.173   2.290   2.314
 5865W        W 9929   1.296   3.106  11.350
 5866W        W 9930   3.757   9.325   9.470
 5867W        W 9931   0.502  10.479  11.869
 5868W        W 9932   0.962   3.357  11.622
 5869W        W 9933  10.328   7.942   9.729
 5870W        W 9934   6.119   6.641   9.466
 5871W        W 9935   0.492   5.727  10.187
 5872W        W 9936   6.713   5.048   4.077
 5873W        W 9937   7.851   3.106   0.198
 5874W        W 9938   3.773   7.153   0.371
 5875W        W 9939   6.489   4.088  10.207
 5876W        W 9940   7.736   8.580   3.580
 5877W        W 9941   6.622   2.623  10.046
 5878W        W 9942   5.979   5.700   1.235
 5879W        W 9943   4.125   4.278   1.823
 5880W        W 9944  10.479  10.410  10.383
 5881W        W 9945   5.548   9.582  11.942
 5882W        W 9946   5.526   0.232   3.199
 5883W        W 9947   6.440   4.041  11.360
 5884W        W 9948   9.492   1.341   2.278
 5885W        W 9949   8.332   5.762  10.876
 5886W        W 9950   5.713   2.143   3.408
 5887W        W 9951   3.088   9.365   1.858
 5888W        W 9952   5.035   5.058   2.919
 5889W        W 9953   2.524   2.751   9.417
 5890W        W 9954   0.347   3.034   9.821
 5891W        W 9955   4.108   3.881  11.291
 5892W        W 9956   1.277   8.990   2.522
 5893W        W 9957   1.971   0.394   3.558
 5894W        W 9958   7.863   8.460   3.107
 5895W        W 9959   6.495   7.281   1.757
 5896W        W 9960   7.221   0.889  10.000
 5897W        W 9961   1.316   8.148   3.519
 5898W        W 9962   6.599   5.709   3.873
 5899W        W 9963   2.310   5.192  10.209
 5900W        W 9964   5.019   3.395   8.042
 5901W        W 9965   1.152   4.307   0.993
 5902W        W 9966   1.603   4.952   9.914
 5903W        W 9967   8.652   1.707   3.517
 5904W        W 9968   3.544   3.110   1.925
 5905W        W 9969   2.217   5.232   3.536
 5906W        W 9970   5.542   2.629   3.301
 5907W        W 9971   7.244   6.204   0.452
 5908W        W 9972   5.226   1.352  11.677
 5909W        W 9973   9.104   7.039   0.686
 5910W        W 9974   2.297   2.784   9.898
 5911W        W 9975  10.032   4.038  10.515
 5912W        W 9976  10.077   1.328  10.217
 5913W        W 9977   7.733   9.476   2.651
 5914W        W 9978   0.853   1.628  10.302
 5915W        W 9979   3.770   8.460  11.022
 5916W        W 9980   3.083   0.027  11.997
 5917W        W 9981   1.999   9.351   1.026
 5918W        W 9982   5.390   6.932   3.156
 5919W        W 9983   9.726  10.410   0.433
 5920W        W 9984   4.310   2.434  10.308
 5921W        W 9985   7.700   8.014   0.289
 5922W        W 9986   4.714   1.383   1.498
 5923W        W 9987   6.589   9.691  11.977
 5924W        W 9988   3.271   5.758   2.314
 5925W        W 9989   6.029   4.285   9.982
 5926W        W 9990   5.026   1.367   9.216
 5927W        W 9991   6.976   9.493  10.537
 5928W        W 9992   0.615   6.613   0.496
 5929W        W 9993   8.913  10.345   9.048
 5930W        W 9994   9.141   7.013   9.836
 5931W        W 9995   9.361   5.164   0.759
 5932W        W 9996   9.901   7.542   9.851
 5933W        W 9997   9.692   0.442   2.441
 5934W        W 9998   2.325   9.787   1.043
 5935W        W 9999   8.179   3.145   1.991
 5936W        W10000   3.306   1.286   2.267
 5937W        W10001   6.037   1.811   2.963
 5938W        W10002   6.050   7.386  10.322
 5939W        W10003   2.428   9.478   2.704
 5940W        W10004   7.248   1.215   9.601
 5941W        W10005   2.707   1.973  10.030
 5942W        W10006   8.626   9.538  10.835
 5943W        W10007   9.407   7.088   2.033
 5944W        W10008   5.732   6.086   2.450
 5945W        W10009   3.920   1.359  11.397
 5946W        W10010   3.244   4.321   1.290
 5947W        W10011   4.532   4.063   9.843
 5948W        W10012   5.197   5.603   3.127
 5949W        W10013   7.973   3.618   2.655
 5950W        W10014   2.787   3.365  10.748
 5951W        W10015   4.815   9.921   8.872
 5952W        W10016   1.874  10.312   8.728
 5953W        W10017   7.412   5.007   9.974
 5954W        W10018   1.908   2.331   0.473
 5955W        W10019   1.088   5.550   1.083
 5956W        W10020  10.269   8.038   1.384
 5957W        W10021   0.827   8.099  11.471
 5958W        W10022   0.971   0.156   8.607
 5959W        W10023   5.407   7.569   4.233
 5960W        W10024   0.013   5.874   2.473
 5961W        W10025   5.439   0.335   9.385
 5962W        W10026  10.450   7.005   9.258
 5963W        W10027   4.601   7.409  11.608
 5964W        W10028   1.295   2.357   9.214
 5965W        W10029   6.969   7.667  11.529
 5966W        W10030   5.287   2.162  10.088
 5967W        W10031   5.473   4.000  11.683
 5968W        W10032   3.318   5.532   3.657
 5969W        W10033   1.786   7.584   3.132
 5970W        W10034   9.019   1.509   2.204
 5971W        W10035   4.376   4.535   9.491
 5972W        W10036   6.591   2.109   0.037
 5973W        W10037   4.628  10.462  11.575
 5974W        W10038   3.182   7.061   9.979
 5975W        W10039   4.622   4.406   8.410
 5976W        W10040   3.232   9.922   2.721
 5977W        W10041   3.373   3.475   3.403
 5978W        W10042   5.763   5.580   8.577
 5979W        W10043   6.054  10.072  11.051
 5980W        W10044   2.551   9.435   1.808
 5981W        W10045   2.962   6.067   3.138
 5982W        W10046   9.972   9.735   0.817
 5983W        W10047   9.779   1.689   3.124
 5984W        W10048   5.579   4.368   8.446
 5985W        W10049   2.547   9.166  10.506
 5986W        W10050   1.258  10.321   0.539
 5987W        W10051   9.201   0.939   2.375
 5988W        W10052   5.079   8.170   0.419
 5989W        W10053  10.210   8.860   9.073
 5990W        W10054   9.511   1.425   2.773
 5991W        W10055  10.028   1.837   8.985
 5992W        W10056   2.511   8.236   0.856
 5993W        W10057   8.463   1.073  10.515
 5994W        W10058   3.732   7.082   1.015
 5995W        W10059   6.623   6.586  10.265
 5996W        W10060   3.040   2.680   9.345
 5997W        W10061   8.925   6.074   3.240
 5998W        W10062   8.682   3.874   3.741
 5999W        W10063   9.113  10.270  11.057
 6000W        W10064   9.816   8.913   3.307
 6001W        W10065   5.713   4.765   9.005
 6002W        W10066   0.272   2.222   1.285
 6003W        W10067   2.655   3.851  10.733
 6004W        W10068  10.270   2.650   1.505
 6005W        W10069   3.375   8.471   2.626
 6006W        W10070   5.487   2.266   8.811
 6007W        W10071   3.693   4.130   3.559
 6008W        W10072   5.596   4.896   8.518
 6009W        W10073   3.353   7.511   9.725
 6010W        W10074   4.663   8.131   1.448
 6011W        W10075   9.039   1.595   2.704
 6012W        W10076   9.497   9.947   1.251
 6013W        W10077   8.684   2.733   9.093
 6014W        W10078   2.632   3.060  10.339
 6015W        W10079   2.272   3.835  10.320
 6016W        W10080   0.623   7.580  10.579
 6017W        W10081   6.692   1.668  11.307
 6018W        W10082   8.560   8.860  11.995
 6019W        W10083   2.278   9.879   1.903
 6020W        W10084   6.369   0.494   9.033
 6021W        W10085   7.341   5.718   0.232
 6022W        W10086   9.853   9.227   8.921
 6023W        W10087   6.687   7.882   3.379
 6024W        W10088   1.843   6.532   1.124
 6025W        W10089   8.075   9.445   1.102
 6026W        W10090   7.421   5.606   0.716
 6027W        W10091   0.291   4.737   9.556
 6028W        W10092   1.650   1.981   0.179
 6029W        W10093   2.225  10.291  11.952
 6030W        W10094   5.703   1.587   0.272
 6031W        W10095   0.750   1.277   9.348
 6032W        W10096   2.644   5.501   9.517
 6033W        W10097   2.826   4.246   3.259
 6034W        W10098   8.894  10.433   2.732
 6035W        W10099   1.815   3.665   8.921
 6036W        W10100   7.925  10.363   9.357
 6037W        W10101   5.215   1.893   1.697
 6038W        W10102   6.604   3.068  11.731
 6039W        W10103   6.396   3.288  10.712
 6040W        W10104   8.123   5.718  11.769
 6041W        W10105   8.949   5.304  11.970
 6042W        W10106   1.860   1.259   8.777
 6043W        W10107   8.791   0.174   1.235
 6044W        W10108   3.317   8.152   1.132
 6045W        W10109   0.692   9.814   8.899
 6046W        W10110   4.233   7.572   3.050
 6047W        W10111   5.529   4.991   9.430
 6048W        W10112   2.404   9.980   0.590
 6049W        W10113   1.784   5.685   2.843
 6050W        W10114   6.519  10.458   1.121
 6051W        W10115   5.071   0.807  10.460
 6052W        W10116   6.036   2.254  10.773
 6053W        W10117   8.154   9.682   2.411
 6054W        W10118   7.270   7.961   1.799
 6055W        W10119   4.198   1.483   3.204
 6056W        W10120   4.107   2.640   2.192
 6057W        W10121   0.270   9.626  11.004
 6058W        W10122   6.914   1.341   1.669
 6059W        W10123   5.160   9.283   1.834
 6060W        W10124   8.197   2.425   0.844
 6061W        W10125   3.795   0.882  10.691
 6062W        W10126   6.015   7.221   2.500
 6063W        W10127   3.280   5.793   0.438
 6064W        W10128   6.966   8.822   9.444
 6065W        W10129   7.666   7.602  10.519
 6066W        W10130   3.475   5.511   0.846
 6067W        W10131   2.018   5.363  11.729
 6068W        W10132   8.568   0.715   0.053
 6069W        W10133   0.394   2.386   0.802
 6070W        W10134   9.737   7.861   9.058
 6071W        W10135   1.796   2.680   0.853
 6072W        W10136   7.883  10.329  10.961
 6073W        W10137   9.149   0.334  10.446
 6074W        W10138   5.854   8.447   8.434
 6075W        W10139   5.113   5.169  11.974
 6076W        W10140   4.702   7.378   1.809
 6077W        W10141   4.308   4.738   2.711
 6078W        W10142   0.982   5.564   2.421
 6079W        W10143   6.127   0.475  11.637
 6080W        W10144   7.936   5.216  11.852
 6081W        W10145   7.146   1.702   9.460
 6082W        W10146   5.701   7.539   9.558
 6083W        W10147   9.296   8.768   9.387
 6084W        W10148   7.583   4.970   1.108
 6085W        W10149   8.808   0.716  10.301
 6086W        W10150   1.729   1.780   0.649
 6087W        W10151   1.690   0.817   1.588
 6088W        W10152   1.180   5.198   3.523
 6089W        W10153  10.244   2.781   2.391
 6090W        W10154  10.494   8.912   1.655
 6091W        W10155   5.677   1.694  11.251
 6092W        W10156   8.079   1.285   0.348
 6093W        W10157   2.187  10.461   9.573
 6094W        W10158   2.649   6.358  11.092
 6095W        W10159   4.155   9.420   3.218
 6096W        W10160   8.853   5.090   0.840
 6097W        W10161   9.518   9.071   0.789
 6098W        W10162   9.305   9.846  10.055
 6099W        W10163   2.869   3.143   9.484
 6100W        W10164   3.126   6.219  10.030
 6101W        W10165   6.662   3.233   2.223
 6102W        W10166   7.007   6.921   3.129
 6103W        W10167   8.681   2.394  11.130
 6104W        W10168   3.141   4.404  11.437
 6105W        W10169   4.191   0.028   9.547
 6106W        W10170   6.651   7.582   9.548
 6107W        W10171   2.449   1.645  10.292
 6108W        W10172   0.233   5.716  11.544
 6109W        W10173   8.402   7.764  11.482
 6110W        W10174   0.216   1.797  11.172
 6111W        W10175   4.560   9.492   9.021
 6112W        W10176   3.553   2.816   9.233
 6113W        W10177   0.070   1.352  10.342
 6114W        W10178   7.621   0.636   0.814
 6115W        W10179   2.186   8.156  10.164
 6116W        W10180   8.972   1.223  10.266
 6117W        W10181   3.834   8.037  11.360
 6118W        W10182   8.996   5.520   0.487
 6119W        W10183   6.512   4.434   8.440
 6120W        W10184   7.939   2.820  11.764
 6121W        W10185   6.392   0.973   0.393
 6122W        W10186   7.076   5.509   3.313
 6123W        W10187   3.466   5.031   0.024
 6124W        W10188   4.630   0.244   3.424
 6125W        W10189   1.577  10.138   3.682
 6126W        W10190   3.623   3.149   8.813
 6127W        W10191   2.844   4.638   2.515
 6128W        W10192   7.104   4.046   2.091
 6129W        W10193   9.816   7.448   3.104
 6130W        W10194   2.679   5.002   0.438
 6131W        W10195   8.873   7.717   9.260
 6132W        W10196   6.867   1.269   9.967
 6133W        W10197   5.898   8.142   0.448
 6134W        W10198   7.152   4.848   3.895
 6135W        W10199   4.572   0.001   1.009
 6136W        W10200   8.539   4.056  11.344
 6137W        W10201   3.170   5.680  11.226
 6138W        W10202   5.635   2.649   1.894
 6139W        W10203   6.432   8.830   9.542
 6140W        W10204   2.570   1.965   2.168
 6141W        W10205   3.368   9.793   1.837
 6142W        W10206   0.620   7.408   8.370
 6143W        W10207   5.626   8.317   1.177
 6144W        W10208   2.482   4.818   9.876
 6145W        W10209   0.245   4.352  11.969
 6146W        W10210   3.715   0.868   1.202
 6147W        W10211   0.397   3.822   9.136
 6148W        W10212   5.936   9.520   2.491
 6149W        W10213   1.707   3.793   1.829
 6150W        W10214   4.780   6.271   2.431
 6151W        W10215   1.777   8.101   3.295
 6152W        W10216   1.738   3.889   9.388
 6153W        W10217   4.726   0.766  11.105
 6154W        W10218   9.899   8.494  11.502
 6155W        W10219   0.419   6.169   2.481
 6156W        W10220   2.348   1.749   9.740
 6157W        W10221   8.011   5.095   2.105
 6158W        W10222   5.485  10.320  10.213
 6159W        W10223   3.291   2.324   2.621
 6160W        W10224   1.785   3.525   3.351
 6161W        W10225   5.135   9.549   0.269
 6162W        W10226   6.043   1.290   2.780
 6163W        W10227   8.950   2.016   2.416
 6164W        W10228   9.141   5.098   1.836
 6165W        W10229   0.713   7.184   1.765
 6166W        W10230   2.264   4.159   0.894
 6167W        W10231   7.133   1.255   0.715
 6168W        W10232   7.598   2.846   0.967
 6169W        W10233   6.769   6.960   2.682
 6170W        W10234   9.476   8.410   2.481
 6171W        W10235   1.227   2.813   9.472
 6172W        W10236   2.221   9.325  11.884
 6173W        W10237   7.497   5.634  10.868
 6174W        W10238   0.393   0.863   0.916
 6175W        W10239   5.592   4.294   2.613
 6176W        W10240   1.424   3.404   0.310
 6177W        W10241   8.912   9.473   1.784
 6178W        W10242   4.699   5.759  11.359
 6179W        W10243   7.239   2.549   0.745
 6180W        W10244   3.699   7.964   1.432
 6181W        W10245   7.725  10.232  11.990
 6182W        W10246   0.388   5.981  11.150
 6183W        W10247   0.785   0.419  11.809
 6184W        W10248   3.112   3.570   0.012
 6185W        W10249   0.364   8.582   3.107
 6186W        W10250   4.254   9.174   9.477
 6187W        W10251   2.375   3.077   0.342
 6188W        W10252   3.173   2.761   3.554
 6189W        W10253   5.205   3.850   8.963
 6190W        W10254   2.827   8.866   1.172
 6191W        W10255  10.330   5.673   1.706
 6192W        W10256   0.954   2.123  10.429
 6193W        W10257   5.540   2.643   0.298
 6194W        W10258   6.474   4.283   8.924
 6195W        W10259   3.256   9.282  11.484
 6196W        W10260   3.784   4.706   0.980
 6197W        W10261   0.843   1.421   1.963
 6198W        W10262   9.545   1.587  11.718
 6199W        W10263   8.083   8.279   0.605
 6200W        W10264   1.816   5.103  10.336
 6201W        W10265   9.958   6.401   1.852
 6202W        W10266   4.939   6.442   0.344
 6203W        W10267   3.380   9.897  10.682
 6204W        W10268   6.558   2.469   2.863
 6205W        W10269   5.276   3.265   8.483
 6206W        W10270   8.943   3.148   8.893
 6207W        W10271   3.205   1.367  10.123
 6208W        W10272   9.767   6.539   8.869
 6209W        W10273   9.904   6.962   8.542
 6210W        W10274   4.609   1.551   2.860
 6211W        W10275   4.633   2.666   2.411
 6212W        W10276   3.983   4.250  11.639
 6213W        W10277   4.414   8.695   9.550
 6214W        W10278   6.238   6.912   0.013
 6215W        W10279   6.115   4.944   0.926
 6216W        W10280   2.780  10.112   2.328
 6217W        W10281   2.130  10.022   9.865
 6218W        W10282   4.691   0.997  10.200
 6219W        W10283   6.571   1.903   1.358
 6220W        W10284   6.060  10.401  10.291
 6221W        W10285   9.347   9.589   2.065
 6222W        W10286   8.671   5.740   8.510
 6223W        W10287   5.485   1.233   0.598
 6224W        W10288   0.642   9.863   9.811
 6225W        W10289   6.861   0.897   1.395
 6226W        W10290   5.221   3.201  11.736
 6227W        W10291   6.067   2.675   9.008
 6228W        W10292   0.429   9.033   3.590
 6229W        W10293   8.144   3.602   8.938
 6230W        W10294   0.696   1.801  -0.000
 6231W        W10295   0.969   6.039   9.307
 6232W        W10296   8.083   7.590  10.852
 6233W        W10297   7.951   9.466   1.620
 6234W        W10298   6.947   3.781   9.693
 6235W        W10299   6.072   2.080   1.171
 6236W        W10300   9.306   7.496  10.616
 6237W        W10301   6.629   2.974   2.883
 6238W        W10302   5.631   9.364   1.698
 6239W        W10303   7.089   8.604  11.971
 6240W        W10304   2.849   2.377  10.913
 6241W        W10305   8.534   9.442   8.959
 6242W        W10306   1.288   6.049   1.000
 6243W        W10307   5.250   1.849  10.936
 6244W        W10308   9.093   6.991  11.180
 6245W        W10309   0.006   1.721   1.136
 6246W        W10310   6.621   0.802   9.995
 6247W        W10311   5.989   3.805   8.249
 6248W        W10312   9.234   2.176   9.992
 6249W        W10313   4.079   6.618   1.474
 6250W        W10314   5.187   8.987   9.940
 6251W        W10315   6.112   2.800   1.702
 6252W        W10316   5.229   4.681   9.717
 6253W        W10317   1.698   3.998   3.813
 6254W        W10318   7.364   5.176  11.023
 6255W        W10319   4.532   3.605   9.610
 6256W        W10320   1.984   1.368   2.814
 6257W        W10321   3.087   2.268   8.989
 6258W        W10322   9.466   8.274   0.273
 6259W        W10323   0.843   1.580   8.920
 6260W        W10324   3.833   7.685   1.841
 6261W        W10325   5.607   9.349  10.935
 6262W        W10326   0.719   2.984   1.503
 6263W        W10327   6.872   5.917   1.800
 6264W        W10328   3.068   4.050  11.084
 6265W        W10329   3.063   8.919   9.100
 6266W        W10330   9.843   2.226   0.686
 6267W        W10331   7.930   6.157   1.787
 6268W        W10332  10.238   0.753   0.300
 6269W        W10333   7.484   3.611   8.988
 6270W        W10334   5.928   0.555   9.610
 6271W        W10335   7.916   4.558   2.045
 6272W        W10336   6.899   0.298  10.533
 6273W        W10337   2.173   0.483  11.239
 6274W        W10338   3.316   0.748   2.422
 6275W        W10339   5.810   0.035   9.850
 6276W        W10340  10.189   1.258   3.407
 6277W        W10341   1.236   4.266  11.792
 6278W        W10342   6.662   6.087   8.772
 6279W        W10343   7.996   0.437   3.344
 6280W        W10344   1.436   0.320   2.049
 6281W        W10345   0.330   3.805   1.731
 6282W        W10346   7.934   9.930  10.654
 6283W        W10347   4.140   2.694   0.197
 6284W        W10348   9.514   5.188   9.048
 6285W        W10349   4.183   3.767   1.848
 6286W        W10350   6.628   3.806   2.475
 6287W        W10351   7.711   3.153   1.769
 6288W        W10352   5.383   0.439   2.746
 6289W        W10353   4.928   9.800   3.561
 6290W        W10354   3.784   2.131   8.566
 6291W        W10355   5.489   5.276   9.898
 6292W        W10356   3.109   4.767  10.593
 6293W        W10357   6.970   4.079  10.368
 6294W        W10358   0.251   1.711   3.108
 6295W        W10359   5.573   0.272  11.963
 6296W        W10360   3.302  10.299   3.448
 6297W        W10361   3.434   7.550   3.652
 6298W        W10362   1.257   1.699   0.370
 6299W        W10363   1.756   8.622   4.111
 6300W        W10364   3.732   1.172   3.078
 6301W        W10365   6.032   8.052  11.526
 6302W        W10366   2.868   3.140   0.189
 6303W        W10367   4.256   5.703   9.639
 6304W        W10368   3.664   8.690   1.833
 6305W        W10369   5.562   9.823   0.434
 6306W        W10370   2.277   4.745  11.750
 6307W        W10371   4.179   0.889   2.549
 6308W        W10372   6.774   3.246   1.724
 6309W        W10373   2.475   7.329  10.190
 6310W        W10374   7.932   0.325  11.044
 6311W        W10375   7.367   3.700   1.403
 6312W        W10376   9.846   5.973  11.443
 6313W        W10377   6.162   7.040   9.148
 6314W        W10378   9.141   0.880   9.915
 6315W        W10379   2.763   5.121  10.479
 6316W        W10380   7.484   2.887   2.921
 6317W        W10381   2.257   5.759   1.359
 6318W        W10382   1.218   0.476  11.545
 6319W        W10383   9.463   1.075  11.859
 6320W        W10384   6.099   8.809   9.937
 6321W        W10385   1.404   3.827   3.459
 6322W        W10386   4.838   8.898  11.811
 6323W        W10387   3.323   5.984   2.782
 6324W        W10388   9.088   2.698  10.000
 6325W        W10389   5.239   3.115   2.571
 6326W        W10390   8.952   4.975   1.349
 6327W        W10391   3.761   3.163   1.455
 6328W        W10392   3.205   7.751   1.467
 6329W        W10393  10.102   3.945   9.760
 6330W        W10394   0.020   0.363   1.678
 6331W        W10395   7.097   3.784  10.775
 6332W        W10396   7.895   3.158   8.799
 6333W        W10397   0.159   7.808   2.970
 6334W        W10398   8.443   5.138  11.859
 6335W        W10399   9.074   5.537   1.005
 6336W        W10400   5.758   1.597   3.442
 6337W        W10401   4.058   1.395  10.113
 6338W        W10402   3.180   8.850   1.951
 6339W        W10403   3.346   0.047   9.873
 6340W        W10404   2.447   6.460  10.250
 6341W        W10405   9.360   5.855   0.278
 6342W        W10406   3.141   6.556   3.486
 6343W        W10407   3.807  10.046   1.871
 6344W        W10408   3.338  10.037   9.787
 6345W        W10409   5.028   0.230   1.875
 6346W        W10410   5.280   8.083  10.326
 6347W        W10411   1.361   8.992   2.025
 6348W        W10412   1.400   2.263  10.140
 6349W        W10413   1.832   2.617   3.434
 6350W        W10414   0.200   3.747   2.750
 6351W        W10415   5.758   6.577  11.162
 6352W        W10416   8.028   9.396  11.438
 6353W        W10417   6.164   1.857  11.044
 6354W        W10418   5.091   8.080  11.355
 6355W        W10419   4.525   1.369   9.905
 6356W        W10420   6.141   7.074   0.484
 6357W        W10421   3.060   1.865   0.973
 6358W        W10422   6.951   4.643   1.489
 6359W        W10423   1.009  10.158   8.652
 6360W        W10424   6.338   8.274   3.246
 6361W        W10425   2.462   4.267  10.523
 6362W        W10426   2.129   0.779   9.934
 6363W        W10427   7.201   9.807   0.709
 6364W        W10428   9.417   1.740   1.960
 6365W        W10429   1.799   9.319   9.181
 6366W        W10430   5.588   8.666  11.822
 6367W        W10431   9.767   4.594  11.314
 6368W        W10432   7.108   5.934   2.616
 6369W        W10433   1.839   5.676  10.991
 6370W        W10434   9.354   4.945  11.963
 6371W        W10435   3.106   1.320   9.100
 6372W        W10436   7.870  10.269  11.489
 6373W        W10437   1.544   0.211  11.879
 6374W        W10438   6.349   5.591   2.524
 6375W        W10439   8.551   0.991  11.047
 6376W        W10440   0.634   4.590   1.871
 6377W        W10441   7.512   7.118   0.670
 6378W        W10442   6.645   4.733   3.133
 6379W        W10443   8.511  10.346   3.096
 6380W        W10444   8.006   1.834   2.740
 6381W        W10445   7.053   0.472   0.616
 6382W        W10446   2.223   3.226   2.353
 6383W        W10447   3.215   4.710   9.555
 6384W        W10448   9.277   9.868  10.549
 6385W        W10449   5.340   3.087   2.077
 6386W        W10450   4.223   7.963   3.395
 6387W        W10451   2.383   4.116   2.367
 6388W        W10452   0.730   4.222   0.696
 6389W        W10453   9.434   9.653   9.147
 6390W        W10454   5.739   1.153  11.972
 6391W        W10455   8.885   2.320   1.995
 6392W        W10456   6.933   0.451   8.973
 6393W        W10457   8.957   5.684   1.956
 6394W        W10458   1.714   3.780  10.775
 6395W        W10459   9.667   3.550   3.551
 6396W        W10460   8.471   8.494  10.858
 6397W        W10461   8.094   0.436   0.609
 6398W        W10462   0.795   3.133  10.048
 6399W        W10463   6.212   9.594   0.987
 6400W        W10464   5.315   9.941   0.951
 6401W        W10465  10.063   3.195   2.085
 6402W        W10466  10.382   9.296  10.025
 6403W        W10467   6.037   7.159  11.295
 6404W        W10468   2.342   1.474   1.260
 6405W        W10469   6.713   3.217  10.257
 6406W        W10470   3.675   9.100   3.167
 6407W        W10471   2.868   6.130   8.770
 6408W        W10472   3.264   4.760   2.233
 6409W        W10473   3.601  10.466   0.702
 6410W        W10474   8.913   7.574   8.764
 6411W        W10475   9.706   8.758   9.074
 6412W        W10476  10.404   2.138   2.996
 6413W        W10477   2.377   2.113  10.518
 6414W        W10478   2.061   3.229   9.757
 6415W        W10479   6.879   1.814   1.879
 6416W        W10480   9.948   1.353   2.032
 6417W        W10481   9.808   9.096   2.843
 6418W        W10482   2.958   4.292  10.646
 6419W        W10483   5.586   4.475   9.412
 6420W        W10484   5.553   3.324   3.464
 6421W        W10485   0.411   7.255  11.539
 6422W        W10486   2.179   3.771  11.642
 6423W        W10487  10.037   3.475   8.989
 6424W        W10488   2.732   3.109   8.980
 6425W        W10489   8.613   3.853  10.621
 6426W        W10490   3.762   3.116   3.510
 6427W        W10491   7.282   7.168   2.772
 6428W        W10492   1.872   5.011   1.150
 6429W        W10493   6.844   9.818   9.398
 6430W        W10494   3.597   5.042   2.653
 6431W        W10495   0.386   7.857   0.449
 6432W        W10496   8.974   9.370   1.297
 6433W        W10497   5.813   1.772   9.472
 6434W        W10498   2.180   6.514   0.294
 6435W        W10499   5.321   2.866  10.955
 6436W        W10500   8.964   9.480   9.245
 6437W        W10501   7.163   5.213   8.443
 6438W        W10502   5.151   6.635  10.459
 6439W        W10503   9.487   4.056   0.268
 6440W        W10504   8.341   1.843   0.777
 6441W        W10505   9.130   6.096   3.705
 6442W        W10506   8.845   8.339   3.108
 6443W        W10507   1.714   0.546   0.238
 6444W        W10508   1.300  10.472  11.466
 6445W        W10509   9.979   8.536   2.443
 6446W        W10510   8.430   6.009   1.763
 6447W        W10511   1.219   7.191   3.062
 6448W        W10512   5.640   8.297   9.519
 6449W        W10513   4.273   4.773   8.602
 6450W        W10514   9.972   7.908  11.103
 6451W        W10515   7.314   5.084   3.069
 6452W        W10516   8.053   2.271   1.963
 6453W        W10517   6.455   9.837   0.452
 6454W        W10518   4.987   3.656   9.381
 6455W        W10519   6.175   6.327  11.368
 6456W        W10520   1.868   0.356   3.001
 6457W        W10521   2.217   4.672   9.452
 6458W        W10522   6.509   9.619   9.756
 6459W        W10523   4.939   8.042   2.278
 6460W        W10524   4.418   2.607   1.789
 6461W        W10525  10.260   9.641  10.951
 6462W        W10526   6.237   5.183   2.262
 6463W        W10527   5.470   3.331   1.499
 6464W        W10528   0.711   7.815   9.074
 6465W        W10529   6.248  10.417   3.174
 6466W        W10530   6.324   2.832   0.806
 6467W        W10531   5.449   1.156  10.499
 6468W        W10532   4.683   2.746  10.109
 6469W        W10533   1.841   6.156   2.237
 6470W        W10534   6.248   5.027   3.327
 6471W        W10535   1.640   6.543   8.828
 6472W        W10536   6.066   6.094   1.826
 6473W        W10537   5.679   4.317   1.374
 6474W        W10538   3.819   7.738   0.361
 6475W        W10539   0.431   6.540   3.430
 6476W        W10540   0.855   4.965  10.252
 6477W        W10541   0.158  10.212   2.079
 6478W        W10542   5.272   2.703  11.860
 6479W        W10543   9.569   3.119   0.266
 6480W        W10544  10.195   6.469   8.563
 6481W        W10545   5.256  10.440   2.819
 6482W        W10546   7.444   9.106   9.518
 6483W        W10547   4.477   6.462   0.145
 6484W        W10548   8.654   9.583   2.745
 6485W        W10549   2.384   4.232   1.411
 6486W        W10550  10.364   2.192   0.940
 6487W        W10551   7.992   7.916  10.037
 6488W        W10552   1.452   9.589  11.494
 6489W        W10553   5.622   7.202   3.547
 6490W        W10554   2.852   6.934   8.679
 6491W        W10555   3.014   3.506   0.544
 6492W        W10556   0.351   9.921   3.272
 6493W        W10557   5.499   9.387   2.249
 6494W        W10558   7.684   3.281   1.258
 6495W        W10559   6.236   4.045   4.109
 6496W        W10560   8.090   0.719   1.450
 6497W        W10561   0.412   4.116   1.333
 6498W        W10562   3.536   0.533  11.053
 6499W        W10563   4.788   9.856   1.748
 6500W        W10564   5.050   6.577   3.363
 6501W        W10565   1.846   1.387   0.986
 6502W        W10566   6.224   5.229   1.774
 6503W        W10567  10.035   5.799   2.331
 6504W        W10568   8.619   1.658  11.839
 6505W        W10569   6.055   8.548   1.906
 6506W        W10570   7.364   9.223   2.895
 6507W        W10571   8.856   8.368   1.951
 6508W        W10572   7.416   1.243   2.448
 6509W        W10573   9.572   9.500  11.558
 6510W        W10574   0.959   6.861   0.819
 6511W        W10575   6.989   0.793  11.419
 6512W        W10576   1.256   1.305   2.259
 6513W        W10577   1.642   9.082   3.398
 6514W        W10578   4.059   5.891  10.064
 6515W        W10579   2.649   2.489  11.790
 6516W        W10580   1.589   7.442  10.390
 6517W        W10581   1.173   0.997   1.329
 6518W        W10582   6.113   4.469   1.107
 6519W        W10583   3.353   2.573   1.875
 6520W        W10584   5.817   2.708  10.950
 6521W        W10585   8.328   7.304   1.153
 6522W        W10586   6.237   7.778   0.412
 6523W        W10587   0.548   4.061  10.441
 6524W        W10588   6.549   2.761   2.443
 6525W        W10589   2.195   2.829   1.141
 6526W        W10590   0.639  10.294   1.920
 6527W        W10591   6.291   1.351  10.240
 6528W        W10592   8.969   4.040   9.097
 6529W        W10593   8.816   2.799   0.535
 6530W        W10594   3.199   6.718   1.546
 6531W        W10595   5.194   0.887   1.896
 6532W        W10596   8.063   7.734   1.167
 6533W        W10597   8.262  10.473   9.746
 6534W        W10598   1.753   3.021   2.517
 6535W        W10599   1.791   6.117  10.701
 6536W        W10600   9.443   2.414   1.406
 6537W        W10601   4.941   6.381   1.948
 6538W        W10602   9.403   5.428   2.686
 6539W        W10603   4.806   8.631   9.893
 6540W        W10604   2.164   6.539  11.263
 6541W        W10605   4.646   3.325   2.628
 6542W        W10606   5.702   0.235  10.943
 6543W        W10607   1.408   8.519   2.753
 6544W        W10608   2.742   6.036  10.294
 6545W        W10609   2.797   2.215   0.243
 6546W        W10610   3.781   5.456   3.461
 6547W        W10611   4.586   6.025   2.032
 6548W        W10612   6.426   2.315   9.087
 6549W        W10613   1.850   2.251   2.727
 6550W        W10614   8.808   1.329   3.079
 6551W        W10615   7.174   1.063  10.810
 6552W        W10616   2.394   2.348   1.868
 6553W        W10617   0.929   1.129  10.230
 6554W        W10618   6.572   0.781   2.742
 6555W        W10619   0.379   9.879   2.785
 6556W        W10620   4.512   2.625   9.113
 6557W        W10621   2.195   1.417   9.343
 6558W        W10622   3.684   5.372   0.371
 6559W        W10623   8.552   6.356   0.242
 6560W        W10624   7.224  10.326  11.875
 6561W        W10625   3.605   8.458  10.534
 6562W        W10626   4.699   8.913   2.641
 6563W        W10627   7.924   2.724   2.740
 6564W        W10628   3.214   0.925   0.951
 6565W        W10629   1.586   3.117   0.719
 6566W        W10630   5.434   8.040   2.332
 6567W        W10631   9.357   3.628   2.435
 6568W        W10632   4.259   5.676  11.736
 6569W        W10633   1.134   2.862   8.485
 6570W        W10634   9.084   6.428  11.030
 6571W        W10635   3.768   6.954  10.483
 6572W        W10636   8.837   3.754   1.917
 6573W        W10637   9.883   7.732   3.544
 6574W        W10638   6.618   0.524   0.265
 6575W        W10639   3.302   6.605   9.769
 6576W        W10640  10.076   9.317  11.275
 6577W        W10641   5.795   4.295   3.111
 6578W        W10642   5.615   3.205   0.461
 6579W        W10643   0.770   9.008   3.212
 6580W        W10644   7.810   7.142  10.172
 6581W        W10645   8.495   5.984   9.080
 6582W        W10646   1.468   0.030   2.857
 6583W        W10647   0.425   0.331   0.765
 6584W        W10648   3.622   5.486  10.347
 6585W        W10649   8.868  10.300   0.890
 6586W        W10650   8.607   8.555   8.984
 6587W        W10651   5.854   4.395   2.173
 6588W        W10652   0.194   6.501   8.733
 6589W        W10653   6.525   6.784   8.847
 6590W        W10654   0.121   8.611  10.917
 6591W        W10655   7.846   3.658   9.351
 6592W        W10656   3.011   7.079   1.872
 6593W        W10657   7.857   7.651   2.162
 6594W        W10658   5.168  10.224   1.856
 6595W        W10659   5.723   4.091   4.007
 6596W        W10660   5.492   7.619  11.825
 6597W        W10661   6.170   2.802  11.952
 6598W        W10662   4.936   8.782   8.473
 6599W        W10663   5.513   0.753   0.202
 6600W        W10664   8.354   5.999   0.888
 6601W        W10665   5.169   5.995   2.766
 6602W        W10666   8.578   4.185   1.733
 6603W        W10667   6.203   3.725  10.406
 6604W        W10668   2.179   2.305   0.953
 6605W        W10669   9.435   5.358   0.275
 6606W        W10670   7.455   3.081   9.741
 6607W        W10671   5.812   4.762   3.342
 6608W        W10672   1.977   6.133  11.721
 6609W        W10673   4.143   4.892   9.781
 6610W        W10674   5.904   1.386   9.821
 6611W        W10675   1.852   6.938   1.457
 6612W        W10676   4.991   1.673   2.502
 6613W        W10677   3.767   2.264   2.067
 6614W        W10678   6.951   6.289   9.460
 6615W        W10679   3.401   1.902  11.255
 6616W        W10680   1.785   0.847   0.638
 6617W        W10681   3.341   4.498   0.807
 6618W        W10682   9.762   4.192   2.952
 6619W        W10683   4.489  10.383   8.655
 6620W        W10684   0.256   6.192  10.273
 6621W        W10685   3.313   1.140   2.783
 6622W        W10686   1.852   5.645   8.688
 6623W        W10687   8.561   8.348   8.502
 6624W        W10688   5.083   1.415  10.691
 6625W        W10689   0.771   5.489   1.498
 6626W        W10690   9.281   8.186   2.891
 6627W        W10691   6.523   5.605  11.179
 6628W        W10692  10.356   5.971  11.311
 6629W        W10693   9.475   6.881   0.070
 6630W        W10694   9.672   2.493  11.518
 6631W        W10695   7.578   8.463   8.364
 6632W        W10696   7.959   1.366   9.349
 6633W        W10697   0.810   7.506   1.376
 6634W        W10698   0.905   3.595   0.285
 6635W        W10699   1.606   0.798  11.325
 6636W        W10700  10.265   7.464  11.291
 6637W        W10701   8.424   8.061  11.880
 6638W        W10702   6.997   2.263   3.573
 6639W        W10703   3.116   3.551  11.090
 6640W        W10704   0.328   5.792   1.005
 6641W        W10705   4.266   0.739  10.880
 6642W        W10706   7.971   6.949   0.436
 6643W        W10707   1.399   7.564  11.846
 6644W        W10708   4.976   3.524   9.880
 6645W        W10709   1.896   7.196   2.300
 6646W        W10710   1.286   6.319  11.285
 6647W        W10711   4.191   8.562   1.796
 6648W        W10712   4.955  10.298  10.140
 6649W        W10713   7.976   4.098  10.526
 6650W        W10714   8.913   2.818   9.553
 6651W        W10715   2.423   6.161   9.008
 6652W        W10716   1.014   8.487  10.716
 6653W        W10717   8.990   9.956   1.979
 6654W        W10718   1.266   9.027   3.033
 6655W        W10719   7.241   3.966   9.272
 6656W        W10720   7.177   0.484   0.125
 6657W        W10721   8.722  10.416   9.976
 6658W        W10722   2.779   6.894   2.275
 6659W        W10723   4.735   7.350  11.140
 6660W        W10724   2.203   3.709   0.656
 6661W        W10725   4.760   3.608   1.002
 6662W        W10726   9.279   1.794   3.633
 6663W        W10727   9.886   3.796  10.959
 6664W        W10728   6.406   9.556   3.380
 6665W        W10729   3.294   4.567   2.729
 6666W        W10730   3.297   7.034   0.182
 6667W        W10731   6.705   9.563   0.846
 6668W        W10732   5.652   9.239   3.334
 6669W        W10733   4.244   1.299   0.699
 6670W        W10734   8.809   3.811  11.717
 6671W        W10735  10.040   2.224   0.226
 6672W        W10736   6.097   0.918   8.958
 6673W        W10737   6.356   0.854   3.521
 6674W        W10738   9.113   1.442   1.696
 6675W        W10739   2.295  10.226  11.441
 6676W        W10740   0.693   7.864   9.582
 6677W        W10741   4.340   3.095   2.287
 6678W        W10742   2.459   9.714   9.572
 6679W        W10743   0.776   1.905   1.833
 6680W        W10744   5.569   9.827   2.703
 6681W        W10745   0.029   0.683   2.666
 6682W        W10746   0.351   5.020  10.266
 6683W        W10747   2.872   7.465   9.878
 6684W        W10748   8.669   1.221   1.944
 6685W        W10749   9.922   4.825   3.245
 6686W        W10750  10.104   8.629   2.961
 6687W        W10751   2.657   6.242   9.821
 6688W        W10752   6.631   5.707  10.699
 6689W        W10753   2.160   8.241  11.858
 6690W        W10754   5.269   6.929  10.056
 6691W        W10755   0.251   5.991   2.929
 6692W        W10756   1.014   7.624  11.466
 6693W        W10757   8.115   3.506   0.730
 6694W        W10758  10.438  10.212  11.310
 6695W        W10759   0.573   9.421   2.918
 6696W        W10760   6.465   2.341  10.481
 6697W        W10761   4.215   7.078  11.669
 6698W        W10762   6.384   5.122   2.745
 6699W        W10763   2.221   1.635   0.653
 6700W        W10764   9.081   1.877   8.930
 6701W        W10765   2.254   2.676   3.085
 6702W        W10766   0.373   3.607   1.256
 6703W        W10767   8.853   8.629   9.625
 6704W        W10768   5.985   2.331   0.251
 6705W        W10769   6.314   9.820   1.734
 6706W        W10770   2.563   7.333  10.733
 6707W        W10771   3.227   8.890   0.523
 6708W        W10772   3.310   4.201  10.276
 6709W        W10773  10.499   8.416   9.052
 6710W        W10774   7.413  10.205   0.953
 6711W        W10775   3.163   1.838   9.894
 6712W        W10776   8.083   3.140   2.492
 6713W        W10777   6.023   4.600   8.613
 6714W        W10778   4.595   4.107   1.785
 6715W        W10779   0.194   9.001   8.887
 6716W        W10780   4.164   3.292   2.777
 6717W        W10781   2.665   5.659  11.255
 6718W        W10782   7.054  10.470   0.724
 6719W        W10783   2.298   1.174   0.844
 6720W        W10784   3.752   5.502   2.452
 6721W        W10785   4.035   4.143   9.479
 6722W        W10786   9.786   5.928   1.903
 6723W        W10787   3.242  10.224  11.062
 6724W        W10788   0.026   7.588   0.707
 6725W        W10789   4.116   5.947  10.914
 6726W        W10790   7.001   3.356  11.077
 6727W        W10791   1.270   9.946   2.895
 6728W        W10792   7.413  10.411   9.505
 6729W        W10793   2.313   7.525   3.265
 6730W        W10794  10.324   1.171   8.831
 6731W        W10795   5.176   6.038   1.324
 6732W        W10796   8.321   3.092   3.368
 6733W        W10797   9.898   7.158   3.498
 6734W        W10798   6.984   9.986   3.135
 6735W        W10799   4.288   1.666   1.401
 6736W        W10800   6.566   3.561  11.552
 6737W        W10801   1.330   9.998   0.950
 6738W        W10802   3.668   5.762   8.874
 6739W        W10803   9.969   3.368   0.773
 6740W        W10804   4.468   7.926   2.403
 6741W        W10805   6.514   5.724   1.127
 6742W        W10806   0.915   6.199   0.391
 6743W        W10807   0.872   5.976   1.291
 6744W        W10808  10.327   3.985   0.648
 6745W        W10809   6.548   7.057   2.223
 6746W        W10810   9.525  10.243  10.295
 6747W        W10811   9.587   2.407   2.944
 6748W        W10812   6.379   1.811   1.875
 6749W        W10813   2.193   8.961   0.736
 6750W        W10814   5.082   7.210   0.766
 6751W        W10815   3.277   6.077   1.893
 6752W        W10816   7.563  10.067   0.485
 6753W        W10817   0.392   9.424   0.407
 6754W        W10818   6.996   4.254   8.922
 6755W        W10819   5.689   6.041   1.475
 6756W        W10820   9.197   3.283  11.932
 6757W        W10821   6.579   8.641  10.078
 6758W        W10822   4.658   8.478  10.945
 6759W        W10823   9.953   3.830   3.233
 6760W        W10824   5.112   0.866  11.924
 6761W        W10825   0.252   5.842   9.749
 6762W        W10826   5.549   1.158   1.089
 6763W        W10827   4.187   3.644   3.170
 6764W        W10828   2.278   6.706   3.039
 6765W        W10829   7.660   0.861  10.929
 6766W        W10830   6.866   9.430   2.460
 6767W        W10831  10.242   7.912   9.213
 6768W        W10832   2.609   8.798   2.123
 6769W        W10833   8.979   6.676   0.063
 6770W        W10834   1.614   8.999   1.033
 6771W        W10835   8.005   0.433   0.034
 6772W        W10836   2.335   4.712   1.208
 6773W        W10837   2.603   9.856   1.451
 6774W        W10838   6.690   5.399  10.312
 6775W        W10839   7.509   2.783   8.498
 6776W        W10840   8.856   1.779   0.783
 6777W        W10841   1.230   5.455  10.913
 6778W        W10842   5.307   6.459  11.434
 6779W        W10843   2.361   8.658   1.147
 6780W        W10844   5.494   0.435   9.884
 6781W        W10845   8.878   2.585   2.428
 6782W        W10846   6.698   9.001   9.051
 6783W        W10847   5.413   7.123   9.605
 6784W        W10848   0.250   8.432   8.592
 6785W        W10849   8.560   4.266   0.724
 6786W        W10850   8.919   3.113  10.424
 6787W        W10851   5.103   0.876   3.177
 6788W        W10852   7.631   1.244   0.110
 6789W        W10853   7.639   9.158   0.892
 6790W        W10854   5.560   4.335  10.742
 6791W        W10855   9.810   2.891   0.925
 6792W        W10856   1.748  10.224   0.752
 6793W        W10857   2.382   4.680   1.722
 6794W        W10858   6.354   8.350   0.356
 6795W        W10859   0.249   4.558   1.511
 6796W        W10860   5.226   2.909   1.629
 6797W        W10861   6.588   9.522   8.931
 6798W        W10862   3.520   8.552   3.091
 6799W        W10863   1.425   8.604  10.402
 6800W        W10864   8.914   6.655   1.988
 6801W        W10865   1.762   8.606   3.153
 6802W        W10866   5.097   4.132   3.338
 6803W        W10867   8.197   9.517   3.495
 6804W        W10868   6.180   9.867  10.076
 6805W        W10869   7.779   5.950  10.049
 6806W        W10870   4.165   0.881   0.383
 6807W        W10871   9.842   7.441   9.327
 6808W        W10872   4.285   0.416   0.225
 6809W        W10873   7.130   6.051   8.559
 6810W        W10874   1.252   9.853  10.787
 6811W        W10875   9.370   0.545  11.951
 6812W        W10876  10.256   5.786   0.225
 6813W        W10877   1.642   0.740   3.343
 6814W        W10878   2.455   4.603   0.716
 6815W        W10879   5.542   7.947   9.870
 6816W        W10880   5.188   5.657  10.411
 6817W        W10881   4.713   9.105   9.711
 6818W        W10882   8.341   3.257  11.273
 6819W        W10883  10.068  10.440   9.475
 6820W        W10884   6.878   8.965   1.671
 6821W        W10885   3.243   0.197  10.805
 6822W        W10886   4.473   8.077  10.699
 6823W        W10887   6.813   4.273  11.701
 6824W        W10888   9.849   4.777   2.357
 6825W        W10889   5.786   6.141   0.102
 6826W        W10890   5.114   1.397   1.820
 6827W        W10891   3.563   4.655  10.391
 6828W        W10892   5.650   8.407  11.353
 6829W        W10893   4.586   1.014   2.909
 6830W        W10894   0.560   3.327   2.826
 6831W        W10895   0.115   8.889   9.374
 6832W        W10896   4.970   1.700   0.048
 6833W        W10897  10.363   3.282   1.659
 6834W        W10898   9.026   0.863   8.951
 6835W        W10899   6.410   0.324  10.400
 6836W        W10900   3.327   9.586   0.102
 6837W        W10901   9.939   4.188   2.470
 6838W        W10902  10.292   2.228   2.477
 6839W        W10903   1.225   3.059   1.615
 6840W        W10904   2.980   1.742  11.507
 6841W        W10905   5.432   5.684   2.373
 6842W        W10906   8.874   3.692   9.472
 6843W        W10907   0.723   3.276   3.354
 6844W        W10908   3.955   8.918  11.966
 6845W        W10909   9.420   6.972   3.477
 6846W        W10910   6.657   5.409   1.949
 6847W        W10911   7.587   0.573   1.340
 6848W        W10912   5.595   7.038   2.317
 6849W        W10913   7.131   1.311   0.205
 6850W        W10914   5.455  10.378   0.285
 6851W        W10915   8.579  10.219   8.637
 6852W        W10916   8.892   7.160   0.231
 6853W        W10917   4.062   7.136  10.881
 6854W        W10918   8.876   5.083   9.837
 6855W        W10919   3.740   5.082   9.092
 6856W        W10920   0.385   2.252  11.935
 6857W        W10921   7.253   8.778   8.730
 6858W        W10922   0.094   9.436   3.518
 6859W        W10923   0.295   1.732  11.714
 6860W        W10924   1.775   2.086  11.626
 6861W        W10925   7.634   2.121   8.372
 6862W        W10926   4.005   4.152   3.100
 6863W        W10927   3.264  10.284  11.578
 6864W        W10928   7.562   1.670  10.281
 6865W        W10929   9.260   5.120   3.331
 6866W        W10930   9.549  10.019   0.750
 6867W        W10931   0.578   3.282  11.294
 6868W        W10932   1.753   2.586   9.096
 6869W        W10933   4.924   6.072   3.270
 6870W        W10934   9.852   6.821   2.234
 6871W        W10935   2.463   5.545   2.215
 6872W        W10936   5.014   1.754   3.086
 6873W        W10937   6.755   2.595   0.829
 6874W        W10938   5.463   2.261   9.601
 6875W        W10939   6.405   1.205   9.778
 6876W        W10940   7.960   2.287  11.878
 6877W        W10941   1.315   2.806   8.955
 6878W        W10942   1.269   7.361   0.329
 6879W        W10943   4.939   1.868   0.890
 6880W        W10944   0.841   4.277  10.818
 6881W        W10945   7.391   9.049  11.189
 6882W        W10946  10.047   5.220   9.334
 6883W        W10947   4.313   3.125  11.858
 6884W        W10948   3.401   1.299   0.261
 6885W        W10949   9.926   5.368   9.897
 6886W        W10950   7.490   4.064   3.855
 6887W        W10951   6.261   4.060   2.177
 6888W        W10952   2.108   1.888   1.967
 6889W        W10953   0.617   7.556   2.342
 6890W        W10954   6.439   3.292   8.980
 6891W        W10955   9.728   6.830   1.740
 6892W        W10956   5.634   8.860   2.997
 6893W        W10957  10.454   1.414   2.468
 6894W        W10958   0.322   4.227   2.039
 6895W        W10959   3.959   1.771  11.734
 6896W        W10960   0.359   1.765  10.298
 6897W        W10961   6.631   3.720   2.994
 6898W        W10962   8.604   5.538   0.809
 6899W        W10963   7.969   4.805   3.518
 6900W        W10964   7.154   9.429  11.990
 6901W        W10965   1.790   6.159  11.221
 6902W        W10966   2.618   7.935  11.981
 6903W        W10967   8.502   0.907  11.565
 6904W        W10968  10.101   5.497  10.482
 6905W        W10969   8.478   5.681   3.169
 6906W        W10970   3.706   0.240   9.561
 6907W        W10971   6.024   9.456   1.991
 6908W        W10972   0.886   0.668   8.470
 6909W        W10973   0.507  10.304   8.759
 6910W        W10974   8.989   9.318   8.743
 6911W        W10975   6.146   1.378  11.737
 6912W        W10976   0.063   8.509  10.413
 6913W        W10977   6.513   9.805  10.952
 6914W        W10978   2.680   2.584   8.956
 6915W        W10979   7.906   2.953  11.271
 6916W        W10980   0.845   3.541   9.234
 6917W        W10981   6.638   4.490  10.480
 6918W        W10982   2.586   5.135  11.005
 6919W        W10983   8.615   5.574  11.684
 6920W        W10984   4.421   1.328   0.238
 6921W        W10985   5.198   6.223   0.806
 6922W        W10986   6.341  10.141   8.247
 6923W        W10987   4.221   5.624   2.742
 6924W        W10988   9.971   7.995  10.105
 6925W        W10989   2.416   7.746   0.737
 6926W        W10990   8.995   3.628   1.181
 6927W        W10991   7.340   5.395  11.806
 6928W        W10992   8.325   3.691  11.855
 6929W        W10993   6.445   7.111   9.577
 6930W        W10994   9.968   7.078   0.084
 6931W        W10995   3.776   5.520   2.962
 6932W        W10996  10.479   0.916  11.890
 6933W        W10997   7.617  10.283   2.978
 6934W        W10998   5.124  10.412   3.342
 6935W        W10999   9.509   4.255   1.235
 6936W        W11000   7.566   4.669   3.194
 6937W        W11001   3.223  10.354   2.444
 6938W        W11002   6.962   3.130   3.665
 6939W        W11003   9.364   8.344  10.937
 6940W        W11004   7.971   7.103   3.280
 6941W        W11005   7.541   7.845   9.447
 6942W        W11006   8.455   3.335   2.814
 6943W        W11007   4.608   3.554   2.077
 6944W        W11008   6.459   4.963  10.443
 6945W        W11009   7.557   1.429   1.531
 6946W        W11010   6.026   4.594   0.559
 6947W        W11011   3.867   7.280   2.854
 6948W        W11012   8.567   0.658   1.693
 6949W        W11013   8.512   1.408  11.387
 6950W        W11014   1.228   4.699   1.348
 6951W        W11015   7.456   7.752  11.906
 6952W        W11016  10.367   2.762   9.114
 6953W        W11017   7.942   9.914   2.824
 6954W        W11018   4.513   6.637   2.192
 6955W        W11019   0.828   4.705   0.865
 6956W        W11020   7.075   4.736  11.536
 6957W        W11021   5.199   2.231  10.590
 6958W        W11022   1.690   4.720   0.447
 6959W        W11023   8.521  10.232   1.266
 6960W        W11024   0.109   8.023   0.997
 6961W        W11025   4.623   7.425  10.299
 6962W        W11026   8.392   9.005  11.508
 6963W        W11027   7.200   9.173   9.071
 6964W        W11028   6.276   6.079   9.985
 6965W        W11029   9.901  10.417   8.920
 6966W        W11030   5.939   1.905   0.604
 6967W        W11031   2.753   2.728   0.473
 6968W        W11032   0.289   5.152   2.170
 6969W        W11033   4.048   9.060   1.904
 6970W        W11034   1.883   5.097   1.666
 6971W        W11035   9.019   4.090   0.941
 6972W        W11036   0.401   5.610   0.519
 6973W        W11037   6.717   4.234   3.281
 6974W        W11038  10.440   7.902   3.499
 6975W        W11039   1.996   1.717  10.099
 6976W        W11040   7.592   0.679   3.113
 6977W        W11041   7.622   1.978   3.722
 6978W        W11042   1.212   8.635  11.688
 6979W        W11043   2.778   5.298  10.000
 6980W        W11044   2.420   2.616   3.566
 6981W        W11045  10.310   2.152   1.477
 6982W        W11046   6.006   1.717   8.615
 6983W        W11047   9.371   8.601   1.111
 6984W        W11048   0.761   3.720   0.795
 6985W        W11049   4.175   7.436   1.555
 6986W        W11050   6.324   4.670   0.146
 6987W        W11051   3.591   1.942   9.539
 6988W        W11052   3.173   6.409   3.985
 6989W        W11053   8.569   4.857   2.767
 6990W        W11054   9.405   0.099   8.978
 6991W        W11055   3.635   4.168   1.624
 6992W        W11056   1.629   4.183   0.800
 6993W        W11057   3.379   7.431   9.233
 6994W        W11058   9.909   9.063   9.445
 6995W        W11059   5.636   4.529   0.884
 6996W        W11060   2.225   4.694  10.339
 6997W        W11061  10.006   2.134  10.678
 6998W        W11062   9.251   9.851  11.806
 6999W        W11063   5.119  10.035   0.498
 7000W        W11064   1.176   0.307   2.528
 7001W        W11065   7.468   0.974  11.472
 7002W        W11066   9.988   2.307  11.180
 7003W        W11067   3.381   1.812  10.372
 7004W        W11068   7.999   4.801   9.977
 7005W        W11069   9.347   7.540   2.827
 7006W        W11070   6.403   0.328   2.896
 7007W        W11071   1.730   4.869   9.419
 7008W        W11072   3.666   1.456   9.392
 7009W        W11073   9.908   8.044   0.440
 7010W        W11074   8.850   1.006   0.367
 7011W        W11075   5.499   7.201  10.493
 7012W        W11076   2.398   9.443   0.684
 7013W        W11077   3.834   4.230  10.418
 7014W        W11078   4.828   4.223   2.232
 7015W        W11079   4.602   2.416   0.157
 7016W        W11080   8.421   5.558   0.149
 7017W        W11081   3.679  10.074  11.342
 7018W        W11082   9.060   4.782  11.332
 7019W        W11083   9.639   7.077   9.915
 7020W        W11084   4.567   8.658   8.827
 7021W        W11085   4.794   4.044  10.339
 7022W        W11086   1.960   0.792   9.013
 7023W        W11087   8.433  10.035   2.679
 7024W        W11088  10.077   5.624   3.646
 7025W        W11089   5.204   2.233   3.183
 7026W        W11090   6.900   5.535   0.029
 7027W        W11091   2.253   0.023   9.033
 7028W        W11092   8.122   5.132   2.598
 7029W        W11093   8.299   0.588  10.381
 7030W        W11094  10.020   5.236   8.815
 7031W        W11095   9.244   9.036  10.343
 7032W        W11096  10.047   4.597   2.793
 7033W        W11097   9.008   4.662  10.155
 7034W        W11098   5.754   4.805   1.286
 7035W        W11099   7.210   6.399   3.273
 7036W        W11100   1.692   3.590   9.799
 7037W        W11101   7.552   4.870   2.199
 7038W        W11102   3.742   1.800   9.020
 7039W        W11103   8.594   5.371   2.675
 7040W        W11104   4.061   9.933   3.159
 7041W        W11105   4.216   2.946   1.490
 7042W        W11106   7.111   4.543   3.444
 7043W        W11107   6.916   6.958  11.442
 7044W        W11108   9.788   4.501   0.258
 7045W        W11109   6.660   4.159   1.828
 7046W        W11110   2.640   6.823  10.881
 7047W        W11111   6.901   9.581   0.380
 7048W        W11112   1.884   3.394   8.494
 7049W        W11113  10.364   4.081   8.361
 7050W        W11114   5.465   9.512   8.958
 7051W        W11115   8.938   7.584   9.764
 7052W        W11116   1.313   3.834   0.071
 7053W        W11117   1.115   4.677   8.475
 7054W        W11118   4.559   3.593   9.074
 7055W        W11119   5.515   1.606   8.524
 7056W        W11120   0.860   7.928  10.049
 7057W        W11121  10.431  10.487  11.817
 7058W        W11122   1.437   2.268   1.384
 7059W        W11123   7.371   9.436   2.298
 7060W        W11124   5.537   6.717  11.946
 7061W        W11125   8.850   2.401   0.075
 7062W        W11126   6.333   2.966   8.556
 7063W        W11127   8.954   0.698  11.728
 7064W        W11128   0.296   4.494  11.486
 7065W        W11129   4.748   6.669   8.579
 7066W        W11130   6.697   6.738   9.325
 7067W        W11131   0.562   1.160   0.328
 7068W        W11132   9.259   2.412  11.794
 7069W        W11133   5.289   1.860  11.665
 7070W        W11134   1.183   1.797  11.859
 7071W        W11135  10.487   4.277   9.595
 7072W        W11136   1.009   3.287   2.412
 7073W        W11137   2.714   7.907   1.462
 7074W        W11138   3.277   6.051   9.051
 7075W        W11139   9.824   2.241   2.215
 7076W        W11140   4.275   2.190   1.463
 7077W        W11141   6.515   6.278   1.746
 7078W        W11142   3.089   6.555   2.005
 7079W        W11143   5.441   6.473   2.682
 7080W        W11144   0.823   9.836   3.109
 7081W        W11145   2.753   0.301   3.532
 7082W        W11146   7.876   2.036   0.947
 7083W        W11147   0.497   6.706   0.970
 7084W        W11148   2.202   1.259  10.502
 7085W        W11149   8.450   0.544   1.150
 7086W        W11150   7.889   1.848   1.728
 7087W        W11151   6.467   5.865   2.097
 7088W        W11152   6.687  10.379   2.875
 7089W        W11153   6.986   6.404   2.758
 7090W        W11154   4.284   2.152  11.866
 7091W        W11155   6.496   9.343   1.795
 7092W        W11156   6.106   2.731   2.729
 7093W        W11157   0.699   8.573  11.596
 7094W        W11158   2.283   7.210   1.452
 7095W        W11159   4.185  10.018  11.269
 7096W        W11160  10.276   6.521   2.257
 7097W        W11161  10.330   1.806  11.550
 7098W        W11162   9.281   4.207  10.077
 7099W        W11163   1.313   6.938  11.054
 7100W        W11164   3.737   7.482  10.523
 7101W        W11165   1.315   1.563  11.429
 7102W        W11166   9.576   0.019  11.215
 7103W        W11167   1.150   1.705  10.967
 7104W        W11168   0.380   3.284   1.761
 7105W        W11169   6.517   4.654   0.806
 7106W        W11170   0.039   9.108   0.175
 7107W        W11171   1.814   3.152   1.189
 7108W        W11172   9.866   7.491  10.833
 7109W        W11173   1.438   9.806   0.443
 7110W        W11174   1.615   4.303   1.907
 7111W        W11175   4.659   1.010   1.164
 7112W        W11176   6.928   6.665   1.292
 7113W        W11177   2.815   6.987  10.416
 7114W        W11178   3.531   7.022   9.577
 7115W        W11179   5.106   0.567   1.489
 7116W        W11180   1.993   4.281   0.441
 7117W        W11181   2.767   9.357   9.347
 7118W        W11182   9.261   8.947   3.568
 7119W        W11183   8.382   7.657   8.987
 7120W        W11184   4.043   7.000   9.563
 7121W        W11185   4.322   6.237   4.129
 7122W        W11186   0.810   0.385   1.857
 7123W        W11187   9.459   2.455   0.906
 7124W        W11188   9.859   5.042   1.540
 7125W        W11189   2.549   7.834   9.989
 7126W        W11190  10.208   0.484   3.081
 7127W        W11191   2.826   0.255   1.758
 7128W        W11192   3.319   4.779  11.056
 7129W        W11193   3.606   6.228   8.658
 7130W        W11194   9.564   2.507  11.005
 7131W        W11195   9.605   8.631   2.921
 7132W        W11196   5.534   9.348   9.451
 7133W        W11197   8.458   8.599   9.968
 7134W        W11198   7.866   5.411   8.845
 7135W        W11199   7.009   2.676   2.255
 7136W        W11200   2.666   1.886   2.654
 7137W        W11201   9.772   7.553  11.420
 7138W        W11202   6.935   3.515   9.201
 7139W        W11203   2.274   3.484  10.692
 7140W        W11204   9.169   9.114   0.432
 7141W        W11205   6.450  10.493   8.984
 7142W        W11206   9.001   2.058  10.888
 7143W        W11207   0.922   7.111  11.395
 7144W        W11208   1.413   5.606   3.286
 7145W        W11209   0.340   2.917   9.322
 7146W        W11210  10.305   5.997  10.477
 7147W        W11211   9.141   5.170   9.403
 7148W        W11212   0.518   3.248   2.303
 7149W        W11213   7.479   2.188  11.722
 7150W        W11214   0.173   1.371   3.516
 7151W        W11215  10.264   4.236  10.931
 7152W        W11216  10.379   2.938   9.620
 7153W        W11217   5.474   7.856   0.284
 7154W        W11218   4.766   7.345   1.303
 7155W        W11219   4.616   2.848   0.441
 7156W        W11220   2.371   7.422  11.219
 7157W        W11221   9.333  10.009   2.811
 7158W        W11222   6.572   5.261   3.638
 7159W        W11223   3.602   0.253   3.518
 7160W        W11224   6.226   5.681  10.355
 7161W        W11225   2.585   0.186   0.005
 7162W        W11226   1.445   4.935   1.833
 7163W        W11227   1.855   8.938   9.803
 7164W        W11228  10.275   1.090  10.983
 7165W        W11229   4.320   4.732   0.980
 7166W        W11230   1.819  10.380  11.158
 7167W        W11231   0.375   6.158   0.641
 7168W        W11232   6.785   1.709   0.849
 7169W        W11233   0.908   3.855  11.752
 7170W        W11234   6.084   3.336   8.061
 7171W        W11235   3.597   6.617   0.194
 7172W        W11236   6.989   5.026   9.369
 7173W        W11237   7.364   9.502  11.521
 7174W        W11238   4.618   9.607   1.041
 7175W        W11239   2.602   4.712  10.724
 7176W        W11240   5.474   7.046   4.006
 7177W        W11241   9.703   7.571   2.177
 7178W        W11242   9.727   2.967  11.323
 7179W        W11243   6.228   5.272   1.288
 7180W        W11244   0.324   3.154  10.318
 7181W        W11245   0.470   8.550   9.465
 7182W        W11246   3.784   8.471   2.313
 7183W        W11247   9.610   8.768   2.147
 7184W        W11248   8.353   2.280  11.499
 7185W        W11249   0.173   2.152  10.001
 7186W        W11250   4.980   0.390   9.161
 7187W        W11251   5.105   7.712   0.647
 7188W        W11252  10.023  10.277   0.811
 7189W        W11253   2.294   6.476  10.733
 7190W        W11254   4.990   5.348   1.648
 7191W        W11255   9.468   1.379   1.325
 7192W        W11256   1.867   4.438  11.486
 7193W        W11257   7.696   6.649  11.355
 7194W        W11258   6.656   5.263   3.139
 7195W        W11259   1.263   5.906   1.962
 7196W        W11260   7.146   4.024   3.067
 7197W        W11261   1.828   6.169   0.240
 7198W        W11262   7.565   7.302   2.370
 7199W        W11263   5.530   9.411  10.434
 7200W        W11264   2.702   6.395   2.323
 7201W        W11265   4.057   9.046   0.477
 7202W        W11266   6.085   2.379   0.746
 7203W        W11267   0.817   8.086   2.244
 7204W        W11268   3.186   6.528   8.803
 7205W        W11269   1.713   8.860   8.906
 7206W        W11270   1.278   5.208  10.454
 7207W        W11271   5.575   2.813   2.812
 7208W        W11272   3.225   1.853   0.499
 7209W        W11273   1.623   6.982   1.910
 7210W        W11274   6.213   3.047   9.352
 7211W        W11275   4.808   8.011   3.615
 7212W        W11276   7.546   9.550   9.300
 7213W        W11277   6.650   1.745   2.343
 7214W        W11278   2.802   2.837   9.888
 7215W        W11279  10.276   2.800  10.510
 7216W        W11280   1.787   6.934  11.268
 7217W        W11281   5.940   8.100  11.014
 7218W        W11282   4.128   5.695   2.142
 7219W        W11283   9.960   7.577   1.322
 7220W        W11284   0.825   9.426  10.039
 7221W        W11285   4.185   5.588  11.251
 7222W        W11286   1.336   8.154  11.561
 7223W        W11287   8.590   3.766   1.446
 7224W        W11288   6.888   0.917   0.421
 7225W        W11289   4.738   5.386  10.416
 7226W        W11290   9.849   8.048   2.298
 7227W        W11291   7.157  10.152   8.747
 7228W        W11292   8.108   8.164  11.319
 7229W        W11293   3.047   2.355  10.035
 7230W        W11294   7.560   6.869  10.899
 7231W        W11295   4.087   4.268   9.974
 7232W        W11296  10.294   6.222   0.482
 7233W        W11297   6.419   9.684   2.584
 7234W        W11298   5.060   9.570  11.741
 7235W        W11299   8.642   4.432   2.447
 7236W        W11300   1.617   7.225   2.736
 7237W        W11301   7.470   7.038   3.284
 7238W        W11302   9.409   5.195   1.274
 7239W        W11303   8.321   9.212   2.401
 7240W        W11304   0.318   8.172  11.597
 7241W        W11305   9.779   1.829   3.625
 7242W        W11306   8.452   8.306   2.272
 7243W        W11307   6.948   4.662   8.599
 7244W        W11308   0.599   7.189   1.030
 7245W        W11309   0.782  10.439  10.961
 7246W        W11310   4.176   9.342   2.317
 7247W        W11311   6.511   2.150   0.891
 7248W        W11312   0.794   7.001  10.265
 7249W        W11313   2.799   5.854   3.947
 7250W        W11314   4.071   6.621  11.430
 7251W        W11315   5.931   6.900  10.519
 7252W        W11316   8.381   8.558   9.463
 7253W        W11317   9.456   0.603   9.072
 7254W        W11318   8.097   5.178   0.338
 7255W        W11319   4.783   4.191   0.278
 7256W        W11320   9.866   0.870  10.317
 7257W        W11321   2.888   6.648   9.501
 7258W        W11322   6.847   5.918   0.354
 7259W        W11323  10.422   6.590   1.735
 7260W        W11324   7.391   4.470   9.825
 7261W        W11325   7.964   3.221   2.994
 7262W        W11326   1.384   4.688   0.027
 7263W        W11327   6.276   0.405   1.059
 7264W        W11328   3.119   0.851  10.181
 7265W        W11329   9.480   8.036   1.629
 7266W        W11330   2.112   4.983   0.611
 7267W        W11331   4.213   9.365  11.880
 7268W        W11332   2.809   6.975   0.944
 7269W        W11333   2.775   3.800  11.447
 7270W        W11334   1.707  10.335   9.721
 7271W        W11335   0.872   5.524   8.612
 7272W        W11336   5.932   6.872   3.313
 7273W        W11337   7.406   7.562   0.397
 7274W        W11338   5.205   0.537   2.277
 7275W        W11339   3.277   9.686  11.135
 7276W        W11340   9.263   7.070  10.321
 7277W        W11341   4.982   5.577   0.280
 7278W        W11342   1.781   1.405  11.262
 7279W        W11343   0.561   5.175   8.886
 7280W        W11344   5.731   9.418   0.911
 7281W        W11345   4.973   6.985  11.414
 7282W        W11346   0.875   9.887   1.694
 7283W        W11347   1.689   9.795   8.996
 7284W        W11348   8.984   6.597   9.565
 7285W        W11349   9.910   2.660  11.978
 7286W        W11350   8.075   8.519   8.513
 7287W        W11351   1.979   5.663   2.325
 7288W        W11352   7.899   7.460   9.280
 7289W        W11353   5.533   5.733   9.020
 7290W        W11354   0.316   3.555   9.995
 7291W        W11355  10.368   6.597  11.820
 7292W        W11356   3.335   3.068  11.991
 7293W        W11357   4.555   7.694   9.879
 7294W        W11358   8.422   2.110  11.976
 7295W        W11359   6.521   7.517  10.638
 7296W        W11360   2.838   2.302   2.910
 7297W        W11361   7.408   2.102   9.750
 7298W        W11362   3.651   5.028   9.599
 7299W        W11363   9.393   7.905   2.476
 7300W        W11364   5.952   8.655   0.333
 7301W        W11365   3.614   3.815   9.422
 7302W        W11366   0.275   6.541   2.123
 7303W        W11367   2.365   5.130   9.298
 7304W        W11368   9.789   8.077   1.231
 7305W        W11369   9.337  10.089   8.881
 7306W        W11370   7.371   1.752  11.974
 7307W        W11371   1.497   3.152   2.952
 7308W        W11372   0.780  10.314  10.087
 7309W        W11373   0.851   7.612   3.605
 7310W        W11374   1.240   1.295   9.081
 7311W        W11375   8.101   0.366   9.082
 7312W        W11376   5.082   0.771   0.992
 7313ION    NA+11377   6.466   4.881   8.684
 7314ION    NA+11378   1.852  10.068   2.202
 7315ION    NA+11379   7.755   7.043  11.710
 7316ION    NA+11380   9.070   5.993   1.326
 7317ION    NA+11381   5.497   3.590   9.491
 7318ION    NA+11382   7.903   4.754   0.139
 7319ION    NA+11383   5.516   4.051   0.950
 7320ION    NA+11384   6.211   1.441  10.735
 7321ION    NA+11385   2.619   8.359   9.926
 7322ION    NA+11386   2.740   4.594  10.252
 7323ION    NA+11387   1.523   2.373  10.630
 7324ION    NA+11388  10.100   4.992  11.459
 7325ION    NA+11389   2.679   0.351  10.309
 7326ION    NA+11390   0.592   9.093   9.399
 7327ION    NA+11391   5.166   4.597   2.666
 7328ION    NA+11392   4.195   8.540   0.229
 7329ION    NA+11393   7.465   4.363   2.310
 7330ION    NA+11394   1.134   7.640   2.301
 7331ION    NA+11395   8.842   0.629   9.571
 7332ION    NA+11396   3.717   2.623  10.086
 7333ION    NA+11397   7.313   1.287   1.961
 7334ION    NA+11398   4.986   3.252   0.666
 7335ION    NA+11399   4.223   5.420   0.505
 7336ION    NA+11400   0.609   8.415  11.112
 7337ION    NA+11401   0.681   2.725   1.072
 7338ION    NA+11402   8.269   1.525   1.788
 7339ION    NA+11403   0.790   2.711   9.777
 7340ION    NA+11404   1.501   2.733  11.999
 7341ION    NA+11405   7.105   9.015   9.896
 7342ION    NA+11406   8.462   6.211   3.093
 7343ION    NA+11407   2.925   9.513   2.715
 7344ION    NA+11408   8.933   9.146   2.672
 7345ION    NA+11409   2.408   2.138  11.032
 7346ION    NA+11410   0.905   5.162  11.965
 7347ION    NA+11411   9.657   2.089  11.837
 7348ION    NA+11412   7.053   7.178   0.365
 7349ION    NA+11413   2.295   1.264   9.972
 7350ION    NA+11414   4.981   4.090  11.779
 7351ION    NA+11415   6.548   7.774   9.025
 7352ION    NA+11416   8.623   8.235  11.399
 7353ION    NA+11417   2.702   6.503   0.321
 7354ION    NA+11418   1.662   5.185   2.711
 7355ION    NA+11419   5.142   8.228   0.924
 7356ION    NA+11420   5.625   6.083  11.218
 7357ION    NA+11421   3.036   7.142   9.500
 7358ION    NA+11422   6.710   9.147   3.248
 7359ION    NA+11423   1.707   7.093  10.774
 7360ION    NA+11424  10.476   1.601   9.098
 7361ION    NA+11425   1.427   8.288   0.562
 7362ION    NA+11426   7.908   8.727   9.372
 7363ION    NA+11427   8.391   9.069  10.898
 7364ION    NA+11428   4.399   1.495  11.423
 7365ION    NA+11429   3.114   2.877  11.293
 7366ION    NA+11430   3.805   3.893   0.666
 7367ION    NA+11431   7.666   7.861   1.461
 7368ION    NA+11432   9.022   5.112   2.808
 7369ION    NA+11433   6.738   1.721   3.161
 7370ION    NA+11434   3.448   8.393  11.447
 7371ION    NA+11435   9.889   9.511   1.264
 7372ION    NA+11436   7.052   3.118   2.557
 7373ION    NA+11437   6.183   2.561   1.238
 7374ION    NA+11438   4.002   2.275   0.943
 7375ION    NA+11439   6.011   9.628   9.631
 7376ION    NA+11440   9.955   9.825  11.382
 7377ION    NA+11441   9.027  10.328  10.414
 7378ION    NA+11442   1.197   9.101   0.758
 7379ION    NA+11443   8.463   7.016   2.951
 7380ION    NA+11444   3.732   1.664   3.045
 7381ION    NA+11445   6.042   6.987   8.668
 7382ION    NA+11446   6.567   0.708   0.773
 7383ION    NA+11447   8.452   6.855   0.231
 7384ION    NA+11448   7.069   6.435  11.695
 7385ION    NA+11449   1.505   4.559   8.919
 7386ION    NA+11450   1.668   0.356  10.359
 7387ION    NA+11451   2.981   3.957   0.312
 7388ION    NA+11452   2.097   0.188  11.640
 7389ION    NA+11453   3.858  10.098   0.463
 7390ION    CL-11454   5.841   5.578   2.675
 7391ION    CL-11455   8.160   9.877   1.379
 7392ION    CL-11456   6.204   0.532   0.574
 7393ION    CL-11457   6.571   1.707  10.775
 7394ION    CL-11458   7.450   7.246   9.413
 7395ION    CL-11459  10.169   8.334   0.951
 7396ION    CL-11460   4.092   5.270   9.425
 7397ION    CL-11461   1.577   7.677   2.343
 7398ION    CL-11462   1.918   5.490  10.017
 7399ION    CL-11463   9.352   7.493   3.347
 7400ION    CL-11464   5.540   2.632  11.370
 7401ION    CL-11465   2.911   9.904   8.424
 7402ION    CL-11466   4.108   6.403  10.111
 7403ION    CL-11467   2.364   3.966   3.072
 7404ION    CL-11468   1.200   8.684   0.579
 7405ION    CL-11469  10.474   5.166   9.584
 7406ION    CL-11470   9.182   9.499   2.553
 7407ION    CL-11471   2.133   8.443   3.465
 7408ION    CL-11472  10.244   7.907   0.050
 7409ION    CL-11473   0.281   1.594   0.227
 7410ION    CL-11474   7.795   7.422   1.457
 7411ION    CL-11475   7.724   8.320   9.344
 7412ION    CL-11476   2.909   2.916  11.688
 7413ION    CL-11477   4.253   5.261   0.087
 7414ION    CL-11478   0.645   8.809   9.059
 7415ION    CL-11479   2.025   6.465   1.604
 7416ION    CL-11480   7.895   6.383   9.096
 7417ION    CL-11481   7.356   6.783  11.771
 7418ION    CL-11482   5.518   7.387  11.351
 7419ION    CL-11483   2.776   2.271   3.437
 7420ION    CL-11484   0.974   4.777  11.749
 7421ION    CL-11485   0.290   3.940   0.868
 7422ION    CL-11486   8.646   6.592   2.916
 7423ION    CL-11487   1.048   8.493  11.213
 7424ION    CL-11488  10.202  10.001  11.724
 7425ION    CL-11489   7.250   6.255   1.338
 7426ION    CL-11490   9.695   6.138   3.681
 7427ION    CL-11491   3.905   1.914   1.187
 7428ION    CL-11492   2.902   3.159   2.957
 7429ION    CL-11493   6.244   4.749   9.048
 7430ION    CL-11494   4.481   1.669  11.825
 7431ION    CL-11495   1.909   0.584  11.736
 7432ION    CL-11496   7.860   2.151  10.990
 7433ION    CL-11497   9.845   8.026   9.555
 7434ION    CL-11498   9.696   9.614  11.071
 7435ION    CL-11499   6.496   9.267   2.865
 7436ION    CL-11500  10.069   2.215  11.719
 7437ION    CL-11501   3.411   3.867   0.439
 7438ION    CL-11502   2.157   3.738   2.120
 7439ION    CL-11503   8.856   7.930  11.628
 7440ION    CL-11504   3.683   1.463   2.644
 7441ION    CL-11505  10.385   3.752  10.821
 7442ION    CL-11506   7.346   8.154   1.324
 7443ION    CL-11507   6.761   1.287   9.432
 7444ION    CL-11508   4.140   4.781   1.732
 7445ION    CL-11509   9.328   5.936   1.683
 7446ION    CL-11510   0.239   8.146  11.095
 7447ION    CL-11511   6.319   6.615   1.296
 7448ION    CL-11512   8.647   0.928   9.838
 7449ION    CL-11513   8.829   3.113  11.522
 7450ION    CL-11514   9.377   0.790  11.406
 7451ION    CL-11515   4.776   8.484   9.283
 7452ION    CL-11516   0.047   0.333   0.187
 7453ION    CL-11517   5.088   4.489  11.976
 7454ION    CL-11518   3.826  10.004   9.110
 7455ION    CL-11519   1.294   4.269   2.363
 7456ION    CL-11520   8.143   7.063  11.971
 7457ION    CL-11521   8.862   1.890   3.092
 7458ION    CL-11522   3.261   7.589  10.744
 7459ION    CL-11523   9.577   6.678  10.253
 7460ION    CL-11524   4.451   8.898   0.151
 7461ION    CL-11525   7.702   5.920   2.165
 7462ION    CL-11526   1.482   4.210  10.536
 7463ION    CL-11527   0.738   6.565   2.413
 7464ION    CL-11528   8.369   5.529   8.881
 7465ION    CL-11529  10.133   4.002   8.813
 7466ION    CL-11530   5.073   3.721  11.524
  10.50000  10.50000  12.00000
