Protein in INSANE! Membrane UpperLeaflet>POPC=1.0 LowerLeaflet>POPC=1.0
11530
    1AU     AUC    1   5.256   5.284   6.002
    1AU     AUC    2   5.557   5.322   5.834
    1AU     AUC    3   5.536   5.302   6.171
    1AU     AUC    4   4.965   5.269   5.837
    1AU     AUC    5   4.968   5.267   6.188
    1AU     AUC    6   5.066   5.530   6.021
    1AU     AUC    7   5.407   5.559   6.005
    1AU     AUC    8   5.096   5.001   6.004
    1AU     AUC    9   5.458   5.048   5.995
    1AU     AUC   10   5.293   5.115   6.272
    1AU     AUC   11   5.239   5.442   6.282
    1AU     AUC   12   5.272   5.127   5.724
    1AU     AUC   13   5.271   5.461   5.731
    1AU     AUC   14   5.866   5.350   5.681
    1AU     AUC   15   5.905   5.344   5.999
    1AU     AUC   16   5.842   5.306   6.366
    1AU     AUC   17   4.664   5.248   5.665
    1AU     AUC   18   4.629   5.290   6.033
    1AU     AUC   19   4.686   5.255   6.369
    1AU     AUC   20   4.896   5.832   6.006
    1AU     AUC   21   5.240   5.893   5.995
    1AU     AUC   22   5.554   5.874   6.014
    1AU     AUC   23   4.922   4.681   6.006
    1AU     AUC   24   5.268   4.721   5.999
    1AU     AUC   25   5.662   4.768   5.968
    1AU     AUC   26   5.309   4.891   6.556
    1AU     AUC   27   5.258   5.215   6.600
    1AU     AUC   28   5.253   5.595   6.569
    1AU     AUC   29   5.270   4.936   5.433
    1AU     AUC   30   5.268   5.279   5.418
    1AU     AUC   31   5.287   5.636   5.434
    1AU     AUC   32   5.592   5.062   6.466
    1AU     AUC   33   5.561   5.426   6.511
    1AU     AUC   34   5.567   5.139   5.520
    1AU     AUC   35   5.590   5.499   5.510
    1AU     AUC   36   4.967   5.056   6.487
    1AU     AUC   37   4.962   5.416   6.497
    1AU     AUC   38   4.929   5.075   5.552
    1AU     AUC   39   4.937   5.445   5.527
    1AU     AUC   40   5.760   5.617   5.856
    1AU     AUC   41   5.705   5.587   6.212
    1AU     AUC   42   4.775   5.555   5.811
    1AU     AUC   43   4.758   5.572   6.201
    1AU     AUC   44   5.773   5.039   5.811
    1AU     AUC   45   5.788   5.015   6.134
    1AU     AUC   46   4.734   4.982   5.857
    1AU     AUC   47   4.775   4.981   6.188
    1AU     AUC   48   5.060   5.761   6.295
    1AU     AUC   49   5.396   5.762   6.310
    1AU     AUC   50   5.079   4.773   6.274
    1AU     AUC   51   5.492   4.795   6.295
    1AU     AUC   52   5.064   5.723   5.679
    1AU     AUC   53   5.458   5.762   5.679
    1AU     AUC   54   5.053   4.800   5.722
    1AU     AUC   55   5.448   4.831   5.675
    1AU    AUSL   56   5.845   5.204   6.724
    1AU    AUSL   57   5.700   4.735   6.587
    1AU     AUL   58   5.952   4.826   6.790
    1AU       S   59   6.129   4.452   6.582
    1AU     LIG   60   6.077   4.165   6.908
    1AU     LIG   61   6.197   3.786   7.151
    1AU       S   62   6.104   5.257   6.887
    1AU     LIG   63   6.059   5.390   7.316
    1AU     LIG   64   6.127   5.124   7.690
    1AU    AUSL   65   5.454   5.016   6.807
    1AU    AUSL   66   5.116   5.347   6.881
    1AU     AUL   67   5.313   5.190   7.137
    1AU       S   68   5.752   5.019   7.155
    1AU     LIG   69   5.613   5.116   7.561
    1AU     LIG   70   5.711   5.016   8.004
    1AU       S   71   4.587   5.136   7.197
    1AU     LIG   72   4.714   5.412   7.556
    1AU     LIG   73   4.658   5.443   8.024
    1AU    AUSL   74   5.462   5.434   6.673
    1AU    AUSL   75   5.869   5.624   6.639
    1AU     AUL   76   5.684   5.451   6.963
    1AU       S   77   5.294   5.695   7.125
    1AU     LIG   78   5.607   5.618   7.427
    1AU     LIG   79   5.827   5.519   7.817
    1AU       S   80   5.997   5.783   6.848
    1AU     LIG   81   6.415   5.768   6.902
    1AU     LIG   82   6.818   5.955   7.019
    1AU    AUSL   83   5.821   5.383   5.273
    1AU    AUSL   84   5.705   5.824   5.334
    1AU     AUL   85   5.850   5.671   5.015
    1AU       S   86   5.737   5.263   4.814
    1AU     LIG   87   6.017   5.255   4.421
    1AU     LIG   88   6.197   5.129   3.997
    1AU       S   89   6.075   5.955   5.302
    1AU     LIG   90   5.890   6.200   5.031
    1AU     LIG   91   6.061   6.568   4.812
    1AU    AUSL   92   5.477   5.131   5.235
    1AU    AUSL   93   5.806   5.060   5.559
    1AU     AUL   94   5.908   5.077   5.196
    1AU       S   95   6.062   4.465   5.244
    1AU     LIG   96   6.445   4.256   5.276
    1AU     LIG   97   6.615   4.158   4.875
    1AU       S   98   5.536   4.925   4.913
    1AU     LIG   99   5.468   4.722   4.462
    1AU     LIG  100   5.743   4.870   4.108
    1AU    AUSL  101   5.417   5.561   5.161
    1AU    AUSL  102   5.090   5.015   5.127
    1AU     AUL  103   5.277   5.312   4.929
    1AU       S  104   4.892   5.048   4.818
    1AU     LIG  105   5.022   4.997   4.402
    1AU     LIG  106   4.703   4.997   4.070
    1AU       S  107   5.704   5.026   4.751
    1AU     LIG  108   5.497   5.238   4.378
    1AU     LIG  109   5.731   5.392   3.992
    1AU    AUSL  110   4.748   5.225   6.692
    1AU    AUSL  111   4.992   5.681   6.657
    1AU     AUL  112   4.850   5.535   6.964
    1AU       S  113   4.509   5.217   6.900
    1AU     LIG  114   4.301   5.530   7.237
    1AU     LIG  115   4.227   5.386   7.712
    1AU       S  116   4.591   5.904   6.795
    1AU     LIG  117   4.481   6.190   7.101
    1AU     LIG  118   4.277   6.464   7.434
    1AU    AUSL  119   5.038   4.921   6.849
    1AU    AUSL  120   4.639   4.832   6.557
    1AU     AUL  121   4.720   4.802   6.847
    1AU       S  122   4.470   4.437   6.670
    1AU     LIG  123   4.006   4.431   6.820
    1AU     LIG  124   3.707   4.382   7.200
    1AU       S  125   4.835   5.097   7.175
    1AU     LIG  126   4.996   4.980   7.552
    1AU     LIG  127   4.713   4.946   7.905
    1AU    AUSL  128   4.715   5.172   5.272
    1AU    AUSL  129   4.973   4.863   5.509
    1AU     AUL  130   4.824   4.781   5.191
    1AU       S  131   4.520   5.112   5.027
    1AU     LIG  132   4.323   5.466   4.794
    1AU     LIG  133   4.210   5.507   4.320
    1AU       S  134   4.377   4.590   5.205
    1AU     LIG  135   4.401   4.139   5.072
    1AU     LIG  136   4.204   3.822   4.779
    1AU    AUSL  137   5.068   5.415   5.333
    1AU    AUSL  138   4.625   5.553   5.427
    1AU     AUL  139   4.824   5.462   5.058
    1AU       S  140   4.450   5.687   5.237
    1AU     LIG  141   4.152   5.993   5.072
    1AU     LIG  142   4.057   6.200   4.649
    1AU       S  143   4.622   5.034   4.768
    1AU     LIG  144   4.712   5.393   4.478
    1AU     LIG  145   4.655   5.506   4.033
    1AU    AUSL  146   5.936   5.901   6.053
    1AU    AUSL  147   5.940   5.609   5.615
    1AU     AUL  148   6.093   5.996   5.771
    1AU       S  149   6.188   5.657   5.431
    1AU     LIG  150   6.341   5.646   4.982
    1AU     LIG  151   6.361   6.094   4.840
    1AU       S  152   6.469   5.877   6.389
    1AU     LIG  153   6.604   6.244   6.096
    1AU     LIG  154   6.904   6.307   5.748
    1AU    AUSL  155   6.211   5.568   5.928
    1AU    AUSL  156   6.221   5.181   6.173
    1AU     AUL  157   6.528   5.370   6.035
    1AU       S  158   6.384   5.791   6.150
    1AU     LIG  159   6.674   5.817   5.813
    1AU     LIG  160   7.096   5.701   5.647
    1AU       S  161   6.485   4.892   6.023
    1AU     LIG  162   6.720   4.818   6.407
    1AU     LIG  163   7.117   4.554   6.460
    1AU    AUSL  164   5.951   5.499   6.253
    1AU    AUSL  165   5.624   5.802   6.319
    1AU     AUL  166   5.978   5.903   6.393
    1AU       S  167   5.966   6.083   6.862
    1AU     LIG  168   6.355   6.251   6.717
    1AU     LIG  169   6.699   6.454   6.951
    1AU       S  170   6.315   5.575   6.428
    1AU     LIG  171   6.837   5.546   6.417
    1AU     LIG  172   7.335   5.688   6.444
    1AU    AUSL  173   4.601   5.782   6.041
    1AU    AUSL  174   4.620   5.562   6.461
    1AU     AUL  175   4.341   5.905   6.306
    1AU       S  176   4.481   5.649   6.673
    1AU     LIG  177   4.104   5.886   6.852
    1AU     LIG  178   4.003   6.034   7.279
    1AU       S  179   4.558   6.202   6.007
    1AU     LIG  180   4.130   6.132   5.864
    1AU     LIG  181   3.813   6.367   5.631
    1AU    AUSL  182   4.518   5.421   5.803
    1AU    AUSL  183   4.678   5.923   5.653
    1AU     AUL  184   4.375   5.746   5.711
    1AU       S  185   4.218   5.306   5.456
    1AU     LIG  186   3.918   5.721   5.518
    1AU     LIG  187   3.489   5.974   5.479
    1AU       S  188   4.501   6.127   5.446
    1AU     LIG  189   4.341   6.463   5.227
    1AU     LIG  190   3.940   6.540   5.045
    1AU    AUSL  191   4.316   5.474   6.182
    1AU    AUSL  192   4.302   5.082   5.922
    1AU     AUL  193   4.121   5.400   5.902
    1AU       S  194   4.054   5.020   6.189
    1AU     LIG  195   3.797   4.977   5.817
    1AU     LIG  196   3.457   4.708   5.637
    1AU       S  197   4.093   5.509   6.384
    1AU     LIG  198   3.805   5.847   6.430
    1AU     LIG  199   3.363   6.019   6.387
    1AU    AUSL  200   5.992   4.893   5.952
    1AU    AUSL  201   5.855   5.042   6.339
    1AU     AUL  202   6.177   4.918   6.379
    1AU       S  203   6.286   4.743   5.951
    1AU     LIG  204   6.368   4.356   5.817
    1AU     LIG  205   6.756   4.126   5.680
    1AU       S  206   6.369   4.457   6.359
    1AU     LIG  207   6.573   4.388   6.784
    1AU     LIG  208   6.486   4.225   7.223
    1AU    AUSL  209   6.169   5.204   5.710
    1AU    AUSL  210   5.866   4.606   5.675
    1AU     AUL  211   6.105   4.862   5.546
    1AU       S  212   6.484   4.981   5.775
    1AU     LIG  213   6.722   4.644   5.581
    1AU     LIG  214   7.163   4.448   5.668
    1AU       S  215   5.995   4.409   5.497
    1AU     LIG  216   6.090   3.995   5.538
    1AU     LIG  217   6.220   3.777   5.145
    1AU    AUSL  218   4.661   4.845   6.012
    1AU    AUSL  219   4.551   4.971   5.599
    1AU     AUL  220   4.296   4.759   5.847
    1AU       S  221   4.386   4.822   5.396
    1AU     LIG  222   3.945   4.672   5.433
    1AU     LIG  223   3.806   4.343   5.121
    1AU       S  224   3.967   4.801   6.265
    1AU     LIG  225   3.890   4.463   5.930
    1AU     LIG  226   3.636   4.235   5.596
    1AU    AUSL  227   4.509   5.127   6.301
    1AU    AUSL  228   4.740   4.527   6.265
    1AU     AUL  229   4.434   4.707   6.286
    1AU       S  230   4.601   4.267   6.347
    1AU     LIG  231   4.137   4.229   6.362
    1AU     LIG  232   3.977   3.923   6.722
    1AU       S  233   4.162   5.047   6.430
    1AU     LIG  234   3.694   5.045   6.587
    1AU     LIG  235   3.286   4.895   6.396
    1AU    AUSL  236   5.228   5.977   6.453
    1AU    AUSL  237   4.800   5.947   6.377
    1AU     AUL  238   5.046   6.011   6.750
    1AU       S  239   4.686   6.163   6.498
    1AU     LIG  240   4.265   6.317   6.589
    1AU     LIG  241   4.066   6.444   6.963
    1AU       S  242   5.202   6.390   6.499
    1AU     LIG  243   5.367   6.812   6.727
    1AU     LIG  244   5.378   7.284   6.826
    1AU    AUSL  245   5.037   6.171   6.109
    1AU    AUSL  246   5.376   6.210   5.766
    1AU     AUL  247   5.074   6.438   5.872
    1AU       S  248   5.255   6.597   6.300
    1AU     LIG  249   4.888   6.775   6.499
    1AU     LIG  250   4.875   7.203   6.588
    1AU       S  251   5.333   6.444   5.458
    1AU     LIG  252   5.712   6.736   5.538
    1AU     LIG  253   5.853   7.223   5.507
    1AU    AUSL  254   5.497   6.164   6.166
    1AU    AUSL  255   5.502   5.842   6.740
    1AU     AUL  256   5.588   6.122   6.537
    1AU       S  257   5.704   5.940   6.977
    1AU     LIG  258   6.025   5.913   7.328
    1AU     LIG  259   6.390   6.172   7.248
    1AU       S  260   5.453   6.428   6.201
    1AU     LIG  261   5.779   6.673   6.392
    1AU     LIG  262   5.797   7.101   6.575
    1AU    AUSL  263   5.330   4.536   6.608
    1AU    AUSL  264   5.879   4.581   6.211
    1AU     AUL  265   5.661   4.365   6.508
    1AU       S  266   5.068   3.991   6.579
    1AU     LIG  267   4.937   3.640   6.808
    1AU     LIG  268   5.111   3.224   6.977
    1AU       S  269   6.088   4.414   6.268
    1AU     LIG  270   6.308   3.986   6.490
    1AU     LIG  271   6.596   3.872   6.849
    1AU    AUSL  272   5.133   4.390   6.243
    1AU    AUSL  273   5.055   4.800   6.448
    1AU     AUL  274   4.973   4.468   6.598
    1AU       S  275   5.067   4.091   6.322
    1AU     LIG  276   4.893   3.632   6.281
    1AU     LIG  277   4.834   3.229   6.532
    1AU       S  278   4.577   4.185   6.629
    1AU     LIG  279   4.420   3.965   6.991
    1AU     LIG  280   4.113   4.059   7.328
    1AU    AUSL  281   5.473   4.631   6.182
    1AU    AUSL  282   5.092   4.479   5.835
    1AU     AUL  283   5.420   4.281   6.036
    1AU       S  284   4.957   4.148   5.855
    1AU     LIG  285   4.738   3.719   5.809
    1AU     LIG  286   4.880   3.418   5.511
    1AU       S  287   5.312   3.953   6.409
    1AU     LIG  288   5.364   3.500   6.438
    1AU     LIG  289   5.583   3.320   6.790
    1AU    AUSL  290   5.318   5.938   5.443
    1AU    AUSL  291   5.630   5.869   5.769
    1AU     AUL  292   5.682   6.142   5.538
    1AU       S  293   5.339   6.155   5.204
    1AU     LIG  294   5.586   6.596   5.058
    1AU     LIG  295   5.449   7.023   5.202
    1AU       S  296   6.372   5.934   5.378
    1AU     LIG  297   6.314   6.407   5.272
    1AU     LIG  298   6.549   6.678   4.969
    1AU    AUSL  299   5.067   5.900   5.797
    1AU    AUSL  300   4.943   5.821   5.318
    1AU     AUL  301   4.965   6.134   5.522
    1AU       S  302   5.147   6.413   5.177
    1AU     LIG  303   4.954   6.774   5.411
    1AU     LIG  304   5.036   7.235   5.476
    1AU       S  305   4.687   5.951   5.160
    1AU     LIG  306   4.550   6.222   4.822
    1AU     LIG  307   4.346   6.641   4.732
    1AU    AUSL  308   5.233   4.552   5.416
    1AU    AUSL  309   4.702   4.567   5.695
    1AU     AUL  310   4.940   4.426   5.471
    1AU       S  311   4.469   4.507   5.473
    1AU     LIG  312   4.128   4.208   5.495
    1AU     LIG  313   3.925   3.838   5.251
    1AU       S  314   5.171   4.025   5.662
    1AU     LIG  315   4.876   3.911   5.338
    1AU     LIG  316   4.863   3.563   5.011
    1AU    AUSL  317   5.469   4.665   5.768
    1AU    AUSL  318   5.601   4.744   5.349
    1AU     AUL  319   5.533   4.388   5.548
    1AU       S  320   5.192   3.872   5.888
    1AU     LIG  321   5.371   3.568   5.564
    1AU     LIG  322   5.298   3.196   5.279
    1AU       S  323   5.803   4.587   5.190
    1AU     LIG  324   5.946   4.277   4.806
    1AU     LIG  325   6.214   3.905   4.631
    2POPC   NC3  326   3.305   8.691   8.029
    2POPC   PO4  327   3.894   8.434   8.167
    2POPC   GL1  328   3.718   8.794   7.748
    2POPC   GL2  329   3.389   8.849   7.575
    2POPC   C1A  330   3.752   8.783   7.242
    2POPC   D2A  331   3.776   8.478   6.931
    2POPC   C3A  332   3.502   8.436   6.580
    2POPC   C4A  333   3.553   8.604   6.216
    2POPC   C1B  334   3.228   8.653   7.252
    2POPC   C2B  335   3.311   8.765   6.905
    2POPC   C3B  336   3.141   8.782   6.534
    2POPC   C4B  337   3.172   8.932   6.124
    3POPC   NC3  338   1.208   5.090   8.094
    3POPC   PO4  339   0.605   4.679   8.177
    3POPC   GL1  340   0.967   4.764   7.771
    3POPC   GL2  341   1.055   5.073   7.630
    3POPC   C1A  342   1.127   4.689   7.327
    3POPC   D2A  343   0.927   4.811   6.933
    3POPC   C3A  344   1.057   4.607   6.547
    3POPC   C4A  345   1.111   4.786   6.133
    3POPC   C1B  346   1.335   5.187   7.336
    3POPC   C2B  347   1.473   5.085   6.951
    3POPC   C3B  348   1.274   5.050   6.586
    3POPC   C4B  349   1.391   5.188   6.211
    4POPC   NC3  350   9.216   1.895   8.115
    4POPC   PO4  351   8.860   2.295   7.756
    4POPC   GL1  352   9.157   2.012   7.570
    4POPC   GL2  353   9.462   1.828   7.685
    4POPC   C1A  354   9.243   2.065   7.156
    4POPC   D2A  355   9.263   1.844   6.796
    4POPC   C3A  356   9.453   2.067   6.481
    4POPC   C4A  357   9.662   2.250   6.139
    4POPC   C1B  358   9.479   1.639   7.296
    4POPC   C2B  359   9.702   1.662   6.939
    4POPC   C3B  360   9.705   1.606   6.506
    4POPC   C4B  361   9.953   1.405   6.198
    5POPC   NC3  362   0.437   7.943   8.317
    5POPC   PO4  363   0.078   7.443   8.001
    5POPC   GL1  364   0.201   7.632   7.541
    5POPC   GL2  365   0.260   7.982   7.412
    5POPC   C1A  366   0.388   7.594   7.131
    5POPC   D2A  367   0.586   7.790   6.793
    5POPC   C3A  368   0.561   7.680   6.340
    5POPC   C4A  369   0.229   7.738   5.990
    5POPC   C1B  370   0.341   8.347   7.241
    5POPC   C2B  371   0.439   8.277   6.857
    5POPC   C3B  372   0.270   8.076   6.519
    5POPC   C4B  373   0.389   8.162   6.158
    6POPC   NC3  374   2.965   1.520   8.062
    6POPC   PO4  375   3.617   1.649   8.198
    6POPC   GL1  376   3.551   1.425   7.836
    6POPC   GL2  377   3.639   1.071   7.827
    6POPC   C1A  378   3.498   1.519   7.430
    6POPC   D2A  379   3.511   1.675   7.028
    6POPC   C3A  380   3.681   1.524   6.635
    6POPC   C4A  381   3.493   1.472   6.226
    6POPC   C1B  382   3.434   1.010   7.416
    6POPC   C2B  383   3.533   1.166   6.993
    6POPC   C3B  384   3.400   1.064   6.566
    6POPC   C4B  385   3.576   0.991   6.159
    7POPC   NC3  386   8.554   9.222   8.142
    7POPC   PO4  387   8.991   9.650   8.355
    7POPC   GL1  388   8.792   9.553   7.814
    7POPC   GL2  389   8.643   9.235   7.646
    7POPC   C1A  390   8.771   9.640   7.368
    7POPC   D2A  391   8.626   9.641   6.945
    7POPC   C3A  392   8.785   9.387   6.621
    7POPC   C4A  393   8.683   9.558   6.241
    7POPC   C1B  394   8.387   9.236   7.284
    7POPC   C2B  395   8.404   9.107   6.869
    7POPC   C3B  396   8.238   9.191   6.497
    7POPC   C4B  397   8.300   9.307   6.070
    8POPC   NC3  398   6.192   0.430   8.170
    8POPC   PO4  399   6.695   0.044   7.951
    8POPC   GL1  400   6.565   0.390   7.626
    8POPC   GL2  401   6.273   0.544   7.690
    8POPC   C1A  402   6.523   0.520   7.197
    8POPC   D2A  403   6.303   0.710   6.856
    8POPC   C3A  404   6.519   0.701   6.481
    8POPC   C4A  405   6.737   0.542   6.119
    8POPC   C1B  406   6.227   0.116   7.395
    8POPC   C2B  407   6.352  10.467   6.984
    8POPC   C3B  408   6.415   0.208   6.612
    8POPC   C4B  409   6.286   0.276   6.192
    9POPC   NC3  410   8.915   4.648   8.150
    9POPC   PO4  411   8.580   5.197   7.974
    9POPC   GL1  412   8.889   5.049   7.708
    9POPC   GL2  413   8.730   4.737   7.666
    9POPC   C1A  414   8.900   5.170   7.276
    9POPC   D2A  415   8.697   5.069   6.899
    9POPC   C3A  416   8.740   4.878   6.527
    9POPC   C4A  417   8.828   4.954   6.110
    9POPC   C1B  418   8.552   4.774   7.279
    9POPC   C2B  419   8.324   4.729   6.881
    9POPC   C3B  420   8.341   4.561   6.446
    9POPC   C4B  421   8.396   4.660   5.984
   10POPC   NC3  422   4.388   9.371   7.952
   10POPC   PO4  423   3.774   9.401   8.260
   10POPC   GL1  424   3.957   9.524   7.717
   10POPC   GL2  425   4.264   9.503   7.492
   10POPC   C1A  426   3.895   9.656   7.224
   10POPC   D2A  427   4.079   9.474   6.857
   10POPC   C3A  428   3.793   9.498   6.504
   10POPC   C4A  429   3.954   9.494   6.039
   10POPC   C1B  430   4.496   9.208   7.215
   10POPC   C2B  431   4.622   9.010   6.850
   10POPC   C3B  432   4.467   8.857   6.484
   10POPC   C4B  433   4.212   9.236   6.402
   11POPC   NC3  434   9.911   5.573   8.291
   11POPC   PO4  435   9.769   5.259   7.765
   11POPC   GL1  436   9.921   5.416   7.454
   11POPC   GL2  437  10.190   5.564   7.677
   11POPC   C1A  438   9.764   5.203   7.095
   11POPC   D2A  439   9.683   5.494   6.803
   11POPC   C3A  440   9.634   5.426   6.390
   11POPC   C4A  441   9.835   5.650   6.076
   11POPC   C1B  442  10.314   5.744   7.296
   11POPC   C2B  443  10.085   5.880   6.930
   11POPC   C3B  444  10.084   5.737   6.519
   11POPC   C4B  445  10.299   5.864   6.138
   12POPC   NC3  446   6.319   1.559   8.245
   12POPC   PO4  447   5.987   2.118   8.266
   12POPC   GL1  448   6.302   1.850   7.847
   12POPC   GL2  449   6.534   2.044   7.672
   12POPC   C1A  450   6.238   1.639   7.387
   12POPC   D2A  451   6.463   1.657   6.959
   12POPC   C3A  452   6.244   1.582   6.555
   12POPC   C4A  453   6.273   1.689   6.125
   12POPC   C1B  454   6.389   2.099   7.243
   12POPC   C2B  455   6.627   2.151   6.879
   12POPC   C3B  456   6.577   1.951   6.497
   12POPC   C4B  457   6.627   2.028   6.075
   13POPC   NC3  458   1.422   0.916   8.042
   13POPC   PO4  459   2.067   0.910   8.063
   13POPC   GL1  460   1.907   1.083   7.671
   13POPC   GL2  461   2.245   1.211   7.643
   13POPC   C1A  462   1.742   1.104   7.268
   13POPC   D2A  463   1.682   0.879   6.856
   13POPC   C3A  464   1.940   0.858   6.455
   13POPC   C4A  465   1.749   0.794   6.015
   13POPC   C1B  466   2.185   1.444   7.274
   13POPC   C2B  467   2.006   1.307   6.880
   13POPC   C3B  468   1.759   1.318   6.513
   13POPC   C4B  469   1.992   1.225   6.105
   14POPC   NC3  470   7.148   2.056   8.121
   14POPC   PO4  471   6.758   1.491   8.152
   14POPC   GL1  472   6.908   1.678   7.733
   14POPC   GL2  473   7.243   1.740   7.609
   14POPC   C1A  474   6.849   1.841   7.279
   14POPC   D2A  475   6.960   1.779   6.829
   14POPC   C3A  476   7.051   2.123   6.526
   14POPC   C4A  477   7.045   1.827   6.252
   14POPC   C1B  478   7.340   1.701   7.155
   14POPC   C2B  479   7.622   1.570   6.832
   14POPC   C3B  480   7.506   1.758   6.457
   14POPC   C4B  481   7.493   2.107   6.202
   15POPC   NC3  482   6.325   9.237   8.043
   15POPC   PO4  483   6.926   9.619   8.103
   15POPC   GL1  484   6.694   9.636   7.702
   15POPC   GL2  485   6.511   9.327   7.583
   15POPC   C1A  486   6.518   9.723   7.276
   15POPC   D2A  487   6.530   9.549   6.866
   15POPC   C3A  488   6.545   9.809   6.517
   15POPC   C4A  489   6.507   9.764   6.076
   15POPC   C1B  490   6.216   9.202   7.234
   15POPC   C2B  491   6.058   9.346   6.819
   15POPC   C3B  492   6.268   9.324   6.411
   15POPC   C4B  493   6.193   9.370   5.961
   16POPC   NC3  494   9.546   3.185   8.148
   16POPC   PO4  495   9.878   3.821   8.040
   16POPC   GL1  496   9.600   3.527   7.782
   16POPC   GL2  497   9.283   3.581   7.675
   16POPC   C1A  498   9.648   3.342   7.357
   16POPC   D2A  499   9.551   3.522   6.922
   16POPC   C3A  500   9.784   3.533   6.524
   16POPC   C4A  501   9.604   3.541   6.093
   16POPC   C1B  502   9.158   3.353   7.296
   16POPC   C2B  503   9.041   3.478   6.890
   16POPC   C3B  504   9.259   3.460   6.498
   16POPC   C4B  505   9.199   3.212   6.128
   17POPC   NC3  506   0.519   5.799   8.243
   17POPC   PO4  507  10.370   5.594   8.186
   17POPC   GL1  508   0.199   5.577   7.795
   17POPC   GL2  509   0.526   5.798   7.735
   17POPC   C1A  510   0.303   5.496   7.317
   17POPC   D2A  511   0.130   5.663   6.902
   17POPC   C3A  512   0.216   5.864   6.506
   17POPC   C4A  513   0.185   5.537   6.198
   17POPC   C1B  514   0.605   5.924   7.304
   17POPC   C2B  515   0.645   5.694   6.922
   17POPC   C3B  516   0.598   5.539   6.510
   17POPC   C4B  517   0.608   5.791   6.135
   18POPC   NC3  518  10.131   0.531   8.154
   18POPC   PO4  519   9.585   0.167   8.085
   18POPC   GL1  520   9.964   0.179   7.770
   18POPC   GL2  521  10.177   0.473   7.635
   18POPC   C1A  522   9.880   0.191   7.297
   18POPC   D2A  523  10.111   0.405   6.992
   18POPC   C3A  524  10.092   0.507   6.597
   18POPC   C4A  525  10.030   0.305   6.227
   18POPC   C1B  526   0.012   0.457   7.278
   18POPC   C2B  527   0.138   0.585   6.825
   18POPC   C3B  528   0.002   0.670   6.369
   18POPC   C4B  529  10.461   0.724   5.896
   19POPC   NC3  530   1.480  10.421   8.065
   19POPC   PO4  531   2.188  10.281   8.016
   19POPC   GL1  532   1.826  10.265   7.684
   19POPC   GL2  533   1.728   9.926   7.540
   19POPC   C1A  534   1.627  10.352   7.265
   19POPC   D2A  535   1.523  10.214   6.860
   19POPC   C3A  536   1.773  10.454   6.553
   19POPC   C4A  537   1.633  10.462   6.134
   19POPC   C1B  538   1.998  10.007   7.232
   19POPC   C2B  539   1.913   9.936   6.822
   19POPC   C3B  540   1.707  10.004   6.384
   19POPC   C4B  541   2.051   9.887   6.098
   20POPC   NC3  542   0.526   6.756   8.215
   20POPC   PO4  543   0.855   6.122   8.160
   20POPC   GL1  544   0.679   6.344   7.790
   20POPC   GL2  545   0.334   6.463   7.764
   20POPC   C1A  546   0.626   6.447   7.336
   20POPC   D2A  547   0.559   6.288   6.919
   20POPC   C3A  548   0.641   6.521   6.554
   20POPC   C4A  549   0.463   6.275   6.224
   20POPC   C1B  550   0.124   6.643   7.369
   20POPC   C2B  551   0.075   6.821   6.966
   20POPC   C3B  552   0.133   6.643   6.596
   20POPC   C4B  553   0.299   6.765   6.211
   21POPC   NC3  554   2.396   2.082   8.079
   21POPC   PO4  555   2.485   1.428   8.055
   21POPC   GL1  556   2.582   1.690   7.727
   21POPC   GL2  557   2.727   2.034   7.635
   21POPC   C1A  558   2.685   1.609   7.336
   21POPC   D2A  559   2.793   1.800   6.973
   21POPC   C3A  560   2.599   1.718   6.602
   21POPC   C4A  561   2.552   1.519   6.229
   21POPC   C1B  562   2.449   2.055   7.281
   21POPC   C2B  563   2.317   2.197   6.865
   21POPC   C3B  564   2.415   2.187   6.429
   21POPC   C4B  565   2.808   2.079   6.288
   22POPC   NC3  566   9.107   0.065   8.120
   22POPC   PO4  567   9.310   9.971   7.957
   22POPC   GL1  568   9.379  10.345   7.703
   22POPC   GL2  569   9.712  10.293   7.551
   22POPC   C1A  570   9.363  10.501   7.270
   22POPC   D2A  571   9.529  10.397   6.859
   22POPC   C3A  572   9.178  10.394   6.555
   22POPC   C4A  573   9.029   0.067   6.159
   22POPC   C1B  574   9.578   9.994   7.282
   22POPC   C2B  575   9.676   9.846   6.876
   22POPC   C3B  576   9.560  10.016   6.531
   22POPC   C4B  577   9.724  10.373   6.298
   23POPC   NC3  578   9.652   8.563   7.993
   23POPC   PO4  579   9.080   8.319   7.769
   23POPC   GL1  580   9.410   8.573   7.564
   23POPC   GL2  581   9.433   8.934   7.685
   23POPC   C1A  582   9.745   8.488   7.284
   23POPC   D2A  583   9.579   8.480   6.902
   23POPC   C3A  584   9.814   8.452   6.575
   23POPC   C4A  585   9.671   8.368   6.201
   23POPC   C1B  586   9.624   8.984   7.301
   23POPC   C2B  587   9.461   8.982   6.907
   23POPC   C3B  588   9.638   8.930   6.518
   23POPC   C4B  589   9.364   8.813   6.212
   24POPC   NC3  590   5.501   2.082   8.258
   24POPC   PO4  591   6.058   2.286   7.770
   24POPC   GL1  592   5.692   2.372   7.556
   24POPC   GL2  593   5.611   2.730   7.589
   24POPC   C1A  594   5.733   2.471   7.123
   24POPC   D2A  595   5.724   2.317   6.740
   24POPC   C3A  596   5.764   2.526   6.385
   24POPC   C4A  597   5.566   2.734   6.016
   24POPC   C1B  598   5.604   2.968   7.179
   24POPC   C2B  599   5.520   2.817   6.754
   24POPC   C3B  600   5.745   3.045   6.394
   24POPC   C4B  601   6.012   3.098   6.036
   25POPC   NC3  602   7.425   4.140   8.119
   25POPC   PO4  603   6.982   3.800   7.847
   25POPC   GL1  604   7.289   3.918   7.565
   25POPC   GL2  605   7.215   4.247   7.640
   25POPC   C1A  606   7.472   4.236   7.218
   25POPC   D2A  607   7.496   4.417   6.794
   25POPC   C3A  608   7.422   4.121   6.454
   25POPC   C4A  609   7.190   4.082   6.048
   25POPC   C1B  610   6.981   4.089   7.214
   25POPC   C2B  611   7.025   4.140   6.770
   25POPC   C3B  612   6.793   4.161   6.370
   25POPC   C4B  613   6.806   4.469   6.052
   26POPC   NC3  614   2.641   9.935   8.000
   26POPC   PO4  615   3.098   0.057   8.169
   26POPC   GL1  616   2.996  10.370   7.804
   26POPC   GL2  617   2.645  10.406   7.778
   26POPC   C1A  618   2.977  10.296   7.362
   26POPC   D2A  619   3.131  10.204   6.969
   26POPC   C3A  620   2.830  10.182   6.685
   26POPC   C4A  621   2.660  10.389   6.367
   26POPC   C1B  622   2.442  10.251   7.376
   26POPC   C2B  623   2.398  10.110   6.934
   26POPC   C3B  624   2.241  10.139   6.512
   26POPC   C4B  625   2.486   9.858   6.336
   27POPC   NC3  626   1.025   0.248   8.111
   27POPC   PO4  627   0.935   0.956   8.014
   27POPC   GL1  628   1.136   0.605   7.728
   27POPC   GL2  629   1.235   0.281   7.665
   27POPC   C1A  630   0.978   0.473   7.292
   27POPC   D2A  631   1.101   0.510   6.846
   27POPC   C3A  632   0.920   0.294   6.482
   27POPC   C4A  633   0.895   0.510   6.066
   27POPC   C1B  634   1.478   0.347   7.293
   27POPC   C2B  635   1.479   0.199   6.905
   27POPC   C3B  636   1.426   0.332   6.492
   27POPC   C4B  637   1.412   0.414   6.085
   28POPC   NC3  638   4.417  10.288   8.051
   28POPC   PO4  639   3.860   9.970   7.895
   28POPC   GL1  640   4.079  10.027   7.548
   28POPC   GL2  641   4.196  10.350   7.599
   28POPC   C1A  642   3.978  10.179   7.128
   28POPC   D2A  643   3.899   9.950   6.739
   28POPC   C3A  644   4.210   9.818   6.399
   28POPC   C4A  645   4.200   9.932   5.927
   28POPC   C1B  646   4.479  10.205   7.271
   28POPC   C2B  647   4.480  10.190   6.827
   28POPC   C3B  648   4.200  10.338   6.521
   28POPC   C4B  649   4.273  10.398   6.114
   29POPC   NC3  650   8.197   1.712   8.036
   29POPC   PO4  651   8.744   1.872   8.158
   29POPC   GL1  652   8.590   1.859   7.721
   29POPC   GL2  653   8.839   1.640   7.634
   29POPC   C1A  654   8.422   2.026   7.307
   29POPC   D2A  655   8.304   2.202   6.876
   29POPC   C3A  656   8.468   2.042   6.477
   29POPC   C4A  657   8.544   1.975   6.016
   29POPC   C1B  658   8.974   1.637   7.222
   29POPC   C2B  659   8.756   1.870   6.902
   29POPC   C3B  660   8.886   1.770   6.479
   29POPC   C4B  661   8.994   2.119   6.264
   30POPC   NC3  662   3.374   4.182   7.972
   30POPC   PO4  663   3.768   3.680   8.099
   30POPC   GL1  664   3.683   3.855   7.635
   30POPC   GL2  665   3.369   4.050   7.482
   30POPC   C1A  666   3.684   3.862   7.151
   30POPC   D2A  667   3.437   4.130   6.854
   30POPC   C3A  668   3.627   4.157   6.432
   30POPC   C4A  669   3.725   3.979   6.031
   30POPC   C1B  670   3.169   4.423   7.289
   30POPC   C2B  671   3.174   4.626   6.866
   30POPC   C3B  672   3.176   4.391   6.484
   30POPC   C4B  673   3.374   4.457   6.078
   31POPC   NC3  674   3.597   1.194   8.328
   31POPC   PO4  675   4.250   1.419   8.118
   31POPC   GL1  676   4.137   1.302   7.734
   31POPC   GL2  677   4.312   0.969   7.723
   31POPC   C1A  678   3.910   1.155   7.386
   31POPC   D2A  679   3.945   0.843   7.047
   31POPC   C3A  680   3.901   1.003   6.618
   31POPC   C4A  681   3.962   1.289   6.262
   31POPC   C1B  682   4.414   1.144   7.313
   31POPC   C2B  683   4.484   1.005   6.908
   31POPC   C3B  684   4.396   1.109   6.513
   31POPC   C4B  685   4.246   0.868   6.238
   32POPC   NC3  686   1.998   9.180   8.159
   32POPC   PO4  687   2.180   8.549   8.149
   32POPC   GL1  688   1.875   8.655   7.798
   32POPC   GL2  689   1.611   8.919   7.861
   32POPC   C1A  690   1.819   8.528   7.356
   32POPC   D2A  691   2.037   8.359   6.998
   32POPC   C3A  692   1.991   8.580   6.634
   32POPC   C4A  693   2.291   8.831   6.405
   32POPC   C1B  694   1.583   8.989   7.409
   32POPC   C2B  695   1.660   8.883   6.980
   32POPC   C3B  696   1.506   8.788   6.565
   32POPC   C4B  697   1.741   8.689   6.200
   33POPC   NC3  698   0.303   5.058   8.077
   33POPC   PO4  699   0.823   5.450   8.098
   33POPC   GL1  700   0.607   5.276   7.706
   33POPC   GL2  701   0.503   4.915   7.656
   33POPC   C1A  702   0.710   5.156   7.271
   33POPC   D2A  703   0.539   5.179   6.869
   33POPC   C3A  704   0.764   5.047   6.492
   33POPC   C4A  705   0.640   4.993   6.062
   33POPC   C1B  706   0.253   4.902   7.285
   33POPC   C2B  707   0.104   4.938   6.858
   33POPC   C3B  708   0.235   4.962   6.409
   33POPC   C4B  709   0.271   4.625   6.075
   34POPC   NC3  710   9.951   4.925   8.020
   34POPC   PO4  711   0.104   4.642   7.993
   34POPC   GL1  712  10.311   4.686   7.705
   34POPC   GL2  713  10.251   5.030   7.634
   34POPC   C1A  714  10.295   4.639   7.279
   34POPC   D2A  715  10.115   4.861   6.955
   34POPC   C3A  716  10.233   4.769   6.537
   34POPC   C4A  717  10.315   4.855   6.115
   34POPC   C1B  718  10.354   5.216   7.274
   34POPC   C2B  719  10.215   5.375   6.921
   34POPC   C3B  720  10.396   5.322   6.563
   34POPC   C4B  721  10.091   5.252   6.319
   35POPC   NC3  722   7.924   1.002   8.410
   35POPC   PO4  723   8.083   0.417   8.062
   35POPC   GL1  724   8.165   0.421   7.619
   35POPC   GL2  725   7.835   0.564   7.573
   35POPC   C1A  726   8.119   0.447   7.145
   35POPC   D2A  727   8.230   0.722   6.793
   35POPC   C3A  728   8.106   0.671   6.350
   35POPC   C4A  729   8.315   0.546   5.946
   35POPC   C1B  730   7.715   0.209   7.344
   35POPC   C2B  731   7.764  10.474   6.977
   35POPC   C3B  732   7.709  10.493   6.551
   35POPC   C4B  733   7.761   0.278   6.167
   36POPC   NC3  734   8.142   5.782   8.590
   36POPC   PO4  735   8.013   5.391   8.084
   36POPC   GL1  736   8.105   5.470   7.659
   36POPC   GL2  737   8.109   5.824   7.698
   36POPC   C1A  738   7.910   5.506   7.237
   36POPC   D2A  739   7.641   5.295   6.902
   36POPC   C3A  740   7.755   5.342   6.469
   36POPC   C4A  741   8.093   5.560   6.353
   36POPC   C1B  742   8.083   5.989   7.295
   36POPC   C2B  743   7.777   5.934   6.962
   36POPC   C3B  744   7.899   5.988   6.546
   36POPC   C4B  745   7.746   5.959   6.144
   37POPC   NC3  746   8.554   0.461   8.106
   37POPC   PO4  747   8.968   0.932   7.900
   37POPC   GL1  748   8.698   0.668   7.612
   37POPC   GL2  749   8.695   0.311   7.637
   37POPC   C1A  750   8.628   0.485   7.176
   37POPC   D2A  751   8.760   0.282   6.827
   37POPC   C3A  752   8.606   0.484   6.463
   37POPC   C4A  753   8.812   0.558   6.089
   37POPC   C1B  754   8.445   0.053   7.377
   37POPC   C2B  755   8.326   0.002   6.954
   37POPC   C3B  756   8.156   0.232   6.651
   37POPC   C4B  757   8.238   0.177   6.254
   38POPC   NC3  758   3.251   7.207   8.054
   38POPC   PO4  759   2.630   7.027   8.098
   38POPC   GL1  760   2.870   7.031   7.708
   38POPC   GL2  761   2.903   7.383   7.713
   38POPC   C1A  762   2.823   6.886   7.264
   38POPC   D2A  763   2.634   6.853   6.844
   38POPC   C3A  764   2.842   6.887   6.445
   38POPC   C4A  765   2.872   7.193   6.119
   38POPC   C1B  766   2.698   7.381   7.308
   38POPC   C2B  767   2.587   7.464   6.896
   38POPC   C3B  768   2.481   7.254   6.527
   38POPC   C4B  769   2.489   7.523   6.204
   39POPC   NC3  770   4.726   8.591   8.033
   39POPC   PO4  771   5.389   8.658   8.115
   39POPC   GL1  772   5.147   8.816   7.770
   39POPC   GL2  773   5.091   8.509   7.598
   39POPC   C1A  774   5.037   8.988   7.343
   39POPC   D2A  775   5.045   8.748   6.948
   39POPC   C3A  776   5.024   8.942   6.553
   39POPC   C4A  777   5.218   9.085   6.181
   39POPC   C1B  778   4.731   8.582   7.297
   39POPC   C2B  779   4.614   8.490   6.864
   39POPC   C3B  780   4.882   8.435   6.561
   39POPC   C4B  781   4.868   8.418   6.170
   40POPC   NC3  782   5.823   1.920   7.875
   40POPC   PO4  783   5.216   1.717   8.138
   40POPC   GL1  784   5.342   2.024   7.770
   40POPC   GL2  785   5.466   1.769   7.559
   40POPC   C1A  786   5.339   2.129   7.267
   40POPC   D2A  787   5.467   1.882   6.892
   40POPC   C3A  788   5.425   2.026   6.460
   40POPC   C4A  789   5.510   1.733   6.153
   40POPC   C1B  790   5.840   1.965   7.233
   40POPC   C2B  791   6.109   2.015   6.817
   40POPC   C3B  792   5.935   1.977   6.380
   40POPC   C4B  793   5.711   2.173   6.024
   41POPC   NC3  794   0.300   2.128   8.061
   41POPC   PO4  795   0.655   1.598   8.108
   41POPC   GL1  796   0.511   1.755   7.695
   41POPC   GL2  797   0.556   2.106   7.609
   41POPC   C1A  798   0.606   1.756   7.237
   41POPC   D2A  799   0.742   1.979   6.917
   41POPC   C3A  800   0.509   2.038   6.591
   41POPC   C4A  801   0.642   1.839   6.233
   41POPC   C1B  802   0.165   2.271   7.387
   41POPC   C2B  803   0.127   2.438   6.962
   41POPC   C3B  804   0.033   2.328   6.537
   41POPC   C4B  805   0.186   2.073   6.208
   42POPC   NC3  806   6.011   1.023   7.914
   42POPC   PO4  807   6.565   0.731   8.136
   42POPC   GL1  808   6.523   0.984   7.767
   42POPC   GL2  809   6.404   1.335   7.781
   42POPC   C1A  810   6.341   0.970   7.351
   42POPC   D2A  811   6.221   1.216   7.025
   42POPC   C3A  812   6.102   1.107   6.606
   42POPC   C4A  813   6.324   1.108   6.214
   42POPC   C1B  814   6.670   1.365   7.417
   42POPC   C2B  815   6.791   1.254   7.033
   42POPC   C3B  816   6.611   1.223   6.657
   42POPC   C4B  817   6.686   1.471   6.300
   43POPC   NC3  818   1.281   1.940   8.120
   43POPC   PO4  819   1.411   2.616   8.183
   43POPC   GL1  820   1.373   2.331   7.761
   43POPC   GL2  821   1.161   1.996   7.637
   43POPC   C1A  822   1.452   2.190   7.294
   43POPC   D2A  823   1.471   1.914   6.886
   43POPC   C3A  824   1.453   2.172   6.482
   43POPC   C4A  825   1.471   2.142   6.019
   43POPC   C1B  826   1.135   1.756   7.285
   43POPC   C2B  827   1.082   1.591   6.901
   43POPC   C3B  828   1.059   1.853   6.544
   43POPC   C4B  829   1.313   1.708   6.239
   44POPC   NC3  830   2.603   4.003   8.034
   44POPC   PO4  831   3.192   3.776   7.865
   44POPC   GL1  832   2.886   3.835   7.597
   44POPC   GL2  833   2.822   4.180   7.594
   44POPC   C1A  834   2.989   3.909   7.179
   44POPC   D2A  835   2.883   4.215   6.916
   44POPC   C3A  836   2.790   4.063   6.556
   44POPC   C4A  837   2.847   4.166   6.131
   44POPC   C1B  838   2.498   4.055   7.247
   44POPC   C2B  839   2.366   4.265   6.836
   44POPC   C3B  840   2.364   4.287   6.366
   44POPC   C4B  841   2.476   4.462   5.962
   45POPC   NC3  842   8.415   7.993   8.147
   45POPC   PO4  843   8.989   8.203   8.286
   45POPC   GL1  844   8.797   7.920   7.839
   45POPC   GL2  845   8.503   8.014   7.648
   45POPC   C1A  846   8.970   7.749   7.410
   45POPC   D2A  847   9.060   7.893   6.985
   45POPC   C3A  848   8.972   7.795   6.554
   45POPC   C4A  849   9.024   7.560   6.165
   45POPC   C1B  850   8.657   8.135   7.253
   45POPC   C2B  851   8.599   8.039   6.850
   45POPC   C3B  852   8.578   8.199   6.475
   45POPC   C4B  853   8.678   7.959   6.149
   46POPC   NC3  854   9.803  10.249   8.030
   46POPC   PO4  855  10.414   0.148   8.071
   46POPC   GL1  856  10.466  10.432   7.723
   46POPC   GL2  857  10.286  10.118   7.773
   46POPC   C1A  858  10.342  10.481   7.314
   46POPC   D2A  859   0.028   0.089   6.913
   46POPC   C3A  860  10.278   0.033   6.575
   46POPC   C4A  861  10.304  10.373   6.155
   46POPC   C1B  862  10.100  10.014   7.371
   46POPC   C2B  863   9.992  10.237   6.993
   46POPC   C3B  864  10.064  10.075   6.578
   46POPC   C4B  865  10.028   9.954   6.167
   47POPC   NC3  866   0.950   4.384   8.069
   47POPC   PO4  867   1.483   4.402   8.465
   47POPC   GL1  868   1.381   4.212   7.893
   47POPC   GL2  869   1.107   3.956   7.782
   47POPC   C1A  870   1.424   4.267   7.379
   47POPC   D2A  871   1.411   4.505   6.936
   47POPC   C3A  872   1.399   4.220   6.557
   47POPC   C4A  873   1.493   4.241   6.097
   47POPC   C1B  874   0.923   4.138   7.402
   47POPC   C2B  875   0.937   4.296   6.979
   47POPC   C3B  876   0.884   4.134   6.563
   47POPC   C4B  877   1.036   4.023   6.170
   48POPC   NC3  878   2.187   0.325   8.040
   48POPC   PO4  879   1.474   0.395   8.093
   48POPC   GL1  880   1.744   0.307   7.743
   48POPC   GL2  881   1.651   0.650   7.648
   48POPC   C1A  882   2.034   0.150   7.398
   48POPC   D2A  883   2.046  10.472   6.982
   48POPC   C3A  884   2.278   0.129   6.624
   48POPC   C4A  885   2.223   0.052   6.165
   48POPC   C1B  886   2.051   0.671   7.416
   48POPC   C2B  887   2.193   0.494   7.030
   48POPC   C3B  888   1.892   0.427   6.727
   48POPC   C4B  889   1.891   0.391   6.300
   49POPC   NC3  890   6.900   0.450   7.975
   49POPC   PO4  891   7.335   0.837   8.057
   49POPC   GL1  892   7.342   0.765   7.631
   49POPC   GL2  893   7.330   0.403   7.638
   49POPC   C1A  894   7.397   0.682   7.203
   49POPC   D2A  895   7.339   0.329   6.919
   49POPC   C3A  896   7.568   0.482   6.586
   49POPC   C4A  897   7.594   0.775   6.238
   49POPC   C1B  898   6.995   0.355   7.331
   49POPC   C2B  899   6.820   0.197   6.954
   49POPC   C3B  900   6.916   0.359   6.573
   49POPC   C4B  901   7.211   0.379   6.226
   50POPC   NC3  902   6.881   3.007   8.229
   50POPC   PO4  903   7.609   3.062   8.050
   50POPC   GL1  904   7.464   2.863   7.686
   50POPC   GL2  905   7.324   2.520   7.766
   50POPC   C1A  906   7.442   2.655   7.273
   50POPC   D2A  907   7.040   2.635   7.030
   50POPC   C3A  908   7.064   2.722   6.619
   50POPC   C4A  909   6.915   2.980   6.266
   50POPC   C1B  910   7.188   2.229   7.394
   50POPC   C2B  911   7.270   2.188   6.971
   50POPC   C3B  912   7.469   2.418   6.615
   50POPC   C4B  913   7.302   2.589   6.215
   51POPC   NC3  914   7.266   9.578   8.415
   51POPC   PO4  915   7.547  10.026   8.027
   51POPC   GL1  916   7.247  10.084   7.696
   51POPC   GL2  917   7.116  10.421   7.695
   51POPC   C1A  918   7.039   9.936   7.331
   51POPC   D2A  919   7.055   9.709   6.955
   51POPC   C3A  920   7.087   9.933   6.595
   51POPC   C4A  921   6.941  10.043   6.218
   51POPC   C1B  922   7.282  10.438   7.300
   51POPC   C2B  923   7.154  10.323   6.922
   51POPC   C3B  924   7.199  10.438   6.508
   51POPC   C4B  925   7.417  10.217   6.227
   52POPC   NC3  926  10.142   1.378   8.126
   52POPC   PO4  927   9.867   0.870   7.951
   52POPC   GL1  928  10.096   1.070   7.640
   52POPC   GL2  929  10.135   1.469   7.628
   52POPC   C1A  930  10.103   0.843   7.256
   52POPC   D2A  931  10.283   0.947   6.877
   52POPC   C3A  932   9.984   1.011   6.565
   52POPC   C4A  933  10.078   0.878   6.210
   52POPC   C1B  934  10.287   1.350   7.234
   52POPC   C2B  935  10.149   1.457   6.844
   52POPC   C3B  936  10.354   1.329   6.520
   52POPC   C4B  937  10.460   1.213   6.131
   53POPC   NC3  938   8.724   7.039   8.064
   53POPC   PO4  939   9.130   7.512   8.088
   53POPC   GL1  940   8.753   7.423   7.738
   53POPC   GL2  941   8.665   7.086   7.575
   53POPC   C1A  942   8.521   7.526   7.328
   53POPC   D2A  943   8.736   7.506   6.917
   53POPC   C3A  944   8.499   7.622   6.536
   53POPC   C4A  945   8.525   7.442   6.113
   53POPC   C1B  946   8.326   7.038   7.330
   53POPC   C2B  947   8.339   7.183   6.911
   53POPC   C3B  948   8.521   7.107   6.542
   53POPC   C4B  949   8.720   6.990   6.210
   54POPC   NC3  950   8.831   3.882   8.088
   54POPC   PO4  951   8.476   4.505   8.048
   54POPC   GL1  952   8.498   4.264   7.637
   54POPC   GL2  953   8.795   4.175   7.678
   54POPC   C1A  954   8.473   3.910   7.334
   54POPC   D2A  955   8.426   3.755   6.921
   54POPC   C3A  956   8.476   4.076   6.636
   54POPC   C4A  957   8.513   3.818   6.300
   54POPC   C1B  958   8.913   4.396   7.321
   54POPC   C2B  959   8.772   4.491   6.917
   54POPC   C3B  960   8.899   4.403   6.544
   54POPC   C4B  961   8.707   4.276   6.210
   55POPC   NC3  962   9.438   7.185   8.223
   55POPC   PO4  963   9.056   6.711   8.282
   55POPC   GL1  964   9.172   7.075   7.814
   55POPC   GL2  965   9.490   7.260   7.721
   55POPC   C1A  966   9.101   7.196   7.338
   55POPC   D2A  967   8.927   7.013   6.927
   55POPC   C3A  968   9.041   7.229   6.547
   55POPC   C4A  969   9.217   7.088   6.136
   55POPC   C1B  970   9.627   7.046   7.343
   55POPC   C2B  971   9.466   6.953   6.941
   55POPC   C3B  972   9.544   7.104   6.561
   55POPC   C4B  973   9.819   7.013   6.272
   56POPC   NC3  974  10.155   7.644   8.048
   56POPC   PO4  975  10.487   8.155   8.260
   56POPC   GL1  976  10.391   7.993   7.767
   56POPC   GL2  977  10.093   7.930   7.652
   56POPC   C1A  978  10.340   7.781   7.270
   56POPC   D2A  979   0.046   7.911   6.949
   56POPC   C3A  980  10.310   7.770   6.680
   56POPC   C4A  981  10.346   7.802   6.291
   56POPC   C1B  982   9.891   7.987   7.291
   56POPC   C2B  983  10.011   8.117   6.915
   56POPC   C3B  984   9.869   7.955   6.508
   56POPC   C4B  985   9.794   7.878   6.101
   57POPC   NC3  986   1.558   3.041   8.339
   57POPC   PO4  987   0.945   3.106   8.064
   57POPC   GL1  988   0.937   3.353   7.691
   57POPC   GL2  989   1.281   3.442   7.677
   57POPC   C1A  990   1.016   3.252   7.273
   57POPC   D2A  991   1.285   3.212   6.943
   57POPC   C3A  992   1.038   3.267   6.596
   57POPC   C4A  993   1.183   3.348   6.202
   57POPC   C1B  994   1.235   3.731   7.325
   57POPC   C2B  995   1.074   3.794   6.925
   57POPC   C3B  996   1.233   3.732   6.532
   57POPC   C4B  997   1.539   3.742   6.199
   58POPC   NC3  998  10.311   3.674   8.025
   58POPC   PO4  999   9.986   3.163   8.295
   58POPC   GL1 1000   9.979   3.192   7.784
   58POPC   GL2 1001  10.068   3.474   7.606
   58POPC   C1A 1002  10.042   3.006   7.348
   58POPC   D2A 1003   9.887   3.146   6.935
   58POPC   C3A 1004  10.104   3.118   6.563
   58POPC   C4A 1005  10.003   3.219   6.149
   58POPC   C1B 1006  10.024   3.655   7.202
   58POPC   C2B 1007  10.244   3.552   6.838
   58POPC   C3B 1008  10.260   3.731   6.439
   58POPC   C4B 1009  10.091   3.698   6.043
   59POPC   NC3 1010   7.148   7.822   8.361
   59POPC   PO4 1011   7.183   7.927   7.849
   59POPC   GL1 1012   7.123   7.986   7.513
   59POPC   GL2 1013   7.026   8.325   7.507
   59POPC   C1A 1014   7.156   7.759   7.182
   59POPC   D2A 1015   7.344   7.592   6.856
   59POPC   C3A 1016   7.159   7.673   6.452
   59POPC   C4A 1017   7.302   7.666   5.993
   59POPC   C1B 1018   7.293   8.272   7.153
   59POPC   C2B 1019   7.181   8.089   6.808
   59POPC   C3B 1020   7.173   8.185   6.463
   59POPC   C4B 1021   7.012   8.039   6.121
   60POPC   NC3 1022   2.909   6.657   8.092
   60POPC   PO4 1023   3.082   5.992   7.991
   60POPC   GL1 1024   2.821   6.230   7.667
   60POPC   GL2 1025   2.648   6.545   7.663
   60POPC   C1A 1026   2.899   6.367   7.218
   60POPC   D2A 1027   3.172   6.260   6.834
   60POPC   C3A 1028   3.025   6.396   6.403
   60POPC   C4A 1029   3.041   6.137   5.986
   60POPC   C1B 1030   2.360   6.331   7.348
   60POPC   C2B 1031   2.260   6.223   6.916
   60POPC   C3B 1032   2.443   6.419   6.526
   60POPC   C4B 1033   2.582   6.359   6.102
   61POPC   NC3 1034   8.112   4.223   7.961
   61POPC   PO4 1035   7.724   3.757   8.206
   61POPC   GL1 1036   7.744   3.839   7.771
   61POPC   GL2 1037   7.759   4.133   7.611
   61POPC   C1A 1038   7.718   3.725   7.316
   61POPC   D2A 1039   7.666   3.922   6.889
   61POPC   C3A 1040   7.986   3.904   6.577
   61POPC   C4A 1041   8.128   4.116   6.237
   61POPC   C1B 1042   8.016   4.188   7.236
   61POPC   C2B 1043   8.011   4.344   6.796
   61POPC   C3B 1044   7.815   4.467   6.388
   61POPC   C4B 1045   7.487   4.508   6.079
   62POPC   NC3 1046   0.130   0.530   7.920
   62POPC   PO4 1047   0.607   0.073   8.030
   62POPC   GL1 1048   0.649   0.237   7.640
   62POPC   GL2 1049   0.627   0.578   7.747
   62POPC   C1A 1050   0.430   0.105   7.255
   62POPC   D2A 1051   0.521   0.243   6.822
   62POPC   C3A 1052   0.297   0.041   6.454
   62POPC   C4A 1053   0.576   0.101   6.065
   62POPC   C1B 1054   0.491   0.631   7.320
   62POPC   C2B 1055   0.698   0.765   6.983
   62POPC   C3B 1056   0.683   0.748   6.586
   62POPC   C4B 1057   0.466   0.493   6.356
   63POPC   NC3 1058   0.242   4.450   8.394
   63POPC   PO4 1059   0.295   3.829   8.065
   63POPC   GL1 1060   0.558   4.057   7.758
   63POPC   GL2 1061   0.543   4.404   7.748
   63POPC   C1A 1062   0.416   4.088   7.307
   63POPC   D2A 1063   0.545   3.967   6.911
   63POPC   C3A 1064   0.385   4.070   6.509
   63POPC   C4A 1065   0.524   4.008   6.115
   63POPC   C1B 1066   0.633   4.554   7.333
   63POPC   C2B 1067   0.439   4.496   6.941
   63POPC   C3B 1068   0.542   4.567   6.531
   63POPC   C4B 1069   0.742   4.451   6.161
   64POPC   NC3 1070   3.986   0.690   8.041
   64POPC   PO4 1071   3.998  10.499   8.082
   64POPC   GL1 1072   3.928   0.266   7.743
   64POPC   GL2 1073   4.256   0.426   7.685
   64POPC   C1A 1074   3.911   0.180   7.310
   64POPC   D2A 1075   3.742   0.352   6.949
   64POPC   C3A 1076   3.840   0.237   6.526
   64POPC   C4A 1077   3.821   0.586   6.291
   64POPC   C1B 1078   4.396   0.213   7.315
   64POPC   C2B 1079   4.237   0.184   6.911
   64POPC   C3B 1080   4.193   0.562   6.669
   64POPC   C4B 1081   4.326   0.374   6.296
   65POPC   NC3 1082   5.026   9.523   8.235
   65POPC   PO4 1083   4.691   9.042   8.091
   65POPC   GL1 1084   5.033   9.319   7.769
   65POPC   GL2 1085   5.103   9.698   7.747
   65POPC   C1A 1086   5.226   9.465   7.329
   65POPC   D2A 1087   4.963   9.388   6.972
   65POPC   C3A 1088   5.186   9.427   6.596
   65POPC   C4A 1089   5.078   9.593   6.237
   65POPC   C1B 1090   4.753   9.601   7.428
   65POPC   C2B 1091   4.535   9.711   7.038
   65POPC   C3B 1092   4.674   9.650   6.603
   65POPC   C4B 1093   4.713   9.282   6.346
   66POPC   NC3 1094   2.782   4.971   8.160
   66POPC   PO4 1095   3.004   4.432   8.065
   66POPC   GL1 1096   2.832   4.697   7.724
   66POPC   GL2 1097   2.465   4.767   7.777
   66POPC   C1A 1098   2.719   5.016   7.390
   66POPC   D2A 1099   2.778   5.342   7.087
   66POPC   C3A 1100   2.894   5.107   6.722
   66POPC   C4A 1101   2.845   5.171   6.298
   66POPC   C1B 1102   2.525   4.541   7.361
   66POPC   C2B 1103   2.656   4.688   6.965
   66POPC   C3B 1104   2.592   4.734   6.522
   66POPC   C4B 1105   2.874   4.668   6.193
   67POPC   NC3 1106   8.777   8.554   8.054
   67POPC   PO4 1107   9.015   9.157   7.989
   67POPC   GL1 1108   8.942   8.830   7.643
   67POPC   GL2 1109   8.708   8.559   7.550
   67POPC   C1A 1110   9.104   8.769   7.233
   67POPC   D2A 1111   9.076   8.407   6.997
   67POPC   C3A 1112   9.118   8.576   6.603
   67POPC   C4A 1113   8.988   8.399   6.230
   67POPC   C1B 1114   8.597   8.769   7.210
   67POPC   C2B 1115   8.627   8.607   6.809
   67POPC   C3B 1116   8.635   8.723   6.387
   67POPC   C4B 1117   8.511   8.442   6.015
   68POPC   NC3 1118   5.270   0.390   7.786
   68POPC   PO4 1119   4.892  10.472   8.113
   68POPC   GL1 1120   4.720   0.171   7.740
   68POPC   GL2 1121   4.771   0.541   7.731
   68POPC   C1A 1122   4.881   0.214   7.304
   68POPC   D2A 1123   5.120   0.433   7.036
   68POPC   C3A 1124   5.108   0.402   6.634
   68POPC   C4A 1125   5.049   0.374   6.231
   68POPC   C1B 1126   4.637   0.671   7.321
   68POPC   C2B 1127   4.641   0.499   6.913
   68POPC   C3B 1128   4.674   0.669   6.528
   68POPC   C4B 1129   4.708   0.717   6.126
   69POPC   NC3 1130   9.372   5.429   7.946
   69POPC   PO4 1131   9.749   6.000   8.163
   69POPC   GL1 1132   9.742   5.807   7.784
   69POPC   GL2 1133   9.412   5.808   7.600
   69POPC   C1A 1134   9.849   5.950   7.387
   69POPC   D2A 1135   9.549   5.940   7.080
   69POPC   C3A 1136   9.624   5.979   6.657
   69POPC   C4A 1137   9.441   5.916   6.283
   69POPC   C1B 1138   9.368   5.483   7.275
   69POPC   C2B 1139   9.195   5.341   6.896
   69POPC   C3B 1140   9.157   5.491   6.508
   69POPC   C4B 1141   9.190   5.328   6.142
   70POPC   NC3 1142   4.338   2.769   8.071
   70POPC   PO4 1143   3.861   2.328   7.968
   70POPC   GL1 1144   4.160   2.542   7.640
   70POPC   GL2 1145   4.091   2.870   7.537
   70POPC   C1A 1146   4.356   2.535   7.213
   70POPC   D2A 1147   4.469   2.761   6.820
   70POPC   C3A 1148   4.260   2.791   6.444
   70POPC   C4A 1149   4.107   2.534   6.111
   70POPC   C1B 1150   3.850   2.661   7.196
   70POPC   C2B 1151   3.867   2.664   6.738
   70POPC   C3B 1152   3.755   2.865   6.368
   70POPC   C4B 1153   3.700   2.747   5.923
   71POPC   NC3 1154   6.996   6.932   8.411
   71POPC   PO4 1155   7.536   6.808   8.049
   71POPC   GL1 1156   7.551   6.680   7.648
   71POPC   GL2 1157   7.340   6.407   7.627
   71POPC   C1A 1158   7.351   6.797   7.243
   71POPC   D2A 1159   7.114   6.770   6.898
   71POPC   C3A 1160   7.270   6.776   6.501
   71POPC   C4A 1161   7.100   6.502   6.201
   71POPC   C1B 1162   7.178   6.323   7.178
   71POPC   C2B 1163   7.103   6.273   6.721
   71POPC   C3B 1164   6.979   6.042   6.367
   71POPC   C4B 1165   7.253   6.029   6.012
   72POPC   NC3 1166   1.153   5.763   8.158
   72POPC   PO4 1167   1.581   6.257   8.047
   72POPC   GL1 1168   1.506   5.866   7.761
   72POPC   GL2 1169   1.275   5.531   7.734
   72POPC   C1A 1170   1.574   5.692   7.352
   72POPC   D2A 1171   1.404   5.683   6.961
   72POPC   C3A 1172   1.495   5.939   6.587
   72POPC   C4A 1173   1.358   5.791   6.194
   72POPC   C1B 1174   1.017   5.588   7.344
   72POPC   C2B 1175   1.027   5.356   6.936
   72POPC   C3B 1176   1.108   5.529   6.549
   72POPC   C4B 1177   0.946   5.410   6.156
   73POPC   NC3 1178   3.576  10.279   8.089
   73POPC   PO4 1179   3.083   9.850   7.906
   73POPC   GL1 1180   3.395  10.056   7.637
   73POPC   GL2 1181   3.658  10.335   7.602
   73POPC   C1A 1182   3.481   9.934   7.235
   73POPC   D2A 1183   3.462   9.689   6.868
   73POPC   C3A 1184   3.303   9.958   6.552
   73POPC   C4A 1185   2.971   9.992   6.246
   73POPC   C1B 1186   3.485  10.441   7.244
   73POPC   C2B 1187   3.599  10.378   6.827
   73POPC   C3B 1188   3.678  10.277   6.408
   73POPC   C4B 1189   3.745   9.912   6.218
   74POPC   NC3 1190   0.172   8.412   7.905
   74POPC   PO4 1191   0.795   8.712   8.075
   74POPC   GL1 1192   0.660   8.496   7.726
   74POPC   GL2 1193   0.553   8.812   7.597
   74POPC   C1A 1194   0.822   8.480   7.320
   74POPC   D2A 1195   0.648   8.731   6.985
   74POPC   C3A 1196   0.765   8.586   6.604
   74POPC   C4A 1197   0.627   8.581   6.219
   74POPC   C1B 1198   0.208   8.848   7.310
   74POPC   C2B 1199   0.157   8.847   6.882
   74POPC   C3B 1200   0.226   8.609   6.535
   74POPC   C4B 1201   0.062   8.549   6.157
   75POPC   NC3 1202   1.168   6.485   8.038
   75POPC   PO4 1203   0.938   7.013   8.212
   75POPC   GL1 1204   1.185   6.912   7.750
   75POPC   GL2 1205   1.060   6.606   7.566
   75POPC   C1A 1206   1.425   6.746   7.287
   75POPC   D2A 1207   1.213   6.548   6.927
   75POPC   C3A 1208   1.415   6.557   6.497
   75POPC   C4A 1209   1.311   6.513   6.040
   75POPC   C1B 1210   1.091   6.175   7.411
   75POPC   C2B 1211   1.030   6.034   6.995
   75POPC   C3B 1212   1.040   6.183   6.576
   75POPC   C4B 1213   0.987   6.139   6.151
   76POPC   NC3 1214   0.071   4.194   7.843
   76POPC   PO4 1215  10.024   4.401   8.171
   76POPC   GL1 1216  10.039   4.262   7.748
   76POPC   GL2 1217  10.157   3.964   7.635
   76POPC   C1A 1218   9.919   4.256   7.307
   76POPC   D2A 1219  10.110   4.332   6.914
   76POPC   C3A 1220   9.891   4.379   6.565
   76POPC   C4A 1221  10.051   4.421   6.173
   76POPC   C1B 1222  10.383   4.029   7.251
   76POPC   C2B 1223   0.012   4.014   6.846
   76POPC   C3B 1224  10.411   4.234   6.468
   76POPC   C4B 1225  10.474   4.041   6.056
   77POPC   NC3 1226   1.905   5.912   8.095
   77POPC   PO4 1227   1.546   5.405   8.182
   77POPC   GL1 1228   1.780   5.420   7.770
   77POPC   GL2 1229   2.036   5.656   7.683
   77POPC   C1A 1230   1.833   5.268   7.344
   77POPC   D2A 1231   1.922   5.359   6.919
   77POPC   C3A 1232   1.643   5.431   6.588
   77POPC   C4A 1233   1.823   5.439   6.187
   77POPC   C1B 1234   2.067   5.893   7.308
   77POPC   C2B 1235   1.870   5.888   6.925
   77POPC   C3B 1236   2.014   5.782   6.526
   77POPC   C4B 1237   2.244   6.004   6.252
   78POPC   NC3 1238   8.388   3.266   7.909
   78POPC   PO4 1239   9.094   3.234   8.003
   78POPC   GL1 1240   8.825   3.280   7.659
   78POPC   GL2 1241   8.767   3.630   7.664
   78POPC   C1A 1242   8.658   3.408   7.248
   78POPC   D2A 1243   8.557   3.231   6.902
   78POPC   C3A 1244   8.710   3.378   6.516
   78POPC   C4A 1245   8.481   3.306   6.149
   78POPC   C1B 1246   8.998   3.844   7.332
   78POPC   C2B 1247   8.891   3.978   6.933
   78POPC   C3B 1248   8.974   3.895   6.503
   78POPC   C4B 1249   8.939   3.631   6.139
   79POPC   NC3 1250   9.836   4.030   8.451
   79POPC   PO4 1251   9.173   4.232   8.141
   79POPC   GL1 1252   9.287   4.098   7.709
   79POPC   GL2 1253   9.606   4.012   7.664
   79POPC   C1A 1254   9.415   4.336   7.325
   79POPC   D2A 1255   9.260   4.318   6.918
   79POPC   C3A 1256   9.402   4.481   6.536
   79POPC   C4A 1257   9.239   4.243   6.182
   79POPC   C1B 1258   9.547   3.848   7.306
   79POPC   C2B 1259   9.675   4.018   6.926
   79POPC   C3B 1260   9.488   3.963   6.554
   79POPC   C4B 1261   9.736   4.023   6.221
   80POPC   NC3 1262   6.289   6.706   7.740
   80POPC   PO4 1263   6.643   7.140   8.154
   80POPC   GL1 1264   6.699   7.133   7.687
   80POPC   GL2 1265   6.394   7.296   7.634
   80POPC   C1A 1266   6.746   6.875   7.271
   80POPC   D2A 1267   6.649   6.934   6.811
   80POPC   C3A 1268   6.624   6.618   6.459
   80POPC   C4A 1269   6.297   6.656   6.120
   80POPC   C1B 1270   6.553   7.366   7.214
   80POPC   C2B 1271   6.304   7.292   6.855
   80POPC   C3B 1272   6.298   7.078   6.461
   80POPC   C4B 1273   6.085   7.361   6.232
   81POPC   NC3 1274   0.609   1.176   8.281
   81POPC   PO4 1275  10.468   0.874   8.173
   81POPC   GL1 1276   0.088   1.045   7.780
   81POPC   GL2 1277   0.124   1.400   7.813
   81POPC   C1A 1278   0.082   0.947   7.350
   81POPC   D2A 1279   0.302   1.054   7.004
   81POPC   C3A 1280   0.263   1.044   6.586
   81POPC   C4A 1281   0.394   0.945   6.170
   81POPC   C1B 1282   0.279   1.407   7.376
   81POPC   C2B 1283   0.172   1.526   6.906
   81POPC   C3B 1284   0.305   1.521   6.412
   81POPC   C4B 1285   0.580   1.373   6.030
   82POPC   NC3 1286   9.286   6.233   8.130
   82POPC   PO4 1287   8.887   6.685   7.801
   82POPC   GL1 1288   9.035   6.285   7.677
   82POPC   GL2 1289   9.414   6.316   7.646
   82POPC   C1A 1290   9.102   6.147   7.260
   82POPC   D2A 1291   8.869   6.289   6.873
   82POPC   C3A 1292   9.136   6.294   6.493
   82POPC   C4A 1293   9.201   6.722   6.466
   82POPC   C1B 1294   9.331   6.597   7.296
   82POPC   C2B 1295   9.425   6.436   6.888
   82POPC   C3B 1296   9.645   6.465   6.485
   82POPC   C4B 1297   9.947   6.188   6.302
   83POPC   NC3 1298   9.420   0.867   7.814
   83POPC   PO4 1299   8.998   0.491   8.268
   83POPC   GL1 1300   9.162   0.434   7.783
   83POPC   GL2 1301   9.504   0.370   7.623
   83POPC   C1A 1302   9.118   0.490   7.307
   83POPC   D2A 1303   9.303   0.348   6.899
   83POPC   C3A 1304   9.149   0.438   6.506
   83POPC   C4A 1305   9.047   0.828   6.442
   83POPC   C1B 1306   9.618   0.635   7.246
   83POPC   C2B 1307   9.687   0.695   6.827
   83POPC   C3B 1308   9.634   0.636   6.385
   83POPC   C4B 1309   9.494   0.304   6.131
   84POPC   NC3 1310   7.213   7.044   7.813
   84POPC   PO4 1311   7.505   7.481   8.244
   84POPC   GL1 1312   7.416   7.494   7.721
   84POPC   GL2 1313   7.102   7.455   7.563
   84POPC   C1A 1314   7.520   7.349   7.283
   84POPC   D2A 1315   7.536   7.106   6.881
   84POPC   C3A 1316   7.549   7.314   6.487
   84POPC   C4A 1317   7.273   7.215   6.235
   84POPC   C1B 1318   7.051   7.253   7.131
   84POPC   C2B 1319   7.028   7.235   6.682
   84POPC   C3B 1320   6.810   7.057   6.320
   84POPC   C4B 1321   6.771   6.770   5.936
   85POPC   NC3 1322   7.664   1.629   7.942
   85POPC   PO4 1323   8.054   2.167   8.081
   85POPC   GL1 1324   8.006   1.877   7.609
   85POPC   GL2 1325   7.725   1.614   7.462
   85POPC   C1A 1326   8.043   1.745   7.127
   85POPC   D2A 1327   8.218   1.694   6.755
   85POPC   C3A 1328   7.993   1.618   6.387
   85POPC   C4A 1329   8.142   1.627   5.940
   85POPC   C1B 1330   7.670   2.053   7.274
   85POPC   C2B 1331   7.767   2.109   6.891
   85POPC   C3B 1332   7.910   2.106   6.536
   85POPC   C4B 1333   8.060   2.066   6.177
   86POPC   NC3 1334   7.062   9.175   7.988
   86POPC   PO4 1335   7.651   9.369   8.319
   86POPC   GL1 1336   7.539   9.325   7.842
   86POPC   GL2 1337   7.272   9.560   7.694
   86POPC   C1A 1338   7.462   9.141   7.395
   86POPC   D2A 1339   7.364   8.879   7.002
   86POPC   C3A 1340   7.342   9.140   6.623
   86POPC   C4A 1341   7.473   9.062   6.184
   86POPC   C1B 1342   6.989   9.373   7.357
   86POPC   C2B 1343   6.918   9.216   6.933
   86POPC   C3B 1344   6.938   9.436   6.508
   86POPC   C4B 1345   7.339   9.593   6.305
   87POPC   NC3 1346   6.956   1.074   8.220
   87POPC   PO4 1347   7.611   1.283   8.230
   87POPC   GL1 1348   7.353   1.270   7.788
   87POPC   GL2 1349   7.003   1.158   7.740
   87POPC   C1A 1350   7.253   1.245   7.334
   87POPC   D2A 1351   7.270   1.146   6.906
   87POPC   C3A 1352   7.129   1.378   6.562
   87POPC   C4A 1353   7.179   1.359   6.114
   87POPC   C1B 1354   6.883   0.870   7.387
   87POPC   C2B 1355   6.947   0.725   6.947
   87POPC   C3B 1356   7.149   0.811   6.544
   87POPC   C4B 1357   6.876   1.002   6.288
   88POPC   NC3 1358   2.516   0.958   8.140
   88POPC   PO4 1359   3.179   1.053   8.128
   88POPC   GL1 1360   3.088   1.224   7.687
   88POPC   GL2 1361   2.759   1.164   7.707
   88POPC   C1A 1362   3.078   1.324   7.229
   88POPC   D2A 1363   3.018   1.073   6.906
   88POPC   C3A 1364   2.880   1.254   6.545
   88POPC   C4A 1365   3.051   1.128   6.193
   88POPC   C1B 1366   2.608   1.104   7.299
   88POPC   C2B 1367   2.536   1.306   6.917
   88POPC   C3B 1368   2.355   1.166   6.531
   88POPC   C4B 1369   2.451   1.036   6.119
   89POPC   NC3 1370   0.488   9.101   8.033
   89POPC   PO4 1371   0.396   9.780   7.959
   89POPC   GL1 1372   0.595   9.430   7.667
   89POPC   GL2 1373   0.317   9.286   7.581
   89POPC   C1A 1374   0.626   9.181   7.220
   89POPC   D2A 1375   0.417   9.278   6.811
   89POPC   C3A 1376   0.519   9.032   6.460
   89POPC   C4A 1377   0.538   9.026   5.990
   89POPC   C1B 1378   0.417   9.649   7.280
   89POPC   C2B 1379   0.319   9.764   6.906
   89POPC   C3B 1380   0.490   9.790   6.536
   89POPC   C4B 1381   0.368   9.485   6.237
   90POPC   NC3 1382   5.625   9.029   8.017
   90POPC   PO4 1383   5.468   9.671   8.132
   90POPC   GL1 1384   5.600   9.470   7.717
   90POPC   GL2 1385   5.964   9.352   7.699
   90POPC   C1A 1386   5.647   9.171   7.342
   90POPC   D2A 1387   5.396   9.108   6.954
   90POPC   C3A 1388   5.593   9.095   6.554
   90POPC   C4A 1389   5.744   9.337   6.214
   90POPC   C1B 1390   5.925   9.615   7.331
   90POPC   C2B 1391   5.627   9.572   7.008
   90POPC   C3B 1392   5.676   9.627   6.624
   90POPC   C4B 1393   6.033   9.760   6.357
   91POPC   NC3 1394   3.769   2.781   7.900
   91POPC   PO4 1395   3.085   2.950   8.078
   91POPC   GL1 1396   3.343   2.954   7.724
   91POPC   GL2 1397   3.380   2.543   7.714
   91POPC   C1A 1398   3.229   3.007   7.310
   91POPC   D2A 1399   3.051   2.797   6.975
   91POPC   C3A 1400   3.184   2.892   6.551
   91POPC   C4A 1401   3.340   3.071   6.186
   91POPC   C1B 1402   3.277   2.479   7.312
   91POPC   C2B 1403   3.436   2.488   6.917
   91POPC   C3B 1404   3.471   2.454   6.499
   91POPC   C4B 1405   3.274   2.558   6.138
   92POPC   NC3 1406   1.853   8.193   8.083
   92POPC   PO4 1407   1.795   7.508   8.208
   92POPC   GL1 1408   1.728   7.777   7.789
   92POPC   GL2 1409   1.668   8.101   7.605
   92POPC   C1A 1410   1.710   7.648   7.333
   92POPC   D2A 1411   1.697   7.920   6.962
   92POPC   C3A 1412   1.697   7.763   6.525
   92POPC   C4A 1413   1.680   8.189   6.307
   92POPC   C1B 1414   2.062   7.991   7.345
   92POPC   C2B 1415   2.171   7.779   6.942
   92POPC   C3B 1416   2.110   8.047   6.599
   92POPC   C4B 1417   2.107   7.853   6.228
   93POPC   NC3 1418   7.702   7.818   7.960
   93POPC   PO4 1419   8.076   8.285   8.079
   93POPC   GL1 1420   7.988   8.090   7.657
   93POPC   GL2 1421   7.611   8.167   7.605
   93POPC   C1A 1422   8.149   7.925   7.270
   93POPC   D2A 1423   8.127   8.180   6.925
   93POPC   C3A 1424   8.108   8.007   6.549
   93POPC   C4A 1425   8.086   8.200   6.167
   93POPC   C1B 1426   7.640   7.855   7.302
   93POPC   C2B 1427   7.672   7.970   6.911
   93POPC   C3B 1428   7.617   7.869   6.503
   93POPC   C4B 1429   7.563   8.120   6.175
   94POPC   NC3 1430   0.529   7.570   7.881
   94POPC   PO4 1431   0.421   6.960   7.829
   94POPC   GL1 1432   0.693   6.943   7.553
   94POPC   GL2 1433   0.604   7.265   7.457
   94POPC   C1A 1434   0.802   6.891   7.142
   94POPC   D2A 1435   0.517   7.137   6.955
   94POPC   C3A 1436   0.486   7.032   6.590
   94POPC   C4A 1437   0.703   7.140   6.241
   94POPC   C1B 1438   0.148   7.181   7.320
   94POPC   C2B 1439  10.432   7.360   7.005
   94POPC   C3B 1440   0.201   7.465   6.654
   94POPC   C4B 1441   0.221   7.308   6.246
   95POPC   NC3 1442   2.227   7.389   8.082
   95POPC   PO4 1443   1.636   6.953   8.008
   95POPC   GL1 1444   1.672   7.077   7.604
   95POPC   GL2 1445   1.888   7.318   7.688
   95POPC   C1A 1446   1.696   7.174   7.165
   95POPC   D2A 1447   1.674   6.901   6.839
   95POPC   C3A 1448   1.601   7.062   6.472
   95POPC   C4A 1449   1.676   6.847   6.127
   95POPC   C1B 1450   2.194   7.464   7.395
   95POPC   C2B 1451   2.210   7.187   7.059
   95POPC   C3B 1452   1.990   7.308   6.712
   95POPC   C4B 1453   2.014   7.329   6.277
   96POPC   NC3 1454   4.303   3.511   8.053
   96POPC   PO4 1455   4.669   4.002   7.817
   96POPC   GL1 1456   4.358   3.678   7.576
   96POPC   GL2 1457   4.398   3.290   7.609
   96POPC   C1A 1458   4.150   3.551   7.178
   96POPC   D2A 1459   4.448   3.437   6.828
   96POPC   C3A 1460   4.448   3.726   6.520
   96POPC   C4A 1461   4.117   3.741   6.262
   96POPC   C1B 1462   4.365   3.093   7.206
   96POPC   C2B 1463   4.067   3.095   6.884
   96POPC   C3B 1464   4.059   3.276   6.493
   96POPC   C4B 1465   4.436   3.305   6.245
   97POPC   NC3 1466   5.142   2.869   8.083
   97POPC   PO4 1467   4.604   3.130   8.089
   97POPC   GL1 1468   4.713   2.859   7.679
   97POPC   GL2 1469   5.085   2.751   7.598
   97POPC   C1A 1470   4.799   2.845   7.198
   97POPC   D2A 1471   4.986   2.778   6.771
   97POPC   C3A 1472   4.764   2.736   6.384
   97POPC   C4A 1473   4.539   2.806   6.002
   97POPC   C1B 1474   5.252   2.615   7.192
   97POPC   C2B 1475   5.222   2.342   6.815
   97POPC   C3B 1476   5.265   2.536   6.395
   97POPC   C4B 1477   5.239   2.991   6.354
   98POPC   NC3 1478   1.911   6.597   8.073
   98POPC   PO4 1479   2.293   6.116   7.981
   98POPC   GL1 1480   1.922   6.208   7.671
   98POPC   GL2 1481   1.739   6.543   7.618
   98POPC   C1A 1482   1.633   6.189   7.291
   98POPC   D2A 1483   1.712   6.407   6.925
   98POPC   C3A 1484   1.909   6.309   6.548
   98POPC   C4A 1485   1.701   6.218   6.180
   98POPC   C1B 1486   1.962   6.727   7.267
   98POPC   C2B 1487   2.141   6.717   6.855
   98POPC   C3B 1488   2.097   6.832   6.442
   98POPC   C4B 1489   2.094   6.539   6.100
   99POPC   NC3 1490   1.304   2.898   7.836
   99POPC   PO4 1491   0.930   2.229   7.997
   99POPC   GL1 1492   0.911   2.484   7.640
   99POPC   GL2 1493   0.853   2.841   7.617
   99POPC   C1A 1494   0.935   2.270   7.268
   99POPC   D2A 1495   1.156   2.303   6.885
   99POPC   C3A 1496   0.977   2.365   6.477
   99POPC   C4A 1497   1.119   2.484   6.052
   99POPC   C1B 1498   1.081   2.748   7.213
   99POPC   C2B 1499   1.052   2.783   6.773
   99POPC   C3B 1500   1.244   2.839   6.420
   99POPC   C4B 1501   0.874   2.910   6.208
  100POPC   NC3 1502   8.122  10.473   7.973
  100POPC   PO4 1503   8.321   9.873   8.063
  100POPC   GL1 1504   8.015  10.027   7.702
  100POPC   GL2 1505   7.726  10.294   7.642
  100POPC   C1A 1506   8.074  10.211   7.298
  100POPC   D2A 1507   8.072  10.035   6.899
  100POPC   C3A 1508   8.176  10.221   6.521
  100POPC   C4A 1509   7.930  10.285   6.157
  100POPC   C1B 1510   7.586  10.034   7.265
  100POPC   C2B 1511   7.554  10.027   6.809
  100POPC   C3B 1512   7.766   9.904   6.454
  100POPC   C4B 1513   7.691   9.861   6.012
  101POPC   NC3 1514   1.975   1.379   8.049
  101POPC   PO4 1515   1.920   2.048   8.122
  101POPC   GL1 1516   1.715   1.923   7.719
  101POPC   GL2 1517   1.852   2.250   7.648
  101POPC   C1A 1518   1.725   1.691   7.279
  101POPC   D2A 1519   1.990   1.811   6.874
  101POPC   C3A 1520   2.100   1.672   6.447
  101POPC   C4A 1521   1.798   1.680   6.071
  101POPC   C1B 1522   1.950   2.143   7.262
  101POPC   C2B 1523   1.791   2.292   6.906
  101POPC   C3B 1524   1.929   2.340   6.540
  101POPC   C4B 1525   1.909   2.115   6.262
  102POPC   NC3 1526   0.600   3.447   8.066
  102POPC   PO4 1527   0.022   3.360   7.779
  102POPC   GL1 1528   0.127   3.711   7.580
  102POPC   GL2 1529   0.452   3.594   7.607
  102POPC   C1A 1530   0.209   3.630   7.145
  102POPC   D2A 1531   0.198   3.245   6.922
  102POPC   C3A 1532   0.083   3.319   6.493
  102POPC   C4A 1533   0.229   3.626   6.254
  102POPC   C1B 1534   0.714   3.658   7.304
  102POPC   C2B 1535   0.676   3.481   6.911
  102POPC   C3B 1536   0.699   3.648   6.512
  102POPC   C4B 1537   0.677   3.390   6.189
  103POPC   NC3 1538   0.305  10.231   8.093
  103POPC   PO4 1539   1.057  10.204   8.137
  103POPC   GL1 1540   0.817  10.252   7.688
  103POPC   GL2 1541   0.483  10.225   7.631
  103POPC   C1A 1542   0.752  10.062   7.240
  103POPC   D2A 1543   0.513  10.231   6.890
  103POPC   C3A 1544   0.723  10.303   6.501
  103POPC   C4A 1545   0.619  10.112   6.155
  103POPC   C1B 1546   0.155  10.075   7.387
  103POPC   C2B 1547  10.472  10.098   7.006
  103POPC   C3B 1548   0.079  10.122   6.613
  103POPC   C4B 1549   0.118   9.971   6.231
  104POPC   NC3 1550   7.757   0.960   7.903
  104POPC   PO4 1551   8.303   1.210   8.235
  104POPC   GL1 1552   8.250   0.916   7.766
  104POPC   GL2 1553   7.964   1.032   7.460
  104POPC   C1A 1554   8.373   0.900   7.271
  104POPC   D2A 1555   8.185   1.208   6.980
  104POPC   C3A 1556   8.124   1.168   6.554
  104POPC   C4A 1557   8.040   1.144   6.130
  104POPC   C1B 1558   7.714   1.112   7.148
  104POPC   C2B 1559   7.704   0.959   6.732
  104POPC   C3B 1560   7.608   1.249   6.404
  104POPC   C4B 1561   7.659   1.499   6.032
  105POPC   NC3 1562   6.799  10.081   7.970
  105POPC   PO4 1563   6.179   9.691   8.026
  105POPC   GL1 1564   6.260   9.928   7.676
  105POPC   GL2 1565   6.315  10.260   7.739
  105POPC   C1A 1566   6.116  10.086   7.278
  105POPC   D2A 1567   6.100   9.889   6.878
  105POPC   C3A 1568   6.114  10.229   6.590
  105POPC   C4A 1569   6.352  10.216   6.258
  105POPC   C1B 1570   6.611  10.238   7.365
  105POPC   C2B 1571   6.688  10.077   6.952
  105POPC   C3B 1572   6.716  10.302   6.605
  105POPC   C4B 1573   6.740   0.035   6.233
  106POPC   NC3 1574   4.829   1.902   7.986
  106POPC   PO4 1575   5.152   2.410   8.086
  106POPC   GL1 1576   4.909   2.279   7.659
  106POPC   GL2 1577   4.944   1.921   7.495
  106POPC   C1A 1578   4.839   2.331   7.221
  106POPC   D2A 1579   4.686   2.291   6.834
  106POPC   C3A 1580   4.872   2.243   6.444
  106POPC   C4A 1581   4.704   2.324   6.018
  106POPC   C1B 1582   4.800   1.827   7.106
  106POPC   C2B 1583   4.977   1.848   6.743
  106POPC   C3B 1584   5.036   1.725   6.367
  106POPC   C4B 1585   5.073   1.989   6.064
  107POPC   NC3 1586  10.210   8.511   8.181
  107POPC   PO4 1587   9.787   9.005   8.041
  107POPC   GL1 1588   9.972   8.795   7.669
  107POPC   GL2 1589  10.092   8.456   7.671
  107POPC   C1A 1590  10.187   8.759   7.274
  107POPC   D2A 1591   9.978   8.830   6.918
  107POPC   C3A 1592  10.230   8.749   6.603
  107POPC   C4A 1593  10.056   8.751   6.228
  107POPC   C1B 1594  10.328   8.281   7.332
  107POPC   C2B 1595  10.429   8.401   6.924
  107POPC   C3B 1596  10.307   8.264   6.523
  107POPC   C4B 1597  10.154   8.240   6.136
  108POPC   NC3 1598   1.947   9.856   7.983
  108POPC   PO4 1599   1.556   9.342   8.223
  108POPC   GL1 1600   1.769   9.421   7.768
  108POPC   GL2 1601   2.009   9.160   7.666
  108POPC   C1A 1602   1.975   9.503   7.316
  108POPC   D2A 1603   1.772   9.440   6.920
  108POPC   C3A 1604   1.896   9.566   6.494
  108POPC   C4A 1605   1.656   9.567   6.138
  108POPC   C1B 1606   2.110   8.977   7.291
  108POPC   C2B 1607   2.144   9.075   6.877
  108POPC   C3B 1608   1.887   9.085   6.553
  108POPC   C4B 1609   1.934   9.147   6.152
  109POPC   NC3 1610   0.850   9.811   7.920
  109POPC   PO4 1611   1.507   9.968   8.005
  109POPC   GL1 1612   1.255   9.991   7.682
  109POPC   GL2 1613   1.308  10.289   7.626
  109POPC   C1A 1614   1.261   9.968   7.246
  109POPC   D2A 1615   1.308   9.752   6.902
  109POPC   C3A 1616   1.028   9.910   6.624
  109POPC   C4A 1617   1.191   9.776   6.273
  109POPC   C1B 1618   1.093  10.466   7.292
  109POPC   C2B 1619   1.045  10.383   6.876
  109POPC   C3B 1620   1.238  10.346   6.448
  109POPC   C4B 1621   1.077   0.021   6.061
  110POPC   NC3 1622   7.858   9.690   8.060
  110POPC   PO4 1623   8.167   9.120   7.914
  110POPC   GL1 1624   8.025   9.387   7.653
  110POPC   GL2 1625   8.283   9.581   7.674
  110POPC   C1A 1626   7.760   9.557   7.355
  110POPC   D2A 1627   7.534   9.523   6.968
  110POPC   C3A 1628   7.762   9.426   6.602
  110POPC   C4A 1629   7.839   9.418   6.215
  110POPC   C1B 1630   8.238   9.726   7.301
  110POPC   C2B 1631   8.119   9.533   6.940
  110POPC   C3B 1632   8.263   9.690   6.550
  110POPC   C4B 1633   8.191   9.814   6.148
  111POPC   NC3 1634   9.256   7.949   8.008
  111POPC   PO4 1635   9.908   8.184   8.041
  111POPC   GL1 1636   9.622   8.129   7.698
  111POPC   GL2 1637   9.617   7.760   7.691
  111POPC   C1A 1638   9.408   8.104   7.286
  111POPC   D2A 1639   9.540   7.957   6.907
  111POPC   C3A 1640   9.369   8.137   6.568
  111POPC   C4A 1641   9.279   7.996   6.177
  111POPC   C1B 1642   9.454   7.588   7.308
  111POPC   C2B 1643   9.332   7.458   6.915
  111POPC   C3B 1644   9.448   7.617   6.525
  111POPC   C4B 1645   9.557   7.451   6.165
  112POPC   NC3 1646   8.735   1.349   8.034
  112POPC   PO4 1647   8.013   1.363   7.801
  112POPC   GL1 1648   8.355   1.416   7.590
  112POPC   GL2 1649   8.636   1.187   7.579
  112POPC   C1A 1650   8.492   1.531   7.205
  112POPC   D2A 1651   8.632   1.398   6.796
  112POPC   C3A 1652   8.484   1.487   6.359
  112POPC   C4A 1653   8.581   1.415   5.937
  112POPC   C1B 1654   8.825   1.121   7.202
  112POPC   C2B 1655   8.718   0.879   6.863
  112POPC   C3B 1656   8.584   0.993   6.509
  112POPC   C4B 1657   8.514   0.963   6.144
  113POPC   NC3 1658   5.206   0.306   8.279
  113POPC   PO4 1659   5.761   0.704   8.132
  113POPC   GL1 1660   5.698   0.657   7.675
  113POPC   GL2 1661   5.808   0.324   7.652
  113POPC   C1A 1662   5.560   0.474   7.229
  113POPC   D2A 1663   5.567   0.627   6.785
  113POPC   C3A 1664   5.527   0.532   6.327
  113POPC   C4A 1665   5.449   0.767   5.939
  113POPC   C1B 1666   6.027   0.557   7.277
  113POPC   C2B 1667   5.990   0.314   6.940
  113POPC   C3B 1668   5.926   0.326   6.556
  113POPC   C4B 1669   6.020   0.697   6.323
  114POPC   NC3 1670   2.017   3.575   8.019
  114POPC   PO4 1671   2.024   2.980   8.291
  114POPC   GL1 1672   2.173   3.140   7.801
  114POPC   GL2 1673   1.984   3.412   7.565
  114POPC   C1A 1674   2.114   3.021   7.317
  114POPC   D2A 1675   1.868   3.110   6.959
  114POPC   C3A 1676   2.133   3.146   6.627
  114POPC   C4A 1677   2.141   3.439   6.344
  114POPC   C1B 1678   1.641   3.425   7.289
  114POPC   C2B 1679   1.590   3.627   6.897
  114POPC   C3B 1680   1.626   3.365   6.549
  114POPC   C4B 1681   1.664   3.175   6.172
  115POPC   NC3 1682   7.787   2.610   8.081
  115POPC   PO4 1683   7.534   2.063   7.882
  115POPC   GL1 1684   7.844   2.368   7.643
  115POPC   GL2 1685   7.962   2.749   7.639
  115POPC   C1A 1686   8.027   2.424   7.251
  115POPC   D2A 1687   7.829   2.617   6.942
  115POPC   C3A 1688   8.045   2.603   6.591
  115POPC   C4A 1689   7.813   2.537   6.237
  115POPC   C1B 1690   8.187   2.929   7.322
  115POPC   C2B 1691   8.091   3.037   6.923
  115POPC   C3B 1692   7.806   3.076   6.613
  115POPC   C4B 1693   8.035   3.022   6.248
  116POPC   NC3 1694   2.962   9.500   8.213
  116POPC   PO4 1695   2.296   9.536   8.030
  116POPC   GL1 1696   2.485   9.354   7.667
  116POPC   GL2 1697   2.778   9.521   7.664
  116POPC   C1A 1698   2.475   9.413   7.221
  116POPC   D2A 1699   2.306   9.597   6.840
  116POPC   C3A 1700   2.344   9.355   6.466
  116POPC   C4A 1701   2.412   9.249   6.053
  116POPC   C1B 1702   2.778   9.823   7.317
  116POPC   C2B 1703   2.942   9.741   6.936
  116POPC   C3B 1704   2.797   9.565   6.617
  116POPC   C4B 1705   2.824   9.510   6.209
  117POPC   NC3 1706   9.256   2.819   7.853
  117POPC   PO4 1707   9.436   2.329   8.255
  117POPC   GL1 1708   9.492   2.353   7.760
  117POPC   GL2 1709   9.232   2.506   7.467
  117POPC   C1A 1710   9.666   2.348   7.323
  117POPC   D2A 1711   9.413   2.484   6.943
  117POPC   C3A 1712   9.546   2.565   6.546
  117POPC   C4A 1713   9.262   2.596   6.193
  117POPC   C1B 1714   9.532   2.843   7.275
  117POPC   C2B 1715   9.364   3.042   6.938
  117POPC   C3B 1716   9.186   2.951   6.570
  117POPC   C4B 1717   9.592   3.060   6.402
  118POPC   NC3 1718   5.606   8.250   8.039
  118POPC   PO4 1719   6.053   8.814   8.096
  118POPC   GL1 1720   5.971   8.544   7.758
  118POPC   GL2 1721   5.631   8.634   7.673
  118POPC   C1A 1722   5.989   8.728   7.336
  118POPC   D2A 1723   5.861   8.888   6.954
  118POPC   C3A 1724   5.909   8.686   6.549
  118POPC   C4A 1725   6.001   8.898   6.175
  118POPC   C1B 1726   5.466   8.698   7.268
  118POPC   C2B 1727   5.483   8.546   6.833
  118POPC   C3B 1728   5.381   8.621   6.409
  118POPC   C4B 1729   5.652   8.511   6.107
  119POPC   NC3 1730   1.184   8.992   8.137
  119POPC   PO4 1731   1.468   8.435   8.024
  119POPC   GL1 1732   1.362   8.524   7.641
  119POPC   GL2 1733   1.125   8.722   7.695
  119POPC   C1A 1734   1.332   8.376   7.247
  119POPC   D2A 1735   1.534   8.382   6.869
  119POPC   C3A 1736   1.257   8.350   6.556
  119POPC   C4A 1737   1.237   8.522   6.220
  119POPC   C1B 1738   1.069   8.912   7.325
  119POPC   C2B 1739   1.154   8.746   6.944
  119POPC   C3B 1740   1.050   8.988   6.633
  119POPC   C4B 1741   0.966   8.937   6.241
  120POPC   NC3 1742   2.744  10.340   8.345
  120POPC   PO4 1743   2.598   0.483   8.206
  120POPC   GL1 1744   2.805   0.408   7.798
  120POPC   GL2 1745   3.044   0.696   7.706
  120POPC   C1A 1746   2.612   0.258   7.399
  120POPC   D2A 1747   2.648   0.054   7.004
  120POPC   C3A 1748   2.763   0.303   6.669
  120POPC   C4A 1749   2.899   0.310   6.263
  120POPC   C1B 1750   2.895   0.683   7.259
  120POPC   C2B 1751   2.623   0.770   6.895
  120POPC   C3B 1752   2.733   0.776   6.475
  120POPC   C4B 1753   2.429   0.513   6.314
  121POPC   NC3 1754   3.978   7.959   8.140
  121POPC   PO4 1755   4.288   7.340   8.061
  121POPC   GL1 1756   4.163   7.405   7.642
  121POPC   GL2 1757   4.028   7.086   7.611
  121POPC   C1A 1758   4.210   7.299   7.179
  121POPC   D2A 1759   4.473   7.402   6.829
  121POPC   C3A 1760   4.372   7.217   6.431
  121POPC   C4A 1761   4.608   6.965   6.121
  121POPC   C1B 1762   3.957   6.844   7.244
  121POPC   C2B 1763   4.094   6.933   6.802
  121POPC   C3B 1764   4.005   6.864   6.352
  121POPC   C4B 1765   4.155   7.112   5.951
  122POPC   NC3 1766   7.930   3.295   8.285
  122POPC   PO4 1767   8.378   3.718   7.981
  122POPC   GL1 1768   8.157   3.603   7.622
  122POPC   GL2 1769   7.899   3.317   7.700
  122POPC   C1A 1770   8.157   3.443   7.247
  122POPC   D2A 1771   7.973   3.515   6.903
  122POPC   C3A 1772   8.193   3.421   6.565
  122POPC   C4A 1773   8.084   3.590   6.198
  122POPC   C1B 1774   7.717   3.162   7.293
  122POPC   C2B 1775   7.490   3.405   6.968
  122POPC   C3B 1776   7.607   3.565   6.533
  122POPC   C4B 1777   7.667   3.340   6.150
  123POPC   NC3 1778   2.480   8.352   8.445
  123POPC   PO4 1779   2.233   7.935   7.965
  123POPC   GL1 1780   2.543   7.804   7.677
  123POPC   GL2 1781   2.873   7.880   7.826
  123POPC   C1A 1782   2.551   7.879   7.248
  123POPC   D2A 1783   2.553   8.137   6.910
  123POPC   C3A 1784   2.586   7.897   6.573
  123POPC   C4A 1785   2.598   8.037   6.183
  123POPC   C1B 1786   3.006   7.784   7.394
  123POPC   C2B 1787   2.988   7.779   6.937
  123POPC   C3B 1788   2.938   7.545   6.529
  123POPC   C4B 1789   2.985   7.686   6.123
  124POPC   NC3 1790   2.397   8.334   7.805
  124POPC   PO4 1791   2.910   8.291   8.280
  124POPC   GL1 1792   2.966   8.371   7.785
  124POPC   GL2 1793   2.902   8.717   7.662
  124POPC   C1A 1794   2.869   8.301   7.314
  124POPC   D2A 1795   2.715   8.624   6.973
  124POPC   C3A 1796   2.681   8.487   6.508
  124POPC   C4A 1797   2.994   8.449   6.171
  124POPC   C1B 1798   2.843   9.033   7.298
  124POPC   C2B 1799   2.650   9.118   6.853
  124POPC   C3B 1800   2.753   9.066   6.433
  124POPC   C4B 1801   2.677   8.836   6.079
  125POPC   NC3 1802   7.810   6.420   8.088
  125POPC   PO4 1803   8.291   6.870   8.156
  125POPC   GL1 1804   8.066   6.715   7.721
  125POPC   GL2 1805   7.988   6.340   7.643
  125POPC   C1A 1806   8.180   6.553   7.254
  125POPC   D2A 1807   8.072   6.333   6.895
  125POPC   C3A 1808   8.004   6.510   6.484
  125POPC   C4A 1809   8.266   6.725   6.196
  125POPC   C1B 1810   7.705   6.381   7.268
  125POPC   C2B 1811   7.572   6.501   6.854
  125POPC   C3B 1812   7.521   6.319   6.444
  125POPC   C4B 1813   7.598   6.445   6.035
  126POPC   NC3 1814   2.646   5.828   7.948
  126POPC   PO4 1815   2.405   5.231   8.111
  126POPC   GL1 1816   2.400   5.288   7.684
  126POPC   GL2 1817   2.702   5.491   7.579
  126POPC   C1A 1818   2.304   5.443   7.281
  126POPC   D2A 1819   2.337   5.675   6.920
  126POPC   C3A 1820   2.590   5.522   6.636
  126POPC   C4A 1821   2.477   5.526   6.254
  126POPC   C1B 1822   2.633   5.870   7.288
  126POPC   C2B 1823   2.716   6.024   6.853
  126POPC   C3B 1824   2.740   5.970   6.414
  126POPC   C4B 1825   2.980   5.664   6.212
  127POPC   NC3 1826   9.318   9.503   8.068
  127POPC   PO4 1827   9.910   9.793   7.989
  127POPC   GL1 1828   9.652   9.622   7.654
  127POPC   GL2 1829   9.272   9.615   7.576
  127POPC   C1A 1830   9.658   9.488   7.223
  127POPC   D2A 1831   9.817   9.327   6.817
  127POPC   C3A 1832   9.846   9.584   6.463
  127POPC   C4A 1833   9.580   9.717   6.137
  127POPC   C1B 1834   9.175   9.321   7.242
  127POPC   C2B 1835   9.302   9.478   6.833
  127POPC   C3B 1836   9.350   9.368   6.421
  127POPC   C4B 1837   9.071   9.239   6.112
  128POPC   NC3 1838   4.672   1.293   7.958
  128POPC   PO4 1839   5.143   0.759   8.069
  128POPC   GL1 1840   5.167   0.881   7.648
  128POPC   GL2 1841   4.873   1.058   7.554
  128POPC   C1A 1842   5.269   0.907   7.205
  128POPC   D2A 1843   5.011   0.894   6.841
  128POPC   C3A 1844   5.128   0.857   6.383
  128POPC   C4A 1845   5.032   1.037   5.934
  128POPC   C1B 1846   5.101   1.393   7.295
  128POPC   C2B 1847   5.219   1.395   6.841
  128POPC   C3B 1848   4.871   1.287   6.556
  128POPC   C4B 1849   4.694   1.377   6.171
  129POPC   NC3 1850   8.823   9.951   8.073
  129POPC   PO4 1851   8.598   0.012   8.031
  129POPC   GL1 1852   8.799  10.293   7.684
  129POPC   GL2 1853   8.548  10.032   7.624
  129POPC   C1A 1854   9.048  10.081   7.353
  129POPC   D2A 1855   9.199  10.000   6.930
  129POPC   C3A 1856   9.058   9.835   6.536
  129POPC   C4A 1857   8.809  10.039   6.262
  129POPC   C1B 1858   8.566  10.095   7.179
  129POPC   C2B 1859   8.727  10.192   6.783
  129POPC   C3B 1860   8.628  10.455   6.448
  129POPC   C4B 1861   8.420  10.253   6.042
  130POPC   NC3 1862   3.400   3.400   8.040
  130POPC   PO4 1863   4.048   3.122   7.984
  130POPC   GL1 1864   3.785   3.327   7.668
  130POPC   GL2 1865   3.410   3.436   7.538
  130POPC   C1A 1866   3.745   3.171   7.267
  130POPC   D2A 1867   3.539   3.007   6.907
  130POPC   C3A 1868   3.473   3.316   6.614
  130POPC   C4A 1869   3.654   3.551   6.307
  130POPC   C1B 1870   3.364   3.489   7.087
  130POPC   C2B 1871   3.161   3.730   6.735
  130POPC   C3B 1872   3.216   3.845   6.319
  130POPC   C4B 1873   3.268   3.544   5.986
  131POPC   NC3 1874   5.210  10.113   8.037
  131POPC   PO4 1875   4.678   9.767   8.042
  131POPC   GL1 1876   4.779  10.098   7.682
  131POPC   GL2 1877   5.088  10.334   7.613
  131POPC   C1A 1878   4.948  10.011   7.224
  131POPC   D2A 1879   5.195   9.855   6.877
  131POPC   C3A 1880   5.086  10.047   6.481
  131POPC   C4A 1881   4.641  10.094   6.329
  131POPC   C1B 1882   5.253  10.404   7.206
  131POPC   C2B 1883   4.966  10.445   6.852
  131POPC   C3B 1884   4.733   0.064   6.478
  131POPC   C4B 1885   4.984  10.390   6.107
  132POPC   NC3 1886   6.447   7.648   8.035
  132POPC   PO4 1887   6.740   8.122   8.315
  132POPC   GL1 1888   6.667   8.034   7.780
  132POPC   GL2 1889   6.689   7.719   7.612
  132POPC   C1A 1890   6.694   8.047   7.246
  132POPC   D2A 1891   6.760   7.730   6.881
  132POPC   C3A 1892   6.718   7.983   6.538
  132POPC   C4A 1893   6.516   8.027   6.147
  132POPC   C1B 1894   6.288   7.766   7.391
  132POPC   C2B 1895   6.269   7.865   6.962
  132POPC   C3B 1896   6.306   7.700   6.547
  132POPC   C4B 1897   6.052   7.865   6.243
  133POPC   NC3 1898   5.438   1.084   8.238
  133POPC   PO4 1899   5.917   1.471   8.019
  133POPC   GL1 1900   5.837   1.410   7.618
  133POPC   GL2 1901   5.578   1.178   7.666
  133POPC   C1A 1902   5.648   1.475   7.219
  133POPC   D2A 1903   5.890   1.573   6.916
  133POPC   C3A 1904   5.709   1.532   6.567
  133POPC   C4A 1905   5.885   1.384   6.205
  133POPC   C1B 1906   5.775   0.993   7.285
  133POPC   C2B 1907   5.671   1.102   6.872
  133POPC   C3B 1908   5.611   1.028   6.439
  133POPC   C4B 1909   5.311   1.306   6.304
  134POPC   NC3 1910   4.622   7.663   7.961
  134POPC   PO4 1911   5.294   7.890   7.997
  134POPC   GL1 1912   5.100   7.957   7.622
  134POPC   GL2 1913   4.780   8.092   7.633
  134POPC   C1A 1914   5.188   7.734   7.246
  134POPC   D2A 1915   4.949   7.598   6.913
  134POPC   C3A 1916   5.156   7.632   6.529
  134POPC   C4A 1917   5.242   7.673   6.099
  134POPC   C1B 1918   4.793   8.077   7.189
  134POPC   C2B 1919   4.646   7.981   6.790
  134POPC   C3B 1920   4.800   7.947   6.386
  134POPC   C4B 1921   4.646   7.982   6.008
  135POPC   NC3 1922   1.031   8.269   8.020
  135POPC   PO4 1923   0.395   8.015   7.872
  135POPC   GL1 1924   0.737   8.000   7.619
  135POPC   GL2 1925   1.106   8.065   7.585
  135POPC   C1A 1926   0.745   7.994   7.220
  135POPC   D2A 1927   0.950   8.195   6.913
  135POPC   C3A 1928   0.810   8.109   6.475
  135POPC   C4A 1929   0.885   8.169   6.058
  135POPC   C1B 1930   1.260   7.850   7.266
  135POPC   C2B 1931   1.351   7.566   6.940
  135POPC   C3B 1932   1.215   7.845   6.648
  135POPC   C4B 1933   1.272   7.881   6.218
  136POPC   NC3 1934   8.651   6.523   8.153
  136POPC   PO4 1935   8.159   6.065   8.185
  136POPC   GL1 1936   8.495   6.138   7.813
  136POPC   GL2 1937   8.489   6.463   7.643
  136POPC   C1A 1938   8.599   6.105   7.336
  136POPC   D2A 1939   8.466   5.964   6.948
  136POPC   C3A 1940   8.412   6.166   6.563
  136POPC   C4A 1941   8.247   6.144   6.167
  136POPC   C1B 1942   8.665   6.642   7.215
  136POPC   C2B 1943   8.474   6.665   6.811
  136POPC   C3B 1944   8.697   6.562   6.451
  136POPC   C4B 1945   8.745   6.250   6.144
  137POPC   NC3 1946   5.597   7.559   7.978
  137POPC   PO4 1947   6.121   7.983   8.027
  137POPC   GL1 1948   5.868   7.970   7.641
  137POPC   GL2 1949   5.571   8.144   7.554
  137POPC   C1A 1950   5.783   7.866   7.180
  137POPC   D2A 1951   5.859   7.569   6.814
  137POPC   C3A 1952   5.650   7.583   6.408
  137POPC   C4A 1953   5.690   7.471   5.952
  137POPC   C1B 1954   5.293   8.228   7.213
  137POPC   C2B 1955   5.161   8.084   6.811
  137POPC   C3B 1956   5.299   8.115   6.382
  137POPC   C4B 1957   5.619   7.998   6.059
  138POPC   NC3 1958   8.412   5.621   8.063
  138POPC   PO4 1959   9.099   5.815   8.053
  138POPC   GL1 1960   8.896   5.786   7.636
  138POPC   GL2 1961   8.589   5.646   7.595
  138POPC   C1A 1962   8.905   5.690   7.181
  138POPC   D2A 1963   9.109   5.857   6.835
  138POPC   C3A 1964   8.836   5.887   6.496
  138POPC   C4A 1965   8.978   5.792   6.095
  138POPC   C1B 1966   8.444   5.487   7.216
  138POPC   C2B 1967   8.597   5.523   6.768
  138POPC   C3B 1968   8.688   5.393   6.369
  138POPC   C4B 1969   8.507   5.677   6.127
  139POPC   NC3 1970   3.938   8.369   7.705
  139POPC   PO4 1971   4.423   8.083   7.992
  139POPC   GL1 1972   4.259   7.934   7.607
  139POPC   GL2 1973   3.896   7.848   7.596
  139POPC   C1A 1974   4.323   7.785   7.175
  139POPC   D2A 1975   4.059   7.680   6.815
  139POPC   C3A 1976   4.318   7.746   6.463
  139POPC   C4A 1977   4.333   7.584   6.075
  139POPC   C1B 1978   3.853   8.016   7.163
  139POPC   C2B 1979   3.680   8.004   6.739
  139POPC   C3B 1980   3.859   8.142   6.360
  139POPC   C4B 1981   3.875   7.752   6.213
  140POPC   NC3 1982   3.246   7.977   8.195
  140POPC   PO4 1983   3.489   8.362   7.769
  140POPC   GL1 1984   3.364   8.135   7.507
  140POPC   GL2 1985   3.387   7.845   7.703
  140POPC   C1A 1986   3.339   8.170   7.083
  140POPC   D2A 1987   3.056   8.297   6.809
  140POPC   C3A 1988   3.073   8.051   6.482
  140POPC   C4A 1989   3.367   8.086   6.178
  140POPC   C1B 1990   3.477   7.705   7.269
  140POPC   C2B 1991   3.449   7.553   6.847
  140POPC   C3B 1992   3.426   7.641   6.405
  140POPC   C4B 1993   3.452   7.612   5.930
  141POPC   NC3 1994   3.517   9.706   8.023
  141POPC   PO4 1995   3.202   9.125   8.127
  141POPC   GL1 1996   3.252   9.342   7.757
  141POPC   GL2 1997   3.566   9.256   7.812
  141POPC   C1A 1998   3.184   9.474   7.312
  141POPC   D2A 1999   3.128   9.245   6.918
  141POPC   C3A 2000   3.245   9.342   6.515
  141POPC   C4A 2001   3.326   9.617   6.184
  141POPC   C1B 2002   3.636   9.256   7.387
  141POPC   C2B 2003   3.636   9.202   6.946
  141POPC   C3B 2004   3.622   8.989   6.561
  141POPC   C4B 2005   3.597   9.169   6.188
  142POPC   NC3 2006   3.524   6.109   8.007
  142POPC   PO4 2007   3.454   6.788   8.070
  142POPC   GL1 2008   3.209   6.636   7.679
  142POPC   GL2 2009   3.317   6.321   7.551
  142POPC   C1A 2010   3.310   6.756   7.234
  142POPC   D2A 2011   3.181   6.755   6.799
  142POPC   C3A 2012   3.470   6.684   6.431
  142POPC   C4A 2013   3.413   6.465   6.020
  142POPC   C1B 2014   3.590   6.340   7.153
  142POPC   C2B 2015   3.684   6.294   6.690
  142POPC   C3B 2016   3.838   6.325   6.255
  142POPC   C4B 2017   3.647   5.998   5.959
  143POPC   NC3 2018   1.930   2.548   8.136
  143POPC   PO4 2019   1.667   3.185   7.914
  143POPC   GL1 2020   1.792   2.793   7.702
  143POPC   GL2 2021   2.134   2.660   7.674
  143POPC   C1A 2022   1.746   2.640   7.286
  143POPC   D2A 2023   1.530   2.726   6.903
  143POPC   C3A 2024   1.749   2.816   6.530
  143POPC   C4A 2025   1.633   2.594   6.175
  143POPC   C1B 2026   2.254   2.537   7.278
  143POPC   C2B 2027   2.114   2.672   6.870
  143POPC   C3B 2028   2.278   2.693   6.438
  143POPC   C4B 2029   2.115   2.977   6.128
  144POPC   NC3 2030   2.488   3.026   8.215
  144POPC   PO4 2031   2.378   3.686   8.292
  144POPC   GL1 2032   2.515   3.528   7.843
  144POPC   GL2 2033   2.841   3.322   7.761
  144POPC   C1A 2034   2.438   3.547   7.389
  144POPC   D2A 2035   2.445   3.322   6.989
  144POPC   C3A 2036   2.570   3.559   6.630
  144POPC   C4A 2037   2.495   3.796   6.258
  144POPC   C1B 2038   2.920   3.415   7.308
  144POPC   C2B 2039   2.961   3.285   6.864
  144POPC   C3B 2040   2.988   3.368   6.391
  144POPC   C4B 2041   2.905   3.188   5.932
  145POPC   NC3 2042   0.823   2.650   8.140
  145POPC   PO4 2043   0.159   2.573   8.142
  145POPC   GL1 2044   0.331   2.898   7.820
  145POPC   GL2 2045   0.413   2.593   7.698
  145POPC   C1A 2046   0.483   3.113   7.396
  145POPC   D2A 2047   0.662   2.990   7.001
  145POPC   C3A 2048   0.545   3.078   6.581
  145POPC   C4A 2049   0.354   2.988   6.178
  145POPC   C1B 2050   0.541   2.594   7.287
  145POPC   C2B 2051   0.641   2.486   6.875
  145POPC   C3B 2052   0.494   2.567   6.472
  145POPC   C4B 2053   0.632   2.402   6.112
  146POPC   NC3 2054   7.854   8.820   8.114
  146POPC   PO4 2055   8.467   8.796   8.291
  146POPC   GL1 2056   8.292   8.642   7.813
  146POPC   GL2 2057   7.921   8.599   7.682
  146POPC   C1A 2058   8.246   8.441   7.356
  146POPC   D2A 2059   8.138   8.678   6.953
  146POPC   C3A 2060   8.169   8.538   6.541
  146POPC   C4A 2061   8.186   8.801   6.185
  146POPC   C1B 2062   7.943   8.922   7.359
  146POPC   C2B 2063   7.841   9.090   6.970
  146POPC   C3B 2064   7.807   8.910   6.543
  146POPC   C4B 2065   7.730   8.603   6.188
  147POPC   NC3 2066   1.217   9.787   8.309
  147POPC   PO4 2067   0.876   9.341   8.062
  147POPC   GL1 2068   1.257   9.504   7.829
  147POPC   GL2 2069   1.228   9.229   7.677
  147POPC   C1A 2070   1.475   9.514   7.364
  147POPC   D2A 2071   1.293   9.257   7.009
  147POPC   C3A 2072   1.402   9.356   6.564
  147POPC   C4A 2073   1.415   9.123   6.186
  147POPC   C1B 2074   0.983   9.513   7.360
  147POPC   C2B 2075   0.817   9.589   6.958
  147POPC   C3B 2076   0.853   9.435   6.544
  147POPC   C4B 2077   0.861   9.413   6.122
  148POPC   NC3 2078   9.601   4.377   8.004
  148POPC   PO4 2079   9.541   5.036   8.202
  148POPC   GL1 2080   9.507   4.824   7.775
  148POPC   GL2 2081   9.219   4.607   7.726
  148POPC   C1A 2082   9.777   4.736   7.390
  148POPC   D2A 2083   9.664   4.627   6.974
  148POPC   C3A 2084   9.717   4.934   6.649
  148POPC   C4A 2085   9.791   4.848   6.247
  148POPC   C1B 2086   9.270   4.828   7.323
  148POPC   C2B 2087   9.163   4.826   6.899
  148POPC   C3B 2088   9.234   4.979   6.506
  148POPC   C4B 2089   9.305   4.781   6.133
  149POPC   NC3 2090   0.898   1.373   7.792
  149POPC   PO4 2091   1.488   1.389   7.982
  149POPC   GL1 2092   1.285   1.091   7.591
  149POPC   GL2 2093   0.888   0.968   7.491
  149POPC   C1A 2094   1.262   0.898   7.171
  149POPC   D2A 2095   1.099   1.025   6.761
  149POPC   C3A 2096   1.392   0.901   6.416
  149POPC   C4A 2097   1.483   1.231   6.103
  149POPC   C1B 2098   0.761   1.249   7.162
  149POPC   C2B 2099   0.639   1.407   6.780
  149POPC   C3B 2100   0.877   1.395   6.434
  149POPC   C4B 2101   0.923   1.024   6.242
  150POPC   NC3 2102   7.875   7.152   8.208
  150POPC   PO4 2103   8.152   7.671   7.953
  150POPC   GL1 2104   7.930   7.500   7.614
  150POPC   GL2 2105   7.796   7.157   7.688
  150POPC   C1A 2106   8.009   7.425   7.204
  150POPC   D2A 2107   7.872   7.512   6.819
  150POPC   C3A 2108   8.016   7.533   6.402
  150POPC   C4A 2109   7.808   7.683   6.047
  150POPC   C1B 2110   7.829   6.927   7.299
  150POPC   C2B 2111   7.972   6.842   6.898
  150POPC   C3B 2112   7.997   7.035   6.521
  150POPC   C4B 2113   7.710   6.908   6.219
  151POPC   NC3 2114   5.838   9.977   8.141
  151POPC   PO4 2115   5.465   0.011   8.003
  151POPC   GL1 2116   5.626  10.325   7.637
  151POPC   GL2 2117   5.736   9.975   7.655
  151POPC   C1A 2118   5.755  10.468   7.226
  151POPC   D2A 2119   5.504   0.128   6.838
  151POPC   C3A 2120   5.419   0.043   6.411
  151POPC   C4A 2121   5.803   0.048   6.161
  151POPC   C1B 2122   5.496   9.961   7.297
  151POPC   C2B 2123   5.631  10.115   6.885
  151POPC   C3B 2124   5.638  10.103   6.456
  151POPC   C4B 2125   5.517   9.804   6.185
  152POPC   NC3 2126   6.276   2.544   8.083
  152POPC   PO4 2127   6.935   2.473   8.222
  152POPC   GL1 2128   6.772   2.637   7.787
  152POPC   GL2 2129   6.396   2.666   7.620
  152POPC   C1A 2130   6.737   2.438   7.370
  152POPC   D2A 2131   6.447   2.592   7.061
  152POPC   C3A 2132   6.588   2.615   6.657
  152POPC   C4A 2133   6.779   2.485   6.265
  152POPC   C1B 2134   6.075   2.806   7.328
  152POPC   C2B 2135   6.022   2.848   6.855
  152POPC   C3B 2136   6.188   2.788   6.424
  152POPC   C4B 2137   6.290   2.341   6.325
  153POPC   NC3 2138  10.203   6.009   8.034
  153POPC   PO4 2139   0.075   6.563   8.207
  153POPC   GL1 2140  10.301   6.493   7.786
  153POPC   GL2 2141   9.932   6.340   7.740
  153POPC   C1A 2142  10.290   6.258   7.369
  153POPC   D2A 2143   0.045   6.170   7.003
  153POPC   C3A 2144  10.351   6.195   6.606
  153POPC   C4A 2145  10.461   6.368   6.211
  153POPC   C1B 2146   9.849   6.508   7.297
  153POPC   C2B 2147  10.126   6.546   6.924
  153POPC   C3B 2148  10.121   6.647   6.480
  153POPC   C4B 2149   9.986   6.625   6.021
  154POPC   NC3 2150   8.183   4.961   8.019
  154POPC   PO4 2151   7.715   4.466   7.985
  154POPC   GL1 2152   7.846   4.642   7.604
  154POPC   GL2 2153   8.180   4.658   7.596
  154POPC   C1A 2154   7.794   4.656   7.157
  154POPC   D2A 2155   7.849   4.843   6.755
  154POPC   C3A 2156   7.520   4.882   6.460
  154POPC   C4A 2157   7.478   5.036   6.035
  154POPC   C1B 2158   8.117   5.037   7.307
  154POPC   C2B 2159   8.168   5.231   6.887
  154POPC   C3B 2160   8.285   5.111   6.522
  154POPC   C4B 2161   8.018   4.926   6.283
  155POPC   NC3 2162   6.318   8.375   8.201
  155POPC   PO4 2163   6.719   8.854   7.940
  155POPC   GL1 2164   6.435   8.811   7.612
  155POPC   GL2 2165   6.496   8.479   7.628
  155POPC   C1A 2166   6.465   8.737   7.143
  155POPC   D2A 2167   6.337   8.916   6.739
  155POPC   C3A 2168   6.484   8.870   6.304
  155POPC   C4A 2169   6.403   8.939   5.851
  155POPC   C1B 2170   6.218   8.274   7.352
  155POPC   C2B 2171   6.130   8.390   6.920
  155POPC   C3B 2172   6.379   8.406   6.525
  155POPC   C4B 2173   6.779   8.455   6.293
  156POPC   NC3 2174   9.210   0.891   8.309
  156POPC   PO4 2175   9.263   1.434   8.065
  156POPC   GL1 2176   9.258   1.334   7.654
  156POPC   GL2 2177   9.634   1.317   7.670
  156POPC   C1A 2178   9.321   1.117   7.258
  156POPC   D2A 2179   9.216   0.877   6.928
  156POPC   C3A 2180   9.097   1.257   6.693
  156POPC   C4A 2181   8.971   1.294   6.253
  156POPC   C1B 2182   9.799   1.246   7.237
  156POPC   C2B 2183   9.598   1.194   6.825
  156POPC   C3B 2184   9.492   1.129   6.381
  156POPC   C4B 2185   9.675   1.058   5.980
  157POPC   NC3 2186   1.784   4.356   8.133
  157POPC   PO4 2187   2.169   3.991   7.865
  157POPC   GL1 2188   1.831   4.073   7.641
  157POPC   GL2 2189   1.819   4.445   7.644
  157POPC   C1A 2190   1.879   3.882   7.250
  157POPC   D2A 2191   2.175   3.771   6.940
  157POPC   C3A 2192   1.958   3.842   6.580
  157POPC   C4A 2193   2.010   3.933   6.190
  157POPC   C1B 2194   2.036   4.380   7.255
  157POPC   C2B 2195   1.853   4.248   6.869
  157POPC   C3B 2196   1.869   4.371   6.439
  157POPC   C4B 2197   1.966   4.383   5.963
  158POPC   NC3 2198   3.988   1.774   7.942
  158POPC   PO4 2199   4.568   1.664   7.707
  158POPC   GL1 2200   4.434   2.024   7.489
  158POPC   GL2 2201   4.073   2.059   7.526
  158POPC   C1A 2202   4.300   2.010   7.065
  158POPC   D2A 2203   4.176   2.292   6.781
  158POPC   C3A 2204   4.373   2.252   6.425
  158POPC   C4A 2205   4.558   1.864   6.297
  158POPC   C1B 2206   3.972   1.665   7.296
  158POPC   C2B 2207   4.080   1.380   6.951
  158POPC   C3B 2208   4.223   1.586   6.588
  158POPC   C4B 2209   4.006   1.892   6.372
  159POPC   NC3 2210   2.987   2.489   8.042
  159POPC   PO4 2211   2.404   2.549   8.083
  159POPC   GL1 2212   2.615   2.832   7.769
  159POPC   GL2 2213   2.909   2.743   7.626
  159POPC   C1A 2214   2.615   3.021   7.362
  159POPC   D2A 2215   2.562   2.813   6.997
  159POPC   C3A 2216   2.675   2.946   6.638
  159POPC   C4A 2217   2.558   3.125   6.303
  159POPC   C1B 2218   2.757   2.474   7.360
  159POPC   C2B 2219   2.805   2.325   6.975
  159POPC   C3B 2220   2.962   2.441   6.602
  159POPC   C4B 2221   2.780   2.625   6.250
  160POPC   NC3 2222   7.418   3.503   7.973
  160POPC   PO4 2223   6.841   3.465   8.308
  160POPC   GL1 2224   6.988   3.322   7.751
  160POPC   GL2 2225   7.331   3.398   7.516
  160POPC   C1A 2226   6.940   3.534   7.241
  160POPC   D2A 2227   7.063   3.628   6.771
  160POPC   C3A 2228   6.747   3.659   6.409
  160POPC   C4A 2229   6.870   3.703   5.948
  160POPC   C1B 2230   7.163   3.078   7.314
  160POPC   C2B 2231   7.068   3.128   6.906
  160POPC   C3B 2232   7.299   3.166   6.538
  160POPC   C4B 2233   7.179   3.452   6.261
  161POPC   NC3 2234   6.571   3.636   7.991
  161POPC   PO4 2235   6.450   2.980   8.059
  161POPC   GL1 2236   6.527   3.148   7.646
  161POPC   GL2 2237   6.507   3.478   7.503
  161POPC   C1A 2238   6.657   3.050   7.220
  161POPC   D2A 2239   6.612   3.353   6.867
  161POPC   C3A 2240   6.501   3.197   6.461
  161POPC   C4A 2241   6.472   3.389   6.063
  161POPC   C1B 2242   6.205   3.280   7.186
  161POPC   C2B 2243   6.095   3.341   6.736
  161POPC   C3B 2244   6.056   3.556   6.331
  161POPC   C4B 2245   5.897   3.969   6.114
  162POPC   NC3 2246   3.593   2.094   8.255
  162POPC   PO4 2247   2.919   2.018   8.095
  162POPC   GL1 2248   3.214   1.866   7.752
  162POPC   GL2 2249   3.566   1.988   7.688
  162POPC   C1A 2250   3.165   1.968   7.303
  162POPC   D2A 2251   3.216   2.046   6.847
  162POPC   C3A 2252   3.166   1.665   6.632
  162POPC   C4A 2253   3.034   1.635   6.224
  162POPC   C1B 2254   3.666   2.132   7.234
  162POPC   C2B 2255   3.720   2.060   6.777
  162POPC   C3B 2256   3.500   1.963   6.387
  162POPC   C4B 2257   3.675   2.223   6.083
  163POPC   NC3 2258   3.892   7.034   8.098
  163POPC   PO4 2259   3.500   7.588   8.133
  163POPC   GL1 2260   3.616   7.387   7.701
  163POPC   GL2 2261   3.504   7.050   7.633
  163POPC   C1A 2262   3.709   7.276   7.243
  163POPC   D2A 2263   3.597   7.053   6.887
  163POPC   C3A 2264   3.800   7.294   6.564
  163POPC   C4A 2265   3.733   7.268   6.158
  163POPC   C1B 2266   3.207   7.256   7.334
  163POPC   C2B 2267   3.055   7.228   6.910
  163POPC   C3B 2268   3.277   7.163   6.484
  163POPC   C4B 2269   3.322   7.008   6.045
  164POPC   NC3 2270   1.945   5.153   8.180
  164POPC   PO4 2271   1.482   4.701   8.021
  164POPC   GL1 2272   1.601   4.932   7.697
  164POPC   GL2 2273   1.976   4.940   7.708
  164POPC   C1A 2274   1.694   4.774   7.280
  164POPC   D2A 2275   1.955   4.772   6.897
  164POPC   C3A 2276   1.761   4.923   6.540
  164POPC   C4A 2277   1.622   4.729   6.172
  164POPC   C1B 2278   2.215   4.936   7.309
  164POPC   C2B 2279   2.368   5.109   6.896
  164POPC   C3B 2280   2.231   5.135   6.477
  164POPC   C4B 2281   2.145   4.759   6.246
  165POPC   NC3 2282   6.912   8.430   7.990
  165POPC   PO4 2283   7.388   8.874   8.098
  165POPC   GL1 2284   7.199   8.783   7.696
  165POPC   GL2 2285   7.443   8.641   7.492
  165POPC   C1A 2286   6.959   8.795   7.315
  165POPC   D2A 2287   6.897   8.519   6.954
  165POPC   C3A 2288   6.852   8.801   6.654
  165POPC   C4A 2289   6.988   8.947   6.283
  165POPC   C1B 2290   7.749   8.463   7.192
  165POPC   C2B 2291   7.664   8.455   6.750
  165POPC   C3B 2292   7.339   8.646   6.510
  165POPC   C4B 2293   7.234   8.537   6.079
  166POPC   NC3 2294   3.079   0.539   8.217
  166POPC   PO4 2295   3.693   0.750   8.377
  166POPC   GL1 2296   3.508   0.580   7.920
  166POPC   GL2 2297   3.396   0.244   7.812
  166POPC   C1A 2298   3.576   0.536   7.432
  166POPC   D2A 2299   3.360   0.684   7.026
  166POPC   C3A 2300   3.392   0.513   6.600
  166POPC   C4A 2301   3.243   0.645   6.220
  166POPC   C1B 2302   3.142   0.268   7.427
  166POPC   C2B 2303   3.162   0.210   6.962
  166POPC   C3B 2304   3.209   0.010   6.525
  166POPC   C4B 2305   3.440   0.146   6.137
  167POPC   NC3 2306   3.815   8.939   8.253
  167POPC   PO4 2307   4.146   9.022   7.756
  167POPC   GL1 2308   4.249   8.723   7.503
  167POPC   GL2 2309   4.419   8.458   7.648
  167POPC   C1A 2310   4.253   8.753   7.098
  167POPC   D2A 2311   4.062   8.931   6.807
  167POPC   C3A 2312   4.000   8.643   6.479
  167POPC   C4A 2313   4.000   8.890   6.114
  167POPC   C1B 2314   4.321   8.275   7.219
  167POPC   C2B 2315   4.182   8.192   6.799
  167POPC   C3B 2316   4.384   8.253   6.429
  167POPC   C4B 2317   4.368   8.498   6.119
  168POPC   NC3 2318   9.879   2.420   8.154
  168POPC   PO4 2319  10.182   1.828   8.075
  168POPC   GL1 2320  10.465   1.887   7.733
  168POPC   GL2 2321  10.215   2.102   7.615
  168POPC   C1A 2322  10.480   1.815   7.293
  168POPC   D2A 2323  10.313   2.026   6.944
  168POPC   C3A 2324  10.439   1.838   6.596
  168POPC   C4A 2325  10.329   1.730   6.223
  168POPC   C1B 2326   9.947   1.929   7.294
  168POPC   C2B 2327   9.808   2.138   6.874
  168POPC   C3B 2328   9.997   2.071   6.475
  168POPC   C4B 2329  10.205   2.304   6.143
  169POPC   NC3 2330   1.352   7.316   8.150
  169POPC   PO4 2331   0.858   7.825   8.097
  169POPC   GL1 2332   0.990   7.561   7.652
  169POPC   GL2 2333   1.339   7.473   7.646
  169POPC   C1A 2334   0.890   7.518   7.144
  169POPC   D2A 2335   0.875   7.398   6.699
  169POPC   C3A 2336   1.216   7.390   6.446
  169POPC   C4A 2337   1.120   7.405   6.032
  169POPC   C1B 2338   1.205   7.194   7.341
  169POPC   C2B 2339   1.213   7.081   6.922
  169POPC   C3B 2340   1.010   6.902   6.594
  169POPC   C4B 2341   1.175   6.947   6.203
  170POPC   NC3 2342  10.357   3.020   8.049
  170POPC   PO4 2343   9.709   2.796   7.925
  170POPC   GL1 2344  10.024   2.587   7.664
  170POPC   GL2 2345  10.380   2.587   7.722
  170POPC   C1A 2346  10.160   2.460   7.244
  170POPC   D2A 2347   9.906   2.636   6.936
  170POPC   C3A 2348  10.067   2.599   6.543
  170POPC   C4A 2349   9.868   2.709   6.158
  170POPC   C1B 2350   0.042   2.797   7.363
  170POPC   C2B 2351  10.361   2.871   6.958
  170POPC   C3B 2352   0.048   2.826   6.575
  170POPC   C4B 2353  10.356   2.873   6.186
  171POPC   NC3 2354  10.065   9.372   7.965
  171POPC   PO4 2355   0.005   8.859   7.967
  171POPC   GL1 2356  10.337   9.158   7.612
  171POPC   GL2 2357  10.406   9.576   7.661
  171POPC   C1A 2358  10.096   9.245   7.247
  171POPC   D2A 2359  10.323   9.230   6.862
  171POPC   C3A 2360  10.171   9.203   6.441
  171POPC   C4A 2361   0.048   9.056   6.235
  171POPC   C1B 2362  10.417   9.628   7.241
  171POPC   C2B 2363  10.162   9.706   6.919
  171POPC   C3B 2364  10.382   9.654   6.552
  171POPC   C4B 2365  10.344   9.554   6.127
  172POPC   NC3 2366  10.492   6.970   7.994
  172POPC   PO4 2367   9.875   7.271   8.110
  172POPC   GL1 2368  10.058   7.119   7.728
  172POPC   GL2 2369  10.266   7.376   7.610
  172POPC   C1A 2370  10.164   6.959   7.300
  172POPC   D2A 2371  10.001   7.059   6.887
  172POPC   C3A 2372  10.332   7.103   6.583
  172POPC   C4A 2373  10.336   7.002   6.189
  172POPC   C1B 2374   9.948   7.458   7.339
  172POPC   C2B 2375   9.878   7.582   6.929
  172POPC   C3B 2376   9.943   7.446   6.526
  172POPC   C4B 2377  10.072   7.428   6.123
  173POPC   NC3 2378   8.518   2.286   8.057
  173POPC   PO4 2379   8.152   2.912   8.099
  173POPC   GL1 2380   8.493   2.791   7.741
  173POPC   GL2 2381   8.447   2.487   7.523
  173POPC   C1A 2382   8.692   2.874   7.302
  173POPC   D2A 2383   8.467   2.697   6.913
  173POPC   C3A 2384   8.456   2.921   6.508
  173POPC   C4A 2385   8.797   2.920   6.191
  173POPC   C1B 2386   8.779   2.358   7.146
  173POPC   C2B 2387   8.968   2.314   6.747
  173POPC   C3B 2388   8.719   2.493   6.454
  173POPC   C4B 2389   8.355   2.470   6.198
  174POPC   NC3 2390   6.416   0.680   4.061
  174POPC   PO4 2391   6.827   0.186   4.004
  174POPC   GL1 2392   6.592   0.322   4.354
  174POPC   GL2 2393   6.258   0.211   4.281
  174POPC   C1A 2394   6.695   0.583   4.711
  174POPC   D2A 2395   6.624   0.327   5.050
  174POPC   C3A 2396   6.565   0.485   5.418
  174POPC   C4A 2397   6.612   0.207   5.764
  174POPC   C1B 2398   6.211   0.437   4.682
  174POPC   C2B 2399   6.084   0.323   5.103
  174POPC   C3B 2400   6.120   0.306   5.532
  174POPC   C4B 2401   6.319   0.646   5.848
  175POPC   NC3 2402   5.620   2.165   3.922
  175POPC   PO4 2403   6.111   1.563   3.857
  175POPC   GL1 2404   6.090   1.712   4.304
  175POPC   GL2 2405   5.731   1.829   4.314
  175POPC   C1A 2406   5.946   1.742   4.770
  175POPC   D2A 2407   5.640   1.829   5.101
  175POPC   C3A 2408   5.822   1.973   5.477
  175POPC   C4A 2409   5.875   1.698   5.804
  175POPC   C1B 2410   5.611   2.115   4.667
  175POPC   C2B 2411   5.283   2.177   4.993
  175POPC   C3B 2412   5.342   2.264   5.393
  175POPC   C4B 2413   5.299   2.344   5.816
  176POPC   NC3 2414   0.050   9.529   4.061
  176POPC   PO4 2415   0.588   9.871   3.756
  176POPC   GL1 2416   0.649   9.614   4.144
  176POPC   GL2 2417   0.488   9.279   4.173
  176POPC   C1A 2418   0.778   9.614   4.566
  176POPC   D2A 2419   0.904   9.623   4.994
  176POPC   C3A 2420   0.651   9.390   5.239
  176POPC   C4A 2421   0.639   9.396   5.662
  176POPC   C1B 2422   0.308   9.209   4.603
  176POPC   C2B 2423   0.166   9.354   5.001
  176POPC   C3B 2424   0.200   9.220   5.399
  176POPC   C4B 2425   0.148   9.353   5.795
  177POPC   NC3 2426   3.532   0.914   3.823
  177POPC   PO4 2427   3.223   0.286   3.913
  177POPC   GL1 2428   3.402   0.462   4.240
  177POPC   GL2 2429   3.618   0.179   4.296
  177POPC   C1A 2430   3.523   0.523   4.675
  177POPC   D2A 2431   3.666   0.521   5.078
  177POPC   C3A 2432   3.633   0.793   5.435
  177POPC   C4A 2433   3.566   0.548   5.832
  177POPC   C1B 2434   3.279   0.081   4.592
  177POPC   C2B 2435   3.197   0.244   4.997
  177POPC   C3B 2436   3.264   0.424   5.397
  177POPC   C4B 2437   3.105   0.369   5.796
  178POPC   NC3 2438   3.037   4.320   4.025
  178POPC   PO4 2439   2.419   4.460   3.898
  178POPC   GL1 2440   2.418   4.351   4.291
  178POPC   GL2 2441   2.624   4.074   4.241
  178POPC   C1A 2442   2.607   4.333   4.691
  178POPC   D2A 2443   2.476   4.175   5.072
  178POPC   C3A 2444   2.603   4.375   5.466
  178POPC   C4A 2445   2.971   4.489   5.723
  178POPC   C1B 2446   2.967   3.989   4.584
  178POPC   C2B 2447   2.948   3.956   5.024
  178POPC   C3B 2448   3.151   4.079   5.415
  178POPC   C4B 2449   3.239   4.032   5.840
  179POPC   NC3 2450   9.503   8.077   3.583
  179POPC   PO4 2451   8.925   8.005   3.905
  179POPC   GL1 2452   9.127   8.095   4.294
  179POPC   GL2 2453   9.434   8.002   4.355
  179POPC   C1A 2454   9.141   7.943   4.739
  179POPC   D2A 2455   9.444   7.978   5.065
  179POPC   C3A 2456   9.210   7.870   5.408
  179POPC   C4A 2457   9.459   7.929   5.727
  179POPC   C1B 2458   9.596   7.666   4.612
  179POPC   C2B 2459   9.800   7.596   4.983
  179POPC   C3B 2460   9.811   7.723   5.386
  179POPC   C4B 2461   9.798   7.509   5.716
  180POPC   NC3 2462   9.392   6.500   3.902
  180POPC   PO4 2463   9.923   6.935   3.966
  180POPC   GL1 2464   9.756   6.646   4.293
  180POPC   GL2 2465   9.394   6.600   4.390
  180POPC   C1A 2466   9.709   6.604   4.758
  180POPC   D2A 2467   9.671   6.349   5.155
  180POPC   C3A 2468   9.689   6.587   5.571
  180POPC   C4A 2469   9.476   6.618   6.015
  180POPC   C1B 2470   9.305   6.304   4.782
  180POPC   C2B 2471   9.164   6.228   5.181
  180POPC   C3B 2472   9.213   6.394   5.556
  180POPC   C4B 2473   9.204   6.198   5.930
  181POPC   NC3 2474   3.206   7.211   4.074
  181POPC   PO4 2475   3.813   7.454   3.962
  181POPC   GL1 2476   3.623   7.391   4.417
  181POPC   GL2 2477   3.239   7.436   4.528
  181POPC   C1A 2478   3.615   7.412   4.897
  181POPC   D2A 2479   3.407   7.264   5.281
  181POPC   C3A 2480   3.623   7.163   5.654
  181POPC   C4A 2481   3.760   6.802   5.908
  181POPC   C1B 2482   3.104   7.020   4.749
  181POPC   C2B 2483   3.146   6.821   5.171
  181POPC   C3B 2484   3.056   7.006   5.576
  181POPC   C4B 2485   3.065   7.437   5.677
  182POPC   NC3 2486   9.675   9.948   3.995
  182POPC   PO4 2487   9.118   9.867   4.263
  182POPC   GL1 2488   9.167  10.148   4.549
  182POPC   GL2 2489   9.422  10.268   4.292
  182POPC   C1A 2490   9.171   9.927   4.963
  182POPC   D2A 2491   9.482   9.891   5.268
  182POPC   C3A 2492   9.455   9.967   5.708
  182POPC   C4A 2493   9.294  10.130   6.125
  182POPC   C1B 2494   9.672  10.393   4.607
  182POPC   C2B 2495   9.517  10.366   4.997
  182POPC   C3B 2496   9.632  10.371   5.398
  182POPC   C4B 2497   9.424  10.460   5.780
  183POPC   NC3 2498   9.649   2.738   3.870
  183POPC   PO4 2499   9.709   2.292   4.303
  183POPC   GL1 2500   9.412   2.616   4.316
  183POPC   GL2 2501   9.218   2.890   4.127
  183POPC   C1A 2502   9.529   2.799   4.698
  183POPC   D2A 2503   9.543   2.541   5.036
  183POPC   C3A 2504   9.409   2.718   5.382
  183POPC   C4A 2505   9.554   2.577   5.767
  183POPC   C1B 2506   9.059   2.921   4.534
  183POPC   C2B 2507   9.110   2.963   4.965
  183POPC   C3B 2508   9.004   3.054   5.365
  183POPC   C4B 2509   9.114   2.859   5.771
  184POPC   NC3 2510   8.837   7.591   4.083
  184POPC   PO4 2511   8.351   8.056   4.194
  184POPC   GL1 2512   8.647   8.159   4.431
  184POPC   GL2 2513   8.717   7.829   4.495
  184POPC   C1A 2514   8.688   8.165   4.856
  184POPC   D2A 2515   8.536   7.940   5.214
  184POPC   C3A 2516   8.551   8.134   5.599
  184POPC   C4A 2517   8.947   8.162   5.776
  184POPC   C1B 2518   8.748   7.618   4.861
  184POPC   C2B 2519   8.504   7.426   5.138
  184POPC   C3B 2520   8.469   7.447   5.574
  184POPC   C4B 2521   8.790   7.692   5.731
  185POPC   NC3 2522   4.712   0.564   3.842
  185POPC   PO4 2523   5.332   0.174   3.938
  185POPC   GL1 2524   5.135   0.367   4.302
  185POPC   GL2 2525   4.823   0.318   4.260
  185POPC   C1A 2526   5.249   0.642   4.685
  185POPC   D2A 2527   5.085   0.762   5.088
  185POPC   C3A 2528   5.055   0.436   5.351
  185POPC   C4A 2529   5.006   0.524   5.757
  185POPC   C1B 2530   4.779   0.450   4.676
  185POPC   C2B 2531   4.616   0.362   5.070
  185POPC   C3B 2532   4.651   0.135   5.483
  185POPC   C4B 2533   4.645   0.197   5.935
  186POPC   NC3 2534   5.751  10.455   3.914
  186POPC   PO4 2535   5.383  10.056   3.609
  186POPC   GL1 2536   5.437  10.224   4.198
  186POPC   GL2 2537   5.772  10.178   4.360
  186POPC   C1A 2538   5.354  10.129   4.670
  186POPC   D2A 2539   5.402  10.135   5.137
  186POPC   C3A 2540   5.283  10.337   5.538
  186POPC   C4A 2541   5.429  10.239   5.976
  186POPC   C1B 2542   5.810  10.281   4.820
  186POPC   C2B 2543   5.845  10.397   5.249
  186POPC   C3B 2544   5.780  10.377   5.655
  186POPC   C4B 2545   5.909  10.098   6.016
  187POPC   NC3 2546  10.393   7.965   4.024
  187POPC   PO4 2547   9.881   8.277   3.797
  187POPC   GL1 2548   9.921   8.094   4.214
  187POPC   GL2 2549   9.982   7.733   4.271
  187POPC   C1A 2550   9.819   8.125   4.645
  187POPC   D2A 2551  10.026   8.049   4.987
  187POPC   C3A 2552   9.872   8.206   5.301
  187POPC   C4A 2553   9.864   8.236   5.726
  187POPC   C1B 2554  10.280   7.756   4.633
  187POPC   C2B 2555  10.488   7.823   5.026
  187POPC   C3B 2556  10.309   7.932   5.407
  187POPC   C4B 2557  10.194   7.820   5.799
  188POPC   NC3 2558   2.841   1.566   3.967
  188POPC   PO4 2559   2.653   0.959   3.826
  188POPC   GL1 2560   2.638   1.158   4.183
  188POPC   GL2 2561   2.983   1.013   4.273
  188POPC   C1A 2562   2.502   1.200   4.573
  188POPC   D2A 2563   2.694   0.979   4.884
  188POPC   C3A 2564   2.406   0.839   5.180
  188POPC   C4A 2565   2.368   0.987   5.598
  188POPC   C1B 2566   3.003   1.363   4.582
  188POPC   C2B 2567   2.971   1.408   5.034
  188POPC   C3B 2568   2.750   1.200   5.345
  188POPC   C4B 2569   2.799   1.251   5.783
  189POPC   NC3 2570   5.642   8.841   3.883
  189POPC   PO4 2571   6.157   8.321   3.885
  189POPC   GL1 2572   5.840   8.388   4.233
  189POPC   GL2 2573   5.758   8.714   4.347
  189POPC   C1A 2574   5.849   8.378   4.699
  189POPC   D2A 2575   6.013   8.509   5.091
  189POPC   C3A 2576   5.834   8.213   5.340
  189POPC   C4A 2577   5.569   8.286   5.655
  189POPC   C1B 2578   5.609   8.978   4.680
  189POPC   C2B 2579   5.763   9.006   5.077
  189POPC   C3B 2580   5.610   8.847   5.452
  189POPC   C4B 2581   5.609   8.985   5.863
  190POPC   NC3 2582   7.391   1.219   3.914
  190POPC   PO4 2583   6.812   0.851   3.913
  190POPC   GL1 2584   7.069   0.973   4.239
  190POPC   GL2 2585   7.085   1.295   4.303
  190POPC   C1A 2586   7.036   0.967   4.696
  190POPC   D2A 2587   7.053   1.123   5.122
  190POPC   C3A 2588   6.877   0.871   5.453
  190POPC   C4A 2589   7.085   0.820   5.878
  190POPC   C1B 2590   7.264   1.427   4.695
  190POPC   C2B 2591   7.081   1.641   4.986
  190POPC   C3B 2592   7.062   1.637   5.381
  190POPC   C4B 2593   7.091   1.279   5.632
  191POPC   NC3 2594   5.853   7.957   3.946
  191POPC   PO4 2595   5.216   8.081   3.954
  191POPC   GL1 2596   5.454   8.075   4.337
  191POPC   GL2 2597   5.784   7.900   4.436
  191POPC   C1A 2598   5.383   8.037   4.762
  191POPC   D2A 2599   5.115   8.216   5.035
  191POPC   C3A 2600   5.155   8.017   5.391
  191POPC   C4A 2601   5.417   7.768   5.631
  191POPC   C1B 2602   5.850   7.892   4.875
  191POPC   C2B 2603   5.738   7.682   5.232
  191POPC   C3B 2604   5.924   7.757   5.605
  191POPC   C4B 2605   6.088   8.114   5.790
  192POPC   NC3 2606   8.045   4.091   3.635
  192POPC   PO4 2607   7.887   4.747   4.031
  192POPC   GL1 2608   7.874   4.487   4.507
  192POPC   GL2 2609   8.065   4.078   4.516
  192POPC   C1A 2610   7.938   4.351   4.917
  192POPC   D2A 2611   8.171   4.031   5.056
  192POPC   C3A 2612   8.072   4.155   5.434
  192POPC   C4A 2613   7.896   4.293   5.834
  192POPC   C1B 2614   7.751   3.886   4.807
  192POPC   C2B 2615   7.679   3.914   5.230
  192POPC   C3B 2616   7.541   3.974   5.660
  192POPC   C4B 2617   7.662   3.866   6.099
  193POPC   NC3 2618   0.291   0.478   3.689
  193POPC   PO4 2619  10.077   0.408   3.850
  193POPC   GL1 2620   9.976   0.216   4.249
  193POPC   GL2 2621  10.152   0.485   4.367
  193POPC   C1A 2622  10.206  10.484   4.618
  193POPC   D2A 2623  10.300   0.035   5.030
  193POPC   C3A 2624  10.193   0.281   5.349
  193POPC   C4A 2625  10.204   0.258   5.760
  193POPC   C1B 2626   9.897   0.354   4.726
  193POPC   C2B 2627   9.734   0.311   5.128
  193POPC   C3B 2628   9.729   0.325   5.589
  193POPC   C4B 2629   9.831   0.599   5.886
  194POPC   NC3 2630   7.255   8.570   4.031
  194POPC   PO4 2631   6.843   8.976   3.692
  194POPC   GL1 2632   6.893   8.860   4.253
  194POPC   GL2 2633   7.194   8.697   4.497
  194POPC   C1A 2634   6.817   8.820   4.745
  194POPC   D2A 2635   7.170   8.756   5.053
  194POPC   C3A 2636   7.093   8.562   5.477
  194POPC   C4A 2637   6.835   8.704   5.825
  194POPC   C1B 2638   7.525   8.495   4.665
  194POPC   C2B 2639   7.769   8.510   5.036
  194POPC   C3B 2640   7.614   8.476   5.453
  194POPC   C4B 2641   7.481   8.807   5.725
  195POPC   NC3 2642   3.821   9.563   3.919
  195POPC   PO4 2643   4.477   9.722   3.868
  195POPC   GL1 2644   4.412   9.372   4.230
  195POPC   GL2 2645   4.147   9.142   4.237
  195POPC   C1A 2646   4.442   9.114   4.654
  195POPC   D2A 2647   4.216   9.201   5.063
  195POPC   C3A 2648   4.473   9.174   5.453
  195POPC   C4A 2649   4.398   9.262   5.912
  195POPC   C1B 2650   4.048   9.443   4.624
  195POPC   C2B 2651   4.051   9.678   5.074
  195POPC   C3B 2652   4.136   9.557   5.512
  195POPC   C4B 2653   3.965   9.164   5.647
  196POPC   NC3 2654   8.769   0.318   3.864
  196POPC   PO4 2655   9.206   0.888   3.956
  196POPC   GL1 2656   9.118   0.675   4.304
  196POPC   GL2 2657   8.943   0.376   4.332
  196POPC   C1A 2658   9.122   0.780   4.700
  196POPC   D2A 2659   8.896   0.882   5.028
  196POPC   C3A 2660   8.982   0.684   5.380
  196POPC   C4A 2661   8.660   0.585   5.595
  196POPC   C1B 2662   8.677   0.504   4.679
  196POPC   C2B 2663   8.675   0.370   5.097
  196POPC   C3B 2664   8.794   0.127   5.440
  196POPC   C4B 2665   8.627   0.149   5.851
  197POPC   NC3 2666  10.242   2.910   3.956
  197POPC   PO4 2667   9.853   2.355   3.722
  197POPC   GL1 2668  10.136   2.469   4.173
  197POPC   GL2 2669  10.409   2.654   4.355
  197POPC   C1A 2670  10.173   2.417   4.709
  197POPC   D2A 2671  10.011   2.730   5.010
  197POPC   C3A 2672   9.929   2.640   5.423
  197POPC   C4A 2673  10.085   2.888   5.744
  197POPC   C1B 2674  10.261   2.965   4.623
  197POPC   C2B 2675  10.436   3.037   5.020
  197POPC   C3B 2676  10.452   2.780   5.357
  197POPC   C4B 2677   0.094   2.919   5.731
  198POPC   NC3 2678   8.302   3.541   3.813
  198POPC   PO4 2679   8.936   3.284   3.823
  198POPC   GL1 2680   8.905   3.327   4.238
  198POPC   GL2 2681   8.677   3.615   4.229
  198POPC   C1A 2682   8.749   3.304   4.674
  198POPC   D2A 2683   8.503   3.178   5.058
  198POPC   C3A 2684   8.526   3.331   5.453
  198POPC   C4A 2685   8.815   3.265   5.787
  198POPC   C1B 2686   8.498   3.763   4.641
  198POPC   C2B 2687   8.571   3.699   5.058
  198POPC   C3B 2688   8.504   3.872   5.432
  198POPC   C4B 2689   8.526   3.685   5.817
  199POPC   NC3 2690   7.959   7.116   3.823
  199POPC   PO4 2691   8.606   7.212   3.909
  199POPC   GL1 2692   8.247   7.309   4.269
  199POPC   GL2 2693   7.913   7.204   4.340
  199POPC   C1A 2694   8.221   7.219   4.757
  199POPC   D2A 2695   7.970   7.059   5.138
  199POPC   C3A 2696   7.983   7.281   5.538
  199POPC   C4A 2697   8.074   7.237   6.001
  199POPC   C1B 2698   7.679   7.210   4.743
  199POPC   C2B 2699   7.555   7.425   5.142
  199POPC   C3B 2700   7.327   7.409   5.526
  199POPC   C4B 2701   7.588   7.269   5.860
  200POPC   NC3 2702   0.411   7.818   3.807
  200POPC   PO4 2703   0.091   8.389   3.999
  200POPC   GL1 2704   0.342   8.090   4.243
  200POPC   GL2 2705   0.262   7.748   4.287
  200POPC   C1A 2706   0.326   8.106   4.699
  200POPC   D2A 2707   0.486   8.002   5.110
  200POPC   C3A 2708   0.249   8.199   5.401
  200POPC   C4A 2709   0.044   8.188   5.795
  200POPC   C1B 2710   0.319   7.605   4.664
  200POPC   C2B 2711   0.368   7.492   5.076
  200POPC   C3B 2712   0.277   7.684   5.482
  200POPC   C4B 2713   0.567   7.981   5.712
  201POPC   NC3 2714   7.308   7.122   3.833
  201POPC   PO4 2715   7.735   6.723   4.000
  201POPC   GL1 2716   7.465   6.981   4.308
  201POPC   GL2 2717   7.411   7.345   4.294
  201POPC   C1A 2718   7.246   6.881   4.684
  201POPC   D2A 2719   7.439   6.767   5.078
  201POPC   C3A 2720   7.542   6.946   5.469
  201POPC   C4A 2721   7.313   6.843   5.878
  201POPC   C1B 2722   7.189   7.374   4.675
  201POPC   C2B 2723   7.117   7.185   5.086
  201POPC   C3B 2724   7.009   7.006   5.483
  201POPC   C4B 2725   6.966   7.235   5.853
  202POPC   NC3 2726   8.867  10.199   4.055
  202POPC   PO4 2727   8.434   9.659   3.930
  202POPC   GL1 2728   8.548   9.929   4.349
  202POPC   GL2 2729   8.521  10.320   4.411
  202POPC   C1A 2730   8.684  10.045   4.792
  202POPC   D2A 2731   8.496  10.384   5.067
  202POPC   C3A 2732   8.472  10.235   5.504
  202POPC   C4A 2733   8.520   9.834   5.752
  202POPC   C1B 2734   8.828   0.023   4.674
  202POPC   C2B 2735   9.013  10.404   5.030
  202POPC   C3B 2736   9.134  10.256   5.405
  202POPC   C4B 2737   8.912  10.222   5.791
  203POPC   NC3 2738   9.505   5.732   3.659
  203POPC   PO4 2739   9.554   6.158   4.187
  203POPC   GL1 2740   9.619   5.852   4.429
  203POPC   GL2 2741   9.508   5.546   4.292
  203POPC   C1A 2742   9.695   5.928   4.823
  203POPC   D2A 2743   9.526   5.824   5.168
  203POPC   C3A 2744   9.559   6.022   5.516
  203POPC   C4A 2745   9.707   6.167   5.877
  203POPC   C1B 2746   9.275   5.524   4.700
  203POPC   C2B 2747   9.429   5.340   5.081
  203POPC   C3B 2748   9.321   5.457   5.479
  203POPC   C4B 2749   9.394   5.675   5.834
  204POPC   NC3 2750   6.433   1.939   3.934
  204POPC   PO4 2751   6.056   2.447   3.876
  204POPC   GL1 2752   6.103   2.218   4.276
  204POPC   GL2 2753   6.446   2.101   4.395
  204POPC   C1A 2754   6.128   2.255   4.740
  204POPC   D2A 2755   6.171   2.048   5.113
  204POPC   C3A 2756   6.229   2.270   5.463
  204POPC   C4A 2757   6.174   2.110   5.864
  204POPC   C1B 2758   6.431   1.829   4.726
  204POPC   C2B 2759   6.609   1.795   5.142
  204POPC   C3B 2760   6.464   1.801   5.568
  204POPC   C4B 2761   6.775   1.622   5.832
  205POPC   NC3 2762   1.774   3.445   3.851
  205POPC   PO4 2763   1.599   2.872   3.839
  205POPC   GL1 2764   1.778   3.127   4.256
  205POPC   GL2 2765   1.707   3.543   4.332
  205POPC   C1A 2766   1.694   3.232   4.717
  205POPC   D2A 2767   1.861   3.068   5.079
  205POPC   C3A 2768   1.820   3.268   5.438
  205POPC   C4A 2769   2.183   3.109   5.625
  205POPC   C1B 2770   2.029   3.611   4.682
  205POPC   C2B 2771   1.942   3.709   5.125
  205POPC   C3B 2772   2.158   3.634   5.518
  205POPC   C4B 2773   1.948   3.501   5.893
  206POPC   NC3 2774   6.343   3.559   3.929
  206POPC   PO4 2775   6.841   3.859   3.927
  206POPC   GL1 2776   6.700   3.671   4.337
  206POPC   GL2 2777   6.413   3.467   4.411
  206POPC   C1A 2778   6.646   3.657   4.813
  206POPC   D2A 2779   6.573   3.415   5.178
  206POPC   C3A 2780   6.517   3.696   5.572
  206POPC   C4A 2781   6.406   3.892   6.001
  206POPC   C1B 2782   6.206   3.360   4.787
  206POPC   C2B 2783   6.135   3.163   5.196
  206POPC   C3B 2784   6.287   3.257   5.602
  206POPC   C4B 2785   6.052   3.562   5.816
  207POPC   NC3 2786   9.805   7.397   3.914
  207POPC   PO4 2787   0.032   7.545   3.864
  207POPC   GL1 2788  10.399   7.403   4.272
  207POPC   GL2 2789  10.278   7.104   4.276
  207POPC   C1A 2790  10.461   7.267   4.721
  207POPC   D2A 2791  10.284   7.134   5.095
  207POPC   C3A 2792  10.253   7.426   5.419
  207POPC   C4A 2793  10.461   7.377   5.804
  207POPC   C1B 2794   9.958   7.267   4.581
  207POPC   C2B 2795   9.750   7.096   4.955
  207POPC   C3B 2796   9.844   7.081   5.388
  207POPC   C4B 2797  10.080   7.064   5.757
  208POPC   NC3 2798   0.134   9.980   3.712
  208POPC   PO4 2799   0.404   0.088   3.933
  208POPC   GL1 2800   0.280  10.372   4.291
  208POPC   GL2 2801   0.361  10.041   4.197
  208POPC   C1A 2802   0.231  10.486   4.734
  208POPC   D2A 2803   0.475   0.029   5.121
  208POPC   C3A 2804   0.447  10.265   5.497
  208POPC   C4A 2805   0.223  10.303   5.870
  208POPC   C1B 2806   0.507  10.055   4.640
  208POPC   C2B 2807   0.426   9.801   5.002
  208POPC   C3B 2808   0.236   9.733   5.413
  208POPC   C4B 2809   0.370   9.809   5.823
  209POPC   NC3 2810   4.048   0.385   3.986
  209POPC   PO4 2811   4.361   0.835   3.735
  209POPC   GL1 2812   4.374   0.659   4.235
  209POPC   GL2 2813   4.337   0.315   4.399
  209POPC   C1A 2814   4.342   0.734   4.686
  209POPC   D2A 2815   4.144   0.666   5.099
  209POPC   C3A 2816   4.351   0.557   5.437
  209POPC   C4A 2817   4.357   0.577   5.813
  209POPC   C1B 2818   4.017   0.320   4.712
  209POPC   C2B 2819   4.089   0.160   5.131
  209POPC   C3B 2820   3.901   0.332   5.508
  209POPC   C4B 2821   3.976   0.276   5.939
  210POPC   NC3 2822   1.938   8.193   3.823
  210POPC   PO4 2823   2.136   7.485   3.778
  210POPC   GL1 2824   2.112   7.625   4.217
  210POPC   GL2 2825   2.026   8.000   4.300
  210POPC   C1A 2826   2.303   7.640   4.628
  210POPC   D2A 2827   2.448   7.764   5.040
  210POPC   C3A 2828   2.245   7.628   5.420
  210POPC   C4A 2829   2.095   7.543   5.821
  210POPC   C1B 2830   1.937   7.964   4.751
  210POPC   C2B 2831   2.021   8.018   5.176
  210POPC   C3B 2832   1.802   7.889   5.506
  210POPC   C4B 2833   1.696   7.859   5.922
  211POPC   NC3 2834   1.752   9.724   3.998
  211POPC   PO4 2835   2.010  10.368   3.800
  211POPC   GL1 2836   1.909  10.219   4.189
  211POPC   GL2 2837   1.546  10.265   4.197
  211POPC   C1A 2838   2.052  10.190   4.631
  211POPC   D2A 2839   2.186  10.381   5.048
  211POPC   C3A 2840   2.084  10.137   5.430
  211POPC   C4A 2841   1.977  10.280   5.811
  211POPC   C1B 2842   1.499  10.244   4.647
  211POPC   C2B 2843   1.722  10.157   5.032
  211POPC   C3B 2844   1.574  10.188   5.451
  211POPC   C4B 2845   1.708   9.860   5.721
  212POPC   NC3 2846   2.286   5.629   3.827
  212POPC   PO4 2847   1.661   5.362   3.705
  212POPC   GL1 2848   1.829   5.460   4.160
  212POPC   GL2 2849   1.502   5.509   4.327
  212POPC   C1A 2850   1.957   5.554   4.648
  212POPC   D2A 2851   2.191   5.847   4.986
  212POPC   C3A 2852   2.320   5.776   5.443
  212POPC   C4A 2853   2.203   5.620   5.864
  212POPC   C1B 2854   1.503   5.783   4.687
  212POPC   C2B 2855   1.715   5.765   5.088
  212POPC   C3B 2856   1.838   5.586   5.521
  212POPC   C4B 2857   1.756   5.829   5.880
  213POPC   NC3 2858   3.081   9.498   3.935
  213POPC   PO4 2859   3.741   9.112   3.835
  213POPC   GL1 2860   3.669   9.265   4.306
  213POPC   GL2 2861   3.602   9.632   4.371
  213POPC   C1A 2862   3.617   9.204   4.744
  213POPC   D2A 2863   3.717   9.106   5.151
  213POPC   C3A 2864   3.648   9.468   5.363
  213POPC   C4A 2865   3.512   9.427   5.771
  213POPC   C1B 2866   3.270   9.577   4.661
  213POPC   C2B 2867   3.204   9.345   5.043
  213POPC   C3B 2868   3.145   9.501   5.443
  213POPC   C4B 2869   2.994   9.762   5.787
  214POPC   NC3 2870   1.769   7.208   3.849
  214POPC   PO4 2871   2.211   6.770   3.924
  214POPC   GL1 2872   2.111   7.051   4.236
  214POPC   GL2 2873   1.787   7.042   4.354
  214POPC   C1A 2874   2.183   7.146   4.663
  214POPC   D2A 2875   2.317   7.275   5.043
  214POPC   C3A 2876   2.162   7.114   5.425
  214POPC   C4A 2877   2.044   7.025   5.849
  214POPC   C1B 2878   1.781   7.458   4.612
  214POPC   C2B 2879   1.853   7.542   5.073
  214POPC   C3B 2880   1.723   7.378   5.506
  214POPC   C4B 2881   1.614   7.346   5.964
  215POPC   NC3 2882   1.757   6.474   3.992
  215POPC   PO4 2883   2.326   6.073   3.935
  215POPC   GL1 2884   2.031   6.108   4.237
  215POPC   GL2 2885   2.158   6.437   4.316
  215POPC   C1A 2886   1.902   6.113   4.663
  215POPC   D2A 2887   1.836   6.311   5.065
  215POPC   C3A 2888   1.880   6.093   5.445
  215POPC   C4A 2889   2.128   6.143   5.789
  215POPC   C1B 2890   2.020   6.648   4.670
  215POPC   C2B 2891   2.173   6.729   5.087
  215POPC   C3B 2892   2.102   6.608   5.539
  215POPC   C4B 2893   1.726   6.504   5.745
  216POPC   NC3 2894   4.637   2.108   4.098
  216POPC   PO4 2895   5.265   1.852   4.014
  216POPC   GL1 2896   5.216   1.999   4.389
  216POPC   GL2 2897   4.900   2.084   4.526
  216POPC   C1A 2898   5.215   1.738   4.756
  216POPC   D2A 2899   4.958   1.787   5.105
  216POPC   C3A 2900   5.223   1.666   5.393
  216POPC   C4A 2901   5.399   1.862   5.694
  216POPC   C1B 2902   4.804   2.392   4.834
  216POPC   C2B 2903   4.841   2.410   5.292
  216POPC   C3B 2904   4.917   2.068   5.580
  216POPC   C4B 2905   4.663   1.798   5.803
  217POPC   NC3 2906   7.917   9.952   3.861
  217POPC   PO4 2907   7.553   0.182   3.858
  217POPC   GL1 2908   7.774   0.176   4.272
  217POPC   GL2 2909   8.040  10.433   4.223
  217POPC   C1A 2910   7.731   0.081   4.716
  217POPC   D2A 2911   7.977  10.445   5.074
  217POPC   C3A 2912   7.734  10.361   5.416
  217POPC   C4A 2913   7.596  10.454   5.810
  217POPC   C1B 2914   8.075  10.190   4.617
  217POPC   C2B 2915   8.212   9.964   4.966
  217POPC   C3B 2916   8.140   9.850   5.359
  217POPC   C4B 2917   8.040  10.073   5.718
  218POPC   NC3 2918   4.985   7.679   3.956
  218POPC   PO4 2919   4.605   7.934   4.268
  218POPC   GL1 2920   4.971   7.889   4.458
  218POPC   GL2 2921   4.961   8.233   4.531
  218POPC   C1A 2922   4.961   7.739   4.905
  218POPC   D2A 2923   4.711   7.587   5.272
  218POPC   C3A 2924   4.891   7.682   5.701
  218POPC   C4A 2925   4.801   7.471   6.155
  218POPC   C1B 2926   4.643   8.147   4.870
  218POPC   C2B 2927   4.626   8.094   5.316
  218POPC   C3B 2928   4.815   8.296   5.656
  218POPC   C4B 2929   5.149   8.127   5.892
  219POPC   NC3 2930   2.740   8.634   3.952
  219POPC   PO4 2931   3.218   9.127   4.166
  219POPC   GL1 2932   3.040   8.736   4.353
  219POPC   GL2 2933   2.680   8.776   4.422
  219POPC   C1A 2934   2.960   8.443   4.723
  219POPC   D2A 2935   2.855   8.561   5.111
  219POPC   C3A 2936   2.960   8.395   5.436
  219POPC   C4A 2937   2.971   8.724   5.696
  219POPC   C1B 2938   2.492   8.665   4.795
  219POPC   C2B 2939   2.351   8.822   5.156
  219POPC   C3B 2940   2.488   8.637   5.509
  219POPC   C4B 2941   2.568   8.407   5.854
  220POPC   NC3 2942   6.349   7.185   4.107
  220POPC   PO4 2943   6.955   7.350   4.008
  220POPC   GL1 2944   6.750   7.380   4.404
  220POPC   GL2 2945   6.697   7.043   4.522
  220POPC   C1A 2946   6.713   7.427   4.861
  220POPC   D2A 2947   6.613   7.143   5.183
  220POPC   C3A 2948   6.547   7.289   5.567
  220POPC   C4A 2949   6.451   7.153   5.970
  220POPC   C1B 2950   6.300   7.092   4.779
  220POPC   C2B 2951   6.130   6.929   5.178
  220POPC   C3B 2952   6.217   6.862   5.615
  220POPC   C4B 2953   5.920   6.966   5.968
  221POPC   NC3 2954   0.990   4.662   3.867
  221POPC   PO4 2955   1.144   5.269   4.037
  221POPC   GL1 2956   1.172   5.084   4.374
  221POPC   GL2 2957   1.236   4.757   4.310
  221POPC   C1A 2958   1.341   5.036   4.748
  221POPC   D2A 2959   1.539   5.315   4.958
  221POPC   C3A 2960   1.476   5.227   5.371
  221POPC   C4A 2961   1.530   4.968   5.744
  221POPC   C1B 2962   0.923   4.729   4.642
  221POPC   C2B 2963   0.954   4.941   5.047
  221POPC   C3B 2964   1.127   4.826   5.440
  221POPC   C4B 2965   1.037   5.126   5.753
  222POPC   NC3 2966   2.847   0.566   3.939
  222POPC   PO4 2967   2.258   0.207   4.157
  222POPC   GL1 2968   2.541   0.366   4.427
  222POPC   GL2 2969   2.905   0.307   4.348
  222POPC   C1A 2970   2.428   0.316   4.853
  222POPC   D2A 2971   2.355   0.317   5.265
  222POPC   C3A 2972   2.368   0.052   5.573
  222POPC   C4A 2973   2.597   0.244   5.870
  222POPC   C1B 2974   2.930   0.557   4.707
  222POPC   C2B 2975   2.808   0.523   5.142
  222POPC   C3B 2976   2.829   0.727   5.524
  222POPC   C4B 2977   2.793   0.725   5.962
  223POPC   NC3 2978   8.414   5.737   3.966
  223POPC   PO4 2979   9.160   5.625   3.959
  223POPC   GL1 2980   8.807   5.578   4.271
  223POPC   GL2 2981   8.661   5.904   4.401
  223POPC   C1A 2982   8.713   5.490   4.702
  223POPC   D2A 2983   8.909   5.273   5.023
  223POPC   C3A 2984   8.825   5.316   5.431
  223POPC   C4A 2985   8.807   5.400   5.826
  223POPC   C1B 2986   8.837   5.981   4.829
  223POPC   C2B 2987   9.032   5.740   5.145
  223POPC   C3B 2988   8.973   5.850   5.565
  223POPC   C4B 2989   8.575   5.971   5.741
  224POPC   NC3 2990   3.338  10.338   3.949
  224POPC   PO4 2991   2.777   9.903   3.866
  224POPC   GL1 2992   3.146   9.905   4.251
  224POPC   GL2 2993   3.463  10.137   4.411
  224POPC   C1A 2994   3.066  10.046   4.697
  224POPC   D2A 2995   3.189  10.246   5.073
  224POPC   C3A 2996   3.291  10.026   5.465
  224POPC   C4A 2997   3.362  10.082   5.932
  224POPC   C1B 2998   3.701  10.387   4.765
  224POPC   C2B 2999   3.601   0.026   5.195
  224POPC   C3B 3000   3.507  10.498   5.629
  224POPC   C4B 3001   3.804  10.314   5.915
  225POPC   NC3 3002   6.726  10.236   3.951
  225POPC   PO4 3003   6.064  10.038   3.948
  225POPC   GL1 3004   6.295  10.196   4.310
  225POPC   GL2 3005   6.632  10.327   4.425
  225POPC   C1A 3006   6.300  10.152   4.757
  225POPC   D2A 3007   6.174  10.009   5.161
  225POPC   C3A 3008   6.343  10.348   5.429
  225POPC   C4A 3009   6.223  10.431   5.839
  225POPC   C1B 3010   6.815  10.100   4.761
  225POPC   C2B 3011   6.691  10.092   5.146
  225POPC   C3B 3012   6.727   9.905   5.527
  225POPC   C4B 3013   6.666  10.192   5.840
  226POPC   NC3 3014   6.545   8.679   3.931
  226POPC   PO4 3015   6.892   8.132   4.012
  226POPC   GL1 3016   6.668   8.394   4.381
  226POPC   GL2 3017   6.312   8.537   4.360
  226POPC   C1A 3018   6.499   8.465   4.839
  226POPC   D2A 3019   6.667   8.669   5.218
  226POPC   C3A 3020   6.412   8.527   5.536
  226POPC   C4A 3021   6.366   8.472   6.000
  226POPC   C1B 3022   6.146   8.826   4.680
  226POPC   C2B 3023   6.277   8.957   5.084
  226POPC   C3B 3024   6.087   9.007   5.479
  226POPC   C4B 3025   5.964   8.630   5.730
  227POPC   NC3 3026   7.143   1.859   3.872
  227POPC   PO4 3027   6.703   2.356   4.002
  227POPC   GL1 3028   6.948   2.155   4.325
  227POPC   GL2 3029   7.028   1.811   4.372
  227POPC   C1A 3030   6.871   2.049   4.768
  227POPC   D2A 3031   7.075   2.135   5.124
  227POPC   C3A 3032   6.876   2.096   5.536
  227POPC   C4A 3033   7.063   2.224   5.925
  227POPC   C1B 3034   7.359   1.972   4.679
  227POPC   C2B 3035   7.537   1.885   5.082
  227POPC   C3B 3036   7.413   2.030   5.475
  227POPC   C4B 3037   7.274   1.779   5.820
  228POPC   NC3 3038   9.423   1.288   3.908
  228POPC   PO4 3039  10.034   1.452   3.868
  228POPC   GL1 3040   9.784   1.434   4.238
  228POPC   GL2 3041   9.732   1.075   4.264
  228POPC   C1A 3042   9.836   1.381   4.701
  228POPC   D2A 3043   9.831   1.102   5.062
  228POPC   C3A 3044   9.700   1.172   5.466
  228POPC   C4A 3045   9.775   1.489   5.722
  228POPC   C1B 3046   9.390   1.184   4.536
  228POPC   C2B 3047   9.325   1.185   4.967
  228POPC   C3B 3048   9.218   1.138   5.381
  228POPC   C4B 3049   9.287   1.308   5.824
  229POPC   NC3 3050   9.272   5.144   4.009
  229POPC   PO4 3051   9.851   5.244   3.911
  229POPC   GL1 3052   9.744   5.065   4.328
  229POPC   GL2 3053   9.502   4.788   4.309
  229POPC   C1A 3054   9.693   4.930   4.768
  229POPC   D2A 3055   9.668   4.752   5.188
  229POPC   C3A 3056   9.687   5.078   5.473
  229POPC   C4A 3057   9.631   5.205   5.911
  229POPC   C1B 3058   9.197   4.999   4.616
  229POPC   C2B 3059   9.223   4.902   4.984
  229POPC   C3B 3060   9.203   4.943   5.362
  229POPC   C4B 3061   9.187   5.047   5.736
  230POPC   NC3 3062   7.125   0.510   3.823
  230POPC   PO4 3063   7.707   0.766   4.017
  230POPC   GL1 3064   7.423   0.559   4.296
  230POPC   GL2 3065   7.056   0.492   4.347
  230POPC   C1A 3066   7.341   0.547   4.737
  230POPC   D2A 3067   7.106   0.585   5.098
  230POPC   C3A 3068   7.378   0.742   5.435
  230POPC   C4A 3069   7.477   0.509   5.822
  230POPC   C1B 3070   6.999   0.165   4.729
  230POPC   C2B 3071   7.316   0.105   5.052
  230POPC   C3B 3072   7.363   0.216   5.429
  230POPC   C4B 3073   7.033   0.401   5.609
  231POPC   NC3 3074   1.965   4.414   4.005
  231POPC   PO4 3075   2.083   3.730   4.012
  231POPC   GL1 3076   2.021   4.012   4.339
  231POPC   GL2 3077   1.660   4.084   4.299
  231POPC   C1A 3078   2.082   4.314   4.701
  231POPC   D2A 3079   2.090   4.505   5.130
  231POPC   C3A 3080   2.130   4.162   5.444
  231POPC   C4A 3081   2.343   3.999   5.814
  231POPC   C1B 3082   1.679   3.984   4.736
  231POPC   C2B 3083   1.656   4.283   5.067
  231POPC   C3B 3084   1.672   4.363   5.525
  231POPC   C4B 3085   1.777   3.958   5.750
  232POPC   NC3 3086   2.473   7.164   3.883
  232POPC   PO4 3087   2.979   7.576   3.898
  232POPC   GL1 3088   2.746   7.430   4.284
  232POPC   GL2 3089   2.619   7.074   4.357
  232POPC   C1A 3090   2.726   7.368   4.744
  232POPC   D2A 3091   2.928   7.351   5.124
  232POPC   C3A 3092   2.647   7.313   5.429
  232POPC   C4A 3093   2.501   7.244   5.784
  232POPC   C1B 3094   2.561   6.824   4.726
  232POPC   C2B 3095   2.646   6.893   5.159
  232POPC   C3B 3096   2.587   6.770   5.610
  232POPC   C4B 3097   2.479   6.856   6.087
  233POPC   NC3 3098   4.000   1.317   3.928
  233POPC   PO4 3099   3.281   1.285   3.916
  233POPC   GL1 3100   3.587   1.237   4.227
  233POPC   GL2 3101   3.544   0.938   4.358
  233POPC   C1A 3102   3.689   1.361   4.634
  233POPC   D2A 3103   3.481   1.322   5.015
  233POPC   C3A 3104   3.655   1.477   5.388
  233POPC   C4A 3105   3.690   1.280   5.764
  233POPC   C1B 3106   3.272   0.956   4.707
  233POPC   C2B 3107   3.167   0.898   5.117
  233POPC   C3B 3108   3.243   1.147   5.452
  233POPC   C4B 3109   3.241   0.926   5.782
  234POPC   NC3 3110   2.032   8.788   3.715
  234POPC   PO4 3111   2.155   8.832   4.332
  234POPC   GL1 3112   1.849   8.778   4.584
  234POPC   GL2 3113   1.719   8.420   4.573
  234POPC   C1A 3114   1.871   8.976   4.956
  234POPC   D2A 3115   1.758   8.969   5.324
  234POPC   C3A 3116   2.096   9.025   5.569
  234POPC   C4A 3117   2.198   8.785   5.902
  234POPC   C1B 3118   1.999   8.464   4.934
  234POPC   C2B 3119   1.991   8.501   5.381
  234POPC   C3B 3120   1.853   8.394   5.800
  234POPC   C4B 3121   2.155   8.363   6.184
  235POPC   NC3 3122   6.850   2.769   4.167
  235POPC   PO4 3123   7.422   3.045   3.915
  235POPC   GL1 3124   7.352   2.862   4.296
  235POPC   GL2 3125   7.350   2.491   4.254
  235POPC   C1A 3126   7.281   2.960   4.711
  235POPC   D2A 3127   7.482   2.935   5.090
  235POPC   C3A 3128   7.291   3.014   5.496
  235POPC   C4A 3129   7.348   3.021   5.950
  235POPC   C1B 3130   7.159   2.462   4.677
  235POPC   C2B 3131   7.036   2.648   5.056
  235POPC   C3B 3132   7.134   2.524   5.466
  235POPC   C4B 3133   6.975   2.710   5.829
  236POPC   NC3 3134   7.181   3.590   3.801
  236POPC   PO4 3135   7.820   3.683   3.816
  236POPC   GL1 3136   7.432   3.515   4.206
  236POPC   GL2 3137   7.076   3.303   4.210
  236POPC   C1A 3138   7.370   3.465   4.645
  236POPC   D2A 3139   7.618   3.421   5.019
  236POPC   C3A 3140   7.476   3.488   5.407
  236POPC   C4A 3141   7.348   3.527   5.805
  236POPC   C1B 3142   6.874   3.249   4.627
  236POPC   C2B 3143   7.071   3.287   5.057
  236POPC   C3B 3144   6.973   3.440   5.474
  236POPC   C4B 3145   6.881   3.212   5.818
  237POPC   NC3 3146   2.477   3.575   3.823
  237POPC   PO4 3147   3.076   3.842   3.960
  237POPC   GL1 3148   2.771   3.599   4.297
  237POPC   GL2 3149   2.417   3.430   4.316
  237POPC   C1A 3150   2.512   3.801   4.667
  237POPC   D2A 3151   2.448   3.675   5.093
  237POPC   C3A 3152   2.670   3.847   5.446
  237POPC   C4A 3153   2.818   3.743   5.860
  237POPC   C1B 3154   2.576   3.302   4.738
  237POPC   C2B 3155   2.413   3.178   5.153
  237POPC   C3B 3156   2.620   3.340   5.526
  237POPC   C4B 3157   2.442   3.424   5.921
  238POPC   NC3 3158   9.615   0.464   3.840
  238POPC   PO4 3159   9.151   0.038   3.924
  238POPC   GL1 3160   9.442   0.260   4.262
  238POPC   GL2 3161   9.625   0.583   4.327
  238POPC   C1A 3162   9.386   0.311   4.688
  238POPC   D2A 3163   9.157   0.380   4.995
  238POPC   C3A 3164   9.280   0.257   5.364
  238POPC   C4A 3165   9.125   0.358   5.753
  238POPC   C1B 3166   9.628   0.779   4.734
  238POPC   C2B 3167   9.473   0.741   5.163
  238POPC   C3B 3168   9.441   0.745   5.604
  238POPC   C4B 3169   9.284   0.762   6.015
  239POPC   NC3 3170   8.487   8.467   4.019
  239POPC   PO4 3171   9.073   8.655   3.847
  239POPC   GL1 3172   8.961   8.597   4.333
  239POPC   GL2 3173   8.640   8.664   4.467
  239POPC   C1A 3174   8.954   8.633   4.838
  239POPC   D2A 3175   9.036   8.342   5.179
  239POPC   C3A 3176   8.974   8.597   5.528
  239POPC   C4A 3177   8.855   8.802   5.924
  239POPC   C1B 3178   8.418   8.617   4.821
  239POPC   C2B 3179   8.541   8.493   5.202
  239POPC   C3B 3180   8.476   8.644   5.546
  239POPC   C4B 3181   8.392   8.953   5.746
  240POPC   NC3 3182   1.796   0.223   4.011
  240POPC   PO4 3183   1.760   0.875   3.807
  240POPC   GL1 3184   2.015   0.648   4.178
  240POPC   GL2 3185   1.787   0.532   4.425
  240POPC   C1A 3186   2.214   0.731   4.635
  240POPC   D2A 3187   1.970   0.547   5.014
  240POPC   C3A 3188   2.030   0.615   5.468
  240POPC   C4A 3189   2.214   0.627   5.892
  240POPC   C1B 3190   1.844   0.161   4.699
  240POPC   C2B 3191   1.635   0.143   5.090
  240POPC   C3B 3192   1.870   0.121   5.424
  240POPC   C4B 3193   1.885   0.268   5.821
  241POPC   NC3 3194   4.283   3.632   3.932
  241POPC   PO4 3195   4.688   3.256   3.936
  241POPC   GL1 3196   4.502   3.299   4.339
  241POPC   GL2 3197   4.172   3.234   4.364
  241POPC   C1A 3198   4.416   3.331   4.805
  241POPC   D2A 3199   4.446   3.378   5.250
  241POPC   C3A 3200   4.391   3.783   5.458
  241POPC   C4A 3201   4.353   4.038   5.907
  241POPC   C1B 3202   3.980   3.057   4.697
  241POPC   C2B 3203   3.943   3.237   5.097
  241POPC   C3B 3204   4.050   3.251   5.524
  241POPC   C4B 3205   4.208   3.509   5.836
  242POPC   NC3 3206   0.387   8.776   4.011
  242POPC   PO4 3207   0.724   8.180   3.832
  242POPC   GL1 3208   0.765   8.412   4.287
  242POPC   GL2 3209   0.451   8.532   4.443
  242POPC   C1A 3210   0.828   8.779   4.639
  242POPC   D2A 3211   0.560   8.944   5.011
  242POPC   C3A 3212   0.657   8.866   5.481
  242POPC   C4A 3213   0.473   8.493   5.751
  242POPC   C1B 3214   0.106   8.723   4.637
  242POPC   C2B 3215   0.037   8.858   5.024
  242POPC   C3B 3216   0.195   8.713   5.367
  242POPC   C4B 3217   0.132   8.855   5.763
  243POPC   NC3 3218   1.257   2.601   3.995
  243POPC   PO4 3219   1.304   3.402   3.843
  243POPC   GL1 3220   1.271   3.193   4.210
  243POPC   GL2 3221   1.094   3.492   4.314
  243POPC   C1A 3222   1.217   3.057   4.645
  243POPC   D2A 3223   0.899   3.214   4.926
  243POPC   C3A 3224   0.900   3.140   5.362
  243POPC   C4A 3225   0.941   3.224   5.780
  243POPC   C1B 3226   1.309   3.591   4.675
  243POPC   C2B 3227   1.363   3.427   5.078
  243POPC   C3B 3228   1.214   3.509   5.468
  243POPC   C4B 3229   1.458   3.449   5.793
  244POPC   NC3 3230   6.041   2.842   4.108
  244POPC   PO4 3231   5.479   2.823   3.910
  244POPC   GL1 3232   5.535   2.843   4.337
  244POPC   GL2 3233   5.677   2.507   4.316
  244POPC   C1A 3234   5.483   3.007   4.793
  244POPC   D2A 3235   5.711   2.861   5.207
  244POPC   C3A 3236   5.713   3.054   5.614
  244POPC   C4A 3237   5.383   3.198   5.914
  244POPC   C1B 3238   5.770   2.597   4.753
  244POPC   C2B 3239   5.767   2.363   5.139
  244POPC   C3B 3240   5.767   2.485   5.596
  244POPC   C4B 3241   6.042   2.583   5.967
  245POPC   NC3 3242   0.217   4.509   3.953
  245POPC   PO4 3243   0.717   4.996   3.727
  245POPC   GL1 3244   0.704   5.019   4.193
  245POPC   GL2 3245   0.494   4.792   4.386
  245POPC   C1A 3246   0.665   5.191   4.638
  245POPC   D2A 3247   0.466   5.056   5.024
  245POPC   C3A 3248   0.631   4.977   5.446
  245POPC   C4A 3249   0.658   4.639   5.697
  245POPC   C1B 3250   0.126   4.883   4.689
  245POPC   C2B 3251   0.047   4.781   5.139
  245POPC   C3B 3252   0.138   4.829   5.583
  245POPC   C4B 3253   0.168   5.131   5.903
  246POPC   NC3 3254   4.324  10.146   3.930
  246POPC   PO4 3255   3.655  10.000   3.949
  246POPC   GL1 3256   3.952  10.043   4.263
  246POPC   GL2 3257   4.043  10.401   4.278
  246POPC   C1A 3258   3.910   9.933   4.661
  246POPC   D2A 3259   3.583   9.913   4.968
  246POPC   C3A 3260   3.788  10.069   5.339
  246POPC   C4A 3261   3.759   9.856   5.702
  246POPC   C1B 3262   4.216  10.344   4.681
  246POPC   C2B 3263   4.412  10.059   4.983
  246POPC   C3B 3264   4.311  10.032   5.408
  246POPC   C4B 3265   4.194  10.416   5.608
  247POPC   NC3 3266   6.250   9.593   4.005
  247POPC   PO4 3267   6.835   9.818   4.089
  247POPC   GL1 3268   6.534   9.767   4.437
  247POPC   GL2 3269   6.314   9.457   4.474
  247POPC   C1A 3270   6.468   9.693   4.890
  247POPC   D2A 3271   6.149   9.443   5.054
  247POPC   C3A 3272   6.164   9.533   5.463
  247POPC   C4A 3273   6.239   9.922   5.679
  247POPC   C1B 3274   6.549   9.226   4.726
  247POPC   C2B 3275   6.744   9.197   5.132
  247POPC   C3B 3276   6.665   9.315   5.592
  247POPC   C4B 3277   6.677   9.291   6.082
  248POPC   NC3 3278   0.822   7.035   4.120
  248POPC   PO4 3279   1.462   6.871   3.979
  248POPC   GL1 3280   1.273   7.059   4.356
  248POPC   GL2 3281   1.095   7.392   4.362
  248POPC   C1A 3282   1.159   7.007   4.774
  248POPC   D2A 3283   1.295   6.937   5.178
  248POPC   C3A 3284   0.927   6.933   5.383
  248POPC   C4A 3285   0.870   7.017   5.785
  248POPC   C1B 3286   1.260   7.515   4.765
  248POPC   C2B 3287   1.344   7.610   5.194
  248POPC   C3B 3288   1.206   7.352   5.533
  248POPC   C4B 3289   1.375   6.946   5.713
  249POPC   NC3 3290   4.140   7.148   3.891
  249POPC   PO4 3291   4.621   7.468   3.782
  249POPC   GL1 3292   4.474   7.414   4.230
  249POPC   GL2 3293   4.141   7.276   4.373
  249POPC   C1A 3294   4.507   7.365   4.710
  249POPC   D2A 3295   4.375   7.066   5.048
  249POPC   C3A 3296   4.275   7.268   5.426
  249POPC   C4A 3297   4.574   7.293   5.727
  249POPC   C1B 3298   3.962   7.049   4.737
  249POPC   C2B 3299   3.877   7.025   5.203
  249POPC   C3B 3300   4.112   6.795   5.542
  249POPC   C4B 3301   4.238   6.610   5.967
  250POPC   NC3 3302   4.792   8.288   4.028
  250POPC   PO4 3303   4.718   8.948   3.969
  250POPC   GL1 3304   4.903   8.713   4.318
  250POPC   GL2 3305   5.230   8.546   4.196
  250POPC   C1A 3306   4.935   8.767   4.774
  250POPC   D2A 3307   4.791   8.580   5.162
  250POPC   C3A 3308   4.793   8.799   5.595
  250POPC   C4A 3309   4.739   8.879   6.040
  250POPC   C1B 3310   5.364   8.524   4.619
  250POPC   C2B 3311   5.479   8.562   5.048
  250POPC   C3B 3312   5.211   8.551   5.431
  250POPC   C4B 3313   5.209   8.656   5.874
  251POPC   NC3 3314   7.741   5.094   4.332
  251POPC   PO4 3315   8.244   5.279   4.006
  251POPC   GL1 3316   8.249   5.156   4.386
  251POPC   GL2 3317   8.259   4.821   4.386
  251POPC   C1A 3318   8.164   5.307   4.785
  251POPC   D2A 3319   7.892   5.093   5.117
  251POPC   C3A 3320   7.848   5.220   5.537
  251POPC   C4A 3321   7.911   5.299   5.954
  251POPC   C1B 3322   8.125   4.808   4.777
  251POPC   C2B 3323   8.246   4.696   5.136
  251POPC   C3B 3324   7.981   4.655   5.450
  251POPC   C4B 3325   7.887   4.794   5.834
  252POPC   NC3 3326   7.595   9.012   3.751
  252POPC   PO4 3327   8.105   8.556   3.754
  252POPC   GL1 3328   7.878   8.728   4.141
  252POPC   GL2 3329   8.193   8.802   4.286
  252POPC   C1A 3330   7.838   8.890   4.620
  252POPC   D2A 3331   8.061   9.017   4.996
  252POPC   C3A 3332   7.973   8.887   5.414
  252POPC   C4A 3333   7.897   9.053   5.856
  252POPC   C1B 3334   8.028   8.433   4.571
  252POPC   C2B 3335   8.156   8.177   4.949
  252POPC   C3B 3336   8.103   8.306   5.384
  252POPC   C4B 3337   8.036   8.546   5.778
  253POPC   NC3 3338   8.828   1.187   4.016
  253POPC   PO4 3339   8.387   0.680   3.849
  253POPC   GL1 3340   8.407   1.018   4.251
  253POPC   GL2 3341   8.692   0.948   4.450
  253POPC   C1A 3342   8.418   1.387   4.615
  253POPC   D2A 3343   8.423   1.659   5.015
  253POPC   C3A 3344   8.389   1.437   5.438
  253POPC   C4A 3345   8.392   1.011   5.652
  253POPC   C1B 3346   8.907   1.280   4.683
  253POPC   C2B 3347   8.856   1.405   5.106
  253POPC   C3B 3348   8.878   1.439   5.544
  253POPC   C4B 3349   8.889   1.012   5.796
  254POPC   NC3 3350   1.315   5.649   3.838
  254POPC   PO4 3351   0.703   5.946   3.799
  254POPC   GL1 3352   0.977   6.009   4.147
  254POPC   GL2 3353   0.976   5.676   4.261
  254POPC   C1A 3354   1.056   6.026   4.616
  254POPC   D2A 3355   0.816   6.011   5.003
  254POPC   C3A 3356   0.978   6.010   5.402
  254POPC   C4A 3357   0.985   5.740   5.779
  254POPC   C1B 3358   1.078   5.497   4.676
  254POPC   C2B 3359   1.155   5.628   5.087
  254POPC   C3B 3360   1.373   5.723   5.450
  254POPC   C4B 3361   1.419   5.471   5.810
  255POPC   NC3 3362   7.250   9.584   3.997
  255POPC   PO4 3363   7.390   8.988   4.150
  255POPC   GL1 3364   7.217   9.267   4.396
  255POPC   GL2 3365   6.877   9.365   4.327
  255POPC   C1A 3366   7.164   9.180   4.774
  255POPC   D2A 3367   7.315   9.293   5.108
  255POPC   C3A 3368   7.141   9.087   5.442
  255POPC   C4A 3369   7.094   9.141   5.839
  255POPC   C1B 3370   6.925   9.602   4.700
  255POPC   C2B 3371   6.956   9.663   5.112
  255POPC   C3B 3372   7.147   9.604   5.491
  255POPC   C4B 3373   6.995   9.641   5.911
  256POPC   NC3 3374   0.431   3.734   4.150
  256POPC   PO4 3375   0.657   3.207   3.859
  256POPC   GL1 3376   0.398   3.196   4.232
  256POPC   GL2 3377   0.625   3.366   4.447
  256POPC   C1A 3378   0.173   3.267   4.615
  256POPC   D2A 3379   0.340   3.493   4.991
  256POPC   C3A 3380   0.197   3.344   5.398
  256POPC   C4A 3381   0.441   3.275   5.761
  256POPC   C1B 3382   0.781   3.674   4.717
  256POPC   C2B 3383   0.887   3.675   5.118
  256POPC   C3B 3384   0.682   3.602   5.451
  256POPC   C4B 3385   0.818   3.713   5.831
  257POPC   NC3 3386   7.245   0.069   4.166
  257POPC   PO4 3387   7.495   9.978   4.054
  257POPC   GL1 3388   7.278   9.830   4.422
  257POPC   GL2 3389   7.103  10.131   4.364
  257POPC   C1A 3390   7.397   9.740   4.849
  257POPC   D2A 3391   7.707   9.970   5.074
  257POPC   C3A 3392   7.619   9.850   5.495
  257POPC   C4A 3393   7.281  10.031   5.755
  257POPC   C1B 3394   7.327  10.219   4.746
  257POPC   C2B 3395   7.222  10.112   5.195
  257POPC   C3B 3396   6.990  10.369   5.484
  257POPC   C4B 3397   7.102  10.490   5.904
  258POPC   NC3 3398   0.151   3.726   3.675
  258POPC   PO4 3399   0.673   4.085   3.961
  258POPC   GL1 3400   0.468   4.224   4.348
  258POPC   GL2 3401   0.173   4.412   4.456
  258POPC   C1A 3402   0.351   4.006   4.722
  258POPC   D2A 3403   0.516   4.007   5.093
  258POPC   C3A 3404   0.247   3.863   5.360
  258POPC   C4A 3405   0.281   3.741   5.765
  258POPC   C1B 3406   0.470   4.517   4.822
  258POPC   C2B 3407   0.741   4.473   5.193
  258POPC   C3B 3408   0.718   4.151   5.541
  258POPC   C4B 3409   0.319   4.245   5.715
  259POPC   NC3 3410   9.108   7.374   3.691
  259POPC   PO4 3411   9.565   7.790   3.943
  259POPC   GL1 3412   9.333   7.450   4.178
  259POPC   GL2 3413   9.495   7.121   4.307
  259POPC   C1A 3414   9.166   7.409   4.602
  259POPC   D2A 3415   9.236   7.521   5.006
  259POPC   C3A 3416   9.437   7.370   5.333
  259POPC   C4A 3417   9.290   7.458   5.741
  259POPC   C1B 3418   9.316   6.952   4.734
  259POPC   C2B 3419   9.353   6.743   5.147
  259POPC   C3B 3420   9.297   6.926   5.564
  259POPC   C4B 3421   9.594   7.061   5.823
  260POPC   NC3 3422   2.799   2.492   3.865
  260POPC   PO4 3423   2.384   3.116   3.864
  260POPC   GL1 3424   2.390   2.882   4.263
  260POPC   GL2 3425   2.545   2.537   4.315
  260POPC   C1A 3426   2.464   2.814   4.717
  260POPC   D2A 3427   2.790   2.867   5.023
  260POPC   C3A 3428   2.636   2.820   5.454
  260POPC   C4A 3429   2.519   2.825   5.873
  260POPC   C1B 3430   2.917   2.556   4.592
  260POPC   C2B 3431   3.221   2.532   4.918
  260POPC   C3B 3432   3.099   2.576   5.331
  260POPC   C4B 3433   2.942   2.550   5.759
  261POPC   NC3 3434   8.887   4.317   3.919
  261POPC   PO4 3435   9.563   3.946   3.926
  261POPC   GL1 3436   9.520   4.161   4.299
  261POPC   GL2 3437   9.227   4.332   4.316
  261POPC   C1A 3438   9.417   3.998   4.702
  261POPC   D2A 3439   9.477   3.744   5.047
  261POPC   C3A 3440   9.365   3.961   5.399
  261POPC   C4A 3441   9.478   3.993   5.794
  261POPC   C1B 3442   9.359   4.498   4.713
  261POPC   C2B 3443   9.187   4.445   5.151
  261POPC   C3B 3444   9.353   4.483   5.558
  261POPC   C4B 3445   9.620   4.453   5.923
  262POPC   NC3 3446   5.064   2.996   3.928
  262POPC   PO4 3447   4.528   2.515   3.883
  262POPC   GL1 3448   4.762   2.612   4.276
  262POPC   GL2 3449   5.114   2.496   4.203
  262POPC   C1A 3450   4.912   2.875   4.653
  262POPC   D2A 3451   4.819   3.039   5.093
  262POPC   C3A 3452   4.771   2.926   5.552
  262POPC   C4A 3453   4.860   3.205   5.975
  262POPC   C1B 3454   5.269   2.518   4.630
  262POPC   C2B 3455   5.230   2.679   5.083
  262POPC   C3B 3456   5.278   2.765   5.545
  262POPC   C4B 3457   5.048   2.741   5.954
  263POPC   NC3 3458   0.257   6.122   3.896
  263POPC   PO4 3459   0.611   6.730   3.870
  263POPC   GL1 3460   0.592   6.387   4.185
  263POPC   GL2 3461   0.240   6.365   4.319
  263POPC   C1A 3462   0.583   6.218   4.613
  263POPC   D2A 3463   0.511   6.471   4.976
  263POPC   C3A 3464   0.557   6.283   5.362
  263POPC   C4A 3465   0.668   6.128   5.768
  263POPC   C1B 3466   0.074   6.324   4.719
  263POPC   C2B 3467  10.490   6.513   5.067
  263POPC   C3B 3468   0.208   6.644   5.391
  263POPC   C4B 3469   0.420   6.554   5.768
  264POPC   NC3 3470   0.609   1.419   3.805
  264POPC   PO4 3471   0.916   0.814   3.770
  264POPC   GL1 3472   0.685   1.053   4.156
  264POPC   GL2 3473   0.347   1.265   4.210
  264POPC   C1A 3474   0.646   1.206   4.621
  264POPC   D2A 3475   0.545   0.993   5.003
  264POPC   C3A 3476   0.621   1.116   5.400
  264POPC   C4A 3477   0.775   0.968   5.762
  264POPC   C1B 3478   0.140   1.111   4.591
  264POPC   C2B 3479   0.067   0.883   4.952
  264POPC   C3B 3480   0.005   0.906   5.388
  264POPC   C4B 3481   0.221   1.137   5.712
  265POPC   NC3 3482   6.480   7.978   3.876
  265POPC   PO4 3483   6.052   7.537   4.024
  265POPC   GL1 3484   6.308   7.665   4.330
  265POPC   GL2 3485   6.604   7.875   4.365
  265POPC   C1A 3486   6.259   7.610   4.756
  265POPC   D2A 3487   6.230   7.496   5.180
  265POPC   C3A 3488   6.415   7.775   5.477
  265POPC   C4A 3489   6.338   7.644   5.884
  265POPC   C1B 3490   6.259   8.089   4.596
  265POPC   C2B 3491   6.290   8.063   5.063
  265POPC   C3B 3492   6.695   8.156   5.278
  265POPC   C4B 3493   6.774   8.214   5.717
  266POPC   NC3 3494   8.065   1.023   3.873
  266POPC   PO4 3495   7.705   1.486   3.686
  266POPC   GL1 3496   7.812   1.307   4.192
  266POPC   GL2 3497   7.548   1.083   4.389
  266POPC   C1A 3498   8.007   1.093   4.568
  266POPC   D2A 3499   8.102   0.918   4.971
  266POPC   C3A 3500   7.827   0.971   5.325
  266POPC   C4A 3501   7.956   1.245   5.649
  266POPC   C1B 3502   7.558   1.021   4.852
  266POPC   C2B 3503   7.494   1.367   5.146
  266POPC   C3B 3504   7.530   1.454   5.532
  266POPC   C4B 3505   7.513   1.073   5.823
  267POPC   NC3 3506   0.588   5.433   3.871
  267POPC   PO4 3507   0.193   4.959   4.034
  267POPC   GL1 3508   0.287   5.323   4.278
  267POPC   GL2 3509   0.342   5.716   4.221
  267POPC   C1A 3510   0.163   5.451   4.667
  267POPC   D2A 3511   0.025   5.302   5.040
  267POPC   C3A 3512   0.257   5.310   5.422
  267POPC   C4A 3513   0.564   5.427   5.763
  267POPC   C1B 3514   0.599   5.706   4.609
  267POPC   C2B 3515   0.502   5.598   5.059
  267POPC   C3B 3516   0.368   5.820   5.462
  267POPC   C4B 3517   0.187   6.045   5.851
  268POPC   NC3 3518   9.134   5.994   4.238
  268POPC   PO4 3519   8.589   6.212   3.904
  268POPC   GL1 3520   8.697   6.386   4.259
  268POPC   GL2 3521   8.954   6.535   4.156
  268POPC   C1A 3522   8.519   6.347   4.655
  268POPC   D2A 3523   8.364   6.265   5.031
  268POPC   C3A 3524   8.580   6.314   5.378
  268POPC   C4A 3525   8.458   6.470   5.785
  268POPC   C1B 3526   8.948   6.622   4.625
  268POPC   C2B 3527   8.843   6.608   5.054
  268POPC   C3B 3528   8.840   6.733   5.504
  268POPC   C4B 3529   8.971   6.666   5.930
  269POPC   NC3 3530   5.614   9.840   3.929
  269POPC   PO4 3531   5.918   9.229   3.974
  269POPC   GL1 3532   5.843   9.584   4.303
  269POPC   GL2 3533   5.522   9.730   4.407
  269POPC   C1A 3534   5.957   9.778   4.692
  269POPC   D2A 3535   5.705   9.733   5.059
  269POPC   C3A 3536   5.755   9.898   5.464
  269POPC   C4A 3537   5.828   9.662   5.821
  269POPC   C1B 3538   5.370   9.486   4.715
  269POPC   C2B 3539   5.375   9.337   5.120
  269POPC   C3B 3540   5.624   9.364   5.471
  269POPC   C4B 3541   5.387   9.450   5.856
  270POPC   NC3 3542   4.338   2.955   3.928
  270POPC   PO4 3543   3.934   2.405   4.027
  270POPC   GL1 3544   4.240   2.427   4.287
  270POPC   GL2 3545   4.247   2.732   4.372
  270POPC   C1A 3546   4.250   2.293   4.680
  270POPC   D2A 3547   4.360   2.358   5.084
  270POPC   C3A 3548   4.031   2.284   5.293
  270POPC   C4A 3549   3.916   2.334   5.670
  270POPC   C1B 3550   4.421   2.784   4.776
  270POPC   C2B 3551   4.325   2.868   5.208
  270POPC   C3B 3552   4.182   2.766   5.629
  270POPC   C4B 3553   4.093   3.036   6.009
  271POPC   NC3 3554   3.460   2.151   4.038
  271POPC   PO4 3555   3.943   1.737   3.736
  271POPC   GL1 3556   3.692   1.734   4.249
  271POPC   GL2 3557   3.310   1.687   4.324
  271POPC   C1A 3558   3.519   1.808   4.763
  271POPC   D2A 3559   3.641   1.997   5.171
  271POPC   C3A 3560   3.491   1.913   5.568
  271POPC   C4A 3561   3.237   1.573   5.756
  271POPC   C1B 3562   3.070   2.004   4.663
  271POPC   C2B 3563   3.123   2.041   5.113
  271POPC   C3B 3564   3.031   2.101   5.541
  271POPC   C4B 3565   3.195   2.064   5.967
  272POPC   NC3 3566   7.824   3.276   4.043
  272POPC   PO4 3567   8.211   3.939   4.035
  272POPC   GL1 3568   8.165   3.565   4.293
  272POPC   GL2 3569   7.864   3.550   4.465
  272POPC   C1A 3570   8.258   3.286   4.624
  272POPC   D2A 3571   8.102   3.522   4.942
  272POPC   C3A 3572   8.079   3.597   5.362
  272POPC   C4A 3573   8.028   3.792   5.754
  272POPC   C1B 3574   7.781   3.116   4.649
  272POPC   C2B 3575   7.985   3.003   5.012
  272POPC   C3B 3576   7.851   3.145   5.414
  272POPC   C4B 3577   8.097   3.287   5.785
  273POPC   NC3 3578   2.202   1.009   3.885
  273POPC   PO4 3579   2.357   1.666   3.918
  273POPC   GL1 3580   2.137   1.428   4.266
  273POPC   GL2 3581   1.975   1.106   4.339
  273POPC   C1A 3582   2.048   1.411   4.725
  273POPC   D2A 3583   2.353   1.369   5.047
  273POPC   C3A 3584   2.167   1.429   5.412
  273POPC   C4A 3585   2.322   1.447   5.796
  273POPC   C1B 3586   1.772   0.961   4.733
  273POPC   C2B 3587   1.934   1.042   5.143
  273POPC   C3B 3588   1.835   1.049   5.567
  273POPC   C4B 3589   1.723   1.383   5.684
  274POPC   NC3 3590   7.202   7.744   4.005
  274POPC   PO4 3591   7.590   8.276   4.016
  274POPC   GL1 3592   7.297   8.150   4.338
  274POPC   GL2 3593   7.344   7.827   4.492
  274POPC   C1A 3594   7.064   8.239   4.709
  274POPC   D2A 3595   7.294   8.276   5.076
  274POPC   C3A 3596   7.195   8.043   5.402
  274POPC   C4A 3597   7.310   8.161   5.748
  274POPC   C1B 3598   7.230   7.784   4.957
  274POPC   C2B 3599   6.914   7.631   5.292
  274POPC   C3B 3600   6.853   7.712   5.741
  274POPC   C4B 3601   6.745   7.563   6.185
  275POPC   NC3 3602   4.210   2.117   3.787
  275POPC   PO4 3603   4.573   1.638   4.087
  275POPC   GL1 3604   4.454   1.795   4.449
  275POPC   GL2 3605   4.162   1.928   4.274
  275POPC   C1A 3606   4.507   1.894   4.873
  275POPC   D2A 3607   4.502   1.903   5.315
  275POPC   C3A 3608   4.424   2.229   5.599
  275POPC   C4A 3609   4.234   2.071   5.960
  275POPC   C1B 3610   4.012   1.819   4.691
  275POPC   C2B 3611   4.058   1.703   5.119
  275POPC   C3B 3612   4.008   1.841   5.550
  275POPC   C4B 3613   3.792   1.752   5.935
  276POPC   NC3 3614   2.408   9.198   4.205
  276POPC   PO4 3615   1.938   9.372   3.748
  276POPC   GL1 3616   1.901   9.286   4.235
  276POPC   GL2 3617   1.605   9.086   4.270
  276POPC   C1A 3618   2.085   9.369   4.715
  276POPC   D2A 3619   2.371   9.342   5.077
  276POPC   C3A 3620   2.142   9.550   5.402
  276POPC   C4A 3621   2.036   9.483   5.797
  276POPC   C1B 3622   1.588   9.272   4.648
  276POPC   C2B 3623   1.700   9.508   5.018
  276POPC   C3B 3624   1.625   9.464   5.423
  276POPC   C4B 3625   1.629   9.197   5.747
  277POPC   NC3 3626   5.015   1.486   4.175
  277POPC   PO4 3627   5.001   0.918   3.775
  277POPC   GL1 3628   4.797   0.897   4.229
  277POPC   GL2 3629   4.588   1.196   4.346
  277POPC   C1A 3630   4.816   0.947   4.705
  277POPC   D2A 3631   4.585   0.906   5.095
  277POPC   C3A 3632   4.742   0.881   5.499
  277POPC   C4A 3633   4.496   1.071   5.832
  277POPC   C1B 3634   4.769   1.446   4.745
  277POPC   C2B 3635   4.952   1.273   5.131
  277POPC   C3B 3636   4.846   1.372   5.558
  277POPC   C4B 3637   5.084   1.528   5.888
  278POPC   NC3 3638   0.828   0.510   4.112
  278POPC   PO4 3639   0.224   0.831   3.966
  278POPC   GL1 3640   0.366   0.686   4.364
  278POPC   GL2 3641   0.187   0.385   4.343
  278POPC   C1A 3642   0.517   0.437   4.738
  278POPC   D2A 3643   0.758   0.452   5.109
  278POPC   C3A 3644   0.525   0.629   5.423
  278POPC   C4A 3645   0.449   0.574   5.838
  278POPC   C1B 3646  10.478   0.433   4.740
  278POPC   C2B 3647   0.145   0.420   5.154
  278POPC   C3B 3648   0.192   0.224   5.571
  278POPC   C4B 3649   0.101   0.270   6.053
  279POPC   NC3 3650   0.489   2.294   3.910
  279POPC   PO4 3651   0.674   1.704   4.156
  279POPC   GL1 3652   0.358   1.782   4.396
  279POPC   GL2 3653   0.494   2.145   4.412
  279POPC   C1A 3654   0.299   1.554   4.795
  279POPC   D2A 3655   0.234   1.377   5.207
  279POPC   C3A 3656   0.462   1.563   5.558
  279POPC   C4A 3657   0.212   1.661   5.913
  279POPC   C1B 3658   0.639   1.954   4.784
  279POPC   C2B 3659   0.438   1.893   5.145
  279POPC   C3B 3660   0.237   2.003   5.476
  279POPC   C4B 3661   0.482   2.051   5.803
  280POPC   NC3 3662   9.860   4.338   3.944
  280POPC   PO4 3663   0.032   3.972   4.036
  280POPC   GL1 3664  10.253   4.168   4.277
  280POPC   GL2 3665  10.006   3.968   4.379
  280POPC   C1A 3666  10.333   4.174   4.726
  280POPC   D2A 3667   0.078   4.270   5.073
  280POPC   C3A 3668  10.364   4.203   5.440
  280POPC   C4A 3669  10.370   4.460   5.799
  280POPC   C1B 3670   9.840   4.259   4.676
  280POPC   C2B 3671   9.639   4.261   5.075
  280POPC   C3B 3672   9.808   4.280   5.461
  280POPC   C4B 3673  10.002   4.104   5.783
  281POPC   NC3 3674   2.559   6.462   3.927
  281POPC   PO4 3675   2.908   6.885   3.988
  281POPC   GL1 3676   2.832   6.588   4.350
  281POPC   GL2 3677   2.635   6.249   4.385
  281POPC   C1A 3678   2.935   6.488   4.788
  281POPC   D2A 3679   2.809   6.420   5.204
  281POPC   C3A 3680   3.047   6.475   5.585
  281POPC   C4A 3681   2.950   6.679   5.976
  281POPC   C1B 3682   2.401   6.305   4.795
  281POPC   C2B 3683   2.327   6.267   5.246
  281POPC   C3B 3684   2.576   6.238   5.611
  281POPC   C4B 3685   2.619   5.889   5.896
  282POPC   NC3 3686   2.419  10.295   4.015
  282POPC   PO4 3687   2.268   9.676   4.184
  282POPC   GL1 3688   2.619   9.962   4.367
  282POPC   GL2 3689   2.831  10.298   4.311
  282POPC   C1A 3690   2.546  10.096   4.776
  282POPC   D2A 3691   2.405   9.903   5.126
  282POPC   C3A 3692   2.605  10.087   5.505
  282POPC   C4A 3693   2.498  10.195   5.930
  282POPC   C1B 3694   2.807   0.009   4.729
  282POPC   C2B 3695   2.715  10.462   5.149
  282POPC   C3B 3696   2.972  10.464   5.510
  282POPC   C4B 3697   2.981  10.405   5.957
  283POPC   NC3 3698   5.379   0.686   4.012
  283POPC   PO4 3699   6.025   0.896   3.933
  283POPC   GL1 3700   5.856   0.537   4.291
  283POPC   GL2 3701   5.638   0.208   4.342
  283POPC   C1A 3702   5.716   0.461   4.762
  283POPC   D2A 3703   5.586   0.699   5.133
  283POPC   C3A 3704   5.838   0.717   5.491
  283POPC   C4A 3705   5.850   0.473   5.907
  283POPC   C1B 3706   5.322   0.128   4.693
  283POPC   C2B 3707   5.435   0.170   5.108
  283POPC   C3B 3708   5.544   0.305   5.503
  283POPC   C4B 3709   5.399   0.232   5.905
  284POPC   NC3 3710   4.608   1.201   3.834
  284POPC   PO4 3711   3.946   0.861   4.025
  284POPC   GL1 3712   4.052   1.042   4.387
  284POPC   GL2 3713   4.122   1.410   4.393
  284POPC   C1A 3714   3.865   0.924   4.779
  284POPC   D2A 3715   3.967   1.173   5.135
  284POPC   C3A 3716   4.118   1.011   5.489
  284POPC   C4A 3717   3.952   0.856   5.846
  284POPC   C1B 3718   4.299   1.269   4.770
  284POPC   C2B 3719   4.465   1.401   5.161
  284POPC   C3B 3720   4.337   1.468   5.555
  284POPC   C4B 3721   4.259   1.558   5.980
  285POPC   NC3 3722   3.223   5.227   4.024
  285POPC   PO4 3723   2.655   5.355   3.817
  285POPC   GL1 3724   2.408   5.331   4.223
  285POPC   GL2 3725   2.329   5.684   4.326
  285POPC   C1A 3726   2.393   5.282   4.687
  285POPC   D2A 3727   2.517   5.461   5.067
  285POPC   C3A 3728   2.762   5.427   5.414
  285POPC   C4A 3729   2.721   5.393   5.830
  285POPC   C1B 3730   2.590   5.804   4.673
  285POPC   C2B 3731   2.694   5.936   5.112
  285POPC   C3B 3732   2.951   5.923   5.491
  285POPC   C4B 3733   3.182   5.629   5.747
  286POPC   NC3 3734   4.806   9.389   3.903
  286POPC   PO4 3735   5.145   9.856   4.077
  286POPC   GL1 3736   4.852   9.631   4.357
  286POPC   GL2 3737   4.895   9.251   4.385
  286POPC   C1A 3738   4.521   9.638   4.686
  286POPC   D2A 3739   4.555   9.574   5.143
  286POPC   C3A 3740   4.663   9.683   5.576
  286POPC   C4A 3741   4.623   9.692   6.039
  286POPC   C1B 3742   4.896   9.312   4.821
  286POPC   C2B 3743   4.934   9.084   5.188
  286POPC   C3B 3744   5.175   9.106   5.554
  286POPC   C4B 3745   4.905   9.312   5.837
  287POPC   NC3 3746   7.865   5.219   3.766
  287POPC   PO4 3747   7.907   5.808   3.910
  287POPC   GL1 3748   7.939   5.588   4.298
  287POPC   GL2 3749   8.225   5.664   4.429
  287POPC   C1A 3750   7.818   5.655   4.748
  287POPC   D2A 3751   8.004   5.586   5.202
  287POPC   C3A 3752   7.700   5.712   5.562
  287POPC   C4A 3753   7.485   5.560   5.963
  287POPC   C1B 3754   8.332   5.803   4.832
  287POPC   C2B 3755   8.524   5.715   5.227
  287POPC   C3B 3756   8.352   5.532   5.596
  287POPC   C4B 3757   8.099   5.754   5.860
  288POPC   NC3 3758   9.827   9.325   3.833
  288POPC   PO4 3759   0.003   9.079   3.921
  288POPC   GL1 3760  10.227   9.170   4.261
  288POPC   GL2 3761  10.068   9.526   4.268
  288POPC   C1A 3762  10.183   9.037   4.684
  288POPC   D2A 3763  10.160   9.203   5.083
  288POPC   C3A 3764  10.248   8.992   5.449
  288POPC   C4A 3765  10.188   9.115   5.880
  288POPC   C1B 3766  10.297   9.547   4.674
  288POPC   C2B 3767  10.297   9.708   5.101
  288POPC   C3B 3768  10.251   9.519   5.503
  288POPC   C4B 3769   9.944   9.587   5.813
  289POPC   NC3 3770   9.312   9.015   3.986
  289POPC   PO4 3771   9.426   9.612   3.812
  289POPC   GL1 3772   9.555   9.538   4.284
  289POPC   GL2 3773   9.544   9.795   4.521
  289POPC   C1A 3774   9.796   9.424   4.749
  289POPC   D2A 3775   9.792   9.504   5.238
  289POPC   C3A 3776   9.778   9.178   5.570
  289POPC   C4A 3777   9.721   9.196   6.077
  289POPC   C1B 3778   9.282   9.399   4.685
  289POPC   C2B 3779   9.089   9.195   5.039
  289POPC   C3B 3780   9.242   9.373   5.395
  289POPC   C4B 3781   9.414   9.460   5.754
  290POPC   NC3 3782   8.881   9.618   3.973
  290POPC   PO4 3783   8.705   8.979   4.097
  290POPC   GL1 3784   8.854   9.285   4.381
  290POPC   GL2 3785   8.531   9.418   4.363
  290POPC   C1A 3786   8.787   9.535   4.787
  290POPC   D2A 3787   8.752   9.542   5.253
  290POPC   C3A 3788   8.985   9.788   5.514
  290POPC   C4A 3789   9.049   9.734   5.946
  290POPC   C1B 3790   8.450   9.116   4.680
  290POPC   C2B 3791   8.583   9.009   5.111
  290POPC   C3B 3792   8.817   9.073   5.470
  290POPC   C4B 3793   8.725   9.367   5.760
  291POPC   NC3 3794   2.478   4.921   3.872
  291POPC   PO4 3795   3.162   4.776   4.007
  291POPC   GL1 3796   2.828   5.001   4.236
  291POPC   GL2 3797   2.537   4.846   4.371
  291POPC   C1A 3798   2.883   5.205   4.629
  291POPC   D2A 3799   2.827   5.047   5.050
  291POPC   C3A 3800   3.110   5.031   5.414
  291POPC   C4A 3801   3.078   5.000   5.867
  291POPC   C1B 3802   2.348   4.766   4.754
  291POPC   C2B 3803   2.364   4.924   5.171
  291POPC   C3B 3804   2.634   4.912   5.554
  291POPC   C4B 3805   2.515   4.966   5.980
  292POPC   NC3 3806  10.236   8.658   3.846
  292POPC   PO4 3807   9.624   8.769   3.747
  292POPC   GL1 3808   9.866   8.603   4.197
  292POPC   GL2 3809  10.203   8.628   4.335
  292POPC   C1A 3810   9.850   8.634   4.688
  292POPC   D2A 3811  10.054   8.677   5.055
  292POPC   C3A 3812   9.842   8.691   5.438
  292POPC   C4A 3813   9.731   8.744   5.843
  292POPC   C1B 3814  10.305   8.298   4.619
  292POPC   C2B 3815  10.452   8.341   5.024
  292POPC   C3B 3816  10.292   8.437   5.428
  292POPC   C4B 3817  10.212   8.600   5.784
  293POPC   NC3 3818   8.329   9.189   3.933
  293POPC   PO4 3819   7.708   9.474   3.745
  293POPC   GL1 3820   7.693   9.420   4.212
  293POPC   GL2 3821   8.002   9.279   4.311
  293POPC   C1A 3822   7.657   9.351   4.687
  293POPC   D2A 3823   7.819   9.474   5.111
  293POPC   C3A 3824   7.649   9.290   5.476
  293POPC   C4A 3825   7.490   9.441   5.835
  293POPC   C1B 3826   8.129   9.561   4.643
  293POPC   C2B 3827   8.320   9.467   5.026
  293POPC   C3B 3828   8.263   9.345   5.445
  293POPC   C4B 3829   8.000   9.551   5.744
  294POPC   NC3 3830   1.003   8.548   3.857
  294POPC   PO4 3831   1.483   8.188   3.966
  294POPC   GL1 3832   1.284   8.391   4.288
  294POPC   GL2 3833   1.230   8.736   4.262
  294POPC   C1A 3834   1.122   8.362   4.701
  294POPC   D2A 3835   1.001   8.558   5.091
  294POPC   C3A 3836   0.897   8.334   5.472
  294POPC   C4A 3837   0.953   8.601   5.818
  294POPC   C1B 3838   1.356   8.811   4.660
  294POPC   C2B 3839   1.511   8.619   5.006
  294POPC   C3B 3840   1.457   8.554   5.423
  294POPC   C4B 3841   1.438   8.745   5.806
  295POPC   NC3 3842   1.435   0.963   4.138
  295POPC   PO4 3843   1.099   1.425   3.752
  295POPC   GL1 3844   1.108   1.422   4.241
  295POPC   GL2 3845   1.102   1.142   4.445
  295POPC   C1A 3846   1.034   1.580   4.698
  295POPC   D2A 3847   0.773   1.506   5.079
  295POPC   C3A 3848   1.004   1.424   5.473
  295POPC   C4A 3849   1.056   1.404   5.908
  295POPC   C1B 3850   1.314   1.165   4.833
  295POPC   C2B 3851   1.452   1.269   5.243
  295POPC   C3B 3852   1.323   1.059   5.602
  295POPC   C4B 3853   1.243   0.839   5.911
  296POPC   NC3 3854   8.004   1.730   3.935
  296POPC   PO4 3855   7.428   1.626   4.130
  296POPC   GL1 3856   7.732   1.791   4.365
  296POPC   GL2 3857   7.773   2.140   4.246
  296POPC   C1A 3858   7.964   1.628   4.712
  296POPC   D2A 3859   7.988   1.423   5.117
  296POPC   C3A 3860   7.947   1.709   5.470
  296POPC   C4A 3861   7.759   1.932   5.810
  296POPC   C1B 3862   7.844   2.145   4.706
  296POPC   C2B 3863   8.027   1.997   5.074
  296POPC   C3B 3864   7.939   2.207   5.435
  296POPC   C4B 3865   8.008   2.388   5.809
  297POPC   NC3 3866   2.544   2.002   3.664
  297POPC   PO4 3867   3.028   1.982   4.033
  297POPC   GL1 3868   2.685   2.019   4.255
  297POPC   GL2 3869   2.567   1.697   4.371
  297POPC   C1A 3870   2.573   2.174   4.671
  297POPC   D2A 3871   2.727   2.364   5.040
  297POPC   C3A 3872   2.584   2.305   5.449
  297POPC   C4A 3873   2.546   2.293   5.902
  297POPC   C1B 3874   2.643   1.682   4.756
  297POPC   C2B 3875   2.617   1.858   5.127
  297POPC   C3B 3876   2.767   1.679   5.471
  297POPC   C4B 3877   2.746   1.809   5.855
  298POPC   NC3 3878  10.410   0.126   4.012
  298POPC   PO4 3879  10.226   9.899   3.918
  298POPC   GL1 3880  10.335  10.092   4.276
  298POPC   GL2 3881  10.001  10.210   4.264
  298POPC   C1A 3882  10.486  10.036   4.716
  298POPC   D2A 3883   0.101  10.157   5.136
  298POPC   C3A 3884  10.365  10.288   5.493
  298POPC   C4A 3885  10.363   9.945   5.786
  298POPC   C1B 3886   9.989   9.978   4.653
  298POPC   C2B 3887   9.980  10.116   5.071
  298POPC   C3B 3888   9.947   9.984   5.491
  298POPC   C4B 3889   9.923  10.315   5.817
  299POPC   NC3 3890   1.019   9.525   3.813
  299POPC   PO4 3891   0.830   8.945   3.981
  299POPC   GL1 3892   0.985   9.194   4.311
  299POPC   GL2 3893   1.220   9.441   4.299
  299POPC   C1A 3894   1.074   9.223   4.741
  299POPC   D2A 3895   1.336   9.137   5.077
  299POPC   C3A 3896   1.130   9.295   5.407
  299POPC   C4A 3897   1.045   9.090   5.771
  299POPC   C1B 3898   1.330   9.702   4.671
  299POPC   C2B 3899   1.325   9.865   5.101
  299POPC   C3B 3900   1.243   9.796   5.497
  299POPC   C4B 3901   1.274   9.536   5.833
  300POPC   NC3 3902   7.986   0.415   3.872
  300POPC   PO4 3903   8.492  10.450   3.924
  300POPC   GL1 3904   8.404   0.299   4.246
  300POPC   GL2 3905   8.150   0.577   4.322
  300POPC   C1A 3906   8.249   0.199   4.669
  300POPC   D2A 3907   8.180   0.419   5.047
  300POPC   C3A 3908   8.296   0.224   5.427
  300POPC   C4A 3909   8.098   0.083   5.777
  300POPC   C1B 3910   7.845   0.584   4.660
  300POPC   C2B 3911   7.683   0.470   5.089
  300POPC   C3B 3912   7.841   0.441   5.486
  300POPC   C4B 3913   7.906   0.762   5.806
  301POPC   NC3 3914   4.084   8.788   3.847
  301POPC   PO4 3915   4.401   8.241   3.771
  301POPC   GL1 3916   4.360   8.485   4.193
  301POPC   GL2 3917   4.065   8.637   4.319
  301POPC   C1A 3918   4.467   8.577   4.641
  301POPC   D2A 3919   4.321   8.723   5.048
  301POPC   C3A 3920   4.388   8.537   5.452
  301POPC   C4A 3921   4.310   8.796   5.742
  301POPC   C1B 3922   3.963   8.825   4.690
  301POPC   C2B 3923   3.783   8.606   5.028
  301POPC   C3B 3924   3.908   8.694   5.437
  301POPC   C4B 3925   3.896   8.485   5.849
  302POPC   NC3 3926   9.971   3.678   3.984
  302POPC   PO4 3927   0.040   3.310   3.856
  302POPC   GL1 3928  10.402   3.531   4.262
  302POPC   GL2 3929  10.075   3.409   4.406
  302POPC   C1A 3930  10.401   3.674   4.730
  302POPC   D2A 3931  10.247   3.496   5.146
  302POPC   C3A 3932  10.321   3.673   5.569
  302POPC   C4A 3933  10.445   3.364   5.918
  302POPC   C1B 3934   9.887   3.655   4.746
  302POPC   C2B 3935  10.003   3.928   5.087
  302POPC   C3B 3936   9.824   3.748   5.456
  302POPC   C4B 3937   9.928   3.375   5.667
  303POPC   NC3 3938   0.877   6.379   3.739
  303POPC   PO4 3939   1.450   6.122   3.892
  303POPC   GL1 3940   1.426   6.234   4.301
  303POPC   GL2 3941   1.171   6.503   4.250
  303POPC   C1A 3942   1.448   6.361   4.713
  303POPC   D2A 3943   1.342   6.113   5.046
  303POPC   C3A 3944   1.408   6.293   5.410
  303POPC   C4A 3945   1.349   6.102   5.782
  303POPC   C1B 3946   0.965   6.541   4.674
  303POPC   C2B 3947   1.000   6.485   5.146
  303POPC   C3B 3948   0.982   6.500   5.638
  303POPC   C4B 3949   0.810   6.617   6.078
  304POPC   NC3 3950   9.964   5.956   4.062
  304POPC   PO4 3951   0.036   5.658   3.792
  304POPC   GL1 3952  10.330   5.549   4.258
  304POPC   GL2 3953  10.015   5.508   4.303
  304POPC   C1A 3954  10.222   5.729   4.713
  304POPC   D2A 3955   0.028   5.868   5.003
  304POPC   C3A 3956  10.384   5.660   5.351
  304POPC   C4A 3957  10.491   5.593   5.744
  304POPC   C1B 3958   9.782   5.443   4.698
  304POPC   C2B 3959   9.929   5.492   5.101
  304POPC   C3B 3960   9.830   5.559   5.502
  304POPC   C4B 3961  10.039   5.834   5.671
  305POPC   NC3 3962   8.370   4.770   3.903
  305POPC   PO4 3963   9.072   4.718   4.026
  305POPC   GL1 3964   8.802   4.671   4.347
  305POPC   GL2 3965   8.741   5.030   4.327
  305POPC   C1A 3966   8.868   4.606   4.782
  305POPC   D2A 3967   8.742   4.799   5.184
  305POPC   C3A 3968   8.769   4.817   5.610
  305POPC   C4A 3969   8.949   4.528   5.856
  305POPC   C1B 3970   8.576   5.009   4.755
  305POPC   C2B 3971   8.408   5.181   5.188
  305POPC   C3B 3972   8.313   5.023   5.596
  305POPC   C4B 3973   8.386   5.179   6.014
  306POPC   NC3 3974   1.061   2.987   3.743
  306POPC   PO4 3975   0.909   2.334   4.124
  306POPC   GL1 3976   0.945   2.419   4.453
  306POPC   GL2 3977   1.261   2.476   4.510
  306POPC   C1A 3978   0.767   2.454   4.793
  306POPC   D2A 3979   0.860   2.730   5.082
  306POPC   C3A 3980   1.069   2.625   5.444
  306POPC   C4A 3981   0.836   2.372   5.643
  306POPC   C1B 3982   1.296   2.515   4.961
  306POPC   C2B 3983   1.369   2.903   5.122
  306POPC   C3B 3984   1.378   3.033   5.508
  306POPC   C4B 3985   1.307   2.922   5.917
  307POPC   NC3 3986   8.001   8.112   3.906
  307POPC   PO4 3987   7.622   7.469   3.843
  307POPC   GL1 3988   7.838   7.692   4.236
  307POPC   GL2 3989   7.823   8.015   4.373
  307POPC   C1A 3990   8.083   7.702   4.671
  307POPC   D2A 3991   8.030   7.587   5.103
  307POPC   C3A 3992   8.128   7.804   5.472
  307POPC   C4A 3993   8.267   7.812   5.891
  307POPC   C1B 3994   7.689   8.033   4.786
  307POPC   C2B 3995   7.693   7.975   5.196
  307POPC   C3B 3996   7.632   7.797   5.562
  307POPC   C4B 3997   7.820   8.098   5.755
  308POPC   NC3 3998   4.327   7.820   3.915
  308POPC   PO4 3999   3.846   8.394   3.905
  308POPC   GL1 4000   3.956   8.135   4.262
  308POPC   GL2 4001   4.052   7.778   4.322
  308POPC   C1A 4002   4.030   8.281   4.683
  308POPC   D2A 4003   4.196   8.247   5.078
  308POPC   C3A 4004   4.054   8.167   5.485
  308POPC   C4A 4005   4.166   8.068   5.945
  308POPC   C1B 4006   4.227   7.804   4.765
  308POPC   C2B 4007   4.222   7.751   5.188
  308POPC   C3B 4008   4.328   7.744   5.595
  308POPC   C4B 4009   3.955   7.539   5.765
  309POPC   NC3 4010   0.825  10.236   3.913
  309POPC   PO4 4011   1.297   9.830   3.999
  309POPC   GL1 4012   1.046  10.000   4.320
  309POPC   GL2 4013   1.055  10.394   4.360
  309POPC   C1A 4014   1.005  10.074   4.756
  309POPC   D2A 4015   0.808  10.147   5.125
  309POPC   C3A 4016   0.744   9.853   5.435
  309POPC   C4A 4017   0.879   9.836   5.847
  309POPC   C1B 4018   0.940   0.081   4.793
  309POPC   C2B 4019   1.106   0.060   5.229
  309POPC   C3B 4020   1.047  10.266   5.589
  309POPC   C4B 4021   1.326  10.107   5.923
  310POPC   NC3 4022   3.404   8.796   3.917
  310POPC   PO4 4023   3.194   8.270   3.650
  310POPC   GL1 4024   3.426   8.383   4.194
  310POPC   GL2 4025   3.563   8.734   4.378
  310POPC   C1A 4026   3.509   8.320   4.652
  310POPC   D2A 4027   3.320   8.299   5.063
  310POPC   C3A 4028   3.535   8.367   5.422
  310POPC   C4A 4029   3.357   8.420   5.797
  310POPC   C1B 4030   3.327   8.794   4.772
  310POPC   C2B 4031   3.281   8.810   5.188
  310POPC   C3B 4032   3.327   9.032   5.510
  310POPC   C4B 4033   3.575   8.879   5.788
  311POPC   NC3 4034   8.675   2.922   3.936
  311POPC   PO4 4035   9.071   2.395   3.920
  311POPC   GL1 4036   8.903   2.482   4.303
  311POPC   GL2 4037   8.555   2.569   4.296
  311POPC   C1A 4038   8.788   2.375   4.721
  311POPC   D2A 4039   9.042   2.449   5.081
  311POPC   C3A 4040   8.926   2.463   5.499
  311POPC   C4A 4041   8.820   2.472   5.944
  311POPC   C1B 4042   8.576   2.828   4.689
  311POPC   C2B 4043   8.577   2.679   5.140
  311POPC   C3B 4044   8.603   2.834   5.572
  311POPC   C4B 4045   8.365   2.866   5.901
  312POPC   NC3 4046   8.871   1.980   3.867
  312POPC   PO4 4047   8.402   1.482   3.955
  312POPC   GL1 4048   8.366   1.807   4.306
  312POPC   GL2 4049   8.675   2.016   4.334
  312POPC   C1A 4050   8.348   2.070   4.696
  312POPC   D2A 4051   8.534   2.156   5.096
  312POPC   C3A 4052   8.395   1.964   5.455
  312POPC   C4A 4053   8.456   2.334   5.639
  312POPC   C1B 4054   8.833   1.817   4.725
  312POPC   C2B 4055   8.969   1.896   5.165
  312POPC   C3B 4056   8.880   1.955   5.596
  312POPC   C4B 4057   8.990   1.719   5.961
  313POPC   NC3 4058   7.902   4.272   4.087
  313POPC   PO4 4059   8.453   4.346   3.712
  313POPC   GL1 4060   8.410   4.368   4.197
  313POPC   GL2 4061   8.613   4.126   4.301
  313POPC   C1A 4062   8.413   4.407   4.673
  313POPC   D2A 4063   8.597   4.299   5.079
  313POPC   C3A 4064   8.479   4.432   5.497
  313POPC   C4A 4065   8.408   4.173   5.829
  313POPC   C1B 4066   8.898   4.112   4.638
  313POPC   C2B 4067   8.999   3.987   5.040
  313POPC   C3B 4068   8.912   4.167   5.460
  313POPC   C4B 4069   8.938   4.012   5.829
  314POPC   NC3 4070   3.534   8.033   3.853
  314POPC   PO4 4071   2.950   8.262   4.127
  314POPC   GL1 4072   3.152   7.911   4.294
  314POPC   GL2 4073   3.505   7.872   4.316
  314POPC   C1A 4074   3.250   7.889   4.754
  314POPC   D2A 4075   3.287   7.738   5.157
  314POPC   C3A 4076   3.257   7.966   5.543
  314POPC   C4A 4077   2.965   8.085   5.827
  314POPC   C1B 4078   3.735   7.859   4.679
  314POPC   C2B 4079   3.745   8.009   5.061
  314POPC   C3B 4080   3.717   7.803   5.422
  314POPC   C4B 4081   3.692   8.025   5.808
  315POPC   NC3 4082   2.812   8.002   3.775
  315POPC   PO4 4083   2.312   8.460   3.917
  315POPC   GL1 4084   2.466   8.295   4.292
  315POPC   GL2 4085   2.553   7.930   4.234
  315POPC   C1A 4086   2.389   8.173   4.711
  315POPC   D2A 4087   2.436   8.301   5.126
  315POPC   C3A 4088   2.454   8.113   5.455
  315POPC   C4A 4089   2.208   8.040   5.777
  315POPC   C1B 4090   2.771   7.866   4.630
  315POPC   C2B 4091   2.869   8.038   5.048
  315POPC   C3B 4092   2.822   7.789   5.394
  315POPC   C4B 4093   2.612   7.729   5.765
  316POPC   NC3 4094   0.308   2.918   3.812
  316POPC   PO4 4095   0.814   2.572   3.679
  316POPC   GL1 4096   0.716   2.782   4.112
  316POPC   GL2 4097   0.417   2.647   4.274
  316POPC   C1A 4098   0.737   2.894   4.561
  316POPC   D2A 4099   0.437   2.963   4.919
  316POPC   C3A 4100   0.461   2.904   5.364
  316POPC   C4A 4101   0.644   2.814   5.774
  316POPC   C1B 4102   0.266   2.522   4.705
  316POPC   C2B 4103   0.403   2.423   5.156
  316POPC   C3B 4104   0.315   2.479   5.601
  316POPC   C4B 4105   0.163   2.525   6.025
  317POPC   NC3 4106   2.033   2.682   3.896
  317POPC   PO4 4107   1.529   2.212   4.051
  317POPC   GL1 4108   1.700   2.569   4.279
  317POPC   GL2 4109   2.027   2.549   4.379
  317POPC   C1A 4110   1.684   2.732   4.712
  317POPC   D2A 4111   1.790   2.555   5.134
  317POPC   C3A 4112   1.595   2.549   5.527
  317POPC   C4A 4113   1.780   2.860   5.775
  317POPC   C1B 4114   2.139   2.425   4.771
  317POPC   C2B 4115   2.288   2.622   5.151
  317POPC   C3B 4116   2.157   2.568   5.569
  317POPC   C4B 4117   2.097   2.488   5.998
  318POPC   NC3 4118  10.218   1.916   3.850
  318POPC   PO4 4119   0.059   2.541   3.900
  318POPC   GL1 4120   0.016   2.144   4.230
  318POPC   GL2 4121  10.161   1.994   4.362
  318POPC   C1A 4122   0.056   2.045   4.714
  318POPC   D2A 4123  10.424   1.785   5.095
  318POPC   C3A 4124  10.241   1.943   5.479
  318POPC   C4A 4125  10.307   2.366   5.654
  318POPC   C1B 4126   9.949   1.916   4.795
  318POPC   C2B 4127   9.910   2.185   5.174
  318POPC   C3B 4128   9.801   2.148   5.627
  318POPC   C4B 4129   9.964   1.899   5.943
  319POPC   NC3 4130   7.828   6.270   3.900
  319POPC   PO4 4131   8.180   6.765   3.615
  319POPC   GL1 4132   8.168   6.798   4.179
  319POPC   GL2 4133   8.189   6.451   4.251
  319POPC   C1A 4134   7.986   6.775   4.618
  319POPC   D2A 4135   7.902   6.552   4.999
  319POPC   C3A 4136   8.110   6.604   5.397
  319POPC   C4A 4137   7.943   6.786   5.782
  319POPC   C1B 4138   8.033   6.166   4.596
  319POPC   C2B 4139   7.912   6.052   5.037
  319POPC   C3B 4140   8.130   6.035   5.428
  319POPC   C4B 4141   7.980   6.257   5.765
  320POPC   NC3 4142   5.052  10.254   3.857
  320POPC   PO4 4143   4.450   0.099   3.934
  320POPC   GL1 4144   4.594  10.361   4.320
  320POPC   GL2 4145   4.962  10.312   4.364
  320POPC   C1A 4146   4.697  10.464   4.761
  320POPC   D2A 4147   4.976  10.436   5.096
  320POPC   C3A 4148   4.833  10.134   5.394
  320POPC   C4A 4149   4.627  10.180   5.800
  320POPC   C1B 4150   4.876   9.997   4.724
  320POPC   C2B 4151   5.045   9.752   5.067
  320POPC   C3B 4152   5.231   9.758   5.472
  320POPC   C4B 4153   5.064   9.916   5.856
  321POPC   NC3 4154   7.713   2.747   3.725
  321POPC   PO4 4155   8.234   3.072   3.908
  321POPC   GL1 4156   8.133   2.907   4.306
  321POPC   GL2 4157   7.839   2.715   4.244
  321POPC   C1A 4158   8.154   2.575   4.633
  321POPC   D2A 4159   8.070   2.496   5.051
  321POPC   C3A 4160   8.123   2.724   5.447
  321POPC   C4A 4161   7.824   2.854   5.823
  321POPC   C1B 4162   7.652   2.616   4.662
  321POPC   C2B 4163   7.537   2.413   5.047
  321POPC   C3B 4164   7.627   2.593   5.430
  321POPC   C4B 4165   7.514   2.424   5.800
  322POPC   NC3 4166   3.757   2.830   3.974
  322POPC   PO4 4167   3.235   2.574   4.027
  322POPC   GL1 4168   3.420   2.452   4.433
  322POPC   GL2 4169   3.731   2.676   4.449
  322POPC   C1A 4170   3.703   2.298   4.760
  322POPC   D2A 4171   3.892   2.649   4.984
  322POPC   C3A 4172   3.670   2.712   5.391
  322POPC   C4A 4173   3.427   2.411   5.663
  322POPC   C1B 4174   3.387   2.932   4.611
  322POPC   C2B 4175   3.255   3.082   5.007
  322POPC   C3B 4176   3.067   3.076   5.412
  322POPC   C4B 4177   3.281   2.911   5.719
  323POPC   NC3 4178   1.117   3.832   3.911
  323POPC   PO4 4179   1.419   4.466   3.895
  323POPC   GL1 4180   1.166   4.263   4.196
  323POPC   GL2 4181   0.954   4.010   4.368
  323POPC   C1A 4182   1.320   4.335   4.604
  323POPC   D2A 4183   1.220   4.523   4.991
  323POPC   C3A 4184   1.189   4.313   5.379
  323POPC   C4A 4185   1.109   4.410   5.797
  323POPC   C1B 4186   0.878   4.173   4.772
  323POPC   C2B 4187   1.235   3.999   4.986
  323POPC   C3B 4188   1.490   3.892   5.331
  323POPC   C4B 4189   1.278   3.932   5.737
  324POPC   NC3 4190   9.449   8.410   3.972
  324POPC   PO4 4191   9.728   9.077   4.197
  324POPC   GL1 4192   9.443   8.818   4.412
  324POPC   GL2 4193   9.440   8.497   4.444
  324POPC   C1A 4194   9.402   8.896   4.781
  324POPC   D2A 4195   9.648   9.023   5.080
  324POPC   C3A 4196   9.377   8.886   5.374
  324POPC   C4A 4197   9.287   8.973   5.741
  324POPC   C1B 4198   9.380   8.378   4.762
  324POPC   C2B 4199   9.529   8.498   5.087
  324POPC   C3B 4200   9.435   8.376   5.482
  324POPC   C4B 4201   9.327   8.454   5.862
  325POPC   NC3 4202   5.720   1.279   3.870
  325POPC   PO4 4203   5.240   1.086   4.214
  325POPC   GL1 4204   5.655   0.994   4.339
  325POPC   GL2 4205   5.946   1.227   4.332
  325POPC   C1A 4206   5.843   0.955   4.756
  325POPC   D2A 4207   6.013   1.269   5.046
  325POPC   C3A 4208   5.842   1.236   5.472
  325POPC   C4A 4209   5.928   0.989   5.898
  325POPC   C1B 4210   5.612   1.404   4.639
  325POPC   C2B 4211   5.465   1.308   5.066
  325POPC   C3B 4212   5.325   1.132   5.478
  325POPC   C4B 4213   5.519   1.288   5.855
  326POPC   NC3 4214  10.368   1.121   3.886
  326POPC   PO4 4215   0.159   1.767   3.783
  326POPC   GL1 4216  10.425   1.571   4.186
  326POPC   GL2 4217  10.230   1.234   4.334
  326POPC   C1A 4218  10.323   1.598   4.630
  326POPC   D2A 4219  10.291   1.301   4.951
  326POPC   C3A 4220  10.145   1.418   5.347
  326POPC   C4A 4221  10.274   1.517   5.758
  326POPC   C1B 4222  10.127   0.914   4.643
  326POPC   C2B 4223  10.114   0.681   5.033
  326POPC   C3B 4224   9.982   0.749   5.427
  326POPC   C4B 4225  10.116   1.047   5.732
  327POPC   NC3 4226   1.089   1.899   4.060
  327POPC   PO4 4227   1.627   1.403   4.156
  327POPC   GL1 4228   1.566   1.648   4.467
  327POPC   GL2 4229   1.369   1.933   4.461
  327POPC   C1A 4230   1.547   1.642   4.886
  327POPC   D2A 4231   1.234   1.767   5.178
  327POPC   C3A 4232   1.314   2.095   5.503
  327POPC   C4A 4233   1.391   1.741   5.732
  327POPC   C1B 4234   1.138   2.074   4.790
  327POPC   C2B 4235   0.912   2.169   5.171
  327POPC   C3B 4236   0.843   1.896   5.495
  327POPC   C4B 4237   0.994   1.980   5.925
  328POPC   NC3 4238   9.299   3.554   3.886
  328POPC   PO4 4239   9.888   3.212   3.953
  328POPC   GL1 4240   9.556   3.289   4.268
  328POPC   GL2 4241   9.550   3.643   4.346
  328POPC   C1A 4242   9.487   3.304   4.733
  328POPC   D2A 4243   9.740   3.291   5.111
  328POPC   C3A 4244   9.487   3.217   5.464
  328POPC   C4A 4245   9.593   3.058   5.875
  328POPC   C1B 4246   9.124   3.624   4.592
  328POPC   C2B 4247   9.038   3.476   5.037
  328POPC   C3B 4248   8.957   3.627   5.435
  328POPC   C4B 4249   9.240   3.557   5.742
  329POPC   NC3 4250   9.480   2.171   3.940
  329POPC   PO4 4251   9.081   1.583   4.025
  329POPC   GL1 4252   9.178   1.954   4.289
  329POPC   GL2 4253   9.498   1.837   4.353
  329POPC   C1A 4254   9.234   2.150   4.700
  329POPC   D2A 4255   9.442   2.045   5.064
  329POPC   C3A 4256   9.349   2.217   5.423
  329POPC   C4A 4257   9.253   2.182   5.846
  329POPC   C1B 4258   9.392   1.651   4.749
  329POPC   C2B 4259   9.574   1.577   5.182
  329POPC   C3B 4260   9.368   1.738   5.572
  329POPC   C4B 4261   9.483   1.757   6.051
  330POPC   NC3 4262   0.268   7.132   3.867
  330POPC   PO4 4263   0.059   6.545   3.849
  330POPC   GL1 4264   0.224   6.846   4.261
  330POPC   GL2 4265   0.364   7.184   4.372
  330POPC   C1A 4266   0.231   6.826   4.717
  330POPC   D2A 4267   0.462   6.987   5.083
  330POPC   C3A 4268   0.207   7.146   5.419
  330POPC   C4A 4269   0.362   7.067   5.816
  330POPC   C1B 4270   0.699   7.262   4.703
  330POPC   C2B 4271   0.883   7.361   5.091
  330POPC   C3B 4272   0.674   7.363   5.472
  330POPC   C4B 4273   0.646   7.493   5.871
  331POPC   NC3 4274   1.483   4.988   3.908
  331POPC   PO4 4275   2.083   4.859   4.099
  331POPC   GL1 4276   2.013   5.053   4.436
  331POPC   GL2 4277   1.683   5.019   4.388
  331POPC   C1A 4278   1.961   5.065   4.864
  331POPC   D2A 4279   2.039   5.359   5.134
  331POPC   C3A 4280   2.260   5.264   5.522
  331POPC   C4A 4281   2.032   5.104   5.880
  331POPC   C1B 4282   1.693   4.671   4.692
  331POPC   C2B 4283   1.618   4.790   5.131
  331POPC   C3B 4284   1.900   4.920   5.401
  331POPC   C4B 4285   2.187   4.681   5.616
  332POPC   NC3 4286   1.095   7.940   3.947
  332POPC   PO4 4287   0.616   7.439   4.002
  332POPC   GL1 4288   0.759   7.781   4.307
  332POPC   GL2 4289   1.097   7.922   4.429
  332POPC   C1A 4290   0.785   7.771   4.762
  332POPC   D2A 4291   1.017   7.988   5.031
  332POPC   C3A 4292   0.898   7.806   5.375
  332POPC   C4A 4293   1.053   7.804   5.757
  332POPC   C1B 4294   1.447   7.974   4.663
  332POPC   C2B 4295   1.534   8.110   5.063
  332POPC   C3B 4296   1.339   8.068   5.438
  332POPC   C4B 4297   1.352   8.231   5.833
  333POPC   NC3 4298  10.096   6.503   3.896
  333POPC   PO4 4299  10.403   6.029   4.185
  333POPC   GL1 4300  10.143   6.295   4.399
  333POPC   GL2 4301  10.284   6.597   4.350
  333POPC   C1A 4302  10.077   6.265   4.823
  333POPC   D2A 4303  10.059   6.010   5.176
  333POPC   C3A 4304  10.390   6.160   5.434
  333POPC   C4A 4305  10.225   6.261   5.800
  333POPC   C1B 4306  10.187   6.794   4.713
  333POPC   C2B 4307  10.030   6.696   5.122
  333POPC   C3B 4308  10.191   6.654   5.484
  333POPC   C4B 4309  10.456   6.718   5.816
  334POPC   NC3 4310   3.472   3.658   3.872
  334POPC   PO4 4311   3.946   3.280   3.936
  334POPC   GL1 4312   3.639   3.243   4.275
  334POPC   GL2 4313   3.283   3.394   4.281
  334POPC   C1A 4314   3.596   3.397   4.707
  334POPC   D2A 4315   3.465   3.547   5.108
  334POPC   C3A 4316   3.547   3.239   5.430
  334POPC   C4A 4317   3.674   3.266   5.865
  334POPC   C1B 4318   3.076   3.484   4.701
  334POPC   C2B 4319   2.915   3.460   5.120
  334POPC   C3B 4320   3.133   3.572   5.500
  334POPC   C4B 4321   3.575   3.715   5.610
  335POPC   NC3 4322  10.334   5.216   3.878
  335POPC   PO4 4323  10.266   4.484   3.824
  335POPC   GL1 4324  10.287   4.685   4.233
  335POPC   GL2 4325  10.276   5.026   4.323
  335POPC   C1A 4326  10.149   4.670   4.667
  335POPC   D2A 4327  10.103   4.473   5.065
  335POPC   C3A 4328  10.131   4.678   5.422
  335POPC   C4A 4329   9.957   4.785   5.774
  335POPC   C1B 4330  10.200   5.187   4.674
  335POPC   C2B 4331  10.099   5.023   5.059
  335POPC   C3B 4332  10.237   5.172   5.448
  335POPC   C4B 4333  10.123   5.273   5.829
  336POPC   NC3 4334   6.396   1.195   3.821
  336POPC   PO4 4335   6.747   1.766   3.633
  336POPC   GL1 4336   6.665   1.532   4.129
  336POPC   GL2 4337   6.578   1.156   4.281
  336POPC   C1A 4338   6.750   1.461   4.630
  336POPC   D2A 4339   6.567   1.247   4.992
  336POPC   C3A 4340   6.644   1.338   5.415
  336POPC   C4A 4341   6.664   1.109   5.843
  336POPC   C1B 4342   6.337   0.965   4.632
  336POPC   C2B 4343   6.276   0.801   5.062
  336POPC   C3B 4344   6.293   0.978   5.473
  336POPC   C4B 4345   6.249   1.360   5.749
  337POPC   NC3 4346   2.378   9.677   3.742
  337POPC   PO4 4347   2.742   9.133   3.877
  337POPC   GL1 4348   2.793   9.470   4.319
  337POPC   GL2 4349   2.898   9.230   4.523
  337POPC   C1A 4350   2.749   9.631   4.763
  337POPC   D2A 4351   2.901   9.812   5.135
  337POPC   C3A 4352   2.654   9.584   5.448
  337POPC   C4A 4353   2.488   9.697   5.842
  337POPC   C1B 4354   2.844   9.017   4.867
  337POPC   C2B 4355   2.814   9.048   5.280
  337POPC   C3B 4356   2.605   9.110   5.612
  337POPC   C4B 4357   2.929   9.240   5.820
  338POPC   NC3 4358   6.459   2.559   3.665
  338POPC   PO4 4359   6.431   3.110   4.031
  338POPC   GL1 4360   6.460   2.956   4.439
  338POPC   GL2 4361   6.405   2.615   4.367
  338POPC   C1A 4362   6.494   2.928   4.885
  338POPC   D2A 4363   6.200   2.652   5.111
  338POPC   C3A 4364   6.186   2.779   5.547
  338POPC   C4A 4365   6.473   2.894   5.956
  338POPC   C1B 4366   6.615   2.469   4.708
  338POPC   C2B 4367   6.607   2.337   5.104
  338POPC   C3B 4368   6.640   2.596   5.429
  338POPC   C4B 4369   6.556   2.433   5.809
  339POPC   NC3 4370   1.323   1.022   3.640
  339POPC   PO4 4371   1.300   0.491   4.119
  339POPC   GL1 4372   1.232   0.599   4.484
  339POPC   GL2 4373   1.362   0.267   4.593
  339POPC   C1A 4374   0.936   0.784   4.758
  339POPC   D2A 4375   1.030   0.913   5.196
  339POPC   C3A 4376   1.044   0.574   5.513
  339POPC   C4A 4377   0.775   0.208   5.609
  339POPC   C1B 4378   1.284   0.494   4.978
  339POPC   C2B 4379   1.523   0.746   5.230
  339POPC   C3B 4380   1.545   0.563   5.599
  339POPC   C4B 4381   1.403   0.128   5.667
  340POPC   NC3 4382   1.865   1.782   4.022
  340POPC   PO4 4383   2.330   2.308   3.931
  340POPC   GL1 4384   2.188   2.054   4.319
  340POPC   GL2 4385   1.866   2.076   4.417
  340POPC   C1A 4386   2.159   1.904   4.788
  340POPC   D2A 4387   2.151   2.122   5.199
  340POPC   C3A 4388   2.308   1.901   5.561
  340POPC   C4A 4389   2.273   1.893   6.016
  340POPC   C1B 4390   1.665   2.226   4.734
  340POPC   C2B 4391   1.620   2.088   5.103
  340POPC   C3B 4392   1.776   1.815   5.397
  340POPC   C4B 4393   1.877   2.091   5.734
  341POPC   NC3 4394   8.543   6.727   3.902
  341POPC   PO4 4395   9.151   6.983   3.932
  341POPC   GL1 4396   8.897   7.024   4.315
  341POPC   GL2 4397   8.704   7.295   4.458
  341POPC   C1A 4398   8.502   6.842   4.536
  341POPC   D2A 4399   8.369   6.764   4.959
  341POPC   C3A 4400   8.452   6.979   5.328
  341POPC   C4A 4401   8.428   6.970   5.769
  341POPC   C1B 4402   8.801   7.095   4.830
  341POPC   C2B 4403   8.995   7.093   5.143
  341POPC   C3B 4404   8.934   7.322   5.410
  341POPC   C4B 4405   8.874   7.188   5.786
  342W        W 4406   1.286   4.694  10.454
  343W        W 4407   6.560   2.886   1.424
  344W        W 4408   6.508   8.517   9.174
  345W        W 4409   2.634   8.747  11.379
  346W        W 4410   6.211   6.128   1.328
  347W        W 4411   8.619   1.958   1.224
  348W        W 4412   3.757   7.515  11.549
  349W        W 4413   3.851   1.826   1.720
  350W        W 4414   6.949   3.258   0.069
  351W        W 4415   3.761   7.461   2.338
  352W        W 4416   7.644   7.453   3.087
  353W        W 4417   7.256   2.905  10.931
  354W        W 4418   6.630   6.065   2.524
  355W        W 4419  10.430   4.077   2.349
  356W        W 4420   0.734   2.870  11.586
  357W        W 4421   2.107   0.946  11.409
  358W        W 4422   0.783   2.574   8.749
  359W        W 4423   3.848   2.353  10.518
  360W        W 4424   7.607   0.740  11.922
  361W        W 4425   7.980   6.280  10.360
  362W        W 4426   9.616   5.034   1.981
  363W        W 4427   2.662   7.888   2.245
  364W        W 4428   3.755   6.446  10.491
  365W        W 4429   3.631   8.954   2.273
  366W        W 4430   5.595   9.697   1.311
  367W        W 4431   2.552   8.898   9.185
  368W        W 4432   4.954   4.827   1.684
  369W        W 4433   6.092   7.997   0.897
  370W        W 4434   9.178   3.306   9.382
  371W        W 4435  10.267   4.676   1.622
  372W        W 4436   8.559   9.351   3.216
  373W        W 4437   9.810   1.695  10.520
  374W        W 4438   4.626   4.385  10.874
  375W        W 4439   2.844   9.545   0.909
  376W        W 4440   3.924   8.611  11.472
  377W        W 4441  10.423   0.162   9.885
  378W        W 4442   8.531   8.316  10.377
  379W        W 4443   2.293   4.347   3.418
  380W        W 4444   3.349   9.664   0.981
  381W        W 4445   1.144   4.471   1.803
  382W        W 4446   6.147   8.555  10.895
  383W        W 4447   1.659   6.039   3.392
  384W        W 4448   1.537   9.230   0.403
  385W        W 4449   0.439   1.201   3.132
  386W        W 4450   2.182   7.841  11.009
  387W        W 4451   6.800   9.038  10.337
  388W        W 4452   3.061   7.685  11.918
  389W        W 4453   6.087   7.790  10.616
  390W        W 4454   2.585   5.230   2.846
  391W        W 4455   6.625   8.436  11.115
  392W        W 4456   9.053   9.506   3.060
  393W        W 4457   4.647  10.252   0.035
  394W        W 4458   7.311   6.216   3.914
  395W        W 4459   3.590   4.127   2.680
  396W        W 4460   1.513   9.662   3.553
  397W        W 4461  10.210   9.580   0.150
  398W        W 4462   3.756   7.708   9.983
  399W        W 4463   7.501  10.484   1.395
  400W        W 4464   5.138   4.586   8.234
  401W        W 4465   0.316   9.550  10.112
  402W        W 4466   9.699   9.453   2.455
  403W        W 4467   6.029   3.978   1.263
  404W        W 4468   7.191   1.312  10.349
  405W        W 4469   8.389   7.647   0.765
  406W        W 4470   3.787   0.253  10.075
  407W        W 4471   9.330   4.425   3.087
  408W        W 4472   2.358   3.248   9.361
  409W        W 4473   7.898   4.491  10.884
  410W        W 4474   7.979   7.605   3.469
  411W        W 4475   5.618   6.979   0.439
  412W        W 4476   9.095   9.160   2.162
  413W        W 4477   5.617   7.321   1.873
  414W        W 4478   8.430   6.226   8.626
  415W        W 4479   1.089   9.219   9.644
  416W        W 4480   8.053  10.168  10.220
  417W        W 4481   1.926  10.440   3.292
  418W        W 4482   7.906   0.948   2.292
  419W        W 4483   6.884   4.664   0.032
  420W        W 4484   8.871   3.497   2.366
  421W        W 4485   1.705   2.022   2.288
  422W        W 4486   9.676   8.349   0.803
  423W        W 4487   5.452   7.464  10.002
  424W        W 4488   1.330   7.451  10.913
  425W        W 4489   6.060   4.755  11.453
  426W        W 4490   0.924   9.548   0.423
  427W        W 4491   1.351   9.888   2.403
  428W        W 4492   4.130   4.516   0.212
  429W        W 4493   4.084   9.455   9.876
  430W        W 4494   4.821   3.214  10.307
  431W        W 4495   5.132   7.934   8.973
  432W        W 4496   6.050   9.987   2.740
  433W        W 4497   8.872   4.817  11.814
  434W        W 4498   0.850   7.527   3.107
  435W        W 4499   0.846   4.958   2.641
  436W        W 4500   4.371  10.396  10.016
  437W        W 4501   3.846   0.446  11.453
  438W        W 4502   0.012   6.994  11.325
  439W        W 4503   8.438   3.152   8.856
  440W        W 4504   3.624   6.441   3.653
  441W        W 4505   4.262   8.475   0.754
  442W        W 4506   4.276   8.843  11.111
  443W        W 4507   1.928   5.603   3.343
  444W        W 4508   7.596   8.585   1.269
  445W        W 4509   4.994   7.206   4.120
  446W        W 4510   6.449   9.798  11.488
  447W        W 4511   7.221   0.887   9.175
  448W        W 4512   4.780  10.454  10.593
  449W        W 4513   9.013   5.621   3.469
  450W        W 4514   1.670   6.631   9.325
  451W        W 4515   8.427   4.043   2.208
  452W        W 4516   8.988   6.577   1.459
  453W        W 4517   7.454   7.689   2.678
  454W        W 4518   7.033   5.972   3.114
  455W        W 4519   1.828   6.603  10.882
  456W        W 4520   8.716   3.407   0.046
  457W        W 4521   7.168   0.802   0.992
  458W        W 4522   1.910   5.271   9.099
  459W        W 4523   9.054   5.469  10.122
  460W        W 4524  10.250   5.009   0.726
  461W        W 4525   2.791   4.668   3.558
  462W        W 4526   0.974   7.004   1.319
  463W        W 4527   0.887   4.433  10.284
  464W        W 4528   6.972   4.906   0.965
  465W        W 4529   6.395   2.051   9.515
  466W        W 4530   7.511   0.505  11.282
  467W        W 4531   5.638   8.494  10.845
  468W        W 4532   3.762   7.112   9.124
  469W        W 4533  10.130   7.585  10.396
  470W        W 4534   9.343   1.837  10.359
  471W        W 4535   1.612   1.948   1.769
  472W        W 4536   7.053   3.132   3.073
  473W        W 4537   4.001   0.350   8.700
  474W        W 4538   4.745   4.901   8.412
  475W        W 4539   5.038   2.588   0.354
  476W        W 4540   6.690   6.680  11.922
  477W        W 4541   7.737   0.475   2.309
  478W        W 4542   4.544   9.643   8.522
  479W        W 4543   8.435   0.825   2.257
  480W        W 4544   5.265   9.143  11.973
  481W        W 4545   4.701   6.593  10.716
  482W        W 4546   6.719   3.105   0.981
  483W        W 4547   0.848   2.121   0.695
  484W        W 4548   8.413   7.292   3.406
  485W        W 4549   1.276  10.307   3.265
  486W        W 4550   6.472   6.953   3.266
  487W        W 4551   3.766   8.497   0.892
  488W        W 4552   5.698   8.439   2.688
  489W        W 4553   2.708   6.211   8.276
  490W        W 4554   3.717   8.701   3.517
  491W        W 4555   2.150   8.539   1.634
  492W        W 4556   7.262   6.491  10.716
  493W        W 4557   1.165   5.640   9.067
  494W        W 4558   7.733   6.841   9.267
  495W        W 4559   4.554   7.112  10.728
  496W        W 4560   5.474   3.674   8.177
  497W        W 4561   3.163   4.111   9.765
  498W        W 4562   8.963   1.346   9.743
  499W        W 4563   0.065   3.185   2.666
  500W        W 4564   6.027   4.783   2.489
  501W        W 4565   7.779   8.961  11.499
  502W        W 4566   4.139   2.589   9.468
  503W        W 4567  10.017   0.192  10.214
  504W        W 4568   7.569   0.145   3.353
  505W        W 4569   0.739   2.507  10.741
  506W        W 4570   3.222   6.735   2.472
  507W        W 4571   1.142   2.365   9.722
  508W        W 4572   4.108   6.213   1.985
  509W        W 4573   3.831   5.013  10.622
  510W        W 4574   9.242   2.767  11.369
  511W        W 4575   5.426   4.889   3.661
  512W        W 4576   8.564   9.876   1.681
  513W        W 4577   2.435   9.183   1.259
  514W        W 4578   4.501   4.545   9.988
  515W        W 4579   6.763   7.528   1.313
  516W        W 4580   4.654   9.295  11.557
  517W        W 4581   5.177   3.617   3.268
  518W        W 4582   8.915   6.011   0.842
  519W        W 4583   2.816   3.690   3.181
  520W        W 4584   6.986   4.367   3.927
  521W        W 4585   4.819   9.835  10.308
  522W        W 4586  10.398   6.075   8.873
  523W        W 4587   5.274   4.071   0.192
  524W        W 4588   9.477   4.258   0.733
  525W        W 4589   5.302   4.135  10.327
  526W        W 4590  10.248   4.276  10.103
  527W        W 4591   4.277  10.108   2.728
  528W        W 4592   2.469   1.402   3.070
  529W        W 4593   6.183   3.449   3.110
  530W        W 4594   6.932   0.373   2.004
  531W        W 4595   2.779   1.431   1.016
  532W        W 4596   5.971   3.155   8.883
  533W        W 4597   3.163   2.232   9.544
  534W        W 4598   9.132   4.176   9.580
  535W        W 4599   8.462   2.447   0.398
  536W        W 4600   5.691   5.467   9.463
  537W        W 4601   2.659   1.556   9.093
  538W        W 4602   8.906   4.286  10.522
  539W        W 4603   2.215   9.957   9.009
  540W        W 4604   5.760   7.178  11.874
  541W        W 4605   8.469   3.866   2.769
  542W        W 4606  10.195   9.572   2.384
  543W        W 4607   9.326   5.092  11.020
  544W        W 4608   7.934   6.437   2.261
  545W        W 4609   6.943   4.763   9.797
  546W        W 4610   1.268   5.125   2.361
  547W        W 4611   9.640   0.443  10.462
  548W        W 4612   9.801   0.389   1.237
  549W        W 4613   4.802   1.774   1.966
  550W        W 4614   5.312   7.373   0.305
  551W        W 4615   0.527   4.016  11.392
  552W        W 4616   8.033   5.608   3.441
  553W        W 4617   4.248   8.278  11.181
  554W        W 4618   4.730   9.861   2.698
  555W        W 4619   1.337   9.770   1.410
  556W        W 4620  10.368   1.196   1.372
  557W        W 4621   7.935   5.457   9.364
  558W        W 4622   3.871   0.676   9.786
  559W        W 4623   0.491   0.881   2.739
  560W        W 4624   3.753   9.514   0.648
  561W        W 4625   1.595   1.971  10.984
  562W        W 4626   5.484   2.624   9.224
  563W        W 4627   3.479   3.370   0.375
  564W        W 4628   4.074   8.239  10.313
  565W        W 4629   9.140   1.354   8.898
  566W        W 4630   8.037   6.244  11.712
  567W        W 4631   8.091   4.619  10.439
  568W        W 4632   3.256   0.881   8.727
  569W        W 4633   2.320   8.180   1.337
  570W        W 4634   0.673   6.098   3.307
  571W        W 4635   3.554   6.740   3.212
  572W        W 4636   8.251   3.405   0.253
  573W        W 4637   3.041   0.096   0.955
  574W        W 4638   2.649  10.238   8.839
  575W        W 4639   3.745   1.418   1.397
  576W        W 4640   2.075   5.087   9.734
  577W        W 4641   4.233   0.222  11.762
  578W        W 4642   9.920   4.875  10.064
  579W        W 4643   5.442   1.312  10.014
  580W        W 4644   9.981   8.542   9.472
  581W        W 4645   0.758   4.029   9.975
  582W        W 4646   9.332   0.467   9.566
  583W        W 4647   3.927   5.933   3.220
  584W        W 4648  10.228   7.383   8.481
  585W        W 4649   5.180   8.230   1.432
  586W        W 4650   7.053   1.539  10.830
  587W        W 4651  10.235   1.637   2.877
  588W        W 4652   2.275   2.691   0.662
  589W        W 4653  10.343   9.395   9.002
  590W        W 4654   1.737   3.325  11.491
  591W        W 4655   7.867   9.354   2.114
  592W        W 4656   9.952   3.756   1.143
  593W        W 4657   1.259   0.045  10.326
  594W        W 4658   1.480   8.970   9.399
  595W        W 4659   7.948   8.493  10.725
  596W        W 4660  10.092   4.339   3.310
  597W        W 4661   5.559   5.004  11.357
  598W        W 4662   1.737   2.688   2.926
  599W        W 4663   0.093   4.280   3.510
  600W        W 4664   8.375   0.496  11.255
  601W        W 4665  10.351  10.373   1.254
  602W        W 4666   0.972   4.826   3.128
  603W        W 4667   4.528   6.202   8.543
  604W        W 4668  10.190   3.451   3.501
  605W        W 4669  10.387   5.172  10.085
  606W        W 4670   8.930   5.260   2.293
  607W        W 4671   9.410   6.133   3.280
  608W        W 4672  10.305   0.620  10.078
  609W        W 4673   4.258   3.828   2.718
  610W        W 4674  10.362  10.081  10.759
  611W        W 4675   7.108   3.284  10.589
  612W        W 4676   4.961   2.152   9.686
  613W        W 4677   6.344   3.474   8.496
  614W        W 4678  10.391   3.765   1.450
  615W        W 4679   9.544   5.866   2.385
  616W        W 4680   5.077   2.628   9.545
  617W        W 4681   1.772  10.285  11.663
  618W        W 4682   3.627   1.295  10.402
  619W        W 4683   8.349  10.053  10.908
  620W        W 4684   2.897   1.270   0.239
  621W        W 4685   2.391   8.397   9.189
  622W        W 4686  10.252  10.201   1.752
  623W        W 4687   9.720   2.669   0.462
  624W        W 4688   0.391   1.173   1.743
  625W        W 4689   2.110   5.548   9.528
  626W        W 4690   8.051   6.979   1.412
  627W        W 4691   0.320   9.536   9.595
  628W        W 4692   5.324   5.048   1.408
  629W        W 4693   5.339   0.203   1.180
  630W        W 4694   9.498   7.972   9.937
  631W        W 4695   9.758   7.831  11.863
  632W        W 4696   3.737   2.262   3.596
  633W        W 4697   9.888   3.826   9.329
  634W        W 4698   6.530   7.428  10.130
  635W        W 4699   7.672   3.185   9.271
  636W        W 4700   3.171   0.621   3.539
  637W        W 4701   0.873   3.963   8.969
  638W        W 4702   8.454   0.346  11.724
  639W        W 4703   0.824   0.475   8.971
  640W        W 4704   7.081   4.108   2.586
  641W        W 4705   9.557  10.400   8.518
  642W        W 4706   5.165   7.247   1.663
  643W        W 4707   6.053   2.057   2.152
  644W        W 4708   9.566   7.048  11.514
  645W        W 4709   5.190   7.649   2.590
  646W        W 4710   7.493   7.617   8.964
  647W        W 4711   3.581   5.165   1.215
  648W        W 4712   7.877   3.980  11.005
  649W        W 4713   6.148   5.988   2.745
  650W        W 4714   6.170   1.863   9.084
  651W        W 4715   7.917   4.340   0.466
  652W        W 4716   5.790   8.389  10.001
  653W        W 4717   7.134   5.947  11.824
  654W        W 4718   0.920   1.416   9.806
  655W        W 4719   9.952   6.237   0.905
  656W        W 4720   8.166   5.636   0.580
  657W        W 4721   2.832   5.041   9.551
  658W        W 4722   0.396   1.251  11.852
  659W        W 4723   8.037   5.475   1.336
  660W        W 4724   4.547   9.859   2.206
  661W        W 4725   2.600   1.987  11.807
  662W        W 4726   1.816   4.764   8.476
  663W        W 4727   6.033   3.239   0.738
  664W        W 4728   0.158   9.323   2.513
  665W        W 4729   6.526   1.371   1.338
  666W        W 4730   7.188   0.371   9.414
  667W        W 4731   2.132   6.592   9.010
  668W        W 4732   7.003   3.187   0.564
  669W        W 4733   2.438   9.658   0.214
  670W        W 4734   4.016   3.267  10.035
  671W        W 4735   5.071   3.546   2.787
  672W        W 4736   8.803   8.412  11.860
  673W        W 4737   4.576   0.598  10.496
  674W        W 4738   4.254   0.923   9.984
  675W        W 4739   5.156   0.876   8.914
  676W        W 4740   9.975   0.308   0.220
  677W        W 4741   6.056   9.639   0.031
  678W        W 4742   6.529   4.742  11.676
  679W        W 4743   2.269   1.275   8.475
  680W        W 4744   1.756   4.678  10.613
  681W        W 4745   4.205   7.975   1.649
  682W        W 4746   4.627   0.525   0.995
  683W        W 4747   7.472   0.151  10.867
  684W        W 4748   0.100   4.946  11.281
  685W        W 4749   4.043   2.882  10.397
  686W        W 4750   7.959   6.798   0.927
  687W        W 4751   7.868   9.029   1.353
  688W        W 4752   5.670   4.514  10.299
  689W        W 4753   2.092   8.593  11.426
  690W        W 4754   5.663   7.571   2.331
  691W        W 4755   7.720   1.849  11.375
  692W        W 4756   0.513   6.978  11.124
  693W        W 4757   2.813   4.520   1.497
  694W        W 4758   9.854   1.209  10.681
  695W        W 4759   6.000   0.661   1.442
  696W        W 4760   0.711   0.677  10.354
  697W        W 4761   9.565   2.583   9.998
  698W        W 4762   3.560   9.173   1.804
  699W        W 4763   1.482   5.593   2.380
  700W        W 4764   4.972   6.577   9.024
  701W        W 4765   6.412   0.731   9.516
  702W        W 4766   2.369   3.062  10.969
  703W        W 4767   4.635   6.026   2.843
  704W        W 4768   5.191   2.230   0.023
  705W        W 4769   3.769   9.843   2.743
  706W        W 4770   3.039   7.999  10.051
  707W        W 4771   3.826   8.213   1.882
  708W        W 4772   2.483   0.926   2.187
  709W        W 4773   2.999   1.122  11.368
  710W        W 4774   0.368   2.398   9.148
  711W        W 4775   8.525   7.183   1.587
  712W        W 4776   2.300   1.206   1.708
  713W        W 4777   4.150   1.776   0.207
  714W        W 4778   5.654   7.948   2.893
  715W        W 4779   2.783   7.022  11.338
  716W        W 4780   7.166   1.708   2.340
  717W        W 4781   7.318   8.564  11.513
  718W        W 4782   1.316   3.294   8.740
  719W        W 4783   0.918   3.700  11.255
  720W        W 4784   1.881   4.145   1.291
  721W        W 4785   8.001   8.345   9.742
  722W        W 4786   2.061   7.621  10.058
  723W        W 4787   6.186   3.044   2.235
  724W        W 4788   1.191  10.001  11.689
  725W        W 4789   6.441   6.995  10.513
  726W        W 4790   5.766   6.586   8.485
  727W        W 4791   0.897   2.621   0.591
  728W        W 4792   9.960   6.118  11.969
  729W        W 4793   9.420   8.698  11.313
  730W        W 4794   9.227   5.218  10.529
  731W        W 4795   9.018   2.732   3.152
  732W        W 4796   0.548   9.510   3.400
  733W        W 4797   1.405   6.700   1.392
  734W        W 4798   6.530   8.003  11.383
  735W        W 4799   6.111   8.436   8.873
  736W        W 4800   1.000  10.200   2.252
  737W        W 4801   2.786   2.180   1.281
  738W        W 4802   5.142   3.605   0.036
  739W        W 4803   7.558   4.544   3.698
  740W        W 4804   5.996   0.569  10.625
  741W        W 4805   0.771   0.138   2.303
  742W        W 4806  10.190  10.226   9.998
  743W        W 4807   3.522   8.847  11.687
  744W        W 4808   2.784   5.069   1.841
  745W        W 4809   1.465   0.943   2.566
  746W        W 4810   6.617   6.528   2.198
  747W        W 4811   2.588   7.010   9.742
  748W        W 4812   4.760   7.532   2.298
  749W        W 4813   0.006   3.458  11.944
  750W        W 4814   3.234   8.963   1.470
  751W        W 4815   4.652  10.250   3.519
  752W        W 4816   9.126   8.800   1.818
  753W        W 4817   6.130  10.477   2.680
  754W        W 4818   6.449   3.373   2.660
  755W        W 4819   4.526   3.100   8.888
  756W        W 4820   4.691   0.781   3.368
  757W        W 4821   2.170   8.031   2.425
  758W        W 4822   8.643   1.794   2.011
  759W        W 4823   9.472   6.978   8.857
  760W        W 4824   7.393   2.316   8.777
  761W        W 4825   2.752   1.663   0.559
  762W        W 4826   7.707   8.534   8.870
  763W        W 4827   3.256   4.523   1.759
  764W        W 4828   9.853   8.771   1.015
  765W        W 4829   0.239   9.856  10.537
  766W        W 4830   9.412   5.120  10.038
  767W        W 4831   7.909   4.568   1.530
  768W        W 4832   3.365   9.465   1.441
  769W        W 4833   0.691   5.622   9.576
  770W        W 4834   4.028   6.622   9.205
  771W        W 4835   5.855   1.648   1.921
  772W        W 4836   7.309  10.006   9.218
  773W        W 4837   6.739   4.685   9.085
  774W        W 4838   2.309   8.219  10.678
  775W        W 4839   4.492   8.316   8.440
  776W        W 4840   5.604   8.792   9.681
  777W        W 4841   8.390   9.424  11.815
  778W        W 4842   7.313   7.843  11.037
  779W        W 4843   6.824   9.796   1.677
  780W        W 4844   7.674   2.631  10.964
  781W        W 4845   7.074   6.893   0.823
  782W        W 4846   0.472  10.297  10.483
  783W        W 4847   1.242   7.936   9.111
  784W        W 4848   1.855   8.381   0.259
  785W        W 4849   1.701   3.824   0.421
  786W        W 4850   8.397   9.027   9.251
  787W        W 4851   2.358   5.722  11.897
  788W        W 4852   6.404   4.012   9.721
  789W        W 4853   9.797   2.820   1.460
  790W        W 4854   3.186   7.486   0.392
  791W        W 4855   1.824   5.719   0.515
  792W        W 4856   6.234   5.552   3.032
  793W        W 4857   9.973   9.973   0.368
  794W        W 4858   4.588  10.409   9.177
  795W        W 4859  10.479   7.926   1.828
  796W        W 4860   3.723   7.052  11.854
  797W        W 4861   8.390   1.290   9.061
  798W        W 4862   9.135   8.030   0.619
  799W        W 4863   1.264   5.524   0.592
  800W        W 4864   2.271  10.038   2.497
  801W        W 4865   3.755   8.432  11.938
  802W        W 4866   0.788   0.181  10.473
  803W        W 4867   9.564   8.945   0.187
  804W        W 4868   4.913   1.621   3.690
  805W        W 4869   3.415  10.374  10.378
  806W        W 4870   3.103   8.527  10.326
  807W        W 4871   4.905   4.172  11.272
  808W        W 4872   6.198   1.403   0.239
  809W        W 4873   9.085   5.526  10.938
  810W        W 4874   0.408   6.038   8.834
  811W        W 4875   7.016   2.726   1.721
  812W        W 4876   2.677   3.198   1.972
  813W        W 4877   1.868   7.944   1.450
  814W        W 4878   1.933  10.408   2.666
  815W        W 4879   8.588   4.678  10.567
  816W        W 4880   9.857   8.345   3.290
  817W        W 4881   3.892   3.411   0.695
  818W        W 4882   5.040   4.540   3.664
  819W        W 4883   3.586   7.867   9.430
  820W        W 4884   5.082   8.453   8.864
  821W        W 4885   4.609   6.853   3.460
  822W        W 4886   6.946   8.049   2.537
  823W        W 4887   0.025   3.675   8.833
  824W        W 4888   8.508   9.960   2.186
  825W        W 4889   0.348   9.906   1.722
  826W        W 4890   6.941  10.480   9.682
  827W        W 4891   6.506   6.605   9.774
  828W        W 4892  10.244   6.089   3.655
  829W        W 4893   7.668   8.877   1.982
  830W        W 4894   9.118   7.564  11.958
  831W        W 4895  10.008   3.284  10.969
  832W        W 4896   6.114   0.043   0.714
  833W        W 4897   1.228   3.618  10.091
  834W        W 4898   9.919   2.019   8.500
  835W        W 4899   0.293   2.693   1.497
  836W        W 4900   9.361   8.356   1.992
  837W        W 4901   2.813   7.438   3.414
  838W        W 4902   0.083   6.586   0.703
  839W        W 4903   8.148   9.191   8.458
  840W        W 4904   2.909   1.628  10.517
  841W        W 4905   2.347   7.028   8.763
  842W        W 4906   3.264   8.450  10.936
  843W        W 4907   4.015   6.141   8.347
  844W        W 4908   5.532   3.872   3.546
  845W        W 4909   1.684   8.030   9.368
  846W        W 4910   7.549   8.374   1.835
  847W        W 4911  10.429   4.196   1.171
  848W        W 4912   7.765   6.434  10.786
  849W        W 4913   7.121   7.446   3.186
  850W        W 4914   9.672   6.472  10.736
  851W        W 4915   3.156   2.652   1.000
  852W        W 4916   2.992   1.773   0.066
  853W        W 4917   3.285   4.898  11.552
  854W        W 4918   5.182   5.751  11.858
  855W        W 4919   1.336   3.313   1.199
  856W        W 4920   9.025   3.561  10.844
  857W        W 4921   8.176   8.800   0.416
  858W        W 4922   2.741   6.973   1.450
  859W        W 4923   9.835   7.337   1.757
  860W        W 4924   5.162  10.476  11.358
  861W        W 4925   5.714   8.066   3.429
  862W        W 4926   3.341   9.391   3.482
  863W        W 4927  10.418   0.870   1.798
  864W        W 4928   7.401   6.649   3.648
  865W        W 4929   7.498   4.897  11.801
  866W        W 4930   6.474   8.855   2.538
  867W        W 4931   6.980   7.477   1.802
  868W        W 4932   1.926   4.776   2.532
  869W        W 4933   7.628   9.136   9.991
  870W        W 4934   0.261   4.265   0.470
  871W        W 4935   7.089   2.730   8.831
  872W        W 4936   8.136   3.216   1.491
  873W        W 4937   1.285   6.219   1.525
  874W        W 4938   4.245   4.687  11.730
  875W        W 4939  10.439   7.523  10.006
  876W        W 4940   9.590   0.677   9.954
  877W        W 4941   9.929   0.718  10.798
  878W        W 4942   4.131   4.531   3.687
  879W        W 4943   3.552   9.059   9.087
  880W        W 4944   3.306   9.277   2.470
  881W        W 4945   5.001   7.649   0.024
  882W        W 4946   8.614   5.058  11.373
  883W        W 4947   0.415   0.524   9.277
  884W        W 4948   0.947   8.566  10.224
  885W        W 4949   4.211   2.350   2.977
  886W        W 4950   0.460   8.322   1.237
  887W        W 4951   1.829   8.869   1.871
  888W        W 4952   5.568   3.180   8.046
  889W        W 4953   3.814   0.382   0.444
  890W        W 4954   1.194   5.170   9.713
  891W        W 4955   9.057   9.400   3.546
  892W        W 4956   1.624   0.943   1.096
  893W        W 4957   7.620   1.043   1.143
  894W        W 4958   9.985  10.032   1.241
  895W        W 4959   1.240   5.024   0.368
  896W        W 4960   1.750   0.721   9.484
  897W        W 4961   1.824   6.680   2.270
  898W        W 4962   7.839   8.928  10.419
  899W        W 4963  10.407   3.182   8.705
  900W        W 4964  10.202   7.887   8.680
  901W        W 4965   9.132   9.588  10.964
  902W        W 4966  10.117   9.931   8.967
  903W        W 4967   2.389   7.262   0.951
  904W        W 4968  10.062   9.080   0.343
  905W        W 4969   0.287   0.698  10.677
  906W        W 4970   4.785   0.834   2.183
  907W        W 4971   4.514   8.683   3.565
  908W        W 4972  10.377   8.577   0.230
  909W        W 4973   3.273   2.094  10.813
  910W        W 4974   6.508   0.742  11.281
  911W        W 4975   0.045   3.270   2.156
  912W        W 4976   5.118   7.186   2.193
  913W        W 4977   1.140   3.787   2.391
  914W        W 4978   7.626   9.278  11.904
  915W        W 4979   9.846   1.240   0.492
  916W        W 4980   5.625   7.696  10.426
  917W        W 4981   2.810   7.431   0.722
  918W        W 4982   8.521   3.584   3.294
  919W        W 4983   0.649   5.610  11.865
  920W        W 4984   2.181   9.574   1.474
  921W        W 4985   5.465   7.670   3.749
  922W        W 4986   0.471   8.465   0.391
  923W        W 4987   5.968   7.560  11.578
  924W        W 4988   6.616   7.188   0.825
  925W        W 4989   8.763   7.324   0.899
  926W        W 4990   4.972   0.771   2.678
  927W        W 4991   4.419   6.928  11.203
  928W        W 4992   7.460   5.036   3.551
  929W        W 4993   3.086   3.017   1.740
  930W        W 4994   8.631   3.293   1.751
  931W        W 4995   1.352   2.797   3.327
  932W        W 4996   7.530   8.549  10.270
  933W        W 4997   4.854   3.100   2.230
  934W        W 4998   5.834   2.242   9.208
  935W        W 4999   6.506   9.339  10.737
  936W        W 5000   7.108   7.393   0.926
  937W        W 5001   5.007   5.486   2.135
  938W        W 5002   4.597   7.668   9.052
  939W        W 5003   0.526   9.907   0.278
  940W        W 5004   3.099   2.827  10.314
  941W        W 5005   0.301   5.540   1.861
  942W        W 5006  10.342   9.930   2.778
  943W        W 5007   9.927   9.566   9.288
  944W        W 5008   7.117   9.878   2.142
  945W        W 5009   5.669   6.009   2.929
  946W        W 5010  10.070   2.517   2.832
  947W        W 5011   8.385   2.937   0.310
  948W        W 5012   3.808   7.052  11.331
  949W        W 5013   6.097   6.541  10.096
  950W        W 5014   8.016   5.575   2.400
  951W        W 5015   5.223   7.656   2.061
  952W        W 5016   6.016   9.568   0.526
  953W        W 5017   9.727  10.460   3.875
  954W        W 5018   6.066   0.020  11.271
  955W        W 5019   6.537   4.008   0.021
  956W        W 5020   7.734   2.468   0.657
  957W        W 5021   1.888   4.875   3.619
  958W        W 5022   6.581   9.135   9.891
  959W        W 5023   1.385   0.539   2.949
  960W        W 5024   9.515   6.971  10.753
  961W        W 5025   9.093   3.056   2.365
  962W        W 5026   9.893   0.929   3.785
  963W        W 5027   0.649   4.692   8.695
  964W        W 5028   3.312   6.160  10.495
  965W        W 5029   6.202   7.200   3.613
  966W        W 5030   2.777   3.682   2.144
  967W        W 5031   3.590   6.471   2.199
  968W        W 5032   5.239   2.106   1.235
  969W        W 5033   3.391   5.002   0.786
  970W        W 5034   2.675   0.185   9.277
  971W        W 5035   4.590   4.587   1.947
  972W        W 5036  10.098   7.254   2.390
  973W        W 5037   7.136   8.305   8.574
  974W        W 5038   5.231   2.209   2.114
  975W        W 5039   1.190   5.255   2.929
  976W        W 5040   8.115   1.778   9.040
  977W        W 5041   6.669   5.415   9.496
  978W        W 5042   6.501   4.137   0.933
  979W        W 5043   4.980   1.419  10.201
  980W        W 5044   2.198   6.077   8.516
  981W        W 5045   0.927   6.828   2.816
  982W        W 5046   7.150   3.116   2.048
  983W        W 5047   7.469   6.599   0.994
  984W        W 5048   2.922   9.554  11.776
  985W        W 5049   0.728   2.346   2.148
  986W        W 5050   4.523   8.210   9.965
  987W        W 5051   2.434   9.377   3.198
  988W        W 5052   4.559   1.234   9.430
  989W        W 5053   3.866   3.626   3.560
  990W        W 5054   6.275   1.545   9.451
  991W        W 5055   4.729   6.526   4.201
  992W        W 5056   6.228   1.421   3.253
  993W        W 5057   9.507   4.132  11.351
  994W        W 5058   2.288   7.947   3.564
  995W        W 5059   1.625   5.518   1.876
  996W        W 5060   8.678   1.572   1.537
  997W        W 5061   1.289   9.488   9.251
  998W        W 5062   0.814   6.847   8.692
  999W        W 5063   2.895   1.462   2.806
 1000W        W 5064   5.595   9.496   9.932
 1001W        W 5065   0.560   1.804   1.372
 1002W        W 5066   5.536   6.963   0.956
 1003W        W 5067   5.510   4.862  10.852
 1004W        W 5068   1.749   9.972  10.837
 1005W        W 5069   3.793   4.939  11.617
 1006W        W 5070   0.022   6.217  10.893
 1007W        W 5071   8.369   2.777  11.419
 1008W        W 5072   6.802   8.504  11.575
 1009W        W 5073   1.326   0.536   1.151
 1010W        W 5074   0.939   7.310   2.652
 1011W        W 5075   1.231   0.603   1.675
 1012W        W 5076   5.200   5.618   9.426
 1013W        W 5077   7.665   4.751   8.729
 1014W        W 5078   3.707   4.586   2.434
 1015W        W 5079   9.564   9.766   9.636
 1016W        W 5080   5.831   3.255   3.916
 1017W        W 5081   9.081   3.103  11.026
 1018W        W 5082   8.162   1.733   1.289
 1019W        W 5083   0.697   9.912  11.790
 1020W        W 5084   8.696   8.925   0.483
 1021W        W 5085   6.950   7.956   9.333
 1022W        W 5086   9.084   2.601  10.895
 1023W        W 5087   7.580   0.970   8.808
 1024W        W 5088   4.089   4.702  10.271
 1025W        W 5089   4.507   8.948   1.657
 1026W        W 5090   3.547   0.005   0.199
 1027W        W 5091   6.731   6.187   1.295
 1028W        W 5092   7.666   1.745   2.335
 1029W        W 5093   7.939   1.924  10.030
 1030W        W 5094   6.048   4.534   3.853
 1031W        W 5095   2.805   6.041   0.552
 1032W        W 5096   4.935  10.492   0.404
 1033W        W 5097   1.910   6.112   8.954
 1034W        W 5098   8.945   9.375   0.801
 1035W        W 5099   6.501   8.899  11.542
 1036W        W 5100   8.656   0.212  10.381
 1037W        W 5101  10.045   2.616  10.096
 1038W        W 5102   1.334   2.365   2.978
 1039W        W 5103   1.981   7.590   2.650
 1040W        W 5104   4.234   9.953   0.167
 1041W        W 5105   0.264   8.610   9.946
 1042W        W 5106   9.436   6.567  11.673
 1043W        W 5107   2.086   7.595   8.720
 1044W        W 5108   7.498   3.146  11.819
 1045W        W 5109   4.076   6.616   0.438
 1046W        W 5110   4.100   6.613   0.949
 1047W        W 5111   8.454  10.033   0.748
 1048W        W 5112   5.063   6.728   3.871
 1049W        W 5113   6.505   3.502   0.063
 1050W        W 5114   0.269   3.723   2.226
 1051W        W 5115   0.690   6.441   9.021
 1052W        W 5116   9.071   5.015   0.373
 1053W        W 5117   9.579   3.155   2.270
 1054W        W 5118   3.444   4.661   9.116
 1055W        W 5119   9.724   7.280  10.382
 1056W        W 5120   6.566   3.922   8.442
 1057W        W 5121   1.284   4.138   9.984
 1058W        W 5122   4.238   4.685  10.762
 1059W        W 5123   8.143   9.546  10.972
 1060W        W 5124   4.489   6.883   9.336
 1061W        W 5125   9.789   9.856   2.140
 1062W        W 5126   7.416   4.674   0.280
 1063W        W 5127   8.562   3.773   0.915
 1064W        W 5128   0.080   1.940  10.698
 1065W        W 5129   4.376   5.254   0.988
 1066W        W 5130   9.303   8.851   9.885
 1067W        W 5131   5.866   0.421   9.119
 1068W        W 5132   9.942   2.215   9.308
 1069W        W 5133   4.124   7.879   9.269
 1070W        W 5134   6.564   2.812   1.940
 1071W        W 5135   3.615   1.402   3.531
 1072W        W 5136   1.774   1.679   9.072
 1073W        W 5137   5.999  10.418   1.177
 1074W        W 5138   9.997   6.130   9.629
 1075W        W 5139   2.771   4.727   3.033
 1076W        W 5140   9.008   0.936   1.697
 1077W        W 5141   2.737   5.504   0.266
 1078W        W 5142   5.916   4.859   1.993
 1079W        W 5143   2.663  10.226   0.217
 1080W        W 5144   5.592   9.761   3.235
 1081W        W 5145   0.015   2.319   0.438
 1082W        W 5146   5.691   1.911   2.536
 1083W        W 5147   5.995  10.087   0.449
 1084W        W 5148   2.638   2.691  11.279
 1085W        W 5149   4.824   8.593   1.475
 1086W        W 5150   8.117   8.110   3.423
 1087W        W 5151   0.767  10.308   3.364
 1088W        W 5152   5.610   5.950   9.470
 1089W        W 5153   2.869   7.892   0.977
 1090W        W 5154   0.333   2.618   3.342
 1091W        W 5155   6.572   1.191  11.521
 1092W        W 5156   5.990   0.835   0.923
 1093W        W 5157   7.905   7.795   0.690
 1094W        W 5158   1.820   5.506   1.387
 1095W        W 5159   2.703   3.387  11.760
 1096W        W 5160   1.389   6.461   3.520
 1097W        W 5161   3.324   8.384   2.117
 1098W        W 5162   6.614   6.686   0.879
 1099W        W 5163   3.305   8.668   1.058
 1100W        W 5164   7.404   0.276   2.880
 1101W        W 5165   0.505   3.375  11.822
 1102W        W 5166   3.794   8.805   2.756
 1103W        W 5167   2.753   4.321   1.029
 1104W        W 5168   6.012   3.675   0.467
 1105W        W 5169   2.329   8.109   0.391
 1106W        W 5170   9.946   6.328  10.320
 1107W        W 5171   9.820   8.971   9.958
 1108W        W 5172   1.639   3.868   2.333
 1109W        W 5173   2.801   9.508   3.525
 1110W        W 5174   9.934   5.446   1.940
 1111W        W 5175   2.178   7.323   9.159
 1112W        W 5176  10.483   1.132   9.871
 1113W        W 5177   3.140  10.260   1.945
 1114W        W 5178   7.010  10.343   1.248
 1115W        W 5179   0.423   9.336   1.008
 1116W        W 5180   4.524   0.487   2.986
 1117W        W 5181   3.398   3.553   0.859
 1118W        W 5182   7.162  10.357  10.515
 1119W        W 5183   5.083  10.482  11.905
 1120W        W 5184   4.796   9.989   9.360
 1121W        W 5185   7.229   8.845   0.808
 1122W        W 5186   5.404   5.778   9.895
 1123W        W 5187   9.348   9.094   3.007
 1124W        W 5188   3.527   3.099  10.095
 1125W        W 5189   1.300   8.168  10.152
 1126W        W 5190   4.098   4.185  10.883
 1127W        W 5191   9.444   3.254   2.759
 1128W        W 5192   5.715  10.016   9.846
 1129W        W 5193   4.611   9.444   1.510
 1130W        W 5194   9.228   8.634   8.887
 1131W        W 5195   3.423   1.811  11.766
 1132W        W 5196   3.501   6.233   3.205
 1133W        W 5197   0.031   4.069  11.323
 1134W        W 5198   6.490   6.114  10.999
 1135W        W 5199   5.593   8.769   1.501
 1136W        W 5200   1.304   6.956  10.510
 1137W        W 5201   4.743   1.700   9.572
 1138W        W 5202   4.565   9.569   9.532
 1139W        W 5203   6.029   1.058   9.457
 1140W        W 5204   9.632   6.699   2.672
 1141W        W 5205   6.683   7.937  10.386
 1142W        W 5206   9.892   2.620   9.602
 1143W        W 5207  10.382   4.708   1.139
 1144W        W 5208   4.315   2.248   2.489
 1145W        W 5209   3.836   9.844  10.905
 1146W        W 5210   7.778   7.026   2.826
 1147W        W 5211   9.023   7.944  10.124
 1148W        W 5212   3.248   7.262  11.683
 1149W        W 5213   7.542   7.398  10.955
 1150W        W 5214  10.449   3.280   9.219
 1151W        W 5215   4.054   6.504   2.437
 1152W        W 5216   3.272   6.228   1.376
 1153W        W 5217   5.547   5.339  11.755
 1154W        W 5218   3.706   4.594   9.891
 1155W        W 5219  10.263   9.367   1.585
 1156W        W 5220   1.280   7.610   1.198
 1157W        W 5221   0.686   1.965  10.870
 1158W        W 5222   9.170   0.404   3.567
 1159W        W 5223  10.352   6.160   9.971
 1160W        W 5224   0.804  10.275   9.578
 1161W        W 5225   9.876   8.589   0.411
 1162W        W 5226   6.070   9.454   1.465
 1163W        W 5227   0.862   1.652   0.992
 1164W        W 5228   0.366   3.673  11.029
 1165W        W 5229   8.133   8.675  11.210
 1166W        W 5230   0.353   7.853   1.443
 1167W        W 5231   4.742   8.604   0.971
 1168W        W 5232   4.700   5.150   0.273
 1169W        W 5233   5.655   2.127   1.848
 1170W        W 5234   5.439   6.483   0.391
 1171W        W 5235   9.301   9.617   0.544
 1172W        W 5236   2.726   8.043   9.019
 1173W        W 5237   3.565   9.395  10.813
 1174W        W 5238   7.610   2.718   9.040
 1175W        W 5239   0.389   6.670  10.400
 1176W        W 5240   9.398   3.915  10.884
 1177W        W 5241   9.743   0.907   2.245
 1178W        W 5242   9.059   4.494   1.248
 1179W        W 5243   8.426  10.010   9.918
 1180W        W 5244   3.747   4.571  10.875
 1181W        W 5245   7.229   0.317   2.407
 1182W        W 5246   2.108   0.281   0.132
 1183W        W 5247   7.597   5.173   0.241
 1184W        W 5248   8.077   0.843   0.937
 1185W        W 5249   6.402  10.292  11.576
 1186W        W 5250   5.003   5.711   8.946
 1187W        W 5251   8.157   0.733  10.859
 1188W        W 5252   0.678   2.383   1.642
 1189W        W 5253   6.520   5.082   9.950
 1190W        W 5254   5.633   3.131  11.417
 1191W        W 5255   9.779   2.587  10.534
 1192W        W 5256   8.384   2.670   3.036
 1193W        W 5257   3.141   8.833  11.271
 1194W        W 5258   4.130   7.957   9.775
 1195W        W 5259   6.030   2.788  11.464
 1196W        W 5260   9.831   5.291   2.414
 1197W        W 5261   2.638   2.385   9.751
 1198W        W 5262   3.645   0.364   2.472
 1199W        W 5263   4.570   3.294   3.131
 1200W        W 5264   0.239   7.922   2.346
 1201W        W 5265   4.245   5.486   3.254
 1202W        W 5266   3.329   5.478   2.750
 1203W        W 5267   3.847   7.459   9.500
 1204W        W 5268   3.938   5.765   7.972
 1205W        W 5269   0.792   3.557   9.764
 1206W        W 5270   9.823   6.298   2.365
 1207W        W 5271   1.673   0.302  11.385
 1208W        W 5272   9.563   3.665  11.939
 1209W        W 5273   2.733   8.785   3.202
 1210W        W 5274   5.156   8.577   2.383
 1211W        W 5275   8.814   4.587   8.660
 1212W        W 5276   2.179   4.188   9.555
 1213W        W 5277   9.855   3.074  10.363
 1214W        W 5278   9.702   2.651   9.127
 1215W        W 5279   8.471   8.580   0.783
 1216W        W 5280   2.154   3.860   3.534
 1217W        W 5281   2.411   7.495   9.613
 1218W        W 5282   3.619   9.016  11.207
 1219W        W 5283   4.351   4.055   2.247
 1220W        W 5284   5.225   7.170  11.832
 1221W        W 5285   0.767   3.269   1.067
 1222W        W 5286   1.430   2.598  11.095
 1223W        W 5287   2.265   7.011  11.484
 1224W        W 5288   5.680   6.416   9.348
 1225W        W 5289   4.314   3.136  10.955
 1226W        W 5290   7.636   5.826  11.801
 1227W        W 5291   1.647   5.358   9.590
 1228W        W 5292   4.228   3.154   9.475
 1229W        W 5293   0.395   2.256   2.944
 1230W        W 5294   0.378   6.389   1.634
 1231W        W 5295   1.396  10.232   8.986
 1232W        W 5296   7.104   4.718  11.007
 1233W        W 5297   9.715   3.656  11.443
 1234W        W 5298   4.450   5.735   8.785
 1235W        W 5299   8.891   8.952   9.134
 1236W        W 5300   4.991   1.346   8.695
 1237W        W 5301   5.509  10.350  11.692
 1238W        W 5302   8.048   2.766   1.206
 1239W        W 5303   9.395  10.478   0.006
 1240W        W 5304   4.156   8.919   9.022
 1241W        W 5305   2.158   1.808   2.491
 1242W        W 5306   9.999   0.479   2.035
 1243W        W 5307   3.498   8.116   9.857
 1244W        W 5308   6.472   6.781   1.767
 1245W        W 5309   6.184   3.254  10.207
 1246W        W 5310   3.293   8.555   0.133
 1247W        W 5311   0.636   9.932   8.388
 1248W        W 5312   8.961   2.690   8.641
 1249W        W 5313   5.512   6.516   4.061
 1250W        W 5314   9.556   1.646   8.995
 1251W        W 5315   9.633   4.254   9.521
 1252W        W 5316   4.573   4.251   2.712
 1253W        W 5317   5.615   5.169   0.227
 1254W        W 5318   1.600   9.105  11.280
 1255W        W 5319   9.272   7.689  11.448
 1256W        W 5320   9.925   0.793   0.723
 1257W        W 5321   3.738   5.996   1.692
 1258W        W 5322   0.398   2.095   3.437
 1259W        W 5323   5.605  10.282  11.189
 1260W        W 5324   5.999  10.408   8.716
 1261W        W 5325   7.833   2.286   9.546
 1262W        W 5326   4.621   1.227   2.476
 1263W        W 5327   6.448   4.419   9.419
 1264W        W 5328   9.609   4.747  10.796
 1265W        W 5329   3.365   5.215  10.758
 1266W        W 5330   4.554   6.443   3.179
 1267W        W 5331   2.179  10.417   0.467
 1268W        W 5332   9.815   5.662   9.438
 1269W        W 5333   4.286   2.169   1.989
 1270W        W 5334  10.237   6.871   3.254
 1271W        W 5335   7.039   1.258  11.258
 1272W        W 5336   7.412   8.275  10.750
 1273W        W 5337   9.705  10.086   9.255
 1274W        W 5338   6.584   2.790   8.964
 1275W        W 5339   0.014  10.365   2.596
 1276W        W 5340   4.507   2.313   9.843
 1277W        W 5341   6.583   2.200   3.311
 1278W        W 5342   9.944   1.303   2.532
 1279W        W 5343   2.408   5.950   9.483
 1280W        W 5344   5.775   3.763   3.119
 1281W        W 5345   8.116   1.799   3.452
 1282W        W 5346   2.726   1.491   2.321
 1283W        W 5347   1.857   2.575  10.059
 1284W        W 5348   8.954   3.668   2.877
 1285W        W 5349   1.216   5.591  11.892
 1286W        W 5350   0.922   1.288  11.230
 1287W        W 5351   0.340   4.481   0.958
 1288W        W 5352   1.224   3.129  10.329
 1289W        W 5353  10.476   4.594   3.098
 1290W        W 5354   7.015   3.582   3.317
 1291W        W 5355   3.723   0.915   9.373
 1292W        W 5356   4.855   1.859  10.571
 1293W        W 5357   5.594  10.387   0.798
 1294W        W 5358   3.631   6.193  10.926
 1295W        W 5359  10.326   8.220   2.218
 1296W        W 5360   4.077   4.699  11.250
 1297W        W 5361  10.300   3.498   2.969
 1298W        W 5362   1.565  10.147  10.383
 1299W        W 5363   8.023  10.377   1.278
 1300W        W 5364   4.717   2.061   2.758
 1301W        W 5365   7.461   4.533   1.818
 1302W        W 5366   3.136   3.799  10.608
 1303W        W 5367   5.176   5.155   0.488
 1304W        W 5368   4.739   4.517  11.621
 1305W        W 5369   8.290   1.324   2.278
 1306W        W 5370   4.679   8.492   0.459
 1307W        W 5371   5.183   1.587   1.287
 1308W        W 5372   0.029   4.807   3.556
 1309W        W 5373   1.355   9.392  10.091
 1310W        W 5374   5.492   3.805  10.736
 1311W        W 5375   3.807  10.296   9.834
 1312W        W 5376   9.224   4.475   0.117
 1313W        W 5377   5.045   4.082   1.155
 1314W        W 5378   4.919   5.578   1.203
 1315W        W 5379   7.526   1.767  10.844
 1316W        W 5380   2.303   9.439   9.140
 1317W        W 5381   2.658   7.943   3.225
 1318W        W 5382   7.509   7.114   8.892
 1319W        W 5383   3.788   6.261   0.713
 1320W        W 5384   0.569   0.337   0.263
 1321W        W 5385   3.148   3.292   2.204
 1322W        W 5386   4.910   2.074   0.414
 1323W        W 5387   6.888   2.242   8.898
 1324W        W 5388   6.492  10.192   2.425
 1325W        W 5389  10.342   6.585   9.574
 1326W        W 5390   4.606   5.023  10.087
 1327W        W 5391   9.497   0.557   0.880
 1328W        W 5392   7.499   3.306   3.203
 1329W        W 5393   3.348   5.857   4.061
 1330W        W 5394   0.035   1.830   0.606
 1331W        W 5395   8.105   1.714  11.037
 1332W        W 5396   7.886   3.456  11.140
 1333W        W 5397   4.775   2.007  11.070
 1334W        W 5398   4.489   5.714   0.206
 1335W        W 5399   8.811   6.080   2.761
 1336W        W 5400   4.022   3.638   0.268
 1337W        W 5401   4.174   2.728   0.711
 1338W        W 5402   7.443   9.919  10.592
 1339W        W 5403   9.740   6.667   3.590
 1340W        W 5404   8.529   1.916   9.319
 1341W        W 5405   3.147   7.852   3.358
 1342W        W 5406   7.488   6.097  10.467
 1343W        W 5407   0.267   2.213   1.877
 1344W        W 5408   3.106   8.475   9.799
 1345W        W 5409   9.817   9.840  10.107
 1346W        W 5410   5.922   1.075   3.437
 1347W        W 5411   3.859   2.690   1.205
 1348W        W 5412   7.304   9.012  10.356
 1349W        W 5413   9.785  10.344   1.911
 1350W        W 5414   9.877   0.347   9.232
 1351W        W 5415   5.962   2.207   9.688
 1352W        W 5416   5.653   0.878   8.672
 1353W        W 5417   0.431   6.783   9.909
 1354W        W 5418   2.556   5.614   0.734
 1355W        W 5419   1.227   3.223   9.777
 1356W        W 5420   0.774   5.703  10.917
 1357W        W 5421   0.352   3.414   0.776
 1358W        W 5422   7.997   4.791   2.946
 1359W        W 5423   7.020   6.976   8.978
 1360W        W 5424   5.577   9.323   0.410
 1361W        W 5425   2.697   3.881   0.741
 1362W        W 5426   8.311   8.527  11.704
 1363W        W 5427   2.457   6.892   0.083
 1364W        W 5428   7.729   8.634   0.774
 1365W        W 5429   1.764   9.919   2.689
 1366W        W 5430   5.071   4.177  10.770
 1367W        W 5431   0.421   5.654   3.322
 1368W        W 5432   7.280   0.285   1.048
 1369W        W 5433   7.554   2.159   2.720
 1370W        W 5434   5.683   2.478  10.025
 1371W        W 5435   0.336   4.161  10.913
 1372W        W 5436   6.968   3.726   1.723
 1373W        W 5437   3.841   9.630   0.175
 1374W        W 5438   3.251   9.310   9.485
 1375W        W 5439   8.160  10.460  11.873
 1376W        W 5440   3.872   5.764   0.663
 1377W        W 5441   8.375   0.194   1.528
 1378W        W 5442   8.832   2.333   9.400
 1379W        W 5443   1.898   2.797  10.895
 1380W        W 5444   7.087   6.601   9.855
 1381W        W 5445   2.445   3.761   1.167
 1382W        W 5446   6.082   7.029   1.505
 1383W        W 5447   1.808   7.440   1.300
 1384W        W 5448   5.958   6.118  10.389
 1385W        W 5449   9.330   1.446   9.392
 1386W        W 5450   9.464   4.216   1.744
 1387W        W 5451   8.927   8.592  11.084
 1388W        W 5452   8.954   4.242   3.421
 1389W        W 5453   3.690   7.192   3.427
 1390W        W 5454   3.138   4.030   1.841
 1391W        W 5455   2.806   7.897  11.507
 1392W        W 5456   3.383   8.009   0.201
 1393W        W 5457   3.816   5.085   8.575
 1394W        W 5458   0.464   7.353   0.554
 1395W        W 5459   2.851   7.628  10.400
 1396W        W 5460   5.964   3.564  10.809
 1397W        W 5461   2.164   6.894   9.425
 1398W        W 5462   5.042   5.502   2.642
 1399W        W 5463   9.357   1.019   0.431
 1400W        W 5464   4.973   8.099  10.816
 1401W        W 5465   0.379   8.120   3.376
 1402W        W 5466   4.641   0.822   0.150
 1403W        W 5467   6.601   4.200   2.804
 1404W        W 5468   0.019   7.067   9.768
 1405W        W 5469   1.288   3.554  10.605
 1406W        W 5470   2.614   5.538   1.726
 1407W        W 5471   0.685   9.849  10.310
 1408W        W 5472   3.095   9.699   2.280
 1409W        W 5473   1.702   8.004   8.829
 1410W        W 5474   8.549   9.463  11.329
 1411W        W 5475   5.935   3.081  10.619
 1412W        W 5476   6.998  10.435   9.167
 1413W        W 5477   0.675   2.251  10.011
 1414W        W 5478   6.020   7.327   3.092
 1415W        W 5479   5.472   6.078  10.293
 1416W        W 5480   5.511   9.414  11.415
 1417W        W 5481   4.225   4.609   3.183
 1418W        W 5482   7.204   5.164   2.408
 1419W        W 5483   3.434   7.030   2.818
 1420W        W 5484   1.844   5.840   3.817
 1421W        W 5485   8.809   6.864  10.244
 1422W        W 5486   1.271   7.641  10.017
 1423W        W 5487   3.964   8.753  10.297
 1424W        W 5488   5.076  10.064   1.368
 1425W        W 5489   6.912   5.615   8.703
 1426W        W 5490   2.893  10.379   9.660
 1427W        W 5491   6.773   2.938  10.801
 1428W        W 5492   3.033  10.303   9.175
 1429W        W 5493   8.106   2.898   9.956
 1430W        W 5494   0.933   5.652   3.461
 1431W        W 5495   3.415   9.777   9.338
 1432W        W 5496   1.488   1.807   8.579
 1433W        W 5497   9.889   4.687   9.584
 1434W        W 5498   1.180   3.443   0.742
 1435W        W 5499   9.729   5.299   3.426
 1436W        W 5500   7.873   2.441  11.407
 1437W        W 5501   7.101   5.776   9.565
 1438W        W 5502   4.194   5.228   1.956
 1439W        W 5503   5.971   4.758  10.675
 1440W        W 5504   8.485   2.866   0.927
 1441W        W 5505   0.932   6.561   3.259
 1442W        W 5506   9.522   1.341  10.276
 1443W        W 5507   3.382   4.342   0.304
 1444W        W 5508   9.359   4.985   2.422
 1445W        W 5509   9.342   3.269  11.460
 1446W        W 5510   9.499   4.701  10.296
 1447W        W 5511   2.835   8.373   2.255
 1448W        W 5512   0.423   5.887   1.514
 1449W        W 5513   8.594   8.276   3.567
 1450W        W 5514   5.319   1.862   3.511
 1451W        W 5515   7.641   5.827   9.583
 1452W        W 5516   3.532   8.008  10.934
 1453W        W 5517   3.184   6.244   2.384
 1454W        W 5518   1.392   0.945  10.387
 1455W        W 5519   5.166   5.186  11.062
 1456W        W 5520   5.739   4.406  11.967
 1457W        W 5521   6.951   6.461   8.972
 1458W        W 5522   7.026   2.833  10.285
 1459W        W 5523   7.952   8.603   1.638
 1460W        W 5524   9.780   9.791  11.920
 1461W        W 5525   1.728   1.136  11.685
 1462W        W 5526  10.361   4.493   0.697
 1463W        W 5527   5.651   4.228   0.472
 1464W        W 5528   9.832   3.055   3.481
 1465W        W 5529   6.038   1.263   1.186
 1466W        W 5530   0.254   0.962   2.262
 1467W        W 5531   3.617   0.753  10.224
 1468W        W 5532   4.424  10.489   1.525
 1469W        W 5533   8.830   3.175   3.340
 1470W        W 5534   4.252   0.822   9.472
 1471W        W 5535   6.467   2.469   0.404
 1472W        W 5536   6.572   0.310  10.926
 1473W        W 5537   2.740  10.331  11.158
 1474W        W 5538   5.300   9.761   1.724
 1475W        W 5539   3.266   1.385   1.186
 1476W        W 5540   2.286   0.036  11.035
 1477W        W 5541   1.358   5.722   1.472
 1478W        W 5542   7.949   0.297  11.543
 1479W        W 5543   9.083   3.735   0.162
 1480W        W 5544   1.725   1.198   9.265
 1481W        W 5545   7.157   1.280   1.224
 1482W        W 5546   9.788   3.303   1.281
 1483W        W 5547   3.630   5.072   3.159
 1484W        W 5548   8.509   5.214   1.258
 1485W        W 5549   8.363   3.656   9.418
 1486W        W 5550   2.699   8.146  10.383
 1487W        W 5551   3.621   7.483   0.735
 1488W        W 5552   6.003   5.127   9.278
 1489W        W 5553   8.377   9.252   0.287
 1490W        W 5554   7.061   9.403   1.462
 1491W        W 5555   6.185   7.526   9.316
 1492W        W 5556   8.107   4.016   0.831
 1493W        W 5557   8.183   9.919   9.458
 1494W        W 5558   0.824   0.591   1.015
 1495W        W 5559   7.338   5.091   0.665
 1496W        W 5560  10.471   1.353  11.371
 1497W        W 5561   3.832   9.300  10.357
 1498W        W 5562   2.759   7.400   2.312
 1499W        W 5563   8.974   3.164   0.933
 1500W        W 5564   4.023   7.459  11.985
 1501W        W 5565   6.757   7.742  11.022
 1502W        W 5566   9.536   4.082   3.425
 1503W        W 5567   1.625   5.139   3.241
 1504W        W 5568   4.663   9.969   9.850
 1505W        W 5569   0.936   8.191   0.402
 1506W        W 5570   9.934   3.639   1.673
 1507W        W 5571   8.824   6.123  11.364
 1508W        W 5572   5.161   8.003   3.210
 1509W        W 5573   1.276   2.102  11.392
 1510W        W 5574   6.480   6.512   2.702
 1511W        W 5575   0.650   5.652   9.069
 1512W        W 5576   1.798   4.385   9.258
 1513W        W 5577   8.545   4.710   0.996
 1514W        W 5578   0.887   8.967  10.857
 1515W        W 5579   6.208   7.963   8.546
 1516W        W 5580   6.001   9.015   1.716
 1517W        W 5581   8.152   5.006   9.537
 1518W        W 5582   2.749   4.209   8.867
 1519W        W 5583   9.500   9.405  10.602
 1520W        W 5584   3.727   7.665   3.222
 1521W        W 5585   0.859   6.016  11.339
 1522W        W 5586   9.937   2.412   1.160
 1523W        W 5587   8.589   1.460   1.068
 1524W        W 5588   3.259   2.904   0.506
 1525W        W 5589   4.063   5.018   3.428
 1526W        W 5590   0.216   7.879   8.820
 1527W        W 5591   3.782   0.886   2.221
 1528W        W 5592  10.269   0.821  11.428
 1529W        W 5593  10.243   0.971   2.268
 1530W        W 5594   3.371   4.262   2.228
 1531W        W 5595   0.817   7.389   9.422
 1532W        W 5596   5.749   6.328  11.642
 1533W        W 5597   1.943   1.536   0.224
 1534W        W 5598   2.834   0.994   3.001
 1535W        W 5599   1.932   2.208   1.421
 1536W        W 5600   2.613   8.048   9.517
 1537W        W 5601   4.201   2.763   9.937
 1538W        W 5602   6.976   7.909   1.039
 1539W        W 5603   6.701  10.039   8.961
 1540W        W 5604   3.191   6.658   1.050
 1541W        W 5605   4.274   7.513   2.054
 1542W        W 5606   5.985   5.722   2.203
 1543W        W 5607   8.825   7.422  11.499
 1544W        W 5608   3.337   0.403   0.661
 1545W        W 5609  10.223   0.467  11.806
 1546W        W 5610   2.448  10.415  10.022
 1547W        W 5611   7.727   6.519   3.274
 1548W        W 5612   9.028   9.866   1.478
 1549W        W 5613   5.149   9.565  10.738
 1550W        W 5614   7.884   5.712  11.211
 1551W        W 5615  10.333   1.670   1.612
 1552W        W 5616   1.746   3.568   0.851
 1553W        W 5617   4.974   5.050   3.429
 1554W        W 5618   3.743   3.639   2.642
 1555W        W 5619   4.184   4.222   0.901
 1556W        W 5620   3.671   0.324  10.558
 1557W        W 5621   6.686   0.629   3.223
 1558W        W 5622   0.759   4.771   0.315
 1559W        W 5623   6.838   2.688   3.286
 1560W        W 5624   0.927   1.754   9.413
 1561W        W 5625   7.709   8.945   8.580
 1562W        W 5626   8.172   3.206   9.285
 1563W        W 5627   5.470   8.020  10.822
 1564W        W 5628   3.586   3.658  10.893
 1565W        W 5629   5.051   7.837   9.916
 1566W        W 5630   3.257   6.191   0.817
 1567W        W 5631   1.147   9.432   2.267
 1568W        W 5632   2.584   8.054   2.731
 1569W        W 5633   5.103  10.421   9.310
 1570W        W 5634   8.373   4.393   2.872
 1571W        W 5635   9.966   4.148   1.476
 1572W        W 5636   2.142   2.714   2.595
 1573W        W 5637   9.247   0.302  11.494
 1574W        W 5638   9.864   7.965  10.616
 1575W        W 5639   5.078   7.481   8.237
 1576W        W 5640   1.620   9.873   9.948
 1577W        W 5641   1.228   5.678   9.578
 1578W        W 5642   6.548   5.995  11.500
 1579W        W 5643   4.506   4.496   0.578
 1580W        W 5644   1.209   4.755   9.381
 1581W        W 5645   8.639   6.265   1.252
 1582W        W 5646   3.584   9.973   1.403
 1583W        W 5647  10.485   2.816  11.140
 1584W        W 5648   6.151   4.677   2.955
 1585W        W 5649  10.399   9.476   1.090
 1586W        W 5650   9.840   9.283  11.928
 1587W        W 5651   5.059   3.716   8.495
 1588W        W 5652   2.704   0.660   9.472
 1589W        W 5653   7.947   5.422  10.754
 1590W        W 5654   5.136   2.353   0.794
 1591W        W 5655   8.299   7.838   2.291
 1592W        W 5656   1.880   2.361  11.191
 1593W        W 5657   3.227   3.782   2.415
 1594W        W 5658   7.063   8.520   2.742
 1595W        W 5659   7.517   3.338   2.690
 1596W        W 5660   1.369   4.725   3.453
 1597W        W 5661   3.197   1.947   2.950
 1598W        W 5662   8.309  10.313   1.870
 1599W        W 5663   2.385   2.451   1.391
 1600W        W 5664   3.473   6.897   1.960
 1601W        W 5665   7.653   0.008   2.505
 1602W        W 5666   1.339   6.940   8.980
 1603W        W 5667   7.199  10.326   2.677
 1604W        W 5668   6.547   2.254   2.338
 1605W        W 5669   1.796   9.152   2.301
 1606W        W 5670   3.672   7.221  10.050
 1607W        W 5671   2.837   2.608   1.926
 1608W        W 5672   4.906   0.248   2.599
 1609W        W 5673   7.699   1.918   3.179
 1610W        W 5674   2.939   3.607   1.105
 1611W        W 5675   3.574   2.631   0.197
 1612W        W 5676   6.721   0.138   1.554
 1613W        W 5677   8.432   4.592   2.004
 1614W        W 5678   7.957   6.042   3.143
 1615W        W 5679   1.033   9.972   9.248
 1616W        W 5680   8.530   9.261  10.413
 1617W        W 5681   8.063   0.506   9.686
 1618W        W 5682   0.220  10.397   1.598
 1619W        W 5683   8.551   0.687   9.100
 1620W        W 5684   4.731   6.420   9.446
 1621W        W 5685   3.201   9.105  11.982
 1622W        W 5686  10.053   9.945   9.590
 1623W        W 5687  10.085   4.740  10.951
 1624W        W 5688   2.161   1.679  11.729
 1625W        W 5689   1.073   0.781  11.166
 1626W        W 5690   8.886   8.004   0.150
 1627W        W 5691   3.892   5.171   0.801
 1628W        W 5692   5.560   5.892   1.016
 1629W        W 5693  10.292   8.863   9.765
 1630W        W 5694   0.239   7.960   9.337
 1631W        W 5695   6.217   6.487   3.160
 1632W        W 5696   3.167   6.056   3.605
 1633W        W 5697   9.441   2.952   9.643
 1634W        W 5698   6.443   1.863   0.464
 1635W        W 5699   0.870   1.259   2.863
 1636W        W 5700   1.716   1.507   2.364
 1637W        W 5701   5.285   7.493   9.254
 1638W        W 5702   8.829   9.983  10.754
 1639W        W 5703   8.231   7.859   0.301
 1640W        W 5704   1.399   1.979   9.553
 1641W        W 5705   4.160   9.941   9.997
 1642W        W 5706   4.932   6.478   1.457
 1643W        W 5707   2.021   8.012   0.945
 1644W        W 5708   1.284   0.765   9.043
 1645W        W 5709   6.982   0.419   9.976
 1646W        W 5710   7.203   1.847   3.345
 1647W        W 5711   3.641   1.749   0.220
 1648W        W 5712   3.250   3.596   2.904
 1649W        W 5713   2.126   3.851   0.159
 1650W        W 5714   9.451   3.322  10.020
 1651W        W 5715   8.282   6.287  10.801
 1652W        W 5716   6.647   5.002   0.441
 1653W        W 5717   1.076   5.155  11.420
 1654W        W 5718   0.454   1.313  10.000
 1655W        W 5719   9.847   7.689   2.652
 1656W        W 5720   0.005   6.959   2.303
 1657W        W 5721   4.238   5.132  11.020
 1658W        W 5722   3.095   8.194  11.823
 1659W        W 5723   1.026   9.990   0.180
 1660W        W 5724   9.611   6.211   9.954
 1661W        W 5725   8.696   6.028   2.255
 1662W        W 5726   7.518   2.413   3.186
 1663W        W 5727   4.116   0.315   2.259
 1664W        W 5728   1.939   1.705  10.638
 1665W        W 5729   1.743   4.059  11.824
 1666W        W 5730   0.495   2.689  10.202
 1667W        W 5731   6.920   2.577   9.294
 1668W        W 5732   6.970   5.865   0.848
 1669W        W 5733   6.207   0.925  11.931
 1670W        W 5734   2.887   5.609   2.963
 1671W        W 5735  10.334   3.720   1.968
 1672W        W 5736   9.194   3.748  11.351
 1673W        W 5737   6.239   4.022   3.138
 1674W        W 5738   6.280  10.085   0.866
 1675W        W 5739   0.679   0.882   1.404
 1676W        W 5740   8.763   4.629   0.294
 1677W        W 5741   4.583   4.769  11.217
 1678W        W 5742   1.423   1.878  10.500
 1679W        W 5743   5.802   9.872   1.756
 1680W        W 5744   5.155   8.530  11.593
 1681W        W 5745   4.072   7.513   0.973
 1682W        W 5746   4.676   5.537   2.980
 1683W        W 5747   4.573   0.368   2.022
 1684W        W 5748   9.555   1.105   9.042
 1685W        W 5749  10.226   1.880  11.062
 1686W        W 5750   6.653   7.647   8.525
 1687W        W 5751   7.922   6.043   2.634
 1688W        W 5752   5.029   3.350   8.941
 1689W        W 5753   3.680   6.338  11.768
 1690W        W 5754   7.889   5.940  10.736
 1691W        W 5755   3.822   5.958   2.703
 1692W        W 5756   4.227   5.180  11.549
 1693W        W 5757   6.602   5.719   3.362
 1694W        W 5758   2.986   4.691   8.920
 1695W        W 5759   2.689   3.772   2.664
 1696W        W 5760   0.829   2.800   3.247
 1697W        W 5761   6.004   9.150   0.194
 1698W        W 5762   5.520   8.936   1.980
 1699W        W 5763   7.020   6.074  11.320
 1700W        W 5764   1.353   9.125  11.749
 1701W        W 5765   3.419   8.009   2.937
 1702W        W 5766   2.643   4.080   9.360
 1703W        W 5767   5.025   3.655   3.764
 1704W        W 5768   7.088   2.834  11.845
 1705W        W 5769   8.162   4.131   1.340
 1706W        W 5770   5.174   3.288  11.244
 1707W        W 5771   5.654   1.873   1.395
 1708W        W 5772   4.040   3.254   1.894
 1709W        W 5773   7.376   0.789   2.130
 1710W        W 5774   7.028   1.425  11.727
 1711W        W 5775   7.996   4.050   2.893
 1712W        W 5776   5.251   1.690   0.511
 1713W        W 5777   9.451   0.852   3.545
 1714W        W 5778   8.374   8.836   1.398
 1715W        W 5779  10.118   7.115  10.084
 1716W        W 5780   0.410   2.248  10.461
 1717W        W 5781   4.053   1.968   3.309
 1718W        W 5782   3.053   1.690   1.984
 1719W        W 5783   8.401   5.974  10.409
 1720W        W 5784   2.237   0.922   9.443
 1721W        W 5785   0.419   3.879  11.886
 1722W        W 5786  10.050   1.767   2.343
 1723W        W 5787   4.225   9.612  10.385
 1724W        W 5788   5.226   6.639   9.473
 1725W        W 5789   9.024   1.328   3.561
 1726W        W 5790   5.413   5.577   1.388
 1727W        W 5791   7.454   6.234   9.325
 1728W        W 5792   5.206   4.795   0.853
 1729W        W 5793   1.708   9.423  11.951
 1730W        W 5794   2.827   8.825   0.198
 1731W        W 5795   0.266   5.022   3.146
 1732W        W 5796   8.911   4.599   1.709
 1733W        W 5797   4.766  10.337   2.964
 1734W        W 5798   5.702   4.522  11.189
 1735W        W 5799   7.675  10.411  10.452
 1736W        W 5800   8.148   6.760  11.552
 1737W        W 5801   0.464   7.237   0.037
 1738W        W 5802   7.445   4.826   9.480
 1739W        W 5803   5.986   7.880  10.106
 1740W        W 5804   0.120   7.499  10.497
 1741W        W 5805   7.955   9.261   9.583
 1742W        W 5806   6.256   7.007  10.031
 1743W        W 5807   8.597   5.134   0.367
 1744W        W 5808   9.413   4.701   0.525
 1745W        W 5809   5.540   4.790   2.351
 1746W        W 5810   5.584   3.632  11.263
 1747W        W 5811   8.003   8.818   9.889
 1748W        W 5812   9.472   0.346   0.419
 1749W        W 5813   8.986   7.221   9.399
 1750W        W 5814   8.886   8.080   9.652
 1751W        W 5815   7.649   5.608  10.391
 1752W        W 5816   5.078   1.280   2.857
 1753W        W 5817   2.192   0.776   0.318
 1754W        W 5818   3.607   3.534   9.857
 1755W        W 5819  10.334   6.081   2.009
 1756W        W 5820   4.251   3.709   0.969
 1757W        W 5821   9.342   7.461   9.099
 1758W        W 5822   2.179   3.785   1.608
 1759W        W 5823   9.052   6.226  11.827
 1760W        W 5824   4.716   1.317   3.322
 1761W        W 5825  10.498   1.854   2.137
 1762W        W 5826   9.732   5.126  10.479
 1763W        W 5827   1.497   1.705  10.005
 1764W        W 5828   1.241   3.347   3.335
 1765W        W 5829   4.698   9.826   0.307
 1766W        W 5830  10.009   8.516   1.420
 1767W        W 5831   2.174   5.042  10.715
 1768W        W 5832   9.612   2.162   8.924
 1769W        W 5833   4.779   7.629  10.734
 1770W        W 5834   8.209   5.374  11.415
 1771W        W 5835   6.915   0.366   2.854
 1772W        W 5836   7.069   9.830   1.192
 1773W        W 5837   2.948   8.360  11.351
 1774W        W 5838   3.306   1.041   3.326
 1775W        W 5839   6.557   5.711   9.079
 1776W        W 5840   7.876   4.528   9.570
 1777W        W 5841   4.278   4.065   0.407
 1778W        W 5842   9.602   0.320   1.719
 1779W        W 5843   9.607   7.913   3.121
 1780W        W 5844   2.237   6.428   2.063
 1781W        W 5845   9.985   6.855  10.516
 1782W        W 5846   2.645   0.787   1.701
 1783W        W 5847   8.310   2.361   9.269
 1784W        W 5848  10.117   7.460  11.787
 1785W        W 5849   7.538   4.389   9.209
 1786W        W 5850   0.397   3.642   3.223
 1787W        W 5851   7.966   7.368   8.776
 1788W        W 5852   1.052   8.348   0.930
 1789W        W 5853   0.868   1.601   2.464
 1790W        W 5854   0.348   1.399   0.736
 1791W        W 5855   9.424   0.799   1.414
 1792W        W 5856   0.482   4.798  11.880
 1793W        W 5857   6.137   2.728   9.959
 1794W        W 5858   6.686   0.900   9.102
 1795W        W 5859   7.232   8.326   9.514
 1796W        W 5860   4.576   9.478  10.036
 1797W        W 5861   7.035   3.738   8.730
 1798W        W 5862   0.843   7.069   0.345
 1799W        W 5863   6.431   8.725   3.451
 1800W        W 5864   8.035  10.425   3.282
 1801W        W 5865   8.319   3.729  11.031
 1802W        W 5866  10.149   6.568   2.772
 1803W        W 5867   7.390   5.708  11.371
 1804W        W 5868   6.021   5.645  10.836
 1805W        W 5869   1.657   7.356   9.877
 1806W        W 5870   3.839   2.725   1.758
 1807W        W 5871   2.121   0.094   1.402
 1808W        W 5872   8.383   7.439   2.002
 1809W        W 5873   4.153   5.171   2.444
 1810W        W 5874   8.832   2.114  10.402
 1811W        W 5875   4.703   5.503   0.699
 1812W        W 5876   4.653   7.884   0.437
 1813W        W 5877   7.450   2.722  11.475
 1814W        W 5878   9.126   7.078  11.748
 1815W        W 5879  10.499   7.031   2.818
 1816W        W 5880   6.487   4.921   9.480
 1817W        W 5881   6.023   5.235  10.496
 1818W        W 5882   1.615   9.636  10.465
 1819W        W 5883   0.234   9.006  10.342
 1820W        W 5884   9.956   9.460   9.786
 1821W        W 5885   2.829   4.711  11.172
 1822W        W 5886   5.409   4.094  11.167
 1823W        W 5887  10.376   0.206   3.468
 1824W        W 5888   3.700   2.835   2.819
 1825W        W 5889   2.388   3.661  11.157
 1826W        W 5890   4.198   7.060   1.220
 1827W        W 5891   7.110   5.468   1.746
 1828W        W 5892   5.965   9.468   9.137
 1829W        W 5893   1.175   6.505   9.180
 1830W        W 5894   4.663   4.055   0.776
 1831W        W 5895  10.229   8.817  11.262
 1832W        W 5896   1.227   1.832   2.167
 1833W        W 5897  10.008   0.951   9.849
 1834W        W 5898   7.091   0.850   2.967
 1835W        W 5899   0.192   0.790   1.378
 1836W        W 5900   2.898   5.786   9.864
 1837W        W 5901   8.092   7.732   1.731
 1838W        W 5902   2.188   9.808   2.945
 1839W        W 5903   0.262   2.601  11.551
 1840W        W 5904   2.967   5.215  11.329
 1841W        W 5905   0.280   5.238  11.695
 1842W        W 5906   2.776   3.183   1.356
 1843W        W 5907   6.720   6.525   3.197
 1844W        W 5908   7.866   5.785   0.950
 1845W        W 5909   7.559   4.667  11.279
 1846W        W 5910   0.259   0.933  11.465
 1847W        W 5911   1.525   1.818   3.636
 1848W        W 5912   8.550   6.370   9.427
 1849W        W 5913   5.147   4.269   0.667
 1850W        W 5914   5.720  10.298   2.958
 1851W        W 5915   5.687   2.883   1.431
 1852W        W 5916   0.193  10.062  11.890
 1853W        W 5917   2.708   2.361   0.823
 1854W        W 5918   4.497   0.266  10.913
 1855W        W 5919   3.393   9.472   2.949
 1856W        W 5920   9.970   9.380  10.294
 1857W        W 5921   9.025   9.422   9.998
 1858W        W 5922   3.622   4.533  11.394
 1859W        W 5923   1.806   1.238   1.916
 1860W        W 5924   6.720   4.939   8.232
 1861W        W 5925   8.530   9.518   9.964
 1862W        W 5926   9.409   1.472   0.192
 1863W        W 5927   6.097   5.443   0.817
 1864W        W 5928   9.210   0.435   2.669
 1865W        W 5929   2.916   5.482  10.821
 1866W        W 5930   4.131   3.608  10.858
 1867W        W 5931   1.464  10.390   2.375
 1868W        W 5932   4.997   2.718  10.557
 1869W        W 5933   4.067   1.264   9.640
 1870W        W 5934   1.776   4.786  11.106
 1871W        W 5935   9.384  10.148   2.275
 1872W        W 5936   3.216   7.521   1.020
 1873W        W 5937   5.622   0.759  10.235
 1874W        W 5938   3.295   2.723   9.813
 1875W        W 5939   3.224   9.108   8.642
 1876W        W 5940   9.934   0.206  10.814
 1877W        W 5941   5.608   5.512   0.660
 1878W        W 5942   2.274   6.920  10.448
 1879W        W 5943   5.783   3.996  10.355
 1880W        W 5944   8.596  10.272  11.669
 1881W        W 5945   3.754   5.057  10.106
 1882W        W 5946   1.930   3.361   0.363
 1883W        W 5947   6.479   3.855   0.501
 1884W        W 5948   8.915   0.195  11.899
 1885W        W 5949   6.427   6.321   9.159
 1886W        W 5950   8.301   4.700   0.500
 1887W        W 5951   6.119   2.307   3.117
 1888W        W 5952   4.531   6.652  11.662
 1889W        W 5953   9.162   1.926  11.990
 1890W        W 5954   1.476   0.753  10.836
 1891W        W 5955   1.652   8.821   8.362
 1892W        W 5956   3.775   5.166   1.677
 1893W        W 5957   2.501   6.233   2.860
 1894W        W 5958  10.266   0.272   8.896
 1895W        W 5959  10.018   2.768  10.954
 1896W        W 5960   6.207   7.475   8.790
 1897W        W 5961   5.498   4.292   9.881
 1898W        W 5962   8.806   8.958  10.091
 1899W        W 5963   8.349   2.675  10.516
 1900W        W 5964   5.432   9.195   1.265
 1901W        W 5965   3.295   2.620  10.869
 1902W        W 5966   9.243   0.946   9.422
 1903W        W 5967   7.301   3.273   8.399
 1904W        W 5968   6.121   6.988   0.994
 1905W        W 5969   5.680   0.232  10.422
 1906W        W 5970   9.740   8.451   9.924
 1907W        W 5971   0.428   7.038   9.461
 1908W        W 5972   2.585   3.363   0.820
 1909W        W 5973   0.736   6.498   9.532
 1910W        W 5974   1.697   8.186   2.300
 1911W        W 5975   7.892   2.889  10.415
 1912W        W 5976   4.701   0.823   9.718
 1913W        W 5977   9.884   1.484   8.619
 1914W        W 5978   5.737   2.964  10.168
 1915W        W 5979   4.279   8.985   9.970
 1916W        W 5980   5.516   8.354   0.222
 1917W        W 5981   1.435   0.448   0.649
 1918W        W 5982   4.162   9.744   1.294
 1919W        W 5983   2.033   5.549  10.500
 1920W        W 5984   7.831   7.479   9.783
 1921W        W 5985   2.312   8.781  11.857
 1922W        W 5986   3.033   1.711   8.746
 1923W        W 5987   5.224   8.920   3.309
 1924W        W 5988   6.064   0.919  10.003
 1925W        W 5989   6.167   7.598   2.174
 1926W        W 5990   2.151   7.770   0.066
 1927W        W 5991   7.565   9.926   2.447
 1928W        W 5992   8.624   2.671   3.493
 1929W        W 5993  10.482   5.165   1.715
 1930W        W 5994   9.822   4.572   1.827
 1931W        W 5995   7.899   7.160  10.671
 1932W        W 5996   8.141   8.157   1.479
 1933W        W 5997   4.686   3.427  11.164
 1934W        W 5998   9.268   0.274   2.188
 1935W        W 5999   7.447   0.831  10.454
 1936W        W 6000   0.063   0.338   1.148
 1937W        W 6001   1.371   3.677  11.595
 1938W        W 6002   9.989   5.463   0.527
 1939W        W 6003  10.083   9.342   3.345
 1940W        W 6004   3.635   4.060  11.234
 1941W        W 6005   4.965   9.067   1.419
 1942W        W 6006   4.640   8.414  11.958
 1943W        W 6007   1.560   5.261  11.305
 1944W        W 6008   1.647   0.758   2.103
 1945W        W 6009   3.815   9.579   1.647
 1946W        W 6010   2.677   1.876   3.162
 1947W        W 6011   1.859   4.031   3.163
 1948W        W 6012   9.895   2.034   2.753
 1949W        W 6013   6.432   8.002   2.377
 1950W        W 6014   2.860   6.449  10.595
 1951W        W 6015   3.069   5.046   2.742
 1952W        W 6016   1.250   9.068  10.479
 1953W        W 6017   2.201   7.044   3.444
 1954W        W 6018   5.142   4.721   9.227
 1955W        W 6019   8.747   6.220   9.902
 1956W        W 6020   2.243   7.369   0.429
 1957W        W 6021   6.877   4.252   9.872
 1958W        W 6022   4.642   6.084  10.956
 1959W        W 6023   7.438   4.486   4.192
 1960W        W 6024   2.757   0.997  11.820
 1961W        W 6025   8.994   8.029  11.099
 1962W        W 6026   8.881   6.325   9.017
 1963W        W 6027   7.628   4.135  11.437
 1964W        W 6028   9.743   6.236   2.877
 1965W        W 6029   9.308   2.363  10.477
 1966W        W 6030   8.160   4.637   2.475
 1967W        W 6031   0.474   7.012   2.500
 1968W        W 6032  10.458   2.255  11.357
 1969W        W 6033   2.698   6.902   3.521
 1970W        W 6034   8.043   9.051   3.521
 1971W        W 6035   5.493   8.847   0.313
 1972W        W 6036   2.518   9.876  11.770
 1973W        W 6037   4.505   3.185   9.908
 1974W        W 6038   2.204  10.301   0.972
 1975W        W 6039   0.857   9.005  11.786
 1976W        W 6040   3.560   0.001   1.207
 1977W        W 6041   8.310   5.131   0.791
 1978W        W 6042   7.601   0.600   8.439
 1979W        W 6043   0.765   1.108   2.367
 1980W        W 6044   9.523   0.183  10.018
 1981W        W 6045   9.105   2.835   3.641
 1982W        W 6046   6.593   7.131  10.996
 1983W        W 6047   5.594   7.895   9.216
 1984W        W 6048   1.985   6.981   0.227
 1985W        W 6049   6.014   4.096   3.592
 1986W        W 6050   2.789  10.044   0.969
 1987W        W 6051   9.673   3.417   9.558
 1988W        W 6052   0.719   8.562   2.470
 1989W        W 6053   0.657   8.656   0.837
 1990W        W 6054   5.733   9.951   8.859
 1991W        W 6055   7.633   3.198  10.756
 1992W        W 6056   3.568   0.301   9.071
 1993W        W 6057   2.898   2.136  10.476
 1994W        W 6058   3.908   1.325   0.315
 1995W        W 6059   0.354   5.857  10.658
 1996W        W 6060   8.337   4.746  11.021
 1997W        W 6061   3.325   9.454  10.359
 1998W        W 6062   5.133   6.234   3.750
 1999W        W 6063   7.160   4.287  11.334
 2000W        W 6064   5.480   0.928   2.644
 2001W        W 6065   7.901   2.776   3.251
 2002W        W 6066   0.343   2.520   9.657
 2003W        W 6067  10.315   7.421   3.350
 2004W        W 6068   5.758   2.706   0.943
 2005W        W 6069   7.446   2.677  10.510
 2006W        W 6070   2.234   2.893   8.992
 2007W        W 6071   6.867   8.084   1.502
 2008W        W 6072   6.542   0.618   1.678
 2009W        W 6073   9.997   8.319   8.998
 2010W        W 6074   7.398   8.703   9.220
 2011W        W 6075   3.362   3.146   3.815
 2012W        W 6076   8.354   1.269   2.813
 2013W        W 6077   9.272   1.578   3.193
 2014W        W 6078   7.242   7.633   1.393
 2015W        W 6079   0.719   1.856   2.883
 2016W        W 6080   1.293   8.056   2.018
 2017W        W 6081   5.785   3.898   2.282
 2018W        W 6082   5.006   0.410   9.689
 2019W        W 6083  10.333   7.473   9.502
 2020W        W 6084   9.622  10.343   3.180
 2021W        W 6085   5.151   8.072   9.470
 2022W        W 6086   0.481   4.591  10.011
 2023W        W 6087   5.207   9.026  11.480
 2024W        W 6088   9.134   8.335  11.479
 2025W        W 6089   2.820   9.233   2.275
 2026W        W 6090   7.789   9.416   3.215
 2027W        W 6091  10.255   8.417  10.013
 2028W        W 6092   2.720   0.736   0.262
 2029W        W 6093   1.484   7.610   0.733
 2030W        W 6094   8.056   1.425  10.358
 2031W        W 6095   3.809   7.588  11.026
 2032W        W 6096   4.171   4.644   2.228
 2033W        W 6097   7.411   7.952   0.732
 2034W        W 6098   9.055   1.597  11.594
 2035W        W 6099   1.244   8.575   3.226
 2036W        W 6100   0.470   1.400  11.366
 2037W        W 6101   9.856   8.383  10.985
 2038W        W 6102   3.787   0.390   0.945
 2039W        W 6103   8.544   1.369   0.571
 2040W        W 6104   5.726   2.887   2.341
 2041W        W 6105   3.386   5.742   3.213
 2042W        W 6106   8.409   2.813   9.527
 2043W        W 6107   8.883   6.195   1.767
 2044W        W 6108   2.350   0.315   3.264
 2045W        W 6109   8.664   9.020   1.806
 2046W        W 6110   6.699   1.791   9.192
 2047W        W 6111   1.489   9.955   9.451
 2048W        W 6112   1.865   8.072  11.455
 2049W        W 6113   1.659   6.099   8.516
 2050W        W 6114   1.315   1.076   1.832
 2051W        W 6115  10.071   6.969  11.595
 2052W        W 6116   3.604   2.269   9.134
 2053W        W 6117   2.340   5.689   2.737
 2054W        W 6118   7.416   2.615   9.503
 2055W        W 6119   2.386   9.655  11.315
 2056W        W 6120   1.247   9.388  11.026
 2057W        W 6121  10.415   5.709  10.877
 2058W        W 6122   9.982   1.376  11.522
 2059W        W 6123   0.290   1.487   9.490
 2060W        W 6124  10.367   2.423   9.525
 2061W        W 6125   6.174   6.504   0.745
 2062W        W 6126   2.361   9.641  10.120
 2063W        W 6127   1.074   7.413  10.429
 2064W        W 6128   4.594   5.151   8.826
 2065W        W 6129   5.138   9.545   2.656
 2066W        W 6130   2.374   2.130   0.512
 2067W        W 6131   3.958   4.135   4.003
 2068W        W 6132   4.692   2.409   3.170
 2069W        W 6133   2.737   4.574   8.489
 2070W        W 6134   5.557   4.383   3.580
 2071W        W 6135   5.237   0.888  11.430
 2072W        W 6136   4.551   4.619   1.437
 2073W        W 6137   5.647   0.752   3.110
 2074W        W 6138   1.476   8.929   1.522
 2075W        W 6139   1.106   8.985  11.323
 2076W        W 6140   2.353   6.030   2.355
 2077W        W 6141   0.807   2.634   9.259
 2078W        W 6142   3.899   1.896  10.255
 2079W        W 6143   0.849   7.678   1.873
 2080W        W 6144   5.288   4.448  11.508
 2081W        W 6145   5.253  10.496  10.842
 2082W        W 6146   2.857   4.003   1.411
 2083W        W 6147   7.449   6.112  11.017
 2084W        W 6148   5.933   3.184   9.758
 2085W        W 6149   8.464   9.489   9.461
 2086W        W 6150   9.619  10.173  11.602
 2087W        W 6151   8.296   5.094  10.482
 2088W        W 6152   2.627   7.053   9.203
 2089W        W 6153   6.154   9.387   8.657
 2090W        W 6154   0.820   5.256   0.522
 2091W        W 6155  10.091   1.413   9.686
 2092W        W 6156   6.498   1.129   1.878
 2093W        W 6157   0.076   9.525   3.011
 2094W        W 6158   9.488   2.884  11.795
 2095W        W 6159   3.671   9.338  11.789
 2096W        W 6160   9.847   5.249   2.936
 2097W        W 6161   6.576   4.338   0.424
 2098W        W 6162   8.292  10.469  11.262
 2099W        W 6163   9.187   6.129   2.162
 2100W        W 6164   0.448   2.054   0.392
 2101W        W 6165   3.026   8.698  11.733
 2102W        W 6166   5.474   2.152   0.452
 2103W        W 6167   8.975   7.524  11.013
 2104W        W 6168   8.738   3.564  11.268
 2105W        W 6169   5.047   5.213   9.082
 2106W        W 6170   8.973   8.369  10.615
 2107W        W 6171   2.311   4.888   8.456
 2108W        W 6172   3.692   0.867   0.183
 2109W        W 6173   4.247   9.260   3.736
 2110W        W 6174   9.160   2.378   9.001
 2111W        W 6175   2.651   0.524   2.488
 2112W        W 6176   8.493   7.949  10.956
 2113W        W 6177   7.039   3.575   2.269
 2114W        W 6178   3.624  10.363   8.799
 2115W        W 6179   6.254   6.738  11.056
 2116W        W 6180   3.552   1.716   2.153
 2117W        W 6181   9.828   1.546  11.046
 2118W        W 6182   3.754   0.402   1.456
 2119W        W 6183  10.077  10.257   3.518
 2120W        W 6184   8.369   8.105   1.019
 2121W        W 6185   8.875   9.238  11.870
 2122W        W 6186   2.948   7.681   2.900
 2123W        W 6187   9.955   9.285  10.775
 2124W        W 6188   5.659   6.694   9.761
 2125W        W 6189   7.948   6.223  11.205
 2126W        W 6190   7.466   0.317   1.907
 2127W        W 6191   6.835   9.412  11.581
 2128W        W 6192   8.142   1.336   0.867
 2129W        W 6193   1.182   2.622  11.555
 2130W        W 6194   8.922   9.964   2.505
 2131W        W 6195   4.970   5.988  10.069
 2132W        W 6196   1.006   4.694   2.230
 2133W        W 6197   2.792   8.903  10.890
 2134W        W 6198   4.255   0.301   0.709
 2135W        W 6199  10.383   0.393  10.522
 2136W        W 6200   4.045   9.841   2.303
 2137W        W 6201   9.109   3.839  10.435
 2138W        W 6202   5.732   0.213   1.482
 2139W        W 6203   3.234   3.491   8.649
 2140W        W 6204   3.629   9.030   0.801
 2141W        W 6205   0.849   0.780   9.387
 2142W        W 6206   2.400   1.248   0.344
 2143W        W 6207   0.857   6.958   9.739
 2144W        W 6208   1.762   2.171   8.807
 2145W        W 6209   3.420   1.413  11.376
 2146W        W 6210   5.781   7.383   1.240
 2147W        W 6211   0.796   5.853   0.777
 2148W        W 6212   6.073   7.959   9.058
 2149W        W 6213   1.945  10.415  10.154
 2150W        W 6214   6.146   1.672   2.467
 2151W        W 6215   1.805   6.765   3.600
 2152W        W 6216   1.393   5.930  10.974
 2153W        W 6217   1.493   2.630   1.780
 2154W        W 6218   7.885   1.689   0.571
 2155W        W 6219   9.746   1.815   0.366
 2156W        W 6220   2.077   5.427   0.917
 2157W        W 6221   4.003   6.481   3.305
 2158W        W 6222   4.261   9.556   1.868
 2159W        W 6223   2.841   5.540  11.731
 2160W        W 6224   9.370   9.843   3.332
 2161W        W 6225   8.022   2.287   2.999
 2162W        W 6226   2.251   2.235   3.318
 2163W        W 6227   8.015  10.161   2.329
 2164W        W 6228   6.911  10.344  11.460
 2165W        W 6229   2.726   3.642   8.776
 2166W        W 6230   7.823   8.477  11.614
 2167W        W 6231   9.113  10.301  11.572
 2168W        W 6232   6.971   2.705   0.337
 2169W        W 6233   3.112   0.876   1.451
 2170W        W 6234   1.062   4.959   8.887
 2171W        W 6235   0.697  10.339   1.428
 2172W        W 6236   7.097   2.292   0.060
 2173W        W 6237   6.533   4.661   2.607
 2174W        W 6238   8.596   2.803  10.020
 2175W        W 6239   3.640   7.969  10.405
 2176W        W 6240   9.054   6.993   1.181
 2177W        W 6241   8.034   4.393   3.249
 2178W        W 6242   1.401   4.673  11.468
 2179W        W 6243   4.720   8.922  10.732
 2180W        W 6244   6.691   7.201  11.896
 2181W        W 6245   8.012   9.676   8.589
 2182W        W 6246   9.481   4.101   2.251
 2183W        W 6247   9.383   8.031  10.477
 2184W        W 6248   5.043   3.297  10.758
 2185W        W 6249   5.662   5.827  11.679
 2186W        W 6250   3.667   9.537   8.958
 2187W        W 6251   4.090  10.447   9.038
 2188W        W 6252   5.644   8.486   2.185
 2189W        W 6253   3.319   6.639  10.850
 2190W        W 6254   1.664   6.626   0.063
 2191W        W 6255   8.068   1.233  10.859
 2192W        W 6256   3.270   6.652  10.328
 2193W        W 6257   9.547   1.806   2.450
 2194W        W 6258   8.942   0.846   3.391
 2195W        W 6259   7.345   4.374  11.833
 2196W        W 6260   1.186   2.729  10.664
 2197W        W 6261   1.171   4.524   0.518
 2198W        W 6262   3.382   2.045   1.816
 2199W        W 6263   2.181   7.013  10.955
 2200W        W 6264   4.502   3.189   0.810
 2201W        W 6265   5.654   6.040   0.561
 2202W        W 6266   5.366   6.837   1.914
 2203W        W 6267   1.756   3.637   1.351
 2204W        W 6268   7.635   4.052   9.587
 2205W        W 6269   9.354   7.567   1.798
 2206W        W 6270   6.973   1.933  11.712
 2207W        W 6271   1.700   5.221  10.808
 2208W        W 6272   2.851   0.567   0.807
 2209W        W 6273   9.525   7.001   9.367
 2210W        W 6274   2.622   4.109   1.868
 2211W        W 6275   2.437   6.260  11.947
 2212W        W 6276   6.174   4.747   1.569
 2213W        W 6277   0.599   8.148   0.791
 2214W        W 6278   9.004   8.325   9.232
 2215W        W 6279   9.700   1.685   8.141
 2216W        W 6280   6.453   5.220   9.074
 2217W        W 6281   3.687   5.715  11.192
 2218W        W 6282   2.559   5.583  10.431
 2219W        W 6283   5.347   1.744  10.388
 2220W        W 6284   5.270   1.288   0.162
 2221W        W 6285   8.830   7.836   1.007
 2222W        W 6286   8.778   5.086  10.334
 2223W        W 6287   6.710   5.674   2.862
 2224W        W 6288   3.182   5.294   0.423
 2225W        W 6289   8.673   2.257   0.815
 2226W        W 6290   0.680   7.933  10.974
 2227W        W 6291   8.588   8.998   8.724
 2228W        W 6292   3.352   3.030   3.192
 2229W        W 6293   2.301   0.258   2.760
 2230W        W 6294   5.219   2.141   2.635
 2231W        W 6295   6.969   8.024   9.848
 2232W        W 6296   1.879   0.137   2.210
 2233W        W 6297   2.883   9.899  10.868
 2234W        W 6298   4.023   9.108  11.483
 2235W        W 6299   1.895   2.198   3.709
 2236W        W 6300   7.098   4.044   3.550
 2237W        W 6301   0.292   0.519   9.777
 2238W        W 6302   9.012   2.315   2.858
 2239W        W 6303   2.852   2.678   1.418
 2240W        W 6304   7.116   7.934   3.011
 2241W        W 6305   3.232   1.817   9.213
 2242W        W 6306   4.622   1.289   1.988
 2243W        W 6307   9.440   9.266   9.555
 2244W        W 6308   0.402   0.752   8.749
 2245W        W 6309  10.297   8.316  11.239
 2246W        W 6310   5.414   0.432   8.843
 2247W        W 6311   0.811  10.327  11.482
 2248W        W 6312   8.457   9.504   0.734
 2249W        W 6313   7.963   2.315   3.503
 2250W        W 6314   3.491   8.931  10.346
 2251W        W 6315   4.207   6.039   0.961
 2252W        W 6316   5.269  10.487   9.790
 2253W        W 6317   7.347   8.375   3.160
 2254W        W 6318   6.655   0.213   2.455
 2255W        W 6319   1.607   9.590   2.090
 2256W        W 6320   4.359   1.958  10.477
 2257W        W 6321   1.520   4.691   2.259
 2258W        W 6322   3.156   9.468   9.007
 2259W        W 6323   8.954   1.118  11.369
 2260W        W 6324   3.078   2.205  11.750
 2261W        W 6325   3.385   8.346   9.361
 2262W        W 6326   1.389   7.554   9.484
 2263W        W 6327   0.930   7.388  11.912
 2264W        W 6328   5.151   9.062   2.822
 2265W        W 6329   6.942   6.950   1.847
 2266W        W 6330   1.874   2.136  10.358
 2267W        W 6331   8.989   0.508   0.314
 2268W        W 6332   7.630   6.892   9.764
 2269W        W 6333   6.674   1.143   0.007
 2270W        W 6334   1.412   5.132  11.799
 2271W        W 6335   4.572   9.300  11.054
 2272W        W 6336   4.636   9.389   3.432
 2273W        W 6337   3.364   7.878  11.528
 2274W        W 6338   1.041  10.469  11.930
 2275W        W 6339   8.909   1.534   0.269
 2276W        W 6340   3.627   5.551   1.967
 2277W        W 6341   6.189   1.863  10.465
 2278W        W 6342   3.045   6.918   3.134
 2279W        W 6343   1.077   1.896   1.393
 2280W        W 6344   7.341   9.681  11.043
 2281W        W 6345   8.172   9.439   2.866
 2282W        W 6346   3.287   4.265   8.796
 2283W        W 6347   2.285   9.091  11.443
 2284W        W 6348   1.543   6.191   2.904
 2285W        W 6349   8.185   2.562  10.995
 2286W        W 6350   5.656   2.047  11.991
 2287W        W 6351   1.563   1.779   1.262
 2288W        W 6352   0.421   7.115  10.642
 2289W        W 6353   0.449   2.131  11.459
 2290W        W 6354   1.336   4.097   8.816
 2291W        W 6355   1.949   7.012   0.965
 2292W        W 6356   0.954   0.267   0.637
 2293W        W 6357   3.706   2.205   3.035
 2294W        W 6358   8.977   4.158   0.431
 2295W        W 6359   2.375   8.604   0.333
 2296W        W 6360   1.771   4.248  10.985
 2297W        W 6361   1.912   8.403   8.550
 2298W        W 6362   4.251   7.054   0.186
 2299W        W 6363   9.210   7.467   2.309
 2300W        W 6364   0.670   3.941   2.917
 2301W        W 6365   2.148   7.975   9.690
 2302W        W 6366   7.127   6.679   4.090
 2303W        W 6367   9.435   6.171   0.707
 2304W        W 6368   7.688   9.715   0.854
 2305W        W 6369   1.067   9.444   2.788
 2306W        W 6370   6.874   1.307   2.192
 2307W        W 6371   2.293   4.816   3.238
 2308W        W 6372   3.807   8.453   1.403
 2309W        W 6373   8.895   8.366   0.952
 2310W        W 6374   3.986   6.705   1.976
 2311W        W 6375   9.200   3.599   8.907
 2312W        W 6376   5.539   9.874   2.183
 2313W        W 6377   0.476   6.140  11.663
 2314W        W 6378   8.806   6.668   0.559
 2315W        W 6379   6.129   1.856  11.543
 2316W        W 6380  10.453   1.341   1.966
 2317W        W 6381   9.844   1.728   9.998
 2318W        W 6382   9.989   1.175   0.002
 2319W        W 6383   8.987   1.977   1.632
 2320W        W 6384   7.984   2.715   1.711
 2321W        W 6385   1.588   5.360   0.224
 2322W        W 6386   0.864   8.048  10.528
 2323W        W 6387   6.674   7.982   0.251
 2324W        W 6388   5.477   5.213   2.679
 2325W        W 6389  10.481   8.475   2.640
 2326W        W 6390  10.023   2.623   3.323
 2327W        W 6391   3.181   3.533   1.764
 2328W        W 6392   9.844   3.244  11.836
 2329W        W 6393   7.192   3.036   9.304
 2330W        W 6394   1.377   0.497   8.589
 2331W        W 6395   3.459   4.166  10.767
 2332W        W 6396   7.655   5.987   8.333
 2333W        W 6397   4.826   2.793   0.928
 2334W        W 6398   1.724   5.849   9.720
 2335W        W 6399   7.370   6.039   1.789
 2336W        W 6400   4.129   8.844   2.374
 2337W        W 6401   4.546   3.644  10.130
 2338W        W 6402   0.735   1.651   0.496
 2339W        W 6403   1.590   6.470   1.858
 2340W        W 6404   4.330   0.992  11.405
 2341W        W 6405   6.991   7.609  10.135
 2342W        W 6406   1.684   0.056   0.364
 2343W        W 6407   4.398   2.642  11.058
 2344W        W 6408   4.233   3.399  11.411
 2345W        W 6409   3.542   1.729   0.873
 2346W        W 6410   6.452   0.208   1.985
 2347W        W 6411   5.133   4.071   8.117
 2348W        W 6412   3.192   4.631  10.043
 2349W        W 6413   1.448   0.757  11.878
 2350W        W 6414   8.956   8.458  10.097
 2351W        W 6415   8.967   7.932   1.540
 2352W        W 6416   2.911   0.274   0.400
 2353W        W 6417   9.966   8.777  11.938
 2354W        W 6418   2.226   6.044  10.991
 2355W        W 6419   3.627   2.599   0.746
 2356W        W 6420  10.160   8.705  10.746
 2357W        W 6421   1.861   7.428  11.128
 2358W        W 6422   0.276   0.261   8.862
 2359W        W 6423   7.459   7.540  11.442
 2360W        W 6424   8.542   6.564  11.785
 2361W        W 6425   9.633   6.627   0.893
 2362W        W 6426   7.234   3.181   1.016
 2363W        W 6427   7.708   9.090   9.075
 2364W        W 6428   8.917   7.855  10.618
 2365W        W 6429   3.344   6.983   8.538
 2366W        W 6430   6.672   1.698  10.260
 2367W        W 6431   3.294   7.888   0.683
 2368W        W 6432   4.567   9.858   3.179
 2369W        W 6433   9.713  10.242   9.819
 2370W        W 6434   9.864   5.442  11.524
 2371W        W 6435   7.956  10.169   0.820
 2372W        W 6436   6.624   8.752   3.000
 2373W        W 6437   0.417   1.433   2.695
 2374W        W 6438   0.136   6.739  10.884
 2375W        W 6439   7.601   5.546   1.713
 2376W        W 6440   6.684   1.690   9.731
 2377W        W 6441   6.403   5.727   1.616
 2378W        W 6442   3.376   9.768  11.628
 2379W        W 6443   4.769   1.246  11.887
 2380W        W 6444   1.169   6.076   3.242
 2381W        W 6445   6.280   3.660   0.942
 2382W        W 6446   8.138   3.072  10.825
 2383W        W 6447   7.161   5.472   2.806
 2384W        W 6448   5.678  10.274   2.456
 2385W        W 6449   1.385   6.568  10.200
 2386W        W 6450   8.130   7.522  10.330
 2387W        W 6451   8.013   2.276   2.483
 2388W        W 6452   7.061   3.355  11.586
 2389W        W 6453   2.736   8.841  10.053
 2390W        W 6454  10.074   0.157   1.607
 2391W        W 6455   1.845   6.471   3.198
 2392W        W 6456   1.667   9.218  10.764
 2393W        W 6457   2.711   4.449   0.043
 2394W        W 6458   4.491   6.621   2.701
 2395W        W 6459   1.400   7.215   1.509
 2396W        W 6460   2.247   6.021  10.456
 2397W        W 6461   7.413   4.546   1.315
 2398W        W 6462   4.703   9.353   0.064
 2399W        W 6463   8.767   5.201   3.247
 2400W        W 6464   9.806   6.963   0.551
 2401W        W 6465   4.857   5.017   1.213
 2402W        W 6466   3.226   6.355   8.336
 2403W        W 6467   2.593   3.875  11.933
 2404W        W 6468   7.494   7.513   1.867
 2405W        W 6469   6.940   0.875   1.903
 2406W        W 6470   9.472   1.503   0.708
 2407W        W 6471   7.516   5.464   1.211
 2408W        W 6472   5.035   9.654   2.166
 2409W        W 6473   2.004   2.860   9.449
 2410W        W 6474   6.912   5.599  11.522
 2411W        W 6475   9.816   5.613   0.047
 2412W        W 6476   4.246   8.389   9.146
 2413W        W 6477   2.364   2.279   2.801
 2414W        W 6478   7.000   4.187   0.180
 2415W        W 6479   0.360   7.539   3.382
 2416W        W 6480   7.019   9.863  11.777
 2417W        W 6481   5.114   5.391  11.508
 2418W        W 6482   3.794   6.473   9.623
 2419W        W 6483   2.939   9.871   9.468
 2420W        W 6484   7.946   3.330  11.628
 2421W        W 6485   3.543   4.317   9.505
 2422W        W 6486   0.801   1.153   0.965
 2423W        W 6487   7.044   5.813   4.113
 2424W        W 6488   3.812   9.872   8.591
 2425W        W 6489   4.197   7.951   0.679
 2426W        W 6490   9.088   2.373   0.561
 2427W        W 6491   8.467   2.844   1.553
 2428W        W 6492   9.388   4.589   2.095
 2429W        W 6493   8.195   1.025   1.848
 2430W        W 6494   2.968   9.236   3.145
 2431W        W 6495   5.006   0.348   3.086
 2432W        W 6496   8.533   7.993   1.855
 2433W        W 6497   8.120   6.624   9.514
 2434W        W 6498   5.197   4.638  10.522
 2435W        W 6499   6.040  10.215   9.200
 2436W        W 6500   8.332   1.705   0.262
 2437W        W 6501   1.936   7.377   1.805
 2438W        W 6502   3.235   9.399   0.568
 2439W        W 6503   3.960   1.033   3.512
 2440W        W 6504   9.971   1.364   9.169
 2441W        W 6505   5.902   4.102  11.428
 2442W        W 6506   8.062   5.630   1.886
 2443W        W 6507   7.486   8.196   2.710
 2444W        W 6508  10.304   7.980   2.653
 2445W        W 6509  10.142   6.748   0.903
 2446W        W 6510   5.722  10.286  10.678
 2447W        W 6511   5.655   0.727  11.697
 2448W        W 6512   4.221  10.320  10.856
 2449W        W 6513   3.724   6.927   2.412
 2450W        W 6514   7.046   9.938   3.656
 2451W        W 6515   3.281   3.810  11.506
 2452W        W 6516   1.197   5.651  11.385
 2453W        W 6517   2.114   3.178   0.787
 2454W        W 6518  10.484   7.004  10.412
 2455W        W 6519   4.016   2.261   9.902
 2456W        W 6520   5.924   2.665   9.501
 2457W        W 6521   3.577   6.554  11.320
 2458W        W 6522   4.728   3.185   9.362
 2459W        W 6523   3.848   2.396   2.580
 2460W        W 6524   6.392   6.674   3.681
 2461W        W 6525   0.174   6.587   2.624
 2462W        W 6526   8.619   6.514   3.446
 2463W        W 6527   4.580   8.032   9.462
 2464W        W 6528   3.660   1.366  11.845
 2465W        W 6529   5.687   7.915   8.704
 2466W        W 6530   0.837   5.040   1.256
 2467W        W 6531   0.971   3.300  10.926
 2468W        W 6532   6.525   4.366   1.390
 2469W        W 6533   6.985   2.014  10.974
 2470W        W 6534   7.611   6.680  10.350
 2471W        W 6535   4.114   9.598   9.242
 2472W        W 6536   5.030   7.758   1.614
 2473W        W 6537   1.133   8.949   3.551
 2474W        W 6538   4.074   3.123   1.048
 2475W        W 6539   1.364   1.443   3.309
 2476W        W 6540   3.832   9.836   9.613
 2477W        W 6541   3.276   1.346   1.685
 2478W        W 6542   8.450  10.256   0.247
 2479W        W 6543   3.273   8.937   2.868
 2480W        W 6544   8.026   8.193   1.997
 2481W        W 6545   0.750   9.031  10.362
 2482W        W 6546   7.325   2.853   3.416
 2483W        W 6547   9.239  10.369   0.512
 2484W        W 6548   5.956   0.326   1.920
 2485W        W 6549   7.172   4.179   1.595
 2486W        W 6550   6.157   9.086   3.221
 2487W        W 6551   8.674   3.600   9.004
 2488W        W 6552  10.469   5.316   0.383
 2489W        W 6553   8.944   2.499   1.519
 2490W        W 6554   6.495   1.940   8.692
 2491W        W 6555   6.174   7.811   3.164
 2492W        W 6556  10.000   9.228   0.839
 2493W        W 6557  10.465   8.001  10.243
 2494W        W 6558   7.969   7.304   0.812
 2495W        W 6559   3.279   9.963   8.867
 2496W        W 6560   5.986   9.112   9.534
 2497W        W 6561   8.826   0.434   3.076
 2498W        W 6562   4.438   7.042   8.461
 2499W        W 6563   1.180   8.516   2.266
 2500W        W 6564   8.627   7.064  11.801
 2501W        W 6565   5.231   8.685   1.152
 2502W        W 6566   3.644   3.828   3.128
 2503W        W 6567   6.040   1.213   1.688
 2504W        W 6568  10.383   5.693   3.268
 2505W        W 6569   3.283   0.249   2.126
 2506W        W 6570  10.405   5.752   0.695
 2507W        W 6571   9.500   2.670   3.378
 2508W        W 6572  10.069   3.035   0.371
 2509W        W 6573   1.702   7.054   3.212
 2510W        W 6574   3.624   6.731   0.684
 2511W        W 6575   8.161   7.091   9.716
 2512W        W 6576   4.215   7.030   2.346
 2513W        W 6577   5.632   8.912   9.171
 2514W        W 6578   9.306   3.329   1.424
 2515W        W 6579   8.829   7.139   2.197
 2516W        W 6580   3.525   7.502   0.024
 2517W        W 6581   2.787   6.458   1.357
 2518W        W 6582   3.060   3.150   0.903
 2519W        W 6583   8.590   3.307   0.632
 2520W        W 6584   7.480   1.375   9.160
 2521W        W 6585   0.492   9.426  10.571
 2522W        W 6586   7.371   6.741   1.536
 2523W        W 6587   5.337   3.932   4.353
 2524W        W 6588   1.268   9.414   1.756
 2525W        W 6589   8.029   3.796   9.813
 2526W        W 6590   8.182   7.060   9.154
 2527W        W 6591   1.270   0.487   9.483
 2528W        W 6592   5.593   3.178   1.013
 2529W        W 6593   1.681   2.197   0.945
 2530W        W 6594   8.447   0.222   3.469
 2531W        W 6595   2.857   8.356   1.232
 2532W        W 6596   5.279   9.875   8.578
 2533W        W 6597   0.763   6.123  10.378
 2534W        W 6598   6.685   0.135   3.362
 2535W        W 6599   2.316   6.252   1.257
 2536W        W 6600   8.460   2.185   3.302
 2537W        W 6601   2.244   0.437  10.726
 2538W        W 6602   3.146   2.753   2.837
 2539W        W 6603   0.353   0.195   2.004
 2540W        W 6604   7.477   7.703  10.059
 2541W        W 6605   6.993   8.417   9.065
 2542W        W 6606   7.325   9.587   3.382
 2543W        W 6607   2.381   0.798  10.393
 2544W        W 6608   4.692   8.372   1.936
 2545W        W 6609   5.563   8.125  11.768
 2546W        W 6610   0.197   3.616  11.497
 2547W        W 6611   8.886   9.126  11.083
 2548W        W 6612  10.372   6.508  10.522
 2549W        W 6613   0.316   2.828   8.815
 2550W        W 6614   0.025   1.657   9.892
 2551W        W 6615   1.416  10.038  11.231
 2552W        W 6616   4.501   5.135   1.554
 2553W        W 6617   6.137   2.551   2.164
 2554W        W 6618   3.249   0.904  11.936
 2555W        W 6619   2.152   6.629   9.866
 2556W        W 6620   8.069   4.126   1.836
 2557W        W 6621   7.989   8.150   2.536
 2558W        W 6622   7.066   8.577  10.504
 2559W        W 6623   7.607   2.298   1.690
 2560W        W 6624   9.306   4.051   2.737
 2561W        W 6625   9.967   4.226   0.959
 2562W        W 6626   7.468   9.452   0.434
 2563W        W 6627   9.050   0.779   0.778
 2564W        W 6628   3.082   5.613  10.339
 2565W        W 6629   6.433   5.443   8.619
 2566W        W 6630   5.681   3.025  11.951
 2567W        W 6631   4.261   0.794   1.398
 2568W        W 6632   2.766   9.280  11.267
 2569W        W 6633   3.610   2.734  11.261
 2570W        W 6634   7.174   9.360   0.937
 2571W        W 6635   5.688   1.874   9.967
 2572W        W 6636   3.678   2.133   0.554
 2573W        W 6637   0.005   5.181   9.065
 2574W        W 6638   4.661   9.813  11.270
 2575W        W 6639  10.116   4.981   1.988
 2576W        W 6640   7.462   9.290   1.769
 2577W        W 6641   4.279   7.593  10.787
 2578W        W 6642   3.182   4.586  11.918
 2579W        W 6643  10.214   4.971  10.505
 2580W        W 6644   5.597   5.531  11.242
 2581W        W 6645   0.490   4.636   2.897
 2582W        W 6646   8.123   3.880   0.330
 2583W        W 6647   2.424   8.496   2.511
 2584W        W 6648   1.300   4.186   9.322
 2585W        W 6649   7.965   0.796  11.371
 2586W        W 6650   3.364   0.878   1.909
 2587W        W 6651   5.658   5.004   0.707
 2588W        W 6652   1.964   1.616   1.562
 2589W        W 6653   4.073   5.755   9.180
 2590W        W 6654   6.533   8.434   1.251
 2591W        W 6655   3.664   6.698   8.852
 2592W        W 6656   1.792   1.051   0.168
 2593W        W 6657   5.125   7.364   3.034
 2594W        W 6658   6.135   8.648   2.916
 2595W        W 6659   1.378   5.898   0.259
 2596W        W 6660   3.059   6.512  11.354
 2597W        W 6661   0.873   9.303   8.980
 2598W        W 6662   3.124   9.954  10.256
 2599W        W 6663   2.518   7.200   1.914
 2600W        W 6664   0.403   7.743  10.144
 2601W        W 6665   7.263   3.646   0.776
 2602W        W 6666   2.936   1.719   1.457
 2603W        W 6667   1.951   3.073   3.197
 2604W        W 6668   3.734   1.877  10.757
 2605W        W 6669   9.375   2.881  10.368
 2606W        W 6670   0.856   1.385   1.451
 2607W        W 6671   1.299   3.475   2.012
 2608W        W 6672   3.072   8.809   2.418
 2609W        W 6673  10.284   9.842  10.311
 2610W        W 6674   3.771  10.447  11.722
 2611W        W 6675   1.411   5.201   9.170
 2612W        W 6676   1.318   8.299   0.062
 2613W        W 6677   6.089   4.773  10.172
 2614W        W 6678   1.357   2.320   3.554
 2615W        W 6679   3.549   5.032   3.674
 2616W        W 6680   3.987   5.727   0.163
 2617W        W 6681   6.690   3.663  10.508
 2618W        W 6682   8.461   1.868   9.891
 2619W        W 6683   2.722   6.721   2.750
 2620W        W 6684   4.257   9.869   0.706
 2621W        W 6685   8.194   6.502   1.289
 2622W        W 6686   8.950   0.064   9.526
 2623W        W 6687   5.067   9.403  10.233
 2624W        W 6688   6.509  10.304  11.097
 2625W        W 6689   7.205   7.259  11.791
 2626W        W 6690   6.592   1.248  11.019
 2627W        W 6691   2.028   1.849  11.226
 2628W        W 6692   9.563   5.510  10.776
 2629W        W 6693   0.499   4.664   2.362
 2630W        W 6694   9.409   4.735   1.562
 2631W        W 6695   8.491   4.291   8.996
 2632W        W 6696   8.330   8.795  10.433
 2633W        W 6697   6.735   8.418   9.631
 2634W        W 6698   6.453   8.060   9.416
 2635W        W 6699   2.251   3.400  11.969
 2636W        W 6700   6.465   7.905   9.915
 2637W        W 6701   0.686   5.407   2.822
 2638W        W 6702   2.769   0.750   8.588
 2639W        W 6703   8.602   0.486  10.802
 2640W        W 6704   7.498   6.214  11.510
 2641W        W 6705   1.969   0.827  10.929
 2642W        W 6706   6.071   9.958   3.301
 2643W        W 6707   8.921  10.404   2.207
 2644W        W 6708   6.425   5.512  11.660
 2645W        W 6709   7.053   4.442   9.413
 2646W        W 6710   8.604   5.909   0.457
 2647W        W 6711   5.806   9.921   0.884
 2648W        W 6712   2.024   3.888   2.677
 2649W        W 6713   7.389   2.247  11.238
 2650W        W 6714   5.686   7.840   1.892
 2651W        W 6715  10.295   0.690   8.615
 2652W        W 6716   1.437   8.473   8.694
 2653W        W 6717   9.830   3.854   0.650
 2654W        W 6718   0.876   2.211  11.731
 2655W        W 6719   9.731   0.269  11.741
 2656W        W 6720   2.166   0.856   3.361
 2657W        W 6721   4.854   6.875   1.873
 2658W        W 6722   0.266  10.376   0.321
 2659W        W 6723   1.629   0.742   9.978
 2660W        W 6724   9.239   2.724   0.207
 2661W        W 6725   8.887   0.645   2.111
 2662W        W 6726   4.431   6.582   8.184
 2663W        W 6727   4.035   2.904   9.067
 2664W        W 6728   8.566   3.357  10.769
 2665W        W 6729   9.981   3.536  10.526
 2666W        W 6730   8.923   4.559   9.162
 2667W        W 6731   0.489   9.056   1.671
 2668W        W 6732   5.142   0.417   0.199
 2669W        W 6733   8.206   8.019   8.638
 2670W        W 6734   4.417   1.652   3.615
 2671W        W 6735   7.699   0.317   9.387
 2672W        W 6736   8.923   4.714   3.133
 2673W        W 6737   3.821   5.364  11.864
 2674W        W 6738   2.858   2.120   1.770
 2675W        W 6739   7.547  10.428   9.004
 2676W        W 6740   2.540  10.174   9.343
 2677W        W 6741   7.826   5.303   0.797
 2678W        W 6742   6.548   7.718  11.825
 2679W        W 6743   3.094   4.302   9.273
 2680W        W 6744   4.785   7.346   0.377
 2681W        W 6745   7.918   8.022  11.803
 2682W        W 6746   3.803   3.321  10.541
 2683W        W 6747   2.202   5.703   9.059
 2684W        W 6748   0.014   6.103  11.880
 2685W        W 6749  10.203   0.301   2.572
 2686W        W 6750   3.217   9.099   9.952
 2687W        W 6751   9.439   4.741   1.035
 2688W        W 6752   6.007   1.237   2.211
 2689W        W 6753   8.721   6.670   8.658
 2690W        W 6754   2.850   2.875  10.813
 2691W        W 6755   5.090   8.131  11.910
 2692W        W 6756   9.307   2.871   0.679
 2693W        W 6757   1.372   4.177   1.447
 2694W        W 6758   7.432   9.511  10.287
 2695W        W 6759   4.078   0.589  10.359
 2696W        W 6760   4.252   1.912   8.914
 2697W        W 6761   8.957   5.611   2.961
 2698W        W 6762   4.506   2.840  10.585
 2699W        W 6763   2.816   4.577   2.011
 2700W        W 6764   7.654   8.489  11.143
 2701W        W 6765  10.277   2.357   1.978
 2702W        W 6766  10.261  10.399   0.336
 2703W        W 6767  10.168   2.676  11.514
 2704W        W 6768   7.856   2.260   9.037
 2705W        W 6769   8.103   0.906  11.899
 2706W        W 6770   4.074   5.116   2.931
 2707W        W 6771   3.275   4.661   8.460
 2708W        W 6772   8.507  10.225  10.426
 2709W        W 6773   8.131   5.691   9.792
 2710W        W 6774   3.204   3.955   3.460
 2711W        W 6775   9.521   6.229   1.231
 2712W        W 6776   5.005   1.256   9.716
 2713W        W 6777   3.057   8.324   3.171
 2714W        W 6778   0.399  10.014  11.399
 2715W        W 6779   0.703   4.793   9.244
 2716W        W 6780   1.788   4.698   3.040
 2717W        W 6781   8.338  10.110   3.570
 2718W        W 6782   2.440   8.225  11.273
 2719W        W 6783   7.130  10.464   1.758
 2720W        W 6784   2.870   1.855  11.004
 2721W        W 6785   1.168   5.094   0.876
 2722W        W 6786   6.397   5.276  10.830
 2723W        W 6787   5.660   6.531   2.220
 2724W        W 6788   4.540   1.472  10.443
 2725W        W 6789   2.438   1.194   2.615
 2726W        W 6790   4.142   7.403   9.912
 2727W        W 6791   5.453   1.308   8.937
 2728W        W 6792   3.710   5.989   2.215
 2729W        W 6793   6.127   0.789   1.960
 2730W        W 6794   0.280   6.340   9.753
 2731W        W 6795   6.189   8.516  11.410
 2732W        W 6796  10.320   8.975   1.173
 2733W        W 6797   4.188   2.503   3.464
 2734W        W 6798   7.645   1.180  10.094
 2735W        W 6799  10.182   2.622   0.685
 2736W        W 6800   3.659   6.516   1.176
 2737W        W 6801   6.245   6.934   2.831
 2738W        W 6802   9.015   1.296   0.754
 2739W        W 6803   9.099   7.928   2.047
 2740W        W 6804   2.781   8.997   1.675
 2741W        W 6805   2.640   1.483  11.825
 2742W        W 6806   0.310   9.462   2.001
 2743W        W 6807   1.310   6.857   0.440
 2744W        W 6808   4.782   2.121   3.602
 2745W        W 6809  10.226   3.065   1.212
 2746W        W 6810   5.504   3.793   9.973
 2747W        W 6811   7.817   4.220  10.042
 2748W        W 6812   4.867   1.682  11.468
 2749W        W 6813   6.463  10.333   0.397
 2750W        W 6814   2.528   1.888   0.972
 2751W        W 6815   7.005   7.880   8.836
 2752W        W 6816   0.311  10.203  10.946
 2753W        W 6817  10.449   6.106   9.390
 2754W        W 6818   3.778   7.928  11.871
 2755W        W 6819   1.207   0.894   0.822
 2756W        W 6820   5.238   1.351   3.390
 2757W        W 6821   2.291   5.239   1.404
 2758W        W 6822   2.737   5.002   1.335
 2759W        W 6823   0.785   9.567   9.406
 2760W        W 6824   3.439   4.487   4.349
 2761W        W 6825   4.051   9.304  10.968
 2762W        W 6826   3.038   7.130  10.875
 2763W        W 6827   0.887   2.062   3.638
 2764W        W 6828   9.613   5.122   9.574
 2765W        W 6829   8.612   3.783   0.386
 2766W        W 6830   0.413  10.481   9.272
 2767W        W 6831   4.552   5.690  10.045
 2768W        W 6832   3.123  10.441   8.685
 2769W        W 6833   7.101   8.807   3.205
 2770W        W 6834   7.898   2.793   9.500
 2771W        W 6835   9.330   9.059  11.700
 2772W        W 6836   5.607   0.927   9.729
 2773W        W 6837   8.277   4.193  11.763
 2774W        W 6838   8.822   5.531   9.142
 2775W        W 6839   5.060   3.453   4.244
 2776W        W 6840   4.391   4.299  11.330
 2777W        W 6841   9.498   5.932  11.801
 2778W        W 6842   2.752   4.383   9.777
 2779W        W 6843   2.166   6.050   3.223
 2780W        W 6844   5.153   1.078   1.410
 2781W        W 6845   7.773  10.389   9.858
 2782W        W 6846   4.673   2.223   8.851
 2783W        W 6847   0.408   0.021   9.791
 2784W        W 6848   8.484   0.771   2.768
 2785W        W 6849   6.531   7.404  11.422
 2786W        W 6850   4.379   8.775  11.642
 2787W        W 6851   3.795   9.932   0.948
 2788W        W 6852   8.416   2.638   2.011
 2789W        W 6853   9.565   8.660   1.607
 2790W        W 6854   2.088   9.406  10.512
 2791W        W 6855   0.038   4.538   2.588
 2792W        W 6856   8.424   4.722   3.269
 2793W        W 6857   8.506   9.640   8.486
 2794W        W 6858   2.663   7.848  10.835
 2795W        W 6859   4.427   1.992   1.002
 2796W        W 6860   6.043   7.678   2.687
 2797W        W 6861   1.703   6.349   9.864
 2798W        W 6862   7.981   0.349   1.099
 2799W        W 6863   1.831   0.483   1.220
 2800W        W 6864   8.044   1.419   9.851
 2801W        W 6865   7.430   2.648  10.008
 2802W        W 6866   8.884   3.987   2.460
 2803W        W 6867   3.170   0.244   3.202
 2804W        W 6868   9.956   5.661  11.057
 2805W        W 6869   2.877   5.653   3.464
 2806W        W 6870   8.791   4.223   9.991
 2807W        W 6871   9.893   7.085  11.130
 2808W        W 6872   8.388   5.830   2.666
 2809W        W 6873   8.369   3.548   2.341
 2810W        W 6874   4.597   2.767   9.617
 2811W        W 6875   4.499   6.149   9.845
 2812W        W 6876   0.393   9.787   0.767
 2813W        W 6877   0.501   4.616  11.048
 2814W        W 6878   1.725   4.619   1.480
 2815W        W 6879   5.272   8.404   9.877
 2816W        W 6880   5.511   4.639   1.742
 2817W        W 6881   0.991   4.455   9.013
 2818W        W 6882   2.751   8.557   8.834
 2819W        W 6883   0.983   0.989  10.717
 2820W        W 6884   0.335   7.511   9.677
 2821W        W 6885   4.760   4.632   2.998
 2822W        W 6886   5.105   5.904   1.833
 2823W        W 6887   8.424   4.242  10.333
 2824W        W 6888   6.979   9.399   1.965
 2825W        W 6889   2.261   6.484   3.506
 2826W        W 6890   5.243   1.401  11.180
 2827W        W 6891   7.415   4.198   0.490
 2828W        W 6892   0.326   8.855   2.673
 2829W        W 6893   2.434   0.272   1.026
 2830W        W 6894   7.893   1.363   2.599
 2831W        W 6895   8.201   6.005   2.214
 2832W        W 6896  10.221   8.892  10.284
 2833W        W 6897   1.369   8.816  10.907
 2834W        W 6898   4.251   1.245  10.971
 2835W        W 6899   1.882   8.443   1.206
 2836W        W 6900   3.915   8.798   9.481
 2837W        W 6901   5.224   2.367   3.698
 2838W        W 6902   0.835   9.020   1.148
 2839W        W 6903   7.401   1.812   1.868
 2840W        W 6904   7.583   9.509   8.809
 2841W        W 6905   5.975   0.470   8.631
 2842W        W 6906   8.032   3.829  11.472
 2843W        W 6907   1.319   4.463  10.965
 2844W        W 6908   0.424   4.972   0.687
 2845W        W 6909   8.900   5.801   0.065
 2846W        W 6910   6.989   1.327   8.985
 2847W        W 6911   7.795   9.862  11.175
 2848W        W 6912   6.869   8.570   0.411
 2849W        W 6913   5.162   0.834   9.969
 2850W        W 6914   5.598   5.018  10.341
 2851W        W 6915   3.577   8.584   9.990
 2852W        W 6916   8.785  10.365   1.689
 2853W        W 6917   2.568   3.571   0.328
 2854W        W 6918   8.462   1.447   9.560
 2855W        W 6919   5.028   5.692  10.907
 2856W        W 6920   8.583   9.091   1.013
 2857W        W 6921   3.360   2.650  11.698
 2858W        W 6922   0.124   7.432   2.447
 2859W        W 6923   5.683   2.150  10.423
 2860W        W 6924   5.924   6.072   9.041
 2861W        W 6925   9.477   6.632   9.715
 2862W        W 6926   1.165   4.699   9.939
 2863W        W 6927   9.383   2.287   2.490
 2864W        W 6928   4.674   4.635   8.896
 2865W        W 6929   4.190   2.776   2.671
 2866W        W 6930   3.119   5.322   1.396
 2867W        W 6931   0.890   7.036   2.219
 2868W        W 6932   8.421   0.271   0.241
 2869W        W 6933   1.744   1.238  10.743
 2870W        W 6934  10.413   8.108   0.527
 2871W        W 6935   7.192   9.999   9.721
 2872W        W 6936   3.564   2.865  10.539
 2873W        W 6937   4.060   4.622   4.204
 2874W        W 6938   3.937  10.309  10.343
 2875W        W 6939   0.450   9.972   9.328
 2876W        W 6940   6.090  10.419   2.186
 2877W        W 6941   6.568   8.577  10.601
 2878W        W 6942   2.443   0.572   8.973
 2879W        W 6943   5.601   5.993   1.974
 2880W        W 6944   7.587   4.022   1.939
 2881W        W 6945   9.486   8.558  11.817
 2882W        W 6946   1.902   0.326   9.816
 2883W        W 6947   8.847   7.533   1.851
 2884W        W 6948   7.577   4.190   3.327
 2885W        W 6949   3.224   7.883   9.049
 2886W        W 6950   3.703   8.701   0.397
 2887W        W 6951   1.285   2.365   8.670
 2888W        W 6952   1.213   2.422   0.945
 2889W        W 6953   3.762   9.044   9.906
 2890W        W 6954   0.360   3.252   0.298
 2891W        W 6955   4.370   2.630  11.734
 2892W        W 6956   0.259   7.451   9.170
 2893W        W 6957   8.551   7.507  10.629
 2894W        W 6958   5.259   6.179   2.288
 2895W        W 6959  10.395   0.442   0.669
 2896W        W 6960   1.353   1.205   9.962
 2897W        W 6961   7.015   5.664   8.210
 2898W        W 6962   4.212   8.275  11.715
 2899W        W 6963  10.394   5.466   2.181
 2900W        W 6964   4.464   6.530   8.970
 2901W        W 6965   4.230   4.897   9.091
 2902W        W 6966   1.385   8.501   1.268
 2903W        W 6967   3.466   5.367  11.503
 2904W        W 6968   3.246   3.328  10.458
 2905W        W 6969   3.645   4.036   9.927
 2906W        W 6970   1.790   9.876   1.700
 2907W        W 6971   4.041   2.094   9.397
 2908W        W 6972   9.357   7.521  10.105
 2909W        W 6973   7.565   0.611   3.582
 2910W        W 6974   2.036   9.604   2.387
 2911W        W 6975   0.616   5.384   0.969
 2912W        W 6976   0.412   3.323   8.973
 2913W        W 6977   6.645   6.022   8.272
 2914W        W 6978   2.435   1.679  10.802
 2915W        W 6979   9.224   7.527   0.801
 2916W        W 6980   8.969   1.189  11.890
 2917W        W 6981   6.029   4.675   9.527
 2918W        W 6982   3.124   5.679   9.416
 2919W        W 6983   6.738   6.416   0.416
 2920W        W 6984  10.499   0.726   9.082
 2921W        W 6985   5.504   1.805   3.014
 2922W        W 6986   3.789   5.484   9.816
 2923W        W 6987   6.958   9.339   9.511
 2924W        W 6988   5.779   7.439   8.485
 2925W        W 6989   8.455   9.348   1.457
 2926W        W 6990   2.136   8.885  10.554
 2927W        W 6991   1.709   9.387   1.489
 2928W        W 6992   9.874   5.901   3.284
 2929W        W 6993   1.045   9.416   3.313
 2930W        W 6994   6.520   4.218   3.741
 2931W        W 6995   6.514   8.908  10.999
 2932W        W 6996   6.772   3.634   0.858
 2933W        W 6997   1.752   3.568  11.936
 2934W        W 6998   1.509   8.052   1.017
 2935W        W 6999   0.763   5.688   1.978
 2936W        W 7000   1.684   1.785   2.837
 2937W        W 7001   7.241   6.724   9.379
 2938W        W 7002   2.176   5.692  11.381
 2939W        W 7003   4.774   9.934  10.787
 2940W        W 7004   7.809   5.101  10.353
 2941W        W 7005   9.769   5.030   0.436
 2942W        W 7006   3.414   8.827   9.544
 2943W        W 7007  10.406   8.863  11.737
 2944W        W 7008   6.449   5.601   9.909
 2945W        W 7009   1.156   4.047   2.824
 2946W        W 7010   9.505   9.135   1.827
 2947W        W 7011   1.855  10.247   9.237
 2948W        W 7012   8.368   4.658  11.946
 2949W        W 7013   4.057  10.463   0.172
 2950W        W 7014   2.579   1.604   1.815
 2951W        W 7015   0.290   9.093   9.822
 2952W        W 7016   8.497   1.220   0.068
 2953W        W 7017   5.070  10.385   0.903
 2954W        W 7018   7.472   0.305   9.842
 2955W        W 7019   6.034   9.540   3.004
 2956W        W 7020   8.783   4.516  11.003
 2957W        W 7021   8.506   4.705  10.047
 2958W        W 7022   0.971   2.616   0.049
 2959W        W 7023   6.666   2.404   1.314
 2960W        W 7024   3.840   2.212   0.063
 2961W        W 7025   7.055   4.649   2.444
 2962W        W 7026   5.996   6.166  10.898
 2963W        W 7027   2.450   3.115   3.356
 2964W        W 7028   6.605   7.259   9.100
 2965W        W 7029  10.261   8.780   0.700
 2966W        W 7030   4.109   0.009  11.325
 2967W        W 7031   2.639  10.438   0.690
 2968W        W 7032   7.934   6.341   8.582
 2969W        W 7033   2.728   9.011   2.736
 2970W        W 7034   0.707   2.195   9.508
 2971W        W 7035   5.999   3.769   1.820
 2972W        W 7036   2.152   2.853  10.408
 2973W        W 7037   7.641   6.000   7.815
 2974W        W 7038  10.450   3.880   3.245
 2975W        W 7039   1.365   1.197  11.053
 2976W        W 7040   2.627   8.391  11.759
 2977W        W 7041   2.883   4.162   2.330
 2978W        W 7042   1.367   7.178   2.300
 2979W        W 7043   9.387   4.268   9.078
 2980W        W 7044   9.024   7.097   8.612
 2981W        W 7045   9.936   5.734   0.952
 2982W        W 7046   7.571   6.786   2.410
 2983W        W 7047   7.089   5.215   7.939
 2984W        W 7048   4.108   3.657   9.347
 2985W        W 7049   2.162   7.956   3.015
 2986W        W 7050   8.555   0.195   8.893
 2987W        W 7051   0.308   8.426   2.223
 2988W        W 7052   9.600   8.095  11.415
 2989W        W 7053   2.821   9.547  10.326
 2990W        W 7054   3.860   2.670  11.770
 2991W        W 7055   8.884   7.311   2.709
 2992W        W 7056   2.329   2.564   0.184
 2993W        W 7057   8.402   8.782   3.290
 2994W        W 7058   1.776   3.330  10.532
 2995W        W 7059  10.378   0.587  10.982
 2996W        W 7060   1.136   0.694  10.003
 2997W        W 7061   9.430   1.300  11.306
 2998W        W 7062   9.517   6.086   9.468
 2999W        W 7063   6.105   4.260   1.712
 3000W        W 7064   5.430   7.101   8.230
 3001W        W 7065   5.582   9.341   2.827
 3002W        W 7066   0.902   8.153   1.700
 3003W        W 7067   4.627   7.515   0.828
 3004W        W 7068   4.119   3.796  10.373
 3005W        W 7069   0.265   0.724   0.448
 3006W        W 7070   3.661   7.465   1.344
 3007W        W 7071   3.881   5.230   8.085
 3008W        W 7072   1.245   8.533   1.763
 3009W        W 7073   4.765   2.238   1.728
 3010W        W 7074   6.522   2.225  10.974
 3011W        W 7075   8.957   8.197   2.469
 3012W        W 7076   9.055   3.666   3.414
 3013W        W 7077  10.409   3.802   9.327
 3014W        W 7078   6.608   8.179   0.772
 3015W        W 7079   8.868   9.488   0.300
 3016W        W 7080   5.606   8.372   9.000
 3017W        W 7081   2.229   3.756   9.268
 3018W        W 7082   9.133   6.503  10.064
 3019W        W 7083   3.362   3.163   9.596
 3020W        W 7084   5.276   1.821   9.358
 3021W        W 7085   3.994   8.030  10.786
 3022W        W 7086   6.921   4.257  10.866
 3023W        W 7087   0.849   8.011   3.257
 3024W        W 7088   8.327   9.733  10.397
 3025W        W 7089   4.995   7.112  10.460
 3026W        W 7090   0.957   0.922   0.015
 3027W        W 7091   0.891  10.432   9.077
 3028W        W 7092   7.812   4.020   8.978
 3029W        W 7093   3.715   5.449   3.965
 3030W        W 7094   6.533   2.644  11.401
 3031W        W 7095   8.666   7.670   3.620
 3032W        W 7096   6.932   1.784   0.226
 3033W        W 7097   1.238   3.963  10.926
 3034W        W 7098   4.065   3.004   8.525
 3035W        W 7099  10.378   9.735   1.933
 3036W        W 7100   3.064   2.626   0.100
 3037W        W 7101   0.482   0.936   3.553
 3038W        W 7102   0.057   2.636   2.824
 3039W        W 7103   7.590   2.228   2.197
 3040W        W 7104   1.289   8.100   3.030
 3041W        W 7105   9.444   7.342  11.096
 3042W        W 7106   1.785   4.407   3.497
 3043W        W 7107   3.161   1.742   2.481
 3044W        W 7108   4.399   2.000  11.405
 3045W        W 7109   4.515   1.287   8.928
 3046W        W 7110   2.193   0.689   0.891
 3047W        W 7111   9.964   5.849  10.083
 3048W        W 7112   9.374   3.795   9.345
 3049W        W 7113   3.436   4.295   3.139
 3050W        W 7114   6.646   1.132   3.146
 3051W        W 7115   9.340   1.992   9.349
 3052W        W 7116   5.640   0.323   0.472
 3053W        W 7117   8.386   7.349   0.344
 3054W        W 7118   3.654   4.563   3.896
 3055W        W 7119   0.819   6.157   1.782
 3056W        W 7120   0.193   5.579   8.768
 3057W        W 7121   9.026   6.227   0.372
 3058W        W 7122   8.727   3.533  10.241
 3059W        W 7123   8.578   6.937  11.278
 3060W        W 7124   9.877   6.609  11.944
 3061W        W 7125   3.797   4.628   2.915
 3062W        W 7126   4.949   9.017   0.361
 3063W        W 7127   6.716  10.050   9.883
 3064W        W 7128   6.195   5.912   8.629
 3065W        W 7129   8.970   7.459   1.355
 3066W        W 7130   5.562   7.959   0.799
 3067W        W 7131   5.317   3.104  10.390
 3068W        W 7132   5.963   1.384   0.697
 3069W        W 7133   5.784   3.637   0.940
 3070W        W 7134   1.396   6.365   0.433
 3071W        W 7135   3.647   3.108  11.581
 3072W        W 7136   0.578   6.394   2.906
 3073W        W 7137   4.644   6.977   0.935
 3074W        W 7138   0.837   6.898  11.850
 3075W        W 7139   9.433   3.798   0.950
 3076W        W 7140   7.524   1.164   2.924
 3077W        W 7141   7.019   2.154   1.030
 3078W        W 7142   8.912   4.029  10.988
 3079W        W 7143   3.605   7.598   8.795
 3080W        W 7144   3.250   0.754   9.282
 3081W        W 7145   3.689   4.178   1.085
 3082W        W 7146  10.346   7.453   1.714
 3083W        W 7147   6.053   9.944   1.319
 3084W        W 7148  10.442  10.318   9.089
 3085W        W 7149   8.613   8.078   0.583
 3086W        W 7150   7.581   7.572   1.018
 3087W        W 7151   5.328   7.504   8.736
 3088W        W 7152   2.235   1.414   2.173
 3089W        W 7153   6.459   4.062  10.767
 3090W        W 7154   9.914   8.429  10.409
 3091W        W 7155   1.624   4.253   2.759
 3092W        W 7156   2.371   8.146   1.909
 3093W        W 7157   8.370   3.121  11.810
 3094W        W 7158   6.724  10.229  11.949
 3095W        W 7159   9.937   3.531  10.019
 3096W        W 7160   5.235   4.559   1.291
 3097W        W 7161   3.009   1.780   3.536
 3098W        W 7162   0.914   4.259   8.552
 3099W        W 7163   7.185   8.056   3.550
 3100W        W 7164   6.842   8.334   3.189
 3101W        W 7165   5.539   6.372  10.733
 3102W        W 7166   2.181   8.911   3.231
 3103W        W 7167   6.049   8.542   1.379
 3104W        W 7168   1.861   4.537  11.992
 3105W        W 7169   9.952   0.383   9.738
 3106W        W 7170   6.116   8.159   2.794
 3107W        W 7171   3.894   5.913   4.110
 3108W        W 7172   5.067   5.144   9.590
 3109W        W 7173   7.008   9.005  10.794
 3110W        W 7174   8.906   1.713  10.100
 3111W        W 7175   7.330   0.948   1.571
 3112W        W 7176   9.869   4.799   9.078
 3113W        W 7177   2.787   2.761   3.213
 3114W        W 7178   7.887   2.448  10.050
 3115W        W 7179   4.695   1.067  10.714
 3116W        W 7180   7.127   5.694  10.513
 3117W        W 7181   2.725   3.200   2.477
 3118W        W 7182   6.015   5.246   9.972
 3119W        W 7183   1.341   6.678   2.506
 3120W        W 7184   7.807   5.200   3.217
 3121W        W 7185   9.755   1.726   9.466
 3122W        W 7186   6.532   3.152  11.222
 3123W        W 7187   7.028   0.932   3.470
 3124W        W 7188   5.987   0.038   0.239
 3125W        W 7189   7.422   8.530   0.381
 3126W        W 7190   8.445   4.822   8.956
 3127W        W 7191   8.618   5.751   1.266
 3128W        W 7192   8.894   6.467   2.454
 3129W        W 7193   7.480   2.637   2.486
 3130W        W 7194   3.729   5.090  11.132
 3131W        W 7195   3.004   9.392  10.796
 3132W        W 7196   4.048   0.424   9.233
 3133W        W 7197   4.012   1.852   2.302
 3134W        W 7198   8.148   0.522   1.952
 3135W        W 7199   8.143   5.548  10.286
 3136W        W 7200   3.780  10.386   3.233
 3137W        W 7201   5.126   9.053   9.426
 3138W        W 7202   0.163   3.100  11.544
 3139W        W 7203   8.826   5.061  10.891
 3140W        W 7204   0.878   9.978   0.678
 3141W        W 7205   5.461   5.129   3.196
 3142W        W 7206   7.825   0.816   9.244
 3143W        W 7207   9.562   1.199   9.779
 3144W        W 7208   2.282   4.324   9.069
 3145W        W 7209   9.305   8.044  11.853
 3146W        W 7210   5.128   9.956   3.041
 3147W        W 7211   5.586   5.358  10.759
 3148W        W 7212   2.263   6.575   2.542
 3149W        W 7213   5.688   2.147  11.488
 3150W        W 7214   5.929   1.397   9.091
 3151W        W 7215   7.679   5.182   8.427
 3152W        W 7216   9.844   0.247   3.419
 3153W        W 7217   0.462   4.222   8.798
 3154W        W 7218  10.380   2.316  10.370
 3155W        W 7219   4.836   6.935   3.009
 3156W        W 7220   9.443   0.996  10.887
 3157W        W 7221   9.918   9.380   1.976
 3158W        W 7222   3.699   2.636   8.764
 3159W        W 7223   7.926   6.823   8.767
 3160W        W 7224   4.673   5.260  11.294
 3161W        W 7225   1.874   7.553  11.642
 3162W        W 7226   4.611   7.315   3.288
 3163W        W 7227   6.220   6.422  11.883
 3164W        W 7228   8.494   5.550   2.204
 3165W        W 7229   0.796   0.322  11.311
 3166W        W 7230   5.175   2.318  11.509
 3167W        W 7231   5.001   8.463   3.467
 3168W        W 7232   2.645   0.818   9.963
 3169W        W 7233   8.767   7.694   2.368
 3170W        W 7234   1.043   1.910   9.921
 3171W        W 7235   8.422  10.338   9.241
 3172W        W 7236   6.097   3.769   2.705
 3173W        W 7237   9.810   9.971   2.620
 3174W        W 7238   7.411   9.838   2.931
 3175W        W 7239   6.901   5.199  10.731
 3176W        W 7240   9.453   3.695   3.072
 3177W        W 7241   4.172   7.253  10.406
 3178W        W 7242   8.546   7.829  10.250
 3179W        W 7243   9.326   1.096   3.138
 3180W        W 7244   1.375   2.760   9.975
 3181W        W 7245   2.172   3.984  10.821
 3182W        W 7246   2.220   5.432   0.368
 3183W        W 7247   4.783   2.754   1.457
 3184W        W 7248   6.193   5.592   9.467
 3185W        W 7249   6.919   0.244  11.767
 3186W        W 7250   0.634   6.374   8.525
 3187W        W 7251   1.833   3.387   9.327
 3188W        W 7252   5.136   6.123   9.600
 3189W        W 7253   6.417   5.099  11.321
 3190W        W 7254   2.335   5.552  10.892
 3191W        W 7255   8.688   5.533  10.572
 3192W        W 7256   0.776   7.451  11.052
 3193W        W 7257   4.531   1.753   0.550
 3194W        W 7258   1.934   2.739   1.554
 3195W        W 7259   0.708   5.229   3.288
 3196W        W 7260   8.611   7.582  11.952
 3197W        W 7261   9.674   1.315   3.468
 3198W        W 7262   2.421   9.109   0.295
 3199W        W 7263   6.002   6.575   8.965
 3200W        W 7264   4.693   2.435  11.397
 3201W        W 7265   2.309   9.150  10.953
 3202W        W 7266   9.068   0.248  10.962
 3203W        W 7267   1.037   1.247   0.497
 3204W        W 7268   7.209   6.138   8.066
 3205W        W 7269   0.518   0.301   3.258
 3206W        W 7270   9.126   8.405   1.512
 3207W        W 7271   6.991   5.949   3.617
 3208W        W 7272   8.343   7.072  10.238
 3209W        W 7273   1.420   3.534  11.115
 3210W        W 7274   3.729   3.583  11.433
 3211W        W 7275   8.086   1.837   9.550
 3212W        W 7276   1.226   2.342   2.306
 3213W        W 7277   5.243   2.407   1.645
 3214W        W 7278   1.210   1.948   2.678
 3215W        W 7279   8.898   9.876   9.755
 3216W        W 7280   9.859  10.454   2.392
 3217W        W 7281   3.404   9.887   0.510
 3218W        W 7282   4.530   5.547  10.875
 3219W        W 7283   3.811   4.385   0.589
 3220W        W 7284   5.307   2.854   0.718
 3221W        W 7285   7.901   7.914   9.042
 3222W        W 7286   0.190   6.444   0.215
 3223W        W 7287   5.232   6.707  10.986
 3224W        W 7288   3.470   5.469   4.413
 3225W        W 7289   7.834   4.421   1.019
 3226W        W 7290   4.777   5.589   3.469
 3227W        W 7291   9.836   3.633   2.208
 3228W        W 7292   7.991   1.320  11.355
 3229W        W 7293   2.177   5.228   2.512
 3230W        W 7294   5.785   0.348   0.961
 3231W        W 7295   0.252   9.076   3.160
 3232W        W 7296   0.892   8.262   9.327
 3233W        W 7297   3.842   8.285   2.791
 3234W        W 7298   2.739  10.471   2.703
 3235W        W 7299   8.645   5.029   1.796
 3236W        W 7300   3.567   3.065   0.957
 3237W        W 7301  10.031   0.787   2.692
 3238W        W 7302   6.134   4.329  10.491
 3239W        W 7303   8.463   4.088   3.272
 3240W        W 7304   0.017  10.405   8.564
 3241W        W 7305   7.359   3.525   9.493
 3242W        W 7306   9.274   8.094   1.136
 3243W        W 7307   5.560   5.240   8.970
 3244W        W 7308   4.181   8.528  10.722
 3245W        W 7309   1.929   0.245   0.778
 3246W        W 7310   0.994   0.775   2.694
 3247W        W 7311   2.690   0.233   8.675
 3248W        W 7312   8.434   9.057   9.749
 3249W        W 7313   9.955   7.554   0.262
 3250W        W 7314  10.300   9.344  11.722
 3251W        W 7315   0.249   4.704   9.015
 3252W        W 7316   3.770   9.425   1.142
 3253W        W 7317   4.724  10.330  11.098
 3254W        W 7318   2.710   6.015   1.052
 3255W        W 7319   2.425   0.378   0.525
 3256W        W 7320   9.341   0.864  10.386
 3257W        W 7321   5.991   9.543  11.520
 3258W        W 7322   0.740   1.461  10.792
 3259W        W 7323   6.891   7.218  10.447
 3260W        W 7324   6.148   7.495   9.819
 3261W        W 7325  10.063   1.793   0.780
 3262W        W 7326   6.225   3.953   9.254
 3263W        W 7327   8.518   6.675   9.855
 3264W        W 7328   2.148   0.553   2.365
 3265W        W 7329   4.066   8.422   3.242
 3266W        W 7330   4.169   5.627   3.751
 3267W        W 7331   1.313   3.235   9.262
 3268W        W 7332   8.940   3.146   2.839
 3269W        W 7333   9.210   2.269  11.305
 3270W        W 7334   9.008   5.479   1.501
 3271W        W 7335   6.218   4.467  11.036
 3272W        W 7336   0.405   3.201  10.817
 3273W        W 7337   5.636   6.067   3.821
 3274W        W 7338   1.711   8.930   2.776
 3275W        W 7339   8.006   5.583   2.907
 3276W        W 7340   5.656   1.207  11.443
 3277W        W 7341   2.886   5.470   2.475
 3278W        W 7342   0.506  10.239   2.454
 3279W        W 7343   1.891   8.411   9.070
 3280W        W 7344   3.113   6.150  10.975
 3281W        W 7345   3.254   5.317   9.775
 3282W        W 7346   7.836   3.655   1.622
 3283W        W 7347   6.775  10.065   0.798
 3284W        W 7348   1.172   0.509  10.519
 3285W        W 7349   0.250  10.096  10.064
 3286W        W 7350   0.961  10.367   2.767
 3287W        W 7351   3.307   8.948  10.812
 3288W        W 7352   8.119   8.861   8.881
 3289W        W 7353  10.359   8.362  11.752
 3290W        W 7354   2.151   2.772  11.367
 3291W        W 7355   6.396   0.875   1.237
 3292W        W 7356   0.779   9.456   1.413
 3293W        W 7357   6.595   8.215   8.784
 3294W        W 7358   7.536   8.666   9.748
 3295W        W 7359   6.241  10.104   0.004
 3296W        W 7360   9.517   1.932   0.973
 3297W        W 7361   0.861   6.505   1.392
 3298W        W 7362  10.377   2.408  10.864
 3299W        W 7363   6.958  10.369   2.233
 3300W        W 7364   1.897   2.357   1.906
 3301W        W 7365   1.987   4.597   9.889
 3302W        W 7366   5.169   9.448   3.180
 3303W        W 7367   5.465   0.918   3.567
 3304W        W 7368   8.950   3.230   9.859
 3305W        W 7369  10.195   4.907   0.214
 3306W        W 7370   3.862   7.782   2.742
 3307W        W 7371   3.820   8.224   0.446
 3308W        W 7372   8.699   9.923   9.299
 3309W        W 7373   4.607   6.865   1.430
 3310W        W 7374   3.801   5.940  10.502
 3311W        W 7375   9.281   4.426  11.019
 3312W        W 7376   8.347   7.577   9.865
 3313W        W 7377   9.877   4.616   1.283
 3314W        W 7378   9.450   7.639   1.261
 3315W        W 7379   3.171   4.020   0.871
 3316W        W 7380   2.899   4.392   0.546
 3317W        W 7381   0.481   2.786  11.127
 3318W        W 7382   8.812   2.593  11.593
 3319W        W 7383   8.164   6.018   0.184
 3320W        W 7384   3.397   0.287  11.686
 3321W        W 7385   6.459   7.938   1.247
 3322W        W 7386   0.796   3.507   1.527
 3323W        W 7387   9.524   6.669  11.177
 3324W        W 7388   6.495   5.686   0.632
 3325W        W 7389   7.455   9.819   0.054
 3326W        W 7390   4.291   0.849   2.029
 3327W        W 7391   3.682   2.297  11.037
 3328W        W 7392   7.818   4.822   0.649
 3329W        W 7393  10.337   1.350   0.800
 3330W        W 7394   4.619   3.213   1.305
 3331W        W 7395   8.136   0.871   8.856
 3332W        W 7396   2.077   1.772   3.490
 3333W        W 7397   5.942   4.051  10.917
 3334W        W 7398   4.058   8.496   8.667
 3335W        W 7399   8.787   4.304  11.886
 3336W        W 7400   6.015   5.121   8.747
 3337W        W 7401   1.537   9.459   2.589
 3338W        W 7402   2.222   8.915   2.719
 3339W        W 7403   8.038   8.419  10.232
 3340W        W 7404   1.022   0.239   3.153
 3341W        W 7405   7.314   4.002   9.985
 3342W        W 7406   1.739   2.125   3.226
 3343W        W 7407   0.921   5.254   9.295
 3344W        W 7408   8.159   5.071   1.633
 3345W        W 7409   2.534   9.898   3.305
 3346W        W 7410   5.458   4.824  11.831
 3347W        W 7411  10.327   9.823   3.339
 3348W        W 7412  10.461   6.132   1.495
 3349W        W 7413   4.246   7.497   2.552
 3350W        W 7414   6.612   9.755   2.139
 3351W        W 7415  10.417   1.429  11.886
 3352W        W 7416   8.995   7.053   1.696
 3353W        W 7417   0.258   9.467   1.476
 3354W        W 7418   7.877   3.584   2.144
 3355W        W 7419   2.970   5.111  11.996
 3356W        W 7420   5.474   6.560   8.918
 3357W        W 7421   6.042   2.231   8.748
 3358W        W 7422   3.841   7.141   8.606
 3359W        W 7423   3.821   8.906  10.754
 3360W        W 7424   8.110   8.975   0.886
 3361W        W 7425   5.206   2.662  10.094
 3362W        W 7426   0.986   9.484  10.564
 3363W        W 7427   3.145   1.368  11.803
 3364W        W 7428   7.502   5.552   8.094
 3365W        W 7429   6.743  10.485  10.147
 3366W        W 7430   6.722   5.010   2.280
 3367W        W 7431   0.294   0.267   2.492
 3368W        W 7432   6.906   9.427  11.053
 3369W        W 7433   5.981   8.963   2.226
 3370W        W 7434  10.047   4.310   9.225
 3371W        W 7435   9.155   6.448   2.900
 3372W        W 7436   7.113   1.904  10.474
 3373W        W 7437   5.954   5.113  11.033
 3374W        W 7438   2.685   5.529   1.226
 3375W        W 7439   6.947   2.511  11.060
 3376W        W 7440   9.515   1.175   1.795
 3377W        W 7441   1.766   0.341  10.891
 3378W        W 7442   4.950  10.068  11.598
 3379W        W 7443   6.470   3.094   9.813
 3380W        W 7444   1.205   3.950   0.578
 3381W        W 7445   0.446   6.252   1.155
 3382W        W 7446   5.151   5.729   0.751
 3383W        W 7447   2.589   8.638  10.488
 3384W        W 7448   9.571   9.560   2.936
 3385W        W 7449   1.331   7.037  11.953
 3386W        W 7450   2.230   8.097   8.802
 3387W        W 7451   6.434   8.864   1.978
 3388W        W 7452   9.359   8.656   0.566
 3389W        W 7453  10.315   5.033   2.910
 3390W        W 7454   4.651   7.803   3.203
 3391W        W 7455   7.554   8.062  11.435
 3392W        W 7456   4.716   7.057  11.953
 3393W        W 7457   3.350   2.179   0.148
 3394W        W 7458   4.663   9.410   2.459
 3395W        W 7459   4.974   9.061   0.898
 3396W        W 7460   1.109  10.472   1.831
 3397W        W 7461   6.330   9.284  11.799
 3398W        W 7462   4.600   0.797   8.139
 3399W        W 7463   8.106   6.718  11.043
 3400W        W 7464  10.397   2.285   3.492
 3401W        W 7465   8.728   8.050   8.864
 3402W        W 7466   4.685   3.626  10.627
 3403W        W 7467   7.235   4.739   9.013
 3404W        W 7468   4.148   8.146   1.159
 3405W        W 7469   3.532   5.603   1.464
 3406W        W 7470   8.497   2.180   2.783
 3407W        W 7471  10.310   1.768   3.374
 3408W        W 7472   6.527   6.114  10.433
 3409W        W 7473   8.975   2.277   3.424
 3410W        W 7474   4.249   4.922   0.497
 3411W        W 7475   5.067   7.577  11.520
 3412W        W 7476   8.877   0.630  11.239
 3413W        W 7477   5.148   0.475   3.555
 3414W        W 7478   2.044   8.870   9.307
 3415W        W 7479   5.606   1.411   2.525
 3416W        W 7480   5.067   4.313   1.700
 3417W        W 7481   7.129  10.459   3.663
 3418W        W 7482   9.391   4.540  11.646
 3419W        W 7483   4.601   1.497   1.005
 3420W        W 7484   6.593  10.376  10.611
 3421W        W 7485   6.495   3.539   9.476
 3422W        W 7486   6.103   5.111   0.415
 3423W        W 7487   2.879   1.277   3.479
 3424W        W 7488   4.456   8.599  10.301
 3425W        W 7489   3.491   1.885   3.397
 3426W        W 7490   5.736   5.578   3.200
 3427W        W 7491   7.061   7.364  11.120
 3428W        W 7492   7.399   3.387   0.282
 3429W        W 7493   3.669   5.982   1.133
 3430W        W 7494   6.298   6.418   8.568
 3431W        W 7495   5.380   1.718   2.156
 3432W        W 7496   4.755   2.190   2.255
 3433W        W 7497   1.055   7.870   0.774
 3434W        W 7498   7.196   8.394   2.252
 3435W        W 7499   5.907   5.630   1.719
 3436W        W 7500   7.975   0.960   3.360
 3437W        W 7501   5.446   4.328   8.941
 3438W        W 7502   7.725   6.420   1.401
 3439W        W 7503   6.073   5.995   3.277
 3440W        W 7504  10.167   3.184  11.452
 3441W        W 7505   9.894   7.038   1.319
 3442W        W 7506   8.038   6.685  10.032
 3443W        W 7507   9.846   1.879  11.417
 3444W        W 7508   6.423   5.153   0.009
 3445W        W 7509   9.416   5.428  11.774
 3446W        W 7510   4.062   0.437   2.765
 3447W        W 7511  10.302   4.421   0.207
 3448W        W 7512   1.811   2.127   9.307
 3449W        W 7513   0.258   0.418  11.702
 3450W        W 7514   1.304   1.384   0.999
 3451W        W 7515  10.351   5.198  10.917
 3452W        W 7516   4.374   2.600   1.156
 3453W        W 7517   1.745   8.441  10.020
 3454W        W 7518   4.799   4.515   0.998
 3455W        W 7519   1.262   6.766  11.534
 3456W        W 7520   3.280   7.386   3.164
 3457W        W 7521   1.259   1.400  10.556
 3458W        W 7522   1.404  10.376  10.822
 3459W        W 7523   0.424   3.769   0.394
 3460W        W 7524   3.643   8.099   8.506
 3461W        W 7525   2.513   1.235  11.409
 3462W        W 7526   5.131   4.603   2.121
 3463W        W 7527   2.852   9.357   0.247
 3464W        W 7528   3.913   1.877  11.245
 3465W        W 7529   9.334   4.720   8.798
 3466W        W 7530   2.887   8.457   9.325
 3467W        W 7531  10.283   5.192   1.246
 3468W        W 7532   6.076   0.937  11.443
 3469W        W 7533  10.370   7.728  10.860
 3470W        W 7534   3.225   0.350  10.277
 3471W        W 7535   4.717   0.449   0.496
 3472W        W 7536   6.930   5.757  10.051
 3473W        W 7537   7.212   9.029  11.699
 3474W        W 7538   6.533   7.769   1.723
 3475W        W 7539   1.597   9.432   9.641
 3476W        W 7540   4.297   6.058   2.451
 3477W        W 7541   8.524   6.816   2.483
 3478W        W 7542   5.181   0.354   0.711
 3479W        W 7543   8.509   0.426   9.934
 3480W        W 7544   1.421   7.244  11.454
 3481W        W 7545   9.966   6.987   9.066
 3482W        W 7546   7.115   7.389   8.651
 3483W        W 7547   4.123   9.403   8.742
 3484W        W 7548   2.618   6.668   1.831
 3485W        W 7549   6.198   2.320  11.776
 3486W        W 7550   5.006   3.340   1.791
 3487W        W 7551   9.329   6.635   0.487
 3488W        W 7552   8.876   2.839   1.929
 3489W        W 7553  10.261   7.431   8.993
 3490W        W 7554   4.925   6.371   8.185
 3491W        W 7555   9.809   5.740   2.801
 3492W        W 7556   7.933   1.435   3.117
 3493W        W 7557   5.569   6.119   8.664
 3494W        W 7558   0.304   8.112   9.813
 3495W        W 7559   1.016   2.697   1.923
 3496W        W 7560   8.417   8.539   1.812
 3497W        W 7561   6.827   6.464   8.471
 3498W        W 7562   1.057   2.607   1.411
 3499W        W 7563   7.413   0.023  11.410
 3500W        W 7564   9.525   2.025  10.812
 3501W        W 7565   8.375   5.208   9.966
 3502W        W 7566   2.064   7.391  10.589
 3503W        W 7567   0.260   2.717  10.661
 3504W        W 7568   5.744   3.891   0.091
 3505W        W 7569   2.831   7.863   0.448
 3506W        W 7570   7.473   0.477   8.962
 3507W        W 7571   3.261   1.499   3.158
 3508W        W 7572   2.396   0.633  11.852
 3509W        W 7573   4.706   6.382  10.252
 3510W        W 7574   2.133  10.371   1.868
 3511W        W 7575   3.325   5.062   8.780
 3512W        W 7576   9.132   8.673   2.806
 3513W        W 7577   8.474   7.408   9.416
 3514W        W 7578   4.263   0.800   8.966
 3515W        W 7579  10.464   9.791   9.316
 3516W        W 7580   1.328   8.901   9.978
 3517W        W 7581   7.411   3.542   1.918
 3518W        W 7582   1.673   5.725   9.213
 3519W        W 7583   5.633   2.191   0.930
 3520W        W 7584   6.833   9.113   0.607
 3521W        W 7585   6.054   7.476   0.790
 3522W        W 7586   4.190   2.230   0.453
 3523W        W 7587   5.162   5.160  10.565
 3524W        W 7588   9.660  10.406   1.414
 3525W        W 7589   4.046   1.226   9.131
 3526W        W 7590   0.447   1.841   9.117
 3527W        W 7591   3.097   7.405   8.803
 3528W        W 7592   1.454   7.599   1.842
 3529W        W 7593   6.634   4.171   8.004
 3530W        W 7594   7.645   5.923   1.380
 3531W        W 7595   6.896   2.191   0.529
 3532W        W 7596   8.434   4.649   1.490
 3533W        W 7597   9.010   3.650   0.676
 3534W        W 7598   3.290   6.961  11.283
 3535W        W 7599   7.395   7.052  11.337
 3536W        W 7600   5.543   1.247   2.035
 3537W        W 7601  10.411   8.733   2.205
 3538W        W 7602  10.258   1.520  10.710
 3539W        W 7603   0.344   8.859   1.206
 3540W        W 7604   2.893   1.157   1.973
 3541W        W 7605   2.655   3.595   1.639
 3542W        W 7606   3.155   5.776   1.143
 3543W        W 7607   8.446   8.416   0.241
 3544W        W 7608   0.346   0.525  11.181
 3545W        W 7609   9.848   3.727   2.718
 3546W        W 7610   2.355   8.638  10.964
 3547W        W 7611   0.349   6.762  11.727
 3548W        W 7612  10.402   7.054   1.391
 3549W        W 7613   4.114   6.150   3.682
 3550W        W 7614   3.846  10.402   2.704
 3551W        W 7615  10.029  10.460  11.492
 3552W        W 7616   6.044   9.104   2.712
 3553W        W 7617   0.016   9.917   0.396
 3554W        W 7618   8.571   1.892  11.204
 3555W        W 7619   9.110   6.501   0.962
 3556W        W 7620  10.461   5.673  10.124
 3557W        W 7621   4.531   6.433   0.701
 3558W        W 7622   8.137   4.873  11.492
 3559W        W 7623   9.544   5.025  11.480
 3560W        W 7624   9.463   3.572   0.455
 3561W        W 7625   7.547   6.065   3.471
 3562W        W 7626  10.390   1.157   9.356
 3563W        W 7627  10.471   4.773  11.793
 3564W        W 7628   5.335   9.506   3.668
 3565W        W 7629   8.358   9.836   3.136
 3566W        W 7630   5.067   9.502   9.742
 3567W        W 7631   4.696   8.408   2.549
 3568W        W 7632   5.831   4.021   9.596
 3569W        W 7633   6.504   6.192   3.526
 3570W        W 7634   8.658   8.551   2.697
 3571W        W 7635   1.696   6.528  11.552
 3572W        W 7636   5.503   7.833   1.373
 3573W        W 7637   8.834  10.363   3.522
 3574W        W 7638   0.870   3.187   1.941
 3575W        W 7639   2.847  10.312   3.176
 3576W        W 7640  10.350   9.069   2.827
 3577W        W 7641   4.241   3.185   0.370
 3578W        W 7642   5.439   9.889  11.526
 3579W        W 7643   9.786   0.400   8.716
 3580W        W 7644   6.882   0.090   0.259
 3581W        W 7645   3.722   4.626   3.403
 3582W        W 7646   8.587   6.886   9.398
 3583W        W 7647   7.558   6.093   8.831
 3584W        W 7648   8.789   0.045   0.463
 3585W        W 7649   4.425   5.962   3.311
 3586W        W 7650   2.059   5.223  11.195
 3587W        W 7651   7.667   4.117   1.440
 3588W        W 7652   1.583   1.302   1.443
 3589W        W 7653   7.681   8.516   2.352
 3590W        W 7654   6.892   5.113   8.851
 3591W        W 7655   1.792   6.029   1.253
 3592W        W 7656   0.970   2.831  11.100
 3593W        W 7657   5.919   5.147   2.947
 3594W        W 7658   5.518  10.434   8.947
 3595W        W 7659   2.194   3.336  10.225
 3596W        W 7660   9.737   0.326   2.923
 3597W        W 7661   6.153   8.492   2.396
 3598W        W 7662   2.182   1.836   2.994
 3599W        W 7663   5.998   7.945   9.590
 3600W        W 7664   7.622   3.120   2.259
 3601W        W 7665   7.434  10.124   3.404
 3602W        W 7666   4.490   3.617   0.529
 3603W        W 7667   3.842   6.690  10.928
 3604W        W 7668   6.989   1.272   2.689
 3605W        W 7669   1.482   8.320  10.824
 3606W        W 7670   8.268   9.903  11.385
 3607W        W 7671  10.406   0.273  11.372
 3608W        W 7672   9.359   9.149   9.054
 3609W        W 7673   6.456   2.603   9.542
 3610W        W 7674   3.585   1.261   8.907
 3611W        W 7675   5.959   9.024   0.679
 3612W        W 7676   9.326   9.888  11.312
 3613W        W 7677   4.198   6.656   3.746
 3614W        W 7678   4.584   9.131   8.638
 3615W        W 7679   0.153   1.870   2.637
 3616W        W 7680   7.088   9.655   8.930
 3617W        W 7681   6.687   4.487  11.264
 3618W        W 7682   0.904   6.593  10.554
 3619W        W 7683   9.001   4.271  11.423
 3620W        W 7684   6.530   7.678   0.828
 3621W        W 7685   9.741   2.701   2.491
 3622W        W 7686   8.092  10.420   2.766
 3623W        W 7687  10.034   0.072   8.406
 3624W        W 7688   6.393   9.281   2.298
 3625W        W 7689   4.121   4.278   8.542
 3626W        W 7690   1.136   6.436   2.082
 3627W        W 7691   1.983   8.952   1.371
 3628W        W 7692   4.221   6.994   8.922
 3629W        W 7693   2.105   0.789   1.889
 3630W        W 7694   9.990   0.811   9.017
 3631W        W 7695   6.973   5.021   3.435
 3632W        W 7696   5.250   5.285   0.968
 3633W        W 7697   8.793   9.927  11.280
 3634W        W 7698   8.601   5.685  10.040
 3635W        W 7699   4.717   0.822   9.184
 3636W        W 7700   4.296   9.479   0.368
 3637W        W 7701   0.356   9.465   9.097
 3638W        W 7702   5.658   8.298   1.686
 3639W        W 7703   7.074   4.519   2.934
 3640W        W 7704   4.647   8.150   8.912
 3641W        W 7705   2.117   5.560   1.820
 3642W        W 7706  10.289   3.594   2.465
 3643W        W 7707   5.557   2.264  10.980
 3644W        W 7708   7.430   5.625   8.614
 3645W        W 7709   5.128   3.537   2.281
 3646W        W 7710   0.694   9.439  11.986
 3647W        W 7711   0.919   6.013   8.778
 3648W        W 7712   7.343   8.919   2.394
 3649W        W 7713   3.743   7.956   0.909
 3650W        W 7714   1.779   3.383   2.160
 3651W        W 7715   0.815   0.747   0.501
 3652W        W 7716   6.936   3.466   1.293
 3653W        W 7717   3.840   3.211   0.034
 3654W        W 7718   8.066   7.881   9.526
 3655W        W 7719   4.306   0.147  10.455
 3656W        W 7720   0.956   4.693  11.228
 3657W        W 7721   5.400   6.623   8.007
 3658W        W 7722   3.727   4.851   0.423
 3659W        W 7723   2.859   5.957   1.554
 3660W        W 7724   7.171   8.096   0.299
 3661W        W 7725   3.173   1.381   0.693
 3662W        W 7726   5.021   6.657  11.833
 3663W        W 7727   8.029   1.241   1.391
 3664W        W 7728   7.083   3.597   2.785
 3665W        W 7729   1.182   9.841  10.245
 3666W        W 7730   5.084   0.877   0.467
 3667W        W 7731  10.463   6.648  10.057
 3668W        W 7732   6.078   5.989   0.837
 3669W        W 7733   7.123   0.462   1.533
 3670W        W 7734   4.296  10.417   3.155
 3671W        W 7735   4.030   1.774   0.707
 3672W        W 7736   0.472   9.520  11.495
 3673W        W 7737   6.041   3.654   8.869
 3674W        W 7738   0.520   2.799   1.945
 3675W        W 7739   8.909   7.109  10.701
 3676W        W 7740   9.080   2.168   1.128
 3677W        W 7741   6.824   8.047   2.032
 3678W        W 7742   5.720   7.576  10.921
 3679W        W 7743   0.761   0.529  10.847
 3680W        W 7744   5.494   6.912  11.463
 3681W        W 7745   1.951   9.533   3.289
 3682W        W 7746   5.029   8.788   1.896
 3683W        W 7747   2.275   3.310   1.330
 3684W        W 7748   0.695   0.361   2.777
 3685W        W 7749   1.261   6.949   3.508
 3686W        W 7750   5.221   4.111   3.878
 3687W        W 7751   6.275   3.296   1.793
 3688W        W 7752   8.832   7.612   0.467
 3689W        W 7753   5.882   3.019   3.165
 3690W        W 7754   3.092   9.911   1.388
 3691W        W 7755  10.475   8.407   9.555
 3692W        W 7756   7.414   8.129   8.995
 3693W        W 7757   5.951   4.939  11.914
 3694W        W 7758   1.910   3.408   2.790
 3695W        W 7759   0.877   8.405   2.918
 3696W        W 7760   0.075   7.661  11.686
 3697W        W 7761   4.089   3.384   8.906
 3698W        W 7762   8.384   4.572   9.425
 3699W        W 7763   4.549   2.160   9.349
 3700W        W 7764   2.603   4.277  11.018
 3701W        W 7765   2.853   6.664  10.024
 3702W        W 7766   5.015   2.830   9.067
 3703W        W 7767   8.794   4.758   3.614
 3704W        W 7768   3.293  10.152   0.961
 3705W        W 7769   1.867   2.837   0.363
 3706W        W 7770   7.389  10.180  11.022
 3707W        W 7771  10.104   7.822   0.885
 3708W        W 7772   1.481   4.119  11.368
 3709W        W 7773   6.835   5.525   2.402
 3710W        W 7774   9.477   6.325   0.120
 3711W        W 7775   2.367   1.326   3.544
 3712W        W 7776   2.254   2.219  10.032
 3713W        W 7777   8.563   4.557  11.475
 3714W        W 7778   8.492   8.074   9.315
 3715W        W 7779   5.039   6.205   8.667
 3716W        W 7780   5.166  10.041   2.490
 3717W        W 7781   1.050   4.225   3.608
 3718W        W 7782   7.469   1.647   2.800
 3719W        W 7783   7.488   4.761   2.694
 3720W        W 7784   0.681   0.864   9.867
 3721W        W 7785   5.053   2.447  11.028
 3722W        W 7786   7.580   2.179   0.238
 3723W        W 7787   1.394   2.431   0.433
 3724W        W 7788   1.264   8.471   9.740
 3725W        W 7789   8.171   0.939  10.004
 3726W        W 7790   5.963   8.652  10.420
 3727W        W 7791   8.918   8.460   0.424
 3728W        W 7792   3.213   2.238   3.632
 3729W        W 7793   0.947   6.042  11.883
 3730W        W 7794  10.150   7.936  11.557
 3731W        W 7795   5.602   3.886   8.628
 3732W        W 7796   6.945   7.545   2.690
 3733W        W 7797   6.850   5.134  11.740
 3734W        W 7798   9.833   6.463   0.450
 3735W        W 7799   0.985   2.594  10.235
 3736W        W 7800   3.619   0.299   2.972
 3737W        W 7801   8.616   9.734   1.164
 3738W        W 7802   6.151   5.987   3.823
 3739W        W 7803   6.679   7.573   2.203
 3740W        W 7804   5.293   4.066   9.443
 3741W        W 7805   9.492   2.271   0.268
 3742W        W 7806   0.494   7.677   0.968
 3743W        W 7807   6.972   1.774   2.812
 3744W        W 7808   8.201   0.107  10.642
 3745W        W 7809   3.743   1.372  10.930
 3746W        W 7810   7.818   3.594   0.036
 3747W        W 7811   4.140   0.856   3.061
 3748W        W 7812   3.619   5.537   9.340
 3749W        W 7813   2.731   6.570   9.032
 3750W        W 7814   8.923   3.006   1.422
 3751W        W 7815   5.503   2.637  10.528
 3752W        W 7816   5.189   3.062   0.228
 3753W        W 7817   4.267   1.639   9.338
 3754W        W 7818   4.312   5.127  10.509
 3755W        W 7819   1.304   7.679   3.332
 3756W        W 7820  10.226   2.993   3.017
 3757W        W 7821   5.756   7.403   9.036
 3758W        W 7822   4.813   7.967   2.774
 3759W        W 7823   3.736   4.187   9.055
 3760W        W 7824   4.791   2.875  11.912
 3761W        W 7825   4.677   5.089   2.074
 3762W        W 7826   1.524   5.162   8.656
 3763W        W 7827   3.819   3.220  11.069
 3764W        W 7828   5.643   4.122   7.989
 3765W        W 7829   1.460   3.096  10.863
 3766W        W 7830   0.033   4.222   9.069
 3767W        W 7831   2.406   8.905   9.673
 3768W        W 7832   9.869   1.399   1.009
 3769W        W 7833   3.152   1.168  10.595
 3770W        W 7834   6.792   0.425   1.132
 3771W        W 7835   7.882   7.436   0.314
 3772W        W 7836   7.953   1.889  10.551
 3773W        W 7837   1.496   7.726  11.356
 3774W        W 7838  10.452  10.280   3.135
 3775W        W 7839   4.168   1.341   2.747
 3776W        W 7840   0.964   4.939   1.723
 3777W        W 7841   5.560   5.673   0.174
 3778W        W 7842   2.761   7.444   1.260
 3779W        W 7843  10.267   1.822  10.299
 3780W        W 7844   1.537   4.469   9.682
 3781W        W 7845   8.630   8.330   1.400
 3782W        W 7846   7.806   0.456  10.569
 3783W        W 7847   5.164   3.628  10.361
 3784W        W 7848   4.999   5.473   9.964
 3785W        W 7849   1.594   5.642   0.964
 3786W        W 7850   1.936   2.890   2.045
 3787W        W 7851  10.210  10.087   2.288
 3788W        W 7852   1.826   4.098   9.911
 3789W        W 7853   6.147   5.539   3.544
 3790W        W 7854   5.564   6.966   1.466
 3791W        W 7855   7.636   5.011   1.676
 3792W        W 7856   5.695   5.593  10.310
 3793W        W 7857   1.901   4.308   2.334
 3794W        W 7858   7.681   3.765   0.513
 3795W        W 7859   3.011   9.039  10.419
 3796W        W 7860   0.047   4.632  10.818
 3797W        W 7861   3.532   9.965   2.303
 3798W        W 7862   3.279   0.429   1.655
 3799W        W 7863   9.780   7.403   8.801
 3800W        W 7864   2.482   4.783   8.915
 3801W        W 7865   0.223   1.365  10.882
 3802W        W 7866   6.947   5.437   0.532
 3803W        W 7867   0.859   9.924   1.188
 3804W        W 7868   6.407   8.854   0.458
 3805W        W 7869   7.159   7.588   9.658
 3806W        W 7870   7.459   3.214  11.294
 3807W        W 7871   9.909   1.851   1.835
 3808W        W 7872   3.077   7.958  11.086
 3809W        W 7873   0.427   7.367   2.871
 3810W        W 7874   4.487   6.415   1.212
 3811W        W 7875   4.995   3.036   9.831
 3812W        W 7876   0.889   3.943   1.245
 3813W        W 7877   1.993   9.551  10.986
 3814W        W 7878   1.166   2.222   1.810
 3815W        W 7879   7.906   2.399  10.555
 3816W        W 7880   5.708   1.612  11.754
 3817W        W 7881   5.598   1.271   3.038
 3818W        W 7882  10.232   7.704   2.216
 3819W        W 7883   9.384   5.447   2.172
 3820W        W 7884   0.910   4.153   0.204
 3821W        W 7885   0.356   7.230  10.130
 3822W        W 7886   4.725   5.049  10.817
 3823W        W 7887  10.369   3.468   9.714
 3824W        W 7888   9.337   2.671   2.170
 3825W        W 7889   4.968   6.463   2.864
 3826W        W 7890   7.447   6.593   8.918
 3827W        W 7891   8.936   5.584   9.643
 3828W        W 7892   7.331   5.217  10.465
 3829W        W 7893   8.366   4.241  10.860
 3830W        W 7894   8.191   1.807  11.568
 3831W        W 7895  10.475   7.099  11.912
 3832W        W 7896   3.279   7.211   2.311
 3833W        W 7897   6.047   0.394   3.310
 3834W        W 7898   9.393   3.386  10.524
 3835W        W 7899   0.812   0.267   9.463
 3836W        W 7900   8.318   9.903   8.951
 3837W        W 7901   5.888   0.410   2.816
 3838W        W 7902   0.364   0.202  10.776
 3839W        W 7903   9.398   9.197  11.182
 3840W        W 7904   2.030   9.404   1.912
 3841W        W 7905   0.864   6.522  10.048
 3842W        W 7906   7.018   5.616  11.023
 3843W        W 7907   2.092   5.236   3.016
 3844W        W 7908   8.668   7.201   8.994
 3845W        W 7909   4.739  10.297   2.432
 3846W        W 7910   7.593   9.966  10.096
 3847W        W 7911   2.383   8.442   3.017
 3848W        W 7912   8.739   2.005   0.359
 3849W        W 7913   0.175   5.617   0.031
 3850W        W 7914   6.417   8.933   1.429
 3851W        W 7915   9.165   5.763  10.507
 3852W        W 7916   7.814   4.113  11.990
 3853W        W 7917   2.370   6.019   1.790
 3854W        W 7918   4.175   1.856   2.806
 3855W        W 7919   5.922   6.849   3.865
 3856W        W 7920   2.109   7.143   9.873
 3857W        W 7921   4.004   7.923   2.264
 3858W        W 7922   4.689   0.889   8.656
 3859W        W 7923   7.285  10.009   1.627
 3860W        W 7924   7.024   2.232   3.052
 3861W        W 7925   1.916   3.317  11.024
 3862W        W 7926   1.199   9.730   8.822
 3863W        W 7927   7.448   3.720  11.122
 3864W        W 7928   5.952   3.484   1.407
 3865W        W 7929   2.353   3.139   2.845
 3866W        W 7930   7.374  10.496   0.328
 3867W        W 7931   7.865   6.523   2.762
 3868W        W 7932   2.890   6.948  11.854
 3869W        W 7933   4.969   4.680   0.426
 3870W        W 7934   2.385   4.790   2.724
 3871W        W 7935   0.635   0.620   2.303
 3872W        W 7936   9.962   4.534  10.476
 3873W        W 7937   7.155   0.450   3.312
 3874W        W 7938   1.660   1.621  11.802
 3875W        W 7939  10.211   0.629   1.394
 3876W        W 7940   9.386   4.646   9.798
 3877W        W 7941   2.827   7.026   0.412
 3878W        W 7942   8.416   6.497   0.829
 3879W        W 7943   1.385   4.264   3.217
 3880W        W 7944   3.620   6.478   1.691
 3881W        W 7945   1.297   0.242   9.026
 3882W        W 7946  10.255   6.715   0.312
 3883W        W 7947   6.943   3.679   0.354
 3884W        W 7948   4.404   0.088   2.671
 3885W        W 7949   7.491   8.775  10.757
 3886W        W 7950   3.388   1.032  11.030
 3887W        W 7951   4.649   2.350  10.714
 3888W        W 7952   4.934   8.481  10.457
 3889W        W 7953   9.341   8.479   3.325
 3890W        W 7954   4.710   9.394   2.944
 3891W        W 7955   6.100   4.098   8.647
 3892W        W 7956   9.239   7.964   8.943
 3893W        W 7957   8.148   8.359   9.044
 3894W        W 7958   7.134   2.270   1.505
 3895W        W 7959   3.376   0.579   9.793
 3896W        W 7960   2.308   7.809  11.566
 3897W        W 7961   0.437   5.203   0.193
 3898W        W 7962   1.965   4.566   0.889
 3899W        W 7963   2.820   5.951   0.048
 3900W        W 7964   6.197   1.899   3.461
 3901W        W 7965   2.605   2.535  10.278
 3902W        W 7966   6.680   0.304   9.395
 3903W        W 7967   2.896  10.364  10.661
 3904W        W 7968   8.630   4.239   1.226
 3905W        W 7969  10.274   4.566   8.792
 3906W        W 7970   6.714   1.253  10.526
 3907W        W 7971   7.543   5.654   3.107
 3908W        W 7972   5.261   6.148   9.121
 3909W        W 7973   2.356   6.762   1.166
 3910W        W 7974   4.732   3.295   0.211
 3911W        W 7975   6.050   7.544   1.677
 3912W        W 7976   7.002   6.441   1.753
 3913W        W 7977   9.660   3.441   8.592
 3914W        W 7978   4.157   1.247  11.830
 3915W        W 7979   7.965   7.487   2.664
 3916W        W 7980   7.804   9.945   9.057
 3917W        W 7981  10.220   3.666  11.315
 3918W        W 7982   2.639   5.057   2.341
 3919W        W 7983   1.292   1.847   9.060
 3920W        W 7984   5.080   4.627  11.041
 3921W        W 7985   9.382   6.431   1.761
 3922W        W 7986   5.169   8.543  11.070
 3923W        W 7987   3.695  10.436   2.209
 3924W        W 7988   9.430   7.189   1.488
 3925W        W 7989   7.414   2.083   0.703
 3926W        W 7990   5.183   7.680  11.043
 3927W        W 7991  10.345   0.694   9.570
 3928W        W 7992   4.084  10.353   0.880
 3929W        W 7993   7.556   3.569   9.953
 3930W        W 7994   4.716   1.744   9.070
 3931W        W 7995   0.219   8.644  11.408
 3932W        W 7996   0.890   5.700   0.291
 3933W        W 7997   7.079   6.700   2.342
 3934W        W 7998  10.079   3.729  11.804
 3935W        W 7999   5.669   0.774   2.186
 3936W        W 8000   4.276   9.083  10.536
 3937W        W 8001   1.265  10.443   9.447
 3938W        W 8002   6.967   9.957  10.772
 3939W        W 8003   7.926   4.108   2.362
 3940W        W 8004   2.674   0.709   3.392
 3941W        W 8005   1.712   8.328   1.794
 3942W        W 8006   8.984   0.868   2.846
 3943W        W 8007   6.963   9.025   2.743
 3944W        W 8008   2.645   2.756   2.722
 3945W        W 8009   4.616   3.658   1.564
 3946W        W 8010   0.467   0.773  11.989
 3947W        W 8011   0.354   5.347   9.875
 3948W        W 8012   2.298   9.000   1.767
 3949W        W 8013   3.717   8.951   1.341
 3950W        W 8014   8.488   0.303   9.425
 3951W        W 8015   7.015   0.328  11.262
 3952W        W 8016  10.360   4.992   2.415
 3953W        W 8017   4.595   6.885  10.264
 3954W        W 8018   7.214   9.004   0.276
 3955W        W 8019   6.230   4.327  11.756
 3956W        W 8020   4.204   0.802   8.476
 3957W        W 8021   1.915  10.423  10.657
 3958W        W 8022   7.971  10.500   0.360
 3959W        W 8023   4.361   5.764   8.284
 3960W        W 8024   9.911  10.335  11.976
 3961W        W 8025   6.111   2.331  11.268
 3962W        W 8026   8.923   4.767   2.184
 3963W        W 8027   5.250   6.653   8.487
 3964W        W 8028   6.960   2.407  10.563
 3965W        W 8029   1.068   9.102   0.241
 3966W        W 8030   5.470   4.683   0.345
 3967W        W 8031   6.961   7.718   0.571
 3968W        W 8032   9.977   3.197   2.607
 3969W        W 8033   2.398   2.932  11.815
 3970W        W 8034   2.609   6.088   3.513
 3971W        W 8035   9.433   9.009   2.524
 3972W        W 8036   6.847   9.048   1.160
 3973W        W 8037   2.360   7.664   1.737
 3974W        W 8038   9.530   8.314   9.239
 3975W        W 8039   3.698  10.349  10.813
 3976W        W 8040   9.770   4.284  10.914
 3977W        W 8041   6.519   1.463   2.772
 3978W        W 8042   5.672   2.378   2.344
 3979W        W 8043   1.209   9.555  11.988
 3980W        W 8044   6.283   7.442   1.239
 3981W        W 8045   5.594   7.380   2.793
 3982W        W 8046   8.299   0.124   8.445
 3983W        W 8047   1.673   0.456   2.542
 3984W        W 8048   7.402   5.206   8.919
 3985W        W 8049   2.731   3.588   9.285
 3986W        W 8050   2.714   0.303  10.895
 3987W        W 8051   5.081   2.268   9.176
 3988W        W 8052   2.336  10.298   2.990
 3989W        W 8053   4.303   1.677   1.903
 3990W        W 8054   4.314   6.594   9.695
 3991W        W 8055   0.752   8.881   9.863
 3992W        W 8056   6.927   9.879  11.278
 3993W        W 8057   7.230   1.727  11.319
 3994W        W 8058   9.317   5.641   9.279
 3995W        W 8059   6.188   3.116   3.578
 3996W        W 8060   0.762   8.561   1.958
 3997W        W 8061   9.438   1.858   8.557
 3998W        W 8062   4.774   8.866  11.272
 3999W        W 8063   5.275   9.858  10.099
 4000W        W 8064   1.356   8.030   1.508
 4001W        W 8065   1.242   2.936   0.387
 4002W        W 8066   1.761   5.959  10.215
 4003W        W 8067   9.387   0.706   1.943
 4004W        W 8068   2.263   2.247  11.522
 4005W        W 8069   4.541   3.905  11.016
 4006W        W 8070   0.899   7.056  10.781
 4007W        W 8071   1.507   0.254   3.384
 4008W        W 8072   0.553   1.789   9.815
 4009W        W 8073   9.514   7.121   0.988
 4010W        W 8074   0.329   7.338   1.442
 4011W        W 8075   3.207   4.823   1.272
 4012W        W 8076   2.811   5.921   2.084
 4013W        W 8077   4.167   7.992   8.747
 4014W        W 8078   6.088   4.314   8.177
 4015W        W 8079   6.490   3.350   0.561
 4016W        W 8080   2.949   7.866   8.600
 4017W        W 8081   7.129   0.928  11.888
 4018W        W 8082   3.185   0.249   9.420
 4019W        W 8083   2.685   9.949   2.797
 4020W        W 8084   8.566   7.924   3.202
 4021W        W 8085   6.982   9.513   2.960
 4022W        W 8086   6.068   7.113   2.003
 4023W        W 8087   6.581   7.431   3.131
 4024W        W 8088   1.147   0.719   2.210
 4025W        W 8089   4.539   9.775  11.781
 4026W        W 8090   0.026   4.638  10.295
 4027W        W 8091  10.458   7.585   1.219
 4028W        W 8092   2.645   4.313  11.537
 4029W        W 8093   5.190   1.725   9.853
 4030W        W 8094   4.544   0.389   9.445
 4031W        W 8095   5.132   1.192   2.336
 4032W        W 8096   6.116   7.268  10.813
 4033W        W 8097   0.389   0.676   1.845
 4034W        W 8098   5.738   5.168   1.644
 4035W        W 8099   4.908   0.434   8.660
 4036W        W 8100   7.982   9.389   0.587
 4037W        W 8101   4.233   5.644  10.468
 4038W        W 8102   9.734   8.926  10.482
 4039W        W 8103   4.298   6.207  10.531
 4040W        W 8104   8.706   9.042   3.604
 4041W        W 8105   0.749   3.570  10.293
 4042W        W 8106   2.284   7.678   1.233
 4043W        W 8107   0.993   8.758   9.427
 4044W        W 8108   4.610   4.062   8.795
 4045W        W 8109   3.349   3.822   1.340
 4046W        W 8110   7.535   2.764   1.466
 4047W        W 8111   9.572   5.567  10.264
 4048W        W 8112   3.147   6.477   2.909
 4049W        W 8113   9.522   9.379  10.061
 4050W        W 8114   2.586   7.513   8.888
 4051W        W 8115   7.511   3.644  11.623
 4052W        W 8116  10.370   5.706   1.207
 4053W        W 8117   4.590   4.704   3.508
 4054W        W 8118   2.770   1.302  10.929
 4055W        W 8119   7.879   0.258   1.605
 4056W        W 8120   1.541   5.651  10.555
 4057W        W 8121   7.531   7.056   0.170
 4058W        W 8122   0.389   9.046  10.876
 4059W        W 8123   2.861   7.505  11.165
 4060W        W 8124   6.571   9.452   1.324
 4061W        W 8125   5.637  10.406   1.930
 4062W        W 8126   7.426   5.334   9.500
 4063W        W 8127   8.030   2.257   1.395
 4064W        W 8128   6.022   3.676   9.922
 4065W        W 8129   5.814   7.458   0.326
 4066W        W 8130   3.409   7.944   1.877
 4067W        W 8131   5.677   6.911   9.218
 4068W        W 8132   6.059   9.073  10.846
 4069W        W 8133   8.447   6.442   2.111
 4070W        W 8134   0.352   8.549   1.680
 4071W        W 8135   6.900   5.005   2.779
 4072W        W 8136   4.135   3.897   8.905
 4073W        W 8137   9.039   4.043   1.505
 4074W        W 8138   4.930   6.895   8.137
 4075W        W 8139   6.129   1.396  11.237
 4076W        W 8140   7.984   8.978   3.002
 4077W        W 8141   3.271   7.107   0.734
 4078W        W 8142   4.965   0.419  10.774
 4079W        W 8143   4.060   3.959   1.391
 4080W        W 8144   6.542   2.966   0.255
 4081W        W 8145   2.251   3.520   3.155
 4082W        W 8146   1.682   7.175   0.574
 4083W        W 8147   6.039   3.158  11.110
 4084W        W 8148   4.687   3.790   3.014
 4085W        W 8149  10.280   4.126   2.844
 4086W        W 8150   7.995   3.685   3.290
 4087W        W 8151   8.439   0.731   3.294
 4088W        W 8152   8.396   1.717   3.041
 4089W        W 8153   1.350   6.501  10.786
 4090W        W 8154   4.050   5.598   1.641
 4091W        W 8155   3.267   2.405   3.174
 4092W        W 8156   2.667   9.314   9.854
 4093W        W 8157   6.208   1.772   9.932
 4094W        W 8158   0.763   4.116   1.708
 4095W        W 8159   5.546   7.027   8.718
 4096W        W 8160   6.170   8.534   0.827
 4097W        W 8161   9.166   5.954   9.995
 4098W        W 8162   3.783   3.601   1.156
 4099W        W 8163   9.062   4.617   2.657
 4100W        W 8164   9.874   0.948   1.220
 4101W        W 8165   5.033   9.541   9.241
 4102W        W 8166   2.395   2.587  10.780
 4103W        W 8167   1.371   6.565   0.901
 4104W        W 8168   2.907   8.914   9.581
 4105W        W 8169   0.953   3.802   3.295
 4106W        W 8170   4.204   1.229   1.685
 4107W        W 8171   0.684   7.327   8.896
 4108W        W 8172   5.559   3.823   1.414
 4109W        W 8173   9.024   0.348   9.962
 4110W        W 8174   0.991   3.049   2.855
 4111W        W 8175   2.960   7.192   2.717
 4112W        W 8176   3.149   3.829   9.079
 4113W        W 8177   8.352   0.315   2.959
 4114W        W 8178   9.791   8.992  11.514
 4115W        W 8179   5.087   6.709   0.767
 4116W        W 8180   0.000   2.826   1.923
 4117W        W 8181   8.664   6.636  10.812
 4118W        W 8182   4.258   9.107   2.807
 4119W        W 8183   9.973   3.067   9.322
 4120W        W 8184   7.447   9.294  10.748
 4121W        W 8185   5.985   5.298  11.502
 4122W        W 8186   9.432   4.280  10.545
 4123W        W 8187   6.696   4.286   2.315
 4124W        W 8188   3.725   9.828  10.295
 4125W        W 8189   7.288   2.200   9.256
 4126W        W 8190   9.741   0.769   0.219
 4127W        W 8191   5.061   3.738  11.012
 4128W        W 8192   0.501   8.265  10.249
 4129W        W 8193   0.824   7.873   2.730
 4130W        W 8194   5.092   3.099   3.050
 4131W        W 8195   9.918   0.278   0.737
 4132W        W 8196   7.498   6.285   0.021
 4133W        W 8197   3.555   1.099   9.841
 4134W        W 8198   8.281   4.279   9.841
 4135W        W 8199   2.250   3.275  11.459
 4136W        W 8200   4.129   6.152   8.857
 4137W        W 8201   4.598   4.656   0.101
 4138W        W 8202   7.909   1.355   8.821
 4139W        W 8203   9.544   0.857   2.751
 4140W        W 8204   6.643   2.303   1.820
 4141W        W 8205   4.765   1.867   1.391
 4142W        W 8206   5.778  10.348   3.439
 4143W        W 8207   4.361   7.411   9.426
 4144W        W 8208   5.795   3.180   1.884
 4145W        W 8209  10.415   3.277  10.609
 4146W        W 8210   5.165   9.066  10.959
 4147W        W 8211   8.614   2.873  10.947
 4148W        W 8212   5.529   0.676   1.240
 4149W        W 8213   4.213   7.757  10.292
 4150W        W 8214   2.506   5.668   8.438
 4151W        W 8215   1.375   6.113   2.426
 4152W        W 8216   4.717   4.973   0.739
 4153W        W 8217   0.297   7.980  10.623
 4154W        W 8218   7.446   6.078   0.909
 4155W        W 8219   4.623   5.158   2.629
 4156W        W 8220   5.232  10.055  10.576
 4157W        W 8221   5.745   6.215   9.891
 4158W        W 8222  10.442   1.143   2.921
 4159W        W 8223   7.496   1.104   3.423
 4160W        W 8224   5.670   9.006  10.142
 4161W        W 8225   2.720   5.719   9.053
 4162W        W 8226   3.622   1.601   9.936
 4163W        W 8227   5.702   2.385   1.399
 4164W        W 8228   3.401   5.775   9.957
 4165W        W 8229   8.022   2.928   0.682
 4166W        W 8230   3.405   6.094  11.389
 4167W        W 8231   2.470   6.531   8.598
 4168W        W 8232   2.377   1.947   1.497
 4169W        W 8233   4.561   5.569   1.830
 4170W        W 8234   6.898   2.149   9.585
 4171W        W 8235   0.358   0.033  11.342
 4172W        W 8236   8.380   6.935   2.009
 4173W        W 8237   6.452   3.378   1.323
 4174W        W 8238   9.402   6.201  10.408
 4175W        W 8239   9.006   6.825   9.073
 4176W        W 8240   2.427   2.881   1.657
 4177W        W 8241   0.767   8.356   9.807
 4178W        W 8242   1.947   8.449   2.685
 4179W        W 8243   2.724   9.244   8.834
 4180W        W 8244   8.930   9.128   9.606
 4181W        W 8245   5.954   6.773  11.609
 4182W        W 8246   8.673   4.989   9.374
 4183W        W 8247   5.039   2.724   3.393
 4184W        W 8248   1.699   3.231   1.684
 4185W        W 8249   4.283   6.445  11.001
 4186W        W 8250   2.702   9.101  11.773
 4187W        W 8251   0.791   9.407   1.911
 4188W        W 8252   7.466  10.281   2.089
 4189W        W 8253   9.764   4.347  10.014
 4190W        W 8254   4.087   0.378   3.289
 4191W        W 8255   4.517   8.947   0.658
 4192W        W 8256   7.228   5.728   2.168
 4193W        W 8257   0.784   3.750  10.770
 4194W        W 8258   3.113   2.191   2.210
 4195W        W 8259  10.414   9.850   1.432
 4196W        W 8260   5.927   9.581   3.601
 4197W        W 8261   6.927   8.158  10.785
 4198W        W 8262   0.788   5.160   2.152
 4199W        W 8263   0.510   1.909   2.267
 4200W        W 8264   1.152   6.453   8.640
 4201W        W 8265   4.493   1.731   2.390
 4202W        W 8266   0.871   3.066   8.975
 4203W        W 8267   2.723   6.486   0.838
 4204W        W 8268   0.486   7.731  11.391
 4205W        W 8269   3.714   0.432   1.963
 4206W        W 8270   0.835   1.794  11.395
 4207W        W 8271   4.953   4.266   9.109
 4208W        W 8272   7.744   0.781   1.804
 4209W        W 8273   5.501   6.691   3.588
 4210W        W 8274   1.263   6.071   9.939
 4211W        W 8275   9.998   4.025   0.215
 4212W        W 8276   8.385   1.278   3.365
 4213W        W 8277  10.235   5.483   2.678
 4214W        W 8278   5.756   7.070  10.070
 4215W        W 8279   7.475   2.705   1.974
 4216W        W 8280   9.208  10.309   9.882
 4217W        W 8281   0.312   5.453  11.057
 4218W        W 8282   4.765   7.942  10.321
 4219W        W 8283   8.859   1.556   9.257
 4220W        W 8284   1.218   3.984   1.935
 4221W        W 8285   3.739   5.829  11.708
 4222W        W 8286   6.568   8.359   2.719
 4223W        W 8287   3.234   6.973   9.054
 4224W        W 8288   1.366   2.270  11.880
 4225W        W 8289   7.897   9.428  10.534
 4226W        W 8290   6.736   4.025   9.312
 4227W        W 8291   8.390   2.611  11.909
 4228W        W 8292   8.024   9.988   0.343
 4229W        W 8293   7.590   6.595   0.485
 4230W        W 8294   8.770   9.526   2.274
 4231W        W 8295   4.563   4.226   3.248
 4232W        W 8296   6.014   8.595   9.374
 4233W        W 8297   3.735   1.311   1.913
 4234W        W 8298   0.852   6.912   9.205
 4235W        W 8299   7.874   1.808   0.043
 4236W        W 8300   6.679   6.486  11.334
 4237W        W 8301  10.451   8.273   3.112
 4238W        W 8302   9.648   3.857   8.893
 4239W        W 8303   4.220   7.412  11.272
 4240W        W 8304  10.411   9.422   0.589
 4241W        W 8305   4.671   8.926   3.150
 4242W        W 8306   3.181   3.728  10.092
 4243W        W 8307   6.062   9.567  11.008
 4244W        W 8308  10.481   9.701  11.418
 4245W        W 8309   1.514   3.717   2.960
 4246W        W 8310   7.615   1.299  10.624
 4247W        W 8311   8.387   7.065  10.795
 4248W        W 8312   4.301   5.254   8.402
 4249W        W 8313   2.279   3.910   8.762
 4250W        W 8314   4.742   6.017   1.023
 4251W        W 8315   1.892   3.058  11.900
 4252W        W 8316   3.308   7.157  10.450
 4253W        W 8317   9.336   2.830   1.695
 4254W        W 8318   3.578   2.727   2.305
 4255W        W 8319   4.724   7.036   2.488
 4256W        W 8320   6.109   2.233  10.149
 4257W        W 8321   1.807   5.987   1.757
 4258W        W 8322   7.812   9.788  11.691
 4259W        W 8323   6.662   6.160  11.958
 4260W        W 8324   9.385   9.064   1.311
 4261W        W 8325   9.438  10.475   2.682
 4262W        W 8326   1.940   9.757   0.704
 4263W        W 8327   2.059   9.953  10.413
 4264W        W 8328   0.383   2.900   0.709
 4265W        W 8329   2.165   4.511  10.847
 4266W        W 8330   3.261   4.452   3.594
 4267W        W 8331   0.035   2.826   0.340
 4268W        W 8332  10.306   8.209  10.731
 4269W        W 8333   5.235   9.477   0.773
 4270W        W 8334   4.795   2.327   1.186
 4271W        W 8335   1.710   8.477  11.777
 4272W        W 8336   3.212   7.200   1.402
 4273W        W 8337   0.244   5.251   3.578
 4274W        W 8338   8.916   6.196   8.482
 4275W        W 8339   6.952   4.076   0.678
 4276W        W 8340   1.347   7.853   0.306
 4277W        W 8341   2.856   9.833   1.870
 4278W        W 8342   2.117   6.638  11.799
 4279W        W 8343   1.930   9.435  11.483
 4280W        W 8344   5.963   4.339   9.084
 4281W        W 8345   8.004   9.703   9.919
 4282W        W 8346   8.141   8.619   2.671
 4283W        W 8347   9.364   1.692   9.844
 4284W        W 8348   3.614   3.570   2.150
 4285W        W 8349   3.567   9.516   9.910
 4286W        W 8350   1.381   3.202  11.852
 4287W        W 8351   2.204   3.730   9.807
 4288W        W 8352   3.226   8.855   3.411
 4289W        W 8353   8.371   5.254  10.954
 4290W        W 8354   3.250   0.682   2.957
 4291W        W 8355   3.803   4.641   8.310
 4292W        W 8356  10.234   6.054   2.917
 4293W        W 8357   6.552   4.871   1.260
 4294W        W 8358   3.723   4.556   1.947
 4295W        W 8359   2.618   2.017   8.853
 4296W        W 8360   4.409  10.100  10.439
 4297W        W 8361   7.049   2.309  10.063
 4298W        W 8362   9.566   2.983  10.823
 4299W        W 8363   1.682   7.536   9.047
 4300W        W 8364   6.673   6.198   4.016
 4301W        W 8365   1.801   7.053  11.760
 4302W        W 8366   0.037  10.226   9.592
 4303W        W 8367   0.268   3.111   1.197
 4304W        W 8368   9.494   5.647   0.719
 4305W        W 8369   8.940   5.049   8.924
 4306W        W 8370   8.522   6.608   1.648
 4307W        W 8371   0.865   4.783  10.720
 4308W        W 8372   2.309   4.765  11.251
 4309W        W 8373   3.870   8.287   9.478
 4310W        W 8374   2.083   1.019   1.293
 4311W        W 8375   6.337   9.813   9.277
 4312W        W 8376   5.076   4.226   8.607
 4313W        W 8377   6.137   2.263   1.674
 4314W        W 8378   4.680   5.875  10.494
 4315W        W 8379  10.309   2.993  11.910
 4316W        W 8380   8.428   4.253   0.244
 4317W        W 8381   7.847   9.011   2.497
 4318W        W 8382   2.857   8.511   2.764
 4319W        W 8383   3.350  10.360   2.929
 4320W        W 8384   0.011  10.461   0.774
 4321W        W 8385   2.749  10.313  11.685
 4322W        W 8386   8.189   6.652   3.126
 4323W        W 8387   0.258   6.552   9.281
 4324W        W 8388   4.143   9.234   1.426
 4325W        W 8389   3.438   0.343   8.563
 4326W        W 8390   6.550   3.681   1.986
 4327W        W 8391   8.949  10.204   0.061
 4328W        W 8392   0.374   8.961   2.165
 4329W        W 8393   1.332   1.291   0.033
 4330W        W 8394   8.857   9.983   3.030
 4331W        W 8395   0.561   0.983  11.031
 4332W        W 8396   5.945   6.409   3.585
 4333W        W 8397   6.173   0.960  10.934
 4334W        W 8398   7.878   0.834   0.366
 4335W        W 8399   9.586   7.368  11.899
 4336W        W 8400   2.356   1.122   8.957
 4337W        W 8401   2.014   9.820  11.826
 4338W        W 8402   3.356   7.470  11.230
 4339W        W 8403   0.040   2.668   1.049
 4340W        W 8404   2.757   2.197  11.378
 4341W        W 8405   5.232   9.991   0.008
 4342W        W 8406   6.525   8.396   1.755
 4343W        W 8407   4.732   5.509  11.819
 4344W        W 8408   1.677   7.925   9.883
 4345W        W 8409   1.310   2.747   2.614
 4346W        W 8410  10.160   7.268   0.956
 4347W        W 8411   6.560  10.261   9.419
 4348W        W 8412   4.089   8.497   9.881
 4349W        W 8413   5.977   0.005  11.758
 4350W        W 8414   0.115   5.331   0.882
 4351W        W 8415  10.272   6.541   9.069
 4352W        W 8416   8.122   4.111   9.378
 4353W        W 8417   3.359   2.396  10.421
 4354W        W 8418   7.677   5.266  11.421
 4355W        W 8419   6.616   6.906   0.384
 4356W        W 8420   6.124   1.865   0.053
 4357W        W 8421   9.301   0.307   1.292
 4358W        W 8422   5.916   5.735   9.868
 4359W        W 8423   9.034   5.718   2.466
 4360W        W 8424   9.520   0.010   0.926
 4361W        W 8425   0.466   6.075   9.346
 4362W        W 8426   7.498   6.145   2.941
 4363W        W 8427   6.096   6.121   9.516
 4364W        W 8428   6.710   3.063   9.371
 4365W        W 8429   0.823   8.995   2.706
 4366W        W 8430   4.914   2.668   1.964
 4367W        W 8431   3.071   0.224  11.299
 4368W        W 8432   4.235   1.060  10.478
 4369W        W 8433  10.390   6.947   8.744
 4370W        W 8434   3.734   3.327   3.042
 4371W        W 8435   7.579   3.982   4.349
 4372W        W 8436   9.350   6.162  11.377
 4373W        W 8437   2.681   7.416  11.656
 4374W        W 8438   0.523   7.742  11.928
 4375W        W 8439   7.141   4.994   1.920
 4376W        W 8440   0.321   5.055   2.653
 4377W        W 8441   4.172   6.262   2.893
 4378W        W 8442   3.602   3.762  10.375
 4379W        W 8443   5.569   1.659   0.924
 4380W        W 8444   3.746   0.758   8.890
 4381W        W 8445   7.531   1.343  11.122
 4382W        W 8446   2.720   9.760   9.017
 4383W        W 8447   4.726  10.035   0.805
 4384W        W 8448   6.676   8.481   2.241
 4385W        W 8449   5.046   4.017   9.886
 4386W        W 8450   6.924   0.787   9.578
 4387W        W 8451   2.125   6.894   1.894
 4388W        W 8452   8.812   2.912   0.012
 4389W        W 8453   5.090   6.677   2.333
 4390W        W 8454   0.773   2.231   1.170
 4391W        W 8455   9.017   8.868   0.870
 4392W        W 8456   9.850   8.198   2.786
 4393W        W 8457   3.321   7.607  10.222
 4394W        W 8458   4.898   6.202  11.558
 4395W        W 8459   7.049   5.394   1.024
 4396W        W 8460   7.913   6.291   0.913
 4397W        W 8461   8.339   5.926  11.359
 4398W        W 8462   6.321   2.717  10.930
 4399W        W 8463   8.342   6.340   2.597
 4400W        W 8464  10.011   6.170  10.979
 4401W        W 8465   2.095   8.516   2.139
 4402W        W 8466   8.951   2.649   1.015
 4403W        W 8467   9.497   5.456   1.687
 4404W        W 8468   4.083   8.902   0.982
 4405W        W 8469   2.590  10.001  10.437
 4406W        W 8470   5.076   9.561   1.285
 4407W        W 8471   7.047   7.482   9.163
 4408W        W 8472  10.127   6.668  10.971
 4409W        W 8473   4.124   3.758  11.790
 4410W        W 8474   9.934   2.995   8.801
 4411W        W 8475   2.890   9.901  11.399
 4412W        W 8476   5.524   0.746   0.728
 4413W        W 8477   0.204   7.041   3.378
 4414W        W 8478   5.599  10.329   9.435
 4415W        W 8479   7.919   3.299   9.709
 4416W        W 8480   7.389   1.435   8.656
 4417W        W 8481   5.444   5.527   1.882
 4418W        W 8482   9.537   4.485   2.598
 4419W        W 8483   9.938   4.079   1.973
 4420W        W 8484   9.299   8.847  10.811
 4421W        W 8485   5.987   3.522   9.365
 4422W        W 8486   2.832   8.327   0.262
 4423W        W 8487   1.484   4.702   0.912
 4424W        W 8488   9.777   8.890  11.015
 4425W        W 8489   9.832   5.195   0.976
 4426W        W 8490   1.448   6.163   9.449
 4427W        W 8491   8.072   6.106   9.483
 4428W        W 8492   5.195   0.310  10.301
 4429W        W 8493   4.985   3.757   0.511
 4430W        W 8494   2.708   1.190  10.331
 4431W        W 8495   8.545   1.703   2.537
 4432W        W 8496   4.571   3.845  11.529
 4433W        W 8497   5.228   9.997   9.616
 4434W        W 8498   1.381   6.677   3.040
 4435W        W 8499   0.418   8.218   2.740
 4436W        W 8500   6.114   4.280   2.628
 4437W        W 8501   8.031   0.216  10.153
 4438W        W 8502   3.519   9.925   3.187
 4439W        W 8503   5.450   8.564  10.345
 4440W        W 8504   9.412   7.277   0.372
 4441W        W 8505   2.368   7.090   2.496
 4442W        W 8506   2.801   1.834   9.516
 4443W        W 8507   2.352   7.766  10.454
 4444W        W 8508   6.122   4.178   0.259
 4445W        W 8509   4.295   8.052   2.867
 4446W        W 8510   2.690   4.604   9.331
 4447W        W 8511  10.365   8.429   1.774
 4448W        W 8512   1.817   0.313   8.895
 4449W        W 8513   2.217   4.149  11.304
 4450W        W 8514   4.800   6.060   0.021
 4451W        W 8515   6.037   0.839   2.542
 4452W        W 8516   4.654   9.009   9.193
 4453W        W 8517   8.520   1.083   1.428
 4454W        W 8518   8.376   2.651   2.522
 4455W        W 8519   4.675  10.348   1.936
 4456W        W 8520   9.055   0.703  10.770
 4457W        W 8521   0.770   8.500   3.419
 4458W        W 8522   6.116   1.673   1.468
 4459W        W 8523   5.243   8.204   2.740
 4460W        W 8524   0.315   1.686   1.781
 4461W        W 8525   7.398   7.159  10.502
 4462W        W 8526   8.298   5.199   3.063
 4463W        W 8527   7.051   5.384   3.808
 4464W        W 8528  10.292   4.201  11.760
 4465W        W 8529   0.329   7.548   1.919
 4466W        W 8530   9.930   5.518   1.419
 4467W        W 8531   5.651   3.512  11.767
 4468W        W 8532   4.073   2.392  11.375
 4469W        W 8533   6.026   4.091   0.767
 4470W        W 8534   8.002   3.571  10.667
 4471W        W 8535   3.138   0.306   2.634
 4472W        W 8536   5.741   9.146  11.764
 4473W        W 8537   2.832   0.745  10.592
 4474W        W 8538   6.681   1.402   0.446
 4475W        W 8539   7.402   5.570   9.961
 4476W        W 8540   4.179   3.456   1.433
 4477W        W 8541   3.590  10.043   0.003
 4478W        W 8542   4.260   9.613   2.749
 4479W        W 8543   5.626   6.583  10.271
 4480W        W 8544   9.387   1.504  10.782
 4481W        W 8545   8.256   3.746  10.268
 4482W        W 8546   0.693   5.505  11.386
 4483W        W 8547   0.433   1.892   0.893
 4484W        W 8548   4.177   7.053   0.704
 4485W        W 8549   4.227   0.735  11.835
 4486W        W 8550   5.264   8.576   9.344
 4487W        W 8551   1.801   2.110   9.839
 4488W        W 8552   3.341   6.125   9.567
 4489W        W 8553   7.044  10.084   0.317
 4490W        W 8554   1.685   7.750   3.695
 4491W        W 8555   8.428   3.293   9.815
 4492W        W 8556   6.570   2.137  11.482
 4493W        W 8557   1.783   6.981  10.267
 4494W        W 8558   0.353   6.026   2.006
 4495W        W 8559   5.938   7.096   9.603
 4496W        W 8560   2.697   5.146   3.345
 4497W        W 8561   1.866   0.364   1.759
 4498W        W 8562   1.698   7.972  11.936
 4499W        W 8563   6.279   8.253  10.307
 4500W        W 8564   7.048   2.207   2.526
 4501W        W 8565   6.171   8.975   9.060
 4502W        W 8566   8.887   6.183  10.401
 4503W        W 8567   6.322   2.763   3.223
 4504W        W 8568   7.082   2.721   1.211
 4505W        W 8569   9.930   6.481  11.444
 4506W        W 8570   9.514   3.793   1.441
 4507W        W 8571   0.880   6.055   2.314
 4508W        W 8572   7.778   8.144   1.041
 4509W        W 8573   4.260   3.275   3.537
 4510W        W 8574   0.545   8.961   0.212
 4511W        W 8575   5.676   0.277   2.348
 4512W        W 8576   2.171   0.358  10.239
 4513W        W 8577   9.860   6.569   9.384
 4514W        W 8578   3.790   2.979   0.481
 4515W        W 8579   8.859   4.604   9.662
 4516W        W 8580   0.969   9.434  11.534
 4517W        W 8581   1.344   1.422   2.762
 4518W        W 8582   1.799   5.741  11.984
 4519W        W 8583   7.892   7.142  11.208
 4520W        W 8584   9.179   0.077   3.140
 4521W        W 8585   1.510   9.503   0.867
 4522W        W 8586   8.578   0.246   2.013
 4523W        W 8587  10.415   4.194   1.739
 4524W        W 8588   7.187   5.087   1.411
 4525W        W 8589   8.453  10.438   2.398
 4526W        W 8590   3.186   3.321  11.552
 4527W        W 8591   4.640   6.858   0.443
 4528W        W 8592   3.395   5.732  10.762
 4529W        W 8593   9.714   5.663   8.925
 4530W        W 8594   7.874   9.064  10.964
 4531W        W 8595   2.932   0.502  11.784
 4532W        W 8596   9.089   3.747   9.931
 4533W        W 8597   5.727   5.272   2.227
 4534W        W 8598   4.247  10.307   2.251
 4535W        W 8599   0.451   8.071   1.893
 4536W        W 8600   0.904   6.631  11.082
 4537W        W 8601   0.798   3.901   8.202
 4538W        W 8602   5.739   6.892   2.796
 4539W        W 8603   8.373   2.126  10.774
 4540W        W 8604   6.730   0.791  10.843
 4541W        W 8605   5.815   1.526  10.319
 4542W        W 8606   8.259   7.267  11.521
 4543W        W 8607   5.062   9.103   2.310
 4544W        W 8608   6.996   5.281   9.851
 4545W        W 8609   9.836   5.953   0.464
 4546W        W 8610   6.959   3.288   9.764
 4547W        W 8611   4.738   3.807   2.500
 4548W        W 8612   8.659   7.165   9.836
 4549W        W 8613   5.522   7.605   3.244
 4550W        W 8614   3.553   7.146  10.893
 4551W        W 8615   3.010   0.688  11.063
 4552W        W 8616   8.062   8.993  11.939
 4553W        W 8617   9.826   5.112  11.920
 4554W        W 8618   8.931   1.889   9.636
 4555W        W 8619   6.140   3.783  11.787
 4556W        W 8620   7.366   0.327  10.343
 4557W        W 8621   1.139   2.214  10.898
 4558W        W 8622   3.294   3.303   1.329
 4559W        W 8623   8.935   7.815   2.854
 4560W        W 8624   4.743   9.414   0.600
 4561W        W 8625   7.073   1.761   1.430
 4562W        W 8626   2.220   8.648  10.114
 4563W        W 8627   4.328   9.726  10.871
 4564W        W 8628   3.119   5.553   1.856
 4565W        W 8629   5.708   3.093   9.307
 4566W        W 8630   7.182   8.087  10.315
 4567W        W 8631   6.717   5.334   1.433
 4568W        W 8632   9.830   0.774  11.694
 4569W        W 8633   3.938   9.791  11.704
 4570W        W 8634   3.690   6.963   1.503
 4571W        W 8635   1.481   0.197   1.488
 4572W        W 8636   6.064   5.807  11.327
 4573W        W 8637   3.837   4.048   2.197
 4574W        W 8638   4.072   4.290   2.610
 4575W        W 8639   3.237   4.770   3.206
 4576W        W 8640   9.158   6.910   2.564
 4577W        W 8641   2.627   8.383   3.498
 4578W        W 8642   3.843   0.857   1.698
 4579W        W 8643   4.839   6.702   9.852
 4580W        W 8644   2.575   0.229  11.456
 4581W        W 8645   3.339   3.133  10.920
 4582W        W 8646   9.561   9.348   3.395
 4583W        W 8647   6.973   2.917  11.356
 4584W        W 8648   1.265   1.572   1.732
 4585W        W 8649   5.082   6.939   1.242
 4586W        W 8650   7.053   7.209   2.288
 4587W        W 8651   8.028   6.996   2.375
 4588W        W 8652   5.501   3.790   2.688
 4589W        W 8653   8.723   9.778   3.495
 4590W        W 8654   3.652   4.706   1.475
 4591W        W 8655   5.979   8.336  11.955
 4592W        W 8656   1.251   8.076   2.528
 4593W        W 8657   7.876   0.393   2.812
 4594W        W 8658   1.879   8.805  10.979
 4595W        W 8659   1.880   9.463  10.053
 4596W        W 8660   4.641   2.850   2.905
 4597W        W 8661   9.920   1.386   1.529
 4598W        W 8662   6.180   0.389   2.385
 4599W        W 8663   6.591   7.040   1.315
 4600W        W 8664   3.828   4.099   0.151
 4601W        W 8665   3.671   0.697   3.273
 4602W        W 8666   7.835   5.288   9.862
 4603W        W 8667   7.096   8.508   9.992
 4604W        W 8668   4.718   9.025  10.225
 4605W        W 8669   0.830   0.920   1.882
 4606W        W 8670   4.252   7.492   0.470
 4607W        W 8671   2.764   1.051   0.679
 4608W        W 8672   2.763   0.431   2.974
 4609W        W 8673   7.648   3.296   0.725
 4610W        W 8674   4.197   5.332  10.053
 4611W        W 8675   0.541   2.776   2.825
 4612W        W 8676   4.240   4.381   9.031
 4613W        W 8677   7.382   3.864   0.088
 4614W        W 8678   1.924   6.471  10.334
 4615W        W 8679   3.704   4.584  11.963
 4616W        W 8680   8.467   9.011   2.818
 4617W        W 8681   6.421   8.093  10.818
 4618W        W 8682  10.436   6.476  11.330
 4619W        W 8683   6.047   5.568   8.993
 4620W        W 8684   0.749   5.910   2.805
 4621W        W 8685   0.054   6.597   1.235
 4622W        W 8686   8.657  10.467  10.864
 4623W        W 8687   0.030   2.666  10.026
 4624W        W 8688   9.832   5.167  11.052
 4625W        W 8689   5.058   2.817  11.420
 4626W        W 8690   0.600   9.001  11.330
 4627W        W 8691   2.691   2.335   8.455
 4628W        W 8692   8.762   1.077   9.347
 4629W        W 8693   3.505   4.176  11.760
 4630W        W 8694   8.814   8.869  10.619
 4631W        W 8695   8.490   5.015   2.288
 4632W        W 8696   1.140   2.934   0.919
 4633W        W 8697   9.372   6.510   9.219
 4634W        W 8698   7.112   8.349   0.803
 4635W        W 8699   9.862   2.332   1.673
 4636W        W 8700   5.632   4.740   2.858
 4637W        W 8701   2.937  10.422  10.163
 4638W        W 8702   4.521   0.548   2.490
 4639W        W 8703   6.759   6.203   9.923
 4640W        W 8704   5.922   8.583   3.402
 4641W        W 8705   3.061   8.059   2.576
 4642W        W 8706   5.090   8.978   8.921
 4643W        W 8707   6.547   3.608   9.995
 4644W        W 8708   2.550   3.302   9.857
 4645W        W 8709   0.965   6.168  10.855
 4646W        W 8710   8.891   7.429   3.212
 4647W        W 8711   6.909   6.487   3.668
 4648W        W 8712  10.349   4.716   9.826
 4649W        W 8713   5.474   0.445   1.846
 4650W        W 8714   5.493   3.617   1.920
 4651W        W 8715   8.513   7.719   1.415
 4652W        W 8716   6.506   4.552   4.133
 4653W        W 8717   1.801   9.805   1.185
 4654W        W 8718   8.632   4.141   9.482
 4655W        W 8719   0.375   2.882  11.955
 4656W        W 8720   5.000   8.590   2.942
 4657W        W 8721   8.351   5.154   3.546
 4658W        W 8722   8.077  10.361   8.853
 4659W        W 8723  10.431   2.495  11.951
 4660W        W 8724   4.285   8.588   2.804
 4661W        W 8725   9.557  10.074  10.903
 4662W        W 8726   3.895   4.644   9.366
 4663W        W 8727   1.166   7.419   9.042
 4664W        W 8728   4.778   2.093  11.767
 4665W        W 8729   8.770   0.140  11.360
 4666W        W 8730   3.903   5.600   8.462
 4667W        W 8731   3.734   2.288   1.507
 4668W        W 8732   2.225   2.372   9.023
 4669W        W 8733   7.389   4.591   0.813
 4670W        W 8734   5.168   0.840   9.441
 4671W        W 8735   7.043   8.477   1.774
 4672W        W 8736   9.352   3.180   3.270
 4673W        W 8737   0.825   1.006   8.908
 4674W        W 8738   1.172   7.990  11.063
 4675W        W 8739  10.495   0.530   2.175
 4676W        W 8740   5.663   7.040  10.962
 4677W        W 8741   6.570  10.124   3.472
 4678W        W 8742   8.518   1.479  10.851
 4679W        W 8743   7.536   4.804  10.728
 4680W        W 8744   4.674   4.685  10.461
 4681W        W 8745   3.765   0.902  11.680
 4682W        W 8746   9.602   3.829  10.327
 4683W        W 8747   8.675   3.220   9.350
 4684W        W 8748   3.320   5.521  11.980
 4685W        W 8749   5.686   4.799   9.877
 4686W        W 8750   0.256   0.837  10.178
 4687W        W 8751   3.263   5.874   8.523
 4688W        W 8752   1.837   7.912  10.435
 4689W        W 8753   6.601  10.226   1.882
 4690W        W 8754   8.086   9.856   1.915
 4691W        W 8755   4.614   7.864  11.181
 4692W        W 8756   2.606   0.891   1.159
 4693W        W 8757   6.210   7.406   0.018
 4694W        W 8758   9.328   2.473   9.524
 4695W        W 8759   1.822   6.745   2.772
 4696W        W 8760   1.671   6.850   9.789
 4697W        W 8761   0.215   2.031   9.515
 4698W        W 8762   8.535   6.059  11.816
 4699W        W 8763   3.173   2.846   8.873
 4700W        W 8764   9.908   0.878   1.734
 4701W        W 8765   5.469   8.992   0.803
 4702W        W 8766   6.118   3.263  11.662
 4703W        W 8767   9.993   1.724  11.917
 4704W        W 8768   3.022   4.097  11.831
 4705W        W 8769   1.753   1.300  10.248
 4706W        W 8770   3.574   0.067  11.252
 4707W        W 8771   0.374   6.930   8.958
 4708W        W 8772   7.040   5.777   1.348
 4709W        W 8773   5.504   2.844   9.712
 4710W        W 8774   8.474   2.161   1.690
 4711W        W 8775   8.461   9.754   0.289
 4712W        W 8776   6.445   9.344   0.346
 4713W        W 8777   6.971   4.678   4.348
 4714W        W 8778   8.547   3.807   9.860
 4715W        W 8779   3.225   2.331   1.440
 4716W        W 8780   1.370   5.203   1.379
 4717W        W 8781   0.208   0.717   3.164
 4718W        W 8782   7.897   5.004  11.038
 4719W        W 8783   0.719   4.982   9.743
 4720W        W 8784  10.283   5.661   9.638
 4721W        W 8785  10.138   3.608   8.490
 4722W        W 8786   9.117   4.732  10.647
 4723W        W 8787   7.623   0.413   0.360
 4724W        W 8788   5.293   4.041   2.279
 4725W        W 8789   9.902   9.939   3.103
 4726W        W 8790   1.953   8.305  11.019
 4727W        W 8791   9.251   4.056  11.803
 4728W        W 8792   1.402   5.547  10.056
 4729W        W 8793   2.190   8.461   9.646
 4730W        W 8794   8.441   6.431  11.286
 4731W        W 8795   8.352   8.352   3.051
 4732W        W 8796   7.672   9.972   1.305
 4733W        W 8797   7.076   3.588  10.172
 4734W        W 8798   9.393   6.003  10.899
 4735W        W 8799   7.810  10.230   1.722
 4736W        W 8800   4.737   5.820   9.529
 4737W        W 8801   6.191   6.249   2.295
 4738W        W 8802   7.513   2.178  10.258
 4739W        W 8803   6.605   0.213   0.687
 4740W        W 8804   6.141   0.928   8.415
 4741W        W 8805   7.378   0.874   0.398
 4742W        W 8806   9.581   3.852   9.819
 4743W        W 8807  10.391   9.213   2.064
 4744W        W 8808   6.163   8.053   1.902
 4745W        W 8809  10.211   1.563   0.336
 4746W        W 8810   7.105   5.088   0.190
 4747W        W 8811   8.583   3.069   2.298
 4748W        W 8812   2.813   5.186   9.036
 4749W        W 8813   8.245   6.204   9.937
 4750W        W 8814   4.214   6.722  10.558
 4751W        W 8815   3.642   3.668   8.943
 4752W        W 8816   0.838   3.520   8.703
 4753W        W 8817   4.322   3.308  10.452
 4754W        W 8818   3.684   6.717  10.049
 4755W        W 8819   0.775   0.734   3.159
 4756W        W 8820   2.775   8.349  10.867
 4757W        W 8821   4.673   4.938   9.333
 4758W        W 8822   5.521   5.862  10.766
 4759W        W 8823   5.321   5.057   1.955
 4760W        W 8824   7.490   0.752   9.605
 4761W        W 8825   5.133   6.208  11.043
 4762W        W 8826   6.536   6.104   3.028
 4763W        W 8827   5.501   1.352   9.461
 4764W        W 8828  10.430   3.510   0.457
 4765W        W 8829   2.470   5.226  11.500
 4766W        W 8830  10.177   3.995   3.667
 4767W        W 8831   9.388   6.588   2.244
 4768W        W 8832   2.667   1.212   9.472
 4769W        W 8833  10.401   9.114  10.890
 4770W        W 8834   0.874   3.114   0.062
 4771W        W 8835   4.652   6.417   3.692
 4772W        W 8836   2.452   5.160  -0.000
 4773W        W 8837   7.743   0.657  10.075
 4774W        W 8838   0.826   0.249   3.662
 4775W        W 8839   3.100  10.442   1.448
 4776W        W 8840   8.418   7.312   2.478
 4777W        W 8841   8.449   7.534   2.921
 4778W        W 8842   0.846   7.655   0.349
 4779W        W 8843   0.930   9.508   0.922
 4780W        W 8844   0.908   9.866  11.272
 4781W        W 8845   8.748   9.782  11.795
 4782W        W 8846   1.063   6.321   2.780
 4783W        W 8847  10.422   9.963   0.913
 4784W        W 8848   4.576   2.983  11.427
 4785W        W 8849   1.861   0.874   2.876
 4786W        W 8850   1.700   2.541   2.340
 4787W        W 8851   5.974   0.531   0.120
 4788W        W 8852   8.077   4.884   1.159
 4789W        W 8853   2.690   2.389   2.395
 4790W        W 8854   0.284   3.634  10.518
 4791W        W 8855   3.636   6.208  10.048
 4792W        W 8856   6.571   5.240   0.897
 4793W        W 8857   6.582   5.939   9.532
 4794W        W 8858   6.689   8.684   0.856
 4795W        W 8859   2.365   0.756   2.877
 4796W        W 8860   6.771   9.113   0.018
 4797W        W 8861   1.765   3.093   8.899
 4798W        W 8862   4.967   7.324   9.942
 4799W        W 8863   1.905  10.028   0.281
 4800W        W 8864   8.996   1.593   8.484
 4801W        W 8865   6.560   0.677   2.205
 4802W        W 8866   9.550   6.619   3.151
 4803W        W 8867   2.242   3.400   8.878
 4804W        W 8868   1.771   7.455   0.163
 4805W        W 8869   1.314   6.116  10.456
 4806W        W 8870   3.843   4.636   8.825
 4807W        W 8871   3.732   8.583   9.056
 4808W        W 8872   4.123   2.402   8.990
 4809W        W 8873   1.197   7.990   9.640
 4810W        W 8874   4.252   4.828   8.100
 4811W        W 8875   3.939   2.735  10.875
 4812W        W 8876   4.032  10.493   1.837
 4813W        W 8877   6.569   9.966   1.272
 4814W        W 8878   7.028   6.207   2.201
 4815W        W 8879   4.291  10.033   9.472
 4816W        W 8880   3.661   0.812   0.683
 4817W        W 8881  10.409   3.571   0.979
 4818W        W 8882   1.234   1.068  11.559
 4819W        W 8883   9.583   7.874   0.806
 4820W        W 8884   5.547   3.462   8.974
 4821W        W 8885   7.011   2.420  11.558
 4822W        W 8886   0.990   4.205  11.329
 4823W        W 8887   9.456   0.026  10.710
 4824W        W 8888   1.243  10.223   9.908
 4825W        W 8889   4.336   0.491  11.342
 4826W        W 8890   2.716   9.975   9.934
 4827W        W 8891   4.131   2.934   3.156
 4828W        W 8892  10.467   9.420  10.510
 4829W        W 8893   3.275   8.429   1.586
 4830W        W 8894   3.368   3.176   2.646
 4831W        W 8895   3.252   5.118  10.250
 4832W        W 8896   5.240   0.008   2.288
 4833W        W 8897   9.477   1.894   1.487
 4834W        W 8898   4.150   8.917   3.282
 4835W        W 8899   2.345   5.288   8.789
 4836W        W 8900   7.939   8.447   0.120
 4837W        W 8901   0.481   4.318   9.303
 4838W        W 8902   4.601   6.955   3.945
 4839W        W 8903   9.870   4.671   0.766
 4840W        W 8904   8.148   9.042   1.810
 4841W        W 8905   0.689   9.877  10.814
 4842W        W 8906   5.180   0.425  11.665
 4843W        W 8907   4.924   7.076   9.489
 4844W        W 8908   9.748   4.164  11.804
 4845W        W 8909   1.369   5.679   8.609
 4846W        W 8910   5.723   9.878  10.354
 4847W        W 8911   2.357   4.613   2.247
 4848W        W 8912   4.133   6.909  10.058
 4849W        W 8913   6.930   4.422   1.040
 4850W        W 8914   5.744  10.050   0.008
 4851W        W 8915   9.422   2.965   8.666
 4852W        W 8916   8.112   4.346  11.308
 4853W        W 8917   6.630   9.935  10.381
 4854W        W 8918   5.484   3.615   3.977
 4855W        W 8919   2.944   6.419  11.861
 4856W        W 8920   6.834   7.184   3.546
 4857W        W 8921   2.351  10.500   2.326
 4858W        W 8922   9.742   2.162  10.244
 4859W        W 8923   6.977   4.614   0.536
 4860W        W 8924   3.689   9.491   2.173
 4861W        W 8925   0.269   4.200   3.032
 4862W        W 8926   3.068   0.426   8.939
 4863W        W 8927   0.703   6.673   1.890
 4864W        W 8928   6.648   2.586  11.909
 4865W        W 8929   6.356   9.164   3.707
 4866W        W 8930   4.688   1.836  10.067
 4867W        W 8931   0.673   3.695   2.500
 4868W        W 8932   4.483   0.341   8.927
 4869W        W 8933   0.877   6.354   0.887
 4870W        W 8934   0.341   2.308  11.000
 4871W        W 8935  10.378   0.865   0.963
 4872W        W 8936   3.605   3.678  11.939
 4873W        W 8937   7.577   8.773  11.948
 4874W        W 8938   8.508   1.365  10.072
 4875W        W 8939   7.131   7.635  10.623
 4876W        W 8940   0.341  10.029   1.221
 4877W        W 8941   5.126   6.910   0.278
 4878W        W 8942   4.918   0.035   1.416
 4879W        W 8943   4.352   7.015   1.835
 4880W        W 8944   6.462   0.331   9.861
 4881W        W 8945   0.769  10.379   0.364
 4882W        W 8946   8.377   3.158  10.336
 4883W        W 8947   2.985   5.312   0.888
 4884W        W 8948   5.970   3.219   2.687
 4885W        W 8949   2.418   6.462   9.432
 4886W        W 8950   4.922   3.231   3.496
 4887W        W 8951   6.939   0.796  10.395
 4888W        W 8952   6.351   4.594   2.091
 4889W        W 8953   1.890   8.443  10.515
 4890W        W 8954   2.628   0.729  11.406
 4891W        W 8955   7.885   1.667   8.416
 4892W        W 8956   9.456   6.717   1.340
 4893W        W 8957   0.987   0.243   1.378
 4894W        W 8958   7.180   7.698   2.241
 4895W        W 8959   5.134   7.588  10.381
 4896W        W 8960   9.426   9.531   1.540
 4897W        W 8961  10.496   8.503   1.294
 4898W        W 8962   7.393   6.677   2.874
 4899W        W 8963   8.669   2.226   8.910
 4900W        W 8964   8.250   9.951  11.881
 4901W        W 8965   2.263   2.622   8.565
 4902W        W 8966   6.633   4.913   1.779
 4903W        W 8967   0.169   8.488   0.809
 4904W        W 8968   9.286   2.752   2.719
 4905W        W 8969   4.410   6.185  11.435
 4906W        W 8970   3.122  10.316   0.489
 4907W        W 8971   8.954   1.181  10.781
 4908W        W 8972   2.772   1.262   8.650
 4909W        W 8973   8.847   2.612  10.446
 4910W        W 8974   7.806   4.989   9.163
 4911W        W 8975   0.832   4.468   9.644
 4912W        W 8976   6.419   2.857  10.441
 4913W        W 8977   0.229   8.984   0.663
 4914W        W 8978   6.454   1.135   2.404
 4915W        W 8979   5.933   3.652   4.241
 4916W        W 8980   6.463   7.396   2.631
 4917W        W 8981   7.570   3.769   2.951
 4918W        W 8982   9.654   3.227   1.777
 4919W        W 8983   9.383   1.799  11.244
 4920W        W 8984   9.467   7.768   0.299
 4921W        W 8985   1.465   8.783   0.127
 4922W        W 8986   7.043   5.478   9.166
 4923W        W 8987   0.038   4.159  10.511
 4924W        W 8988   7.687   8.081  10.391
 4925W        W 8989   0.764   7.063   3.338
 4926W        W 8990   0.628   9.840   2.149
 4927W        W 8991   2.203   1.287  11.012
 4928W        W 8992   3.288   6.010  11.866
 4929W        W 8993   0.014   3.319  11.105
 4930W        W 8994   8.557   3.307   1.197
 4931W        W 8995   4.486   6.455   1.727
 4932W        W 8996   5.990   2.614  10.442
 4933W        W 8997   1.710   7.998   2.775
 4934W        W 8998   6.952   9.494  10.012
 4935W        W 8999   7.200   6.568  11.215
 4936W        W 9000   2.479   7.539   2.749
 4937W        W 9001   7.271   1.695   0.969
 4938W        W 9002   6.267   4.488   3.393
 4939W        W 9003   6.013   0.427  10.101
 4940W        W 9004   0.136   4.720   1.986
 4941W        W 9005   0.549   4.089   3.455
 4942W        W 9006   9.947   3.519   0.265
 4943W        W 9007   7.935   7.192   1.899
 4944W        W 9008   4.724   4.104   3.721
 4945W        W 9009  10.019   9.053   2.375
 4946W        W 9010   8.566   5.016   8.467
 4947W        W 9011   7.477   4.149  10.441
 4948W        W 9012   2.227   1.147  11.872
 4949W        W 9013   0.779   3.687   2.008
 4950W        W 9014   9.075   1.670   1.217
 4951W        W 9015   4.425   4.206  11.893
 4952W        W 9016   5.580   1.397   1.545
 4953W        W 9017   7.472   0.750   2.627
 4954W        W 9018   6.647   4.716   3.665
 4955W        W 9019   0.986   8.987   1.661
 4956W        W 9020   1.970   6.218   9.444
 4957W        W 9021   3.697   2.658   3.295
 4958W        W 9022   2.337   4.252  10.032
 4959W        W 9023   7.616   7.944   3.226
 4960W        W 9024   8.867   8.947   3.131
 4961W        W 9025   0.178   4.760   0.301
 4962W        W 9026   2.771   4.805  11.658
 4963W        W 9027   6.247   8.354   9.781
 4964W        W 9028   1.034   3.548   2.861
 4965W        W 9029   6.869   8.966   2.221
 4966W        W 9030   2.666   8.504   1.683
 4967W        W 9031   6.965   3.820  11.320
 4968W        W 9032  10.329   8.883   3.379
 4969W        W 9033   1.962   2.549  11.823
 4970W        W 9034   5.620   0.877   9.198
 4971W        W 9035   7.547   8.714   2.807
 4972W        W 9036   0.866   4.338   3.151
 4973W        W 9037   5.437   3.298   9.920
 4974W        W 9038   3.087   4.084   2.823
 4975W        W 9039   7.841   4.522  11.698
 4976W        W 9040   1.387   2.989   2.150
 4977W        W 9041   7.593   9.765   1.945
 4978W        W 9042   0.798   3.152   0.567
 4979W        W 9043   3.613   6.438   2.715
 4980W        W 9044   2.766   9.077   0.691
 4981W        W 9045   9.127   6.542   3.444
 4982W        W 9046   5.474   0.613  10.697
 4983W        W 9047   0.861   9.859   2.595
 4984W        W 9048   7.604   9.977   8.563
 4985W        W 9049   4.208   7.774  11.623
 4986W        W 9050   1.973   1.032   2.392
 4987W        W 9051   2.171  10.093   1.442
 4988W        W 9052   3.617   1.947   2.608
 4989W        W 9053   7.443   4.269  10.927
 4990W        W 9054   7.169   1.807   8.957
 4991W        W 9055   8.572   6.838   1.189
 4992W        W 9056   7.940   2.716   2.221
 4993W        W 9057   9.442   5.578   9.773
 4994W        W 9058   4.628   7.869   1.915
 4995W        W 9059   4.818   0.327  11.306
 4996W        W 9060   6.397   0.852  10.448
 4997W        W 9061   1.635   2.832  10.446
 4998W        W 9062   0.725   1.658   3.359
 4999W        W 9063   4.527   7.107   9.805
 5000W        W 9064   1.735   2.648   8.603
 5001W        W 9065   9.800   5.915  10.585
 5002W        W 9066   4.858   7.590   9.494
 5003W        W 9067   3.382   6.543   9.274
 5004W        W 9068   0.482   2.562   0.326
 5005W        W 9069   1.844   4.214   8.784
 5006W        W 9070   2.226   1.651   8.831
 5007W        W 9071   2.721   3.796   9.789
 5008W        W 9072   4.818   1.174  11.391
 5009W        W 9073   1.649   5.184   0.708
 5010W        W 9074   9.932   6.105   9.123
 5011W        W 9075   9.009   4.234   2.039
 5012W        W 9076   9.207  10.090   9.398
 5013W        W 9077   6.500   9.476  10.255
 5014W        W 9078   8.289   4.565   8.534
 5015W        W 9079   8.833   2.083  11.618
 5016W        W 9080   8.121   9.248  10.116
 5017W        W 9081   9.961   2.134   3.253
 5018W        W 9082  10.216   5.646   9.101
 5019W        W 9083   7.097   6.773  10.334
 5020W        W 9084   9.979  10.278  10.507
 5021W        W 9085   2.238   0.770   8.546
 5022W        W 9086   4.748   5.999   0.527
 5023W        W 9087   8.105   6.729  10.538
 5024W        W 9088   1.201   1.918   3.215
 5025W        W 9089   8.512   5.502   1.690
 5026W        W 9090   5.536   3.337   2.934
 5027W        W 9091  10.283   7.489   2.830
 5028W        W 9092   8.852   4.217   2.922
 5029W        W 9093   0.185   5.638   9.292
 5030W        W 9094   7.603   4.626  10.262
 5031W        W 9095   6.242   0.228   1.514
 5032W        W 9096   4.300  10.045   1.755
 5033W        W 9097   7.992   9.545   0.106
 5034W        W 9098   6.474   4.556   9.925
 5035W        W 9099   9.294   8.366   9.697
 5036W        W 9100   4.168   2.226  10.890
 5037W        W 9101   0.334   4.951   1.191
 5038W        W 9102   3.881   7.192   1.927
 5039W        W 9103   1.629  10.373   1.834
 5040W        W 9104   4.696   7.471   2.798
 5041W        W 9105   8.873   9.827   8.834
 5042W        W 9106   2.099   7.178   2.923
 5043W        W 9107   1.837   1.247   3.241
 5044W        W 9108   8.069   2.133   0.412
 5045W        W 9109   7.023   6.246  10.337
 5046W        W 9110   0.714   4.336  11.758
 5047W        W 9111   5.932   7.841   0.005
 5048W        W 9112  10.339   0.922  10.506
 5049W        W 9113   9.964   6.021   1.407
 5050W        W 9114   7.510   3.628  10.478
 5051W        W 9115   1.432   0.059   0.982
 5052W        W 9116   5.940   6.593   0.296
 5053W        W 9117   2.678   7.447   0.173
 5054W        W 9118   0.235   4.140  10.047
 5055W        W 9119   5.943  10.048  11.540
 5056W        W 9120   9.329   7.895   9.448
 5057W        W 9121   4.460   0.334   8.380
 5058W        W 9122   7.930   7.663  11.334
 5059W        W 9123   6.148   5.929  11.818
 5060W        W 9124   1.845   8.968  11.708
 5061W        W 9125   6.427   6.903  11.527
 5062W        W 9126   4.734   3.380  11.699
 5063W        W 9127   8.477   2.201   2.273
 5064W        W 9128   6.906   5.150  11.237
 5065W        W 9129   5.580   7.886  11.323
 5066W        W 9130   9.406   3.712   1.925
 5067W        W 9131   2.938   0.637   2.086
 5068W        W 9132   5.285   0.455  11.156
 5069W        W 9133   2.873   8.573   0.737
 5070W        W 9134   4.061   1.537  10.587
 5071W        W 9135   1.829   4.923  11.600
 5072W        W 9136   2.821   0.117   2.225
 5073W        W 9137   4.155   0.781   0.894
 5074W        W 9138   6.146   6.750   2.350
 5075W        W 9139   3.671   6.102   0.234
 5076W        W 9140   8.818   5.977  10.867
 5077W        W 9141   7.886   9.916   3.339
 5078W        W 9142   4.131   7.491   3.534
 5079W        W 9143   2.583   7.124   3.061
 5080W        W 9144   2.768   1.247   1.489
 5081W        W 9145   1.967   7.520   0.828
 5082W        W 9146   1.249   5.772   2.817
 5083W        W 9147   8.487   7.441  11.117
 5084W        W 9148   3.969   6.770   2.871
 5085W        W 9149   6.987   7.616   0.071
 5086W        W 9150   7.931   0.081   2.078
 5087W        W 9151   0.300   2.332   2.444
 5088W        W 9152   7.977   0.903   2.829
 5089W        W 9153   5.773   3.403   8.493
 5090W        W 9154   5.258   4.637   3.201
 5091W        W 9155   6.489   1.973   2.795
 5092W        W 9156   6.620   0.668  11.772
 5093W        W 9157   1.906   9.911  11.331
 5094W        W 9158   4.714   0.900   1.674
 5095W        W 9159   9.871   8.356   1.894
 5096W        W 9160   7.552   5.718   2.599
 5097W        W 9161   0.289  10.413   3.484
 5098W        W 9162   8.146   1.816   2.205
 5099W        W 9163   9.003   1.166   1.242
 5100W        W 9164   3.853   6.435   4.104
 5101W        W 9165   6.891   3.210   8.759
 5102W        W 9166   8.725   0.377   2.524
 5103W        W 9167   1.148   6.873   1.799
 5104W        W 9168   7.941   0.943  10.457
 5105W        W 9169   9.054   9.478  11.465
 5106W        W 9170   5.068   1.277   0.908
 5107W        W 9171   9.925   0.452  11.283
 5108W        W 9172   5.941   1.065  10.493
 5109W        W 9173   9.973   6.533   1.354
 5110W        W 9174   5.575  10.214   1.405
 5111W        W 9175   7.464   2.893   0.450
 5112W        W 9176   8.600   1.707   8.822
 5113W        W 9177   6.099   9.920   2.204
 5114W        W 9178   2.296   4.660   0.246
 5115W        W 9179   1.695   8.757   0.598
 5116W        W 9180   0.321   1.183   9.047
 5117W        W 9181  10.307   5.269  11.871
 5118W        W 9182   4.050   6.658  11.932
 5119W        W 9183   8.276   0.947   9.473
 5120W        W 9184   4.313   1.756  10.960
 5121W        W 9185   5.730   5.277   1.130
 5122W        W 9186   1.670   3.162  10.066
 5123W        W 9187  10.118   7.889   3.110
 5124W        W 9188   5.602   8.891  11.178
 5125W        W 9189   4.723   0.269  10.117
 5126W        W 9190   3.657   2.448   9.598
 5127W        W 9191   3.638   2.231  11.580
 5128W        W 9192   0.499   6.356  10.785
 5129W        W 9193   9.003   0.362   1.702
 5130W        W 9194   7.139   6.676   0.225
 5131W        W 9195   7.546   9.481   1.291
 5132W        W 9196   1.633   2.517   9.594
 5133W        W 9197   1.391   6.090   8.953
 5134W        W 9198   2.476   4.148   0.378
 5135W        W 9199   0.885   8.986   2.194
 5136W        W 9200   2.285   0.568   1.438
 5137W        W 9201   6.444   9.342  11.262
 5138W        W 9202   1.571   8.570   3.620
 5139W        W 9203  10.189   7.000   1.898
 5140W        W 9204  10.364   9.319   9.508
 5141W        W 9205   0.737   9.417  11.051
 5142W        W 9206   2.493   5.126   0.912
 5143W        W 9207   0.821   2.379  11.249
 5144W        W 9208   4.160   1.226   1.176
 5145W        W 9209   6.014   5.720   0.403
 5146W        W 9210   2.249   4.247  11.859
 5147W        W 9211   9.080   8.784   0.059
 5148W        W 9212   9.455  10.001   0.243
 5149W        W 9213   4.773   6.547  11.214
 5150W        W 9214   9.388   2.247   1.891
 5151W        W 9215   1.734   7.145   9.374
 5152W        W 9216   3.894   5.479  10.802
 5153W        W 9217   4.627   3.763   0.043
 5154W        W 9218   4.349   4.275  10.432
 5155W        W 9219   2.815   0.917   9.057
 5156W        W 9220   5.311   6.243  11.895
 5157W        W 9221   4.200   0.312   1.218
 5158W        W 9222   3.178   2.376   0.580
 5159W        W 9223   8.927   1.646  10.595
 5160W        W 9224  10.371   3.751  10.211
 5161W        W 9225   6.299   9.016  10.381
 5162W        W 9226   9.572   3.269   9.068
 5163W        W 9227   1.731   9.024  10.288
 5164W        W 9228   6.111   3.639  11.292
 5165W        W 9229   0.894   1.176   3.374
 5166W        W 9230   3.543  10.475   1.714
 5167W        W 9231   4.992   9.456   8.737
 5168W        W 9232   0.352   9.103  11.767
 5169W        W 9233   2.237   8.708   8.802
 5170W        W 9234   0.371   1.310   1.244
 5171W        W 9235   6.443   3.842   1.506
 5172W        W 9236   2.825   5.957   2.598
 5173W        W 9237   0.189   5.491   2.886
 5174W        W 9238   0.881   4.433   2.651
 5175W        W 9239   3.530   2.159  10.008
 5176W        W 9240   4.696   6.092   9.062
 5177W        W 9241   7.019   6.375   0.874
 5178W        W 9242   8.111   8.697   2.174
 5179W        W 9243   5.175   7.200  10.930
 5180W        W 9244   8.957   1.567  11.103
 5181W        W 9245   9.775   4.407   8.774
 5182W        W 9246   0.393   1.433   2.203
 5183W        W 9247   1.319   7.636   2.804
 5184W        W 9248   0.480   6.002   0.168
 5185W        W 9249   6.237   6.504  10.600
 5186W        W 9250   8.300   3.669   1.849
 5187W        W 9251   9.008   6.073   9.456
 5188W        W 9252   0.651   5.362  10.527
 5189W        W 9253   2.201   0.249   8.553
 5190W        W 9254   1.652   8.680   2.320
 5191W        W 9255   5.635   8.508   0.711
 5192W        W 9256   5.218   6.017   0.327
 5193W        W 9257   4.534   1.917   3.206
 5194W        W 9258   4.090   3.755   9.852
 5195W        W 9259   2.906   6.035  11.509
 5196W        W 9260   0.878   1.386  11.742
 5197W        W 9261   6.287   1.679   0.955
 5198W        W 9262   8.222   0.388   2.444
 5199W        W 9263   9.488   7.096   2.993
 5200W        W 9264   3.161   8.066  10.573
 5201W        W 9265  10.161   2.146   9.908
 5202W        W 9266   7.711   8.994   0.392
 5203W        W 9267   5.833   6.527   1.367
 5204W        W 9268   4.567  10.057   1.301
 5205W        W 9269   7.118   8.572  11.044
 5206W        W 9270   1.450   6.110  11.768
 5207W        W 9271   8.678   5.576  11.201
 5208W        W 9272   2.272   7.818   9.212
 5209W        W 9273   4.216   4.015   3.567
 5210W        W 9274   1.683   9.993   3.183
 5211W        W 9275   7.003   4.175   8.408
 5212W        W 9276   8.041   9.483   9.113
 5213W        W 9277   1.957   5.026   0.110
 5214W        W 9278   4.278   8.369   2.261
 5215W        W 9279   0.414   4.178   2.541
 5216W        W 9280   5.404   6.383   1.710
 5217W        W 9281   7.337   9.009   1.314
 5218W        W 9282   7.707   3.751   1.028
 5219W        W 9283   1.329   4.721   2.739
 5220W        W 9284   4.264   6.185   9.375
 5221W        W 9285   6.095   3.053   1.203
 5222W        W 9286   6.171   9.982  10.580
 5223W        W 9287   7.640   1.842   9.318
 5224W        W 9288   8.103   7.570  11.883
 5225W        W 9289  10.248   1.851   9.489
 5226W        W 9290   5.080   5.043   2.403
 5227W        W 9291   5.791   8.181  10.472
 5228W        W 9292   9.205   5.524   8.786
 5229W        W 9293   1.723  10.286   1.300
 5230W        W 9294   2.681   2.276   9.277
 5231W        W 9295   7.737   6.030   0.480
 5232W        W 9296   4.335   8.598   1.300
 5233W        W 9297   6.876   3.964   1.246
 5234W        W 9298   9.438   5.613   3.163
 5235W        W 9299   5.095   8.599   0.113
 5236W        W 9300   4.826   2.287  10.246
 5237W        W 9301   9.380   1.956   2.900
 5238W        W 9302   2.435   2.788   2.186
 5239W        W 9303   8.754   1.178   2.494
 5240W        W 9304   1.494   9.500   3.080
 5241W        W 9305   7.204   0.568  10.840
 5242W        W 9306   0.811   4.178   2.212
 5243W        W 9307  10.220   4.493   2.147
 5244W        W 9308   5.425   6.068   3.358
 5245W        W 9309   8.624   0.490   0.680
 5246W        W 9310   4.524   4.043   9.318
 5247W        W 9311   6.593   7.424   0.360
 5248W        W 9312   1.472  10.203   0.068
 5249W        W 9313   0.865   2.110   8.493
 5250W        W 9314   2.938   8.098   1.854
 5251W        W 9315   8.479   6.476  10.324
 5252W        W 9316   2.127   4.224   1.879
 5253W        W 9317   4.838  10.073   8.401
 5254W        W 9318   2.036   1.840   1.089
 5255W        W 9319   0.368   3.422   9.481
 5256W        W 9320   9.463   3.301   0.889
 5257W        W 9321   4.953   7.801   1.126
 5258W        W 9322   6.533   3.762   3.495
 5259W        W 9323   9.904   3.056   9.851
 5260W        W 9324   0.478   5.058   1.685
 5261W        W 9325   2.206   2.113   8.557
 5262W        W 9326   9.085   8.675   2.310
 5263W        W 9327   9.519   0.020   9.460
 5264W        W 9328   6.448   8.210  11.834
 5265W        W 9329  10.437   9.763   9.836
 5266W        W 9330   9.673   2.148   9.734
 5267W        W 9331   8.928   0.666   1.266
 5268W        W 9332   9.417   7.429   9.617
 5269W        W 9333   4.862   1.360   0.457
 5270W        W 9334   2.015   6.151   2.732
 5271W        W 9335   6.095   2.234   2.617
 5272W        W 9336   9.764   9.487   0.405
 5273W        W 9337   9.897   1.188   3.010
 5274W        W 9338   3.412   2.800   1.419
 5275W        W 9339   1.776   5.155   2.195
 5276W        W 9340   4.593   3.657   3.501
 5277W        W 9341   4.612   0.942   0.660
 5278W        W 9342   7.616   8.808   3.297
 5279W        W 9343   1.683   5.731  11.488
 5280W        W 9344   4.848   4.387   9.588
 5281W        W 9345   5.545   7.445   0.760
 5282W        W 9346   7.798   8.005  10.934
 5283W        W 9347   3.200   5.543   8.930
 5284W        W 9348   3.920   6.143  11.348
 5285W        W 9349   9.273  10.436   1.810
 5286W        W 9350   6.989   0.812   2.444
 5287W        W 9351   5.228   7.015   2.678
 5288W        W 9352   0.475   6.851   1.441
 5289W        W 9353   2.938   3.216   3.481
 5290W        W 9354   0.838   2.348   2.665
 5291W        W 9355  10.002   4.116  11.356
 5292W        W 9356   0.104   6.080   8.396
 5293W        W 9357   5.066   7.090   3.523
 5294W        W 9358   9.725   2.888   2.976
 5295W        W 9359   7.406  10.021  11.502
 5296W        W 9360  10.419   3.097   0.755
 5297W        W 9361   9.443   9.502   1.021
 5298W        W 9362   4.621   8.114   0.908
 5299W        W 9363   8.908   9.961   0.500
 5300W        W 9364   4.280   0.401   9.902
 5301W        W 9365   8.445   5.421   9.483
 5302W        W 9366  10.429   2.138   9.092
 5303W        W 9367   2.558   9.663   2.279
 5304W        W 9368   5.275   7.410   1.195
 5305W        W 9369   1.735   6.169   0.758
 5306W        W 9370   9.506   0.492  10.985
 5307W        W 9371  10.039   8.850   1.882
 5308W        W 9372   9.736   0.802   9.459
 5309W        W 9373   9.309   5.964   2.817
 5310W        W 9374   5.211   8.296   1.934
 5311W        W 9375   2.154   0.422   9.355
 5312W        W 9376   3.997  10.259   1.375
 5313W        W 9377   0.326   0.300  10.252
 5314W        W 9378   4.060   5.023   1.296
 5315W        W 9379   3.190   0.862   0.448
 5316W        W 9380  10.062   2.417   8.833
 5317W        W 9381  10.243   5.212   3.378
 5318W        W 9382   9.059   3.226   0.408
 5319W        W 9383   6.967  10.450  10.956
 5320W        W 9384   4.071   4.460   1.339
 5321W        W 9385   6.048   9.042  11.363
 5322W        W 9386   1.965   4.243  10.407
 5323W        W 9387   7.567   1.439  11.636
 5324W        W 9388   2.891   9.825   0.472
 5325W        W 9389   7.647   5.242   2.709
 5326W        W 9390   0.952   8.428   8.848
 5327W        W 9391  10.298   4.532  11.362
 5328W        W 9392   0.743   4.523   1.357
 5329W        W 9393   3.058   0.977   9.701
 5330W        W 9394   1.190   8.886   8.964
 5331W        W 9395   7.487   3.818   2.428
 5332W        W 9396   5.215   5.853  11.373
 5333W        W 9397   4.361   7.095   2.865
 5334W        W 9398   7.495   3.728   3.446
 5335W        W 9399   0.230   3.135   3.167
 5336W        W 9400   7.443   7.011   1.962
 5337W        W 9401   2.714   6.507   3.223
 5338W        W 9402   5.098   2.612   2.862
 5339W        W 9403   2.367   6.878   0.614
 5340W        W 9404   9.017   6.925   3.063
 5341W        W 9405   8.362   0.882   0.484
 5342W        W 9406   5.358   6.516   1.207
 5343W        W 9407   2.266   7.548   2.227
 5344W        W 9408   5.039   9.480  11.234
 5345W        W 9409   9.814   0.750   3.230
 5346W        W 9410   9.369   2.884   1.187
 5347W        W 9411   0.799   7.429   9.948
 5348W        W 9412   5.157   4.729   8.727
 5349W        W 9413   6.444   1.375   8.990
 5350W        W 9414   1.504   2.766   1.261
 5351W        W 9415   9.403   8.540  10.352
 5352W        W 9416   0.658   6.458   0.023
 5353W        W 9417   1.354   8.445   9.199
 5354W        W 9418   7.572   7.069   1.175
 5355W        W 9419   4.238   6.761   4.251
 5356W        W 9420   0.490   0.351   1.444
 5357W        W 9421   8.162   8.008  10.553
 5358W        W 9422   4.143   6.148  11.896
 5359W        W 9423   7.979   5.873   9.054
 5360W        W 9424   9.957   7.850   1.779
 5361W        W 9425   5.616   8.948  10.647
 5362W        W 9426   7.820   1.376   2.007
 5363W        W 9427   0.113   0.235   2.959
 5364W        W 9428   1.275   3.673   1.545
 5365W        W 9429   8.402   7.004   0.725
 5366W        W 9430   1.266   7.049   9.482
 5367W        W 9431   4.119   5.355   8.882
 5368W        W 9432   6.148   3.537   2.259
 5369W        W 9433   9.826   2.745   1.980
 5370W        W 9434   6.552   6.162   0.818
 5371W        W 9435   9.407   4.726   9.305
 5372W        W 9436   1.553   1.306   0.548
 5373W        W 9437   9.462   5.625  11.276
 5374W        W 9438   0.767   2.987  10.546
 5375W        W 9439   2.432   5.597   3.236
 5376W        W 9440   0.653   9.398   2.412
 5377W        W 9441   2.422   0.371   9.791
 5378W        W 9442   9.947   1.859   1.279
 5379W        W 9443   2.238   7.308  11.901
 5380W        W 9444   6.948   3.774  11.842
 5381W        W 9445   4.602   8.334   3.161
 5382W        W 9446   5.605   9.843  10.887
 5383W        W 9447   8.361   6.599   9.008
 5384W        W 9448   8.819   9.855  10.256
 5385W        W 9449   4.536   9.073   1.149
 5386W        W 9450   3.194   9.179   1.020
 5387W        W 9451   3.722   8.082   9.002
 5388W        W 9452   5.989   3.597   3.563
 5389W        W 9453   8.378   0.053   0.855
 5390W        W 9454   2.010   9.406   0.358
 5391W        W 9455   4.722   1.489  11.012
 5392W        W 9456   2.307   9.170   2.272
 5393W        W 9457   6.599   4.812  10.902
 5394W        W 9458   0.255   7.428  11.030
 5395W        W 9459   9.245   1.892   0.493
 5396W        W 9460   4.172   0.450   1.737
 5397W        W 9461   2.255   4.396   8.554
 5398W        W 9462   4.132   3.569   2.307
 5399W        W 9463   7.413   6.462   8.426
 5400W        W 9464   2.921   0.368   9.855
 5401W        W 9465   4.710   7.160   8.979
 5402W        W 9466   0.793   3.111   9.495
 5403W        W 9467   0.034   1.168   0.349
 5404W        W 9468   7.508   5.677   9.122
 5405W        W 9469   1.275   1.905   0.856
 5406W        W 9470   5.158   8.964  10.459
 5407W        W 9471  10.406   0.055  10.916
 5408W        W 9472   3.162   7.697   2.236
 5409W        W 9473   2.859   6.148   9.337
 5410W        W 9474   7.052   6.936  10.854
 5411W        W 9475   0.358   5.023  10.785
 5412W        W 9476   3.742   1.275   0.862
 5413W        W 9477   9.082   0.271   0.814
 5414W        W 9478   7.927   3.355  10.214
 5415W        W 9479   8.136   2.763   9.032
 5416W        W 9480   9.877   9.786  10.622
 5417W        W 9481   4.311   8.784   8.314
 5418W        W 9482   6.292  10.340   9.844
 5419W        W 9483  10.330   4.737   9.306
 5420W        W 9484   3.186   6.265   0.279
 5421W        W 9485   5.023   3.842   1.883
 5422W        W 9486  10.213   5.738  11.728
 5423W        W 9487   3.303   5.258   2.268
 5424W        W 9488   1.239   6.572   9.695
 5425W        W 9489   1.686   7.864  10.918
 5426W        W 9490   7.263   7.183   9.990
 5427W        W 9491   5.744   1.773  10.757
 5428W        W 9492   3.045   3.258   9.986
 5429W        W 9493   7.296   6.109   9.906
 5430W        W 9494   6.442   1.204   0.848
 5431W        W 9495   7.556   0.220  11.874
 5432W        W 9496   1.960   9.353   2.833
 5433W        W 9497   8.811   6.979   3.516
 5434W        W 9498   0.446   6.859   2.988
 5435W        W 9499   6.190   0.154   9.433
 5436W        W 9500   1.909   7.588   9.512
 5437W        W 9501   7.151   4.551  10.504
 5438W        W 9502   5.236   2.653   2.366
 5439W        W 9503   5.692   3.918   9.133
 5440W        W 9504   4.315   9.967   8.941
 5441W        W 9505   3.401   7.414   1.837
 5442W        W 9506   5.660   0.281  11.449
 5443W        W 9507   1.256   7.092  10.024
 5444W        W 9508   7.465   8.267  11.912
 5445W        W 9509   2.897   1.016   2.482
 5446W        W 9510   0.071   7.535   0.191
 5447W        W 9511   5.039   7.583   3.469
 5448W        W 9512   1.255   3.716   9.584
 5449W        W 9513   4.716   4.683   2.434
 5450W        W 9514   4.207   9.377   0.868
 5451W        W 9515   3.172   1.454   9.594
 5452W        W 9516   3.189   7.093   3.584
 5453W        W 9517   1.150   5.387   1.859
 5454W        W 9518  10.031   7.030   9.579
 5455W        W 9519   9.779   7.718   8.387
 5456W        W 9520   7.535   8.175   9.895
 5457W        W 9521  10.040   6.392   3.280
 5458W        W 9522   6.531   0.249  11.427
 5459W        W 9523   1.979   4.766   8.957
 5460W        W 9524   5.635   0.905   1.674
 5461W        W 9525   2.402  10.469  10.533
 5462W        W 9526   0.152   9.808   2.356
 5463W        W 9527   2.623   4.298   2.777
 5464W        W 9528   6.103   8.804  11.838
 5465W        W 9529   4.703   6.015   1.535
 5466W        W 9530   7.533   4.266   2.814
 5467W        W 9531   5.273   3.590   0.939
 5468W        W 9532   4.588   5.936   3.802
 5469W        W 9533   9.861   9.760   3.564
 5470W        W 9534   3.430   1.834   1.369
 5471W        W 9535   4.431   5.647   1.308
 5472W        W 9536   7.687   9.957   9.581
 5473W        W 9537   6.038   9.476  10.503
 5474W        W 9538   8.372   7.063   8.615
 5475W        W 9539   8.507   8.032   2.701
 5476W        W 9540   2.874   7.573   1.821
 5477W        W 9541   1.874   1.370   3.724
 5478W        W 9542   3.605   9.181   0.279
 5479W        W 9543   1.413   7.093   1.005
 5480W        W 9544   1.688   0.212   9.372
 5481W        W 9545   6.718   6.550  10.791
 5482W        W 9546   5.648   9.830   9.353
 5483W        W 9547   0.334   0.970   9.519
 5484W        W 9548  10.454   6.169   0.981
 5485W        W 9549   5.070   6.155  10.564
 5486W        W 9550   0.107   9.188  11.333
 5487W        W 9551   7.098   7.143   1.385
 5488W        W 9552   4.999  10.425   8.800
 5489W        W 9553   3.743   6.191   9.178
 5490W        W 9554   3.330   0.481   1.159
 5491W        W 9555   4.810   2.922  10.988
 5492W        W 9556   2.743   3.237  11.269
 5493W        W 9557   6.489   9.926   3.009
 5494W        W 9558   4.247   9.539  11.383
 5495W        W 9559   0.719   9.123   0.648
 5496W        W 9560   9.001   2.166   8.508
 5497W        W 9561   9.959   6.627   9.908
 5498W        W 9562   5.157  10.006  11.110
 5499W        W 9563   7.041   2.667   2.788
 5500W        W 9564   3.804   2.938   9.678
 5501W        W 9565   3.223   2.368  11.290
 5502W        W 9566   6.557   3.771   8.917
 5503W        W 9567   1.028   7.899  11.911
 5504W        W 9568  10.340   3.149  10.113
 5505W        W 9569   3.059   2.788   2.342
 5506W        W 9570   0.446   5.630   2.398
 5507W        W 9571   7.734   1.540   1.058
 5508W        W 9572   1.143   9.729   9.740
 5509W        W 9573   2.163   6.118   9.932
 5510W        W 9574   9.256   6.523   8.712
 5511W        W 9575   0.174   6.095   3.410
 5512W        W 9576   8.088   6.453   0.446
 5513W        W 9577   7.555   1.915   1.352
 5514W        W 9578   9.833   3.361   3.086
 5515W        W 9579   5.476   2.974   8.854
 5516W        W 9580   6.003   6.607   1.849
 5517W        W 9581   6.173   0.837   3.046
 5518W        W 9582   7.574   1.595   9.760
 5519W        W 9583   0.438   6.492  11.277
 5520W        W 9584   6.286   6.151   0.344
 5521W        W 9585   3.829   3.158   2.395
 5522W        W 9586   2.835   0.444   1.299
 5523W        W 9587   3.728   9.525  11.311
 5524W        W 9588   0.672   3.663   3.687
 5525W        W 9589   7.964   6.673   1.808
 5526W        W 9590   9.245   2.851   9.157
 5527W        W 9591   1.302   0.988   9.515
 5528W        W 9592   1.367   1.487   9.534
 5529W        W 9593   1.855   3.782  11.264
 5530W        W 9594   9.066   5.281  11.427
 5531W        W 9595   4.214   8.012   0.157
 5532W        W 9596   5.076   4.092   2.786
 5533W        W 9597   3.747   3.303   9.304
 5534W        W 9598   6.081   3.254   0.193
 5535W        W 9599   3.535   8.006   2.409
 5536W        W 9600   3.324   0.694  10.637
 5537W        W 9601   0.122   7.074   0.887
 5538W        W 9602   4.496   7.601   0.046
 5539W        W 9603   1.883   0.822  10.424
 5540W        W 9604   7.480   5.487   4.097
 5541W        W 9605   1.790   6.668   0.599
 5542W        W 9606   3.949   5.547   1.138
 5543W        W 9607   8.605   8.828   2.273
 5544W        W 9608   5.058   4.895  11.484
 5545W        W 9609   9.073   5.758  11.584
 5546W        W 9610   5.247   6.421   9.982
 5547W        W 9611   5.687   6.464   0.841
 5548W        W 9612   2.422  10.356   3.497
 5549W        W 9613   2.481   0.854  10.940
 5550W        W 9614   1.036   5.687  10.459
 5551W        W 9615   7.121   2.239   2.011
 5552W        W 9616   3.987   0.313  10.947
 5553W        W 9617   7.466   6.286   2.462
 5554W        W 9618   2.292   1.928   9.268
 5555W        W 9619   5.932   7.618   3.547
 5556W        W 9620   4.441  10.344   0.501
 5557W        W 9621   4.109   6.610   8.593
 5558W        W 9622   5.744   2.529  11.833
 5559W        W 9623   6.956   7.131   9.526
 5560W        W 9624   7.406   2.241  10.745
 5561W        W 9625   6.440   5.677   0.138
 5562W        W 9626   3.364   9.595   8.517
 5563W        W 9627   2.169   5.922   0.878
 5564W        W 9628   5.991   2.813   0.437
 5565W        W 9629   6.501   2.459   8.565
 5566W        W 9630   0.821   2.809   2.387
 5567W        W 9631   2.079   8.459   0.724
 5568W        W 9632   4.214   6.106   0.432
 5569W        W 9633   5.718   1.269  10.927
 5570W        W 9634   6.398   9.117   0.922
 5571W        W 9635   0.049   6.481   3.102
 5572W        W 9636   5.164   1.834   8.843
 5573W        W 9637   5.901   0.960   0.425
 5574W        W 9638   2.029   9.958   3.535
 5575W        W 9639   4.672   9.424  10.571
 5576W        W 9640   7.037   8.575   1.262
 5577W        W 9641   1.715   8.532   9.526
 5578W        W 9642   8.068   7.890   2.970
 5579W        W 9643   6.110   0.489  11.119
 5580W        W 9644   1.153   0.422   0.180
 5581W        W 9645   1.511   4.258   0.260
 5582W        W 9646   9.310   4.603   3.577
 5583W        W 9647   3.157   3.623   9.575
 5584W        W 9648   8.892   8.821  11.547
 5585W        W 9649   9.770   7.442   0.704
 5586W        W 9650   3.279   1.569  10.881
 5587W        W 9651   7.398   1.636   0.471
 5588W        W 9652   5.924   8.039   2.341
 5589W        W 9653   6.996   2.786   9.751
 5590W        W 9654   2.659   2.855   0.968
 5591W        W 9655   3.022   9.786   3.167
 5592W        W 9656   9.600   7.199   2.509
 5593W        W 9657   8.193   6.241   3.550
 5594W        W 9658   4.706   0.321  11.952
 5595W        W 9659   0.266   5.422   1.366
 5596W        W 9660   5.986   7.999   1.418
 5597W        W 9661   6.572   3.644  11.032
 5598W        W 9662   7.109   1.373   3.176
 5599W        W 9663   9.978   7.049   2.847
 5600W        W 9664   9.830   0.988  11.218
 5601W        W 9665   5.228   3.166   9.397
 5602W        W 9666   9.350   6.056   8.964
 5603W        W 9667   1.323   9.978   1.899
 5604W        W 9668   6.971   8.086  11.826
 5605W        W 9669   3.136   6.662   0.554
 5606W        W 9670   7.288  10.385  10.039
 5607W        W 9671   7.516   2.369   1.143
 5608W        W 9672   6.578   2.124   9.995
 5609W        W 9673   9.457   1.054   0.938
 5610W        W 9674   2.254   9.139  10.099
 5611W        W 9675   8.080   1.402  11.845
 5612W        W 9676   5.631   3.404   2.366
 5613W        W 9677   3.819   5.955   9.617
 5614W        W 9678  10.453   1.960   0.050
 5615W        W 9679   4.140   1.321   2.233
 5616W        W 9680   4.681   9.294   1.984
 5617W        W 9681   7.850   5.606   0.197
 5618W        W 9682   5.543   8.916   2.503
 5619W        W 9683   0.796   5.193  10.995
 5620W        W 9684   8.984   4.582   0.754
 5621W        W 9685   5.260   9.995   9.084
 5622W        W 9686   0.227   6.939   0.363
 5623W        W 9687   8.021   4.519   9.052
 5624W        W 9688   0.266   2.824   2.378
 5625W        W 9689   7.455   3.138  10.249
 5626W        W 9690   1.446   9.238   3.825
 5627W        W 9691   2.260  10.036  10.928
 5628W        W 9692   8.892   8.844   1.362
 5629W        W 9693   6.582   7.876   2.867
 5630W        W 9694   0.929   8.629   0.131
 5631W        W 9695   4.191   6.085   1.479
 5632W        W 9696   6.562   8.662   0.006
 5633W        W 9697   2.418   1.734   0.195
 5634W        W 9698   0.174   9.912   8.860
 5635W        W 9699   7.571   8.024   2.226
 5636W        W 9700   2.271   5.104   1.998
 5637W        W 9701   2.718   3.569  10.280
 5638W        W 9702   5.278   2.643   1.190
 5639W        W 9703   5.939   9.028   1.194
 5640W        W 9704   7.864   3.230   3.542
 5641W        W 9705   4.682   7.934  11.695
 5642W        W 9706   1.958   8.918   0.201
 5643W        W 9707  10.483   0.247   9.374
 5644W        W 9708   4.985   4.471  10.099
 5645W        W 9709   0.461  10.364   2.952
 5646W        W 9710   4.557   2.861   3.459
 5647W        W 9711   7.254   3.177   1.546
 5648W        W 9712   8.430   8.109   9.845
 5649W        W 9713   1.565   8.545  11.297
 5650W        W 9714   0.854   7.985   1.229
 5651W        W 9715   8.155   3.635   1.216
 5652W        W 9716   1.918   7.866   1.970
 5653W        W 9717   2.870   9.415   1.399
 5654W        W 9718   8.502   2.451   1.253
 5655W        W 9719   1.832   1.180   9.755
 5656W        W 9720   3.302   5.034   1.785
 5657W        W 9721   7.080   5.971   9.066
 5658W        W 9722   0.124   5.402  10.520
 5659W        W 9723   6.091  10.292   1.695
 5660W        W 9724   4.082   2.906  11.376
 5661W        W 9725   6.432   9.313   9.370
 5662W        W 9726   6.916   8.967  11.298
 5663W        W 9727   3.481   2.213   1.026
 5664W        W 9728   3.342   6.726  11.748
 5665W        W 9729   0.592   4.975  11.412
 5666W        W 9730  10.360   5.430  11.354
 5667W        W 9731   5.567   4.122   1.841
 5668W        W 9732   0.847   2.295   3.188
 5669W        W 9733   5.203   7.022   9.078
 5670W        W 9734   3.262   5.158   9.283
 5671W        W 9735   0.489   8.287   9.019
 5672W        W 9736   1.010   7.367   0.779
 5673W        W 9737   1.008   2.136   0.228
 5674W        W 9738   7.864   6.638   0.014
 5675W        W 9739   9.334   0.580   3.130
 5676W        W 9740   4.549   4.514   3.988
 5677W        W 9741   6.426   0.162  11.957
 5678W        W 9742  10.489   3.930   0.156
 5679W        W 9743   6.081   9.316  10.014
 5680W        W 9744   4.578   5.312   9.684
 5681W        W 9745   8.536   5.898   9.578
 5682W        W 9746   9.905   8.288  11.986
 5683W        W 9747   5.653   1.811   8.985
 5684W        W 9748   1.245   0.315  11.034
 5685W        W 9749   3.239   8.365   8.865
 5686W        W 9750   9.473   7.840  10.971
 5687W        W 9751   9.935   9.795   1.674
 5688W        W 9752   5.705   3.473  10.351
 5689W        W 9753   7.391   3.138   8.858
 5690W        W 9754   1.843   7.896   0.469
 5691W        W 9755   1.353   3.822   1.058
 5692W        W 9756   5.142   8.637   0.631
 5693W        W 9757   0.749   0.880  11.544
 5694W        W 9758   1.408   0.237   9.891
 5695W        W 9759   8.148   5.991   1.346
 5696W        W 9760   9.498   5.715   1.236
 5697W        W 9761   0.880   5.433  10.025
 5698W        W 9762   3.659   5.920   3.649
 5699W        W 9763   3.509  10.315   9.372
 5700W        W 9764   7.651   1.847   8.816
 5701W        W 9765   1.293   4.961  10.956
 5702W        W 9766   7.718   6.378   9.755
 5703W        W 9767   5.085   3.642   1.401
 5704W        W 9768   1.218  10.258   1.392
 5705W        W 9769   6.607   3.259   3.312
 5706W        W 9770   0.841   3.988   9.470
 5707W        W 9771   1.329   7.856  10.558
 5708W        W 9772   3.399   7.548   2.689
 5709W        W 9773   2.812   4.075  10.207
 5710W        W 9774   1.666   2.803  11.499
 5711W        W 9775   0.862   6.468  11.565
 5712W        W 9776   5.453   8.430   3.166
 5713W        W 9777   2.190   3.308   1.839
 5714W        W 9778   5.995   5.453  11.981
 5715W        W 9779   7.674   0.103   0.767
 5716W        W 9780   2.129   9.325   9.618
 5717W        W 9781   7.663   1.213   0.656
 5718W        W 9782   3.715   3.637   1.661
 5719W        W 9783   7.122  10.465   3.157
 5720W        W 9784   5.683   0.780  11.141
 5721W        W 9785   7.988   2.620   0.254
 5722W        W 9786   3.325   0.737  11.466
 5723W        W 9787   8.757   2.305   9.926
 5724W        W 9788   2.758   1.481   9.903
 5725W        W 9789   6.940   4.950  10.265
 5726W        W 9790   4.486   5.202   3.644
 5727W        W 9791   1.250   9.291   1.255
 5728W        W 9792   2.400   5.669   9.952
 5729W        W 9793   3.218   3.312   9.134
 5730W        W 9794   9.133   3.283   1.910
 5731W        W 9795   5.498   3.720   0.504
 5732W        W 9796   0.197   9.566  11.953
 5733W        W 9797   5.107   3.148   1.176
 5734W        W 9798   5.665   6.476   3.147
 5735W        W 9799  10.317   7.187  10.851
 5736W        W 9800   9.881   9.044   1.450
 5737W        W 9801   6.885   9.924   2.632
 5738W        W 9802   4.608   2.386   0.702
 5739W        W 9803   1.340   0.871   0.350
 5740W        W 9804   6.147   0.062  10.771
 5741W        W 9805   3.750   5.026   2.159
 5742W        W 9806   1.275   1.007   3.073
 5743W        W 9807   3.876   0.895  11.186
 5744W        W 9808   7.414   9.550   9.785
 5745W        W 9809   7.030   8.141  11.313
 5746W        W 9810  10.038  10.393   2.867
 5747W        W 9811   1.841   1.675   9.589
 5748W        W 9812   4.743  10.453   9.673
 5749W        W 9813   6.238   9.914   8.763
 5750W        W 9814   2.848   7.589   9.322
 5751W        W 9815   2.412   6.123  11.466
 5752W        W 9816   7.601   5.385   2.190
 5753W        W 9817   4.555   3.113   1.815
 5754W        W 9818   8.986   0.381   9.136
 5755W        W 9819   8.321   2.225  10.261
 5756W        W 9820   9.159  10.323   1.314
 5757W        W 9821   6.966   6.086  10.814
 5758W        W 9822   4.441   7.732   1.246
 5759W        W 9823   9.474   2.168   3.379
 5760W        W 9824   4.145   7.003   3.323
 5761W        W 9825   4.583   8.817   2.155
 5762W        W 9826   2.170   2.383   9.550
 5763W        W 9827   4.678   8.386  11.448
 5764W        W 9828   4.533   5.471   9.211
 5765W        W 9829   5.182   0.958  10.933
 5766W        W 9830   9.483   4.889   2.914
 5767W        W 9831  10.408   2.912   3.488
 5768W        W 9832   4.623   0.442   1.499
 5769W        W 9833   3.474   5.597   8.139
 5770W        W 9834   8.605   0.975   0.922
 5771W        W 9835   1.460   9.294   8.767
 5772W        W 9836   2.214   6.417   0.784
 5773W        W 9837   2.906   4.800   0.865
 5774W        W 9838   8.092   8.527   1.128
 5775W        W 9839   8.873   7.409  10.250
 5776W        W 9840   0.980  10.202  10.550
 5777W        W 9841   7.343   4.110   1.030
 5778W        W 9842   1.171   6.514  11.991
 5779W        W 9843   2.490   9.598  10.778
 5780W        W 9844   7.101   9.930  10.224
 5781W        W 9845   3.103   7.968   9.550
 5782W        W 9846   0.427   5.205   9.376
 5783W        W 9847   9.059   7.942   3.357
 5784W        W 9848   0.305   8.610  11.923
 5785W        W 9849   7.517   5.564   3.600
 5786W        W 9850   0.537   8.627  10.610
 5787W        W 9851   8.393   9.465   1.948
 5788W        W 9852   8.955   6.622  11.502
 5789W        W 9853   0.864   2.141   9.023
 5790W        W 9854   7.486   6.492   1.985
 5791W        W 9855   4.536   4.115   1.273
 5792W        W 9856   0.458   4.550  10.534
 5793W        W 9857   3.709   0.804   2.740
 5794W        W 9858   5.544   3.301  10.866
 5795W        W 9859   2.503   1.738  11.348
 5796W        W 9860   2.358   0.344   1.937
 5797W        W 9861   3.175   5.279   3.225
 5798W        W 9862   4.221  10.209  11.738
 5799W        W 9863   0.504   4.621   3.423
 5800W        W 9864   9.149   6.631  10.570
 5801W        W 9865  10.289   7.197   0.469
 5802W        W 9866   0.732   6.062   9.838
 5803W        W 9867   0.184   8.140   0.089
 5804W        W 9868   2.129   2.112   0.027
 5805W        W 9869   3.629   4.975   4.209
 5806W        W 9870   4.588   5.622   2.385
 5807W        W 9871   7.526   2.632   0.002
 5808W        W 9872   8.993   9.438  10.503
 5809W        W 9873   9.994  10.243  11.046
 5810W        W 9874   3.342   8.385   0.619
 5811W        W 9875   0.952  10.392   0.976
 5812W        W 9876   8.452   1.750  10.410
 5813W        W 9877   3.162   4.793   0.384
 5814W        W 9878   5.645   2.303   2.887
 5815W        W 9879   0.502   1.131  10.507
 5816W        W 9880   3.646   8.152   3.379
 5817W        W 9881   9.357   9.428   0.061
 5818W        W 9882   1.683   3.786  10.284
 5819W        W 9883   6.220   7.675  11.113
 5820W        W 9884   2.606  10.386   1.311
 5821W        W 9885   9.078   9.845   0.969
 5822W        W 9886   0.666   8.233  11.969
 5823W        W 9887   9.973   4.624  11.796
 5824W        W 9888   1.459   3.430   2.542
 5825W        W 9889   3.799   9.317   2.667
 5826W        W 9890   3.076   9.601   9.879
 5827W        W 9891   0.358   3.911   9.624
 5828W        W 9892   1.317   3.693   9.085
 5829W        W 9893   0.873   8.564   1.389
 5830W        W 9894   4.094   7.485   8.956
 5831W        W 9895   3.334   0.463   0.160
 5832W        W 9896   9.458   9.982   1.761
 5833W        W 9897   2.309   5.970   0.372
 5834W        W 9898   3.812   0.426  11.952
 5835W        W 9899   1.075   9.936   3.536
 5836W        W 9900   9.510   3.442  11.021
 5837W        W 9901   2.120   4.369   2.822
 5838W        W 9902   5.035   7.103   8.593
 5839W        W 9903   4.219   1.793   9.824
 5840W        W 9904   0.487  10.297   0.796
 5841W        W 9905   2.684   5.940  10.791
 5842W        W 9906   0.782   0.328   9.972
 5843W        W 9907   6.566   1.631  11.858
 5844W        W 9908   4.534   5.065   3.140
 5845W        W 9909   4.055   5.060   3.924
 5846W        W 9910   1.933   4.700   1.976
 5847W        W 9911   1.845   7.023   8.892
 5848W        W 9912   8.290   2.369   9.768
 5849W        W 9913   4.654   5.017  11.760
 5850W        W 9914   5.118   4.979  10.103
 5851W        W 9915   0.214   7.022   1.843
 5852W        W 9916  10.295   0.069   2.107
 5853W        W 9917   6.772   6.998   9.987
 5854W        W 9918   1.057   3.975  10.417
 5855W        W 9919   6.972   4.527   1.970
 5856W        W 9920   5.961   6.452   2.720
 5857W        W 9921   1.962   9.773   9.441
 5858W        W 9922   3.064  10.009  11.990
 5859W        W 9923   2.581   6.608  11.567
 5860W        W 9924   4.718   0.726  11.631
 5861W        W 9925   7.124   1.742   9.988
 5862W        W 9926   2.629  10.284   1.820
 5863W        W 9927  10.076   9.520   2.869
 5864W        W 9928   2.180   2.288   2.321
 5865W        W 9929   1.295   3.105  11.350
 5866W        W 9930   3.757   9.323   9.471
 5867W        W 9931   0.500  10.477  11.869
 5868W        W 9932   0.961   3.357  11.621
 5869W        W 9933  10.328   7.941   9.729
 5870W        W 9934   6.120   6.642   9.464
 5871W        W 9935   0.491   5.725  10.190
 5872W        W 9936   6.717   5.051   4.078
 5873W        W 9937   7.852   3.106   0.199
 5874W        W 9938   3.773   7.153   0.372
 5875W        W 9939   6.490   4.088  10.208
 5876W        W 9940   7.680   8.361   3.537
 5877W        W 9941   6.623   2.623  10.046
 5878W        W 9942   5.978   5.699   1.235
 5879W        W 9943   4.127   4.278   1.822
 5880W        W 9944  10.480  10.412  10.383
 5881W        W 9945   5.549   9.580  11.943
 5882W        W 9946   5.526   0.243   3.204
 5883W        W 9947   6.440   4.042  11.359
 5884W        W 9948   9.482   1.335   2.277
 5885W        W 9949   8.333   5.762  10.876
 5886W        W 9950   5.720   2.141   3.392
 5887W        W 9951   3.090   9.361   1.870
 5888W        W 9952   5.036   5.059   2.920
 5889W        W 9953   2.522   2.758   9.405
 5890W        W 9954   0.346   3.031   9.818
 5891W        W 9955   4.109   3.881  11.292
 5892W        W 9956   1.289   8.997   2.517
 5893W        W 9957   1.967   0.423   3.580
 5894W        W 9958   7.853   8.385   3.046
 5895W        W 9959   6.498   7.280   1.758
 5896W        W 9960   7.221   0.888   9.999
 5897W        W 9961   1.244   8.173   3.527
 5898W        W 9962   6.592   5.710   3.870
 5899W        W 9963   2.309   5.190  10.204
 5900W        W 9964   5.048   3.410   8.032
 5901W        W 9965   1.154   4.306   0.989
 5902W        W 9966   1.607   4.950   9.908
 5903W        W 9967   8.638   1.699   3.517
 5904W        W 9968   3.545   3.110   1.927
 5905W        W 9969   2.224   5.229   3.533
 5906W        W 9970   5.537   2.628   3.301
 5907W        W 9971   7.245   6.203   0.451
 5908W        W 9972   5.226   1.352  11.678
 5909W        W 9973   9.113   7.036   0.687
 5910W        W 9974   2.298   2.786   9.894
 5911W        W 9975  10.031   4.037  10.514
 5912W        W 9976  10.077   1.329  10.217
 5913W        W 9977   7.700   9.473   2.683
 5914W        W 9978   0.849   1.625  10.301
 5915W        W 9979   3.770   8.461  11.022
 5916W        W 9980   3.081   0.027  11.998
 5917W        W 9981   1.998   9.354   1.029
 5918W        W 9982   5.391   6.937   3.157
 5919W        W 9983   9.726  10.410   0.433
 5920W        W 9984   4.312   2.436  10.316
 5921W        W 9985   7.701   8.012   0.288
 5922W        W 9986   4.713   1.382   1.499
 5923W        W 9987   6.590   9.690  11.977
 5924W        W 9988   3.273   5.757   2.313
 5925W        W 9989   6.029   4.283   9.984
 5926W        W 9990   5.023   1.354   9.217
 5927W        W 9991   6.977   9.492  10.537
 5928W        W 9992   0.615   6.614   0.495
 5929W        W 9993   8.912  10.345   9.047
 5930W        W 9994   9.141   7.013   9.837
 5931W        W 9995   9.361   5.164   0.759
 5932W        W 9996   9.901   7.542   9.851
 5933W        W 9997   9.683   0.443   2.438
 5934W        W 9998   2.319   9.792   1.046
 5935W        W 9999   8.178   3.148   1.992
 5936W        W10000   3.312   1.271   2.260
 5937W        W10001   6.021   1.808   2.963
 5938W        W10002   6.052   7.387  10.321
 5939W        W10003   2.430   9.427   2.696
 5940W        W10004   7.248   1.214   9.599
 5941W        W10005   2.702   1.980  10.038
 5942W        W10006   8.624   9.536  10.834
 5943W        W10007   9.378   7.070   2.045
 5944W        W10008   5.735   6.085   2.449
 5945W        W10009   3.920   1.359  11.399
 5946W        W10010   3.244   4.320   1.290
 5947W        W10011   4.531   4.061   9.837
 5948W        W10012   5.199   5.604   3.128
 5949W        W10013   7.967   3.613   2.653
 5950W        W10014   2.785   3.365  10.749
 5951W        W10015   4.814   9.924   8.869
 5952W        W10016   1.872  10.312   8.728
 5953W        W10017   7.412   5.007   9.973
 5954W        W10018   1.908   2.328   0.476
 5955W        W10019   1.088   5.550   1.081
 5956W        W10020  10.269   8.040   1.384
 5957W        W10021   0.827   8.099  11.471
 5958W        W10022   0.968   0.155   8.607
 5959W        W10023   5.403   7.565   4.244
 5960W        W10024   0.001   5.892   2.485
 5961W        W10025   5.439   0.333   9.384
 5962W        W10026  10.450   7.006   9.260
 5963W        W10027   4.600   7.411  11.608
 5964W        W10028   1.302   2.353   9.210
 5965W        W10029   6.969   7.665  11.528
 5966W        W10030   5.287   2.163  10.087
 5967W        W10031   5.472   4.000  11.683
 5968W        W10032   3.317   5.537   3.658
 5969W        W10033   1.782   7.579   3.131
 5970W        W10034   9.014   1.518   2.202
 5971W        W10035   4.378   4.536   9.491
 5972W        W10036   6.591   2.109   0.036
 5973W        W10037   4.627  10.461  11.575
 5974W        W10038   3.181   7.061   9.979
 5975W        W10039   4.623   4.407   8.406
 5976W        W10040   3.233   9.914   2.722
 5977W        W10041   3.378   3.483   3.402
 5978W        W10042   5.763   5.581   8.576
 5979W        W10043   6.054  10.073  11.049
 5980W        W10044   2.551   9.433   1.819
 5981W        W10045   2.960   6.070   3.138
 5982W        W10046   9.969   9.737   0.816
 5983W        W10047   9.781   1.680   3.125
 5984W        W10048   5.579   4.368   8.443
 5985W        W10049   2.547   9.167  10.507
 5986W        W10050   1.257  10.319   0.539
 5987W        W10051   9.209   0.918   2.380
 5988W        W10052   5.080   8.169   0.418
 5989W        W10053  10.210   8.862   9.073
 5990W        W10054   9.505   1.406   2.776
 5991W        W10055  10.026   1.839   8.981
 5992W        W10056   2.510   8.236   0.861
 5993W        W10057   8.464   1.073  10.514
 5994W        W10058   3.736   7.078   1.013
 5995W        W10059   6.623   6.585  10.265
 5996W        W10060   3.033   2.687   9.350
 5997W        W10061   8.905   6.089   3.258
 5998W        W10062   8.684   3.873   3.737
 5999W        W10063   9.114  10.269  11.054
 6000W        W10064   9.804   8.895   3.304
 6001W        W10065   5.713   4.766   9.004
 6002W        W10066   0.271   2.223   1.285
 6003W        W10067   2.654   3.852  10.732
 6004W        W10068  10.272   2.649   1.507
 6005W        W10069   3.372   8.460   2.629
 6006W        W10070   5.493   2.268   8.809
 6007W        W10071   3.694   4.128   3.560
 6008W        W10072   5.596   4.896   8.516
 6009W        W10073   3.354   7.511   9.727
 6010W        W10074   4.664   8.126   1.451
 6011W        W10075   9.043   1.604   2.702
 6012W        W10076   9.497   9.946   1.254
 6013W        W10077   8.689   2.734   9.090
 6014W        W10078   2.633   3.060  10.339
 6015W        W10079   2.267   3.834  10.319
 6016W        W10080   0.623   7.580  10.578
 6017W        W10081   6.691   1.668  11.307
 6018W        W10082   8.560   8.862  11.992
 6019W        W10083   2.281   9.878   1.911
 6020W        W10084   6.370   0.494   9.032
 6021W        W10085   7.342   5.717   0.232
 6022W        W10086   9.853   9.228   8.921
 6023W        W10087   6.686   7.879   3.386
 6024W        W10088   1.842   6.532   1.123
 6025W        W10089   8.075   9.445   1.103
 6026W        W10090   7.421   5.607   0.716
 6027W        W10091   0.289   4.733   9.552
 6028W        W10092   1.649   1.980   0.179
 6029W        W10093   2.225  10.290  11.954
 6030W        W10094   5.703   1.587   0.271
 6031W        W10095   0.746   1.276   9.348
 6032W        W10096   2.644   5.505   9.517
 6033W        W10097   2.825   4.247   3.253
 6034W        W10098   8.895  10.433   2.733
 6035W        W10099   1.813   3.714   8.930
 6036W        W10100   7.925  10.363   9.358
 6037W        W10101   5.218   1.892   1.697
 6038W        W10102   6.604   3.068  11.732
 6039W        W10103   6.397   3.288  10.712
 6040W        W10104   8.123   5.718  11.768
 6041W        W10105   8.949   5.304  11.971
 6042W        W10106   1.859   1.260   8.774
 6043W        W10107   8.793   0.174   1.238
 6044W        W10108   3.321   8.152   1.133
 6045W        W10109   0.692   9.813   8.901
 6046W        W10110   4.229   7.570   3.049
 6047W        W10111   5.531   4.991   9.430
 6048W        W10112   2.402   9.983   0.594
 6049W        W10113   1.784   5.684   2.842
 6050W        W10114   6.520  10.456   1.116
 6051W        W10115   5.073   0.806  10.461
 6052W        W10116   6.036   2.255  10.774
 6053W        W10117   8.116   9.682   2.412
 6054W        W10118   7.263   7.959   1.803
 6055W        W10119   4.172   1.438   3.237
 6056W        W10120   4.104   2.640   2.192
 6057W        W10121   0.272   9.627  11.005
 6058W        W10122   6.910   1.336   1.664
 6059W        W10123   5.156   9.285   1.828
 6060W        W10124   8.196   2.423   0.844
 6061W        W10125   3.794   0.885  10.692
 6062W        W10126   6.012   7.222   2.498
 6063W        W10127   3.277   5.793   0.436
 6064W        W10128   6.964   8.823   9.443
 6065W        W10129   7.666   7.599  10.516
 6066W        W10130   3.474   5.511   0.846
 6067W        W10131   2.016   5.364  11.728
 6068W        W10132   8.569   0.714   0.052
 6069W        W10133   0.395   2.386   0.802
 6070W        W10134   9.739   7.862   9.059
 6071W        W10135   1.796   2.679   0.853
 6072W        W10136   7.882  10.328  10.959
 6073W        W10137   9.148   0.332  10.446
 6074W        W10138   5.853   8.446   8.434
 6075W        W10139   5.114   5.170  11.974
 6076W        W10140   4.706   7.376   1.812
 6077W        W10141   4.306   4.735   2.710
 6078W        W10142   0.975   5.557   2.430
 6079W        W10143   6.126   0.474  11.637
 6080W        W10144   7.936   5.217  11.851
 6081W        W10145   7.145   1.701   9.462
 6082W        W10146   5.701   7.539   9.557
 6083W        W10147   9.300   8.769   9.387
 6084W        W10148   7.582   4.970   1.107
 6085W        W10149   8.808   0.716  10.301
 6086W        W10150   1.729   1.782   0.650
 6087W        W10151   1.692   0.820   1.587
 6088W        W10152   1.176   5.195   3.525
 6089W        W10153  10.247   2.782   2.391
 6090W        W10154  10.496   8.913   1.651
 6091W        W10155   5.677   1.694  11.251
 6092W        W10156   8.079   1.284   0.347
 6093W        W10157   2.187  10.459   9.573
 6094W        W10158   2.649   6.358  11.091
 6095W        W10159   4.156   9.425   3.219
 6096W        W10160   8.853   5.090   0.841
 6097W        W10161   9.515   9.074   0.787
 6098W        W10162   9.304   9.845  10.058
 6099W        W10163   2.868   3.149   9.493
 6100W        W10164   3.126   6.219  10.029
 6101W        W10165   6.657   3.236   2.220
 6102W        W10166   7.000   6.929   3.134
 6103W        W10167   8.681   2.393  11.131
 6104W        W10168   3.141   4.406  11.439
 6105W        W10169   4.190   0.026   9.548
 6106W        W10170   6.651   7.582   9.548
 6107W        W10171   2.448   1.645  10.294
 6108W        W10172   0.231   5.715  11.544
 6109W        W10173   8.400   7.765  11.485
 6110W        W10174   0.217   1.797  11.173
 6111W        W10175   4.562   9.493   9.023
 6112W        W10176   3.541   2.813   9.242
 6113W        W10177   0.069   1.351  10.342
 6114W        W10178   7.623   0.635   0.813
 6115W        W10179   2.185   8.156  10.162
 6116W        W10180   8.970   1.223  10.265
 6117W        W10181   3.834   8.037  11.359
 6118W        W10182   8.997   5.520   0.488
 6119W        W10183   6.513   4.434   8.442
 6120W        W10184   7.939   2.820  11.765
 6121W        W10185   6.392   0.973   0.393
 6122W        W10186   7.083   5.507   3.313
 6123W        W10187   3.467   5.031   0.024
 6124W        W10188   4.622   0.257   3.435
 6125W        W10189   1.556  10.164   3.681
 6126W        W10190   3.619   3.150   8.826
 6127W        W10191   2.849   4.644   2.512
 6128W        W10192   7.103   4.047   2.091
 6129W        W10193   9.831   7.466   3.101
 6130W        W10194   2.680   5.002   0.439
 6131W        W10195   8.874   7.718   9.257
 6132W        W10196   6.869   1.270   9.966
 6133W        W10197   5.899   8.142   0.448
 6134W        W10198   7.152   4.846   3.893
 6135W        W10199   4.574   0.002   1.009
 6136W        W10200   8.539   4.057  11.343
 6137W        W10201   3.169   5.679  11.226
 6138W        W10202   5.634   2.650   1.892
 6139W        W10203   6.432   8.831   9.540
 6140W        W10204   2.578   1.958   2.168
 6141W        W10205   3.369   9.790   1.842
 6142W        W10206   0.635   7.426   8.369
 6143W        W10207   5.625   8.314   1.176
 6144W        W10208   2.480   4.813   9.861
 6145W        W10209   0.245   4.351  11.969
 6146W        W10210   3.716   0.870   1.199
 6147W        W10211   0.410   3.821   9.134
 6148W        W10212   5.918   9.542   2.490
 6149W        W10213   1.706   3.789   1.833
 6150W        W10214   4.780   6.270   2.431
 6151W        W10215   1.735   8.094   3.310
 6152W        W10216   1.737   3.904   9.412
 6153W        W10217   4.728   0.765  11.106
 6154W        W10218   9.901   8.493  11.504
 6155W        W10219   0.422   6.168   2.480
 6156W        W10220   2.342   1.756   9.744
 6157W        W10221   8.014   5.096   2.112
 6158W        W10222   5.484  10.320  10.214
 6159W        W10223   3.332   2.352   2.636
 6160W        W10224   1.783   3.523   3.345
 6161W        W10225   5.135   9.547   0.270
 6162W        W10226   6.043   1.282   2.785
 6163W        W10227   8.948   2.021   2.410
 6164W        W10228   9.142   5.099   1.836
 6165W        W10229   0.712   7.183   1.762
 6166W        W10230   2.264   4.158   0.895
 6167W        W10231   7.132   1.259   0.717
 6168W        W10232   7.599   2.845   0.968
 6169W        W10233   6.768   6.970   2.685
 6170W        W10234   9.483   8.410   2.481
 6171W        W10235   1.225   2.800   9.480
 6172W        W10236   2.222   9.325  11.886
 6173W        W10237   7.498   5.635  10.868
 6174W        W10238   0.393   0.864   0.914
 6175W        W10239   5.591   4.293   2.615
 6176W        W10240   1.424   3.404   0.311
 6177W        W10241   8.912   9.472   1.787
 6178W        W10242   4.699   5.759  11.358
 6179W        W10243   7.239   2.551   0.746
 6180W        W10244   3.704   7.960   1.434
 6181W        W10245   7.719  10.238  11.987
 6182W        W10246   0.388   5.982  11.151
 6183W        W10247   0.785   0.418  11.808
 6184W        W10248   3.111   3.569   0.013
 6185W        W10249   0.376   8.581   3.108
 6186W        W10250   4.254   9.172   9.477
 6187W        W10251   2.375   3.077   0.343
 6188W        W10252   3.162   2.738   3.554
 6189W        W10253   5.206   3.851   8.965
 6190W        W10254   2.827   8.866   1.174
 6191W        W10255  10.330   5.672   1.707
 6192W        W10256   0.957   2.119  10.427
 6193W        W10257   5.540   2.644   0.299
 6194W        W10258   6.474   4.284   8.926
 6195W        W10259   3.255   9.282  11.485
 6196W        W10260   3.784   4.707   0.981
 6197W        W10261   0.836   1.422   1.964
 6198W        W10262   9.545   1.587  11.718
 6199W        W10263   8.082   8.279   0.605
 6200W        W10264   1.813   5.104  10.334
 6201W        W10265   9.950   6.407   1.867
 6202W        W10266   4.939   6.442   0.344
 6203W        W10267   3.380   9.897  10.682
 6204W        W10268   6.564   2.462   2.860
 6205W        W10269   5.273   3.251   8.474
 6206W        W10270   8.950   3.158   8.898
 6207W        W10271   3.195   1.366  10.124
 6208W        W10272   9.770   6.540   8.869
 6209W        W10273   9.904   6.961   8.543
 6210W        W10274   4.611   1.549   2.866
 6211W        W10275   4.631   2.668   2.409
 6212W        W10276   3.984   4.251  11.639
 6213W        W10277   4.414   8.692   9.551
 6214W        W10278   6.237   6.911   0.013
 6215W        W10279   6.115   4.944   0.927
 6216W        W10280   2.766  10.119   2.307
 6217W        W10281   2.129  10.022   9.866
 6218W        W10282   4.697   1.000  10.202
 6219W        W10283   6.577   1.898   1.348
 6220W        W10284   6.062  10.400  10.292
 6221W        W10285   9.352   9.589   2.076
 6222W        W10286   8.678   5.716   8.515
 6223W        W10287   5.486   1.233   0.599
 6224W        W10288   0.642   9.863   9.811
 6225W        W10289   6.863   0.895   1.390
 6226W        W10290   5.221   3.201  11.738
 6227W        W10291   6.062   2.677   9.006
 6228W        W10292   0.475   9.072   3.623
 6229W        W10293   8.150   3.603   8.939
 6230W        W10294   0.697   1.800   0.002
 6231W        W10295   0.964   6.047   9.315
 6232W        W10296   8.082   7.589  10.849
 6233W        W10297   7.947   9.472   1.615
 6234W        W10298   6.947   3.782   9.694
 6235W        W10299   6.075   2.079   1.172
 6236W        W10300   9.306   7.497  10.616
 6237W        W10301   6.625   2.970   2.885
 6238W        W10302   5.629   9.366   1.705
 6239W        W10303   7.089   8.605  11.971
 6240W        W10304   2.851   2.378  10.916
 6241W        W10305   8.530   9.439   8.956
 6242W        W10306   1.289   6.051   1.000
 6243W        W10307   5.250   1.850  10.938
 6244W        W10308   9.093   6.991  11.179
 6245W        W10309   0.006   1.721   1.133
 6246W        W10310   6.623   0.803   9.994
 6247W        W10311   5.993   3.806   8.251
 6248W        W10312   9.235   2.177   9.991
 6249W        W10313   4.081   6.620   1.474
 6250W        W10314   5.187   8.987   9.938
 6251W        W10315   6.112   2.801   1.702
 6252W        W10316   5.229   4.682   9.715
 6253W        W10317   1.718   4.009   3.805
 6254W        W10318   7.364   5.176  11.021
 6255W        W10319   4.534   3.598   9.609
 6256W        W10320   2.001   1.385   2.779
 6257W        W10321   3.103   2.289   8.988
 6258W        W10322   9.465   8.275   0.273
 6259W        W10323   0.840   1.577   8.922
 6260W        W10324   3.832   7.686   1.850
 6261W        W10325   5.608   9.348  10.933
 6262W        W10326   0.722   2.986   1.502
 6263W        W10327   6.872   5.918   1.803
 6264W        W10328   3.065   4.052  11.086
 6265W        W10329   3.063   8.919   9.101
 6266W        W10330   9.841   2.226   0.687
 6267W        W10331   7.929   6.158   1.787
 6268W        W10332  10.239   0.753   0.300
 6269W        W10333   7.483   3.612   8.990
 6270W        W10334   5.929   0.557   9.611
 6271W        W10335   7.917   4.560   2.043
 6272W        W10336   6.898   0.299  10.532
 6273W        W10337   2.174   0.482  11.239
 6274W        W10338   3.317   0.747   2.413
 6275W        W10339   5.809   0.034   9.851
 6276W        W10340  10.186   1.266   3.409
 6277W        W10341   1.236   4.265  11.792
 6278W        W10342   6.662   6.087   8.772
 6279W        W10343   7.996   0.446   3.333
 6280W        W10344   1.417   0.304   2.059
 6281W        W10345   0.330   3.805   1.732
 6282W        W10346   7.932   9.924  10.658
 6283W        W10347   4.141   2.695   0.198
 6284W        W10348   9.530   5.191   9.058
 6285W        W10349   4.184   3.767   1.847
 6286W        W10350   6.627   3.806   2.476
 6287W        W10351   7.711   3.153   1.767
 6288W        W10352   5.379   0.436   2.748
 6289W        W10353   4.924   9.808   3.572
 6290W        W10354   3.828   2.116   8.696
 6291W        W10355   5.490   5.277   9.897
 6292W        W10356   3.110   4.767  10.592
 6293W        W10357   6.970   4.079  10.368
 6294W        W10358   0.254   1.704   3.118
 6295W        W10359   5.572   0.271  11.962
 6296W        W10360   3.292  10.315   3.445
 6297W        W10361   3.425   7.562   3.654
 6298W        W10362   1.255   1.701   0.373
 6299W        W10363   1.739   8.615   4.101
 6300W        W10364   3.735   1.174   3.074
 6301W        W10365   6.033   8.052  11.526
 6302W        W10366   2.869   3.139   0.192
 6303W        W10367   4.256   5.703   9.639
 6304W        W10368   3.671   8.687   1.835
 6305W        W10369   5.563   9.822   0.433
 6306W        W10370   2.277   4.745  11.750
 6307W        W10371   4.180   0.894   2.537
 6308W        W10372   6.775   3.246   1.724
 6309W        W10373   2.476   7.329  10.189
 6310W        W10374   7.933   0.324  11.044
 6311W        W10375   7.368   3.699   1.405
 6312W        W10376   9.846   5.972  11.443
 6313W        W10377   6.161   7.042   9.147
 6314W        W10378   9.141   0.881   9.915
 6315W        W10379   2.762   5.121  10.478
 6316W        W10380   7.488   2.882   2.930
 6317W        W10381   2.257   5.759   1.359
 6318W        W10382   1.218   0.476  11.545
 6319W        W10383   9.463   1.075  11.861
 6320W        W10384   6.099   8.810   9.936
 6321W        W10385   1.406   3.819   3.480
 6322W        W10386   4.839   8.898  11.811
 6323W        W10387   3.320   5.987   2.783
 6324W        W10388   9.087   2.699   9.999
 6325W        W10389   5.237   3.115   2.571
 6326W        W10390   8.950   4.977   1.351
 6327W        W10391   3.760   3.164   1.455
 6328W        W10392   3.203   7.750   1.462
 6329W        W10393  10.107   3.946   9.759
 6330W        W10394   0.020   0.366   1.679
 6331W        W10395   7.096   3.784  10.776
 6332W        W10396   7.900   3.161   8.802
 6333W        W10397   0.173   7.813   2.976
 6334W        W10398   8.444   5.138  11.859
 6335W        W10399   9.074   5.537   1.006
 6336W        W10400   5.761   1.591   3.432
 6337W        W10401   4.055   1.390  10.119
 6338W        W10402   3.183   8.842   1.946
 6339W        W10403   3.346   0.047   9.873
 6340W        W10404   2.447   6.460  10.250
 6341W        W10405   9.360   5.854   0.278
 6342W        W10406   3.144   6.563   3.490
 6343W        W10407   3.809  10.040   1.876
 6344W        W10408   3.336  10.038   9.787
 6345W        W10409   5.027   0.232   1.877
 6346W        W10410   5.280   8.082  10.326
 6347W        W10411   1.361   8.987   2.020
 6348W        W10412   1.403   2.256  10.140
 6349W        W10413   1.846   2.613   3.422
 6350W        W10414   0.199   3.750   2.751
 6351W        W10415   5.757   6.577  11.162
 6352W        W10416   8.028   9.399  11.449
 6353W        W10417   6.163   1.858  11.044
 6354W        W10418   5.091   8.079  11.355
 6355W        W10419   4.525   1.373   9.913
 6356W        W10420   6.139   7.073   0.485
 6357W        W10421   3.059   1.875   0.980
 6358W        W10422   6.952   4.645   1.489
 6359W        W10423   1.006  10.157   8.651
 6360W        W10424   6.340   8.281   3.234
 6361W        W10425   2.462   4.269  10.520
 6362W        W10426   2.130   0.779   9.930
 6363W        W10427   7.203   9.804   0.711
 6364W        W10428   9.424   1.741   1.968
 6365W        W10429   1.798   9.320   9.182
 6366W        W10430   5.589   8.666  11.823
 6367W        W10431   9.767   4.595  11.314
 6368W        W10432   7.108   5.936   2.620
 6369W        W10433   1.840   5.676  10.989
 6370W        W10434   9.355   4.945  11.964
 6371W        W10435   3.119   1.311   9.107
 6372W        W10436   7.869  10.273  11.487
 6373W        W10437   1.543   0.212  11.881
 6374W        W10438   6.351   5.591   2.524
 6375W        W10439   8.551   0.991  11.047
 6376W        W10440   0.635   4.592   1.873
 6377W        W10441   7.512   7.116   0.671
 6378W        W10442   6.644   4.733   3.133
 6379W        W10443   8.509  10.347   3.094
 6380W        W10444   8.002   1.836   2.740
 6381W        W10445   7.053   0.470   0.616
 6382W        W10446   2.218   3.227   2.359
 6383W        W10447   3.220   4.718   9.558
 6384W        W10448   9.276   9.868  10.552
 6385W        W10449   5.340   3.087   2.078
 6386W        W10450   4.205   7.965   3.391
 6387W        W10451   2.380   4.116   2.368
 6388W        W10452   0.731   4.221   0.695
 6389W        W10453   9.430   9.652   9.149
 6390W        W10454   5.738   1.154  11.971
 6391W        W10455   8.881   2.324   1.992
 6392W        W10456   6.933   0.450   8.973
 6393W        W10457   8.950   5.684   1.958
 6394W        W10458   1.714   3.780  10.781
 6395W        W10459   9.675   3.554   3.550
 6396W        W10460   8.473   8.497  10.857
 6397W        W10461   8.095   0.436   0.607
 6398W        W10462   0.792   3.124  10.051
 6399W        W10463   6.209   9.590   0.990
 6400W        W10464   5.315   9.939   0.952
 6401W        W10465  10.064   3.191   2.081
 6402W        W10466  10.382   9.297  10.024
 6403W        W10467   6.038   7.159  11.294
 6404W        W10468   2.349   1.475   1.267
 6405W        W10469   6.714   3.217  10.257
 6406W        W10470   3.671   9.096   3.176
 6407W        W10471   2.860   6.126   8.752
 6408W        W10472   3.268   4.760   2.231
 6409W        W10473   3.604  10.465   0.701
 6410W        W10474   8.926   7.581   8.761
 6411W        W10475   9.707   8.759   9.073
 6412W        W10476  10.398   2.137   2.992
 6413W        W10477   2.379   2.113  10.518
 6414W        W10478   2.056   3.238   9.761
 6415W        W10479   6.891   1.790   1.907
 6416W        W10480   9.944   1.355   2.031
 6417W        W10481   9.830   9.091   2.842
 6418W        W10482   2.957   4.293  10.647
 6419W        W10483   5.584   4.473   9.410
 6420W        W10484   5.558   3.322   3.466
 6421W        W10485   0.413   7.254  11.538
 6422W        W10486   2.183   3.771  11.643
 6423W        W10487  10.042   3.489   8.977
 6424W        W10488   2.721   3.134   8.998
 6425W        W10489   8.613   3.853  10.623
 6426W        W10490   3.766   3.112   3.500
 6427W        W10491   7.282   7.168   2.772
 6428W        W10492   1.875   5.011   1.149
 6429W        W10493   6.842   9.819   9.397
 6430W        W10494   3.599   5.041   2.652
 6431W        W10495   0.385   7.856   0.450
 6432W        W10496   8.973   9.371   1.298
 6433W        W10497   5.812   1.772   9.472
 6434W        W10498   2.180   6.516   0.294
 6435W        W10499   5.321   2.866  10.956
 6436W        W10500   8.959   9.478   9.242
 6437W        W10501   7.164   5.213   8.443
 6438W        W10502   5.150   6.633  10.458
 6439W        W10503   9.487   4.056   0.268
 6440W        W10504   8.340   1.843   0.778
 6441W        W10505   9.121   6.097   3.731
 6442W        W10506   8.858   8.377   3.138
 6443W        W10507   1.713   0.547   0.240
 6444W        W10508   1.300  10.472  11.468
 6445W        W10509   9.985   8.545   2.436
 6446W        W10510   8.429   6.007   1.766
 6447W        W10511   1.226   7.187   3.063
 6448W        W10512   5.641   8.298   9.519
 6449W        W10513   4.274   4.775   8.602
 6450W        W10514   9.972   7.910  11.102
 6451W        W10515   7.316   5.085   3.069
 6452W        W10516   8.051   2.273   1.964
 6453W        W10517   6.455   9.836   0.450
 6454W        W10518   4.987   3.650   9.380
 6455W        W10519   6.174   6.327  11.369
 6456W        W10520   1.880   0.383   3.030
 6457W        W10521   2.199   4.682   9.428
 6458W        W10522   6.509   9.619   9.756
 6459W        W10523   4.945   8.043   2.284
 6460W        W10524   4.420   2.609   1.792
 6461W        W10525  10.263   9.641  10.948
 6462W        W10526   6.237   5.182   2.263
 6463W        W10527   5.471   3.331   1.499
 6464W        W10528   0.709   7.815   9.073
 6465W        W10529   6.239  10.416   3.171
 6466W        W10530   6.323   2.831   0.807
 6467W        W10531   5.449   1.156  10.497
 6468W        W10532   4.686   2.749  10.120
 6469W        W10533   1.843   6.160   2.239
 6470W        W10534   6.250   5.029   3.325
 6471W        W10535   1.637   6.535   8.820
 6472W        W10536   6.065   6.094   1.827
 6473W        W10537   5.678   4.317   1.374
 6474W        W10538   3.816   7.737   0.362
 6475W        W10539   0.437   6.547   3.432
 6476W        W10540   0.860   4.963  10.245
 6477W        W10541   0.158  10.221   2.079
 6478W        W10542   5.272   2.703  11.861
 6479W        W10543   9.569   3.119   0.267
 6480W        W10544  10.199   6.475   8.559
 6481W        W10545   5.254  10.434   2.818
 6482W        W10546   7.443   9.106   9.519
 6483W        W10547   4.478   6.461   0.145
 6484W        W10548   8.650   9.572   2.757
 6485W        W10549   2.384   4.231   1.411
 6486W        W10550  10.365   2.192   0.941
 6487W        W10551   7.992   7.917  10.036
 6488W        W10552   1.451   9.589  11.495
 6489W        W10553   5.625   7.204   3.547
 6490W        W10554   2.848   6.934   8.682
 6491W        W10555   3.013   3.505   0.545
 6492W        W10556   0.341   9.955   3.265
 6493W        W10557   5.497   9.374   2.249
 6494W        W10558   7.684   3.281   1.257
 6495W        W10559   6.234   4.051   4.113
 6496W        W10560   8.091   0.721   1.448
 6497W        W10561   0.410   4.116   1.334
 6498W        W10562   3.535   0.532  11.055
 6499W        W10563   4.789   9.858   1.748
 6500W        W10564   5.048   6.581   3.361
 6501W        W10565   1.843   1.388   0.986
 6502W        W10566   6.223   5.227   1.775
 6503W        W10567  10.032   5.797   2.327
 6504W        W10568   8.618   1.659  11.838
 6505W        W10569   6.050   8.548   1.894
 6506W        W10570   7.394   9.182   2.984
 6507W        W10571   8.859   8.374   1.960
 6508W        W10572   7.433   1.237   2.430
 6509W        W10573   9.572   9.500  11.557
 6510W        W10574   0.958   6.861   0.817
 6511W        W10575   6.988   0.792  11.422
 6512W        W10576   1.242   1.304   2.271
 6513W        W10577   1.681   9.070   3.362
 6514W        W10578   4.061   5.893  10.064
 6515W        W10579   2.649   2.489  11.793
 6516W        W10580   1.589   7.443  10.388
 6517W        W10581   1.172   0.996   1.336
 6518W        W10582   6.113   4.469   1.108
 6519W        W10583   3.349   2.565   1.882
 6520W        W10584   5.817   2.708  10.950
 6521W        W10585   8.332   7.306   1.150
 6522W        W10586   6.237   7.777   0.413
 6523W        W10587   0.548   4.059  10.441
 6524W        W10588   6.552   2.760   2.443
 6525W        W10589   2.195   2.831   1.143
 6526W        W10590   0.636  10.296   1.922
 6527W        W10591   6.291   1.351  10.240
 6528W        W10592   8.946   4.029   9.095
 6529W        W10593   8.816   2.800   0.535
 6530W        W10594   3.200   6.719   1.545
 6531W        W10595   5.191   0.887   1.899
 6532W        W10596   8.061   7.732   1.170
 6533W        W10597   8.263  10.475   9.745
 6534W        W10598   1.749   3.014   2.518
 6535W        W10599   1.792   6.118  10.701
 6536W        W10600   9.443   2.413   1.405
 6537W        W10601   4.944   6.380   1.947
 6538W        W10602   9.407   5.433   2.689
 6539W        W10603   4.805   8.629   9.895
 6540W        W10604   2.165   6.541  11.262
 6541W        W10605   4.645   3.324   2.629
 6542W        W10606   5.702   0.234  10.944
 6543W        W10607   1.406   8.515   2.741
 6544W        W10608   2.744   6.036  10.294
 6545W        W10609   2.800   2.215   0.246
 6546W        W10610   3.779   5.457   3.461
 6547W        W10611   4.587   6.026   2.031
 6548W        W10612   6.423   2.318   9.089
 6549W        W10613   1.865   2.242   2.731
 6550W        W10614   8.819   1.325   3.072
 6551W        W10615   7.174   1.062  10.810
 6552W        W10616   2.405   2.347   1.876
 6553W        W10617   0.929   1.127  10.230
 6554W        W10618   6.583   0.783   2.742
 6555W        W10619   0.390   9.863   2.783
 6556W        W10620   4.542   2.649   9.134
 6557W        W10621   2.202   1.426   9.340
 6558W        W10622   3.685   5.372   0.370
 6559W        W10623   8.553   6.356   0.241
 6560W        W10624   7.221  10.329  11.876
 6561W        W10625   3.605   8.459  10.534
 6562W        W10626   4.698   8.915   2.638
 6563W        W10627   7.927   2.723   2.744
 6564W        W10628   3.217   0.931   0.950
 6565W        W10629   1.586   3.115   0.718
 6566W        W10630   5.439   8.038   2.319
 6567W        W10631   9.364   3.634   2.442
 6568W        W10632   4.259   5.676  11.735
 6569W        W10633   1.102   2.883   8.505
 6570W        W10634   9.085   6.429  11.030
 6571W        W10635   3.768   6.953  10.482
 6572W        W10636   8.838   3.755   1.914
 6573W        W10637   9.911   7.749   3.551
 6574W        W10638   6.621   0.525   0.263
 6575W        W10639   3.301   6.605   9.769
 6576W        W10640  10.076   9.318  11.273
 6577W        W10641   5.798   4.295   3.112
 6578W        W10642   5.615   3.204   0.462
 6579W        W10643   0.759   8.972   3.201
 6580W        W10644   7.811   7.143  10.173
 6581W        W10645   8.496   5.984   9.077
 6582W        W10646   1.485   0.041   2.874
 6583W        W10647   0.425   0.330   0.763
 6584W        W10648   3.621   5.485  10.348
 6585W        W10649   8.876  10.301   0.894
 6586W        W10650   8.606   8.553   8.990
 6587W        W10651   5.853   4.394   2.174
 6588W        W10652   0.189   6.502   8.743
 6589W        W10653   6.525   6.784   8.849
 6590W        W10654   0.121   8.610  10.918
 6591W        W10655   7.850   3.656   9.351
 6592W        W10656   3.012   7.079   1.871
 6593W        W10657   7.877   7.625   2.176
 6594W        W10658   5.165  10.229   1.853
 6595W        W10659   5.721   4.092   4.009
 6596W        W10660   5.493   7.619  11.823
 6597W        W10661   6.171   2.802  11.953
 6598W        W10662   4.931   8.768   8.467
 6599W        W10663   5.513   0.753   0.202
 6600W        W10664   8.355   5.999   0.888
 6601W        W10665   5.170   5.996   2.767
 6602W        W10666   8.578   4.186   1.733
 6603W        W10667   6.203   3.726  10.405
 6604W        W10668   2.182   2.304   0.957
 6605W        W10669   9.435   5.358   0.275
 6606W        W10670   7.454   3.083   9.741
 6607W        W10671   5.813   4.762   3.343
 6608W        W10672   1.976   6.134  11.721
 6609W        W10673   4.146   4.893   9.782
 6610W        W10674   5.904   1.386   9.821
 6611W        W10675   1.852   6.938   1.456
 6612W        W10676   4.992   1.674   2.506
 6613W        W10677   3.766   2.263   2.069
 6614W        W10678   6.954   6.288   9.460
 6615W        W10679   3.403   1.900  11.257
 6616W        W10680   1.781   0.849   0.639
 6617W        W10681   3.341   4.497   0.808
 6618W        W10682   9.757   4.188   2.947
 6619W        W10683   4.494  10.378   8.657
 6620W        W10684   0.255   6.192  10.274
 6621W        W10685   3.307   1.151   2.774
 6622W        W10686   1.882   5.625   8.658
 6623W        W10687   8.557   8.358   8.503
 6624W        W10688   5.084   1.416  10.692
 6625W        W10689   0.772   5.490   1.499
 6626W        W10690   9.274   8.195   2.893
 6627W        W10691   6.523   5.605  11.180
 6628W        W10692  10.355   5.970  11.310
 6629W        W10693   9.475   6.882   0.069
 6630W        W10694   9.672   2.493  11.518
 6631W        W10695   7.581   8.462   8.367
 6632W        W10696   7.961   1.362   9.345
 6633W        W10697   0.810   7.505   1.374
 6634W        W10698   0.906   3.595   0.286
 6635W        W10699   1.606   0.797  11.325
 6636W        W10700  10.265   7.463  11.291
 6637W        W10701   8.425   8.063  11.883
 6638W        W10702   7.012   2.278   3.585
 6639W        W10703   3.113   3.553  11.091
 6640W        W10704   0.327   5.793   1.005
 6641W        W10705   4.266   0.739  10.882
 6642W        W10706   7.970   6.950   0.437
 6643W        W10707   1.398   7.565  11.846
 6644W        W10708   4.978   3.526   9.882
 6645W        W10709   1.894   7.200   2.299
 6646W        W10710   1.286   6.320  11.284
 6647W        W10711   4.194   8.560   1.795
 6648W        W10712   4.955  10.297  10.140
 6649W        W10713   7.977   4.098  10.526
 6650W        W10714   8.923   2.819   9.546
 6651W        W10715   2.421   6.161   9.005
 6652W        W10716   1.014   8.487  10.716
 6653W        W10717   8.987   9.950   1.984
 6654W        W10718   1.265   9.035   3.030
 6655W        W10719   7.239   3.967   9.273
 6656W        W10720   7.177   0.485   0.125
 6657W        W10721   8.724  10.416   9.975
 6658W        W10722   2.782   6.896   2.275
 6659W        W10723   4.734   7.349  11.140
 6660W        W10724   2.201   3.708   0.657
 6661W        W10725   4.760   3.608   1.002
 6662W        W10726   9.263   1.801   3.627
 6663W        W10727   9.887   3.795  10.959
 6664W        W10728   6.412   9.553   3.365
 6665W        W10729   3.296   4.569   2.730
 6666W        W10730   3.297   7.033   0.182
 6667W        W10731   6.700   9.560   0.847
 6668W        W10732   5.654   9.245   3.334
 6669W        W10733   4.242   1.300   0.698
 6670W        W10734   8.808   3.814  11.719
 6671W        W10735  10.040   2.224   0.227
 6672W        W10736   6.098   0.919   8.958
 6673W        W10737   6.338   0.778   3.541
 6674W        W10738   9.117   1.449   1.697
 6675W        W10739   2.294  10.225  11.442
 6676W        W10740   0.693   7.864   9.581
 6677W        W10741   4.338   3.095   2.288
 6678W        W10742   2.458   9.715   9.572
 6679W        W10743   0.780   1.905   1.832
 6680W        W10744   5.562   9.843   2.729
 6681W        W10745   0.031   0.688   2.666
 6682W        W10746   0.356   5.019  10.267
 6683W        W10747   2.872   7.466   9.876
 6684W        W10748   8.670   1.221   1.944
 6685W        W10749   9.904   4.825   3.245
 6686W        W10750  10.113   8.638   2.953
 6687W        W10751   2.657   6.241   9.821
 6688W        W10752   6.630   5.707  10.700
 6689W        W10753   2.160   8.242  11.855
 6690W        W10754   5.269   6.929  10.056
 6691W        W10755   0.253   5.996   2.930
 6692W        W10756   1.013   7.624  11.466
 6693W        W10757   8.114   3.505   0.727
 6694W        W10758  10.437  10.214  11.309
 6695W        W10759   0.571   9.394   2.911
 6696W        W10760   6.464   2.341  10.481
 6697W        W10761   4.215   7.077  11.670
 6698W        W10762   6.385   5.121   2.746
 6699W        W10763   2.221   1.639   0.654
 6700W        W10764   9.078   1.877   8.929
 6701W        W10765   2.266   2.690   3.088
 6702W        W10766   0.372   3.607   1.256
 6703W        W10767   8.853   8.630   9.624
 6704W        W10768   5.985   2.330   0.252
 6705W        W10769   6.316   9.819   1.732
 6706W        W10770   2.564   7.333  10.733
 6707W        W10771   3.224   8.891   0.521
 6708W        W10772   3.312   4.197  10.279
 6709W        W10773  10.500   8.420   9.057
 6710W        W10774   7.412  10.206   0.955
 6711W        W10775   3.161   1.845   9.901
 6712W        W10776   8.090   3.137   2.495
 6713W        W10777   6.022   4.602   8.611
 6714W        W10778   4.597   4.106   1.787
 6715W        W10779   0.194   9.002   8.888
 6716W        W10780   4.160   3.294   2.769
 6717W        W10781   2.665   5.657  11.255
 6718W        W10782   7.051  10.468   0.725
 6719W        W10783   2.300   1.181   0.846
 6720W        W10784   3.755   5.502   2.452
 6721W        W10785   4.036   4.146   9.482
 6722W        W10786   9.786   5.928   1.897
 6723W        W10787   3.242  10.223  11.062
 6724W        W10788   0.025   7.586   0.709
 6725W        W10789   4.115   5.947  10.914
 6726W        W10790   7.001   3.356  11.077
 6727W        W10791   1.269   9.942   2.899
 6728W        W10792   7.413  10.409   9.505
 6729W        W10793   2.308   7.522   3.262
 6730W        W10794  10.325   1.171   8.829
 6731W        W10795   5.176   6.037   1.324
 6732W        W10796   8.323   3.096   3.364
 6733W        W10797   9.859   7.144   3.474
 6734W        W10798   6.973   9.989   3.152
 6735W        W10799   4.287   1.665   1.397
 6736W        W10800   6.566   3.562  11.552
 6737W        W10801   1.330   9.994   0.947
 6738W        W10802   3.666   5.758   8.876
 6739W        W10803   9.969   3.368   0.773
 6740W        W10804   4.474   7.929   2.406
 6741W        W10805   6.514   5.722   1.128
 6742W        W10806   0.917   6.200   0.391
 6743W        W10807   0.873   5.976   1.291
 6744W        W10808  10.326   3.983   0.649
 6745W        W10809   6.548   7.058   2.224
 6746W        W10810   9.525  10.241  10.296
 6747W        W10811   9.591   2.407   2.947
 6748W        W10812   6.392   1.819   1.865
 6749W        W10813   2.192   8.964   0.741
 6750W        W10814   5.083   7.210   0.766
 6751W        W10815   3.277   6.076   1.892
 6752W        W10816   7.561  10.068   0.486
 6753W        W10817   0.392   9.423   0.408
 6754W        W10818   6.995   4.255   8.922
 6755W        W10819   5.689   6.041   1.475
 6756W        W10820   9.198   3.282  11.933
 6757W        W10821   6.578   8.640  10.080
 6758W        W10822   4.659   8.478  10.946
 6759W        W10823   9.955   3.831   3.227
 6760W        W10824   5.112   0.867  11.924
 6761W        W10825   0.253   5.843   9.753
 6762W        W10826   5.550   1.156   1.089
 6763W        W10827   4.177   3.637   3.171
 6764W        W10828   2.277   6.703   3.039
 6765W        W10829   7.660   0.862  10.930
 6766W        W10830   6.862   9.437   2.463
 6767W        W10831  10.244   7.913   9.212
 6768W        W10832   2.606   8.792   2.121
 6769W        W10833   8.980   6.675   0.062
 6770W        W10834   1.616   8.998   1.031
 6771W        W10835   8.006   0.431   0.034
 6772W        W10836   2.336   4.712   1.208
 6773W        W10837   2.605   9.859   1.448
 6774W        W10838   6.689   5.399  10.312
 6775W        W10839   7.510   2.777   8.501
 6776W        W10840   8.855   1.778   0.784
 6777W        W10841   1.231   5.456  10.915
 6778W        W10842   5.306   6.461  11.434
 6779W        W10843   2.361   8.658   1.150
 6780W        W10844   5.496   0.434   9.883
 6781W        W10845   8.878   2.581   2.429
 6782W        W10846   6.696   9.002   9.048
 6783W        W10847   5.412   7.123   9.605
 6784W        W10848   0.243   8.431   8.595
 6785W        W10849   8.559   4.265   0.724
 6786W        W10850   8.921   3.108  10.407
 6787W        W10851   5.142   0.867   3.163
 6788W        W10852   7.631   1.244   0.110
 6789W        W10853   7.637   9.160   0.892
 6790W        W10854   5.561   4.335  10.743
 6791W        W10855   9.810   2.890   0.925
 6792W        W10856   1.747  10.225   0.751
 6793W        W10857   2.382   4.680   1.722
 6794W        W10858   6.356   8.350   0.357
 6795W        W10859   0.249   4.558   1.513
 6796W        W10860   5.227   2.909   1.629
 6797W        W10861   6.585   9.523   8.928
 6798W        W10862   3.516   8.548   3.097
 6799W        W10863   1.425   8.604  10.401
 6800W        W10864   8.925   6.655   1.992
 6801W        W10865   1.750   8.588   3.138
 6802W        W10866   5.099   4.130   3.339
 6803W        W10867   8.187   9.541   3.517
 6804W        W10868   6.180   9.870  10.075
 6805W        W10869   7.780   5.950  10.049
 6806W        W10870   4.165   0.882   0.383
 6807W        W10871   9.843   7.442   9.327
 6808W        W10872   4.284   0.416   0.225
 6809W        W10873   7.130   6.052   8.558
 6810W        W10874   1.252   9.852  10.787
 6811W        W10875   9.369   0.545  11.952
 6812W        W10876  10.256   5.786   0.225
 6813W        W10877   1.650   0.757   3.328
 6814W        W10878   2.455   4.602   0.716
 6815W        W10879   5.542   7.947   9.867
 6816W        W10880   5.188   5.657  10.411
 6817W        W10881   4.713   9.103   9.711
 6818W        W10882   8.342   3.255  11.273
 6819W        W10883  10.069  10.439   9.474
 6820W        W10884   6.875   8.962   1.679
 6821W        W10885   3.242   0.197  10.806
 6822W        W10886   4.473   8.078  10.698
 6823W        W10887   6.813   4.273  11.701
 6824W        W10888   9.851   4.777   2.357
 6825W        W10889   5.785   6.142   0.101
 6826W        W10890   5.113   1.396   1.818
 6827W        W10891   3.563   4.655  10.389
 6828W        W10892   5.650   8.407  11.354
 6829W        W10893   4.598   1.016   2.923
 6830W        W10894   0.555   3.323   2.820
 6831W        W10895   0.115   8.889   9.376
 6832W        W10896   4.971   1.700   0.048
 6833W        W10897  10.364   3.283   1.658
 6834W        W10898   9.029   0.860   8.951
 6835W        W10899   6.410   0.324  10.400
 6836W        W10900   3.327   9.585   0.103
 6837W        W10901   9.940   4.191   2.467
 6838W        W10902  10.296   2.225   2.476
 6839W        W10903   1.232   3.055   1.619
 6840W        W10904   2.981   1.742  11.508
 6841W        W10905   5.434   5.684   2.373
 6842W        W10906   8.875   3.690   9.478
 6843W        W10907   0.736   3.286   3.331
 6844W        W10908   3.954   8.917  11.966
 6845W        W10909   9.360   6.997   3.468
 6846W        W10910   6.653   5.409   1.952
 6847W        W10911   7.586   0.571   1.338
 6848W        W10912   5.592   7.038   2.318
 6849W        W10913   7.132   1.312   0.207
 6850W        W10914   5.457  10.375   0.285
 6851W        W10915   8.576  10.217   8.637
 6852W        W10916   8.893   7.157   0.234
 6853W        W10917   4.062   7.136  10.881
 6854W        W10918   8.881   5.084   9.836
 6855W        W10919   3.740   5.084   9.092
 6856W        W10920   0.386   2.254  11.935
 6857W        W10921   7.253   8.777   8.730
 6858W        W10922   0.064   9.419   3.540
 6859W        W10923   0.295   1.733  11.715
 6860W        W10924   1.775   2.085  11.627
 6861W        W10925   7.630   2.136   8.372
 6862W        W10926   4.027   4.151   3.103
 6863W        W10927   3.262  10.284  11.578
 6864W        W10928   7.560   1.670  10.281
 6865W        W10929   9.258   5.097   3.333
 6866W        W10930   9.544  10.021   0.752
 6867W        W10931   0.577   3.279  11.292
 6868W        W10932   1.762   2.597   9.101
 6869W        W10933   4.924   6.076   3.269
 6870W        W10934   9.857   6.819   2.240
 6871W        W10935   2.462   5.546   2.215
 6872W        W10936   5.007   1.744   3.113
 6873W        W10937   6.755   2.597   0.829
 6874W        W10938   5.462   2.263   9.597
 6875W        W10939   6.406   1.206   9.778
 6876W        W10940   7.960   2.288  11.878
 6877W        W10941   1.316   2.805   8.958
 6878W        W10942   1.270   7.361   0.329
 6879W        W10943   4.938   1.868   0.891
 6880W        W10944   0.843   4.279  10.815
 6881W        W10945   7.392   9.044  11.190
 6882W        W10946  10.042   5.212   9.331
 6883W        W10947   4.311   3.125  11.858
 6884W        W10948   3.401   1.296   0.263
 6885W        W10949   9.929   5.369   9.903
 6886W        W10950   7.488   4.065   3.856
 6887W        W10951   6.260   4.061   2.178
 6888W        W10952   2.113   1.887   1.966
 6889W        W10953   0.621   7.558   2.343
 6890W        W10954   6.446   3.295   8.984
 6891W        W10955   9.717   6.834   1.751
 6892W        W10956   5.668   8.862   3.001
 6893W        W10957  10.446   1.415   2.467
 6894W        W10958   0.323   4.228   2.040
 6895W        W10959   3.958   1.771  11.736
 6896W        W10960   0.357   1.764  10.295
 6897W        W10961   6.632   3.720   2.997
 6898W        W10962   8.604   5.538   0.809
 6899W        W10963   7.973   4.800   3.518
 6900W        W10964   7.155   9.430  11.990
 6901W        W10965   1.791   6.160  11.221
 6902W        W10966   2.619   7.935  11.982
 6903W        W10967   8.502   0.907  11.565
 6904W        W10968  10.100   5.496  10.482
 6905W        W10969   8.484   5.686   3.165
 6906W        W10970   3.708   0.244   9.565
 6907W        W10971   6.024   9.457   1.997
 6908W        W10972   0.889   0.668   8.469
 6909W        W10973   0.506  10.301   8.761
 6910W        W10974   8.987   9.317   8.743
 6911W        W10975   6.145   1.379  11.736
 6912W        W10976   0.064   8.510  10.414
 6913W        W10977   6.514   9.806  10.952
 6914W        W10978   2.683   2.619   8.902
 6915W        W10979   7.906   2.953  11.272
 6916W        W10980   0.844   3.530   9.234
 6917W        W10981   6.638   4.491  10.479
 6918W        W10982   2.584   5.135  11.006
 6919W        W10983   8.615   5.575  11.685
 6920W        W10984   4.421   1.329   0.238
 6921W        W10985   5.198   6.223   0.806
 6922W        W10986   6.339  10.142   8.247
 6923W        W10987   4.222   5.623   2.740
 6924W        W10988   9.972   7.995  10.105
 6925W        W10989   2.416   7.746   0.740
 6926W        W10990   8.992   3.628   1.182
 6927W        W10991   7.340   5.394  11.805
 6928W        W10992   8.324   3.691  11.855
 6929W        W10993   6.445   7.111   9.576
 6930W        W10994   9.966   7.079   0.085
 6931W        W10995   3.778   5.520   2.962
 6932W        W10996  10.478   0.917  11.890
 6933W        W10997   7.627  10.309   2.971
 6934W        W10998   5.131  10.416   3.345
 6935W        W10999   9.508   4.256   1.235
 6936W        W11000   7.567   4.670   3.194
 6937W        W11001   3.216  10.344   2.441
 6938W        W11002   6.960   3.132   3.666
 6939W        W11003   9.364   8.343  10.932
 6940W        W11004   7.966   7.098   3.293
 6941W        W11005   7.543   7.845   9.447
 6942W        W11006   8.453   3.337   2.824
 6943W        W11007   4.609   3.557   2.079
 6944W        W11008   6.458   4.963  10.443
 6945W        W11009   7.559   1.429   1.532
 6946W        W11010   6.026   4.594   0.560
 6947W        W11011   3.865   7.278   2.854
 6948W        W11012   8.568   0.654   1.687
 6949W        W11013   8.511   1.408  11.387
 6950W        W11014   1.226   4.698   1.345
 6951W        W11015   7.454   7.753  11.905
 6952W        W11016  10.358   2.765   9.112
 6953W        W11017   7.933   9.920   2.828
 6954W        W11018   4.513   6.638   2.191
 6955W        W11019   0.829   4.703   0.867
 6956W        W11020   7.075   4.736  11.536
 6957W        W11021   5.200   2.231  10.591
 6958W        W11022   1.689   4.721   0.447
 6959W        W11023   8.522  10.234   1.266
 6960W        W11024   0.108   8.021   0.996
 6961W        W11025   4.624   7.424  10.299
 6962W        W11026   8.391   9.006  11.506
 6963W        W11027   7.197   9.172   9.072
 6964W        W11028   6.275   6.079   9.985
 6965W        W11029   9.904  10.419   8.926
 6966W        W11030   5.939   1.905   0.604
 6967W        W11031   2.753   2.726   0.477
 6968W        W11032   0.292   5.153   2.170
 6969W        W11033   4.051   9.060   1.905
 6970W        W11034   1.883   5.096   1.665
 6971W        W11035   9.018   4.090   0.942
 6972W        W11036   0.401   5.610   0.520
 6973W        W11037   6.716   4.234   3.282
 6974W        W11038  10.436   7.907   3.510
 6975W        W11039   1.994   1.713  10.102
 6976W        W11040   7.587   0.695   3.106
 6977W        W11041   7.608   1.995   3.700
 6978W        W11042   1.212   8.634  11.687
 6979W        W11043   2.778   5.298   9.999
 6980W        W11044   2.417   2.658   3.570
 6981W        W11045  10.311   2.152   1.482
 6982W        W11046   6.010   1.718   8.619
 6983W        W11047   9.370   8.601   1.112
 6984W        W11048   0.763   3.720   0.795
 6985W        W11049   4.163   7.437   1.553
 6986W        W11050   6.323   4.670   0.146
 6987W        W11051   3.590   1.931   9.554
 6988W        W11052   3.183   6.407   3.988
 6989W        W11053   8.568   4.856   2.774
 6990W        W11054   9.404   0.097   8.975
 6991W        W11055   3.636   4.167   1.624
 6992W        W11056   1.633   4.178   0.803
 6993W        W11057   3.378   7.431   9.235
 6994W        W11058   9.908   9.064   9.445
 6995W        W11059   5.636   4.529   0.885
 6996W        W11060   2.224   4.695  10.337
 6997W        W11061  10.006   2.135  10.677
 6998W        W11062   9.254   9.853  11.806
 6999W        W11063   5.120  10.034   0.498
 7000W        W11064   1.177   0.306   2.542
 7001W        W11065   7.468   0.973  11.470
 7002W        W11066   9.989   2.308  11.180
 7003W        W11067   3.379   1.810  10.378
 7004W        W11068   8.001   4.802   9.977
 7005W        W11069   9.363   7.551   2.835
 7006W        W11070   6.397   0.340   2.911
 7007W        W11071   1.724   4.873   9.406
 7008W        W11072   3.640   1.425   9.419
 7009W        W11073   9.908   8.044   0.441
 7010W        W11074   8.851   1.005   0.366
 7011W        W11075   5.499   7.200  10.493
 7012W        W11076   2.397   9.446   0.688
 7013W        W11077   3.834   4.231  10.422
 7014W        W11078   4.827   4.223   2.236
 7015W        W11079   4.602   2.416   0.158
 7016W        W11080   8.420   5.558   0.149
 7017W        W11081   3.679  10.074  11.345
 7018W        W11082   9.061   4.782  11.332
 7019W        W11083   9.639   7.077   9.916
 7020W        W11084   4.565   8.653   8.824
 7021W        W11085   4.794   4.049  10.342
 7022W        W11086   1.957   0.796   9.011
 7023W        W11087   8.424  10.025   2.681
 7024W        W11088  10.045   5.628   3.671
 7025W        W11089   5.199   2.230   3.181
 7026W        W11090   6.900   5.536   0.029
 7027W        W11091   2.252   0.024   9.031
 7028W        W11092   8.128   5.137   2.606
 7029W        W11093   8.299   0.587  10.382
 7030W        W11094  10.020   5.240   8.814
 7031W        W11095   9.245   9.036  10.343
 7032W        W11096  10.043   4.597   2.797
 7033W        W11097   9.009   4.663  10.155
 7034W        W11098   5.754   4.804   1.288
 7035W        W11099   7.207   6.415   3.260
 7036W        W11100   1.691   3.596   9.811
 7037W        W11101   7.554   4.870   2.200
 7038W        W11102   3.772   1.768   9.076
 7039W        W11103   8.595   5.370   2.680
 7040W        W11104   4.052   9.937   3.166
 7041W        W11105   4.216   2.946   1.490
 7042W        W11106   7.112   4.540   3.444
 7043W        W11107   6.914   6.959  11.436
 7044W        W11108   9.788   4.501   0.258
 7045W        W11109   6.660   4.160   1.828
 7046W        W11110   2.640   6.823  10.882
 7047W        W11111   6.902   9.579   0.382
 7048W        W11112   1.877   3.428   8.502
 7049W        W11113  10.380   4.068   8.338
 7050W        W11114   5.466   9.510   8.959
 7051W        W11115   8.939   7.584   9.763
 7052W        W11116   1.314   3.834   0.071
 7053W        W11117   1.097   4.727   8.432
 7054W        W11118   4.560   3.592   9.070
 7055W        W11119   5.523   1.599   8.520
 7056W        W11120   0.860   7.929  10.049
 7057W        W11121  10.431  10.487  11.815
 7058W        W11122   1.434   2.267   1.386
 7059W        W11123   7.373   9.434   2.292
 7060W        W11124   5.537   6.717  11.947
 7061W        W11125   8.850   2.401   0.076
 7062W        W11126   6.337   2.967   8.557
 7063W        W11127   8.954   0.699  11.727
 7064W        W11128   0.297   4.496  11.487
 7065W        W11129   4.753   6.665   8.578
 7066W        W11130   6.698   6.737   9.327
 7067W        W11131   0.560   1.160   0.330
 7068W        W11132   9.259   2.412  11.794
 7069W        W11133   5.289   1.860  11.664
 7070W        W11134   1.184   1.797  11.860
 7071W        W11135  10.485   4.280   9.582
 7072W        W11136   1.004   3.290   2.411
 7073W        W11137   2.712   7.907   1.457
 7074W        W11138   3.272   6.052   9.045
 7075W        W11139   9.821   2.240   2.215
 7076W        W11140   4.276   2.188   1.465
 7077W        W11141   6.515   6.278   1.748
 7078W        W11142   3.090   6.555   2.002
 7079W        W11143   5.441   6.471   2.683
 7080W        W11144   0.813   9.841   3.103
 7081W        W11145   2.800   0.217   3.549
 7082W        W11146   7.874   2.034   0.947
 7083W        W11147   0.494   6.706   0.967
 7084W        W11148   2.202   1.258  10.502
 7085W        W11149   8.450   0.541   1.152
 7086W        W11150   7.888   1.848   1.733
 7087W        W11151   6.467   5.866   2.099
 7088W        W11152   6.686  10.386   2.877
 7089W        W11153   6.979   6.400   2.768
 7090W        W11154   4.284   2.151  11.869
 7091W        W11155   6.493   9.338   1.801
 7092W        W11156   6.110   2.730   2.731
 7093W        W11157   0.698   8.573  11.596
 7094W        W11158   2.283   7.211   1.453
 7095W        W11159   4.185  10.018  11.270
 7096W        W11160  10.279   6.515   2.267
 7097W        W11161  10.331   1.806  11.550
 7098W        W11162   9.283   4.208  10.076
 7099W        W11163   1.314   6.939  11.054
 7100W        W11164   3.737   7.481  10.522
 7101W        W11165   1.314   1.563  11.430
 7102W        W11166   9.575   0.019  11.215
 7103W        W11167   1.152   1.704  10.967
 7104W        W11168   0.381   3.283   1.759
 7105W        W11169   6.518   4.655   0.807
 7106W        W11170   0.040   9.106   0.177
 7107W        W11171   1.811   3.153   1.189
 7108W        W11172   9.866   7.492  10.833
 7109W        W11173   1.438   9.803   0.443
 7110W        W11174   1.617   4.302   1.903
 7111W        W11175   4.659   1.009   1.164
 7112W        W11176   6.927   6.663   1.292
 7113W        W11177   2.815   6.987  10.417
 7114W        W11178   3.530   7.022   9.577
 7115W        W11179   5.107   0.567   1.490
 7116W        W11180   1.993   4.282   0.441
 7117W        W11181   2.765   9.356   9.348
 7118W        W11182   9.243   8.947   3.473
 7119W        W11183   8.383   7.659   8.983
 7120W        W11184   4.041   7.000   9.563
 7121W        W11185   4.319   6.232   4.143
 7122W        W11186   0.814   0.389   1.860
 7123W        W11187   9.458   2.454   0.906
 7124W        W11188   9.859   5.042   1.540
 7125W        W11189   2.549   7.835   9.988
 7126W        W11190  10.211   0.496   3.073
 7127W        W11191   2.817   0.254   1.751
 7128W        W11192   3.316   4.779  11.056
 7129W        W11193   3.617   6.227   8.665
 7130W        W11194   9.565   2.507  11.005
 7131W        W11195   9.612   8.634   2.913
 7132W        W11196   5.534   9.345   9.452
 7133W        W11197   8.458   8.600   9.968
 7134W        W11198   7.865   5.412   8.844
 7135W        W11199   7.012   2.672   2.255
 7136W        W11200   2.679   1.900   2.655
 7137W        W11201   9.771   7.555  11.419
 7138W        W11202   6.935   3.517   9.203
 7139W        W11203   2.272   3.486  10.695
 7140W        W11204   9.165   9.114   0.429
 7141W        W11205   6.450  10.494   8.983
 7142W        W11206   9.002   2.057  10.891
 7143W        W11207   0.922   7.111  11.394
 7144W        W11208   1.413   5.601   3.285
 7145W        W11209   0.338   2.916   9.317
 7146W        W11210  10.304   5.997  10.478
 7147W        W11211   9.141   5.171   9.398
 7148W        W11212   0.518   3.253   2.297
 7149W        W11213   7.480   2.185  11.724
 7150W        W11214   0.170   1.343   3.527
 7151W        W11215  10.263   4.236  10.930
 7152W        W11216  10.375   2.938   9.617
 7153W        W11217   5.474   7.856   0.282
 7154W        W11218   4.768   7.343   1.304
 7155W        W11219   4.616   2.848   0.441
 7156W        W11220   2.371   7.423  11.218
 7157W        W11221   9.329   9.994   2.822
 7158W        W11222   6.574   5.260   3.638
 7159W        W11223   3.582   0.265   3.538
 7160W        W11224   6.225   5.681  10.353
 7161W        W11225   2.584   0.185   0.004
 7162W        W11226   1.445   4.937   1.833
 7163W        W11227   1.855   8.938   9.803
 7164W        W11228  10.276   1.091  10.983
 7165W        W11229   4.320   4.733   0.981
 7166W        W11230   1.818  10.379  11.159
 7167W        W11231   0.373   6.161   0.642
 7168W        W11232   6.786   1.714   0.840
 7169W        W11233   0.908   3.854  11.753
 7170W        W11234   6.084   3.335   8.069
 7171W        W11235   3.597   6.617   0.193
 7172W        W11236   6.989   5.026   9.369
 7173W        W11237   7.364   9.504  11.520
 7174W        W11238   4.620   9.607   1.043
 7175W        W11239   2.603   4.712  10.725
 7176W        W11240   5.464   7.050   4.002
 7177W        W11241   9.705   7.579   2.177
 7178W        W11242   9.726   2.966  11.322
 7179W        W11243   6.228   5.271   1.289
 7180W        W11244   0.323   3.151  10.317
 7181W        W11245   0.468   8.547   9.463
 7182W        W11246   3.784   8.467   2.320
 7183W        W11247   9.616   8.760   2.136
 7184W        W11248   8.354   2.279  11.500
 7185W        W11249   0.174   2.152   9.998
 7186W        W11250   4.980   0.388   9.159
 7187W        W11251   5.104   7.712   0.646
 7188W        W11252  10.024  10.277   0.809
 7189W        W11253   2.293   6.477  10.733
 7190W        W11254   4.990   5.348   1.648
 7191W        W11255   9.467   1.379   1.323
 7192W        W11256   1.866   4.439  11.487
 7193W        W11257   7.696   6.649  11.354
 7194W        W11258   6.660   5.265   3.138
 7195W        W11259   1.262   5.905   1.961
 7196W        W11260   7.141   4.022   3.067
 7197W        W11261   1.829   6.169   0.240
 7198W        W11262   7.565   7.293   2.370
 7199W        W11263   5.530   9.410  10.433
 7200W        W11264   2.702   6.396   2.321
 7201W        W11265   4.057   9.047   0.477
 7202W        W11266   6.083   2.379   0.746
 7203W        W11267   0.813   8.084   2.247
 7204W        W11268   3.183   6.526   8.802
 7205W        W11269   1.713   8.862   8.906
 7206W        W11270   1.274   5.209  10.458
 7207W        W11271   5.575   2.812   2.812
 7208W        W11272   3.223   1.858   0.505
 7209W        W11273   1.624   6.985   1.909
 7210W        W11274   6.214   3.047   9.351
 7211W        W11275   4.813   8.008   3.616
 7212W        W11276   7.543   9.550   9.300
 7213W        W11277   6.645   1.744   2.356
 7214W        W11278   2.803   2.832   9.886
 7215W        W11279  10.278   2.798  10.510
 7216W        W11280   1.788   6.936  11.268
 7217W        W11281   5.940   8.099  11.014
 7218W        W11282   4.129   5.696   2.142
 7219W        W11283   9.954   7.578   1.321
 7220W        W11284   0.824   9.426  10.039
 7221W        W11285   4.185   5.588  11.251
 7222W        W11286   1.336   8.153  11.561
 7223W        W11287   8.587   3.767   1.445
 7224W        W11288   6.888   0.918   0.425
 7225W        W11289   4.738   5.385  10.414
 7226W        W11290   9.849   8.057   2.293
 7227W        W11291   7.157  10.149   8.746
 7228W        W11292   8.107   8.164  11.318
 7229W        W11293   3.046   2.356  10.037
 7230W        W11294   7.558   6.870  10.900
 7231W        W11295   4.088   4.265   9.979
 7232W        W11296  10.294   6.222   0.482
 7233W        W11297   6.411   9.682   2.588
 7234W        W11298   5.061   9.569  11.741
 7235W        W11299   8.641   4.439   2.447
 7236W        W11300   1.619   7.224   2.735
 7237W        W11301   7.468   7.011   3.291
 7238W        W11302   9.408   5.195   1.274
 7239W        W11303   8.313   9.223   2.387
 7240W        W11304   0.318   8.172  11.597
 7241W        W11305   9.767   1.822   3.630
 7242W        W11306   8.454   8.324   2.283
 7243W        W11307   6.948   4.664   8.599
 7244W        W11308   0.600   7.188   1.028
 7245W        W11309   0.782  10.438  10.961
 7246W        W11310   4.181   9.341   2.318
 7247W        W11311   6.510   2.152   0.888
 7248W        W11312   0.795   7.002  10.265
 7249W        W11313   2.801   5.852   3.948
 7250W        W11314   4.070   6.620  11.430
 7251W        W11315   5.932   6.900  10.518
 7252W        W11316   8.379   8.556   9.465
 7253W        W11317   9.459   0.600   9.075
 7254W        W11318   8.097   5.178   0.338
 7255W        W11319   4.783   4.192   0.278
 7256W        W11320   9.865   0.871  10.319
 7257W        W11321   2.885   6.647   9.503
 7258W        W11322   6.846   5.918   0.356
 7259W        W11323  10.419   6.583   1.742
 7260W        W11324   7.392   4.469   9.823
 7261W        W11325   7.959   3.220   2.994
 7262W        W11326   1.384   4.687   0.026
 7263W        W11327   6.275   0.404   1.057
 7264W        W11328   3.115   0.849  10.182
 7265W        W11329   9.480   8.033   1.627
 7266W        W11330   2.112   4.982   0.611
 7267W        W11331   4.213   9.363  11.880
 7268W        W11332   2.810   6.976   0.944
 7269W        W11333   2.776   3.798  11.450
 7270W        W11334   1.707  10.335   9.721
 7271W        W11335   0.855   5.534   8.605
 7272W        W11336   5.933   6.874   3.313
 7273W        W11337   7.406   7.559   0.395
 7274W        W11338   5.207   0.539   2.278
 7275W        W11339   3.275   9.686  11.136
 7276W        W11340   9.262   7.070  10.322
 7277W        W11341   4.982   5.578   0.280
 7278W        W11342   1.780   1.405  11.264
 7279W        W11343   0.559   5.170   8.885
 7280W        W11344   5.728   9.419   0.912
 7281W        W11345   4.975   6.985  11.413
 7282W        W11346   0.874   9.890   1.694
 7283W        W11347   1.688   9.796   8.996
 7284W        W11348   8.983   6.598   9.565
 7285W        W11349   9.911   2.660  11.978
 7286W        W11350   8.074   8.532   8.514
 7287W        W11351   1.976   5.665   2.323
 7288W        W11352   7.900   7.458   9.281
 7289W        W11353   5.533   5.733   9.019
 7290W        W11354   0.315   3.552   9.994
 7291W        W11355  10.367   6.596  11.818
 7292W        W11356   3.335   3.068  11.992
 7293W        W11357   4.555   7.693   9.880
 7294W        W11358   8.422   2.110  11.977
 7295W        W11359   6.521   7.517  10.635
 7296W        W11360   2.851   2.323   2.905
 7297W        W11361   7.411   2.101   9.752
 7298W        W11362   3.653   5.031   9.599
 7299W        W11363   9.395   7.909   2.476
 7300W        W11364   5.954   8.654   0.333
 7301W        W11365   3.617   3.817   9.432
 7302W        W11366   0.278   6.541   2.126
 7303W        W11367   2.367   5.138   9.296
 7304W        W11368   9.789   8.078   1.230
 7305W        W11369   9.335  10.088   8.880
 7306W        W11370   7.371   1.750  11.978
 7307W        W11371   1.493   3.141   2.954
 7308W        W11372   0.779  10.314  10.087
 7309W        W11373   0.854   7.637   3.603
 7310W        W11374   1.238   1.293   9.084
 7311W        W11375   8.101   0.366   9.082
 7312W        W11376   5.082   0.772   0.992
 7313ION    NA+11377   6.466   4.883   8.682
 7314ION    NA+11378   1.840  10.064   2.194
 7315ION    NA+11379   7.755   7.042  11.711
 7316ION    NA+11380   9.070   5.994   1.325
 7317ION    NA+11381   5.499   3.591   9.493
 7318ION    NA+11382   7.903   4.754   0.139
 7319ION    NA+11383   5.516   4.051   0.949
 7320ION    NA+11384   6.210   1.441  10.735
 7321ION    NA+11385   2.619   8.359   9.924
 7322ION    NA+11386   2.736   4.601  10.250
 7323ION    NA+11387   1.526   2.372  10.628
 7324ION    NA+11388  10.099   4.992  11.459
 7325ION    NA+11389   2.678   0.349  10.312
 7326ION    NA+11390   0.592   9.092   9.399
 7327ION    NA+11391   5.166   4.597   2.667
 7328ION    NA+11392   4.195   8.539   0.231
 7329ION    NA+11393   7.464   4.363   2.311
 7330ION    NA+11394   1.136   7.637   2.298
 7331ION    NA+11395   8.843   0.629   9.570
 7332ION    NA+11396   3.716   2.627  10.096
 7333ION    NA+11397   7.309   1.284   1.954
 7334ION    NA+11398   4.985   3.253   0.666
 7335ION    NA+11399   4.223   5.420   0.505
 7336ION    NA+11400   0.607   8.414  11.113
 7337ION    NA+11401   0.681   2.725   1.072
 7338ION    NA+11402   8.266   1.522   1.786
 7339ION    NA+11403   0.790   2.704   9.776
 7340ION    NA+11404   1.500   2.733  11.997
 7341ION    NA+11405   7.103   9.014   9.895
 7342ION    NA+11406   8.440   6.214   3.087
 7343ION    NA+11407   2.923   9.503   2.719
 7344ION    NA+11408   8.940   9.145   2.652
 7345ION    NA+11409   2.410   2.138  11.033
 7346ION    NA+11410   0.904   5.163  11.964
 7347ION    NA+11411   9.656   2.089  11.837
 7348ION    NA+11412   7.053   7.176   0.366
 7349ION    NA+11413   2.296   1.264   9.970
 7350ION    NA+11414   4.980   4.090  11.779
 7351ION    NA+11415   6.548   7.774   9.022
 7352ION    NA+11416   8.623   8.235  11.398
 7353ION    NA+11417   2.702   6.504   0.320
 7354ION    NA+11418   1.662   5.182   2.711
 7355ION    NA+11419   5.139   8.227   0.924
 7356ION    NA+11420   5.624   6.083  11.218
 7357ION    NA+11421   3.035   7.141   9.499
 7358ION    NA+11422   6.740   9.154   3.252
 7359ION    NA+11423   1.707   7.093  10.772
 7360ION    NA+11424  10.472   1.601   9.098
 7361ION    NA+11425   1.427   8.287   0.562
 7362ION    NA+11426   7.906   8.727   9.371
 7363ION    NA+11427   8.390   9.068  10.895
 7364ION    NA+11428   4.399   1.495  11.424
 7365ION    NA+11429   3.113   2.874  11.296
 7366ION    NA+11430   3.805   3.894   0.668
 7367ION    NA+11431   7.667   7.865   1.472
 7368ION    NA+11432   9.024   5.113   2.806
 7369ION    NA+11433   6.647   1.699   3.190
 7370ION    NA+11434   3.448   8.393  11.448
 7371ION    NA+11435   9.890   9.514   1.263
 7372ION    NA+11436   7.040   3.123   2.555
 7373ION    NA+11437   6.179   2.562   1.238
 7374ION    NA+11438   4.004   2.275   0.942
 7375ION    NA+11439   6.011   9.630   9.631
 7376ION    NA+11440   9.953   9.825  11.377
 7377ION    NA+11441   9.026  10.327  10.415
 7378ION    NA+11442   1.197   9.099   0.759
 7379ION    NA+11443   8.503   7.015   2.980
 7380ION    NA+11444   3.745   1.665   3.026
 7381ION    NA+11445   6.043   6.988   8.667
 7382ION    NA+11446   6.566   0.707   0.772
 7383ION    NA+11447   8.451   6.854   0.231
 7384ION    NA+11448   7.068   6.434  11.696
 7385ION    NA+11449   1.487   4.588   8.887
 7386ION    NA+11450   1.668   0.356  10.360
 7387ION    NA+11451   2.981   3.956   0.313
 7388ION    NA+11452   2.099   0.188  11.642
 7389ION    NA+11453   3.857  10.094   0.463
 7390ION    CL-11454   5.842   5.579   2.675
 7391ION    CL-11455   8.159   9.880   1.379
 7392ION    CL-11456   6.204   0.530   0.572
 7393ION    CL-11457   6.570   1.707  10.775
 7394ION    CL-11458   7.448   7.246   9.408
 7395ION    CL-11459  10.167   8.334   0.948
 7396ION    CL-11460   4.092   5.271   9.425
 7397ION    CL-11461   1.579   7.674   2.343
 7398ION    CL-11462   1.917   5.489  10.014
 7399ION    CL-11463   9.387   7.539   3.376
 7400ION    CL-11464   5.541   2.632  11.371
 7401ION    CL-11465   2.937   9.927   8.409
 7402ION    CL-11466   4.109   6.404  10.111
 7403ION    CL-11467   2.370   3.985   3.075
 7404ION    CL-11468   1.200   8.683   0.579
 7405ION    CL-11469  10.470   5.168   9.585
 7406ION    CL-11470   9.194   9.504   2.571
 7407ION    CL-11471   2.111   8.428   3.444
 7408ION    CL-11472  10.246   7.907   0.048
 7409ION    CL-11473   0.281   1.594   0.227
 7410ION    CL-11474   7.793   7.426   1.466
 7411ION    CL-11475   7.721   8.321   9.343
 7412ION    CL-11476   2.909   2.916  11.691
 7413ION    CL-11477   4.253   5.261   0.087
 7414ION    CL-11478   0.646   8.808   9.060
 7415ION    CL-11479   2.027   6.466   1.602
 7416ION    CL-11480   7.897   6.386   9.095
 7417ION    CL-11481   7.356   6.781  11.771
 7418ION    CL-11482   5.519   7.388  11.351
 7419ION    CL-11483   2.773   2.306   3.427
 7420ION    CL-11484   0.974   4.777  11.750
 7421ION    CL-11485   0.291   3.940   0.869
 7422ION    CL-11486   8.652   6.583   2.918
 7423ION    CL-11487   1.046   8.494  11.213
 7424ION    CL-11488  10.199  10.002  11.719
 7425ION    CL-11489   7.251   6.252   1.337
 7426ION    CL-11490   9.680   6.167   3.698
 7427ION    CL-11491   3.905   1.918   1.189
 7428ION    CL-11492   2.920   3.180   2.952
 7429ION    CL-11493   6.244   4.750   9.046
 7430ION    CL-11494   4.480   1.669  11.827
 7431ION    CL-11495   1.909   0.584  11.738
 7432ION    CL-11496   7.860   2.151  10.990
 7433ION    CL-11497   9.846   8.026   9.556
 7434ION    CL-11498   9.693   9.610  11.069
 7435ION    CL-11499   6.517   9.273   2.874
 7436ION    CL-11500  10.069   2.216  11.720
 7437ION    CL-11501   3.411   3.867   0.441
 7438ION    CL-11502   2.147   3.738   2.132
 7439ION    CL-11503   8.856   7.930  11.628
 7440ION    CL-11504   3.690   1.456   2.630
 7441ION    CL-11505  10.385   3.752  10.821
 7442ION    CL-11506   7.346   8.157   1.334
 7443ION    CL-11507   6.761   1.287   9.432
 7444ION    CL-11508   4.140   4.782   1.734
 7445ION    CL-11509   9.323   5.931   1.685
 7446ION    CL-11510   0.239   8.144  11.096
 7447ION    CL-11511   6.320   6.615   1.296
 7448ION    CL-11512   8.648   0.929   9.837
 7449ION    CL-11513   8.829   3.112  11.523
 7450ION    CL-11514   9.378   0.791  11.407
 7451ION    CL-11515   4.775   8.482   9.281
 7452ION    CL-11516   0.048   0.332   0.185
 7453ION    CL-11517   5.088   4.490  11.977
 7454ION    CL-11518   3.828  10.004   9.116
 7455ION    CL-11519   1.295   4.267   2.364
 7456ION    CL-11520   8.142   7.063  11.971
 7457ION    CL-11521   8.866   1.885   3.096
 7458ION    CL-11522   3.262   7.589  10.744
 7459ION    CL-11523   9.575   6.678  10.253
 7460ION    CL-11524   4.451   8.897   0.150
 7461ION    CL-11525   7.702   5.922   2.167
 7462ION    CL-11526   1.482   4.213  10.539
 7463ION    CL-11527   0.745   6.563   2.412
 7464ION    CL-11528   8.366   5.525   8.894
 7465ION    CL-11529  10.140   4.015   8.797
 7466ION    CL-11530   5.072   3.721  11.526
  10.50000  10.50000  12.00000
