Protein in INSANE! Membrane UpperLeaflet>POPC=1.0 LowerLeaflet>POPC=1.0
12914
    1AU     AUC    1   5.744   5.829   6.005
    1AU     AUC    2   6.025   5.841   5.832
    1AU     AUC    3   6.023   5.816   6.181
    1AU     AUC    4   5.458   5.820   5.836
    1AU     AUC    5   5.472   5.858   6.190
    1AU     AUC    6   5.566   6.106   6.002
    1AU     AUC    7   5.933   6.103   5.999
    1AU     AUC    8   5.557   5.562   6.008
    1AU     AUC    9   5.908   5.541   6.003
    1AU     AUC   10   5.746   5.655   6.282
    1AU     AUC   11   5.738   6.002   6.274
    1AU     AUC   12   5.742   5.667   5.725
    1AU     AUC   13   5.761   5.987   5.726
    1AU     AUC   14   6.340   5.850   5.661
    1AU     AUC   15   6.356   5.788   6.023
    1AU     AUC   16   6.301   5.785   6.355
    1AU     AUC   17   5.153   5.811   5.665
    1AU     AUC   18   5.133   5.845   6.031
    1AU     AUC   19   5.179   5.883   6.377
    1AU     AUC   20   5.396   6.412   5.973
    1AU     AUC   21   5.751   6.425   5.958
    1AU     AUC   22   6.121   6.383   5.992
    1AU     AUC   23   5.361   5.283   6.007
    1AU     AUC   24   5.710   5.231   5.994
    1AU     AUC   25   6.067   5.237   5.982
    1AU     AUC   26   5.724   5.480   6.572
    1AU     AUC   27   5.763   5.858   6.617
    1AU     AUC   28   5.755   6.193   6.558
    1AU     AUC   29   5.771   5.498   5.443
    1AU     AUC   30   5.763   5.827   5.389
    1AU     AUC   31   5.744   6.142   5.433
    1AU     AUC   32   6.016   5.631   6.496
    1AU     AUC   33   6.055   5.998   6.491
    1AU     AUC   34   6.083   5.693   5.497
    1AU     AUC   35   6.077   6.019   5.540
    1AU     AUC   36   5.440   5.696   6.518
    1AU     AUC   37   5.457   6.063   6.487
    1AU     AUC   38   5.446   5.644   5.538
    1AU     AUC   39   5.419   5.957   5.497
    1AU     AUC   40   6.276   6.109   5.858
    1AU     AUC   41   6.241   6.100   6.201
    1AU     AUC   42   5.243   6.118   5.829
    1AU     AUC   43   5.263   6.170   6.183
    1AU     AUC   44   6.215   5.526   5.823
    1AU     AUC   45   6.188   5.471   6.184
    1AU     AUC   46   5.223   5.521   5.854
    1AU     AUC   47   5.277   5.571   6.216
    1AU     AUC   48   5.572   6.364   6.265
    1AU     AUC   49   5.934   6.309   6.257
    1AU     AUC   50   5.547   5.351   6.306
    1AU     AUC   51   5.871   5.308   6.279
    1AU     AUC   52   5.557   6.261   5.688
    1AU     AUC   53   5.947   6.306   5.700
    1AU     AUC   54   5.550   5.360   5.704
    1AU     AUC   55   5.942   5.378   5.700
    1AU    AUSL   56   6.279   5.752   6.699
    1AU    AUSL   57   5.992   5.338   6.651
    1AU     AUL   58   6.308   5.347   6.840
    1AU       S   59   6.372   4.951   6.628
    1AU     LIG   60   6.273   4.819   6.993
    1AU     LIG   61   6.395   4.441   7.173
    1AU     LIG   62   6.622   4.123   7.395
    1AU     LIG   63   6.836   3.970   7.781
    1AU     LIG   64   6.916   3.667   8.124
    1AU       S   65   6.555   5.723   6.776
    1AU     LIG   66   6.505   5.628   7.239
    1AU     LIG   67   6.632   5.470   7.683
    1AU     LIG   68   6.879   5.391   8.097
    1AU     LIG   69   7.239   5.490   8.415
    1AU     LIG   70   7.508   5.612   8.790
    1AU    AUSL   71   5.890   5.670   6.899
    1AU    AUSL   72   5.609   6.026   6.903
    1AU     AUL   73   5.802   5.974   7.236
    1AU       S   74   6.029   5.617   7.066
    1AU     LIG   75   5.943   5.502   7.459
    1AU     LIG   76   6.164   5.274   7.808
    1AU     LIG   77   6.423   5.094   8.170
    1AU     LIG   78   6.438   4.874   8.603
    1AU     LIG   79   6.471   4.876   9.077
    1AU       S   80   5.415   5.754   7.137
    1AU     LIG   81   5.463   5.702   7.614
    1AU     LIG   82   5.190   5.649   7.995
    1AU     LIG   83   5.026   5.700   8.431
    1AU     LIG   84   5.087   5.977   8.826
    1AU     LIG   85   5.049   6.070   9.287
    1AU    AUSL   86   6.019   6.089   6.844
    1AU    AUSL   87   6.377   6.155   6.585
    1AU     AUL   88   6.297   6.029   6.988
    1AU       S   89   5.901   6.391   6.982
    1AU     LIG   90   6.145   6.344   7.362
    1AU     LIG   91   6.370   6.463   7.774
    1AU     LIG   92   6.354   6.507   8.270
    1AU     LIG   93   6.385   6.669   8.723
    1AU     LIG   94   6.650   6.749   9.099
    1AU       S   95   6.454   6.411   6.781
    1AU     LIG   96   6.831   6.207   6.837
    1AU     LIG   97   7.156   6.368   7.159
    1AU     LIG   98   7.436   6.604   7.474
    1AU     LIG   99   7.735   6.739   7.824
    1AU     LIG  100   8.182   6.817   7.998
    1AU    AUSL  101   6.302   5.978   5.271
    1AU    AUSL  102   6.086   6.310   5.475
    1AU     AUL  103   6.195   6.352   5.137
    1AU       S  104   6.281   6.033   4.822
    1AU     LIG  105   6.644   5.877   4.628
    1AU     LIG  106   6.747   5.594   4.288
    1AU     LIG  107   6.845   5.504   3.838
    1AU     LIG  108   7.203   5.422   3.524
    1AU     LIG  109   7.638   5.474   3.316
    1AU       S  110   6.529   6.555   5.371
    1AU     LIG  111   6.665   6.683   4.932
    1AU     LIG  112   6.898   6.781   4.510
    1AU     LIG  113   7.182   6.936   4.166
    1AU     LIG  114   7.472   7.058   3.806
    1AU     LIG  115   7.758   7.328   3.533
    1AU    AUSL  116   6.071   5.651   5.105
    1AU    AUSL  117   6.424   5.598   5.421
    1AU     AUL  118   6.486   5.724   5.115
    1AU       S  119   6.597   5.272   5.197
    1AU     LIG  120   6.705   4.853   4.956
    1AU     LIG  121   6.929   4.453   4.851
    1AU     LIG  122   7.217   4.217   4.567
    1AU     LIG  123   7.546   4.287   4.220
    1AU     LIG  124   8.003   4.400   4.094
    1AU       S  125   6.160   5.891   4.818
    1AU     LIG  126   6.274   5.510   4.621
    1AU     LIG  127   6.338   5.297   4.188
    1AU     LIG  128   6.404   5.256   3.707
    1AU     LIG  129   6.531   5.126   3.248
    1AU     LIG  130   6.748   4.955   2.839
    1AU    AUSL  131   5.877   6.019   5.234
    1AU    AUSL  132   5.653   5.630   5.215
    1AU     AUL  133   5.799   5.645   4.941
    1AU       S  134   5.345   5.666   4.805
    1AU     LIG  135   5.394   5.336   4.558
    1AU     LIG  136   5.150   5.165   4.201
    1AU     LIG  137   4.958   5.145   3.768
    1AU     LIG  138   4.969   5.026   3.305
    1AU     LIG  139   4.926   4.961   2.831
    1AU       S  140   5.939   6.085   4.850
    1AU     LIG  141   6.047   5.925   4.354
    1AU     LIG  142   6.350   5.777   4.004
    1AU     LIG  143   6.470   5.740   3.545
    1AU     LIG  144   6.508   5.820   3.087
    1AU     LIG  145   6.466   6.114   2.730
    1AU    AUSL  146   5.217   5.954   6.743
    1AU    AUSL  147   5.502   6.309   6.611
    1AU     AUL  148   5.367   6.257   6.954
    1AU       S  149   5.243   5.869   7.200
    1AU     LIG  150   5.021   5.512   7.376
    1AU     LIG  151   4.775   5.427   7.780
    1AU     LIG  152   4.586   5.462   8.222
    1AU     LIG  153   4.215   5.396   8.523
    1AU     LIG  154   3.876   5.551   8.825
    1AU       S  155   5.075   6.559   6.710
    1AU     LIG  156   5.108   6.681   7.142
    1AU     LIG  157   4.943   6.913   7.528
    1AU     LIG  158   4.820   7.285   7.798
    1AU     LIG  159   4.662   7.426   8.232
    1AU     LIG  160   4.545   7.602   8.670
    1AU    AUSL  161   5.528   5.669   6.674
    1AU    AUSL  162   5.102   5.544   6.632
    1AU     AUL  163   5.032   5.759   6.806
    1AU       S  164   4.978   5.303   6.881
    1AU     LIG  165   4.541   5.179   6.701
    1AU     LIG  166   4.264   4.820   6.868
    1AU     LIG  167   4.016   4.606   7.217
    1AU     LIG  168   3.799   4.371   7.570
    1AU     LIG  169   3.450   4.335   7.899
    1AU       S  170   5.433   5.612   7.053
    1AU     LIG  171   5.488   5.275   7.353
    1AU     LIG  172   5.248   5.197   7.749
    1AU     LIG  173   5.020   5.176   8.173
    1AU     LIG  174   4.871   4.978   8.579
    1AU     LIG  175   4.913   4.913   9.048
    1AU    AUSL  176   5.243   5.735   5.275
    1AU    AUSL  177   5.428   5.358   5.444
    1AU     AUL  178   5.461   5.348   5.116
    1AU       S  179   5.138   5.646   4.958
    1AU     LIG  180   4.894   5.411   4.660
    1AU     LIG  181   4.719   5.449   4.221
    1AU     LIG  182   4.607   5.548   3.772
    1AU     LIG  183   4.304   5.642   3.410
    1AU     LIG  184   3.936   5.668   3.083
    1AU       S  185   5.037   5.220   5.246
    1AU     LIG  186   4.772   4.836   5.109
    1AU     LIG  187   4.523   4.499   4.917
    1AU     LIG  188   4.302   4.224   4.606
    1AU     LIG  189   4.231   4.082   4.153
    1AU     LIG  190   4.281   3.872   3.733
    1AU    AUSL  191   5.497   6.030   5.067
    1AU    AUSL  192   5.025   6.075   5.421
    1AU     AUL  193   5.145   6.086   5.091
    1AU       S  194   4.730   6.238   5.257
    1AU     LIG  195   4.717   6.327   4.790
    1AU     LIG  196   4.634   6.683   4.490
    1AU     LIG  197   4.363   6.849   4.133
    1AU     LIG  198   3.947   6.896   3.890
    1AU     LIG  199   3.596   7.161   3.728
    1AU       S  200   5.424   5.891   4.768
    1AU     LIG  201   5.140   5.774   4.373
    1AU     LIG  202   5.117   5.616   3.939
    1AU     LIG  203   5.040   5.595   3.486
    1AU     LIG  204   5.098   5.824   3.083
    1AU     LIG  205   4.885   5.964   2.691
    1AU    AUSL  206   6.473   6.249   6.046
    1AU    AUSL  207   6.460   6.146   5.623
    1AU     AUL  208   6.739   6.397   5.864
    1AU       S  209   6.587   6.317   5.437
    1AU     LIG  210   6.726   6.187   5.049
    1AU     LIG  211   7.058   6.361   4.763
    1AU     LIG  212   7.395   6.625   4.531
    1AU     LIG  213   7.691   6.854   4.241
    1AU     LIG  214   7.965   7.136   3.977
    1AU       S  215   6.996   6.145   6.180
    1AU     LIG  216   7.404   6.355   6.131
    1AU     LIG  217   7.863   6.442   6.035
    1AU     LIG  218   8.291   6.612   6.044
    1AU     LIG  219   8.602   6.906   6.207
    1AU     LIG  220   8.766   7.282   6.444
    1AU    AUSL  221   6.701   5.906   5.875
    1AU    AUSL  222   6.667   5.534   6.168
    1AU     AUL  223   6.965   5.594   5.936
    1AU       S  224   6.917   6.021   6.073
    1AU     LIG  225   7.362   5.909   5.900
    1AU     LIG  226   7.841   5.973   5.829
    1AU     LIG  227   8.283   6.163   5.752
    1AU     LIG  228   8.722   6.278   5.544
    1AU     LIG  229   9.106   6.355   5.291
    1AU       S  230   6.873   5.162   6.127
    1AU     LIG  231   7.274   5.020   6.274
    1AU     LIG  232   7.724   4.862   6.267
    1AU     LIG  233   8.188   4.716   6.271
    1AU     LIG  234   8.669   4.824   6.295
    1AU     LIG  235   9.124   4.750   6.465
    1AU    AUSL  236   6.497   5.899   6.281
    1AU    AUSL  237   6.320   6.518   6.331
    1AU     AUL  238   6.612   6.311   6.357
    1AU       S  239   6.512   6.686   6.630
    1AU     LIG  240   6.878   6.730   6.912
    1AU     LIG  241   7.203   6.970   7.171
    1AU     LIG  242   7.372   7.403   7.339
    1AU     LIG  243   7.543   7.875   7.366
    1AU     LIG  244   7.920   8.136   7.521
    1AU       S  245   6.846   5.910   6.378
    1AU     LIG  246   7.322   5.937   6.475
    1AU     LIG  247   7.768   6.029   6.336
    1AU     LIG  248   8.242   6.159   6.294
    1AU     LIG  249   8.580   6.458   6.502
    1AU     LIG  250   9.006   6.606   6.666
    1AU    AUSL  251   5.071   6.386   6.016
    1AU    AUSL  252   5.135   6.193   6.410
    1AU     AUL  253   4.827   6.490   6.245
    1AU       S  254   4.993   6.343   6.649
    1AU     LIG  255   4.871   6.212   7.058
    1AU     LIG  256   4.709   6.456   7.433
    1AU     LIG  257   4.454   6.708   7.762
    1AU     LIG  258   4.098   6.781   8.094
    1AU     LIG  259   3.735   6.940   8.367
    1AU       S  260   5.068   6.775   5.938
    1AU     LIG  261   4.617   6.762   5.850
    1AU     LIG  262   4.194   7.018   5.899
    1AU     LIG  263   3.785   7.306   5.924
    1AU     LIG  264   3.356   7.560   5.896
    1AU     LIG  265   2.909   7.747   5.947
    1AU    AUSL  266   5.034   5.996   5.827
    1AU    AUSL  267   5.152   6.446   5.608
    1AU     AUL  268   4.847   6.319   5.709
    1AU       S  269   4.669   5.788   5.472
    1AU     LIG  270   4.274   6.046   5.513
    1AU     LIG  271   3.849   6.190   5.305
    1AU     LIG  272   3.366   6.208   5.416
    1AU     LIG  273   2.971   6.496   5.397
    1AU     LIG  274   2.605   6.671   5.148
    1AU       S  275   4.978   6.703   5.442
    1AU     LIG  276   4.967   7.024   5.073
    1AU     LIG  277   4.919   7.433   4.792
    1AU     LIG  278   4.779   7.901   4.684
    1AU     LIG  279   4.477   8.254   4.534
    1AU     LIG  280   4.134   8.587   4.501
    1AU    AUSL  281   4.814   6.033   6.201
    1AU    AUSL  282   4.791   5.663   5.904
    1AU     AUL  283   4.625   5.976   5.913
    1AU       S  284   4.588   5.573   6.169
    1AU     LIG  285   4.293   5.581   5.779
    1AU     LIG  286   3.916   5.347   5.615
    1AU     LIG  287   3.462   5.180   5.585
    1AU     LIG  288   2.978   5.124   5.712
    1AU     LIG  289   2.530   5.051   5.561
    1AU       S  290   4.665   6.056   6.415
    1AU     LIG  291   4.206   6.165   6.410
    1AU     LIG  292   3.785   6.218   6.667
    1AU     LIG  293   3.387   6.462   6.781
    1AU     LIG  294   2.905   6.403   6.768
    1AU     LIG  295   2.461   6.545   6.614
    1AU    AUSL  296   6.398   5.231   6.024
    1AU    AUSL  297   6.296   5.484   6.378
    1AU     AUL  298   6.592   5.376   6.425
    1AU       S  299   6.571   5.056   6.007
    1AU     LIG  300   6.868   4.659   6.077
    1AU     LIG  301   7.340   4.551   6.056
    1AU     LIG  302   7.789   4.385   6.080
    1AU     LIG  303   8.196   4.181   6.200
    1AU     LIG  304   8.447   3.808   6.377
    1AU       S  305   6.499   4.935   6.472
    1AU     LIG  306   6.732   4.643   6.764
    1AU     LIG  307   6.926   4.414   7.104
    1AU     LIG  308   7.155   4.165   7.422
    1AU     LIG  309   7.470   4.150   7.775
    1AU     LIG  310   7.878   4.151   8.024
    1AU    AUSL  311   6.403   5.617   5.836
    1AU    AUSL  312   6.349   5.209   5.605
    1AU     AUL  313   6.625   5.430   5.663
    1AU       S  314   6.836   5.120   5.906
    1AU     LIG  315   7.258   4.975   5.764
    1AU     LIG  316   7.716   4.785   5.756
    1AU     LIG  317   8.174   4.580   5.780
    1AU     LIG  318   8.657   4.645   5.739
    1AU     LIG  319   9.018   4.717   5.432
    1AU       S  320   6.546   5.053   5.383
    1AU     LIG  321   6.465   4.565   5.356
    1AU     LIG  322   6.679   4.146   5.181
    1AU     LIG  323   6.925   3.857   4.883
    1AU     LIG  324   7.285   3.531   4.798
    1AU     LIG  325   7.637   3.187   4.702
    1AU    AUSL  326   5.001   5.307   6.050
    1AU    AUSL  327   5.091   5.556   5.628
    1AU     AUL  328   4.752   5.364   5.770
    1AU       S  329   4.936   5.386   5.346
    1AU     LIG  330   4.486   5.187   5.359
    1AU     LIG  331   4.206   4.873   5.090
    1AU     LIG  332   3.968   4.583   4.763
    1AU     LIG  333   3.816   4.276   4.411
    1AU     LIG  334   3.571   4.074   4.039
    1AU       S  335   4.554   5.336   6.198
    1AU     LIG  336   4.316   5.075   5.870
    1AU     LIG  337   3.868   4.873   5.820
    1AU     LIG  338   3.395   4.818   5.976
    1AU     LIG  339   3.061   4.594   6.259
    1AU     LIG  340   2.633   4.385   6.380
    1AU    AUSL  341   5.055   5.692   6.246
    1AU    AUSL  342   5.315   5.324   6.334
    1AU     AUL  343   4.975   5.288   6.392
    1AU       S  344   5.014   5.110   6.815
    1AU     LIG  345   4.858   4.797   6.533
    1AU     LIG  346   4.538   4.456   6.617
    1AU     LIG  347   4.189   4.247   6.895
    1AU     LIG  348   3.873   4.007   7.187
    1AU     LIG  349   3.551   3.631   7.261
    1AU       S  350   4.626   5.590   6.350
    1AU     LIG  351   4.116   5.691   6.242
    1AU     LIG  352   3.702   5.597   6.016
    1AU     LIG  353   3.344   5.330   6.047
    1AU     LIG  354   2.980   5.103   6.223
    1AU     LIG  355   2.655   4.901   6.458
    1AU    AUSL  356   5.735   6.638   6.471
    1AU    AUSL  357   5.328   6.562   6.308
    1AU     AUL  358   5.532   6.649   6.713
    1AU       S  359   5.196   6.750   6.409
    1AU     LIG  360   5.170   7.054   6.773
    1AU     LIG  361   4.948   7.276   7.153
    1AU     LIG  362   4.744   7.647   7.390
    1AU     LIG  363   4.443   8.035   7.430
    1AU     LIG  364   4.077   8.352   7.506
    1AU       S  365   5.773   6.976   6.436
    1AU     LIG  366   5.872   7.053   6.835
    1AU     LIG  367   5.976   7.496   6.985
    1AU     LIG  368   5.941   7.828   7.343
    1AU     LIG  369   6.006   8.083   7.766
    1AU     LIG  370   5.967   8.471   8.056
    1AU    AUSL  371   5.591   6.773   6.054
    1AU    AUSL  372   5.902   6.685   5.715
    1AU     AUL  373   5.828   7.033   5.829
    1AU       S  374   5.608   7.034   6.245
    1AU     LIG  375   5.713   7.457   6.516
    1AU     LIG  376   5.604   7.854   6.770
    1AU     LIG  377   5.448   8.307   6.842
    1AU     LIG  378   5.407   8.783   6.913
    1AU     LIG  379   5.390   9.240   6.798
    1AU       S  380   5.613   6.915   5.445
    1AU     LIG  381   5.988   7.227   5.396
    1AU     LIG  382   6.185   7.666   5.324
    1AU     LIG  383   6.494   8.045   5.270
    1AU     LIG  384   6.717   8.476   5.248
    1AU     LIG  385   6.666   8.929   5.158
    1AU    AUSL  386   5.965   6.560   6.117
    1AU    AUSL  387   5.979   6.300   6.495
    1AU     AUL  388   6.052   6.626   6.557
    1AU       S  389   6.347   6.524   6.891
    1AU     LIG  390   6.633   6.445   7.259
    1AU     LIG  391   6.926   6.692   7.515
    1AU     LIG  392   7.217   7.032   7.694
    1AU     LIG  393   7.252   7.409   7.990
    1AU     LIG  394   7.201   7.623   8.420
    1AU       S  395   6.038   6.925   6.215
    1AU     LIG  396   6.212   7.255   6.509
    1AU     LIG  397   6.380   7.695   6.646
    1AU     LIG  398   6.717   8.071   6.669
    1AU     LIG  399   6.870   8.528   6.748
    1AU     LIG  400   6.874   8.938   6.951
    1AU    AUSL  401   5.689   5.111   6.443
    1AU    AUSL  402   6.099   5.112   6.295
    1AU     AUL  403   5.913   5.022   6.691
    1AU       S  404   5.698   4.663   6.486
    1AU     LIG  405   5.516   4.605   6.848
    1AU     LIG  406   5.446   4.147   6.937
    1AU     LIG  407   5.483   3.667   6.958
    1AU     LIG  408   5.504   3.344   7.317
    1AU     LIG  409   5.495   3.241   7.801
    1AU       S  410   6.240   4.910   6.358
    1AU     LIG  411   6.256   4.469   6.580
    1AU     LIG  412   6.578   4.149   6.800
    1AU     LIG  413   6.921   3.888   7.031
    1AU     LIG  414   7.053   3.438   7.155
    1AU     LIG  415   7.366   3.099   7.341
    1AU    AUSL  416   5.374   4.957   6.152
    1AU    AUSL  417   5.457   5.270   6.750
    1AU     AUL  418   5.345   4.989   6.512
    1AU       S  419   5.495   4.589   6.318
    1AU     LIG  420   5.183   4.364   6.534
    1AU     LIG  421   5.185   3.892   6.573
    1AU     LIG  422   5.143   3.424   6.601
    1AU     LIG  423   4.926   2.992   6.621
    1AU     LIG  424   4.895   2.669   6.950
    1AU       S  425   5.244   5.158   6.946
    1AU     LIG  426   5.026   4.672   7.010
    1AU     LIG  427   4.588   4.490   7.134
    1AU     LIG  428   4.297   4.227   7.418
    1AU     LIG  429   4.137   4.075   7.843
    1AU     LIG  430   4.207   3.883   8.281
    1AU    AUSL  431   5.805   4.889   6.093
    1AU    AUSL  432   5.571   5.131   5.814
    1AU     AUL  433   5.461   4.779   5.890
    1AU       S  434   5.853   4.683   5.673
    1AU     LIG  435   5.543   4.313   5.663
    1AU     LIG  436   5.332   3.895   5.486
    1AU     LIG  437   5.131   3.445   5.431
    1AU     LIG  438   4.915   2.995   5.387
    1AU     LIG  439   4.782   2.614   5.110
    1AU       S  440   5.816   4.681   6.217
    1AU     LIG  441   5.852   4.222   6.258
    1AU     LIG  442   5.783   3.846   6.556
    1AU     LIG  443   6.030   3.454   6.738
    1AU     LIG  444   6.164   2.980   6.790
    1AU     LIG  445   6.119   2.475   6.741
    1AU    AUSL  446   5.723   6.476   5.354
    1AU    AUSL  447   6.287   6.529   5.787
    1AU     AUL  448   6.067   6.684   5.447
    1AU       S  449   5.658   6.815   5.247
    1AU     LIG  450   5.827   7.081   4.942
    1AU     LIG  451   5.947   7.522   4.876
    1AU     LIG  452   6.067   7.783   4.498
    1AU     LIG  453   6.120   8.064   4.134
    1AU     LIG  454   5.992   8.500   4.099
    1AU       S  455   6.515   6.683   5.579
    1AU     LIG  456   6.976   6.736   5.356
    1AU     LIG  457   7.169   6.867   4.938
    1AU     LIG  458   7.318   7.202   4.617
    1AU     LIG  459   7.508   7.674   4.618
    1AU     LIG  460   7.686   8.143   4.680
    1AU    AUSL  461   5.533   6.485   5.757
    1AU    AUSL  462   5.451   6.165   5.457
    1AU     AUL  463   5.375   6.461   5.325
    1AU       S  464   5.445   6.844   5.596
    1AU     LIG  465   5.498   7.380   5.509
    1AU     LIG  466   5.669   7.815   5.345
    1AU     LIG  467   5.446   8.253   5.264
    1AU     LIG  468   5.373   8.752   5.336
    1AU     LIG  469   5.386   9.262   5.294
    1AU       S  470   4.928   6.492   5.207
    1AU     LIG  471   5.163   6.604   4.850
    1AU     LIG  472   5.078   6.955   4.521
    1AU     LIG  473   4.974   7.093   4.056
    1AU     LIG  474   4.891   7.345   3.640
    1AU     LIG  475   4.604   7.691   3.474
    1AU    AUSL  476   5.759   5.091   5.424
    1AU    AUSL  477   5.168   5.126   5.705
    1AU     AUL  478   5.432   4.977   5.462
    1AU       S  479   4.987   5.103   5.466
    1AU     LIG  480   4.726   4.828   5.646
    1AU     LIG  481   4.392   4.568   5.452
    1AU     LIG  482   4.123   4.293   5.156
    1AU     LIG  483   3.821   4.038   4.878
    1AU     LIG  484   3.432   3.719   4.851
    1AU       S  485   5.822   4.704   5.515
    1AU     LIG  486   5.934   4.339   5.277
    1AU     LIG  487   5.707   3.965   5.116
    1AU     LIG  488   5.482   3.561   5.050
    1AU     LIG  489   5.460   3.228   4.713
    1AU     LIG  490   5.646   3.015   4.332
    1AU    AUSL  491   5.997   5.114   5.800
    1AU    AUSL  492   6.011   5.425   5.447
    1AU     AUL  493   6.082   5.064   5.405
    1AU       S  494   6.120   4.765   5.766
    1AU     LIG  495   6.091   4.263   5.766
    1AU     LIG  496   5.834   3.903   5.603
    1AU     LIG  497   5.936   3.528   5.316
    1AU     LIG  498   6.206   3.175   5.129
    1AU     LIG  499   6.527   2.815   5.199
    1AU       S  500   6.345   5.254   5.089
    1AU     LIG  501   6.197   4.808   4.994
    1AU     LIG  502   6.402   4.404   4.835
    1AU     LIG  503   6.684   4.147   4.516
    1AU     LIG  504   6.976   4.149   4.122
    1AU     LIG  505   7.120   3.961   3.712
    2POPC   NC3  506   2.171   7.887   8.088
    2POPC   PO4  507   2.399   8.433   8.251
    2POPC   GL1  508   2.360   8.306   7.734
    2POPC   GL2  509   2.289   7.936   7.616
    2POPC   C1A  510   2.257   8.250   7.257
    2POPC   D2A  511   2.167   8.402   6.867
    2POPC   C3A  512   2.223   8.261   6.437
    2POPC   C4A  513   2.390   8.443   6.047
    2POPC   C1B  514   1.864   7.916   7.424
    2POPC   C2B  515   1.719   7.798   7.021
    2POPC   C3B  516   1.787   7.837   6.575
    2POPC   C4B  517   1.718   8.155   6.281
    3POPC   NC3  518   1.920   2.702   8.263
    3POPC   PO4  519   1.591   3.259   8.014
    3POPC   GL1  520   1.794   2.993   7.680
    3POPC   GL2  521   2.112   2.965   7.825
    3POPC   C1A  522   1.729   2.759   7.247
    3POPC   D2A  523   1.797   2.562   6.806
    3POPC   C3A  524   1.647   2.863   6.487
    3POPC   C4A  525   1.756   3.012   6.078
    3POPC   C1B  526   2.245   2.806   7.388
    3POPC   C2B  527   2.411   2.798   6.988
    3POPC   C3B  528   2.351   2.658   6.615
    3POPC   C4B  529   2.132   2.810   6.344
    4POPC   NC3  530   8.139   9.780   8.022
    4POPC   PO4  531   8.321   9.142   8.146
    4POPC   GL1  532   8.397   9.390   7.774
    4POPC   GL2  533   8.085   9.568   7.566
    4POPC   C1A  534   8.490   9.324   7.359
    4POPC   D2A  535   8.228   9.531   7.034
    4POPC   C3A  536   8.368   9.608   6.623
    4POPC   C4A  537   8.387   9.397   6.194
    4POPC   C1B  538   7.795   9.833   7.292
    4POPC   C2B  539   7.683  10.013   6.865
    4POPC   C3B  540   7.648   9.813   6.471
    4POPC   C4B  541   8.009   9.718   6.282
    5POPC   NC3  542   1.945   0.527   7.972
    5POPC   PO4  543   1.541   0.005   8.063
    5POPC   GL1  544   1.634   0.128   7.632
    5POPC   GL2  545   1.958   0.308   7.529
    5POPC   C1A  546   1.720   0.070   7.183
    5POPC   D2A  547   1.894   0.349   6.884
    5POPC   C3A  548   1.876   0.159   6.499
    5POPC   C4A  549   1.721   0.191   6.100
    5POPC   C1B  550   1.914   0.697   7.277
    5POPC   C2B  551   1.817   0.851   6.830
    5POPC   C3B  552   2.006   0.675   6.411
    5POPC   C4B  553   1.934   0.596   5.927
    6POPC   NC3  554   7.216   9.396   8.031
    6POPC   PO4  555   7.655   9.884   8.065
    6POPC   GL1  556   7.508   9.683   7.697
    6POPC   GL2  557   7.172   9.856   7.694
    6POPC   C1A  558   7.591   9.372   7.338
    6POPC   D2A  559   7.714   9.494   6.889
    6POPC   C3A  560   7.624   9.311   6.457
    6POPC   C4A  561   7.755   9.391   5.985
    6POPC   C1B  562   7.245   9.734   7.262
    6POPC   C2B  563   7.172   9.699   6.865
    6POPC   C3B  564   7.177   9.536   6.478
    6POPC   C4B  565   7.292   9.659   6.082
    7POPC   NC3  566  10.905   0.393   8.006
    7POPC   PO4  567   0.078   0.703   8.088
    7POPC   GL1  568   0.128   0.522   7.706
    7POPC   GL2  569  11.293   0.451   7.633
    7POPC   C1A  570   0.137   0.651   7.294
    7POPC   D2A  571  11.290   0.643   7.021
    7POPC   C3A  572  11.438   0.510   6.632
    7POPC   C4A  573  11.259   0.532   6.239
    7POPC   C1B  574  10.925   0.397   7.347
    7POPC   C2B  575  10.811   0.482   6.917
    7POPC   C3B  576  10.913   0.290   6.535
    7POPC   C4B  577  10.655   0.098   6.199
    8POPC   NC3  578  10.586   7.270   8.114
    8POPC   PO4  579  10.610   7.933   8.121
    8POPC   GL1  580  10.668   7.638   7.740
    8POPC   GL2  581  10.370   7.420   7.688
    8POPC   C1A  582  10.688   7.505   7.274
    8POPC   D2A  583  10.670   7.697   6.854
    8POPC   C3A  584  10.451   7.470   6.515
    8POPC   C4A  585  10.608   7.450   6.099
    8POPC   C1B  586  10.175   7.340   7.305
    8POPC   C2B  587  10.294   7.174   6.915
    8POPC   C3B  588  10.100   7.042   6.565
    8POPC   C4B  589   9.962   7.375   6.293
    9POPC   NC3  590   1.930   8.877   8.060
    9POPC   PO4  591   1.907   8.257   7.978
    9POPC   GL1  592   1.935   8.563   7.625
    9POPC   GL2  593   2.251   8.805   7.643
    9POPC   C1A  594   1.774   8.389   7.220
    9POPC   D2A  595   1.692   8.293   6.795
    9POPC   C3A  596   1.824   8.605   6.475
    9POPC   C4A  597   1.874   8.588   6.016
    9POPC   C1B  598   2.131   8.818   7.186
    9POPC   C2B  599   2.204   8.875   6.714
    9POPC   C3B  600   2.131   8.969   6.265
    9POPC   C4B  601   1.925   9.298   6.008
   10POPC   NC3  602   9.405   1.790   8.031
   10POPC   PO4  603   8.741   1.962   8.019
   10POPC   GL1  604   8.845   1.873   7.592
   10POPC   GL2  605   9.168   2.051   7.605
   10POPC   C1A  606   8.938   1.718   7.168
   10POPC   D2A  607   9.162   1.976   6.838
   10POPC   C3A  608   9.337   1.897   6.459
   10POPC   C4A  609   9.030   1.977   6.141
   10POPC   C1B  610   8.961   2.239   7.245
   10POPC   C2B  611   8.694   2.100   6.906
   10POPC   C3B  612   8.629   1.968   6.488
   10POPC   C4B  613   8.562   2.222   6.098
   11POPC   NC3  614  11.272   5.953   8.056
   11POPC   PO4  615  10.679   6.318   8.070
   11POPC   GL1  616  10.908   6.136   7.696
   11POPC   GL2  617  11.021   5.770   7.665
   11POPC   C1A  618  11.040   6.039   7.246
   11POPC   D2A  619  11.319   5.802   6.927
   11POPC   C3A  620  11.163   5.824   6.499
   11POPC   C4A  621  11.067   6.238   6.304
   11POPC   C1B  622  11.251   5.536   7.365
   11POPC   C2B  623  11.450   5.307   7.030
   11POPC   C3B  624  11.467   5.403   6.593
   11POPC   C4B  625  11.244   5.398   6.181
   12POPC   NC3  626   0.403   0.253   8.057
   12POPC   PO4  627   0.852   0.769   7.954
   12POPC   GL1  628   0.637   0.567   7.671
   12POPC   GL2  629   0.771   0.270   7.603
   12POPC   C1A  630   0.668   0.682   7.258
   12POPC   D2A  631   0.469   0.565   6.875
   12POPC   C3A  632   0.627   0.749   6.507
   12POPC   C4A  633   0.774   0.690   6.075
   12POPC   C1B  634   0.444   0.215   7.290
   12POPC   C2B  635   0.258   0.091   6.880
   12POPC   C3B  636   0.393   0.231   6.467
   12POPC   C4B  637   0.266   0.573   6.207
   13POPC   NC3  638   2.949   2.877   8.130
   13POPC   PO4  639   2.380   2.727   8.231
   13POPC   GL1  640   2.585   2.797   7.777
   13POPC   GL2  641   2.812   2.573   7.676
   13POPC   C1A  642   2.739   2.952   7.338
   13POPC   D2A  643   2.735   3.209   6.954
   13POPC   C3A  644   2.747   2.993   6.595
   13POPC   C4A  645   2.892   2.655   6.379
   13POPC   C1B  646   2.633   2.432   7.293
   13POPC   C2B  647   2.756   2.435   6.856
   13POPC   C3B  648   2.602   2.244   6.478
   13POPC   C4B  649   2.479   2.459   6.128
   14POPC   NC3  650  11.299   8.768   8.011
   14POPC   PO4  651  10.646   8.876   7.847
   14POPC   GL1  652  10.891   8.619   7.583
   14POPC   GL2  653  11.221   8.743   7.521
   14POPC   C1A  654  10.910   8.681   7.133
   14POPC   D2A  655  11.229   8.719   6.826
   14POPC   C3A  656  10.990   8.850   6.492
   14POPC   C4A  657  10.889   8.744   6.080
   14POPC   C1B  658  11.395   9.053   7.235
   14POPC   C2B  659  11.268   9.256   6.838
   14POPC   C3B  660  11.465   9.105   6.509
   14POPC   C4B  661  11.367   8.847   6.146
   15POPC   NC3  662   8.587  11.392   8.041
   15POPC   PO4  663   9.087  10.974   8.257
   15POPC   GL1  664   8.927  11.038   7.773
   15POPC   GL2  665   9.033  11.256   7.508
   15POPC   C1A  666   8.748  10.868   7.339
   15POPC   D2A  667   8.863  11.072   6.910
   15POPC   C3A  668   8.934  10.879   6.463
   15POPC   C4A  669   8.944  10.935   5.998
   15POPC   C1B  670   8.592  11.355   7.328
   15POPC   C2B  671   8.490  11.427   6.902
   15POPC   C3B  672   8.742  11.415   6.519
   15POPC   C4B  673   9.160  11.352   6.382
   16POPC   NC3  674   6.873  11.347   7.847
   16POPC   PO4  675   6.848  10.670   8.074
   16POPC   GL1  676   6.646  10.865   7.679
   16POPC   GL2  677   6.573  11.212   7.460
   16POPC   C1A  678   6.783  10.817   7.259
   16POPC   D2A  679   6.752  11.055   6.874
   16POPC   C3A  680   6.709  10.838   6.451
   16POPC   C4A  681   6.513  11.044   6.060
   16POPC   C1B  682   6.243  11.342   7.137
   16POPC   C2B  683   6.235  11.182   6.714
   16POPC   C3B  684   6.591  11.344   6.489
   16POPC   C4B  685   6.518   0.081   6.179
   17POPC   NC3  686   0.535   8.099   8.130
   17POPC   PO4  687   0.043   7.677   7.866
   17POPC   GL1  688   0.221   8.004   7.642
   17POPC   GL2  689   0.558   8.116   7.629
   17POPC   C1A  690   0.221   8.081   7.213
   17POPC   D2A  691   0.450   8.083   6.857
   17POPC   C3A  692   0.200   8.043   6.496
   17POPC   C4A  693   0.174   8.188   6.085
   17POPC   C1B  694   0.692   8.415   7.340
   17POPC   C2B  695   0.737   8.515   6.905
   17POPC   C3B  696   0.889   8.208   6.625
   17POPC   C4B  697   0.699   7.981   6.299
   18POPC   NC3  698   4.210  11.088   8.067
   18POPC   PO4  699   4.654   0.109   8.045
   18POPC   GL1  700   4.422  11.468   7.682
   18POPC   GL2  701   4.433  11.115   7.626
   18POPC   C1A  702   4.375  11.418   7.212
   18POPC   D2A  703   4.288   0.078   6.793
   18POPC   C3A  704   4.212  11.314   6.415
   18POPC   C4A  705   4.215  11.376   5.951
   18POPC   C1B  706   4.392  10.913   7.256
   18POPC   C2B  707   4.353  11.031   6.836
   18POPC   C3B  708   4.579  10.876   6.481
   18POPC   C4B  709   4.430  10.926   6.087
   19POPC   NC3  710   5.797  11.111   8.036
   19POPC   PO4  711   6.500  11.203   8.082
   19POPC   GL1  712   6.195  11.060   7.746
   19POPC   GL2  713   6.053  11.373   7.634
   19POPC   C1A  714   6.163  10.865   7.305
   19POPC   D2A  715   5.850  10.775   6.957
   19POPC   C3A  716   5.815  10.878   6.516
   19POPC   C4A  717   6.019  11.103   6.200
   19POPC   C1B  718   5.760  11.206   7.320
   19POPC   C2B  719   5.722  11.254   6.888
   19POPC   C3B  720   5.667  11.361   6.491
   19POPC   C4B  721   5.466   0.107   6.242
   20POPC   NC3  722   6.570   0.985   8.098
   20POPC   PO4  723   6.259   1.568   7.983
   20POPC   GL1  724   6.487   1.310   7.689
   20POPC   GL2  725   6.430   0.958   7.623
   20POPC   C1A  726   6.546   1.375   7.254
   20POPC   D2A  727   6.534   1.610   6.876
   20POPC   C3A  728   6.420   1.395   6.509
   20POPC   C4A  729   6.317   1.380   6.071
   20POPC   C1B  730   6.755   0.908   7.337
   20POPC   C2B  731   6.684   1.022   6.909
   20POPC   C3B  732   6.876   0.975   6.540
   20POPC   C4B  733   6.768   1.154   6.185
   21POPC   NC3  734   0.393   6.299   8.134
   21POPC   PO4  735   0.578   6.999   8.041
   21POPC   GL1  736   0.253   6.821   7.724
   21POPC   GL2  737   0.371   6.472   7.648
   21POPC   C1A  738   0.096   6.731   7.278
   21POPC   D2A  739   0.234   6.535   6.896
   21POPC   C3A  740   0.065   6.742   6.557
   21POPC   C4A  741   0.227   6.887   6.165
   21POPC   C1B  742   0.590   6.608   7.276
   21POPC   C2B  743   0.738   6.418   6.863
   21POPC   C3B  744   0.562   6.558   6.453
   21POPC   C4B  745   0.531   6.463   6.004
   22POPC   NC3  746   2.387   6.197   8.187
   22POPC   PO4  747   2.211   6.784   8.089
   22POPC   GL1  748   1.877   6.800   7.806
   22POPC   GL2  749   1.862   6.467   7.719
   22POPC   C1A  750   1.866   6.921   7.379
   22POPC   D2A  751   1.913   6.761   6.964
   22POPC   C3A  752   2.104   6.944   6.598
   22POPC   C4A  753   2.217   6.733   6.185
   22POPC   C1B  754   2.047   6.308   7.315
   22POPC   C2B  755   1.891   6.254   6.882
   22POPC   C3B  756   1.904   6.452   6.477
   22POPC   C4B  757   1.788   6.340   6.050
   23POPC   NC3  758  11.113   7.723   8.035
   23POPC   PO4  759  10.952   8.442   8.120
   23POPC   GL1  760  10.926   8.135   7.753
   23POPC   GL2  761  11.259   8.234   7.684
   23POPC   C1A  762  11.074   7.856   7.368
   23POPC   D2A  763  11.167   7.601   6.977
   23POPC   C3A  764  11.091   7.820   6.557
   23POPC   C4A  765  11.060   7.958   6.130
   23POPC   C1B  766  11.263   8.321   7.238
   23POPC   C2B  767  11.314   8.203   6.814
   23POPC   C3B  768  11.262   8.372   6.387
   23POPC   C4B  769  11.237   8.374   5.926
   24POPC   NC3  770   0.117   4.262   8.280
   24POPC   PO4  771   0.745   4.437   8.247
   24POPC   GL1  772   0.436   4.286   7.866
   24POPC   GL2  773   0.297   4.546   7.665
   24POPC   C1A  774   0.347   4.109   7.403
   24POPC   D2A  775   0.468   4.189   6.947
   24POPC   C3A  776   0.301   4.007   6.564
   24POPC   C4A  777   0.381   4.083   6.111
   24POPC   C1B  778   0.556   4.563   7.289
   24POPC   C2B  779   0.613   4.656   6.827
   24POPC   C3B  780   0.413   4.516   6.434
   24POPC   C4B  781   0.075   4.509   6.120
   25POPC   NC3  782   1.150   1.125   8.073
   25POPC   PO4  783   1.516   1.628   8.062
   25POPC   GL1  784   1.231   1.515   7.709
   25POPC   GL2  785   1.213   1.156   7.587
   25POPC   C1A  786   1.253   1.547   7.249
   25POPC   D2A  787   1.023   1.451   6.851
   25POPC   C3A  788   1.238   1.579   6.504
   25POPC   C4A  789   1.353   1.438   6.123
   25POPC   C1B  790   1.138   1.010   7.186
   25POPC   C2B  791   1.185   0.956   6.776
   25POPC   C3B  792   1.065   1.075   6.394
   25POPC   C4B  793   1.185   0.984   5.979
   26POPC   NC3  794   1.230   9.591   8.091
   26POPC   PO4  795   1.697   9.225   7.846
   26POPC   GL1  796   1.475   9.601   7.610
   26POPC   GL2  797   1.191   9.834   7.668
   26POPC   C1A  798   1.413   9.743   7.192
   26POPC   D2A  799   1.242   9.412   6.954
   26POPC   C3A  800   1.344   9.388   6.538
   26POPC   C4A  801   1.257   9.519   6.167
   26POPC   C1B  802   0.936   9.692   7.368
   26POPC   C2B  803   0.937   9.833   6.966
   26POPC   C3B  804   1.135   9.842   6.595
   26POPC   C4B  805   0.873   9.822   6.245
   27POPC   NC3  806   5.290   2.553   8.217
   27POPC   PO4  807   5.480   1.951   8.076
   27POPC   GL1  808   5.385   1.727   7.679
   27POPC   GL2  809   5.740   1.751   7.550
   27POPC   C1A  810   5.310   1.885   7.234
   27POPC   D2A  811   5.616   2.066   6.934
   27POPC   C3A  812   5.492   2.091   6.492
   27POPC   C4A  813   5.717   2.160   6.101
   27POPC   C1B  814   5.654   1.526   7.180
   27POPC   C2B  815   5.538   1.601   6.738
   27POPC   C3B  816   5.855   1.733   6.436
   27POPC   C4B  817   6.113   1.826   6.090
   28POPC   NC3  818   7.674   0.287   7.936
   28POPC   PO4  819   7.129  11.437   8.230
   28POPC   GL1  820   7.138   0.269   7.786
   28POPC   GL2  821   7.282   0.620   7.806
   28POPC   C1A  822   7.243   0.172   7.297
   28POPC   D2A  823   6.985   0.057   6.921
   28POPC   C3A  824   7.130  11.500   6.502
   28POPC   C4A  825   7.008   0.159   6.082
   28POPC   C1B  826   7.244   0.673   7.347
   28POPC   C2B  827   7.427   0.509   6.950
   28POPC   C3B  828   7.456   0.390   6.512
   28POPC   C4B  829   7.276   0.595   6.143
   29POPC   NC3  830   8.008   8.795   8.132
   29POPC   PO4  831   8.593   8.601   8.123
   29POPC   GL1  832   8.357   8.819   7.729
   29POPC   GL2  833   8.023   9.055   7.709
   29POPC   C1A  834   8.029   8.644   7.397
   29POPC   D2A  835   7.881   8.777   6.958
   29POPC   C3A  836   8.132   8.645   6.606
   29POPC   C4A  837   7.991   8.543   6.204
   29POPC   C1B  838   8.031   9.131   7.288
   29POPC   C2B  839   8.351   8.995   7.000
   29POPC   C3B  840   8.372   9.088   6.595
   29POPC   C4B  841   8.019   9.059   6.301
   30POPC   NC3  842   6.342   9.597   8.200
   30POPC   PO4  843   6.826   9.166   8.083
   30POPC   GL1  844   6.756   9.540   7.763
   30POPC   GL2  845   6.431   9.754   7.707
   30POPC   C1A  846   6.745   9.618   7.286
   30POPC   D2A  847   6.723   9.473   6.845
   30POPC   C3A  848   6.719   9.761   6.475
   30POPC   C4A  849   6.793   9.461   6.134
   30POPC   C1B  850   6.229   9.657   7.327
   30POPC   C2B  851   6.313   9.758   6.943
   30POPC   C3B  852   6.206   9.649   6.542
   30POPC   C4B  853   6.178   9.830   6.171
   31POPC   NC3  854   2.333   5.365   8.240
   31POPC   PO4  855   3.045   5.310   8.171
   31POPC   GL1  856   2.707   5.487   7.844
   31POPC   GL2  857   2.572   5.835   7.833
   31POPC   C1A  858   2.662   5.522   7.348
   31POPC   D2A  859   2.835   5.399   6.905
   31POPC   C3A  860   2.683   5.479   6.467
   31POPC   C4A  861   2.909   5.581   6.066
   31POPC   C1B  862   2.633   6.021   7.395
   31POPC   C2B  863   2.758   5.913   6.944
   31POPC   C3B  864   2.704   5.998   6.474
   31POPC   C4B  865   2.303   6.164   6.276
   32POPC   NC3  866   8.082   2.068   8.206
   32POPC   PO4  867   7.835   1.606   7.790
   32POPC   GL1  868   8.088   1.817   7.538
   32POPC   GL2  869   8.322   1.993   7.754
   32POPC   C1A  870   8.442   1.659   7.303
   32POPC   D2A  871   8.502   1.577   6.849
   32POPC   C3A  872   8.062   1.628   6.656
   32POPC   C4A  873   7.786   1.595   6.272
   32POPC   C1B  874   8.423   2.165   7.364
   32POPC   C2B  875   8.218   1.996   6.987
   32POPC   C3B  876   8.131   2.155   6.592
   32POPC   C4B  877   8.185   1.896   6.230
   33POPC   NC3  878   4.769  10.677   7.978
   33POPC   PO4  879   4.234  10.346   8.283
   33POPC   GL1  880   4.528  10.239   7.841
   33POPC   GL2  881   4.287  10.255   7.571
   33POPC   C1A  882   4.723  10.349   7.363
   33POPC   D2A  883   4.635  10.590   6.949
   33POPC   C3A  884   4.730  10.371   6.554
   33POPC   C4A  885   4.740  10.514   6.135
   33POPC   C1B  886   4.023  10.092   7.255
   33POPC   C2B  887   3.898   9.966   6.838
   33POPC   C3B  888   3.926  10.160   6.411
   33POPC   C4B  889   4.270  10.444   6.319
   34POPC   NC3  890   7.419   8.158   8.009
   34POPC   PO4  891   6.840   8.259   7.981
   34POPC   GL1  892   7.143   8.471   7.669
   34POPC   GL2  893   7.486   8.405   7.569
   34POPC   C1A  894   7.122   8.461   7.210
   34POPC   D2A  895   7.254   8.191   6.840
   34POPC   C3A  896   7.132   8.272   6.398
   34POPC   C4A  897   6.792   8.102   6.139
   34POPC   C1B  898   7.636   8.369   7.154
   34POPC   C2B  899   7.728   8.337   6.712
   34POPC   C3B  900   7.629   8.192   6.307
   34POPC   C4B  901   7.687   8.295   5.871
   35POPC   NC3  902   0.967   6.794   7.897
   35POPC   PO4  903   0.937   6.143   8.105
   35POPC   GL1  904   0.983   6.334   7.679
   35POPC   GL2  905   1.338   6.460   7.706
   35POPC   C1A  906   1.078   6.555   7.260
   35POPC   D2A  907   0.982   6.864   6.914
   35POPC   C3A  908   1.080   6.650   6.498
   35POPC   C4A  909   1.039   6.501   6.066
   35POPC   C1B  910   1.569   6.479   7.294
   35POPC   C2B  911   1.446   6.589   6.877
   35POPC   C3B  912   1.577   6.843   6.562
   35POPC   C4B  913   1.494   6.748   6.152
   36POPC   NC3  914   3.262   5.717   8.127
   36POPC   PO4  915   3.033   6.277   8.305
   36POPC   GL1  916   3.028   6.151   7.782
   36POPC   GL2  917   3.054   5.812   7.641
   36POPC   C1A  918   3.118   6.170   7.251
   36POPC   D2A  919   3.240   5.984   6.788
   36POPC   C3A  920   3.181   6.234   6.356
   36POPC   C4A  921   3.314   6.395   5.921
   36POPC   C1B  922   3.159   5.662   7.219
   36POPC   C2B  923   3.535   5.586   6.956
   36POPC   C3B  924   3.655   5.703   6.545
   36POPC   C4B  925   3.293   5.746   6.334
   37POPC   NC3  926   8.327   0.636   8.006
   37POPC   PO4  927   8.105   0.029   8.031
   37POPC   GL1  928   8.338   0.214   7.668
   37POPC   GL2  929   8.066   0.459   7.581
   37POPC   C1A  930   8.419   0.361   7.205
   37POPC   D2A  931   8.112   0.320   6.841
   37POPC   C3A  932   8.207   0.395   6.397
   37POPC   C4A  933   8.309   0.088   6.023
   37POPC   C1B  934   7.854   0.666   7.207
   37POPC   C2B  935   7.831   0.732   6.733
   37POPC   C3B  936   7.795   0.680   6.260
   37POPC   C4B  937   7.665   0.691   5.804
   38POPC   NC3  938   1.531   2.594   7.904
   38POPC   PO4  939   0.982   2.916   8.069
   38POPC   GL1  940   1.020   2.709   7.708
   38POPC   GL2  941   1.283   2.950   7.641
   38POPC   C1A  942   1.179   2.541   7.304
   38POPC   D2A  943   1.295   2.678   6.895
   38POPC   C3A  944   1.355   2.463   6.502
   38POPC   C4A  945   1.380   2.623   6.087
   38POPC   C1B  946   1.009   3.102   7.346
   38POPC   C2B  947   0.878   2.985   6.961
   38POPC   C3B  948   1.057   3.040   6.586
   38POPC   C4B  949   0.855   2.920   6.220
   39POPC   NC3  950   0.560   2.706   8.114
   39POPC   PO4  951   0.723   2.099   7.967
   39POPC   GL1  952   0.544   2.433   7.688
   39POPC   GL2  953   0.260   2.683   7.689
   39POPC   C1A  954   0.660   2.673   7.336
   39POPC   D2A  955   0.779   2.435   6.988
   39POPC   C3A  956   0.878   2.572   6.598
   39POPC   C4A  957   0.887   2.414   6.158
   39POPC   C1B  958   0.149   2.757   7.243
   39POPC   C2B  959   0.388   2.758   6.865
   39POPC   C3B  960   0.425   2.745   6.429
   39POPC   C4B  961   0.109   2.758   6.120
   40POPC   NC3  962   5.006   1.828   8.072
   40POPC   PO4  963   4.764   2.493   8.159
   40POPC   GL1  964   4.915   2.264   7.779
   40POPC   GL2  965   4.687   2.025   7.707
   40POPC   C1A  966   4.903   2.231   7.283
   40POPC   D2A  967   5.126   2.220   6.850
   40POPC   C3A  968   5.016   2.300   6.390
   40POPC   C4A  969   5.269   2.429   6.012
   40POPC   C1B  970   4.852   1.720   7.400
   40POPC   C2B  971   4.826   1.827   6.948
   40POPC   C3B  972   5.037   1.809   6.543
   40POPC   C4B  973   4.841   1.695   6.153
   41POPC   NC3  974   8.869  10.616   8.038
   41POPC   PO4  975   8.372  10.137   8.234
   41POPC   GL1  976   8.454  10.423   7.828
   41POPC   GL2  977   8.773  10.333   7.636
   41POPC   C1A  978   8.385  10.470   7.336
   41POPC   D2A  979   8.524  10.253   6.911
   41POPC   C3A  980   8.566  10.505   6.499
   41POPC   C4A  981   8.501  10.652   6.026
   41POPC   C1B  982   8.915  10.190   7.243
   41POPC   C2B  983   9.030  10.302   6.809
   41POPC   C3B  984   8.911  10.159   6.398
   41POPC   C4B  985   8.962  10.442   6.112
   42POPC   NC3  986   7.507   2.232   8.010
   42POPC   PO4  987   7.801   1.717   8.309
   42POPC   GL1  988   7.387   1.749   7.857
   42POPC   GL2  989   7.570   1.989   7.583
   42POPC   C1A  990   7.408   1.624   7.311
   42POPC   D2A  991   7.721   1.868   6.979
   42POPC   C3A  992   7.648   2.010   6.495
   42POPC   C4A  993   7.350   1.862   6.151
   42POPC   C1B  994   7.324   2.115   7.219
   42POPC   C2B  995   7.250   1.963   6.803
   42POPC   C3B  996   7.169   2.234   6.448
   42POPC   C4B  997   6.934   2.147   6.055
   43POPC   NC3  998   7.594   1.238   7.936
   43POPC   PO4  999   6.932   1.270   8.054
   43POPC   GL1 1000   7.003   1.395   7.639
   43POPC   GL2 1001   7.217   1.115   7.620
   43POPC   C1A 1002   7.035   1.312   7.191
   43POPC   D2A 1003   6.997   1.435   6.778
   43POPC   C3A 1004   7.261   1.426   6.429
   43POPC   C4A 1005   7.151   1.433   5.983
   43POPC   C1B 1006   7.498   1.103   7.270
   43POPC   C2B 1007   7.284   0.989   6.898
   43POPC   C3B 1008   7.385   0.912   6.516
   43POPC   C4B 1009   7.465   1.068   6.114
   44POPC   NC3 1010   1.925   9.646   7.832
   44POPC   PO4 1011   2.337   9.157   8.045
   44POPC   GL1 1012   2.325   9.392   7.652
   44POPC   GL2 1013   2.059   9.253   7.477
   44POPC   C1A 1014   2.354   9.607   7.220
   44POPC   D2A 1015   2.310   9.352   6.851
   44POPC   C3A 1016   2.104   9.450   6.473
   44POPC   C4A 1017   2.132   9.752   6.155
   44POPC   C1B 1018   1.843   9.294   7.084
   44POPC   C2B 1019   1.730   9.629   6.792
   44POPC   C3B 1020   1.659   9.758   6.379
   44POPC   C4B 1021   1.691   9.910   5.981
   45POPC   NC3 1022  11.053   3.481   8.013
   45POPC   PO4 1023   0.087   3.219   7.740
   45POPC   GL1 1024  11.180   3.449   7.532
   45POPC   GL2 1025  11.062   3.834   7.664
   45POPC   C1A 1026  10.875   3.673   7.224
   45POPC   D2A 1027  10.757   3.492   6.843
   45POPC   C3A 1028  11.059   3.217   6.648
   45POPC   C4A 1029  11.034   3.197   6.200
   45POPC   C1B 1030  11.371   3.880   7.346
   45POPC   C2B 1031  11.310   3.710   6.937
   45POPC   C3B 1032  11.133   3.718   6.531
   45POPC   C4B 1033  11.443   3.518   6.264
   46POPC   NC3 1034   8.829   8.221   8.017
   46POPC   PO4 1035   8.472   7.753   7.806
   46POPC   GL1 1036   8.837   7.900   7.577
   46POPC   GL2 1037   8.796   8.245   7.501
   46POPC   C1A 1038   9.010   7.850   7.149
   46POPC   D2A 1039   9.090   7.948   6.691
   46POPC   C3A 1040   8.919   7.760   6.298
   46POPC   C4A 1041   8.661   7.753   5.883
   46POPC   C1B 1042   8.821   8.329   7.044
   46POPC   C2B 1043   9.148   8.462   6.775
   46POPC   C3B 1044   9.131   8.338   6.346
   46POPC   C4B 1045   8.927   8.165   5.988
   47POPC   NC3 1046   1.520   8.265   8.228
   47POPC   PO4 1047   0.972   7.917   8.082
   47POPC   GL1 1048   1.069   8.074   7.685
   47POPC   GL2 1049   0.982   7.759   7.563
   47POPC   C1A 1050   1.269   8.227   7.287
   47POPC   D2A 1051   1.253   8.525   6.944
   47POPC   C3A 1052   1.325   8.442   6.485
   47POPC   C4A 1053   1.069   8.334   6.119
   47POPC   C1B 1054   1.216   7.708   7.179
   47POPC   C2B 1055   1.296   7.983   6.819
   47POPC   C3B 1056   1.260   7.943   6.383
   47POPC   C4B 1057   1.484   7.722   6.127
   48POPC   NC3 1058   0.617  10.410   8.099
   48POPC   PO4 1059   0.069  10.061   8.250
   48POPC   GL1 1060   0.280  10.134   7.788
   48POPC   GL2 1061   0.366  10.494   7.672
   48POPC   C1A 1062   0.615  10.123   7.413
   48POPC   D2A 1063   0.477  10.047   6.970
   48POPC   C3A 1064   0.737  10.183   6.629
   48POPC   C4A 1065   0.733  10.377   6.239
   48POPC   C1B 1066   0.212  10.403   7.270
   48POPC   C2B 1067   0.343  10.534   6.878
   48POPC   C3B 1068   0.288  10.444   6.469
   48POPC   C4B 1069   0.219  10.763   6.190
   49POPC   NC3 1070   1.146   3.338   8.106
   49POPC   PO4 1071   0.753   3.878   7.913
   49POPC   GL1 1072   1.144   3.802   7.666
   49POPC   GL2 1073   1.310   3.482   7.649
   49POPC   C1A 1074   1.268   3.735   7.216
   49POPC   D2A 1075   1.103   3.483   6.872
   49POPC   C3A 1076   1.127   3.726   6.472
   49POPC   C4A 1077   1.122   3.599   6.046
   49POPC   C1B 1078   1.511   3.270   7.317
   49POPC   C2B 1079   1.484   3.139   6.913
   49POPC   C3B 1080   1.465   3.339   6.516
   49POPC   C4B 1081   1.293   3.147   6.151
   50POPC   NC3 1082   1.894   7.079   8.234
   50POPC   PO4 1083   1.274   7.062   8.095
   50POPC   GL1 1084   1.401   7.001   7.677
   50POPC   GL2 1085   1.294   7.357   7.669
   50POPC   C1A 1086   1.389   6.971   7.224
   50POPC   D2A 1087   1.332   7.277   6.912
   50POPC   C3A 1088   1.175   7.155   6.522
   50POPC   C4A 1089   1.391   7.237   6.163
   50POPC   C1B 1090   0.991   7.258   7.372
   50POPC   C2B 1091   0.813   7.371   6.986
   50POPC   C3B 1092   0.990   7.609   6.659
   50POPC   C4B 1093   0.978   7.531   6.224
   51POPC   NC3 1094   3.465   9.461   8.278
   51POPC   PO4 1095   3.537  10.138   8.147
   51POPC   GL1 1096   3.642   9.992   7.730
   51POPC   GL2 1097   3.636   9.623   7.747
   51POPC   C1A 1098   3.539   9.919   7.304
   51POPC   D2A 1099   3.232   9.816   7.012
   51POPC   C3A 1100   3.450   9.793   6.652
   51POPC   C4A 1101   3.476   9.967   6.278
   51POPC   C1B 1102   3.460   9.418   7.355
   51POPC   C2B 1103   3.318   9.324   6.907
   51POPC   C3B 1104   3.503   9.325   6.458
   51POPC   C4B 1105   3.794   9.284   6.090
   52POPC   NC3 1106   8.963   3.316   8.220
   52POPC   PO4 1107   9.136   3.886   8.104
   52POPC   GL1 1108   9.236   3.611   7.729
   52POPC   GL2 1109   8.988   3.336   7.713
   52POPC   C1A 1110   9.106   3.606   7.277
   52POPC   D2A 1111   8.836   3.545   6.903
   52POPC   C3A 1112   8.967   3.644   6.474
   52POPC   C4A 1113   8.854   3.830   6.073
   52POPC   C1B 1114   8.860   3.149   7.318
   52POPC   C2B 1115   9.038   3.081   6.923
   52POPC   C3B 1116   8.782   3.134   6.578
   52POPC   C4B 1117   8.653   3.350   6.183
   53POPC   NC3 1118   1.710   5.280   7.977
   53POPC   PO4 1119   2.168   5.789   8.186
   53POPC   GL1 1120   2.115   5.578   7.766
   53POPC   GL2 1121   1.757   5.675   7.653
   53POPC   C1A 1122   2.125   5.703   7.297
   53POPC   D2A 1123   1.905   5.730   6.882
   53POPC   C3A 1124   2.159   5.697   6.491
   53POPC   C4A 1125   2.009   5.480   6.103
   53POPC   C1B 1126   1.646   5.959   7.294
   53POPC   C2B 1127   1.405   6.084   6.921
   53POPC   C3B 1128   1.462   6.193   6.497
   53POPC   C4B 1129   1.733   5.892   6.282
   54POPC   NC3 1130  11.072   9.796   8.151
   54POPC   PO4 1131   0.006   9.270   8.093
   54POPC   GL1 1132  11.455   9.454   7.664
   54POPC   GL2 1133  11.119   9.614   7.690
   54POPC   C1A 1134  11.282   9.585   7.222
   54POPC   D2A 1135  11.285   9.847   6.833
   54POPC   C3A 1136  11.443   9.633   6.480
   54POPC   C4A 1137  11.473   9.639   6.051
   54POPC   C1B 1138  10.869   9.856   7.385
   54POPC   C2B 1139  10.813   9.674   6.947
   54POPC   C3B 1140  10.917   9.592   6.509
   54POPC   C4B 1141  11.105   9.300   6.235
   55POPC   NC3 1142  10.773   5.086   8.066
   55POPC   PO4 1143  10.175   5.450   8.127
   55POPC   GL1 1144  10.239   5.273   7.708
   55POPC   GL2 1145  10.440   4.971   7.676
   55POPC   C1A 1146  10.371   5.379   7.284
   55POPC   D2A 1147  10.483   5.255   6.862
   55POPC   C3A 1148  10.181   5.262   6.542
   55POPC   C4A 1149  10.197   4.921   6.256
   55POPC   C1B 1150  10.628   4.839   7.283
   55POPC   C2B 1151  10.630   4.762   6.848
   55POPC   C3B 1152  10.678   4.878   6.418
   55POPC   C4B 1153  10.573   4.683   6.007
   56POPC   NC3 1154   5.926   0.520   8.121
   56POPC   PO4 1155   5.302   0.334   8.255
   56POPC   GL1 1156   5.543   0.456   7.811
   56POPC   GL2 1157   5.625   0.734   7.699
   56POPC   C1A 1158   5.779   0.303   7.395
   56POPC   D2A 1159   5.699   0.268   6.928
   56POPC   C3A 1160   6.037   0.202   6.609
   56POPC   C4A 1161   5.986   0.110   6.160
   56POPC   C1B 1162   6.007   0.758   7.464
   56POPC   C2B 1163   6.118   0.859   7.032
   56POPC   C3B 1164   5.848   0.728   6.689
   56POPC   C4B 1165   5.789   0.553   6.291
   57POPC   NC3 1166   9.543  10.912   8.197
   57POPC   PO4 1167   9.224  10.585   7.713
   57POPC   GL1 1168   9.471  10.985   7.653
   57POPC   GL2 1169   9.518  11.372   7.691
   57POPC   C1A 1170   9.471  11.147   7.217
   57POPC   D2A 1171   9.715  11.010   6.851
   57POPC   C3A 1172   9.516  10.958   6.443
   57POPC   C4A 1173   9.768  11.019   6.061
   57POPC   C1B 1174   9.802   0.009   7.345
   57POPC   C2B 1175   9.664   0.035   6.879
   57POPC   C3B 1176   9.679  11.438   6.421
   57POPC   C4B 1177   9.777   0.011   5.982
   58POPC   NC3 1178  10.553   8.333   8.341
   58POPC   PO4 1179   9.976   8.473   7.926
   58POPC   GL1 1180  10.063   8.280   7.589
   58POPC   GL2 1181  10.255   7.975   7.687
   58POPC   C1A 1182  10.165   8.219   7.183
   58POPC   D2A 1183  10.341   8.079   6.813
   58POPC   C3A 1184  10.267   8.310   6.471
   58POPC   C4A 1185  10.269   8.181   6.049
   58POPC   C1B 1186  10.586   8.003   7.364
   58POPC   C2B 1187  10.813   8.189   7.018
   58POPC   C3B 1188  10.787   8.253   6.576
   58POPC   C4B 1189  10.594   7.921   6.332
   59POPC   NC3 1190   4.613   1.260   8.026
   59POPC   PO4 1191   4.112   0.805   8.103
   59POPC   GL1 1192   4.029   1.053   7.742
   59POPC   GL2 1193   4.384   0.987   7.663
   59POPC   C1A 1194   3.898   0.935   7.321
   59POPC   D2A 1195   4.149   0.946   6.943
   59POPC   C3A 1196   3.993   0.936   6.555
   59POPC   C4A 1197   4.291   1.155   6.399
   59POPC   C1B 1198   4.312   1.260   7.315
   59POPC   C2B 1199   4.544   1.402   6.978
   59POPC   C3B 1200   4.578   1.529   6.566
   59POPC   C4B 1201   4.176   1.663   6.368
   60POPC   NC3 1202   1.348   4.839   8.195
   60POPC   PO4 1203   2.042   5.013   8.156
   60POPC   GL1 1204   2.031   4.929   7.713
   60POPC   GL2 1205   1.881   5.186   7.519
   60POPC   C1A 1206   1.997   4.742   7.303
   60POPC   D2A 1207   1.897   5.041   6.970
   60POPC   C3A 1208   1.866   4.820   6.582
   60POPC   C4A 1209   1.818   5.017   6.200
   60POPC   C1B 1210   2.256   5.210   7.312
   60POPC   C2B 1211   2.313   5.369   6.884
   60POPC   C3B 1212   2.240   5.192   6.459
   60POPC   C4B 1213   2.482   5.207   6.054
   61POPC   NC3 1214   9.805   5.162   8.221
   61POPC   PO4 1215   9.758   4.496   8.026
   61POPC   GL1 1216   9.933   4.838   7.744
   61POPC   GL2 1217   9.734   5.154   7.718
   61POPC   C1A 1218  10.043   4.986   7.303
   61POPC   D2A 1219  10.118   4.858   6.857
   61POPC   C3A 1220   9.784   4.943   6.522
   61POPC   C4A 1221   9.634   4.793   6.130
   61POPC   C1B 1222   9.541   5.088   7.315
   61POPC   C2B 1223   9.539   5.212   6.868
   61POPC   C3B 1224   9.351   5.212   6.445
   61POPC   C4B 1225   9.400   5.226   6.004
   62POPC   NC3 1226  11.327  11.076   7.952
   62POPC   PO4 1227  10.799  11.456   8.115
   62POPC   GL1 1228  11.091  11.488   7.760
   62POPC   GL2 1229  10.811  11.431   7.561
   62POPC   C1A 1230  11.297   0.032   7.350
   62POPC   D2A 1231  11.050   0.031   6.976
   62POPC   C3A 1232  11.309  11.480   6.620
   62POPC   C4A 1233  11.220   0.020   6.190
   62POPC   C1B 1234  11.001  11.113   7.309
   62POPC   C2B 1235  11.135  11.029   6.887
   62POPC   C3B 1236  11.235  10.984   6.452
   62POPC   C4B 1237  10.981  10.759   6.114
   63POPC   NC3 1238  10.205   3.393   8.232
   63POPC   PO4 1239  10.675   3.318   7.766
   63POPC   GL1 1240  10.296   3.291   7.575
   63POPC   GL2 1241  10.192   3.596   7.751
   63POPC   C1A 1242  10.328   3.297   7.114
   63POPC   D2A 1243  10.261   3.366   6.667
   63POPC   C3A 1244  10.609   3.498   6.354
   63POPC   C4A 1245  10.618   3.334   5.915
   63POPC   C1B 1246  10.157   3.763   7.344
   63POPC   C2B 1247  10.342   3.784   6.933
   63POPC   C3B 1248  10.189   3.883   6.539
   63POPC   C4B 1249  10.232   3.727   6.115
   64POPC   NC3 1250   6.703   0.027   8.354
   64POPC   PO4 1251   6.383   0.561   8.111
   64POPC   GL1 1252   6.241   0.381   7.713
   64POPC   GL2 1253   6.518   0.175   7.665
   64POPC   C1A 1254   6.272   0.363   7.239
   64POPC   D2A 1255   6.506   0.276   6.852
   64POPC   C3A 1256   6.409   0.595   6.536
   64POPC   C4A 1257   6.274   0.520   6.120
   64POPC   C1B 1258   6.783   0.387   7.342
   64POPC   C2B 1259   6.925   0.574   6.942
   64POPC   C3B 1260   6.915   0.461   6.509
   64POPC   C4B 1261   6.770   0.646   6.119
   65POPC   NC3 1262   4.748  10.336   8.440
   65POPC   PO4 1263   4.980  11.002   8.252
   65POPC   GL1 1264   5.222  10.759   7.798
   65POPC   GL2 1265   4.961  10.787   7.492
   65POPC   C1A 1266   5.242  10.400   7.430
   65POPC   D2A 1267   5.108  10.438   6.958
   65POPC   C3A 1268   5.173  10.117   6.622
   65POPC   C4A 1269   5.047  10.110   6.168
   65POPC   C1B 1270   5.345  10.859   7.218
   65POPC   C2B 1271   5.353  10.889   6.765
   65POPC   C3B 1272   5.162  10.659   6.406
   65POPC   C4B 1273   5.223  10.569   5.934
   66POPC   NC3 1274  11.499   5.438   8.105
   66POPC   PO4 1275   0.015   4.701   8.107
   66POPC   GL1 1276  11.191   4.839   7.852
   66POPC   GL2 1277  11.173   5.207   7.767
   66POPC   C1A 1278  11.126   4.828   7.416
   66POPC   D2A 1279  11.099   4.620   7.022
   66POPC   C3A 1280  11.150   4.867   6.668
   66POPC   C4A 1281  11.154   4.758   6.262
   66POPC   C1B 1282  10.841   5.272   7.451
   66POPC   C2B 1283  10.955   5.159   7.035
   66POPC   C3B 1284  10.939   5.344   6.617
   66POPC   C4B 1285  10.615   5.381   6.310
   67POPC   NC3 1286   7.931  10.281   8.123
   67POPC   PO4 1287   8.456   9.944   7.734
   67POPC   GL1 1288   8.053  10.148   7.631
   67POPC   GL2 1289   7.981  10.539   7.692
   67POPC   C1A 1290   7.890  10.319   7.234
   67POPC   D2A 1291   8.055  10.446   6.844
   67POPC   C3A 1292   8.171  10.148   6.540
   67POPC   C4A 1293   7.847  10.242   6.306
   67POPC   C1B 1294   7.780  10.776   7.389
   67POPC   C2B 1295   7.672  10.791   6.948
   67POPC   C3B 1296   7.939  10.901   6.632
   67POPC   C4B 1297   8.119  10.672   6.340
   68POPC   NC3 1298   4.555   2.844   8.462
   68POPC   PO4 1299   3.995   2.599   8.100
   68POPC   GL1 1300   4.196   2.656   7.692
   68POPC   GL2 1301   4.003   2.954   7.638
   68POPC   C1A 1302   4.496   2.592   7.307
   68POPC   D2A 1303   4.539   2.314   6.926
   68POPC   C3A 1304   4.591   2.549   6.536
   68POPC   C4A 1305   4.477   2.440   6.116
   68POPC   C1B 1306   3.993   2.750   7.224
   68POPC   C2B 1307   4.189   2.768   6.795
   68POPC   C3B 1308   4.155   2.787   6.327
   68POPC   C4B 1309   4.422   2.949   5.986
   69POPC   NC3 1310   1.387   6.204   8.184
   69POPC   PO4 1311   1.231   5.568   7.970
   69POPC   GL1 1312   1.242   5.889   7.669
   69POPC   GL2 1313   1.289   5.625   7.442
   69POPC   C1A 1314   1.035   6.031   7.254
   69POPC   D2A 1315   0.903   5.880   6.808
   69POPC   C3A 1316   0.946   6.131   6.417
   69POPC   C4A 1317   0.819   6.053   5.963
   69POPC   C1B 1318   1.587   5.440   7.189
   69POPC   C2B 1319   1.390   5.570   6.818
   69POPC   C3B 1320   1.260   5.708   6.422
   69POPC   C4B 1321   1.507   5.423   6.214
   70POPC   NC3 1322   3.525   0.077   8.179
   70POPC   PO4 1323   3.363  10.819   8.147
   70POPC   GL1 1324   3.685  10.982   7.845
   70POPC   GL2 1325   3.547  11.322   7.735
   70POPC   C1A 1326   3.914  11.092   7.435
   70POPC   D2A 1327   3.904  11.292   7.006
   70POPC   C3A 1328   3.767  11.098   6.602
   70POPC   C4A 1329   3.763  11.216   6.154
   70POPC   C1B 1330   3.341  11.223   7.338
   70POPC   C2B 1331   3.176  11.329   6.912
   70POPC   C3B 1332   3.316  11.337   6.453
   70POPC   C4B 1333   3.354  10.903   6.271
   71POPC   NC3 1334  11.128   4.454   8.244
   71POPC   PO4 1335  11.428   3.905   8.025
   71POPC   GL1 1336  11.375   4.284   7.791
   71POPC   GL2 1337  11.036   4.360   7.738
   71POPC   C1A 1338  11.438   4.422   7.357
   71POPC   D2A 1339  11.472   4.220   6.975
   71POPC   C3A 1340  11.392   4.339   6.564
   71POPC   C4A 1341  11.384   4.041   6.220
   71POPC   C1B 1342  10.987   4.215   7.332
   71POPC   C2B 1343  10.985   4.115   6.909
   71POPC   C3B 1344  10.898   4.421   6.573
   71POPC   C4B 1345  10.953   4.301   6.167
   72POPC   NC3 1346   9.365   4.275   8.078
   72POPC   PO4 1347   9.997   3.880   8.158
   72POPC   GL1 1348   9.820   3.954   7.739
   72POPC   GL2 1349   9.982   4.201   7.550
   72POPC   C1A 1350   9.600   3.815   7.352
   72POPC   D2A 1351   9.345   3.908   6.948
   72POPC   C3A 1352   9.437   3.884   6.503
   72POPC   C4A 1353   9.784   4.045   6.286
   72POPC   C1B 1354   9.740   4.552   7.355
   72POPC   C2B 1355   9.643   4.688   6.946
   72POPC   C3B 1356   9.613   4.462   6.548
   72POPC   C4B 1357   9.344   4.356   6.218
   73POPC   NC3 1358   2.678   8.118   8.057
   73POPC   PO4 1359   2.181   7.457   8.249
   73POPC   GL1 1360   2.101   7.474   7.809
   73POPC   GL2 1361   1.814   7.309   7.759
   73POPC   C1A 1362   2.143   7.511   7.340
   73POPC   D2A 1363   2.211   7.719   6.914
   73POPC   C3A 1364   2.202   7.511   6.502
   73POPC   C4A 1365   1.996   7.614   6.122
   73POPC   C1B 1366   1.658   7.393   7.335
   73POPC   C2B 1367   1.853   7.295   6.946
   73POPC   C3B 1368   1.722   7.332   6.534
   73POPC   C4B 1369   1.875   7.111   6.176
   74POPC   NC3 1370  10.639   1.293   8.353
   74POPC   PO4 1371  10.193   0.884   8.046
   74POPC   GL1 1372  10.373   1.164   7.750
   74POPC   GL2 1373  10.231   1.478   7.763
   74POPC   C1A 1374  10.398   1.115   7.331
   74POPC   D2A 1375  10.036   0.969   7.097
   74POPC   C3A 1376  10.046   1.053   6.656
   74POPC   C4A 1377  10.439   1.034   6.374
   74POPC   C1B 1378  10.144   1.544   7.314
   74POPC   C2B 1379  10.302   1.409   6.912
   74POPC   C3B 1380  10.246   1.505   6.474
   74POPC   C4B 1381  10.384   1.449   6.019
   75POPC   NC3 1382   0.545   4.778   8.019
   75POPC   PO4 1383   0.455   5.485   7.916
   75POPC   GL1 1384   0.513   5.133   7.652
   75POPC   GL2 1385   0.167   5.037   7.719
   75POPC   C1A 1386   0.628   5.063   7.224
   75POPC   D2A 1387   0.394   5.129   6.840
   75POPC   C3A 1388   0.594   5.055   6.472
   75POPC   C4A 1389   0.867   4.762   6.356
   75POPC   C1B 1390   0.141   4.886   7.281
   75POPC   C2B 1391   0.102   4.713   6.854
   75POPC   C3B 1392   0.106   4.935   6.429
   75POPC   C4B 1393   0.266   5.325   6.182
   76POPC   NC3 1394   0.970   7.439   8.106
   76POPC   PO4 1395   0.424   7.708   8.354
   76POPC   GL1 1396   0.560   7.647   7.859
   76POPC   GL2 1397   0.420   7.346   7.691
   76POPC   C1A 1398   0.537   7.679   7.356
   76POPC   D2A 1399   0.303   7.513   7.020
   76POPC   C3A 1400   0.493   7.628   6.643
   76POPC   C4A 1401   0.463   7.514   6.245
   76POPC   C1B 1402   0.509   7.109   7.354
   76POPC   C2B 1403   0.439   6.994   6.962
   76POPC   C3B 1404   0.404   7.129   6.584
   76POPC   C4B 1405   0.706   7.058   6.278
   77POPC   NC3 1406   2.057   4.436   7.992
   77POPC   PO4 1407   1.510   4.006   8.061
   77POPC   GL1 1408   1.660   4.210   7.674
   77POPC   GL2 1409   1.994   4.239   7.525
   77POPC   C1A 1410   1.591   4.365   7.235
   77POPC   D2A 1411   1.758   4.097   6.897
   77POPC   C3A 1412   1.608   4.144   6.456
   77POPC   C4A 1413   1.692   4.511   6.195
   77POPC   C1B 1414   2.203   3.986   7.179
   77POPC   C2B 1415   2.319   4.093   6.757
   77POPC   C3B 1416   2.113   4.340   6.430
   77POPC   C4B 1417   2.227   4.726   6.190
   78POPC   NC3 1418   7.075  10.257   8.038
   78POPC   PO4 1419   7.589  10.679   8.138
   78POPC   GL1 1420   7.447  10.555   7.723
   78POPC   GL2 1421   7.550  10.234   7.721
   78POPC   C1A 1422   7.280  10.693   7.275
   78POPC   D2A 1423   7.068  10.650   6.851
   78POPC   C3A 1424   7.401  10.527   6.552
   78POPC   C4A 1425   7.620  10.789   6.266
   78POPC   C1B 1426   7.393  10.204   7.336
   78POPC   C2B 1427   7.223  10.193   6.943
   78POPC   C3B 1428   7.216  10.054   6.508
   78POPC   C4B 1429   7.044  10.150   6.132
   79POPC   NC3 1430   2.005   1.106   8.076
   79POPC   PO4 1431   2.261   1.594   7.820
   79POPC   GL1 1432   2.041   1.326   7.573
   79POPC   GL2 1433   1.713   1.315   7.702
   79POPC   C1A 1434   2.146   1.143   7.163
   79POPC   D2A 1435   2.312   0.945   6.771
   79POPC   C3A 1436   2.113   1.175   6.405
   79POPC   C4A 1437   2.239   1.471   6.093
   79POPC   C1B 1438   1.632   1.134   7.296
   79POPC   C2B 1439   1.529   1.295   6.900
   79POPC   C3B 1440   1.576   1.161   6.495
   79POPC   C4B 1441   1.680   0.991   6.127
   80POPC   NC3 1442  10.414   9.097   8.179
   80POPC   PO4 1443  10.633   9.718   8.283
   80POPC   GL1 1444  10.569   9.691   7.800
   80POPC   GL2 1445  10.207   9.770   7.694
   80POPC   C1A 1446  10.489   9.530   7.334
   80POPC   D2A 1447  10.295   9.632   6.908
   80POPC   C3A 1448  10.371   9.585   6.455
   80POPC   C4A 1449  10.597   9.893   6.215
   80POPC   C1B 1450  10.176   9.974   7.279
   80POPC   C2B 1451   9.967  10.032   6.850
   80POPC   C3B 1452  10.142  10.098   6.397
   80POPC   C4B 1453  10.166   9.904   5.940
   81POPC   NC3 1454   1.814   3.662   8.004
   81POPC   PO4 1455   2.396   3.994   8.001
   81POPC   GL1 1456   2.169   3.778   7.650
   81POPC   GL2 1457   2.103   3.436   7.654
   81POPC   C1A 1458   1.797   3.723   7.340
   81POPC   D2A 1459   1.761   3.563   6.906
   81POPC   C3A 1460   1.979   3.782   6.563
   81POPC   C4A 1461   2.311   3.882   6.278
   81POPC   C1B 1462   2.014   3.237   7.258
   81POPC   C2B 1463   1.985   3.048   6.857
   81POPC   C3B 1464   1.976   3.273   6.491
   81POPC   C4B 1465   1.788   3.541   6.174
   82POPC   NC3 1466  10.339   2.146   8.017
   82POPC   PO4 1467   9.851   1.717   8.104
   82POPC   GL1 1468   9.736   1.706   7.638
   82POPC   GL2 1469   9.356   1.574   7.582
   82POPC   C1A 1470   9.919   1.997   7.295
   82POPC   D2A 1471  10.105   1.889   6.892
   82POPC   C3A 1472   9.854   1.849   6.478
   82POPC   C4A 1473   9.933   1.683   6.092
   82POPC   C1B 1474   9.453   1.821   7.216
   82POPC   C2B 1475   9.647   2.073   6.867
   82POPC   C3B 1476   9.606   2.346   6.479
   82POPC   C4B 1477   9.397   2.363   6.057
   83POPC   NC3 1478   0.817   5.686   8.173
   83POPC   PO4 1479   0.186   5.859   8.230
   83POPC   GL1 1480   0.218   5.945   7.766
   83POPC   GL2 1481   0.586   5.984   7.740
   83POPC   C1A 1482   0.213   5.735   7.337
   83POPC   D2A 1483   0.546   5.568   7.062
   83POPC   C3A 1484   0.470   5.579   6.611
   83POPC   C4A 1485   0.744   5.661   6.277
   83POPC   C1B 1486   0.536   6.112   7.300
   83POPC   C2B 1487   0.391   6.037   6.875
   83POPC   C3B 1488   0.442   6.052   6.412
   83POPC   C4B 1489   0.109   5.815   6.233
   84POPC   NC3 1490  10.354  10.092   8.090
   84POPC   PO4 1491  10.039  10.732   8.066
   84POPC   GL1 1492  10.190  10.417   7.705
   84POPC   GL2 1493  10.508  10.183   7.624
   84POPC   C1A 1494  10.325  10.502   7.274
   84POPC   D2A 1495  10.259  10.800   6.946
   84POPC   C3A 1496  10.250  10.634   6.552
   84POPC   C4A 1497  10.201  10.763   6.123
   84POPC   C1B 1498  10.833  10.405   7.410
   84POPC   C2B 1499  10.791  10.688   7.061
   84POPC   C3B 1500  10.815  10.669   6.609
   84POPC   C4B 1501  10.603  10.440   6.248
   85POPC   NC3 1502   4.397   0.486   7.911
   85POPC   PO4 1503   4.036   0.005   8.219
   85POPC   GL1 1504   3.941   0.190   7.750
   85POPC   GL2 1505   3.976   0.551   7.650
   85POPC   C1A 1506   4.001   0.244   7.244
   85POPC   D2A 1507   3.939   0.493   6.835
   85POPC   C3A 1508   4.044   0.324   6.400
   85POPC   C4A 1509   4.122   0.368   5.956
   85POPC   C1B 1510   4.314   0.640   7.315
   85POPC   C2B 1511   4.456   0.531   6.950
   85POPC   C3B 1512   4.410   0.656   6.547
   85POPC   C4B 1513   4.563   0.515   6.203
   86POPC   NC3 1514   1.937   1.814   8.070
   86POPC   PO4 1515   1.978   2.486   7.853
   86POPC   GL1 1516   2.075   2.229   7.573
   86POPC   GL2 1517   1.949   1.882   7.551
   86POPC   C1A 1518   2.117   2.322   7.151
   86POPC   D2A 1519   1.997   2.045   6.828
   86POPC   C3A 1520   2.073   2.224   6.421
   86POPC   C4A 1521   1.857   2.453   6.123
   86POPC   C1B 1522   1.828   1.623   7.199
   86POPC   C2B 1523   1.967   1.509   6.774
   86POPC   C3B 1524   1.811   1.608   6.356
   86POPC   C4B 1525   1.920   1.891   6.016
   87POPC   NC3 1526   9.566   3.725   8.122
   87POPC   PO4 1527   9.807   3.158   8.236
   87POPC   GL1 1528   9.749   3.334   7.791
   87POPC   GL2 1529   9.455   3.145   7.811
   87POPC   C1A 1530   9.846   3.369   7.295
   87POPC   D2A 1531   9.842   3.710   6.902
   87POPC   C3A 1532   9.809   3.541   6.466
   87POPC   C4A 1533   9.810   3.128   6.498
   87POPC   C1B 1534   9.374   3.192   7.377
   87POPC   C2B 1535   9.453   3.373   6.950
   87POPC   C3B 1536   9.322   3.281   6.534
   87POPC   C4B 1537   9.349   3.451   6.148
   88POPC   NC3 1538   8.794   9.037   8.157
   88POPC   PO4 1539   9.230   8.485   8.065
   88POPC   GL1 1540   8.916   8.692   7.741
   88POPC   GL2 1541   8.856   9.071   7.658
   88POPC   C1A 1542   8.701   8.744   7.322
   88POPC   D2A 1543   8.836   8.836   6.898
   88POPC   C3A 1544   8.687   8.660   6.516
   88POPC   C4A 1545   8.437   8.817   6.166
   88POPC   C1B 1546   8.975   9.220   7.227
   88POPC   C2B 1547   8.787   9.319   6.794
   88POPC   C3B 1548   8.827   9.156   6.332
   88POPC   C4B 1549   9.155   9.109   5.965
   89POPC   NC3 1550   2.650   1.367   8.013
   89POPC   PO4 1551   2.309   0.760   8.129
   89POPC   GL1 1552   2.419   0.981   7.684
   89POPC   GL2 1553   2.569   1.316   7.526
   89POPC   C1A 1554   2.643   0.910   7.252
   89POPC   D2A 1555   2.866   0.886   6.851
   89POPC   C3A 1556   2.704   0.931   6.437
   89POPC   C4A 1557   2.418   0.856   6.159
   89POPC   C1B 1558   3.011   1.378   7.382
   89POPC   C2B 1559   3.134   1.326   6.945
   89POPC   C3B 1560   3.073   1.260   6.508
   89POPC   C4B 1561   2.716   1.429   6.256
   90POPC   NC3 1562   9.619   8.235   8.109
   90POPC   PO4 1563   9.439   7.675   8.048
   90POPC   GL1 1564   9.301   8.076   7.729
   90POPC   GL2 1565   9.541   8.366   7.653
   90POPC   C1A 1566   9.255   8.267   7.286
   90POPC   D2A 1567   9.481   8.132   6.968
   90POPC   C3A 1568   9.541   8.176   6.585
   90POPC   C4A 1569   9.454   7.959   6.213
   90POPC   C1B 1570   9.723   7.993   7.374
   90POPC   C2B 1571   9.892   7.839   6.908
   90POPC   C3B 1572   9.947   7.919   6.419
   90POPC   C4B 1573   9.817   8.344   6.204
   91POPC   NC3 1574   6.703   1.672   8.009
   91POPC   PO4 1575   7.038   2.238   7.926
   91POPC   GL1 1576   6.970   1.911   7.599
   91POPC   GL2 1577   6.597   1.798   7.543
   91POPC   C1A 1578   6.915   1.811   7.164
   91POPC   D2A 1579   6.756   2.067   6.831
   91POPC   C3A 1580   6.862   1.833   6.487
   91POPC   C4A 1581   6.734   1.664   6.166
   91POPC   C1B 1582   6.206   1.758   7.294
   91POPC   C2B 1583   6.106   1.900   6.879
   91POPC   C3B 1584   6.345   1.964   6.516
   91POPC   C4B 1585   6.218   2.305   6.243
   92POPC   NC3 1586   6.297   3.425   8.320
   92POPC   PO4 1587   6.619   3.020   8.158
   92POPC   GL1 1588   6.468   3.241   7.764
   92POPC   GL2 1589   6.488   3.587   7.849
   92POPC   C1A 1590   6.428   3.201   7.262
   92POPC   D2A 1591   6.649   3.212   6.837
   92POPC   C3A 1592   6.426   3.251   6.420
   92POPC   C4A 1593   6.476   3.201   5.953
   92POPC   C1B 1594   6.655   3.622   7.432
   92POPC   C2B 1595   6.469   3.667   7.013
   92POPC   C3B 1596   6.647   3.681   6.597
   92POPC   C4B 1597   6.531   3.699   6.156
   93POPC   NC3 1598   8.093   1.402   8.119
   93POPC   PO4 1599   7.800   0.787   7.942
   93POPC   GL1 1600   7.939   1.089   7.592
   93POPC   GL2 1601   8.247   1.276   7.622
   93POPC   C1A 1602   7.938   1.358   7.185
   93POPC   D2A 1603   7.635   1.371   6.817
   93POPC   C3A 1604   7.835   1.153   6.464
   93POPC   C4A 1605   7.946   1.106   5.997
   93POPC   C1B 1606   8.313   0.882   7.313
   93POPC   C2B 1607   8.346   0.784   6.836
   93POPC   C3B 1608   8.277   0.913   6.381
   93POPC   C4B 1609   8.281   1.371   6.281
   94POPC   NC3 1610   6.388  10.716   8.120
   94POPC   PO4 1611   6.657  10.009   8.081
   94POPC   GL1 1612   6.611  10.334   7.764
   94POPC   GL2 1613   6.945  10.459   7.598
   94POPC   C1A 1614   6.463  10.455   7.372
   94POPC   D2A 1615   6.543  10.560   6.912
   94POPC   C3A 1616   6.256  10.643   6.575
   94POPC   C4A 1617   6.240  10.640   6.104
   94POPC   C1B 1618   6.862  10.110   7.348
   94POPC   C2B 1619   6.746  10.036   6.928
   94POPC   C3B 1620   6.784  10.295   6.565
   94POPC   C4B 1621   6.491  10.223   6.304
   95POPC   NC3 1622   6.872   2.657   8.037
   95POPC   PO4 1623   7.561   2.685   8.181
   95POPC   GL1 1624   7.329   2.731   7.760
   95POPC   GL2 1625   7.357   2.451   7.588
   95POPC   C1A 1626   7.021   2.714   7.346
   95POPC   D2A 1627   7.065   2.483   6.915
   95POPC   C3A 1628   7.073   2.737   6.508
   95POPC   C4A 1629   6.908   3.098   6.235
   95POPC   C1B 1630   7.498   2.603   7.196
   95POPC   C2B 1631   7.560   2.375   6.830
   95POPC   C3B 1632   7.592   2.545   6.445
   95POPC   C4B 1633   7.440   2.868   6.154
   96POPC   NC3 1634  11.129   2.125   8.092
   96POPC   PO4 1635  11.418   1.476   8.037
   96POPC   GL1 1636  11.268   1.782   7.740
   96POPC   GL2 1637  11.369   1.553   7.508
   96POPC   C1A 1638  11.065   1.954   7.357
   96POPC   D2A 1639  11.067   1.767   6.944
   96POPC   C3A 1640  11.145   2.018   6.564
   96POPC   C4A 1641  11.163   1.845   6.152
   96POPC   C1B 1642   0.038   1.811   7.192
   96POPC   C2B 1643   0.038   1.766   6.770
   96POPC   C3B 1644   0.138   1.909   6.402
   96POPC   C4B 1645   0.261   1.526   6.277
   97POPC   NC3 1646   5.248   0.778   8.135
   97POPC   PO4 1647   5.059   1.386   7.976
   97POPC   GL1 1648   4.925   1.104   7.666
   97POPC   GL2 1649   5.220   1.020   7.583
   97POPC   C1A 1650   4.791   0.927   7.264
   97POPC   D2A 1651   4.715   0.958   6.823
   97POPC   C3A 1652   4.926   0.816   6.467
   97POPC   C4A 1653   4.733   1.040   6.145
   97POPC   C1B 1654   5.186   1.336   7.273
   97POPC   C2B 1655   5.053   1.375   6.861
   97POPC   C3B 1656   5.042   1.315   6.438
   97POPC   C4B 1657   5.298   1.408   6.097
   98POPC   NC3 1658   0.306   3.640   7.862
   98POPC   PO4 1659   0.302   3.052   8.251
   98POPC   GL1 1660   0.577   3.085   7.766
   98POPC   GL2 1661   0.789   3.384   7.711
   98POPC   C1A 1662   0.486   3.150   7.257
   98POPC   D2A 1663   0.069   3.202   6.980
   98POPC   C3A 1664   0.058   3.085   6.525
   98POPC   C4A 1665   0.382   3.203   6.174
   98POPC   C1B 1666   0.764   3.583   7.270
   98POPC   C2B 1667   0.573   3.556   6.818
   98POPC   C3B 1668   0.624   3.647   6.340
   98POPC   C4B 1669   0.612   3.649   5.851
   99POPC   NC3 1670  10.277   6.577   7.984
   99POPC   PO4 1671  10.757   7.033   7.763
   99POPC   GL1 1672  10.429   6.874   7.581
   99POPC   GL2 1673  10.608   6.551   7.604
   99POPC   C1A 1674  10.510   6.792   7.155
   99POPC   D2A 1675  10.462   6.689   6.716
   99POPC   C3A 1676  10.580   6.981   6.423
   99POPC   C4A 1677  10.319   7.045   6.102
   99POPC   C1B 1678  10.516   6.291   7.257
   99POPC   C2B 1679  10.300   6.222   6.874
   99POPC   C3B 1680  10.380   6.266   6.425
   99POPC   C4B 1681  10.210   6.150   6.034
  100POPC   NC3 1682  10.546   5.822   8.101
  100POPC   PO4 1683   9.949   6.185   7.982
  100POPC   GL1 1684  10.324   6.108   7.713
  100POPC   GL2 1685  10.208   5.781   7.700
  100POPC   C1A 1686  10.605   5.816   7.414
  100POPC   D2A 1687  10.787   5.641   7.047
  100POPC   C3A 1688  10.699   5.902   6.697
  100POPC   C4A 1689  10.698   5.885   6.260
  100POPC   C1B 1690  10.133   5.906   7.271
  100POPC   C2B 1691  10.262   5.711   6.888
  100POPC   C3B 1692  10.235   5.763   6.440
  100POPC   C4B 1693  10.297   5.651   5.988
  101POPC   NC3 1694  11.433   2.869   8.043
  101POPC   PO4 1695  10.807   3.153   8.246
  101POPC   GL1 1696  11.003   2.960   7.771
  101POPC   GL2 1697  11.276   2.840   7.571
  101POPC   C1A 1698  10.940   3.031   7.268
  101POPC   D2A 1699  11.195   2.816   6.983
  101POPC   C3A 1700  10.985   2.656   6.672
  101POPC   C4A 1701  11.143   2.725   6.324
  101POPC   C1B 1702  11.226   2.452   7.348
  101POPC   C2B 1703  11.387   2.273   6.967
  101POPC   C3B 1704   0.025   2.419   6.570
  101POPC   C4B 1705  11.375   2.300   6.169
  102POPC   NC3 1706   3.632   2.953   8.050
  102POPC   PO4 1707   3.135   2.464   8.047
  102POPC   GL1 1708   3.315   2.710   7.720
  102POPC   GL2 1709   3.661   2.567   7.661
  102POPC   C1A 1710   3.265   2.895   7.308
  102POPC   D2A 1711   3.127   2.783   6.877
  102POPC   C3A 1712   3.300   2.949   6.477
  102POPC   C4A 1713   3.294   2.867   6.009
  102POPC   C1B 1714   3.568   2.452   7.215
  102POPC   C2B 1715   3.640   2.612   6.774
  102POPC   C3B 1716   3.671   2.597   6.317
  102POPC   C4B 1717   3.607   2.460   5.896
  103POPC   NC3 1718   9.540   7.239   8.123
  103POPC   PO4 1719  10.194   7.024   8.120
  103POPC   GL1 1720   9.946   7.076   7.748
  103POPC   GL2 1721   9.843   7.425   7.725
  103POPC   C1A 1722   9.778   7.004   7.316
  103POPC   D2A 1723   9.759   7.229   6.890
  103POPC   C3A 1724   9.606   7.043   6.449
  103POPC   C4A 1725   9.774   6.967   6.009
  103POPC   C1B 1726   9.563   7.502   7.372
  103POPC   C2B 1727   9.430   7.623   6.965
  103POPC   C3B 1728   9.549   7.593   6.553
  103POPC   C4B 1729   9.293   7.407   6.251
  104POPC   NC3 1730   5.482  10.365   8.356
  104POPC   PO4 1731   5.917   9.788   8.168
  104POPC   GL1 1732   5.722  10.011   7.829
  104POPC   GL2 1733   5.871   9.728   7.662
  104POPC   C1A 1734   5.563   9.997   7.384
  104POPC   D2A 1735   5.835   9.914   7.011
  104POPC   C3A 1736   5.682   9.913   6.572
  104POPC   C4A 1737   5.516   9.794   6.134
  104POPC   C1B 1738   5.704   9.506   7.286
  104POPC   C2B 1739   5.847   9.442   6.859
  104POPC   C3B 1740   5.740   9.422   6.423
  104POPC   C4B 1741   6.040   9.312   6.113
  105POPC   NC3 1742   2.002  11.367   8.146
  105POPC   PO4 1743   1.749  10.789   8.056
  105POPC   GL1 1744   1.769  11.108   7.713
  105POPC   GL2 1745   2.072  11.312   7.655
  105POPC   C1A 1746   1.868  11.078   7.273
  105POPC   D2A 1747   1.699  11.125   6.898
  105POPC   C3A 1748   1.965  11.079   6.550
  105POPC   C4A 1749   1.950  10.898   6.154
  105POPC   C1B 1750   2.286  11.454   7.297
  105POPC   C2B 1751   2.135  11.398   6.896
  105POPC   C3B 1752   2.354  11.434   6.491
  105POPC   C4B 1753   2.113  11.377   6.141
  106POPC   NC3 1754   4.091  10.013   7.992
  106POPC   PO4 1755   4.716   9.526   8.038
  106POPC   GL1 1756   4.476   9.735   7.756
  106POPC   GL2 1757   4.166   9.556   7.718
  106POPC   C1A 1758   4.477   9.836   7.327
  106POPC   D2A 1759   4.300   9.660   6.930
  106POPC   C3A 1760   4.356   9.916   6.545
  106POPC   C4A 1761   4.618   9.879   6.198
  106POPC   C1B 1762   3.943   9.596   7.315
  106POPC   C2B 1763   3.817   9.453   6.877
  106POPC   C3B 1764   3.920   9.630   6.447
  106POPC   C4B 1765   4.214   9.591   6.095
  107POPC   NC3 1766   2.660   9.516   8.050
  107POPC   PO4 1767   2.289   9.987   7.857
  107POPC   GL1 1768   2.651   9.787   7.616
  107POPC   GL2 1769   3.021   9.688   7.701
  107POPC   C1A 1770   2.797   9.925   7.245
  107POPC   D2A 1771   2.750   9.959   6.816
  107POPC   C3A 1772   2.421   9.820   6.657
  107POPC   C4A 1773   2.576   9.640   6.330
  107POPC   C1B 1774   2.951   9.438   7.317
  107POPC   C2B 1775   2.816   9.467   6.902
  107POPC   C3B 1776   3.023   9.550   6.525
  107POPC   C4B 1777   2.923   9.340   6.110
  108POPC   NC3 1778   6.888   8.707   8.049
  108POPC   PO4 1779   7.595   8.580   8.056
  108POPC   GL1 1780   7.526   8.889   7.727
  108POPC   GL2 1781   7.179   8.990   7.710
  108POPC   C1A 1782   7.479   8.863   7.273
  108POPC   D2A 1783   7.372   8.708   6.850
  108POPC   C3A 1784   7.621   8.788   6.498
  108POPC   C4A 1785   7.418   8.639   6.163
  108POPC   C1B 1786   7.102   9.230   7.325
  108POPC   C2B 1787   7.290   9.210   6.896
  108POPC   C3B 1788   7.168   9.025   6.480
  108POPC   C4B 1789   7.324   9.139   6.059
  109POPC   NC3 1790  10.515   2.905   7.923
  109POPC   PO4 1791  10.763   2.259   7.858
  109POPC   GL1 1792  10.498   2.490   7.593
  109POPC   GL2 1793  10.134   2.420   7.492
  109POPC   C1A 1794  10.729   2.555   7.228
  109POPC   D2A 1795  10.876   2.245   6.948
  109POPC   C3A 1796  10.687   2.251   6.526
  109POPC   C4A 1797  10.455   2.572   6.361
  109POPC   C1B 1798  10.254   2.784   7.228
  109POPC   C2B 1799  10.574   2.895   6.892
  109POPC   C3B 1800  10.616   3.021   6.486
  109POPC   C4B 1801  10.253   3.133   6.222
  110POPC   NC3 1802   9.650   8.790   8.067
  110POPC   PO4 1803   9.271   9.290   7.866
  110POPC   GL1 1804   9.371   8.896   7.644
  110POPC   GL2 1805   9.714   8.828   7.549
  110POPC   C1A 1806   9.275   8.777   7.215
  110POPC   D2A 1807   9.310   9.024   6.833
  110POPC   C3A 1808   9.202   8.849   6.450
  110POPC   C4A 1809   9.420   8.690   6.103
  110POPC   C1B 1810   9.741   8.511   7.226
  110POPC   C2B 1811   9.894   8.461   6.826
  110POPC   C3B 1812   9.695   8.697   6.540
  110POPC   C4B 1813   9.910   8.835   6.175
  111POPC   NC3 1814   3.151  10.394   8.121
  111POPC   PO4 1815   2.577  10.739   8.034
  111POPC   GL1 1816   2.892  10.617   7.744
  111POPC   GL2 1817   2.788  10.263   7.760
  111POPC   C1A 1818   3.034  10.733   7.344
  111POPC   D2A 1819   2.765  10.786   6.976
  111POPC   C3A 1820   2.968  10.718   6.590
  111POPC   C4A 1821   2.791  10.604   6.217
  111POPC   C1B 1822   2.615  10.413   7.361
  111POPC   C2B 1823   2.394  10.408   6.983
  111POPC   C3B 1824   2.546  10.375   6.603
  111POPC   C4B 1825   2.568  10.128   6.248
  112POPC   NC3 1826   7.820  11.137   8.003
  112POPC   PO4 1827   8.460  10.914   7.977
  112POPC   GL1 1828   8.239  11.168   7.657
  112POPC   GL2 1829   7.923  11.386   7.591
  112POPC   C1A 1830   8.210  11.005   7.242
  112POPC   D2A 1831   8.423  10.783   6.932
  112POPC   C3A 1832   8.445  10.998   6.594
  112POPC   C4A 1833   8.488  11.116   6.201
  112POPC   C1B 1834   8.067   0.005   7.250
  112POPC   C2B 1835   8.013  11.319   6.882
  112POPC   C3B 1836   8.144  11.389   6.485
  112POPC   C4B 1837   7.984  11.148   6.146
  113POPC   NC3 1838   2.403   2.335   7.980
  113POPC   PO4 1839   2.489   1.733   8.268
  113POPC   GL1 1840   2.630   1.902   7.804
  113POPC   GL2 1841   2.878   2.085   7.826
  113POPC   C1A 1842   2.432   1.955   7.346
  113POPC   D2A 1843   2.506   2.002   6.916
  113POPC   C3A 1844   2.348   1.784   6.521
  113POPC   C4A 1845   2.423   1.938   6.100
  113POPC   C1B 1846   2.927   1.966   7.374
  113POPC   C2B 1847   3.054   1.999   6.938
  113POPC   C3B 1848   3.105   2.193   6.543
  113POPC   C4B 1849   2.923   1.955   6.204
  114POPC   NC3 1850   4.399   9.192   8.043
  114POPC   PO4 1851   3.780   9.213   8.055
  114POPC   GL1 1852   3.848   9.157   7.613
  114POPC   GL2 1853   4.091   8.919   7.681
  114POPC   C1A 1854   4.096   9.131   7.202
  114POPC   D2A 1855   4.077   8.958   6.776
  114POPC   C3A 1856   4.196   9.166   6.379
  114POPC   C4A 1857   4.269   9.121   5.911
  114POPC   C1B 1858   4.393   8.743   7.383
  114POPC   C2B 1859   4.558   8.759   6.962
  114POPC   C3B 1860   4.567   8.840   6.508
  114POPC   C4B 1861   4.297   8.683   6.160
  115POPC   NC3 1862  10.993   1.369   7.850
  115POPC   PO4 1863  10.633   1.766   8.218
  115POPC   GL1 1864  10.661   1.769   7.725
  115POPC   GL2 1865  10.359   1.928   7.575
  115POPC   C1A 1866  10.654   1.632   7.256
  115POPC   D2A 1867  10.585   1.834   6.817
  115POPC   C3A 1868  10.736   1.716   6.425
  115POPC   C4A 1869  10.677   1.857   5.980
  115POPC   C1B 1870  10.462   2.114   7.229
  115POPC   C2B 1871  10.351   2.373   6.911
  115POPC   C3B 1872  10.114   2.272   6.562
  115POPC   C4B 1873  10.307   1.980   6.291
  116POPC   NC3 1874  10.945   6.738   8.049
  116POPC   PO4 1875  11.468   6.356   7.980
  116POPC   GL1 1876  11.366   6.373   7.615
  116POPC   GL2 1877  11.234   6.717   7.631
  116POPC   C1A 1878   0.013   6.221   7.244
  116POPC   D2A 1879  11.270   6.315   6.881
  116POPC   C3A 1880  11.494   6.203   6.578
  116POPC   C4A 1881   0.080   6.369   6.216
  116POPC   C1B 1882  11.013   6.560   7.288
  116POPC   C2B 1883  10.941   6.705   6.887
  116POPC   C3B 1884  11.061   6.833   6.498
  116POPC   C4B 1885  11.230   6.714   6.127
  117POPC   NC3 1886   2.168  10.429   7.938
  117POPC   PO4 1887   1.571   9.939   8.016
  117POPC   GL1 1888   1.547  10.195   7.630
  117POPC   GL2 1889   1.700  10.519   7.632
  117POPC   C1A 1890   1.682  10.181   7.194
  117POPC   D2A 1891   2.030  10.044   6.923
  117POPC   C3A 1892   2.035  10.107   6.480
  117POPC   C4A 1893   1.812  10.356   6.171
  117POPC   C1B 1894   1.993  10.577   7.301
  117POPC   C2B 1895   1.834  10.592   6.892
  117POPC   C3B 1896   2.054  10.589   6.561
  117POPC   C4B 1897   2.281  10.529   6.191
  118POPC   NC3 1898   2.800   0.511   8.048
  118POPC   PO4 1899   2.255   0.182   7.954
  118POPC   GL1 1900   2.422   0.461   7.689
  118POPC   GL2 1901   2.707   0.279   7.600
  118POPC   C1A 1902   2.376   0.481   7.252
  118POPC   D2A 1903   2.440   0.286   6.886
  118POPC   C3A 1904   2.485   0.481   6.527
  118POPC   C4A 1905   2.323   0.353   6.152
  118POPC   C1B 1906   2.838   0.170   7.191
  118POPC   C2B 1907   2.934   0.255   6.760
  118POPC   C3B 1908   2.859   0.172   6.343
  118POPC   C4B 1909   3.093   0.142   5.975
  119POPC   NC3 1910   2.936  11.020   8.068
  119POPC   PO4 1911   3.066   0.110   8.062
  119POPC   GL1 1912   2.959  11.343   7.684
  119POPC   GL2 1913   2.586  11.252   7.730
  119POPC   C1A 1914   2.816  11.184   7.288
  119POPC   D2A 1915   2.623  11.285   6.911
  119POPC   C3A 1916   2.830  11.211   6.546
  119POPC   C4A 1917   2.941  11.153   6.134
  119POPC   C1B 1918   2.376  10.945   7.411
  119POPC   C2B 1919   2.253  10.904   6.969
  119POPC   C3B 1920   2.452  10.887   6.575
  119POPC   C4B 1921   2.469  11.007   6.169
  120POPC   NC3 1922   1.536  10.389   8.118
  120POPC   PO4 1923   0.953  10.717   8.131
  120POPC   GL1 1924   1.206  10.623   7.785
  120POPC   GL2 1925   1.029  10.325   7.731
  120POPC   C1A 1926   1.109  10.701   7.348
  120POPC   D2A 1927   0.860  10.557   6.975
  120POPC   C3A 1928   1.100  10.602   6.565
  120POPC   C4A 1929   1.538  10.695   6.415
  120POPC   C1B 1930   1.124  10.186   7.314
  120POPC   C2B 1931   1.260  10.242   6.919
  120POPC   C3B 1932   1.548  10.206   6.622
  120POPC   C4B 1933   1.327  10.170   6.247
  121POPC   NC3 1934   9.904   1.243   8.073
  121POPC   PO4 1935   9.250   1.343   8.049
  121POPC   GL1 1936   9.516   1.106   7.725
  121POPC   GL2 1937   9.879   1.138   7.582
  121POPC   C1A 1938   9.555   0.839   7.340
  121POPC   D2A 1939   9.563   0.990   6.906
  121POPC   C3A 1940   9.297   1.065   6.571
  121POPC   C4A 1941   9.521   0.938   6.211
  121POPC   C1B 1942   9.687   1.352   7.256
  121POPC   C2B 1943   9.781   1.495   6.859
  121POPC   C3B 1944   9.694   1.371   6.442
  121POPC   C4B 1945   9.985   1.174   6.153
  122POPC   NC3 1946   9.916   0.244   8.030
  122POPC   PO4 1947   9.596   0.765   8.251
  122POPC   GL1 1948   9.769   0.689   7.833
  122POPC   GL2 1949   9.537   0.470   7.763
  122POPC   C1A 1950   9.966   0.535   7.434
  122POPC   D2A 1951  10.045   0.328   7.032
  122POPC   C3A 1952   9.823   0.536   6.696
  122POPC   C4A 1953   9.991   0.688   6.314
  122POPC   C1B 1954   9.413   0.329   7.382
  122POPC   C2B 1955   9.378   0.479   6.986
  122POPC   C3B 1956   9.330   0.322   6.565
  122POPC   C4B 1957   9.586   0.418   6.223
  123POPC   NC3 1958   5.086  11.445   8.393
  123POPC   PO4 1959   5.556  11.482   7.905
  123POPC   GL1 1960   5.282  11.241   7.607
  123POPC   GL2 1961   4.912  11.182   7.787
  123POPC   C1A 1962   5.281  11.374   7.152
  123POPC   D2A 1963   5.227   0.022   6.733
  123POPC   C3A 1964   5.161  11.230   6.417
  123POPC   C4A 1965   5.437  11.024   6.153
  123POPC   C1B 1966   4.831  11.252   7.358
  123POPC   C2B 1967   4.864  11.103   6.938
  123POPC   C3B 1968   4.708  11.346   6.601
  123POPC   C4B 1969   4.671  11.359   6.190
  124POPC   NC3 1970   0.394   9.108   8.281
  124POPC   PO4 1971   0.551   8.567   8.052
  124POPC   GL1 1972   0.532   8.826   7.685
  124POPC   GL2 1973   0.179   8.943   7.686
  124POPC   C1A 1974   0.524   8.885   7.226
  124POPC   D2A 1975   0.343   9.052   6.863
  124POPC   C3A 1976   0.640   8.905   6.567
  124POPC   C4A 1977   0.651   8.535   6.336
  124POPC   C1B 1978   0.181   8.565   7.402
  124POPC   C2B 1979   0.206   8.536   6.935
  124POPC   C3B 1980   0.189   8.649   6.485
  124POPC   C4B 1981   0.339   9.026   6.178
  125POPC   NC3 1982   4.204   0.416   8.372
  125POPC   PO4 1983   3.587   0.539   8.235
  125POPC   GL1 1984   3.478   0.507   7.771
  125POPC   GL2 1985   3.248   0.265   7.608
  125POPC   C1A 1986   3.584   0.515   7.301
  125POPC   D2A 1987   3.545   0.186   6.961
  125POPC   C3A 1988   3.534   0.326   6.508
  125POPC   C4A 1989   3.615   0.215   6.065
  125POPC   C1B 1990   3.084   0.588   7.307
  125POPC   C2B 1991   3.284   0.622   6.872
  125POPC   C3B 1992   3.120   0.623   6.416
  125POPC   C4B 1993   3.300   0.628   5.984
  126POPC   NC3 1994   0.927   8.851   8.048
  126POPC   PO4 1995   1.452   8.662   8.476
  126POPC   GL1 1996   1.443   8.754   7.920
  126POPC   GL2 1997   1.242   9.061   7.726
  126POPC   C1A 1998   1.533   8.796   7.398
  126POPC   D2A 1999   1.684   8.803   6.936
  126POPC   C3A 2000   1.743   9.097   6.606
  126POPC   C4A 2001   1.546   9.034   6.203
  126POPC   C1B 2002   1.018   8.832   7.384
  126POPC   C2B 2003   0.967   8.971   6.974
  126POPC   C3B 2004   1.189   8.926   6.628
  126POPC   C4B 2005   1.079   8.818   6.258
  127POPC   NC3 2006   9.676  10.504   7.867
  127POPC   PO4 2007   9.174  10.240   8.166
  127POPC   GL1 2008   9.396  10.122   7.673
  127POPC   GL2 2009   9.771  10.177   7.505
  127POPC   C1A 2010   9.418  10.175   7.171
  127POPC   D2A 2011   9.442   9.981   6.780
  127POPC   C3A 2012   9.406  10.263   6.419
  127POPC   C4A 2013   9.382  10.193   5.977
  127POPC   C1B 2014   9.817  10.512   7.195
  127POPC   C2B 2015   9.742  10.502   6.756
  127POPC   C3B 2016   9.798  10.552   6.328
  127POPC   C4B 2017   9.880  10.319   5.997
  128POPC   NC3 2018   3.425   8.976   7.893
  128POPC   PO4 2019   2.967   8.479   7.890
  128POPC   GL1 2020   3.246   8.671   7.525
  128POPC   GL2 2021   3.636   8.672   7.541
  128POPC   C1A 2022   3.122   8.782   7.094
  128POPC   D2A 2023   3.176   8.475   6.753
  128POPC   C3A 2024   3.212   8.676   6.400
  128POPC   C4A 2025   3.070   9.051   6.507
  128POPC   C1B 2026   3.608   8.955   7.186
  128POPC   C2B 2027   3.534   8.895   6.753
  128POPC   C3B 2028   3.746   8.857   6.376
  128POPC   C4B 2029   3.820   8.786   5.958
  129POPC   NC3 2030  10.503   0.680   8.304
  129POPC   PO4 2031  10.360   0.176   7.986
  129POPC   GL1 2032  10.486   0.318   7.621
  129POPC   GL2 2033  10.544   0.662   7.676
  129POPC   C1A 2034  10.499   0.115   7.200
  129POPC   D2A 2035  10.478   0.118   6.750
  129POPC   C3A 2036  10.129   0.164   6.486
  129POPC   C4A 2037  10.195   0.288   6.047
  129POPC   C1B 2038  10.429   0.626   7.224
  129POPC   C2B 2039  10.335   0.654   6.788
  129POPC   C3B 2040  10.468   0.530   6.425
  129POPC   C4B 2041  10.768   0.627   6.185
  130POPC   NC3 2042   2.483   7.151   8.068
  130POPC   PO4 2043   2.589   7.692   7.927
  130POPC   GL1 2044   2.556   7.366   7.588
  130POPC   GL2 2045   2.302   7.063   7.598
  130POPC   C1A 2046   2.621   7.530   7.168
  130POPC   D2A 2047   2.637   7.985   7.023
  130POPC   C3A 2048   2.634   7.966   6.584
  130POPC   C4A 2049   2.707   7.554   6.392
  130POPC   C1B 2050   2.303   7.082   7.128
  130POPC   C2B 2051   2.524   7.203   6.754
  130POPC   C3B 2052   2.592   7.032   6.336
  130POPC   C4B 2053   2.613   6.895   5.865
  131POPC   NC3 2054   1.106   1.861   8.083
  131POPC   PO4 2055   1.669   2.286   8.232
  131POPC   GL1 2056   1.564   2.095   7.813
  131POPC   GL2 2057   1.224   2.213   7.719
  131POPC   C1A 2058   1.591   2.184   7.341
  131POPC   D2A 2059   1.369   2.171   6.943
  131POPC   C3A 2060   1.558   1.998   6.573
  131POPC   C4A 2061   1.479   2.103   6.160
  131POPC   C1B 2062   1.038   2.018   7.346
  131POPC   C2B 2063   0.904   1.949   6.917
  131POPC   C3B 2064   1.038   2.058   6.490
  131POPC   C4B 2065   1.052   1.856   6.067
  132POPC   NC3 2066   5.148   9.713   8.084
  132POPC   PO4 2067   5.081  10.329   8.086
  132POPC   GL1 2068   4.974  10.032   7.692
  132POPC   GL2 2069   4.973   9.656   7.602
  132POPC   C1A 2070   5.064   9.973   7.223
  132POPC   D2A 2071   5.350   9.760   6.961
  132POPC   C3A 2072   5.064   9.607   6.678
  132POPC   C4A 2073   5.073   9.607   6.277
  132POPC   C1B 2074   5.011   9.428   7.181
  132POPC   C2B 2075   4.895   9.129   6.823
  132POPC   C3B 2076   5.032   9.094   6.382
  132POPC   C4B 2077   5.160   9.233   5.926
  133POPC   NC3 2078   5.787   1.605   8.043
  133POPC   PO4 2079   5.731   0.935   8.150
  133POPC   GL1 2080   5.963   1.143   7.820
  133POPC   GL2 2081   5.659   1.259   7.671
  133POPC   C1A 2082   6.065   1.263   7.373
  133POPC   D2A 2083   6.071   1.394   6.925
  133POPC   C3A 2084   5.905   1.228   6.547
  133POPC   C4A 2085   6.103   0.966   6.259
  133POPC   C1B 2086   5.619   1.017   7.273
  133POPC   C2B 2087   5.518   1.117   6.881
  133POPC   C3B 2088   5.437   0.998   6.481
  133POPC   C4B 2089   5.616   1.000   6.086
  134POPC   NC3 2090   9.474   9.597   8.147
  134POPC   PO4 2091   9.889  10.074   7.978
  134POPC   GL1 2092   9.694   9.714   7.701
  134POPC   GL2 2093   9.745   9.352   7.709
  134POPC   C1A 2094   9.722   9.719   7.263
  134POPC   D2A 2095   9.818   9.487   6.929
  134POPC   C3A 2096   9.731   9.634   6.541
  134POPC   C4A 2097   9.728   9.886   6.198
  134POPC   C1B 2098   9.561   9.216   7.288
  134POPC   C2B 2099   9.799   8.969   6.979
  134POPC   C3B 2100   9.922   9.150   6.573
  134POPC   C4B 2101   9.559   9.193   6.303
  135POPC   NC3 2102   8.839   1.510   7.947
  135POPC   PO4 2103   8.429   1.069   8.121
  135POPC   GL1 2104   8.667   0.987   7.725
  135POPC   GL2 2105   9.002   1.112   7.686
  135POPC   C1A 2106   8.691   1.211   7.300
  135POPC   D2A 2107   8.875   1.169   6.905
  135POPC   C3A 2108   8.728   1.073   6.535
  135POPC   C4A 2109   8.745   1.237   6.162
  135POPC   C1B 2110   9.206   1.208   7.281
  135POPC   C2B 2111   9.278   1.462   6.899
  135POPC   C3B 2112   8.968   1.559   6.587
  135POPC   C4B 2113   9.186   1.456   6.253
  136POPC   NC3 2114   9.147   0.862   8.181
  136POPC   PO4 2115   8.704   0.370   8.034
  136POPC   GL1 2116   9.023   0.528   7.810
  136POPC   GL2 2117   9.118   0.177   7.784
  136POPC   C1A 2118   9.067   0.714   7.415
  136POPC   D2A 2119   8.788   0.706   7.097
  136POPC   C3A 2120   9.001   0.687   6.717
  136POPC   C4A 2121   9.081   0.697   6.272
  136POPC   C1B 2122   8.899   0.244   7.396
  136POPC   C2B 2123   8.912   0.215   6.968
  136POPC   C3B 2124   8.620   0.374   6.683
  136POPC   C4B 2125   8.692   0.359   6.234
  137POPC   NC3 2126   3.602   1.067   8.083
  137POPC   PO4 2127   2.887   0.961   7.934
  137POPC   GL1 2128   3.265   0.977   7.660
  137POPC   GL2 2129   3.507   1.274   7.614
  137POPC   C1A 2130   3.381   0.991   7.229
  137POPC   D2A 2131   3.633   1.091   6.906
  137POPC   C3A 2132   3.491   0.946   6.534
  137POPC   C4A 2133   3.467   1.153   6.184
  137POPC   C1B 2134   3.805   1.428   7.298
  137POPC   C2B 2135   4.022   1.438   6.874
  137POPC   C3B 2136   3.782   1.395   6.498
  137POPC   C4B 2137   3.695   1.657   6.153
  138POPC   NC3 2138   3.787  10.519   8.232
  138POPC   PO4 2139   4.314  10.685   7.867
  138POPC   GL1 2140   3.862  10.487   7.720
  138POPC   GL2 2141   3.474  10.494   7.753
  138POPC   C1A 2142   3.644  10.438   7.292
  138POPC   D2A 2143   3.491  10.253   6.898
  138POPC   C3A 2144   3.542  10.493   6.530
  138POPC   C4A 2145   3.841  10.707   6.241
  138POPC   C1B 2146   3.178  10.254   7.431
  138POPC   C2B 2147   3.008  10.338   6.990
  138POPC   C3B 2148   3.077  10.220   6.515
  138POPC   C4B 2149   3.272  10.399   6.114
  139POPC   NC3 2150  11.224  10.261   8.523
  139POPC   PO4 2151  10.843  10.170   8.030
  139POPC   GL1 2152  11.215  10.120   7.739
  139POPC   GL2 2153  11.351  10.445   7.692
  139POPC   C1A 2154  11.269  10.137   7.265
  139POPC   D2A 2155  10.912  10.191   6.945
  139POPC   C3A 2156  10.958  10.113   6.492
  139POPC   C4A 2157  10.983  10.208   6.013
  139POPC   C1B 2158  11.271  10.668   7.290
  139POPC   C2B 2159  11.294  10.545   6.861
  139POPC   C3B 2160  11.288  10.484   6.424
  139POPC   C4B 2161  11.418  10.112   6.243
  140POPC   NC3 2162   3.359   2.067   8.101
  140POPC   PO4 2163   3.442   1.512   8.061
  140POPC   GL1 2164   3.293   1.771   7.682
  140POPC   GL2 2165   3.320   2.179   7.606
  140POPC   C1A 2166   3.375   1.738   7.248
  140POPC   D2A 2167   3.527   1.610   6.869
  140POPC   C3A 2168   3.306   1.706   6.492
  140POPC   C4A 2169   3.178   1.540   6.069
  140POPC   C1B 2170   3.715   2.026   7.499
  140POPC   C2B 2171   3.876   1.883   7.100
  140POPC   C3B 2172   3.802   1.942   6.610
  140POPC   C4B 2173   3.516   2.109   6.256
  141POPC   NC3 2174   2.806   3.782   7.990
  141POPC   PO4 2175   3.225   3.236   8.064
  141POPC   GL1 2176   2.979   3.175   7.711
  141POPC   GL2 2177   2.628   3.321   7.703
  141POPC   C1A 2178   3.040   3.379   7.326
  141POPC   D2A 2179   3.257   3.284   6.936
  141POPC   C3A 2180   3.045   3.408   6.558
  141POPC   C4A 2181   2.976   3.242   6.152
  141POPC   C1B 2182   2.464   3.496   7.296
  141POPC   C2B 2183   2.295   3.472   6.856
  141POPC   C3B 2184   2.511   3.436   6.435
  141POPC   C4B 2185   2.812   3.782   6.273
  142POPC   NC3 2186   8.787  10.019   8.048
  142POPC   PO4 2187   9.091   9.440   8.341
  142POPC   GL1 2188   9.106   9.733   7.835
  142POPC   GL2 2189   8.837   9.601   7.633
  142POPC   C1A 2190   9.224   9.748   7.365
  142POPC   D2A 2191   9.308   9.520   6.981
  142POPC   C3A 2192   9.223   9.458   6.565
  142POPC   C4A 2193   9.264   9.788   6.330
  142POPC   C1B 2194   8.756   9.706   7.169
  142POPC   C2B 2195   8.918   9.809   6.775
  142POPC   C3B 2196   8.786   9.670   6.362
  142POPC   C4B 2197   8.483   9.902   6.122
  143POPC   NC3 2198   7.197  10.954   8.217
  143POPC   PO4 2199   7.453  11.389   7.826
  143POPC   GL1 2200   7.462  11.079   7.611
  143POPC   GL2 2201   7.141  10.954   7.685
  143POPC   C1A 2202   7.622  11.227   7.212
  143POPC   D2A 2203   7.558   0.030   6.891
  143POPC   C3A 2204   7.629  11.317   6.523
  143POPC   C4A 2205   7.475  11.280   6.135
  143POPC   C1B 2206   7.110  11.184   7.264
  143POPC   C2B 2207   7.270  11.115   6.868
  143POPC   C3B 2208   7.204  11.001   6.487
  143POPC   C4B 2209   6.987  11.160   6.142
  144POPC   NC3 2210   8.628   2.420   8.013
  144POPC   PO4 2211   9.101   2.888   8.139
  144POPC   GL1 2212   9.068   2.816   7.716
  144POPC   GL2 2213   8.722   2.869   7.729
  144POPC   C1A 2214   9.145   2.729   7.285
  144POPC   D2A 2215   8.872   2.614   6.895
  144POPC   C3A 2216   9.021   2.669   6.466
  144POPC   C4A 2217   9.029   3.024   6.171
  144POPC   C1B 2218   8.630   2.642   7.343
  144POPC   C2B 2219   8.385   2.484   6.968
  144POPC   C3B 2220   8.530   2.480   6.547
  144POPC   C4B 2221   8.574   2.769   6.209
  145POPC   NC3 2222  11.326   1.014   8.353
  145POPC   PO4 2223  10.763   0.994   8.015
  145POPC   GL1 2224  11.023   0.877   7.692
  145POPC   GL2 2225  11.373   1.016   7.738
  145POPC   C1A 2226  10.865   0.893   7.277
  145POPC   D2A 2227  10.699   1.004   6.887
  145POPC   C3A 2228  10.999   0.843   6.597
  145POPC   C4A 2229  11.095   1.009   6.213
  145POPC   C1B 2230  11.327   1.088   7.291
  145POPC   C2B 2231  11.207   1.252   6.871
  145POPC   C3B 2232  11.264   1.444   6.448
  145POPC   C4B 2233  11.393   1.389   5.985
  146POPC   NC3 2234   5.093   0.120   7.899
  146POPC   PO4 2235   4.756   0.734   8.054
  146POPC   GL1 2236   4.802   0.614   7.663
  146POPC   GL2 2237   5.080   0.561   7.684
  146POPC   C1A 2238   4.759   0.356   7.333
  146POPC   D2A 2239   4.799   0.126   7.006
  146POPC   C3A 2240   4.827   0.346   6.639
  146POPC   C4A 2241   4.983   0.237   6.257
  146POPC   C1B 2242   5.297   0.474   7.337
  146POPC   C2B 2243   5.336   0.650   6.954
  146POPC   C3B 2244   5.354   0.491   6.572
  146POPC   C4B 2245   5.305   0.609   6.177
  147POPC   NC3 2246   5.221   7.673   8.530
  147POPC   PO4 2247   5.288   7.773   8.074
  147POPC   GL1 2248   5.179   7.833   7.608
  147POPC   GL2 2249   4.952   8.120   7.511
  147POPC   C1A 2250   5.222   7.898   7.140
  147POPC   D2A 2251   5.004   8.064   6.775
  147POPC   C3A 2252   5.227   8.114   6.385
  147POPC   C4A 2253   5.007   8.048   5.988
  147POPC   C1B 2254   5.032   8.424   7.151
  147POPC   C2B 2255   4.982   8.587   6.721
  147POPC   C3B 2256   4.905   8.504   6.301
  147POPC   C4B 2257   5.137   8.564   5.917
  148POPC   NC3 2258   0.795  11.143   8.194
  148POPC   PO4 2259   0.174  11.340   8.076
  148POPC   GL1 2260   0.220  11.460   7.669
  148POPC   GL2 2261   0.546  11.312   7.710
  148POPC   C1A 2262   0.230  11.241   7.260
  148POPC   D2A 2263   0.129  11.008   6.871
  148POPC   C3A 2264   0.229  11.215   6.498
  148POPC   C4A 2265   0.211  11.430   6.091
  148POPC   C1B 2266   0.601  10.923   7.421
  148POPC   C2B 2267   0.625  11.006   6.965
  148POPC   C3B 2268   0.625  10.840   6.541
  148POPC   C4B 2269   0.592  11.102   6.176
  149POPC   NC3 2270   0.851   5.536   7.678
  149POPC   PO4 2271   0.972   4.962   7.981
  149POPC   GL1 2272   1.062   5.092   7.598
  149POPC   GL2 2273   1.370   5.161   7.642
  149POPC   C1A 2274   1.137   5.192   7.173
  149POPC   D2A 2275   0.973   5.009   6.846
  149POPC   C3A 2276   0.944   5.360   6.650
  149POPC   C4A 2277   1.032   5.254   6.258
  149POPC   C1B 2278   1.515   4.894   7.338
  149POPC   C2B 2279   1.446   4.809   6.945
  149POPC   C3B 2280   1.410   5.065   6.587
  149POPC   C4B 2281   1.349   4.887   6.197
  150POPC   NC3 2282   1.081   4.219   8.017
  150POPC   PO4 2283   1.660   4.666   7.919
  150POPC   GL1 2284   1.263   4.621   7.697
  150POPC   GL2 2285   1.180   4.301   7.535
  150POPC   C1A 2286   1.045   4.699   7.279
  150POPC   D2A 2287   1.061   4.435   6.934
  150POPC   C3A 2288   1.274   4.525   6.561
  150POPC   C4A 2289   1.173   4.421   6.151
  150POPC   C1B 2290   0.872   4.102   7.291
  150POPC   C2B 2291   0.899   3.953   6.877
  150POPC   C3B 2292   0.815   4.180   6.494
  150POPC   C4B 2293   0.878   4.020   6.089
  151POPC   NC3 2294   0.411   0.977   7.908
  151POPC   PO4 2295   0.805   1.491   8.103
  151POPC   GL1 2296   0.719   1.356   7.719
  151POPC   GL2 2297   0.360   1.436   7.650
  151POPC   C1A 2298   0.784   1.346   7.298
  151POPC   D2A 2299   0.692   1.064   6.924
  151POPC   C3A 2300   0.601   1.250   6.545
  151POPC   C4A 2301   0.793   1.421   6.147
  151POPC   C1B 2302   0.323   1.151   7.274
  151POPC   C2B 2303   0.162   0.984   6.874
  151POPC   C3B 2304   0.084   1.014   6.432
  151POPC   C4B 2305   0.401   1.071   6.114
  152POPC   NC3 2306   0.396   1.782   8.061
  152POPC   PO4 2307   0.009   2.396   8.092
  152POPC   GL1 2308   0.040   2.223   7.667
  152POPC   GL2 2309   0.246   1.957   7.630
  152POPC   C1A 2310   0.302   2.284   7.265
  152POPC   D2A 2311   0.398   2.085   6.896
  152POPC   C3A 2312   0.521   2.239   6.533
  152POPC   C4A 2313   0.372   2.327   6.152
  152POPC   C1B 2314   0.546   1.809   7.327
  152POPC   C2B 2315   0.511   1.586   6.930
  152POPC   C3B 2316   0.642   1.747   6.523
  152POPC   C4B 2317   0.562   1.879   6.082
  153POPC   NC3 2318   9.462   6.264   8.039
  153POPC   PO4 2319   9.265   6.878   8.177
  153POPC   GL1 2320   9.476   6.736   7.763
  153POPC   GL2 2321   9.797   6.585   7.726
  153POPC   C1A 2322   9.500   6.553   7.304
  153POPC   D2A 2323   9.536   6.755   6.872
  153POPC   C3A 2324   9.474   6.546   6.449
  153POPC   C4A 2325   9.150   6.306   6.266
  153POPC   C1B 2326  10.022   6.453   7.367
  153POPC   C2B 2327  10.032   6.673   7.007
  153POPC   C3B 2328   9.945   6.517   6.641
  153POPC   C4B 2329  10.034   6.624   6.268
  154POPC   NC3 2330   2.630   8.775   8.055
  154POPC   PO4 2331   3.082   9.287   8.065
  154POPC   GL1 2332   2.773   9.156   7.703
  154POPC   GL2 2333   2.771   8.832   7.572
  154POPC   C1A 2334   2.544   9.132   7.260
  154POPC   D2A 2335   2.690   8.971   6.850
  154POPC   C3A 2336   2.564   9.165   6.446
  154POPC   C4A 2337   2.419   9.333   5.971
  154POPC   C1B 2338   2.611   8.607   7.220
  154POPC   C2B 2339   2.661   8.460   6.791
  154POPC   C3B 2340   2.694   8.663   6.405
  154POPC   C4B 2341   2.636   8.894   6.026
  155POPC   NC3 2342   0.230   7.350   8.143
  155POPC   PO4 2343  11.053   7.233   8.223
  155POPC   GL1 2344  11.310   7.204   7.815
  155POPC   GL2 2345  11.101   7.390   7.598
  155POPC   C1A 2346   0.012   7.227   7.358
  155POPC   D2A 2347  11.443   7.142   6.881
  155POPC   C3A 2348   0.006   7.507   6.587
  155POPC   C4A 2349  11.495   7.702   6.165
  155POPC   C1B 2350  11.033   7.121   7.202
  155POPC   C2B 2351  10.817   7.203   6.825
  155POPC   C3B 2352  10.977   7.339   6.433
  155POPC   C4B 2353  11.340   7.207   6.221
  156POPC   NC3 2354  10.168   4.291   8.015
  156POPC   PO4 2355  10.734   4.623   8.066
  156POPC   GL1 2356  10.520   4.448   7.661
  156POPC   GL2 2357  10.502   4.057   7.697
  156POPC   C1A 2358  10.243   4.521   7.270
  156POPC   D2A 2359  10.002   4.272   6.968
  156POPC   C3A 2360  10.129   4.421   6.560
  156POPC   C4A 2361  10.026   4.463   6.156
  156POPC   C1B 2362  10.514   4.108   7.267
  156POPC   C2B 2363  10.509   4.248   6.859
  156POPC   C3B 2364  10.672   3.985   6.510
  156POPC   C4B 2365  10.458   4.199   6.200
  157POPC   NC3 2366  10.390  11.215   8.069
  157POPC   PO4 2367   9.780  11.307   8.125
  157POPC   GL1 2368   9.974  11.138   7.752
  157POPC   GL2 2369  10.223  11.365   7.599
  157POPC   C1A 2370   9.964  11.016   7.318
  157POPC   D2A 2371  10.127  11.300   6.974
  157POPC   C3A 2372  10.116  11.138   6.537
  157POPC   C4A 2373  10.209  11.283   6.124
  157POPC   C1B 2374  10.474  11.091   7.336
  157POPC   C2B 2375  10.646  11.173   6.940
  157POPC   C3B 2376  10.818  11.267   6.558
  157POPC   C4B 2377  10.602  11.028   6.294
  158POPC   NC3 2378   1.370  11.066   8.041
  158POPC   PO4 2379   0.851   0.070   8.063
  158POPC   GL1 2380   1.140  11.417   7.738
  158POPC   GL2 2381   1.005  11.091   7.688
  158POPC   C1A 2382   1.359  11.225   7.349
  158POPC   D2A 2383   1.135  11.057   6.976
  158POPC   C3A 2384   1.313  11.105   6.592
  158POPC   C4A 2385   1.584  11.232   6.265
  158POPC   C1B 2386   0.851  11.353   7.313
  158POPC   C2B 2387   0.783   0.024   6.916
  158POPC   C3B 2388   0.856  11.306   6.545
  158POPC   C4B 2389   1.084  11.083   6.151
  159POPC   NC3 2390   0.234   9.667   8.057
  159POPC   PO4 2391   0.791   9.326   8.140
  159POPC   GL1 2392   0.492   9.334   7.790
  159POPC   GL2 2393   0.527   9.683   7.659
  159POPC   C1A 2394   0.343   9.323   7.353
  159POPC   D2A 2395   0.680   9.395   7.047
  159POPC   C3A 2396   0.841   9.376   6.631
  159POPC   C4A 2397   0.826   9.246   6.219
  159POPC   C1B 2398   0.210   9.815   7.350
  159POPC   C2B 2399   0.215   9.589   6.931
  159POPC   C3B 2400   0.457   9.700   6.566
  159POPC   C4B 2401   0.397   9.992   6.231
  160POPC   NC3 2402   9.812   5.732   8.009
  160POPC   PO4 2403   9.143   5.949   7.965
  160POPC   GL1 2404   9.504   5.923   7.643
  160POPC   GL2 2405   9.736   5.635   7.538
  160POPC   C1A 2406   9.649   6.041   7.235
  160POPC   D2A 2407   9.516   6.239   6.866
  160POPC   C3A 2408   9.533   6.021   6.479
  160POPC   C4A 2409   9.320   5.718   6.217
  160POPC   C1B 2410   9.874   5.472   7.186
  160POPC   C2B 2411   9.759   5.686   6.842
  160POPC   C3B 2412   9.744   5.533   6.454
  160POPC   C4B 2413   9.834   5.788   6.128
  161POPC   NC3 2414   6.208  10.112   8.025
  161POPC   PO4 2415   5.918  10.670   8.160
  161POPC   GL1 2416   6.047  10.526   7.749
  161POPC   GL2 2417   5.771  10.790   7.640
  161POPC   C1A 2418   6.070  10.148   7.416
  161POPC   D2A 2419   6.105  10.339   7.027
  161POPC   C3A 2420   6.147  10.148   6.672
  161POPC   C4A 2421   5.983  10.275   6.330
  161POPC   C1B 2422   5.725  10.500   7.361
  161POPC   C2B 2423   5.584  10.339   7.011
  161POPC   C3B 2424   5.593  10.435   6.628
  161POPC   C4B 2425   5.487  10.286   6.262
  162POPC   NC3 2426   4.340   2.296   8.037
  162POPC   PO4 2427   4.537   1.710   8.087
  162POPC   GL1 2428   4.396   1.610   7.676
  162POPC   GL2 2429   4.179   1.906   7.691
  162POPC   C1A 2430   4.383   1.808   7.239
  162POPC   D2A 2431   4.296   1.886   6.811
  162POPC   C3A 2432   4.559   2.030   6.460
  162POPC   C4A 2433   4.412   1.932   6.037
  162POPC   C1B 2434   4.148   2.243   7.372
  162POPC   C2B 2435   4.028   2.322   6.952
  162POPC   C3B 2436   4.135   2.319   6.536
  162POPC   C4B 2437   4.006   2.210   6.149
  163POPC   NC3 2438   8.908   5.572   8.049
  163POPC   PO4 2439   9.474   5.441   8.094
  163POPC   GL1 2440   9.283   5.446   7.669
  163POPC   GL2 2441   9.035   5.693   7.548
  163POPC   C1A 2442   9.364   5.570   7.193
  163POPC   D2A 2443   9.262   5.649   6.732
  163POPC   C3A 2444   8.920   5.491   6.421
  163POPC   C4A 2445   8.939   5.458   5.946
  163POPC   C1B 2446   9.133   6.027   7.217
  163POPC   C2B 2447   9.025   6.098   6.760
  163POPC   C3B 2448   8.785   5.994   6.388
  163POPC   C4B 2449   8.687   6.296   6.043
  164POPC   NC3 2450   7.809   2.984   7.915
  164POPC   PO4 2451   8.176   2.500   8.082
  164POPC   GL1 2452   7.944   2.334   7.695
  164POPC   GL2 2453   7.831   2.625   7.578
  164POPC   C1A 2454   7.932   2.341   7.193
  164POPC   D2A 2455   7.947   2.698   6.835
  164POPC   C3A 2456   8.083   2.647   6.389
  164POPC   C4A 2457   8.014   2.337   6.090
  164POPC   C1B 2458   8.154   2.817   7.296
  164POPC   C2B 2459   8.405   2.981   6.902
  164POPC   C3B 2460   8.280   3.116   6.452
  164POPC   C4B 2461   8.264   3.098   5.957
  165POPC   NC3 2462   1.169   0.393   7.971
  165POPC   PO4 2463   1.597   0.889   8.004
  165POPC   GL1 2464   1.505   0.670   7.589
  165POPC   GL2 2465   1.140   0.632   7.523
  165POPC   C1A 2466   1.437   0.607   7.106
  165POPC   D2A 2467   1.011   0.497   6.901
  165POPC   C3A 2468   1.095   0.564   6.467
  165POPC   C4A 2469   1.520   0.588   6.418
  165POPC   C1B 2470   1.207   0.217   7.313
  165POPC   C2B 2471   1.313   0.046   6.887
  165POPC   C3B 2472   1.277   0.100   6.437
  165POPC   C4B 2473   0.879   0.178   6.201
  166POPC   NC3 2474   9.552   2.773   8.158
  166POPC   PO4 2475  10.150   2.606   7.972
  166POPC   GL1 2476   9.861   2.834   7.690
  166POPC   GL2 2477   9.555   2.618   7.672
  166POPC   C1A 2478   9.709   2.827   7.245
  166POPC   D2A 2479   9.860   2.535   6.964
  166POPC   C3A 2480  10.105   2.769   6.688
  166POPC   C4A 2481   9.970   2.693   6.274
  166POPC   C1B 2482   9.496   2.336   7.310
  166POPC   C2B 2483   9.345   2.459   6.916
  166POPC   C3B 2484   9.458   2.811   6.712
  166POPC   C4B 2485   9.475   2.822   6.266
  167POPC   NC3 2486  10.463   8.457   7.837
  167POPC   PO4 2487  10.056   8.850   8.298
  167POPC   GL1 2488  10.134   8.927   7.794
  167POPC   GL2 2489  10.256   9.255   7.723
  167POPC   C1A 2490  10.187   8.755   7.323
  167POPC   D2A 2491  10.413   8.601   6.928
  167POPC   C3A 2492  10.304   8.808   6.536
  167POPC   C4A 2493  10.390   8.667   6.119
  167POPC   C1B 2494  10.066   9.256   7.324
  167POPC   C2B 2495  10.286   9.126   6.958
  167POPC   C3B 2496  10.633   9.191   6.681
  167POPC   C4B 2497  10.609   9.149   6.230
  168POPC   NC3 2498   1.624   1.188   3.928
  168POPC   PO4 2499   0.977   0.948   3.947
  168POPC   GL1 2500   1.226   1.142   4.229
  168POPC   GL2 2501   1.032   1.390   4.389
  168POPC   C1A 2502   1.456   1.130   4.608
  168POPC   D2A 2503   1.332   1.183   5.052
  168POPC   C3A 2504   1.603   1.379   5.376
  168POPC   C4A 2505   1.651   0.968   5.615
  168POPC   C1B 2506   0.919   1.007   4.635
  168POPC   C2B 2507   0.877   0.887   5.077
  168POPC   C3B 2508   1.130   0.930   5.460
  168POPC   C4B 2509   1.166   1.379   5.639
  169POPC   NC3 2510  10.861   3.429   3.832
  169POPC   PO4 2511  10.189   3.437   3.818
  169POPC   GL1 2512  10.200   3.681   4.210
  169POPC   GL2 2513  10.573   3.703   4.243
  169POPC   C1A 2514  10.097   3.516   4.632
  169POPC   D2A 2515  10.217   3.226   4.996
  169POPC   C3A 2516   9.972   3.220   5.380
  169POPC   C4A 2517  10.127   3.345   5.769
  169POPC   C1B 2518  10.577   3.572   4.707
  169POPC   C2B 2519  10.391   3.706   5.130
  169POPC   C3B 2520  10.419   3.734   5.605
  169POPC   C4B 2521  10.718   3.831   5.964
  170POPC   NC3 2522   9.699   5.704   3.702
  170POPC   PO4 2523   9.313   5.339   3.939
  170POPC   GL1 2524   9.637   5.455   4.194
  170POPC   GL2 2525   9.636   5.805   4.242
  170POPC   C1A 2526   9.682   5.449   4.623
  170POPC   D2A 2527   9.445   5.446   4.984
  170POPC   C3A 2528   9.644   5.624   5.336
  170POPC   C4A 2529   9.534   5.642   5.755
  170POPC   C1B 2530   9.815   5.943   4.695
  170POPC   C2B 2531   9.856   6.050   5.151
  170POPC   C3B 2532   9.567   6.186   5.496
  170POPC   C4B 2533   9.501   6.120   5.944
  171POPC   NC3 2534   3.703  10.259   3.970
  171POPC   PO4 2535   3.959  10.820   3.999
  171POPC   GL1 2536   3.744  10.642   4.334
  171POPC   GL2 2537   3.378  10.631   4.281
  171POPC   C1A 2538   3.895  10.643   4.753
  171POPC   D2A 2539   3.911  10.814   5.149
  171POPC   C3A 2540   3.851  10.505   5.494
  171POPC   C4A 2541   3.766  10.312   5.914
  171POPC   C1B 2542   3.451  10.380   4.682
  171POPC   C2B 2543   3.455  10.529   5.120
  171POPC   C3B 2544   3.347  10.373   5.540
  171POPC   C4B 2545   3.356  10.021   5.778
  172POPC   NC3 2546  10.497   2.107   4.050
  172POPC   PO4 2547   9.860   1.952   4.073
  172POPC   GL1 2548  10.083   2.181   4.380
  172POPC   GL2 2549  10.277   1.892   4.463
  172POPC   C1A 2550  10.317   2.275   4.784
  172POPC   D2A 2551  10.391   2.032   5.158
  172POPC   C3A 2552  10.313   2.328   5.497
  172POPC   C4A 2553  10.444   2.318   5.929
  172POPC   C1B 2554  10.565   1.621   4.703
  172POPC   C2B 2555  10.550   1.465   5.113
  172POPC   C3B 2556  10.528   1.608   5.533
  172POPC   C4B 2557  10.225   1.886   5.734
  173POPC   NC3 2558  10.137  11.187   3.902
  173POPC   PO4 2559  10.696  10.675   3.811
  173POPC   GL1 2560  10.490  10.910   4.212
  173POPC   GL2 2561  10.386  11.267   4.342
  173POPC   C1A 2562  10.346  10.899   4.678
  173POPC   D2A 2563  10.121  10.840   5.079
  173POPC   C3A 2564  10.392  10.776   5.421
  173POPC   C4A 2565  10.559  10.909   5.798
  173POPC   C1B 2566  10.197  11.445   4.724
  173POPC   C2B 2567  10.033  11.367   5.142
  173POPC   C3B 2568  10.150   0.129   5.497
  173POPC   C4B 2569  10.480  11.450   5.729
  174POPC   NC3 2570   6.398  11.347   3.934
  174POPC   PO4 2571   7.081  11.429   3.995
  174POPC   GL1 2572   6.775  11.307   4.278
  174POPC   GL2 2573   6.736  10.952   4.315
  174POPC   C1A 2574   6.513  11.332   4.638
  174POPC   D2A 2575   6.622  11.287   5.080
  174POPC   C3A 2576   6.365  11.476   5.385
  174POPC   C4A 2577   6.223  11.380   5.787
  174POPC   C1B 2578   6.610  10.848   4.762
  174POPC   C2B 2579   6.301  10.865   5.125
  174POPC   C3B 2580   6.479  10.951   5.529
  174POPC   C4B 2581   6.886  10.895   5.722
  175POPC   NC3 2582   2.993   9.825   4.004
  175POPC   PO4 2583   3.601   9.875   3.737
  175POPC   GL1 2584   3.681   9.786   4.193
  175POPC   GL2 2585   3.397   9.570   4.234
  175POPC   C1A 2586   3.764   9.964   4.640
  175POPC   D2A 2587   3.551   9.984   5.078
  175POPC   C3A 2588   3.792   9.959   5.489
  175POPC   C4A 2589   3.792   9.800   5.930
  175POPC   C1B 2590   3.437   9.568   4.688
  175POPC   C2B 2591   3.311   9.500   5.120
  175POPC   C3B 2592   3.456   9.570   5.534
  175POPC   C4B 2593   3.368   9.534   5.984
  176POPC   NC3 2594  10.534   7.920   3.837
  176POPC   PO4 2595  10.700   8.565   3.955
  176POPC   GL1 2596  10.470   8.419   4.323
  176POPC   GL2 2597  10.465   8.049   4.351
  176POPC   C1A 2598  10.435   8.301   4.777
  176POPC   D2A 2599  10.670   8.094   5.102
  176POPC   C3A 2600  10.488   8.366   5.375
  176POPC   C4A 2601  10.207   8.485   5.661
  176POPC   C1B 2602  10.366   7.794   4.755
  176POPC   C2B 2603  10.196   7.907   5.152
  176POPC   C3B 2604  10.249   7.960   5.584
  176POPC   C4B 2605  10.185   7.700   5.974
  177POPC   NC3 2606   9.566   2.245   4.271
  177POPC   PO4 2607   9.590   2.908   3.959
  177POPC   GL1 2608   9.538   2.754   4.306
  177POPC   GL2 2609   9.887   2.654   4.304
  177POPC   C1A 2610   9.437   2.795   4.721
  177POPC   D2A 2611   9.348   3.026   5.065
  177POPC   C3A 2612   9.500   2.919   5.420
  177POPC   C4A 2613   9.298   2.930   5.781
  177POPC   C1B 2614   9.885   2.545   4.731
  177POPC   C2B 2615   9.876   2.806   5.061
  177POPC   C3B 2616   9.963   2.701   5.457
  177POPC   C4B 2617   9.739   2.667   5.829
  178POPC   NC3 2618  10.810   0.412   3.751
  178POPC   PO4 2619  11.285   0.186   4.162
  178POPC   GL1 2620  11.292   0.569   4.399
  178POPC   GL2 2621   0.141   0.611   4.322
  178POPC   C1A 2622  11.041   0.554   4.816
  178POPC   D2A 2623  10.947   0.181   5.101
  178POPC   C3A 2624  11.069   0.261   5.546
  178POPC   C4A 2625  11.056   0.673   5.744
  178POPC   C1B 2626   0.132   0.370   4.720
  178POPC   C2B 2627  11.445   0.446   5.097
  178POPC   C3B 2628   0.044   0.476   5.484
  178POPC   C4B 2629  11.491   0.322   5.855
  179POPC   NC3 2630   6.646   9.551   3.847
  179POPC   PO4 2631   6.170   9.938   3.806
  179POPC   GL1 2632   6.377   9.875   4.205
  179POPC   GL2 2633   6.637   9.649   4.352
  179POPC   C1A 2634   6.361   9.997   4.653
  179POPC   D2A 2635   6.430   9.811   5.055
  179POPC   C3A 2636   6.264   9.853   5.476
  179POPC   C4A 2637   6.377   9.522   5.785
  179POPC   C1B 2638   6.858   9.838   4.725
  179POPC   C2B 2639   6.892  10.016   5.146
  179POPC   C3B 2640   6.766   9.792   5.525
  179POPC   C4B 2641   6.663   9.908   5.938
  180POPC   NC3 2642   9.320   8.976   3.797
  180POPC   PO4 2643  10.018   9.049   3.749
  180POPC   GL1 2644   9.692   9.205   4.113
  180POPC   GL2 2645   9.504   8.910   4.275
  180POPC   C1A 2646   9.587   9.300   4.588
  180POPC   D2A 2647   9.778   9.170   4.998
  180POPC   C3A 2648   9.602   9.215   5.411
  180POPC   C4A 2649   9.680   9.110   5.823
  180POPC   C1B 2650   9.468   8.823   4.726
  180POPC   C2B 2651   9.308   8.858   5.143
  180POPC   C3B 2652   9.361   8.783   5.588
  180POPC   C4B 2653   9.740   8.599   5.731
  181POPC   NC3 2654  11.204   8.386   4.057
  181POPC   PO4 2655  10.959   7.835   3.712
  181POPC   GL1 2656  10.957   7.929   4.167
  181POPC   GL2 2657  11.287   7.874   4.200
  181POPC   C1A 2658  10.923   8.089   4.635
  181POPC   D2A 2659  11.179   8.192   5.044
  181POPC   C3A 2660  10.981   8.337   5.460
  181POPC   C4A 2661  10.715   8.340   5.845
  181POPC   C1B 2662  11.339   7.760   4.637
  181POPC   C2B 2663  11.105   7.647   5.013
  181POPC   C3B 2664  11.033   7.829   5.428
  181POPC   C4B 2665  11.405   7.929   5.700
  182POPC   NC3 2666   5.740  10.961   3.941
  182POPC   PO4 2667   6.348  10.996   3.633
  182POPC   GL1 2668   6.217  10.927   4.141
  182POPC   GL2 2669   6.017  11.276   4.255
  182POPC   C1A 2670   6.146  10.962   4.615
  182POPC   D2A 2671   6.093  11.317   4.947
  182POPC   C3A 2672   5.941  11.194   5.369
  182POPC   C4A 2673   6.007  10.920   5.716
  182POPC   C1B 2674   5.708  11.217   4.603
  182POPC   C2B 2675   5.553  11.281   5.033
  182POPC   C3B 2676   5.472  11.415   5.464
  182POPC   C4B 2677   5.690  11.329   5.847
  183POPC   NC3 2678   1.114   8.156   3.801
  183POPC   PO4 2679   1.732   8.371   4.003
  183POPC   GL1 2680   1.402   8.280   4.275
  183POPC   GL2 2681   1.098   8.124   4.310
  183POPC   C1A 2682   1.451   8.085   4.687
  183POPC   D2A 2683   1.282   8.177   5.096
  183POPC   C3A 2684   1.353   7.933   5.455
  183POPC   C4A 2685   1.488   8.147   5.825
  183POPC   C1B 2686   0.950   8.019   4.728
  183POPC   C2B 2687   0.771   8.175   5.131
  183POPC   C3B 2688   0.910   8.158   5.535
  183POPC   C4B 2689   1.008   7.906   5.886
  184POPC   NC3 2690  10.996  10.972   4.037
  184POPC   PO4 2691  10.622   0.041   3.988
  184POPC   GL1 2692  10.895  11.358   4.346
  184POPC   GL2 2693  11.256  11.230   4.383
  184POPC   C1A 2694  10.800  11.193   4.738
  184POPC   D2A 2695  10.560  11.269   5.127
  184POPC   C3A 2696  10.879  11.291   5.455
  184POPC   C4A 2697  10.910  11.247   5.917
  184POPC   C1B 2698  11.296  11.430   4.804
  184POPC   C2B 2699  11.395  11.464   5.249
  184POPC   C3B 2700  11.371  11.354   5.674
  184POPC   C4B 2701  11.377  11.050   5.972
  185POPC   NC3 2702   2.027  11.067   3.839
  185POPC   PO4 2703   2.574  10.548   3.836
  185POPC   GL1 2704   2.306  10.660   4.239
  185POPC   GL2 2705   2.095  10.963   4.324
  185POPC   C1A 2706   2.360  10.781   4.706
  185POPC   D2A 2707   2.253  11.093   5.016
  185POPC   C3A 2708   2.086  10.985   5.386
  185POPC   C4A 2709   2.214  11.081   5.748
  185POPC   C1B 2710   1.859  11.090   4.690
  185POPC   C2B 2711   1.703  11.171   5.067
  185POPC   C3B 2712   1.592  11.062   5.446
  185POPC   C4B 2713   1.751  11.301   5.774
  186POPC   NC3 2714   3.636   2.881   3.820
  186POPC   PO4 2715   2.977   3.130   3.993
  186POPC   GL1 2716   3.340   2.944   4.257
  186POPC   GL2 2717   3.346   2.567   4.224
  186POPC   C1A 2718   3.389   2.777   4.720
  186POPC   D2A 2719   3.245   2.812   5.183
  186POPC   C3A 2720   3.574   2.824   5.543
  186POPC   C4A 2721   3.788   2.974   5.962
  186POPC   C1B 2722   3.102   2.370   4.611
  186POPC   C2B 2723   3.226   2.290   5.065
  186POPC   C3B 2724   3.221   2.420   5.548
  186POPC   C4B 2725   3.137   2.386   6.041
  187POPC   NC3 2726   9.696   1.526   4.191
  187POPC   PO4 2727   9.280   2.143   3.939
  187POPC   GL1 2728   9.139   1.978   4.373
  187POPC   GL2 2729   9.469   1.828   4.534
  187POPC   C1A 2730   9.060   1.818   4.827
  187POPC   D2A 2731   9.456   1.834   5.099
  187POPC   C3A 2732   9.553   1.736   5.540
  187POPC   C4A 2733   9.496   1.880   5.962
  187POPC   C1B 2734   9.860   1.970   4.799
  187POPC   C2B 2735   9.913   2.237   5.174
  187POPC   C3B 2736   9.810   2.194   5.627
  187POPC   C4B 2737   9.913   2.215   6.069
  188POPC   NC3 2738   2.708   7.343   3.886
  188POPC   PO4 2739   3.003   6.885   3.971
  188POPC   GL1 2740   2.901   7.198   4.356
  188POPC   GL2 2741   2.604   7.434   4.388
  188POPC   C1A 2742   2.886   7.351   4.823
  188POPC   D2A 2743   2.836   7.127   5.233
  188POPC   C3A 2744   2.915   7.316   5.656
  188POPC   C4A 2745   2.992   7.242   6.094
  188POPC   C1B 2746   2.497   7.070   4.669
  188POPC   C2B 2747   2.298   7.107   5.089
  188POPC   C3B 2748   2.428   7.245   5.514
  188POPC   C4B 2749   2.460   7.377   5.975
  189POPC   NC3 2750   8.519  11.318   4.119
  189POPC   PO4 2751   8.407  10.699   3.763
  189POPC   GL1 2752   8.385  10.774   4.210
  189POPC   GL2 2753   8.127  10.966   4.214
  189POPC   C1A 2754   8.375  10.940   4.656
  189POPC   D2A 2755   8.180  11.257   4.934
  189POPC   C3A 2756   8.099  11.138   5.352
  189POPC   C4A 2757   8.307  11.053   5.734
  189POPC   C1B 2758   7.875  11.118   4.537
  189POPC   C2B 2759   7.665  11.324   4.863
  189POPC   C3B 2760   7.582  11.297   5.300
  189POPC   C4B 2761   7.754  11.266   5.710
  190POPC   NC3 2762   5.809   0.157   3.646
  190POPC   PO4 2763   5.335   0.485   3.983
  190POPC   GL1 2764   5.028   0.463   4.345
  190POPC   GL2 2765   4.917   0.117   4.486
  190POPC   C1A 2766   5.120   0.494   4.787
  190POPC   D2A 2767   5.298   0.225   5.057
  190POPC   C3A 2768   5.325   0.425   5.422
  190POPC   C4A 2769   5.094   0.420   5.773
  190POPC   C1B 2770   4.647   0.316   4.729
  190POPC   C2B 2771   4.662   0.581   5.044
  190POPC   C3B 2772   4.723   0.495   5.418
  190POPC   C4B 2773   4.700   0.730   5.763
  191POPC   NC3 2774   4.805   1.749   3.890
  191POPC   PO4 2775   4.831   2.429   3.934
  191POPC   GL1 2776   4.912   2.202   4.316
  191POPC   GL2 2777   5.059   1.867   4.322
  191POPC   C1A 2778   4.750   2.169   4.751
  191POPC   D2A 2779   4.527   2.153   5.153
  191POPC   C3A 2780   4.829   2.253   5.484
  191POPC   C4A 2781   4.842   2.156   5.914
  191POPC   C1B 2782   4.878   1.677   4.717
  191POPC   C2B 2783   4.920   1.829   5.157
  191POPC   C3B 2784   5.094   1.814   5.612
  191POPC   C4B 2785   5.270   1.920   6.048
  192POPC   NC3 2786   4.174   0.219   3.827
  192POPC   PO4 2787   4.696  11.483   4.039
  192POPC   GL1 2788   4.373   0.211   4.325
  192POPC   GL2 2789   4.182   0.525   4.295
  192POPC   C1A 2790   4.151   0.162   4.744
  192POPC   D2A 2791   4.409   0.063   5.115
  192POPC   C3A 2792   4.332   0.165   5.520
  192POPC   C4A 2793   4.637   0.198   5.827
  192POPC   C1B 2794   4.271   0.664   4.732
  192POPC   C2B 2795   4.161   0.529   5.157
  192POPC   C3B 2796   4.234   0.676   5.566
  192POPC   C4B 2797   4.261   0.863   5.985
  193POPC   NC3 2798   1.387   2.159   3.957
  193POPC   PO4 2799   1.686   1.652   3.932
  193POPC   GL1 2800   1.503   1.610   4.331
  193POPC   GL2 2801   1.251   1.883   4.361
  193POPC   C1A 2802   1.337   1.597   4.761
  193POPC   D2A 2803   1.062   1.633   5.122
  193POPC   C3A 2804   1.252   1.896   5.406
  193POPC   C4A 2805   1.454   1.784   5.764
  193POPC   C1B 2806   0.901   1.882   4.678
  193POPC   C2B 2807   0.778   2.089   5.074
  193POPC   C3B 2808   0.961   2.353   5.359
  193POPC   C4B 2809   1.172   2.253   5.763
  194POPC   NC3 2810   5.809   0.497   4.099
  194POPC   PO4 2811   5.597  11.417   3.976
  194POPC   GL1 2812   5.503   0.167   4.397
  194POPC   GL2 2813   5.516   0.553   4.492
  194POPC   C1A 2814   5.746   0.213   4.793
  194POPC   D2A 2815   6.001   0.300   5.146
  194POPC   C3A 2816   5.896   0.212   5.558
  194POPC   C4A 2817   5.603   0.353   5.839
  194POPC   C1B 2818   5.925   0.713   4.691
  194POPC   C2B 2819   6.201   0.770   5.019
  194POPC   C3B 2820   6.084   0.917   5.424
  194POPC   C4B 2821   5.947   0.723   5.802
  195POPC   NC3 2822   4.012   9.684   3.796
  195POPC   PO4 2823   4.677   9.477   4.107
  195POPC   GL1 2824   4.244   9.515   4.201
  195POPC   GL2 2825   4.203   9.847   4.305
  195POPC   C1A 2826   3.945   9.483   4.556
  195POPC   D2A 2827   3.976   9.625   4.997
  195POPC   C3A 2828   4.210   9.363   5.317
  195POPC   C4A 2829   3.961   9.429   5.642
  195POPC   C1B 2830   4.429   9.726   4.716
  195POPC   C2B 2831   4.453   9.772   5.190
  195POPC   C3B 2832   4.492   9.762   5.653
  195POPC   C4B 2833   4.697  10.163   5.786
  196POPC   NC3 2834   2.979   1.802   3.996
  196POPC   PO4 2835   2.458   1.496   3.697
  196POPC   GL1 2836   2.398   1.724   4.205
  196POPC   GL2 2837   2.450   2.068   4.181
  196POPC   C1A 2838   2.275   1.764   4.645
  196POPC   D2A 2839   2.573   1.615   4.957
  196POPC   C3A 2840   2.541   1.762   5.393
  196POPC   C4A 2841   2.745   1.674   5.796
  196POPC   C1B 2842   2.716   2.002   4.560
  196POPC   C2B 2843   2.609   2.121   4.968
  196POPC   C3B 2844   2.823   2.169   5.345
  196POPC   C4B 2845   2.741   2.196   5.769
  197POPC   NC3 2846   7.591  11.395   3.889
  197POPC   PO4 2847   7.290   0.460   3.651
  197POPC   GL1 2848   7.357   0.475   4.141
  197POPC   GL2 2849   7.599   0.240   4.242
  197POPC   C1A 2850   7.168   0.614   4.568
  197POPC   D2A 2851   7.345   0.815   4.945
  197POPC   C3A 2852   7.248   0.739   5.383
  197POPC   C4A 2853   7.048   0.490   5.695
  197POPC   C1B 2854   7.365   0.143   4.600
  197POPC   C2B 2855   7.481   0.279   5.016
  197POPC   C3B 2856   7.412   0.247   5.436
  197POPC   C4B 2857   7.457   0.223   5.860
  198POPC   NC3 2858   1.173   7.634   3.710
  198POPC   PO4 2859   1.526   7.038   3.892
  198POPC   GL1 2860   1.344   7.338   4.206
  198POPC   GL2 2861   1.129   7.160   4.428
  198POPC   C1A 2862   1.428   7.569   4.599
  198POPC   D2A 2863   1.251   7.645   5.018
  198POPC   C3A 2864   1.479   7.396   5.343
  198POPC   C4A 2865   1.489   7.053   5.690
  198POPC   C1B 2866   0.890   7.511   4.636
  198POPC   C2B 2867   0.712   7.663   5.036
  198POPC   C3B 2868   0.907   7.665   5.436
  198POPC   C4B 2869   1.211   7.476   5.750
  199POPC   NC3 2870   0.832   3.692   3.958
  199POPC   PO4 2871   0.529   3.059   3.900
  199POPC   GL1 2872   0.548   3.327   4.262
  199POPC   GL2 2873   0.628   3.668   4.429
  199POPC   C1A 2874   0.442   3.266   4.682
  199POPC   D2A 2875   0.648   3.543   4.959
  199POPC   C3A 2876   0.649   3.381   5.362
  199POPC   C4A 2877   0.402   3.180   5.659
  199POPC   C1B 2878   0.229   3.730   4.656
  199POPC   C2B 2879   0.129   3.523   5.052
  199POPC   C3B 2880   0.234   3.628   5.480
  199POPC   C4B 2881   0.094   3.761   5.842
  200POPC   NC3 2882  10.463   5.784   3.979
  200POPC   PO4 2883   9.999   5.278   3.877
  200POPC   GL1 2884  10.158   5.508   4.277
  200POPC   GL2 2885  10.545   5.542   4.411
  200POPC   C1A 2886  10.177   5.391   4.709
  200POPC   D2A 2887  10.136   5.631   5.067
  200POPC   C3A 2888  10.143   5.518   5.498
  200POPC   C4A 2889   9.964   5.913   5.657
  200POPC   C1B 2890  10.454   5.862   4.713
  200POPC   C2B 2891  10.411   6.041   5.144
  200POPC   C3B 2892  10.469   5.916   5.563
  200POPC   C4B 2893  10.700   6.156   5.847
  201POPC   NC3 2894   8.944   5.606   3.804
  201POPC   PO4 2895   8.464   5.840   4.107
  201POPC   GL1 2896   8.795   5.568   4.324
  201POPC   GL2 2897   9.154   5.575   4.345
  201POPC   C1A 2898   8.920   5.616   4.796
  201POPC   D2A 2899   8.805   5.930   5.136
  201POPC   C3A 2900   8.658   5.769   5.564
  201POPC   C4A 2901   8.527   5.785   6.008
  201POPC   C1B 2902   9.298   5.909   4.612
  201POPC   C2B 2903   9.354   5.965   5.055
  201POPC   C3B 2904   9.175   5.858   5.471
  201POPC   C4B 2905   9.022   5.963   5.879
  202POPC   NC3 2906   5.980   1.589   3.960
  202POPC   PO4 2907   5.826   0.945   3.997
  202POPC   GL1 2908   5.599   1.060   4.369
  202POPC   GL2 2909   5.624   1.416   4.309
  202POPC   C1A 2910   5.499   0.965   4.813
  202POPC   D2A 2911   5.672   0.717   5.162
  202POPC   C3A 2912   5.568   0.948   5.539
  202POPC   C4A 2913   5.376   1.370   5.580
  202POPC   C1B 2914   6.019   1.281   4.546
  202POPC   C2B 2915   5.967   1.214   4.977
  202POPC   C3B 2916   5.846   1.389   5.361
  202POPC   C4B 2917   5.921   1.250   5.788
  203POPC   NC3 2918   6.968   1.438   3.916
  203POPC   PO4 2919   6.924   2.148   3.890
  203POPC   GL1 2920   7.278   1.963   4.177
  203POPC   GL2 2921   7.552   2.182   4.319
  203POPC   C1A 2922   7.466   1.759   4.566
  203POPC   D2A 2923   7.444   1.701   5.024
  203POPC   C3A 2924   7.339   1.691   5.459
  203POPC   C4A 2925   6.998   1.802   5.693
  203POPC   C1B 2926   7.591   2.234   4.785
  203POPC   C2B 2927   7.524   2.159   5.237
  203POPC   C3B 2928   7.305   2.214   5.625
  203POPC   C4B 2929   7.446   2.356   6.011
  204POPC   NC3 2930   7.982   1.469   3.796
  204POPC   PO4 2931   7.893   0.804   3.902
  204POPC   GL1 2932   8.247   0.935   4.180
  204POPC   GL2 2933   8.068   1.215   4.233
  204POPC   C1A 2934   8.443   1.116   4.579
  204POPC   D2A 2935   8.479   0.959   5.011
  204POPC   C3A 2936   8.485   1.206   5.372
  204POPC   C4A 2937   8.410   1.161   5.798
  204POPC   C1B 2938   7.948   1.224   4.658
  204POPC   C2B 2939   8.106   1.379   5.055
  204POPC   C3B 2940   8.007   1.330   5.501
  204POPC   C4B 2941   8.119   1.577   5.846
  205POPC   NC3 2942   8.688   9.206   3.913
  205POPC   PO4 2943   8.979   8.628   3.851
  205POPC   GL1 2944   8.991   8.900   4.232
  205POPC   GL2 2945   8.688   8.983   4.407
  205POPC   C1A 2946   9.086   9.155   4.642
  205POPC   D2A 2947   8.839   9.038   5.005
  205POPC   C3A 2948   8.958   9.079   5.452
  205POPC   C4A 2949   8.660   8.965   5.739
  205POPC   C1B 2950   8.954   8.660   4.685
  205POPC   C2B 2951   8.912   8.525   5.137
  205POPC   C3B 2952   8.921   8.525   5.607
  205POPC   C4B 2953   8.911   8.669   6.046
  206POPC   NC3 2954   4.919  11.160   3.790
  206POPC   PO4 2955   4.263  11.273   3.734
  206POPC   GL1 2956   4.291  11.226   4.210
  206POPC   GL2 2957   4.061  11.053   4.425
  206POPC   C1A 2958   4.477  11.282   4.624
  206POPC   D2A 2959   4.315  11.089   4.968
  206POPC   C3A 2960   4.621  11.089   5.284
  206POPC   C4A 2961   4.638  11.196   5.698
  206POPC   C1B 2962   3.836  11.219   4.755
  206POPC   C2B 2963   3.904  11.395   5.153
  206POPC   C3B 2964   4.135  11.196   5.467
  206POPC   C4B 2965   4.015  10.928   5.798
  207POPC   NC3 2966   0.518  10.792   3.897
  207POPC   PO4 2967   0.735  11.481   4.036
  207POPC   GL1 2968   0.592  11.141   4.264
  207POPC   GL2 2969   0.245  11.117   4.186
  207POPC   C1A 2970   0.687  11.029   4.708
  207POPC   D2A 2971   0.907  11.298   4.997
  207POPC   C3A 2972   0.726  11.191   5.402
  207POPC   C4A 2973   0.798  11.356   5.794
  207POPC   C1B 2974   0.217  11.196   4.624
  207POPC   C2B 2975   0.275  10.980   5.008
  207POPC   C3B 2976   0.216  11.089   5.388
  207POPC   C4B 2977   0.334  11.072   5.754
  208POPC   NC3 2978   8.761  10.458   3.958
  208POPC   PO4 2979   9.385  10.490   3.768
  208POPC   GL1 2980   9.159  10.616   4.281
  208POPC   GL2 2981   8.916  10.396   4.430
  208POPC   C1A 2982   8.852  10.755   4.741
  208POPC   D2A 2983   8.528  10.719   5.096
  208POPC   C3A 2984   8.702  10.767   5.532
  208POPC   C4A 2985   9.094  10.539   5.629
  208POPC   C1B 2986   9.212  10.409   4.762
  208POPC   C2B 2987   9.008  10.432   5.134
  208POPC   C3B 2988   8.664  10.296   5.351
  208POPC   C4B 2989   8.628  10.251   5.773
  209POPC   NC3 2990   5.142   0.054   4.049
  209POPC   PO4 2991   5.337  10.996   3.713
  209POPC   GL1 2992   5.235  11.063   4.195
  209POPC   GL2 2993   4.852  11.075   4.319
  209POPC   C1A 2994   5.201  11.241   4.655
  209POPC   D2A 2995   4.885  11.409   4.971
  209POPC   C3A 2996   4.958   0.013   5.433
  209POPC   C4A 2997   5.132  11.420   5.877
  209POPC   C1B 2998   4.816  10.912   4.785
  209POPC   C2B 2999   5.039  10.805   5.185
  209POPC   C3B 3000   5.181  10.981   5.607
  209POPC   C4B 3001   4.946  10.971   6.037
  210POPC   NC3 3002   0.572  10.156   3.675
  210POPC   PO4 3003  11.469  10.040   3.928
  210POPC   GL1 3004   0.355  10.173   4.210
  210POPC   GL2 3005   0.418  10.484   4.266
  210POPC   C1A 3006   0.297  10.126   4.678
  210POPC   D2A 3007   0.089  10.079   5.104
  210POPC   C3A 3008   0.365  10.196   5.460
  210POPC   C4A 3009   0.337  10.368   5.888
  210POPC   C1B 3010   0.325  10.642   4.632
  210POPC   C2B 3011   0.476  10.499   5.042
  210POPC   C3B 3012   0.549  10.688   5.441
  210POPC   C4B 3013   0.690  10.733   5.854
  211POPC   NC3 3014   2.130   1.792   3.813
  211POPC   PO4 3015   2.248   2.453   3.896
  211POPC   GL1 3016   1.969   2.294   4.211
  211POPC   GL2 3017   1.925   1.948   4.272
  211POPC   C1A 3018   2.128   2.269   4.636
  211POPC   D2A 3019   1.983   2.232   5.050
  211POPC   C3A 3020   2.287   2.231   5.361
  211POPC   C4A 3021   2.197   2.247   5.769
  211POPC   C1B 3022   1.707   1.964   4.663
  211POPC   C2B 3023   1.654   1.823   5.085
  211POPC   C3B 3024   1.848   1.917   5.463
  211POPC   C4B 3025   1.684   2.221   5.700
  212POPC   NC3 3026  10.908   8.888   3.711
  212POPC   PO4 3027  11.446   8.692   3.811
  212POPC   GL1 3028  11.403   8.806   4.250
  212POPC   GL2 3029  11.138   8.990   4.211
  212POPC   C1A 3030  11.269   8.656   4.683
  212POPC   D2A 3031  11.299   8.713   5.122
  212POPC   C3A 3032  11.469   8.433   5.439
  212POPC   C4A 3033  11.215   8.777   5.656
  212POPC   C1B 3034  11.222   9.150   4.647
  212POPC   C2B 3035  11.011   9.134   4.994
  212POPC   C3B 3036  11.090   9.188   5.398
  212POPC   C4B 3037  10.910   9.184   5.795
  213POPC   NC3 3038   7.122  10.963   3.882
  213POPC   PO4 3039   7.855  11.008   3.801
  213POPC   GL1 3040   7.585  10.873   4.131
  213POPC   GL2 3041   7.406  11.159   4.288
  213POPC   C1A 3042   7.507  10.771   4.579
  213POPC   D2A 3043   7.493  10.880   5.021
  213POPC   C3A 3044   7.646  10.797   5.420
  213POPC   C4A 3045   7.435  10.867   5.807
  213POPC   C1B 3046   7.134  11.153   4.622
  213POPC   C2B 3047   7.133  11.364   4.983
  213POPC   C3B 3048   7.088  11.147   5.334
  213POPC   C4B 3049   7.224  11.315   5.698
  214POPC   NC3 3050   4.052   1.422   4.099
  214POPC   PO4 3051   3.387   1.555   3.854
  214POPC   GL1 3052   3.300   1.436   4.269
  214POPC   GL2 3053   3.542   1.169   4.220
  214POPC   C1A 3054   3.551   1.428   4.681
  214POPC   D2A 3055   3.938   1.524   4.944
  214POPC   C3A 3056   3.744   1.511   5.331
  214POPC   C4A 3057   3.523   1.531   5.693
  214POPC   C1B 3058   3.282   0.972   4.538
  214POPC   C2B 3059   3.340   0.867   4.959
  214POPC   C3B 3060   3.323   0.847   5.387
  214POPC   C4B 3061   3.497   1.021   5.715
  215POPC   NC3 3062   9.722   6.639   4.023
  215POPC   PO4 3063  10.066   6.063   3.868
  215POPC   GL1 3064   9.881   6.245   4.286
  215POPC   GL2 3065   9.488   6.333   4.361
  215POPC   C1A 3066   9.835   6.487   4.690
  215POPC   D2A 3067   9.627   6.505   5.096
  215POPC   C3A 3068   9.870   6.723   5.458
  215POPC   C4A 3069   9.847   6.468   5.824
  215POPC   C1B 3070   9.389   6.746   4.657
  215POPC   C2B 3071   9.401   6.944   5.103
  215POPC   C3B 3072   9.374   6.719   5.518
  215POPC   C4B 3073   9.388   6.618   5.945
  216POPC   NC3 3074   4.509   9.042   4.053
  216POPC   PO4 3075   3.931   9.185   3.886
  216POPC   GL1 3076   4.024   9.037   4.301
  216POPC   GL2 3077   4.334   9.134   4.511
  216POPC   C1A 3078   3.910   9.007   4.762
  216POPC   D2A 3079   3.770   9.160   5.176
  216POPC   C3A 3080   4.017   8.934   5.516
  216POPC   C4A 3081   4.143   8.514   5.671
  216POPC   C1B 3082   4.510   8.851   4.783
  216POPC   C2B 3083   4.421   8.847   5.217
  216POPC   C3B 3084   4.560   8.804   5.626
  216POPC   C4B 3085   4.746   8.893   6.008
  217POPC   NC3 3086   1.163   4.350   3.869
  217POPC   PO4 3087   1.731   4.761   4.086
  217POPC   GL1 3088   1.356   4.451   4.314
  217POPC   GL2 3089   1.144   4.053   4.269
  217POPC   C1A 3090   1.130   4.332   4.683
  217POPC   D2A 3091   1.289   4.496   5.019
  217POPC   C3A 3092   1.279   4.389   5.424
  217POPC   C4A 3093   1.443   4.607   5.768
  217POPC   C1B 3094   1.051   3.820   4.678
  217POPC   C2B 3095   0.998   3.925   5.130
  217POPC   C3B 3096   1.009   3.994   5.596
  217POPC   C4B 3097   1.365   4.037   5.913
  218POPC   NC3 3098   1.712   3.721   3.818
  218POPC   PO4 3099   2.166   3.872   4.223
  218POPC   GL1 3100   1.927   3.607   4.399
  218POPC   GL2 3101   2.135   3.322   4.336
  218POPC   C1A 3102   1.916   3.730   4.798
  218POPC   D2A 3103   1.863   3.926   5.151
  218POPC   C3A 3104   1.953   3.690   5.477
  218POPC   C4A 3105   2.155   3.704   5.834
  218POPC   C1B 3106   1.947   3.214   4.755
  218POPC   C2B 3107   2.093   3.234   5.188
  218POPC   C3B 3108   1.980   3.203   5.637
  218POPC   C4B 3109   2.183   3.252   6.033
  219POPC   NC3 3110  10.591   1.136   3.829
  219POPC   PO4 3111   9.940   1.248   3.900
  219POPC   GL1 3112  10.216   1.072   4.258
  219POPC   GL2 3113  10.618   1.077   4.325
  219POPC   C1A 3114  10.304   1.142   4.716
  219POPC   D2A 3115  10.076   1.252   5.082
  219POPC   C3A 3116  10.034   1.638   5.290
  219POPC   C4A 3117   9.992   1.411   5.666
  219POPC   C1B 3118  10.812   1.028   4.730
  219POPC   C2B 3119  10.635   0.960   5.120
  219POPC   C3B 3120  10.431   1.094   5.500
  219POPC   C4B 3121  10.647   1.013   5.892
  220POPC   NC3 3122   8.685   3.576   3.885
  220POPC   PO4 3123   9.254   3.311   3.707
  220POPC   GL1 3124   9.167   3.319   4.186
  220POPC   GL2 3125   8.852   3.406   4.329
  220POPC   C1A 3126   9.252   3.513   4.641
  220POPC   D2A 3127   9.231   3.814   5.031
  220POPC   C3A 3128   9.121   3.574   5.402
  220POPC   C4A 3129   8.991   3.408   5.795
  220POPC   C1B 3130   8.559   3.345   4.678
  220POPC   C2B 3131   8.466   3.233   5.130
  220POPC   C3B 3132   8.531   3.381   5.548
  220POPC   C4B 3133   8.383   3.656   5.883
  221POPC   NC3 3134   0.860   0.513   3.861
  221POPC   PO4 3135   1.424   0.196   3.802
  221POPC   GL1 3136   1.162   0.309   4.194
  221POPC   GL2 3137   1.147   0.635   4.332
  221POPC   C1A 3138   1.050   0.220   4.619
  221POPC   D2A 3139   0.962   0.384   5.012
  221POPC   C3A 3140   0.827   0.183   5.357
  221POPC   C4A 3141   0.989   0.357   5.727
  221POPC   C1B 3142   1.340   0.648   4.759
  221POPC   C2B 3143   1.588   0.570   5.153
  221POPC   C3B 3144   1.599   0.334   5.564
  221POPC   C4B 3145   1.414   0.543   5.923
  222POPC   NC3 3146   1.532   8.772   4.119
  222POPC   PO4 3147   0.887   8.774   3.895
  222POPC   GL1 3148   1.054   8.664   4.286
  222POPC   GL2 3149   1.115   9.013   4.376
  222POPC   C1A 3150   1.224   8.537   4.694
  222POPC   D2A 3151   1.020   8.639   5.094
  222POPC   C3A 3152   1.225   8.545   5.483
  222POPC   C4A 3153   1.383   8.649   5.891
  222POPC   C1B 3154   1.298   9.025   4.794
  222POPC   C2B 3155   1.321   9.040   5.222
  222POPC   C3B 3156   0.994   9.008   5.492
  222POPC   C4B 3157   1.166   9.120   5.857
  223POPC   NC3 3158   9.968   0.617   3.876
  223POPC   PO4 3159   9.730  11.440   3.838
  223POPC   GL1 3160   9.739   0.255   4.177
  223POPC   GL2 3161   9.417   0.317   4.216
  223POPC   C1A 3162   9.678   0.315   4.643
  223POPC   D2A 3163   9.914   0.328   4.989
  223POPC   C3A 3164   9.721   0.393   5.352
  223POPC   C4A 3165   9.815   0.453   5.760
  223POPC   C1B 3166   9.258   0.579   4.536
  223POPC   C2B 3167   9.288   0.475   4.983
  223POPC   C3B 3168   9.315   0.680   5.397
  223POPC   C4B 3169   9.351   0.646   5.811
  224POPC   NC3 3170   8.082   2.943   4.014
  224POPC   PO4 3171   7.874   2.341   3.647
  224POPC   GL1 3172   8.136   2.449   4.047
  224POPC   GL2 3173   7.951   2.491   4.330
  224POPC   C1A 3174   8.440   2.546   4.442
  224POPC   D2A 3175   8.510   2.817   4.833
  224POPC   C3A 3176   8.525   2.733   5.319
  224POPC   C4A 3177   8.384   2.573   5.759
  224POPC   C1B 3178   7.957   2.732   4.697
  224POPC   C2B 3179   8.023   2.964   5.062
  224POPC   C3B 3180   8.067   2.888   5.500
  224POPC   C4B 3181   7.869   2.761   5.884
  225POPC   NC3 3182   7.423   0.874   3.826
  225POPC   PO4 3183   7.542   1.600   3.876
  225POPC   GL1 3184   7.549   1.325   4.273
  225POPC   GL2 3185   7.334   1.014   4.307
  225POPC   C1A 3186   7.442   1.277   4.740
  225POPC   D2A 3187   7.610   1.225   5.163
  225POPC   C3A 3188   7.520   1.151   5.594
  225POPC   C4A 3189   7.619   1.479   5.827
  225POPC   C1B 3190   6.981   1.112   4.614
  225POPC   C2B 3191   6.946   1.377   5.001
  225POPC   C3B 3192   7.053   1.244   5.419
  225POPC   C4B 3193   7.065   0.975   5.810
  226POPC   NC3 3194  10.294   4.903   3.829
  226POPC   PO4 3195  10.798   5.389   3.974
  226POPC   GL1 3196  10.550   5.069   4.242
  226POPC   GL2 3197  10.133   5.005   4.296
  226POPC   C1A 3198  10.619   5.103   4.699
  226POPC   D2A 3199  10.452   5.236   5.103
  226POPC   C3A 3200  10.647   5.253   5.498
  226POPC   C4A 3201  10.409   5.171   5.871
  226POPC   C1B 3202  10.310   4.709   4.566
  226POPC   C2B 3203  10.322   4.751   5.020
  226POPC   C3B 3204  10.225   4.931   5.441
  226POPC   C4B 3205  10.011   4.777   5.773
  227POPC   NC3 3206   2.150   4.283   4.019
  227POPC   PO4 3207   1.552   4.147   3.760
  227POPC   GL1 3208   1.645   4.021   4.249
  227POPC   GL2 3209   1.828   4.257   4.389
  227POPC   C1A 3210   1.570   4.111   4.774
  227POPC   D2A 3211   1.754   4.402   5.169
  227POPC   C3A 3212   1.723   4.174   5.583
  227POPC   C4A 3213   1.876   4.073   6.015
  227POPC   C1B 3214   2.081   4.240   4.759
  227POPC   C2B 3215   2.264   4.224   5.156
  227POPC   C3B 3216   2.226   4.128   5.565
  227POPC   C4B 3217   2.351   4.275   5.964
  228POPC   NC3 3218  11.052   4.257   3.926
  228POPC   PO4 3219  11.477   4.740   3.947
  228POPC   GL1 3220   0.003   4.531   4.305
  228POPC   GL2 3221  11.137   4.552   4.352
  228POPC   C1A 3222   0.194   4.430   4.709
  228POPC   D2A 3223   0.189   4.397   5.162
  228POPC   C3A 3224  11.297   4.375   5.390
  228POPC   C4A 3225  11.141   4.581   5.779
  228POPC   C1B 3226  11.272   4.142   4.563
  228POPC   C2B 3227  11.420   3.987   4.975
  228POPC   C3B 3228  11.288   3.846   5.384
  228POPC   C4B 3229  11.153   4.048   5.762
  229POPC   NC3 3230   3.476   5.729   4.008
  229POPC   PO4 3231   3.883   5.488   4.275
  229POPC   GL1 3232   3.634   5.784   4.541
  229POPC   GL2 3233   3.379   6.017   4.423
  229POPC   C1A 3234   3.529   5.907   4.993
  229POPC   D2A 3235   3.607   5.745   5.443
  229POPC   C3A 3236   3.754   6.038   5.770
  229POPC   C4A 3237   3.664   6.089   6.194
  229POPC   C1B 3238   3.147   5.698   4.688
  229POPC   C2B 3239   3.124   5.628   5.151
  229POPC   C3B 3240   3.147   5.592   5.596
  229POPC   C4B 3241   3.269   5.898   5.858
  230POPC   NC3 3242   9.105   2.907   3.852
  230POPC   PO4 3243   8.504   3.142   3.986
  230POPC   GL1 3244   8.792   2.889   4.260
  230POPC   GL2 3245   8.889   2.514   4.143
  230POPC   C1A 3246   8.989   3.034   4.645
  230POPC   D2A 3247   8.952   3.308   4.997
  230POPC   C3A 3248   8.938   3.088   5.384
  230POPC   C4A 3249   8.730   2.960   5.756
  230POPC   C1B 3250   8.963   2.519   4.602
  230POPC   C2B 3251   8.970   2.681   5.039
  230POPC   C3B 3252   9.046   2.598   5.485
  230POPC   C4B 3253   8.936   2.528   5.929
  231POPC   NC3 3254   9.988   3.135   4.100
  231POPC   PO4 3255  10.227   2.464   3.961
  231POPC   GL1 3256  10.413   2.580   4.328
  231POPC   GL2 3257  10.772   2.586   4.274
  231POPC   C1A 3258  10.305   2.822   4.691
  231POPC   D2A 3259  10.386   2.726   5.127
  231POPC   C3A 3260  10.413   2.990   5.497
  231POPC   C4A 3261  10.253   2.790   5.860
  231POPC   C1B 3262  10.742   2.558   4.740
  231POPC   C2B 3263  10.775   2.406   5.159
  231POPC   C3B 3264  10.729   2.598   5.601
  231POPC   C4B 3265  10.734   2.805   6.017
  232POPC   NC3 3266   1.725   7.517   3.937
  232POPC   PO4 3267   2.401   7.683   3.955
  232POPC   GL1 3268   2.118   7.537   4.263
  232POPC   GL2 3269   2.021   7.186   4.188
  232POPC   C1A 3270   2.081   7.345   4.660
  232POPC   D2A 3271   1.800   7.367   4.955
  232POPC   C3A 3272   2.032   7.537   5.288
  232POPC   C4A 3273   2.232   7.697   5.663
  232POPC   C1B 3274   1.664   7.079   4.524
  232POPC   C2B 3275   1.629   6.868   4.936
  232POPC   C3B 3276   1.832   7.011   5.322
  232POPC   C4B 3277   1.969   7.248   5.705
  233POPC   NC3 3278   0.373   8.808   3.961
  233POPC   PO4 3279   0.103   8.287   4.282
  233POPC   GL1 3280   0.299   8.664   4.520
  233POPC   GL2 3281   0.595   8.877   4.406
  233POPC   C1A 3282   0.224   9.050   4.755
  233POPC   D2A 3283   0.027   9.189   5.129
  233POPC   C3A 3284   0.180   8.892   5.434
  233POPC   C4A 3285   0.218   8.657   5.835
  233POPC   C1B 3286   0.763   9.029   4.804
  233POPC   C2B 3287   0.565   9.167   5.206
  233POPC   C3B 3288   0.533   9.168   5.674
  233POPC   C4B 3289   0.722   8.834   5.911
  234POPC   NC3 3290   3.522   8.982   3.904
  234POPC   PO4 3291   3.299   8.436   4.097
  234POPC   GL1 3292   3.436   8.741   4.402
  234POPC   GL2 3293   3.511   9.098   4.409
  234POPC   C1A 3294   3.516   8.686   4.845
  234POPC   D2A 3295   3.718   8.641   5.244
  234POPC   C3A 3296   3.465   8.580   5.619
  234POPC   C4A 3297   3.462   8.404   6.047
  234POPC   C1B 3298   3.238   9.099   4.789
  234POPC   C2B 3299   3.298   8.977   5.244
  234POPC   C3B 3300   3.538   9.083   5.645
  234POPC   C4B 3301   3.359   9.027   6.060
  235POPC   NC3 3302   2.647   2.732   3.834
  235POPC   PO4 3303   3.149   2.212   3.817
  235POPC   GL1 3304   2.844   2.401   4.173
  235POPC   GL2 3305   2.876   2.767   4.327
  235POPC   C1A 3306   2.588   2.492   4.597
  235POPC   D2A 3307   2.809   2.584   5.010
  235POPC   C3A 3308   2.632   2.621   5.428
  235POPC   C4A 3309   2.846   2.714   5.802
  235POPC   C1B 3310   2.908   3.002   4.756
  235POPC   C2B 3311   2.614   3.077   5.169
  235POPC   C3B 3312   2.503   3.062   5.644
  235POPC   C4B 3313   2.563   2.966   6.124
  236POPC   NC3 3314   1.850   0.366   3.864
  236POPC   PO4 3315   1.711  11.273   4.102
  236POPC   GL1 3316   1.623   0.176   4.329
  236POPC   GL2 3317   1.684   0.561   4.320
  236POPC   C1A 3318   1.723   0.265   4.754
  236POPC   D2A 3319   2.088   0.082   4.939
  236POPC   C3A 3320   2.013  11.495   5.353
  236POPC   C4A 3321   2.163   0.147   5.717
  236POPC   C1B 3322   2.107   0.517   4.529
  236POPC   C2B 3323   2.151   0.604   4.980
  236POPC   C3B 3324   2.054   0.540   5.402
  236POPC   C4B 3325   2.383   0.628   5.693
  237POPC   NC3 3326   1.893   2.745   3.944
  237POPC   PO4 3327   2.351   3.089   3.784
  237POPC   GL1 3328   2.386   2.897   4.233
  237POPC   GL2 3329   2.090   2.758   4.406
  237POPC   C1A 3330   2.407   2.978   4.703
  237POPC   D2A 3331   2.307   2.648   5.009
  237POPC   C3A 3332   2.122   2.748   5.395
  237POPC   C4A 3333   2.176   2.753   5.846
  237POPC   C1B 3334   1.845   2.685   4.784
  237POPC   C2B 3335   1.504   2.464   4.991
  237POPC   C3B 3336   1.411   2.564   5.410
  237POPC   C4B 3337   1.704   2.707   5.692
  238POPC   NC3 3338   0.261   0.114   4.082
  238POPC   PO4 3339   0.437   0.750   3.840
  238POPC   GL1 3340   0.636   0.708   4.274
  238POPC   GL2 3341   0.646   0.375   4.319
  238POPC   C1A 3342   0.599   0.608   4.741
  238POPC   D2A 3343   0.459   0.464   5.126
  238POPC   C3A 3344   0.642   0.643   5.462
  238POPC   C4A 3345   0.394   0.746   5.735
  238POPC   C1B 3346   0.568   0.081   4.687
  238POPC   C2B 3347   0.395  11.467   5.079
  238POPC   C3B 3348   0.348   0.062   5.526
  238POPC   C4B 3349   0.508   0.277   5.867
  239POPC   NC3 3350   1.997   9.568   3.849
  239POPC   PO4 3351   2.597   9.450   4.125
  239POPC   GL1 3352   2.199   9.624   4.328
  239POPC   GL2 3353   1.818   9.607   4.303
  239POPC   C1A 3354   2.031   9.665   4.744
  239POPC   D2A 3355   2.190   9.553   5.106
  239POPC   C3A 3356   2.247   9.914   5.347
  239POPC   C4A 3357   2.057   9.673   5.676
  239POPC   C1B 3358   1.655   9.338   4.614
  239POPC   C2B 3359   1.525   9.456   5.001
  239POPC   C3B 3360   1.677   9.488   5.383
  239POPC   C4B 3361   1.527   9.494   5.759
  240POPC   NC3 3362   0.425   1.932   4.171
  240POPC   PO4 3363  11.499   2.359   3.834
  240POPC   GL1 3364   0.215   2.372   4.330
  240POPC   GL2 3365   0.555   2.260   4.527
  240POPC   C1A 3366   0.185   2.399   4.819
  240POPC   D2A 3367   0.335   2.349   5.243
  240POPC   C3A 3368   0.272   1.961   5.470
  240POPC   C4A 3369   0.085   1.878   5.881
  240POPC   C1B 3370   0.367   1.909   4.837
  240POPC   C2B 3371   0.530   1.628   5.188
  240POPC   C3B 3372   0.761   1.815   5.567
  240POPC   C4B 3373   0.639   2.242   5.725
  241POPC   NC3 3374   9.137   7.446   3.941
  241POPC   PO4 3375   8.657   7.799   4.067
  241POPC   GL1 3376   8.867   7.533   4.371
  241POPC   GL2 3377   9.030   7.188   4.409
  241POPC   C1A 3378   8.949   7.603   4.770
  241POPC   D2A 3379   8.804   7.544   5.184
  241POPC   C3A 3380   9.052   7.397   5.512
  241POPC   C4A 3381   8.882   7.298   5.947
  241POPC   C1B 3382   8.967   7.102   4.889
  241POPC   C2B 3383   8.936   6.921   5.345
  241POPC   C3B 3384   8.924   6.785   5.812
  241POPC   C4B 3385   9.109   6.906   6.255
  242POPC   NC3 3386   2.918  10.877   3.936
  242POPC   PO4 3387   2.390  11.387   3.831
  242POPC   GL1 3388   2.551  11.153   4.186
  242POPC   GL2 3389   2.893  11.225   4.313
  242POPC   C1A 3390   2.497  11.298   4.621
  242POPC   D2A 3391   2.742  11.399   5.004
  242POPC   C3A 3392   2.525  11.308   5.390
  242POPC   C4A 3393   2.724  11.081   5.677
  242POPC   C1B 3394   2.876  10.928   4.624
  242POPC   C2B 3395   2.965  10.930   5.056
  242POPC   C3B 3396   3.156  10.854   5.442
  242POPC   C4B 3397   3.048  10.734   5.819
  243POPC   NC3 3398   6.414   2.138   3.923
  243POPC   PO4 3399   6.422   1.448   3.885
  243POPC   GL1 3400   6.483   1.716   4.224
  243POPC   GL2 3401   6.750   1.973   4.335
  243POPC   C1A 3402   6.385   1.695   4.645
  243POPC   D2A 3403   6.288   1.614   5.070
  243POPC   C3A 3404   6.587   1.761   5.367
  243POPC   C4A 3405   6.509   1.897   5.792
  243POPC   C1B 3406   6.996   1.889   4.738
  243POPC   C2B 3407   7.023   2.005   5.190
  243POPC   C3B 3408   6.788   2.230   5.522
  243POPC   C4B 3409   6.549   2.429   5.863
  244POPC   NC3 3410   9.491   1.390   3.755
  244POPC   PO4 3411   9.513   0.717   3.878
  244POPC   GL1 3412   9.659   0.972   4.236
  244POPC   GL2 3413   9.354   1.102   4.413
  244POPC   C1A 3414   9.785   1.067   4.675
  244POPC   D2A 3415   9.659   0.809   4.990
  244POPC   C3A 3416   9.792   0.919   5.368
  244POPC   C4A 3417   9.763   0.946   5.770
  244POPC   C1B 3418   9.392   1.387   4.784
  244POPC   C2B 3419   9.571   1.337   5.160
  244POPC   C3B 3420   9.428   1.240   5.533
  244POPC   C4B 3421   9.554   1.376   5.934
  245POPC   NC3 3422   8.068   8.692   3.780
  245POPC   PO4 3423   8.197   9.242   3.750
  245POPC   GL1 3424   8.156   8.975   4.202
  245POPC   GL2 3425   7.920   9.146   4.378
  245POPC   C1A 3426   8.269   9.012   4.704
  245POPC   D2A 3427   7.983   9.009   5.030
  245POPC   C3A 3428   8.259   8.987   5.394
  245POPC   C4A 3429   8.187   9.127   5.822
  245POPC   C1B 3430   7.886   8.695   4.603
  245POPC   C2B 3431   7.758   8.537   5.023
  245POPC   C3B 3432   7.911   8.423   5.428
  245POPC   C4B 3433   8.192   8.613   5.738
  246POPC   NC3 3434   7.579   8.095   4.034
  246POPC   PO4 3435   7.119   7.676   3.891
  246POPC   GL1 3436   7.172   7.930   4.329
  246POPC   GL2 3437   7.247   8.311   4.348
  246POPC   C1A 3438   7.200   8.065   4.805
  246POPC   D2A 3439   7.506   8.114   5.177
  246POPC   C3A 3440   7.388   7.963   5.602
  246POPC   C4A 3441   7.285   7.887   6.064
  246POPC   C1B 3442   7.358   8.561   4.699
  246POPC   C2B 3443   7.212   8.529   5.107
  246POPC   C3B 3444   7.394   8.512   5.514
  246POPC   C4B 3445   7.158   8.339   5.861
  247POPC   NC3 3446   4.315   2.335   3.947
  247POPC   PO4 3447   4.165   1.712   3.730
  247POPC   GL1 3448   4.138   1.914   4.155
  247POPC   GL2 3449   4.446   1.965   4.360
  247POPC   C1A 3450   3.959   1.907   4.572
  247POPC   D2A 3451   4.036   2.153   4.952
  247POPC   C3A 3452   4.064   1.918   5.332
  247POPC   C4A 3453   4.095   1.623   5.691
  247POPC   C1B 3454   4.389   1.785   4.809
  247POPC   C2B 3455   4.445   1.588   5.220
  247POPC   C3B 3456   4.571   1.800   5.573
  247POPC   C4B 3457   4.350   2.212   5.640
  248POPC   NC3 3458  10.860   0.354   4.244
  248POPC   PO4 3459  10.437   0.681   3.807
  248POPC   GL1 3460  10.427   0.605   4.245
  248POPC   GL2 3461  10.248   0.305   4.306
  248POPC   C1A 3462  10.519   0.562   4.724
  248POPC   D2A 3463  10.432   0.304   5.076
  248POPC   C3A 3464  10.669   0.516   5.372
  248POPC   C4A 3465  10.595   0.438   5.768
  248POPC   C1B 3466  10.051   0.651   4.583
  248POPC   C2B 3467  10.166   0.759   5.033
  248POPC   C3B 3468  10.191   0.633   5.458
  248POPC   C4B 3469  10.220   0.774   5.883
  249POPC   NC3 3470   9.140   0.456   3.823
  249POPC   PO4 3471   8.735  11.480   3.748
  249POPC   GL1 3472   9.034  11.496   4.129
  249POPC   GL2 3473   8.879   0.273   4.290
  249POPC   C1A 3474   9.187   0.071   4.640
  249POPC   D2A 3475   9.002   0.077   5.140
  249POPC   C3A 3476   9.243   0.181   5.548
  249POPC   C4A 3477   9.164   0.244   6.026
  249POPC   C1B 3478   8.788   0.369   4.753
  249POPC   C2B 3479   8.836   0.585   5.185
  249POPC   C3B 3480   8.853   0.505   5.633
  249POPC   C4B 3481   8.701   0.775   5.943
  250POPC   NC3 3482   7.804   1.986   3.935
  250POPC   PO4 3483   8.415   1.654   3.830
  250POPC   GL1 3484   8.192   1.711   4.238
  250POPC   GL2 3485   8.168   2.031   4.326
  250POPC   C1A 3486   7.980   1.744   4.687
  250POPC   D2A 3487   8.107   1.910   5.115
  250POPC   C3A 3488   7.846   1.815   5.457
  250POPC   C4A 3489   7.754   1.966   5.865
  250POPC   C1B 3490   8.140   2.244   4.730
  250POPC   C2B 3491   8.093   2.456   5.130
  250POPC   C3B 3492   7.969   2.336   5.544
  250POPC   C4B 3493   8.257   2.047   5.727
  251POPC   NC3 3494   2.940   8.318   3.853
  251POPC   PO4 3495   2.308   8.504   3.981
  251POPC   GL1 3496   2.382   8.351   4.431
  251POPC   GL2 3497   2.349   7.963   4.461
  251POPC   C1A 3498   2.521   8.343   4.908
  251POPC   D2A 3499   2.861   8.198   5.248
  251POPC   C3A 3500   3.055   8.199   5.701
  251POPC   C4A 3501   2.868   8.239   6.144
  251POPC   C1B 3502   2.370   7.767   4.879
  251POPC   C2B 3503   2.371   8.001   5.279
  251POPC   C3B 3504   2.560   8.074   5.710
  251POPC   C4B 3505   2.438   7.899   6.118
  252POPC   NC3 3506   6.532   3.627   4.040
  252POPC   PO4 3507   6.913   3.459   4.243
  252POPC   GL1 3508   6.605   3.618   4.549
  252POPC   GL2 3509   6.322   3.401   4.490
  252POPC   C1A 3510   6.408   3.657   4.981
  252POPC   D2A 3511   6.256   3.928   5.333
  252POPC   C3A 3512   6.562   3.910   5.667
  252POPC   C4A 3513   6.847   3.530   5.784
  252POPC   C1B 3514   6.608   3.176   4.795
  252POPC   C2B 3515   6.725   3.294   5.215
  252POPC   C3B 3516   6.428   3.451   5.495
  252POPC   C4B 3517   6.163   3.599   5.817
  253POPC   NC3 3518   8.166   9.666   3.960
  253POPC   PO4 3519   7.662  10.048   4.005
  253POPC   GL1 3520   7.912   9.880   4.347
  253POPC   GL2 3521   8.268   9.824   4.433
  253POPC   C1A 3522   7.994  10.065   4.773
  253POPC   D2A 3523   7.924   9.812   5.129
  253POPC   C3A 3524   7.702   9.838   5.497
  253POPC   C4A 3525   7.700   9.914   5.932
  253POPC   C1B 3526   8.100   9.534   4.738
  253POPC   C2B 3527   8.252   9.422   5.103
  253POPC   C3B 3528   7.995   9.421   5.464
  253POPC   C4B 3529   8.143   9.678   5.797
  254POPC   NC3 3530   9.292   9.970   3.686
  254POPC   PO4 3531   9.135   9.337   4.019
  254POPC   GL1 3532   9.294   9.661   4.285
  254POPC   GL2 3533   9.685   9.729   4.341
  254POPC   C1A 3534   9.217   9.660   4.714
  254POPC   D2A 3535   9.242   9.381   5.079
  254POPC   C3A 3536   9.212   9.538   5.517
  254POPC   C4A 3537   9.430   9.546   5.923
  254POPC   C1B 3538   9.896   9.656   4.792
  254POPC   C2B 3539   9.879   9.629   5.262
  254POPC   C3B 3540  10.003   9.485   5.662
  254POPC   C4B 3541   9.979   9.444   6.125
  255POPC   NC3 3542   5.297   0.950   3.973
  255POPC   PO4 3543   5.146   1.544   3.629
  255POPC   GL1 3544   5.097   1.394   4.116
  255POPC   GL2 3545   4.845   1.124   4.232
  255POPC   C1A 3546   5.177   1.296   4.577
  255POPC   D2A 3547   5.248   1.400   5.027
  255POPC   C3A 3548   4.900   1.357   5.330
  255POPC   C4A 3549   4.892   1.377   5.771
  255POPC   C1B 3550   4.806   0.872   4.604
  255POPC   C2B 3551   5.004   0.953   5.004
  255POPC   C3B 3552   5.068   0.884   5.437
  255POPC   C4B 3553   5.158   0.962   5.863
  256POPC   NC3 3554   0.227   7.989   3.956
  256POPC   PO4 3555   0.864   7.779   3.999
  256POPC   GL1 3556   0.593   7.988   4.322
  256POPC   GL2 3557   0.627   8.353   4.263
  256POPC   C1A 3558   0.440   8.049   4.763
  256POPC   D2A 3559   0.177   7.908   5.107
  256POPC   C3A 3560   0.374   8.070   5.488
  256POPC   C4A 3561   0.483   7.838   5.853
  256POPC   C1B 3562   0.726   8.476   4.687
  256POPC   C2B 3563   0.498   8.640   5.048
  256POPC   C3B 3564   0.613   8.583   5.480
  256POPC   C4B 3565   0.611   8.332   5.882
  257POPC   NC3 3566  10.197   7.328   4.229
  257POPC   PO4 3567   9.602   7.506   3.922
  257POPC   GL1 3568   9.719   7.520   4.354
  257POPC   GL2 3569   9.389   7.550   4.380
  257POPC   C1A 3570   9.922   7.452   4.805
  257POPC   D2A 3571  10.093   7.407   5.230
  257POPC   C3A 3572   9.845   7.652   5.502
  257POPC   C4A 3573   9.661   7.540   5.917
  257POPC   C1B 3574   9.404   7.362   4.757
  257POPC   C2B 3575   9.505   7.447   5.171
  257POPC   C3B 3576   9.603   7.194   5.519
  257POPC   C4B 3577   9.332   7.117   5.838
  258POPC   NC3 3578   8.309  11.143   3.685
  258POPC   PO4 3579   8.829  10.964   4.078
  258POPC   GL1 3580   8.847  11.151   4.451
  258POPC   GL2 3581   9.153  11.104   4.454
  258POPC   C1A 3582   8.678  11.353   4.798
  258POPC   D2A 3583   8.630  11.199   5.219
  258POPC   C3A 3584   8.599  11.475   5.567
  258POPC   C4A 3585   8.798  11.426   5.965
  258POPC   C1B 3586   9.137  11.146   4.900
  258POPC   C2B 3587   9.094  10.931   5.236
  258POPC   C3B 3588   9.048  11.191   5.569
  258POPC   C4B 3589   9.331  11.275   5.914
  259POPC   NC3 3590   1.688   6.602   3.781
  259POPC   PO4 3591   2.181   6.250   3.770
  259POPC   GL1 3592   1.911   6.354   4.161
  259POPC   GL2 3593   1.891   6.697   4.241
  259POPC   C1A 3594   1.813   6.325   4.644
  259POPC   D2A 3595   1.706   6.193   5.090
  259POPC   C3A 3596   1.922   6.305   5.506
  259POPC   C4A 3597   2.290   6.385   5.817
  259POPC   C1B 3598   2.064   6.788   4.665
  259POPC   C2B 3599   2.094   6.611   5.086
  259POPC   C3B 3600   2.227   6.764   5.498
  259POPC   C4B 3601   1.893   6.755   5.794
  260POPC   NC3 3602  11.190   5.629   3.932
  260POPC   PO4 3603  10.756   6.196   3.988
  260POPC   GL1 3604  10.908   5.894   4.276
  260POPC   GL2 3605  11.271   5.921   4.340
  260POPC   C1A 3606  10.953   5.724   4.697
  260POPC   D2A 3607  10.741   5.645   5.096
  260POPC   C3A 3608  10.921   5.729   5.487
  260POPC   C4A 3609  10.784   5.573   5.871
  260POPC   C1B 3610  11.444   5.938   4.763
  260POPC   C2B 3611  11.353   5.950   5.194
  260POPC   C3B 3612  11.421   5.758   5.589
  260POPC   C4B 3613  11.179   5.864   5.965
  261POPC   NC3 3614   5.118   9.277   4.012
  261POPC   PO4 3615   5.195  10.016   3.847
  261POPC   GL1 3616   5.133   9.808   4.225
  261POPC   GL2 3617   5.249   9.518   4.433
  261POPC   C1A 3618   4.973   9.903   4.632
  261POPC   D2A 3619   4.953   9.736   5.028
  261POPC   C3A 3620   4.921   9.927   5.401
  261POPC   C4A 3621   4.992   9.725   5.796
  261POPC   C1B 3622   4.883   9.353   4.701
  261POPC   C2B 3623   4.682   9.296   5.122
  261POPC   C3B 3624   4.695   9.297   5.598
  261POPC   C4B 3625   4.677   9.390   6.056
  262POPC   NC3 3626  10.883   6.650   3.964
  262POPC   PO4 3627  11.351   7.000   3.984
  262POPC   GL1 3628  11.224   6.795   4.330
  262POPC   GL2 3629  11.237   6.439   4.265
  262POPC   C1A 3630  11.315   6.722   4.732
  262POPC   D2A 3631  11.170   6.543   5.074
  262POPC   C3A 3632  11.202   6.759   5.439
  262POPC   C4A 3633  11.325   7.031   5.748
  262POPC   C1B 3634  11.042   6.269   4.630
  262POPC   C2B 3635  10.894   6.126   5.016
  262POPC   C3B 3636  11.004   6.224   5.442
  262POPC   C4B 3637  11.198   6.340   5.800
  263POPC   NC3 3638  11.118   7.411   3.849
  263POPC   PO4 3639  10.541   6.938   3.776
  263POPC   GL1 3640  10.857   7.117   4.168
  263POPC   GL2 3641  11.090   7.400   4.335
  263POPC   C1A 3642  10.947   7.072   4.683
  263POPC   D2A 3643  10.838   6.997   5.134
  263POPC   C3A 3644  10.886   7.182   5.531
  263POPC   C4A 3645  10.867   7.045   5.984
  263POPC   C1B 3646  11.422   7.237   4.629
  263POPC   C2B 3647  11.337   7.147   5.081
  263POPC   C3B 3648  11.343   7.432   5.451
  263POPC   C4B 3649  11.104   7.511   5.863
  264POPC   NC3 3650   5.282  10.537   3.782
  264POPC   PO4 3651   5.909  10.527   3.994
  264POPC   GL1 3652   5.900  10.525   4.398
  264POPC   GL2 3653   6.008  10.187   4.356
  264POPC   C1A 3654   5.746  10.685   4.817
  264POPC   D2A 3655   5.560  10.801   5.239
  264POPC   C3A 3656   5.644  10.573   5.618
  264POPC   C4A 3657   5.745  10.648   6.053
  264POPC   C1B 3658   5.848  10.160   4.766
  264POPC   C2B 3659   5.676  10.280   5.140
  264POPC   C3B 3660   5.803  10.099   5.500
  264POPC   C4B 3661   5.789  10.156   5.895
  265POPC   NC3 3662   0.134   3.446   3.985
  265POPC   PO4 3663  11.114   3.810   3.888
  265POPC   GL1 3664  11.207   3.520   4.224
  265POPC   GL2 3665  10.944   3.358   4.350
  265POPC   C1A 3666  11.413   3.330   4.600
  265POPC   D2A 3667  11.224   3.202   4.999
  265POPC   C3A 3668  11.371   3.278   5.435
  265POPC   C4A 3669  11.445   3.165   5.878
  265POPC   C1B 3670  11.068   3.678   4.689
  265POPC   C2B 3671  10.922   3.628   5.090
  265POPC   C3B 3672  10.881   3.546   5.502
  265POPC   C4B 3673  11.125   3.553   5.855
  266POPC   NC3 3674   1.248  11.340   4.033
  266POPC   PO4 3675   1.325  10.701   3.829
  266POPC   GL1 3676   1.287  10.891   4.302
  266POPC   GL2 3677   1.073  11.182   4.456
  266POPC   C1A 3678   1.271  10.844   4.794
  266POPC   D2A 3679   0.992  10.813   5.181
  266POPC   C3A 3680   1.128  10.927   5.628
  266POPC   C4A 3681   1.507  10.870   5.908
  266POPC   C1B 3682   1.391  11.362   4.711
  266POPC   C2B 3683   1.373   0.080   5.107
  266POPC   C3B 3684   1.241  11.430   5.504
  266POPC   C4B 3685   1.288  11.492   5.929
  267POPC   NC3 3686   1.467   4.981   3.801
  267POPC   PO4 3687   0.915   5.355   3.767
  267POPC   GL1 3688   1.068   5.357   4.209
  267POPC   GL2 3689   1.329   5.097   4.265
  267POPC   C1A 3690   1.278   5.414   4.643
  267POPC   D2A 3691   1.133   5.384   5.067
  267POPC   C3A 3692   1.352   5.430   5.445
  267POPC   C4A 3693   1.489   5.154   5.784
  267POPC   C1B 3694   1.201   4.856   4.630
  267POPC   C2B 3695   0.987   4.892   5.021
  267POPC   C3B 3696   1.170   4.907   5.427
  267POPC   C4B 3697   0.991   4.886   5.850
  268POPC   NC3 3698   1.136   6.760   4.045
  268POPC   PO4 3699   1.466   6.186   3.850
  268POPC   GL1 3700   1.411   6.260   4.303
  268POPC   GL2 3701   1.428   6.606   4.434
  268POPC   C1A 3702   1.178   6.246   4.729
  268POPC   D2A 3703   1.239   6.435   5.152
  268POPC   C3A 3704   1.015   6.331   5.544
  268POPC   C4A 3705   1.415   6.516   5.717
  268POPC   C1B 3706   1.135   6.769   4.753
  268POPC   C2B 3707   1.160   6.986   5.146
  268POPC   C3B 3708   1.039   6.835   5.535
  268POPC   C4B 3709   1.041   6.984   5.926
  269POPC   NC3 3710   0.545   5.272   4.058
  269POPC   PO4 3711   0.764   4.565   3.921
  269POPC   GL1 3712   0.487   4.780   4.238
  269POPC   GL2 3713   0.799   4.923   4.335
  269POPC   C1A 3714   0.400   4.955   4.687
  269POPC   D2A 3715   0.495   4.794   5.138
  269POPC   C3A 3716   0.455   4.982   5.558
  269POPC   C4A 3717   0.445   4.872   6.019
  269POPC   C1B 3718   0.813   5.238   4.671
  269POPC   C2B 3719   0.639   5.274   5.094
  269POPC   C3B 3720   0.849   5.299   5.493
  269POPC   C4B 3721   0.698   5.294   5.898
  270POPC   NC3 3722   6.292   0.997   3.891
  270POPC   PO4 3723   6.951   0.920   3.934
  270POPC   GL1 3724   6.694   0.835   4.270
  270POPC   GL2 3725   6.543   1.173   4.321
  270POPC   C1A 3726   6.648   0.708   4.710
  270POPC   D2A 3727   6.850   0.868   5.076
  270POPC   C3A 3728   6.698   0.827   5.494
  270POPC   C4A 3729   6.426   0.929   5.837
  270POPC   C1B 3730   6.480   1.191   4.769
  270POPC   C2B 3731   6.462   1.168   5.194
  270POPC   C3B 3732   6.346   1.354   5.541
  270POPC   C4B 3733   6.699   1.389   5.742
  271POPC   NC3 3734  10.257   7.343   3.674
  271POPC   PO4 3735  10.569   7.596   4.164
  271POPC   GL1 3736  10.592   7.374   4.523
  271POPC   GL2 3737  10.485   7.003   4.479
  271POPC   C1A 3738  10.485   7.303   4.909
  271POPC   D2A 3739  10.624   7.561   5.200
  271POPC   C3A 3740  10.510   7.530   5.591
  271POPC   C4A 3741  10.683   7.849   5.816
  271POPC   C1B 3742  10.227   6.865   4.795
  271POPC   C2B 3743  10.327   6.916   5.216
  271POPC   C3B 3744  10.398   7.032   5.591
  271POPC   C4B 3745  10.070   7.271   5.737
  272POPC   NC3 3746   9.544   7.979   3.970
  272POPC   PO4 3747  10.098   7.795   3.662
  272POPC   GL1 3748  10.040   7.857   4.129
  272POPC   GL2 3749   9.973   8.227   4.200
  272POPC   C1A 3750   9.887   7.928   4.598
  272POPC   D2A 3751   9.692   7.912   5.023
  272POPC   C3A 3752   9.811   8.165   5.405
  272POPC   C4A 3753   9.812   8.028   5.835
  272POPC   C1B 3754   9.605   8.364   4.509
  272POPC   C2B 3755   9.355   8.363   4.917
  272POPC   C3B 3756   9.331   8.324   5.359
  272POPC   C4B 3757   9.367   8.269   5.802
  273POPC   NC3 3758   1.049   9.349   3.807
  273POPC   PO4 3759   1.626   9.209   3.982
  273POPC   GL1 3760   1.325   9.475   4.224
  273POPC   GL2 3761   1.351   9.847   4.283
  273POPC   C1A 3762   1.155   9.502   4.635
  273POPC   D2A 3763   0.939   9.483   5.022
  273POPC   C3A 3764   1.139   9.512   5.417
  273POPC   C4A 3765   0.881   9.540   5.791
  273POPC   C1B 3766   1.547   9.856   4.670
  273POPC   C2B 3767   1.263   9.890   5.011
  273POPC   C3B 3768   1.315  10.027   5.411
  273POPC   C4B 3769   1.210   9.917   5.821
  274POPC   NC3 3770   0.556   6.098   3.756
  274POPC   PO4 3771   0.672   6.760   3.973
  274POPC   GL1 3772   0.397   6.442   4.150
  274POPC   GL2 3773   0.607   6.194   4.292
  274POPC   C1A 3774   0.171   6.374   4.558
  274POPC   D2A 3775   0.242   6.565   4.983
  274POPC   C3A 3776   0.065   6.398   5.378
  274POPC   C4A 3777   0.114   6.622   5.753
  274POPC   C1B 3778   0.693   6.470   4.646
  274POPC   C2B 3779   0.738   6.410   5.091
  274POPC   C3B 3780   0.561   6.589   5.465
  274POPC   C4B 3781   0.546   6.914   5.774
  275POPC   NC3 3782   4.726  10.016   3.985
  275POPC   PO4 3783   4.888  10.713   3.948
  275POPC   GL1 3784   5.058  10.378   4.223
  275POPC   GL2 3785   5.453  10.305   4.196
  275POPC   C1A 3786   4.842  10.395   4.625
  275POPC   D2A 3787   4.650  10.168   4.953
  275POPC   C3A 3788   4.712  10.388   5.324
  275POPC   C4A 3789   4.781  10.678   5.649
  275POPC   C1B 3790   5.368  10.287   4.633
  275POPC   C2B 3791   5.155  10.259   5.021
  275POPC   C3B 3792   5.212  10.374   5.431
  275POPC   C4B 3793   5.319  10.115   5.742
  276POPC   NC3 3794   4.627   2.857   3.952
  276POPC   PO4 3795   4.041   3.040   3.984
  276POPC   GL1 3796   4.239   2.709   4.295
  276POPC   GL2 3797   4.098   2.381   4.404
  276POPC   C1A 3798   4.410   2.562   4.739
  276POPC   D2A 3799   4.243   2.578   5.173
  276POPC   C3A 3800   4.506   2.684   5.537
  276POPC   C4A 3801   4.846   2.672   5.833
  276POPC   C1B 3802   3.892   2.616   4.726
  276POPC   C2B 3803   3.687   2.502   5.115
  276POPC   C3B 3804   3.889   2.394   5.483
  276POPC   C4B 3805   4.088   2.599   5.826
  277POPC   NC3 3806   8.708   4.636   3.865
  277POPC   PO4 3807   8.770   4.024   3.856
  277POPC   GL1 3808   8.975   3.904   4.254
  277POPC   GL2 3809   9.102   4.198   4.434
  277POPC   C1A 3810   8.846   3.826   4.703
  277POPC   D2A 3811   8.693   3.713   5.139
  277POPC   C3A 3812   8.750   3.857   5.576
  277POPC   C4A 3813   8.531   4.155   5.820
  277POPC   C1B 3814   9.012   4.333   4.866
  277POPC   C2B 3815   8.950   4.219   5.302
  277POPC   C3B 3816   9.055   4.292   5.748
  277POPC   C4B 3817   8.845   4.365   6.158
  278POPC   NC3 3818   1.095   2.970   4.052
  278POPC   PO4 3819   1.269   3.612   3.867
  278POPC   GL1 3820   1.348   3.581   4.278
  278POPC   GL2 3821   1.057   3.398   4.345
  278POPC   C1A 3822   1.464   3.509   4.700
  278POPC   D2A 3823   1.625   3.484   5.119
  278POPC   C3A 3824   1.445   3.783   5.385
  278POPC   C4A 3825   1.545   3.600   5.756
  278POPC   C1B 3826   0.989   3.217   4.747
  278POPC   C2B 3827   1.126   3.417   5.120
  278POPC   C3B 3828   1.088   3.478   5.553
  278POPC   C4B 3829   0.881   3.212   5.818
  279POPC   NC3 3830   3.153   1.146   3.759
  279POPC   PO4 3831   2.767   1.413   4.153
  279POPC   GL1 3832   2.802   1.116   4.435
  279POPC   GL2 3833   2.505   0.893   4.363
  279POPC   C1A 3834   2.914   1.204   4.889
  279POPC   D2A 3835   3.242   1.329   5.201
  279POPC   C3A 3836   3.065   1.274   5.630
  279POPC   C4A 3837   3.000   1.040   6.028
  279POPC   C1B 3838   2.338   1.241   4.602
  279POPC   C2B 3839   2.344   1.166   4.990
  279POPC   C3B 3840   2.614   1.260   5.355
  279POPC   C4B 3841   2.578   1.188   5.792
  280POPC   NC3 3842   3.842  11.258   3.949
  280POPC   PO4 3843   3.116  11.339   3.860
  280POPC   GL1 3844   3.362  11.403   4.224
  280POPC   GL2 3845   3.535  11.118   4.333
  280POPC   C1A 3846   3.231  11.381   4.689
  280POPC   D2A 3847   3.310   0.050   5.120
  280POPC   C3A 3848   3.124  11.364   5.491
  280POPC   C4A 3849   3.347  11.227   5.863
  280POPC   C1B 3850   3.417  10.897   4.713
  280POPC   C2B 3851   3.467  11.072   5.097
  280POPC   C3B 3852   3.628  11.051   5.489
  280POPC   C4B 3853   3.545  10.759   5.822
  281POPC   NC3 3854   5.140   8.285   3.884
  281POPC   PO4 3855   4.831   8.749   3.922
  281POPC   GL1 3856   4.875   8.500   4.314
  281POPC   GL2 3857   5.134   8.231   4.390
  281POPC   C1A 3858   4.887   8.429   4.787
  281POPC   D2A 3859   4.967   8.128   5.122
  281POPC   C3A 3860   4.929   8.302   5.536
  281POPC   C4A 3861   4.623   8.376   5.889
  281POPC   C1B 3862   5.288   7.944   4.740
  281POPC   C2B 3863   5.231   7.685   5.118
  281POPC   C3B 3864   5.198   7.850   5.538
  281POPC   C4B 3865   5.450   8.163   5.772
  282POPC   NC3 3866   6.907   0.440   3.900
  282POPC   PO4 3867   6.194   0.268   3.897
  282POPC   GL1 3868   6.505   0.288   4.238
  282POPC   GL2 3869   6.275   0.555   4.350
  282POPC   C1A 3870   6.825   0.231   4.604
  282POPC   D2A 3871   6.998   0.380   5.015
  282POPC   C3A 3872   6.887   0.125   5.384
  282POPC   C4A 3873   6.730  11.373   5.733
  282POPC   C1B 3874   6.305   0.306   4.728
  282POPC   C2B 3875   6.507   0.387   5.114
  282POPC   C3B 3876   6.330   0.483   5.499
  282POPC   C4B 3877   6.573   0.345   5.761
  283POPC   NC3 3878   7.994  10.560   3.891
  283POPC   PO4 3879   8.510  10.030   3.918
  283POPC   GL1 3880   8.435  10.274   4.288
  283POPC   GL2 3881   8.121  10.331   4.317
  283POPC   C1A 3882   8.449  10.312   4.741
  283POPC   D2A 3883   8.427   9.942   5.057
  283POPC   C3A 3884   8.208  10.069   5.462
  283POPC   C4A 3885   8.130  10.224   5.887
  283POPC   C1B 3886   7.989  10.601   4.613
  283POPC   C2B 3887   8.008  10.746   5.027
  283POPC   C3B 3888   8.140  10.610   5.463
  283POPC   C4B 3889   7.935  10.707   5.864
  284POPC   NC3 3890   2.535   5.966   3.828
  284POPC   PO4 3891   3.217   5.950   3.689
  284POPC   GL1 3892   2.974   5.914   4.124
  284POPC   GL2 3893   2.663   5.784   4.295
  284POPC   C1A 3894   2.899   6.127   4.582
  284POPC   D2A 3895   2.732   6.146   5.050
  284POPC   C3A 3896   2.872   6.005   5.486
  284POPC   C4A 3897   2.778   6.087   5.936
  284POPC   C1B 3898   2.590   5.731   4.760
  284POPC   C2B 3899   2.624   5.653   5.215
  284POPC   C3B 3900   2.631   5.554   5.655
  284POPC   C4B 3901   2.443   5.720   6.052
  285POPC   NC3 3902   1.842   5.907   3.837
  285POPC   PO4 3903   2.342   5.557   3.970
  285POPC   GL1 3904   2.010   5.595   4.255
  285POPC   GL2 3905   1.936   5.897   4.356
  285POPC   C1A 3906   1.777   5.429   4.587
  285POPC   D2A 3907   1.647   5.477   5.019
  285POPC   C3A 3908   1.784   5.755   5.360
  285POPC   C4A 3909   1.639   5.667   5.795
  285POPC   C1B 3910   2.042   5.842   4.779
  285POPC   C2B 3911   2.226   6.028   5.137
  285POPC   C3B 3912   2.333   5.953   5.547
  285POPC   C4B 3913   2.041   5.943   5.870
  286POPC   NC3 3914   7.259   9.980   4.242
  286POPC   PO4 3915   7.184  10.507   3.885
  286POPC   GL1 3916   7.091  10.567   4.376
  286POPC   GL2 3917   7.169  10.265   4.628
  286POPC   C1A 3918   7.074  10.681   4.858
  286POPC   D2A 3919   7.247  10.408   5.217
  286POPC   C3A 3920   7.142  10.476   5.661
  286POPC   C4A 3921   7.100  10.658   6.135
  286POPC   C1B 3922   7.568  10.336   4.810
  286POPC   C2B 3923   7.778  10.305   5.198
  286POPC   C3B 3924   7.679  10.330   5.620
  286POPC   C4B 3925   7.486  10.371   6.005
  287POPC   NC3 3926   2.055   5.156   4.013
  287POPC   PO4 3927   2.382   4.673   3.945
  287POPC   GL1 3928   2.152   4.652   4.389
  287POPC   GL2 3929   2.045   4.984   4.490
  287POPC   C1A 3930   1.730   4.649   4.713
  287POPC   D2A 3931   1.528   4.953   5.028
  287POPC   C3A 3932   1.727   4.859   5.434
  287POPC   C4A 3933   1.978   4.578   5.751
  287POPC   C1B 3934   2.250   5.332   4.729
  287POPC   C2B 3935   2.159   5.502   5.144
  287POPC   C3B 3936   2.133   5.469   5.598
  287POPC   C4B 3937   2.061   5.079   5.777
  288POPC   NC3 3938   0.321   4.429   3.896
  288POPC   PO4 3939   0.400   3.836   4.009
  288POPC   GL1 3940   0.408   4.134   4.340
  288POPC   GL2 3941   0.701   4.305   4.335
  288POPC   C1A 3942   0.594   4.069   4.770
  288POPC   D2A 3943   0.431   3.948   5.153
  288POPC   C3A 3944   0.477   4.124   5.563
  288POPC   C4A 3945   0.267   4.514   5.661
  288POPC   C1B 3946   0.699   4.562   4.704
  288POPC   C2B 3947   0.794   4.395   5.119
  288POPC   C3B 3948   0.786   4.548   5.524
  288POPC   C4B 3949   0.697   4.458   5.954
  289POPC   NC3 3950   1.964   8.584   3.678
  289POPC   PO4 3951   2.232   9.148   3.758
  289POPC   GL1 3952   2.037   9.133   4.235
  289POPC   GL2 3953   2.014   8.761   4.325
  289POPC   C1A 3954   2.126   9.157   4.691
  289POPC   D2A 3955   1.888   9.103   5.099
  289POPC   C3A 3956   2.111   9.197   5.488
  289POPC   C4A 3957   2.204   8.884   5.765
  289POPC   C1B 3958   1.759   8.775   4.716
  289POPC   C2B 3959   1.582   8.602   5.085
  289POPC   C3B 3960   1.729   8.613   5.502
  289POPC   C4B 3961   1.668   9.011   5.676
  290POPC   NC3 3962   0.653   1.129   3.696
  290POPC   PO4 3963   0.187   1.526   3.967
  290POPC   GL1 3964   0.323   1.445   4.353
  290POPC   GL2 3965   0.566   1.203   4.224
  290POPC   C1A 3966   0.123   1.447   4.775
  290POPC   D2A 3967  11.449   1.675   5.128
  290POPC   C3A 3968   0.046   1.493   5.508
  290POPC   C4A 3969   0.405   1.485   5.783
  290POPC   C1B 3970   0.342   1.008   4.596
  290POPC   C2B 3971   0.269   0.941   5.043
  290POPC   C3B 3972   0.467   1.139   5.397
  290POPC   C4B 3973   0.750   1.104   5.745
  291POPC   NC3 3974   8.294   0.571   3.824
  291POPC   PO4 3975   8.081  11.451   3.991
  291POPC   GL1 3976   8.098   0.394   4.249
  291POPC   GL2 3977   7.848   0.656   4.403
  291POPC   C1A 3978   8.330   0.603   4.614
  291POPC   D2A 3979   8.361   0.441   5.065
  291POPC   C3A 3980   8.381   0.695   5.484
  291POPC   C4A 3981   8.201   0.644   5.929
  291POPC   C1B 3982   7.914   0.284   4.733
  291POPC   C2B 3983   7.947   0.148   5.213
  291POPC   C3B 3984   7.940   0.245   5.691
  291POPC   C4B 3985   7.827   0.161   6.172
  292POPC   NC3 3986   8.906   1.934   3.741
  292POPC   PO4 3987   9.229   1.517   4.134
  292POPC   GL1 3988   8.743   1.664   4.300
  292POPC   GL2 3989   8.647   2.005   4.166
  292POPC   C1A 3990   8.490   1.635   4.723
  292POPC   D2A 3991   8.620   1.831   5.138
  292POPC   C3A 3992   8.591   1.668   5.571
  292POPC   C4A 3993   8.610   1.703   6.022
  292POPC   C1B 3994   8.650   2.104   4.610
  292POPC   C2B 3995   8.581   2.323   5.010
  292POPC   C3B 3996   8.680   2.235   5.472
  292POPC   C4B 3997   9.100   2.085   5.645
  293POPC   NC3 3998   9.744  10.281   3.976
  293POPC   PO4 3999   9.107  10.137   4.067
  293POPC   GL1 4000   9.411  10.165   4.364
  293POPC   GL2 4001   9.639  10.434   4.432
  293POPC   C1A 4002   9.560  10.045   4.757
  293POPC   D2A 4003   9.449   9.859   5.125
  293POPC   C3A 4004   9.304  10.047   5.488
  293POPC   C4A 4005   9.690   9.912   5.686
  293POPC   C1B 4006   9.807  10.503   4.830
  293POPC   C2B 4007   9.526  10.430   5.173
  293POPC   C3B 4008   9.614  10.432   5.577
  293POPC   C4B 4009   9.944  10.690   5.676
  294POPC   NC3 4010   2.590   1.077   3.884
  294POPC   PO4 4011   1.960   0.810   3.911
  294POPC   GL1 4012   1.970   1.041   4.288
  294POPC   GL2 4013   1.982   1.411   4.278
  294POPC   C1A 4014   1.923   0.957   4.701
  294POPC   D2A 4015   1.842   1.030   5.108
  294POPC   C3A 4016   2.148   1.033   5.429
  294POPC   C4A 4017   2.103   1.052   5.843
  294POPC   C1B 4018   1.866   1.465   4.739
  294POPC   C2B 4019   2.093   1.575   5.143
  294POPC   C3B 4020   2.133   1.515   5.592
  294POPC   C4B 4021   1.782   1.423   5.863
  295POPC   NC3 4022   3.546   1.980   3.732
  295POPC   PO4 4023   3.882   2.485   3.943
  295POPC   GL1 4024   3.681   2.179   4.211
  295POPC   GL2 4025   3.366   2.034   4.236
  295POPC   C1A 4026   3.579   2.219   4.667
  295POPC   D2A 4027   3.577   1.895   4.983
  295POPC   C3A 4028   3.549   2.024   5.388
  295POPC   C4A 4029   3.761   1.990   5.772
  295POPC   C1B 4030   3.219   1.842   4.611
  295POPC   C2B 4031   3.045   1.802   5.016
  295POPC   C3B 4032   3.108   1.760   5.447
  295POPC   C4B 4033   3.249   1.964   5.806
  296POPC   NC3 4034   1.137   5.773   3.880
  296POPC   PO4 4035   1.674   5.394   3.868
  296POPC   GL1 4036   1.482   5.697   4.245
  296POPC   GL2 4037   1.121   5.844   4.373
  296POPC   C1A 4038   1.524   5.872   4.698
  296POPC   D2A 4039   1.287   5.876   5.121
  296POPC   C3A 4040   1.419   6.040   5.535
  296POPC   C4A 4041   1.334   6.069   5.998
  296POPC   C1B 4042   0.923   5.760   4.762
  296POPC   C2B 4043   0.752   5.767   5.161
  296POPC   C3B 4044   0.947   5.799   5.544
  296POPC   C4B 4045   1.128   5.601   5.900
  297POPC   NC3 4046   0.211   9.702   4.153
  297POPC   PO4 4047   0.819   9.765   3.783
  297POPC   GL1 4048   0.846   9.703   4.234
  297POPC   GL2 4049   0.720   9.389   4.375
  297POPC   C1A 4050   0.842   9.909   4.658
  297POPC   D2A 4051   0.619   9.967   5.038
  297POPC   C3A 4052   0.814   9.916   5.417
  297POPC   C4A 4053   0.724  10.056   5.826
  297POPC   C1B 4054   0.478   9.515   4.775
  297POPC   C2B 4055   0.295   9.615   5.205
  297POPC   C3B 4056   0.379   9.697   5.652
  297POPC   C4B 4057   0.451   9.522   6.062
  298POPC   NC3 4058   0.123   2.809   3.880
  298POPC   PO4 4059   0.646   2.304   4.006
  298POPC   GL1 4060   0.640   2.696   4.252
  298POPC   GL2 4061   0.313   2.874   4.335
  298POPC   C1A 4062   0.638   2.759   4.698
  298POPC   D2A 4063   0.616   2.980   5.069
  298POPC   C3A 4064   0.612   2.735   5.442
  298POPC   C4A 4065   0.543   2.727   5.878
  298POPC   C1B 4066   0.075   2.870   4.702
  298POPC   C2B 4067   0.120   2.910   5.153
  298POPC   C3B 4068   0.122   2.777   5.564
  298POPC   C4B 4069   0.114   2.376   5.722
  299POPC   NC3 4070   7.322   2.371   3.852
  299POPC   PO4 4071   7.652   2.802   4.093
  299POPC   GL1 4072   7.423   2.660   4.438
  299POPC   GL2 4073   7.120   2.456   4.320
  299POPC   C1A 4074   7.467   2.732   4.886
  299POPC   D2A 4075   7.649   2.648   5.282
  299POPC   C3A 4076   7.411   2.730   5.642
  299POPC   C4A 4077   7.162   3.104   5.779
  299POPC   C1B 4078   7.087   2.400   4.776
  299POPC   C2B 4079   7.125   2.518   5.219
  299POPC   C3B 4080   6.906   2.717   5.561
  299POPC   C4B 4081   7.007   2.646   5.992
  300POPC   NC3 4082   1.377  10.277   3.982
  300POPC   PO4 4083   0.822  10.545   3.657
  300POPC   GL1 4084   0.914  10.562   4.140
  300POPC   GL2 4085   0.922  10.216   4.246
  300POPC   C1A 4086   0.833  10.537   4.648
  300POPC   D2A 4087   0.987  10.316   5.080
  300POPC   C3A 4088   1.004  10.422   5.565
  300POPC   C4A 4089   1.125  10.583   6.031
  300POPC   C1B 4090   1.243  10.255   4.613
  300POPC   C2B 4091   1.511  10.357   4.966
  300POPC   C3B 4092   1.524  10.535   5.382
  300POPC   C4B 4093   1.485  10.360   5.786
  301POPC   NC3 4094   8.837   1.405   3.881
  301POPC   PO4 4095   8.735   0.691   3.862
  301POPC   GL1 4096   8.744   0.775   4.307
  301POPC   GL2 4097   8.859   1.105   4.282
  301POPC   C1A 4098   8.893   0.857   4.739
  301POPC   D2A 4099   9.167   1.006   5.051
  301POPC   C3A 4100   8.958   1.041   5.475
  301POPC   C4A 4101   9.126   1.076   5.901
  301POPC   C1B 4102   8.904   1.344   4.654
  301POPC   C2B 4103   8.836   1.382   5.050
  301POPC   C3B 4104   9.071   1.574   5.350
  301POPC   C4B 4105   9.082   1.584   5.783
  302POPC   NC3 4106   0.069   1.014   3.998
  302POPC   PO4 4107  10.949   0.850   3.955
  302POPC   GL1 4108  11.162   1.065   4.328
  302POPC   GL2 4109  11.297   1.422   4.356
  302POPC   C1A 4110  11.332   0.992   4.748
  302POPC   D2A 4111  11.183   0.886   5.180
  302POPC   C3A 4112  11.478   0.978   5.495
  302POPC   C4A 4113  11.470   0.887   5.923
  302POPC   C1B 4114  11.086   1.486   4.787
  302POPC   C2B 4115  11.041   1.370   5.238
  302POPC   C3B 4116  11.046   1.198   5.654
  302POPC   C4B 4117  10.893   1.418   6.046
  303POPC   NC3 4118   2.105   8.074   4.027
  303POPC   PO4 4119   1.500   7.906   3.888
  303POPC   GL1 4120   1.731   7.892   4.299
  303POPC   GL2 4121   1.881   8.236   4.453
  303POPC   C1A 4122   1.895   7.808   4.695
  303POPC   D2A 4123   1.706   7.875   5.069
  303POPC   C3A 4124   1.863   8.024   5.420
  303POPC   C4A 4125   1.727   7.695   5.697
  303POPC   C1B 4126   1.955   8.304   4.872
  303POPC   C2B 4127   2.130   8.589   5.175
  303POPC   C3B 4128   2.197   8.407   5.577
  303POPC   C4B 4129   2.030   8.106   5.893
  304POPC   NC3 4130   0.572   5.477   3.487
  304POPC   PO4 4131   0.699   5.763   4.038
  304POPC   GL1 4132   0.601   5.647   4.392
  304POPC   GL2 4133   0.268   5.801   4.348
  304POPC   C1A 4134   0.359   5.475   4.721
  304POPC   D2A 4135   0.203   5.592   5.101
  304POPC   C3A 4136   0.383   5.515   5.486
  304POPC   C4A 4137   0.447   5.713   5.869
  304POPC   C1B 4138   0.464   5.989   4.731
  304POPC   C2B 4139   0.351   6.079   5.105
  304POPC   C3B 4140   0.487   6.077   5.507
  304POPC   C4B 4141   0.180   6.124   5.809
  305POPC   NC3 4142  10.378   6.424   3.841
  305POPC   PO4 4143  10.066   6.906   4.125
  305POPC   GL1 4144  10.287   6.553   4.332
  305POPC   GL2 4145  10.649   6.519   4.381
  305POPC   C1A 4146  10.313   6.342   4.729
  305POPC   D2A 4147  10.137   6.465   5.109
  305POPC   C3A 4148  10.250   6.366   5.519
  305POPC   C4A 4149  10.321   6.610   5.857
  305POPC   C1B 4150  10.717   6.631   4.807
  305POPC   C2B 4151  10.654   6.529   5.243
  305POPC   C3B 4152  10.777   6.643   5.675
  305POPC   C4B 4153  10.724   6.575   6.153
  306POPC   NC3 4154   9.265  10.945   3.902
  306POPC   PO4 4155   9.958  10.711   3.993
  306POPC   GL1 4156   9.627  10.910   4.267
  306POPC   GL2 4157   9.589  11.270   4.284
  306POPC   C1A 4158   9.478  10.843   4.713
  306POPC   D2A 4159   9.627  10.986   5.150
  306POPC   C3A 4160   9.482  10.913   5.590
  306POPC   C4A 4161   9.405  10.692   6.003
  306POPC   C1B 4162   9.661  11.318   4.724
  306POPC   C2B 4163   9.506  11.495   5.098
  306POPC   C3B 4164   9.665  11.390   5.504
  306POPC   C4B 4165  10.049  11.166   5.646
  307POPC   NC3 4166   7.376   9.060   3.868
  307POPC   PO4 4167   7.671   8.522   3.931
  307POPC   GL1 4168   7.523   8.818   4.287
  307POPC   GL2 4169   7.189   8.942   4.347
  307POPC   C1A 4170   7.553   9.058   4.716
  307POPC   D2A 4171   7.477   8.939   5.151
  307POPC   C3A 4172   7.760   8.909   5.477
  307POPC   C4A 4173   7.755   8.876   5.893
  307POPC   C1B 4174   7.057   8.980   4.802
  307POPC   C2B 4175   7.075   9.223   5.209
  307POPC   C3B 4176   7.100   8.923   5.537
  307POPC   C4B 4177   6.962   8.802   5.960
  308POPC   NC3 4178   9.641   4.985   3.951
  308POPC   PO4 4179   9.126   4.558   4.055
  308POPC   GL1 4180   9.396   4.640   4.417
  308POPC   GL2 4181   9.584   4.967   4.444
  308POPC   C1A 4182   9.446   4.710   4.869
  308POPC   D2A 4183   9.456   4.961   5.241
  308POPC   C3A 4184   9.484   4.734   5.639
  308POPC   C4A 4185   9.139   4.767   5.954
  308POPC   C1B 4186   9.887   4.974   4.770
  308POPC   C2B 4187   9.901   5.191   5.152
  308POPC   C3B 4188   9.761   5.187   5.602
  308POPC   C4B 4189   9.914   5.280   6.028
  309POPC   NC3 4190  11.075   9.403   3.867
  309POPC   PO4 4191   0.073   9.264   4.103
  309POPC   GL1 4192  11.275   9.536   4.345
  309POPC   GL2 4193  10.910   9.428   4.349
  309POPC   C1A 4194  11.439   9.622   4.780
  309POPC   D2A 4195  11.239   9.661   5.162
  309POPC   C3A 4196  11.393   9.560   5.550
  309POPC   C4A 4197  11.498   9.198   5.799
  309POPC   C1B 4198  10.913   9.592   4.741
  309POPC   C2B 4199  10.736   9.548   5.122
  309POPC   C3B 4200  10.861   9.615   5.519
  309POPC   C4B 4201  10.991   9.700   5.933
  310POPC   NC3 4202   9.714   3.321   3.676
  310POPC   PO4 4203   9.751   3.894   4.000
  310POPC   GL1 4204   9.663   3.646   4.356
  310POPC   GL2 4205   9.623   3.268   4.401
  310POPC   C1A 4206   9.688   3.762   4.783
  310POPC   D2A 4207   9.853   3.997   5.122
  310POPC   C3A 4208   9.902   3.769   5.512
  310POPC   C4A 4209   9.773   3.688   5.939
  310POPC   C1B 4210   9.719   3.251   4.829
  310POPC   C2B 4211   9.579   3.476   5.202
  310POPC   C3B 4212   9.525   3.378   5.642
  310POPC   C4B 4213   9.732   3.155   5.994
  311POPC   NC3 4214   3.185   0.294   3.700
  311POPC   PO4 4215   3.734   0.216   3.943
  311POPC   GL1 4216   3.467   0.407   4.302
  311POPC   GL2 4217   3.683   0.689   4.395
  311POPC   C1A 4218   3.282   0.412   4.748
  311POPC   D2A 4219   3.023   0.467   5.162
  311POPC   C3A 4220   3.250   0.360   5.542
  311POPC   C4A 4221   3.625   0.067   5.571
  311POPC   C1B 4222   3.771   0.552   4.811
  311POPC   C2B 4223   3.642   0.469   5.227
  311POPC   C3B 4224   3.732   0.575   5.674
  311POPC   C4B 4225   3.780   0.729   6.127
  312POPC   NC3 4226   4.415  10.842   3.907
  312POPC   PO4 4227   4.201  10.125   3.870
  312POPC   GL1 4228   4.181  10.368   4.224
  312POPC   GL2 4229   4.524  10.446   4.223
  312POPC   C1A 4230   4.220  10.227   4.662
  312POPC   D2A 4231   4.021  10.207   5.076
  312POPC   C3A 4232   4.259  10.173   5.469
  312POPC   C4A 4233   4.214  10.071   5.953
  312POPC   C1B 4234   4.401  10.701   4.577
  312POPC   C2B 4235   4.367  10.594   5.009
  312POPC   C3B 4236   4.319  10.708   5.430
  312POPC   C4B 4237   4.314  10.529   5.818
  313POPC   NC3 4238   0.019   1.901   3.736
  313POPC   PO4 4239  10.860   2.012   3.799
  313POPC   GL1 4240  11.001   2.117   4.242
  313POPC   GL2 4241  11.351   2.023   4.217
  313POPC   C1A 4242  10.871   2.062   4.715
  313POPC   D2A 4243  10.891   1.857   5.141
  313POPC   C3A 4244  10.756   2.072   5.529
  313POPC   C4A 4245  10.968   2.245   5.881
  313POPC   C1B 4246  11.378   1.939   4.662
  313POPC   C2B 4247  11.308   2.159   5.063
  313POPC   C3B 4248  11.270   2.043   5.486
  313POPC   C4B 4249  11.085   1.702   5.666
  314POPC   NC3 4250  11.087   5.002   3.967
  314POPC   PO4 4251   0.119   5.449   3.879
  314POPC   GL1 4252  11.468   5.176   4.262
  314POPC   GL2 4253  11.101   5.269   4.395
  314POPC   C1A 4254  11.406   4.912   4.658
  314POPC   D2A 4255   0.083   5.077   5.078
  314POPC   C3A 4256  11.455   4.887   5.472
  314POPC   C4A 4257  11.459   4.982   5.920
  314POPC   C1B 4258  11.347   5.415   4.751
  314POPC   C2B 4259  11.226   5.438   5.200
  314POPC   C3B 4260  11.168   5.304   5.646
  314POPC   C4B 4261  10.909   5.076   5.957
  315POPC   NC3 4262  11.126  10.400   3.916
  315POPC   PO4 4263   0.101  10.859   3.705
  315POPC   GL1 4264  11.437  10.723   4.199
  315POPC   GL2 4265  11.404  10.384   4.369
  315POPC   C1A 4266  11.354  10.837   4.690
  315POPC   D2A 4267  11.284  10.945   5.155
  315POPC   C3A 4268   0.012  10.637   5.481
  315POPC   C4A 4269  11.364  10.522   5.898
  315POPC   C1B 4270  11.162  10.057   4.640
  315POPC   C2B 4271  10.904  10.033   5.043
  315POPC   C3B 4272  11.084  10.064   5.481
  315POPC   C4B 4273  11.457  10.039   5.733
  316POPC   NC3 4274   6.335  10.349   3.942
  316POPC   PO4 4275   6.873   9.935   3.993
  316POPC   GL1 4276   6.722  10.214   4.349
  316POPC   GL2 4277   6.467  10.507   4.390
  316POPC   C1A 4278   6.707  10.331   4.801
  316POPC   D2A 4279   6.696  10.538   5.189
  316POPC   C3A 4280   6.676  10.293   5.537
  316POPC   C4A 4281   6.687  10.477   5.927
  316POPC   C1B 4282   6.234  10.485   4.768
  316POPC   C2B 4283   6.213  10.286   5.140
  316POPC   C3B 4284   6.184  10.464   5.532
  316POPC   C4B 4285   6.270  10.204   5.847
  317POPC   NC3 4286   5.719   9.922   3.917
  317POPC   PO4 4287   5.574   9.262   4.082
  317POPC   GL1 4288   5.783   9.595   4.305
  317POPC   GL2 4289   5.609   9.876   4.413
  317POPC   C1A 4290   5.981   9.668   4.697
  317POPC   D2A 4291   5.900   9.778   5.119
  317POPC   C3A 4292   5.897   9.406   5.383
  317POPC   C4A 4293   5.668   9.195   5.746
  317POPC   C1B 4294   5.453   9.813   4.828
  317POPC   C2B 4295   5.400   9.862   5.261
  317POPC   C3B 4296   5.498   9.664   5.620
  317POPC   C4B 4297   5.887   9.675   5.800
  318POPC   NC3 4298   2.633   3.429   3.929
  318POPC   PO4 4299   2.541   4.036   3.857
  318POPC   GL1 4300   2.622   3.717   4.335
  318POPC   GL2 4301   2.689   3.314   4.402
  318POPC   C1A 4302   2.388   3.520   4.738
  318POPC   D2A 4303   2.308   3.701   5.118
  318POPC   C3A 4304   2.466   3.521   5.467
  318POPC   C4A 4305   2.605   3.495   5.909
  318POPC   C1B 4306   2.899   3.526   4.752
  318POPC   C2B 4307   3.046   3.349   5.141
  318POPC   C3B 4308   2.962   3.304   5.584
  318POPC   C4B 4309   3.089   3.657   5.860
  319POPC   NC3 4310  11.025   2.443   3.821
  319POPC   PO4 4311  11.234   3.103   3.871
  319POPC   GL1 4312  11.301   2.966   4.253
  319POPC   GL2 4313  11.287   2.622   4.221
  319POPC   C1A 4314  11.052   2.932   4.591
  319POPC   D2A 4315  10.731   3.076   4.873
  319POPC   C3A 4316  10.868   2.950   5.264
  319POPC   C4A 4317  10.971   3.078   5.667
  319POPC   C1B 4318  11.227   2.441   4.595
  319POPC   C2B 4319  11.201   2.650   4.991
  319POPC   C3B 4320  11.201   2.547   5.413
  319POPC   C4B 4321  11.206   2.678   5.832
  320POPC   NC3 4322   9.366   4.161   3.997
  320POPC   PO4 4323   9.951   4.572   3.875
  320POPC   GL1 4324   9.883   4.538   4.323
  320POPC   GL2 4325   9.737   4.216   4.387
  320POPC   C1A 4326   9.929   4.461   4.797
  320POPC   D2A 4327   9.856   4.644   5.201
  320POPC   C3A 4328   9.813   4.352   5.497
  320POPC   C4A 4329   9.666   4.283   5.851
  320POPC   C1B 4330   9.491   4.216   4.752
  320POPC   C2B 4331   9.431   4.293   5.182
  320POPC   C3B 4332   9.417   3.980   5.514
  320POPC   C4B 4333   9.329   3.915   5.959
  321POPC   NC3 4334   7.267  10.048   3.743
  321POPC   PO4 4335   7.081   9.401   3.878
  321POPC   GL1 4336   7.134   9.468   4.320
  321POPC   GL2 4337   7.499   9.445   4.341
  321POPC   C1A 4338   7.221   9.461   4.790
  321POPC   D2A 4339   7.600   9.417   5.113
  321POPC   C3A 4340   7.473   9.320   5.552
  321POPC   C4A 4341   7.050   9.400   5.707
  321POPC   C1B 4342   7.627   9.718   4.702
  321POPC   C2B 4343   7.406   9.903   5.017
  321POPC   C3B 4344   7.237   9.716   5.343
  321POPC   C4B 4345   7.225   9.977   5.690
  322POPC   NC3 4346  10.312  10.410   3.888
  322POPC   PO4 4347  10.909  10.594   4.281
  322POPC   GL1 4348  10.512  10.448   4.456
  322POPC   GL2 4349  10.166  10.493   4.394
  322POPC   C1A 4350  10.375  10.404   4.898
  322POPC   D2A 4351  10.519  10.265   5.307
  322POPC   C3A 4352  10.810  10.486   5.600
  322POPC   C4A 4353  11.065  10.851   5.618
  322POPC   C1B 4354  10.057  10.115   4.626
  322POPC   C2B 4355   9.941  10.103   5.101
  322POPC   C3B 4356  10.068  10.199   5.518
  322POPC   C4B 4357  10.349  10.404   5.804
  323POPC   NC3 4358   2.371  10.174   4.027
  323POPC   PO4 4359   1.754   9.990   3.962
  323POPC   GL1 4360   1.889  10.332   4.171
  323POPC   GL2 4361   2.047  10.114   4.414
  323POPC   C1A 4362   1.860  10.571   4.566
  323POPC   D2A 4363   1.919  10.684   5.001
  323POPC   C3A 4364   2.067  10.466   5.354
  323POPC   C4A 4365   1.939  10.620   5.738
  323POPC   C1B 4366   2.007  10.163   4.853
  323POPC   C2B 4367   1.772   9.935   5.139
  323POPC   C3B 4368   1.804  10.080   5.530
  323POPC   C4B 4369   2.159  10.173   5.826
  324POPC   NC3 4370   2.680   9.271   3.701
  324POPC   PO4 4371   2.601   9.906   3.746
  324POPC   GL1 4372   2.636   9.902   4.334
  324POPC   GL2 4373   2.927   9.676   4.483
  324POPC   C1A 4374   2.545   9.799   4.792
  324POPC   D2A 4375   2.739   9.500   5.103
  324POPC   C3A 4376   2.540   9.538   5.505
  324POPC   C4A 4377   2.527   9.829   5.841
  324POPC   C1B 4378   3.072   9.932   4.842
  324POPC   C2B 4379   3.079   9.936   5.307
  324POPC   C3B 4380   2.982   9.710   5.686
  324POPC   C4B 4381   2.995   9.858   6.129
  325POPC   NC3 4382  10.261   8.672   3.892
  325POPC   PO4 4383  10.632   9.272   3.764
  325POPC   GL1 4384  10.633   9.042   4.146
  325POPC   GL2 4385  10.341   8.951   4.298
  325POPC   C1A 4386  10.772   8.886   4.575
  325POPC   D2A 4387  10.823   8.589   4.938
  325POPC   C3A 4388  10.794   8.790   5.315
  325POPC   C4A 4389  10.594   8.808   5.669
  325POPC   C1B 4390  10.239   8.982   4.717
  325POPC   C2B 4391  10.298   8.831   5.144
  325POPC   C3B 4392  10.067   8.963   5.496
  325POPC   C4B 4393  10.224   9.080   5.881
  326POPC   NC3 4394  10.130   4.116   3.881
  326POPC   PO4 4395  10.680   4.546   3.884
  326POPC   GL1 4396  10.587   4.213   4.174
  326POPC   GL2 4397  10.273   4.204   4.348
  326POPC   C1A 4398  10.711   4.062   4.598
  326POPC   D2A 4399  10.933   4.135   4.985
  326POPC   C3A 4400  10.764   4.042   5.380
  326POPC   C4A 4401  10.693   4.277   5.735
  326POPC   C1B 4402  10.192   4.013   4.719
  326POPC   C2B 4403  10.337   4.228   5.075
  326POPC   C3B 4404  10.302   4.419   5.461
  326POPC   C4B 4405  10.165   4.133   5.796
  327POPC   NC3 4406   2.479   8.975   4.121
  327POPC   PO4 4407   3.073   9.028   3.791
  327POPC   GL1 4408   2.979   8.993   4.273
  327POPC   GL2 4409   2.843   8.644   4.275
  327POPC   C1A 4410   2.723   9.090   4.719
  327POPC   D2A 4411   2.426   9.054   5.103
  327POPC   C3A 4412   2.634   9.055   5.515
  327POPC   C4A 4413   3.044   9.193   5.646
  327POPC   C1B 4414   2.981   8.639   4.722
  327POPC   C2B 4415   2.820   8.715   5.158
  327POPC   C3B 4416   2.716   8.569   5.601
  327POPC   C4B 4417   3.047   8.665   5.906
  328POPC   NC3 4418   0.691   2.658   3.724
  328POPC   PO4 4419   1.406   2.624   3.941
  328POPC   GL1 4420   1.125   2.452   4.271
  328POPC   GL2 4421   1.464   2.356   4.438
  328POPC   C1A 4422   1.027   2.399   4.720
  328POPC   D2A 4423   1.063   2.747   5.003
  328POPC   C3A 4424   1.057   2.964   5.366
  328POPC   C4A 4425   1.038   2.742   5.746
  328POPC   C1B 4426   1.374   2.778   4.594
  328POPC   C2B 4427   1.469   3.041   4.910
  328POPC   C3B 4428   1.629   3.010   5.291
  328POPC   C4B 4429   1.428   3.116   5.673
  329POPC   NC3 4430   5.313   2.283   3.959
  329POPC   PO4 4431   5.949   2.051   3.942
  329POPC   GL1 4432   5.953   1.879   4.359
  329POPC   GL2 4433   5.588   1.928   4.342
  329POPC   C1A 4434   5.870   1.713   4.770
  329POPC   D2A 4435   5.916   1.950   5.142
  329POPC   C3A 4436   6.071   1.815   5.532
  329POPC   C4A 4437   6.090   2.202   5.751
  329POPC   C1B 4438   5.371   1.827   4.746
  329POPC   C2B 4439   5.431   1.838   5.208
  329POPC   C3B 4440   5.585   1.981   5.604
  329POPC   C4B 4441   5.683   1.677   5.893
  330POPC   NC3 4442  10.218   9.358   4.020
  330POPC   PO4 4443  10.025   9.934   3.772
  330POPC   GL1 4444  10.209   9.819   4.231
  330POPC   GL2 4445  10.560   9.747   4.156
  330POPC   C1A 4446  10.378   9.504   4.625
  330POPC   D2A 4447  10.260   9.355   5.073
  330POPC   C3A 4448  10.486   9.269   5.468
  330POPC   C4A 4449  10.498   9.509   5.877
  330POPC   C1B 4450  10.582   9.966   4.585
  330POPC   C2B 4451  10.370   9.873   4.981
  330POPC   C3B 4452  10.364   9.780   5.421
  330POPC   C4B 4453  10.620   9.996   5.723
  331POPC   NC3 4454   2.799  10.255   3.543
  331POPC   PO4 4455   3.206  10.238   4.034
  331POPC   GL1 4456   3.017  10.239   4.408
  331POPC   GL2 4457   2.779  10.474   4.308
  331POPC   C1A 4458   2.958  10.452   4.807
  331POPC   D2A 4459   2.940  10.438   5.232
  331POPC   C3A 4460   2.658  10.210   5.479
  331POPC   C4A 4461   2.863  10.243   5.842
  331POPC   C1B 4462   2.502  10.294   4.633
  331POPC   C2B 4463   2.452  10.388   5.036
  331POPC   C3B 4464   2.526  10.731   5.323
  331POPC   C4B 4465   2.503  10.632   5.758
  332POPC   NC3 4466   8.784   8.208   3.918
  332POPC   PO4 4467   9.231   7.819   3.683
  332POPC   GL1 4468   9.120   7.947   4.200
  332POPC   GL2 4469   9.101   8.313   4.314
  332POPC   C1A 4470   9.316   7.945   4.646
  332POPC   D2A 4471   9.193   7.887   5.105
  332POPC   C3A 4472   9.022   7.943   5.522
  332POPC   C4A 4473   9.188   7.732   5.862
  332POPC   C1B 4474   8.863   8.148   4.711
  332POPC   C2B 4475   8.692   8.060   5.150
  332POPC   C3B 4476   8.541   8.184   5.601
  332POPC   C4B 4477   8.455   8.316   6.061
  333POPC   NC3 4478   2.762   4.423   3.937
  333POPC   PO4 4479   3.238   4.627   4.263
  333POPC   GL1 4480   2.731   4.590   4.404
  333POPC   GL2 4481   2.527   4.248   4.367
  333POPC   C1A 4482   2.519   4.522   4.801
  333POPC   D2A 4483   2.745   4.350   5.176
  333POPC   C3A 4484   2.592   4.500   5.574
  333POPC   C4A 4485   2.680   4.734   5.954
  333POPC   C1B 4486   2.580   4.002   4.780
  333POPC   C2B 4487   2.783   3.833   5.184
  333POPC   C3B 4488   2.701   3.945   5.634
  333POPC   C4B 4489   2.865   4.216   5.953
  334POPC   NC3 4490   8.900   9.744   3.946
  334POPC   PO4 4491   8.412   9.388   4.222
  334POPC   GL1 4492   8.774   9.514   4.389
  334POPC   GL2 4493   8.775   9.884   4.398
  334POPC   C1A 4494   8.715   9.537   4.813
  334POPC   D2A 4495   8.751   9.475   5.218
  334POPC   C3A 4496   8.518   9.422   5.552
  334POPC   C4A 4497   8.784   9.443   5.893
  334POPC   C1B 4498   8.870  10.032   4.771
  334POPC   C2B 4499   8.952   9.918   5.142
  334POPC   C3B 4500   8.807   9.846   5.548
  334POPC   C4B 4501   8.980   9.905   5.933
  335POPC   NC3 4502   0.304   7.039   3.981
  335POPC   PO4 4503   0.028   7.614   3.805
  335POPC   GL1 4504   0.182   7.530   4.229
  335POPC   GL2 4505   0.536   7.450   4.257
  335POPC   C1A 4506   0.320   7.568   4.683
  335POPC   D2A 4507   0.317   7.335   5.054
  335POPC   C3A 4508   0.350   7.541   5.454
  335POPC   C4A 4509   0.202   7.350   5.847
  335POPC   C1B 4510   0.579   7.097   4.585
  335POPC   C2B 4511   0.658   6.927   5.008
  335POPC   C3B 4512   0.720   7.192   5.379
  335POPC   C4B 4513   0.716   7.382   5.814
  336POPC   NC3 4514   4.422   1.458   3.463
  336POPC   PO4 4515   4.505   1.498   4.110
  336POPC   GL1 4516   4.465   1.396   4.492
  336POPC   GL2 4517   4.308   1.080   4.443
  336POPC   C1A 4518   4.572   1.233   4.880
  336POPC   D2A 4519   4.352   1.020   5.197
  336POPC   C3A 4520   4.468   1.172   5.606
  336POPC   C4A 4521   4.436   1.419   5.993
  336POPC   C1B 4522   3.929   1.048   4.738
  336POPC   C2B 4523   3.810   0.981   5.187
  336POPC   C3B 4524   3.969   1.116   5.593
  336POPC   C4B 4525   3.940   1.242   6.024
  337POPC   NC3 4526   2.769   0.099   3.994
  337POPC   PO4 4527   2.948   0.716   3.783
  337POPC   GL1 4528   2.965   0.614   4.277
  337POPC   GL2 4529   2.908   0.263   4.451
  337POPC   C1A 4530   2.861   0.716   4.739
  337POPC   D2A 4531   2.630   0.786   5.161
  337POPC   C3A 4532   2.858   0.765   5.586
  337POPC   C4A 4533   2.792   0.560   6.010
  337POPC   C1B 4534   2.549   0.316   4.774
  337POPC   C2B 4535   2.487   0.301   5.236
  337POPC   C3B 4536   2.720   0.232   5.611
  337POPC   C4B 4537   2.588  11.474   5.959
  338W        W 4538   4.578   7.138   1.913
  339W        W 4539   5.147   6.011   0.001
  340W        W 4540   7.841   4.662  10.367
  341W        W 4541  10.025   0.230  10.590
  342W        W 4542   0.173   4.701   3.472
  343W        W 4543   7.479   3.856  10.484
  344W        W 4544  10.862   8.800  11.753
  345W        W 4545   8.569   3.208   8.915
  346W        W 4546   1.425   0.903   0.894
  347W        W 4547   1.259   6.505  10.836
  348W        W 4548   4.323   9.030   2.214
  349W        W 4549   7.659   6.538   2.736
  350W        W 4550  11.363   1.001   2.133
  351W        W 4551  10.020   2.848   3.672
  352W        W 4552   0.485  11.403   3.243
  353W        W 4553   2.244  10.430  10.441
  354W        W 4554  10.715   5.805  11.465
  355W        W 4555   3.823   7.627   0.890
  356W        W 4556  11.495   8.165  11.804
  357W        W 4557  11.104   7.994   2.204
  358W        W 4558   5.984   3.634   7.953
  359W        W 4559   5.989   4.108   3.950
  360W        W 4560   2.540   3.024   0.098
  361W        W 4561   9.175   5.295   2.912
  362W        W 4562   2.424  10.321   0.444
  363W        W 4563   2.624  10.981   3.545
  364W        W 4564   4.640   0.367   0.460
  365W        W 4565   6.190   0.398   2.701
  366W        W 4566   2.345   5.765   0.948
  367W        W 4567   9.323  11.131  10.312
  368W        W 4568   7.262   6.151  10.500
  369W        W 4569   5.809   6.837  11.510
  370W        W 4570  11.282  10.565  11.307
  371W        W 4571   2.194  10.868   3.310
  372W        W 4572   7.963   8.408   1.841
  373W        W 4573   7.009   4.738   1.430
  374W        W 4574   0.891   1.403  10.453
  375W        W 4575   5.654   0.503   0.017
  376W        W 4576  10.444   2.781   3.159
  377W        W 4577   2.664   8.748   3.711
  378W        W 4578   3.277   8.571   0.824
  379W        W 4579   5.246   2.428  10.767
  380W        W 4580   2.710   2.568   9.889
  381W        W 4581   2.642   4.737   3.378
  382W        W 4582   3.813   9.006   3.044
  383W        W 4583   6.086   0.478   9.316
  384W        W 4584   6.755   6.476   1.994
  385W        W 4585   5.833   4.142   8.146
  386W        W 4586   0.610   2.472  11.829
  387W        W 4587   1.760   5.372  10.381
  388W        W 4588   0.579   2.807   0.693
  389W        W 4589   3.238   1.513   0.034
  390W        W 4590   6.610   1.007   0.877
  391W        W 4591   6.069   7.406  10.280
  392W        W 4592   4.419   8.913   0.750
  393W        W 4593   2.653   4.131   9.787
  394W        W 4594   3.700   4.743  11.657
  395W        W 4595  10.778   6.742  11.088
  396W        W 4596   0.949  10.518   2.762
  397W        W 4597   9.567   0.306   1.954
  398W        W 4598   8.918   2.465  10.962
  399W        W 4599   9.203   8.940   3.018
  400W        W 4600   9.155  10.821   9.951
  401W        W 4601   8.990  11.300   1.682
  402W        W 4602   9.044   9.539   9.904
  403W        W 4603   5.242   9.247   1.315
  404W        W 4604   9.362  10.407  11.440
  405W        W 4605   7.676   5.232   0.735
  406W        W 4606   1.494   2.802   1.474
  407W        W 4607   3.853   4.646   2.742
  408W        W 4608   5.682  10.344  11.327
  409W        W 4609  10.478   3.267   9.046
  410W        W 4610   9.833  10.579  11.451
  411W        W 4611   4.253   1.766  10.589
  412W        W 4612   3.195   8.197   9.579
  413W        W 4613  10.508   4.638   1.464
  414W        W 4614   1.114   8.390   8.846
  415W        W 4615  11.361   4.364   0.558
  416W        W 4616  10.449   7.403   1.669
  417W        W 4617   6.573   7.586  11.459
  418W        W 4618   5.526   6.163   0.309
  419W        W 4619   4.206   2.819   0.450
  420W        W 4620   4.713   6.225   0.154
  421W        W 4621   8.049   9.984  10.875
  422W        W 4622   9.462  11.295   1.903
  423W        W 4623   4.310   0.150   9.738
  424W        W 4624   7.095   4.293   0.086
  425W        W 4625   9.155   7.301   3.448
  426W        W 4626   9.463   4.235  11.527
  427W        W 4627   5.419   3.563   9.126
  428W        W 4628  10.606   8.859   0.362
  429W        W 4629   5.632  11.228   2.200
  430W        W 4630   5.698   4.507   2.958
  431W        W 4631   5.099  11.477  10.606
  432W        W 4632   5.761   3.266  10.299
  433W        W 4633  10.936   8.060  11.105
  434W        W 4634   1.830   3.219   3.119
  435W        W 4635  11.222   0.392  10.810
  436W        W 4636   5.994  10.068  11.707
  437W        W 4637   3.619   5.169   8.108
  438W        W 4638   4.749   8.829   8.145
  439W        W 4639   2.251  10.249   9.894
  440W        W 4640   1.749   9.828   0.033
  441W        W 4641   6.975   2.671   1.619
  442W        W 4642  10.035   2.374  10.852
  443W        W 4643   0.351   0.402   9.017
  444W        W 4644   6.460   0.171  11.027
  445W        W 4645   6.486   3.824   9.846
  446W        W 4646   0.979   6.279   3.960
  447W        W 4647   9.287   9.398   8.923
  448W        W 4648   5.252   7.358   1.696
  449W        W 4649  10.234   7.665   0.843
  450W        W 4650   9.128   5.043  11.941
  451W        W 4651   4.980  10.540  10.637
  452W        W 4652   1.344   3.413  10.641
  453W        W 4653   2.694   4.032  11.956
  454W        W 4654   4.468   0.349   8.835
  455W        W 4655   4.738   3.146   2.761
  456W        W 4656   4.047   4.279  11.422
  457W        W 4657   2.614  10.314   0.930
  458W        W 4658  10.796   1.775  10.938
  459W        W 4659   6.974   9.713   3.488
  460W        W 4660  10.898   0.921   0.252
  461W        W 4661   9.846   1.244   9.800
  462W        W 4662   8.447   9.148   8.981
  463W        W 4663   2.467   5.358   1.651
  464W        W 4664   7.734   3.849   4.052
  465W        W 4665   1.099   6.609   8.376
  466W        W 4666   7.399   7.512  10.736
  467W        W 4667   2.151   6.520   3.278
  468W        W 4668   8.783   9.464   1.805
  469W        W 4669   9.513   0.582   9.806
  470W        W 4670   8.129   4.637  10.781
  471W        W 4671   2.115   2.305   0.235
  472W        W 4672  11.167   4.962  11.130
  473W        W 4673   8.377   5.586   0.333
  474W        W 4674   1.352   3.386  11.637
  475W        W 4675   2.347   3.740  10.011
  476W        W 4676   6.226   1.040   9.902
  477W        W 4677   6.571   6.910   2.206
  478W        W 4678  11.043  11.282   2.207
  479W        W 4679   3.507   6.169   1.755
  480W        W 4680   4.671   2.214  11.292
  481W        W 4681   9.547   0.297  11.372
  482W        W 4682   9.438   9.122  10.281
  483W        W 4683  10.437   8.680  11.449
  484W        W 4684   6.010   6.917   0.838
  485W        W 4685   2.489   8.196   9.097
  486W        W 4686   2.904  10.632   3.222
  487W        W 4687   5.753   3.655  11.374
  488W        W 4688   9.639   7.205   9.501
  489W        W 4689  10.566   7.024  11.901
  490W        W 4690   3.313   6.947  11.454
  491W        W 4691  11.303  11.133   0.068
  492W        W 4692   2.741   4.540   0.064
  493W        W 4693   6.566   4.074   9.384
  494W        W 4694   4.033   8.332   3.502
  495W        W 4695   1.243   9.937  10.750
  496W        W 4696   7.627  11.074   1.690
  497W        W 4697  10.007   3.751  11.622
  498W        W 4698  11.120   5.467  10.870
  499W        W 4699   7.220   3.998   2.465
  500W        W 4700   1.859   6.121  11.341
  501W        W 4701   9.753   9.030   0.893
  502W        W 4702   8.451   1.627  10.849
  503W        W 4703   9.631  11.224   2.784
  504W        W 4704   1.367   1.750   0.687
  505W        W 4705   4.337   9.169   1.199
  506W        W 4706   0.336   4.739  11.700
  507W        W 4707   0.586   4.221   0.718
  508W        W 4708  10.497  10.226   0.680
  509W        W 4709   0.802   0.335  11.822
  510W        W 4710   8.460   5.457   3.755
  511W        W 4711   0.854  10.777   9.871
  512W        W 4712   4.695   0.906   2.139
  513W        W 4713   3.596   8.557  11.738
  514W        W 4714   3.421   8.072   3.132
  515W        W 4715   4.262   3.329   2.831
  516W        W 4716   1.173   7.826   1.065
  517W        W 4717   8.764   1.523   3.011
  518W        W 4718   5.279   8.694   8.628
  519W        W 4719   8.095   1.190   9.320
  520W        W 4720   0.918  11.277   0.933
  521W        W 4721   6.658   5.568   2.493
  522W        W 4722   4.364   1.346   9.479
  523W        W 4723   2.167   6.583   1.306
  524W        W 4724   0.911   7.976   9.080
  525W        W 4725   3.535   0.439   2.332
  526W        W 4726   1.990   3.730   8.486
  527W        W 4727   7.158   1.402  11.437
  528W        W 4728   3.686   6.576   3.103
  529W        W 4729   0.829   6.595  10.022
  530W        W 4730   1.593   5.323   0.824
  531W        W 4731   1.609   2.704  11.672
  532W        W 4732   6.409   8.867  10.258
  533W        W 4733   3.125  11.060   3.433
  534W        W 4734  10.615   0.321   1.748
  535W        W 4735  10.014   8.608   9.670
  536W        W 4736   5.253   3.564  11.337
  537W        W 4737  10.575   3.094  11.571
  538W        W 4738   1.751   0.516   2.619
  539W        W 4739   5.513   3.540   4.279
  540W        W 4740   2.468   8.537  10.757
  541W        W 4741   1.754   7.952   3.022
  542W        W 4742   7.988   3.456   2.110
  543W        W 4743   9.668   9.629   0.084
  544W        W 4744   7.970  11.285   2.984
  545W        W 4745  10.006   7.429   0.464
  546W        W 4746   5.558   8.567  10.685
  547W        W 4747   2.123   0.966   9.389
  548W        W 4748   7.249   1.292   2.307
  549W        W 4749   7.149  10.391  10.869
  550W        W 4750   0.709   6.470   2.773
  551W        W 4751   2.305   1.719   2.444
  552W        W 4752   5.701   4.215   0.117
  553W        W 4753   2.037   5.231  11.733
  554W        W 4754   0.510   5.128   2.788
  555W        W 4755   4.145   8.527  10.509
  556W        W 4756   3.355   9.386   1.918
  557W        W 4757   5.246   8.279   2.983
  558W        W 4758  10.038   3.517   0.063
  559W        W 4759   0.691   3.620   2.817
  560W        W 4760   9.607   1.433  10.593
  561W        W 4761   4.335   6.563   1.720
  562W        W 4762  11.141   9.514   9.531
  563W        W 4763   9.267   9.429   3.104
  564W        W 4764   3.961  11.006   3.172
  565W        W 4765   7.034  11.059   1.543
  566W        W 4766   2.184   9.794  10.785
  567W        W 4767   4.124   2.638   2.337
  568W        W 4768   6.214   4.122   8.646
  569W        W 4769   3.245   0.008   2.198
  570W        W 4770   6.077   7.177   3.959
  571W        W 4771  10.487   6.497   2.836
  572W        W 4772   3.421   8.944   3.393
  573W        W 4773   6.722  11.062   0.543
  574W        W 4774   6.138   3.016   8.618
  575W        W 4775   5.572   5.559  10.007
  576W        W 4776   1.352   4.202   2.895
  577W        W 4777   7.622   0.503  11.577
  578W        W 4778   6.916   6.526   0.698
  579W        W 4779   2.317   4.818  10.958
  580W        W 4780   0.501   1.305   9.882
  581W        W 4781   5.940   0.594   9.850
  582W        W 4782   7.598   2.470   1.213
  583W        W 4783   3.804   2.321  11.767
  584W        W 4784   8.232   1.304   1.755
  585W        W 4785   0.729   9.061   3.031
  586W        W 4786   9.959  11.400   9.861
  587W        W 4787   4.878   1.822   3.317
  588W        W 4788   3.641   1.629   9.041
  589W        W 4789   7.376   7.134  11.489
  590W        W 4790   3.175   4.229   2.771
  591W        W 4791   5.622   7.548  10.472
  592W        W 4792  10.466   4.712   1.953
  593W        W 4793   5.148   5.595   0.309
  594W        W 4794   9.441   7.698   9.420
  595W        W 4795   4.957   1.413  11.550
  596W        W 4796   4.941   3.105   8.662
  597W        W 4797   0.314   9.045   9.273
  598W        W 4798   3.759   5.169   2.655
  599W        W 4799  10.336   4.748   2.426
  600W        W 4800   4.349   1.707  11.508
  601W        W 4801   2.235   3.605   1.750
  602W        W 4802  10.902   8.462  11.396
  603W        W 4803   3.740  11.330  10.873
  604W        W 4804   5.721   0.118   1.839
  605W        W 4805   1.642   1.890   1.773
  606W        W 4806   6.213   3.404   0.023
  607W        W 4807   5.057   8.107  11.276
  608W        W 4808   2.860   7.392   0.674
  609W        W 4809   3.529   2.868  11.263
  610W        W 4810   4.247   9.577   8.936
  611W        W 4811   5.647   6.592   1.127
  612W        W 4812  10.713   9.453  11.115
  613W        W 4813   3.724   7.509   3.082
  614W        W 4814   1.310   8.674  11.915
  615W        W 4815   0.200   3.017   9.288
  616W        W 4816   2.712   3.604   1.529
  617W        W 4817   3.181   2.963   2.314
  618W        W 4818   1.915   8.540   9.909
  619W        W 4819   4.656   2.907  11.830
  620W        W 4820   1.954   9.454   2.568
  621W        W 4821   4.078  10.270  11.833
  622W        W 4822   3.636   6.265  11.893
  623W        W 4823   1.261   9.039   0.726
  624W        W 4824   5.164   1.034   9.968
  625W        W 4825   9.060   8.073   2.943
  626W        W 4826   2.756   8.344   1.502
  627W        W 4827   0.868   3.033  11.033
  628W        W 4828   9.148   0.974   8.698
  629W        W 4829   4.295   8.043  11.986
  630W        W 4830   6.118   8.681   3.644
  631W        W 4831   7.786   2.062  11.872
  632W        W 4832   1.307   9.869   2.997
  633W        W 4833   3.272   0.392   1.866
  634W        W 4834   4.200   5.904   8.271
  635W        W 4835   3.155   6.173   0.724
  636W        W 4836   7.590   6.879   9.958
  637W        W 4837  11.215   5.659   2.763
  638W        W 4838   1.423   9.508  10.493
  639W        W 4839   7.424  11.168  11.866
  640W        W 4840   2.035   2.297  10.475
  641W        W 4841   9.298   9.906  11.374
  642W        W 4842   2.350  11.044   9.119
  643W        W 4843   8.358   6.137   3.136
  644W        W 4844   3.276   3.554   4.046
  645W        W 4845   6.527   1.826   0.449
  646W        W 4846   5.308   7.640   0.810
  647W        W 4847  10.845   6.396   3.526
  648W        W 4848   9.426   0.842   9.116
  649W        W 4849   3.602   4.981  10.784
  650W        W 4850   6.032   9.941  11.206
  651W        W 4851   1.697   4.107   9.422
  652W        W 4852   1.645   7.117   0.997
  653W        W 4853   8.144   3.383   2.610
  654W        W 4854   7.356   0.933  11.404
  655W        W 4855   7.054   1.867   1.645
  656W        W 4856   5.225   2.663  11.792
  657W        W 4857   7.928   8.989   0.843
  658W        W 4858  10.063   4.328   9.368
  659W        W 4859   9.876   3.918   3.045
  660W        W 4860   7.432   5.984   9.867
  661W        W 4861   8.521   1.398  11.460
  662W        W 4862   1.445   8.172   1.322
  663W        W 4863   8.014  10.788   0.565
  664W        W 4864   5.227   0.642   0.932
  665W        W 4865   8.231   6.099   0.375
  666W        W 4866   9.087   8.069  10.739
  667W        W 4867   5.470   6.530   9.165
  668W        W 4868   6.131   9.874   8.623
  669W        W 4869   9.941   5.659   9.014
  670W        W 4870  11.214   3.806   2.681
  671W        W 4871   7.533   4.704   1.650
  672W        W 4872   8.529   8.974  11.976
  673W        W 4873   2.706   6.165   1.996
  674W        W 4874   1.248   6.564  10.319
  675W        W 4875   4.788   9.446   1.172
  676W        W 4876   5.192   9.410   9.983
  677W        W 4877   5.179   8.545   2.064
  678W        W 4878  11.397   2.951   8.878
  679W        W 4879   0.802   9.088   0.502
  680W        W 4880   6.027   2.061   2.759
  681W        W 4881   4.079   2.887  11.092
  682W        W 4882   7.067   0.101   9.244
  683W        W 4883   1.756   7.949   0.379
  684W        W 4884  10.875   6.375   9.297
  685W        W 4885   1.293   6.490   9.786
  686W        W 4886   9.014  10.853   2.034
  687W        W 4887   8.049   7.157   0.679
  688W        W 4888   1.207  10.887   9.509
  689W        W 4889   1.401   6.959  10.994
  690W        W 4890   8.598   9.809   9.809
  691W        W 4891   8.842   4.067  11.752
  692W        W 4892   6.271   2.161   3.216
  693W        W 4893   6.034   9.479   0.806
  694W        W 4894   1.121   0.290  10.877
  695W        W 4895   4.739   5.654   0.633
  696W        W 4896   4.207   7.544  10.509
  697W        W 4897   8.976   8.678   8.485
  698W        W 4898   2.962   5.284   1.581
  699W        W 4899   6.328   3.305   1.337
  700W        W 4900   6.521   8.369  11.017
  701W        W 4901   4.062   7.257   2.779
  702W        W 4902  10.763   4.171  10.061
  703W        W 4903   2.677   1.210  10.829
  704W        W 4904   9.193   5.900  10.781
  705W        W 4905   6.998   0.613  11.211
  706W        W 4906   7.147   6.240   2.248
  707W        W 4907   3.083   3.108   9.526
  708W        W 4908   4.948   5.221  11.483
  709W        W 4909   4.114   0.261   1.525
  710W        W 4910   0.873   1.277   1.488
  711W        W 4911   4.657   2.811   3.446
  712W        W 4912  10.418   6.471   9.024
  713W        W 4913   2.633   6.150   2.864
  714W        W 4914   9.977   8.878  11.577
  715W        W 4915   8.261   0.305  10.494
  716W        W 4916   8.832   0.253   1.827
  717W        W 4917   6.587   8.166   1.972
  718W        W 4918   4.146   6.062   0.838
  719W        W 4919   6.293   1.444  11.627
  720W        W 4920   8.012   6.464   0.013
  721W        W 4921   2.657   3.287   0.544
  722W        W 4922   1.250   0.777   9.952
  723W        W 4923   4.693   5.681  11.512
  724W        W 4924   2.999   3.743   2.824
  725W        W 4925  11.071   1.615   2.844
  726W        W 4926   6.918   7.509  11.856
  727W        W 4927   3.754  10.882   8.974
  728W        W 4928   4.929  10.764   3.456
  729W        W 4929   4.399   0.715  11.660
  730W        W 4930  10.463   6.902  10.707
  731W        W 4931   6.654   1.562   0.864
  732W        W 4932   0.219   3.500   9.907
  733W        W 4933   5.006  10.364  11.968
  734W        W 4934   0.829   7.157   0.502
  735W        W 4935   6.105   2.693   1.212
  736W        W 4936   8.907   1.455   1.728
  737W        W 4937   1.183  10.143   3.458
  738W        W 4938  10.929   1.302  10.667
  739W        W 4939   1.643  11.440  10.118
  740W        W 4940   1.140   7.309   1.037
  741W        W 4941   2.108   6.215   0.919
  742W        W 4942   4.517   3.210   2.239
  743W        W 4943  10.028  10.838  10.895
  744W        W 4944  10.351   8.834  10.937
  745W        W 4945   8.101  10.163  10.412
  746W        W 4946  10.003   7.201   1.881
  747W        W 4947   5.492   8.447   9.039
  748W        W 4948   3.817  10.437   1.425
  749W        W 4949   4.804   0.998  11.793
  750W        W 4950   1.272  10.670   1.933
  751W        W 4951   1.774   2.420   2.811
  752W        W 4952   6.684   5.218   1.390
  753W        W 4953  10.037   8.426   9.192
  754W        W 4954   3.353   4.687   2.610
  755W        W 4955   4.583   3.717   1.993
  756W        W 4956   4.299   2.438  10.976
  757W        W 4957   8.574   1.942   9.361
  758W        W 4958  11.302   4.253   9.395
  759W        W 4959   9.441   5.532  10.009
  760W        W 4960   8.381   8.080  10.009
  761W        W 4961   6.941   4.184   0.582
  762W        W 4962   1.264   5.338   1.256
  763W        W 4963   3.452   3.216  10.386
  764W        W 4964   4.701   0.353   9.371
  765W        W 4965   9.765   6.718   8.218
  766W        W 4966   8.186   0.435   9.970
  767W        W 4967   6.319   6.120  11.475
  768W        W 4968   5.180   4.833  11.737
  769W        W 4969   2.244   3.836   8.938
  770W        W 4970  11.494  11.221   0.985
  771W        W 4971   9.959   6.188   8.918
  772W        W 4972   1.136   9.535   9.014
  773W        W 4973   6.285   5.290   1.758
  774W        W 4974   7.928   9.798  11.796
  775W        W 4975   4.555   2.297  10.023
  776W        W 4976   0.405   0.323   1.932
  777W        W 4977   7.434   0.984   3.016
  778W        W 4978   7.469   1.473  10.488
  779W        W 4979   0.068   7.303   0.345
  780W        W 4980  10.702   2.948   9.422
  781W        W 4981   8.485   2.385  11.238
  782W        W 4982   5.753   3.682   2.290
  783W        W 4983   7.231   8.450  11.945
  784W        W 4984   7.801   4.230   1.587
  785W        W 4985   0.146   6.145   9.869
  786W        W 4986   4.779   4.124   9.607
  787W        W 4987   7.666   9.550   9.773
  788W        W 4988   5.573   0.286  11.549
  789W        W 4989   5.495   9.834   8.471
  790W        W 4990  11.243   2.226  10.610
  791W        W 4991   7.797   7.921   0.602
  792W        W 4992  11.056   7.010  11.944
  793W        W 4993   7.970   4.291   2.823
  794W        W 4994   6.754   8.071   0.248
  795W        W 4995  11.268   0.335   9.918
  796W        W 4996   7.555  10.597   2.621
  797W        W 4997   4.541   0.842  10.339
  798W        W 4998   7.450   5.212  11.764
  799W        W 4999   7.217   0.879   9.797
  800W        W 5000   6.670  11.341   9.088
  801W        W 5001   7.952   6.161   8.732
  802W        W 5002   4.611   3.084   0.301
  803W        W 5003   3.053   9.048  11.493
  804W        W 5004   7.545   1.705  11.079
  805W        W 5005   8.840   7.989   2.015
  806W        W 5006  11.306  10.791   0.754
  807W        W 5007   0.793   7.505  11.762
  808W        W 5008   4.722   7.490  11.325
  809W        W 5009   1.025   7.965   9.593
  810W        W 5010   9.844   6.545  11.773
  811W        W 5011   0.093  11.452  11.764
  812W        W 5012  10.539   0.331   9.273
  813W        W 5013   5.352   6.624   2.095
  814W        W 5014   2.904  10.125   1.782
  815W        W 5015   5.327   6.751  11.620
  816W        W 5016  10.224   5.681   9.441
  817W        W 5017  11.072   4.480  10.369
  818W        W 5018   6.453   3.767   8.954
  819W        W 5019   4.198   6.536   2.212
  820W        W 5020   4.033   6.710  10.023
  821W        W 5021   8.867   9.923  11.140
  822W        W 5022   8.952   1.092  11.440
  823W        W 5023   9.713   8.149   1.751
  824W        W 5024   3.748   9.504   2.323
  825W        W 5025   0.262   7.508   1.922
  826W        W 5026   4.686   9.894   8.800
  827W        W 5027   7.087   9.366  11.694
  828W        W 5028   5.433  10.352  10.330
  829W        W 5029   5.474   3.780   8.650
  830W        W 5030  10.461  11.348   9.850
  831W        W 5031  11.471   8.470  10.813
  832W        W 5032   1.306  10.866   2.958
  833W        W 5033   8.891   1.440  10.683
  834W        W 5034   7.252   0.087   9.714
  835W        W 5035  10.329   5.655   0.402
  836W        W 5036   8.628   3.720   8.169
  837W        W 5037  10.323   7.292  10.357
  838W        W 5038  10.329   2.923   9.762
  839W        W 5039   0.452   2.206  10.783
  840W        W 5040  10.931   0.068   0.798
  841W        W 5041   7.876   5.724   0.331
  842W        W 5042  10.876   0.708   9.901
  843W        W 5043   4.067   5.533  11.788
  844W        W 5044   3.728   8.937  10.089
  845W        W 5045   9.540  10.558  11.890
  846W        W 5046   4.677   0.487   0.963
  847W        W 5047   1.000   2.677   2.141
  848W        W 5048   1.970   0.442  11.051
  849W        W 5049  10.907   6.174  11.799
  850W        W 5050   9.356   5.667   0.672
  851W        W 5051   5.920   3.645   8.951
  852W        W 5052   1.625   9.374   2.153
  853W        W 5053   0.023   7.162   3.519
  854W        W 5054   8.009   7.206   2.554
  855W        W 5055   0.864   3.283  11.469
  856W        W 5056   6.565   0.285   1.994
  857W        W 5057   8.096   0.504   3.326
  858W        W 5058  10.696   9.783  11.514
  859W        W 5059   7.725   2.234   2.173
  860W        W 5060   5.112   7.003  10.452
  861W        W 5061   9.643   2.063   1.811
  862W        W 5062   6.634  11.270  10.764
  863W        W 5063   4.423   9.754   0.926
  864W        W 5064   5.935   6.621  10.408
  865W        W 5065   1.224   7.598   9.229
  866W        W 5066   1.890  10.612   9.853
  867W        W 5067  10.750   8.357   0.364
  868W        W 5068   8.869   9.964   1.053
  869W        W 5069   0.698   5.968   2.816
  870W        W 5070  10.804   9.580  10.055
  871W        W 5071   9.989  10.077   1.681
  872W        W 5072   2.666   2.249   3.635
  873W        W 5073   5.638   0.034   3.169
  874W        W 5074  11.008  11.161   9.009
  875W        W 5075   7.989   1.850   1.940
  876W        W 5076   2.973   0.664   9.548
  877W        W 5077  10.861   9.149   9.761
  878W        W 5078   4.639   1.929   2.488
  879W        W 5079   5.448   7.160  11.920
  880W        W 5080   8.572   3.223  11.293
  881W        W 5081   9.969  10.000   9.230
  882W        W 5082   0.343   6.093   9.405
  883W        W 5083   4.119   1.607  11.947
  884W        W 5084   8.506   1.736   8.883
  885W        W 5085  10.496   9.802   0.406
  886W        W 5086   4.204   7.227  10.901
  887W        W 5087   5.500   9.898   2.450
  888W        W 5088   4.981   6.909  11.949
  889W        W 5089   5.038   4.529   1.233
  890W        W 5090   4.363  11.268   2.988
  891W        W 5091   7.104   7.484   2.647
  892W        W 5092  11.147  10.285   2.334
  893W        W 5093   0.502   9.993   1.877
  894W        W 5094   0.815   0.679   9.111
  895W        W 5095   5.654   0.891  11.675
  896W        W 5096   7.850  10.397   0.279
  897W        W 5097   6.654   7.188   1.760
  898W        W 5098   9.422   7.332   1.866
  899W        W 5099   6.441   3.202   9.553
  900W        W 5100   6.171   6.989   3.059
  901W        W 5101   6.185   3.554  10.292
  902W        W 5102   3.392   9.337   0.282
  903W        W 5103   3.871   1.657  10.921
  904W        W 5104   2.009   0.462   9.526
  905W        W 5105   1.909   1.559   2.719
  906W        W 5106   5.165   6.944   9.249
  907W        W 5107  10.622   5.037  10.368
  908W        W 5108   8.951   9.314   9.324
  909W        W 5109   1.353   3.157   9.790
  910W        W 5110   3.818   3.734   2.173
  911W        W 5111   5.889   7.468   9.315
  912W        W 5112   6.726   7.808   3.228
  913W        W 5113   6.402  10.006   2.920
  914W        W 5114   0.901   3.636   9.314
  915W        W 5115   5.709  10.349  10.800
  916W        W 5116   3.531   0.802  10.470
  917W        W 5117   7.104   6.923   9.784
  918W        W 5118   9.729  11.427  10.325
  919W        W 5119   4.955   8.366   0.260
  920W        W 5120   7.037   0.510   2.717
  921W        W 5121   0.309   7.342  10.341
  922W        W 5122   3.577  10.382   2.490
  923W        W 5123   6.974   7.422   9.817
  924W        W 5124   9.052   6.443   8.392
  925W        W 5125   3.947   9.833  11.565
  926W        W 5126  10.425   7.654  11.528
  927W        W 5127   9.902   6.675  10.764
  928W        W 5128   2.841   1.389   3.357
  929W        W 5129   2.965   9.871   9.465
  930W        W 5130   7.638   6.682   0.317
  931W        W 5131   9.361  10.587   0.364
  932W        W 5132   0.242   4.608   0.820
  933W        W 5133  11.067   2.670  10.792
  934W        W 5134   1.852  10.416   2.622
  935W        W 5135   2.444   0.690   1.629
  936W        W 5136   9.816   4.151  11.913
  937W        W 5137  10.026   3.698  11.129
  938W        W 5138   1.359   7.521   3.270
  939W        W 5139   5.040   3.633  10.066
  940W        W 5140   8.658  10.525   0.900
  941W        W 5141   1.882   8.379   1.537
  942W        W 5142   9.336   2.895   1.571
  943W        W 5143   9.252   5.746   8.444
  944W        W 5144   6.782   7.576   0.780
  945W        W 5145   3.134   7.451   0.212
  946W        W 5146   4.770   9.509   3.241
  947W        W 5147   4.484   1.203  11.457
  948W        W 5148   7.613   3.337   2.454
  949W        W 5149   3.146  10.376  11.779
  950W        W 5150   6.685   8.980   9.832
  951W        W 5151   0.318   2.612   9.994
  952W        W 5152   2.320   7.195   9.036
  953W        W 5153   6.253   3.769  11.443
  954W        W 5154   0.693   7.309   2.658
  955W        W 5155   3.639   9.408   0.744
  956W        W 5156   0.505   1.691   9.079
  957W        W 5157  11.462   0.009   8.888
  958W        W 5158   6.754   9.793   0.374
  959W        W 5159   5.882   7.296  11.695
  960W        W 5160   4.952   7.984  10.666
  961W        W 5161   3.279   2.146   9.207
  962W        W 5162   3.716   1.976  11.310
  963W        W 5163   7.245   3.112  10.145
  964W        W 5164   7.725   9.553   0.242
  965W        W 5165   9.938   5.043   9.249
  966W        W 5166   4.456  11.006   0.884
  967W        W 5167   9.774   2.396  11.295
  968W        W 5168  10.811   9.425   9.098
  969W        W 5169   5.293   5.107   0.349
  970W        W 5170   9.144   5.937  10.245
  971W        W 5171   6.074   9.465   2.983
  972W        W 5172  11.287   6.525  11.887
  973W        W 5173   1.008   0.286   9.588
  974W        W 5174   1.015   0.509  10.419
  975W        W 5175   7.341   7.948  10.447
  976W        W 5176   0.224   0.784   2.851
  977W        W 5177   6.084   7.565  11.278
  978W        W 5178   4.544   4.540   1.340
  979W        W 5179  10.365  10.818   1.966
  980W        W 5180   3.069   0.835   1.223
  981W        W 5181   8.623   4.716   1.738
  982W        W 5182   4.704   7.584  10.318
  983W        W 5183   8.611   4.816  11.984
  984W        W 5184   3.215   7.385  11.710
  985W        W 5185   7.276   2.319   1.846
  986W        W 5186   8.441   2.733   3.567
  987W        W 5187   5.670  10.835   9.453
  988W        W 5188  11.378   8.651  11.631
  989W        W 5189   9.001   4.546   8.345
  990W        W 5190   9.332   0.358   1.074
  991W        W 5191   7.059   5.512  11.997
  992W        W 5192   3.912   2.174   2.927
  993W        W 5193   8.126   6.545   1.366
  994W        W 5194   3.901   6.656   8.979
  995W        W 5195   5.280  11.477   9.707
  996W        W 5196   6.915   8.605   1.316
  997W        W 5197  10.923  10.090  11.883
  998W        W 5198   1.888   5.026  10.744
  999W        W 5199   4.290   8.160   1.388
 1000W        W 5200   0.977   5.016   2.601
 1001W        W 5201  10.390   8.956  11.880
 1002W        W 5202   2.683   1.190  10.322
 1003W        W 5203   8.881   2.796   1.813
 1004W        W 5204   7.969   9.045   2.657
 1005W        W 5205   7.139   3.087  10.669
 1006W        W 5206  11.022   5.671  11.848
 1007W        W 5207   2.705   3.107   9.877
 1008W        W 5208   3.926   0.738   1.582
 1009W        W 5209   7.220   9.019  11.262
 1010W        W 5210   7.597   3.624  10.948
 1011W        W 5211   2.681   4.117   1.513
 1012W        W 5212   1.387   3.867   3.372
 1013W        W 5213  10.890  10.630   1.709
 1014W        W 5214   0.780   6.054   2.326
 1015W        W 5215  10.182   8.055   8.835
 1016W        W 5216   3.767  10.439   1.957
 1017W        W 5217  10.769   2.324   9.279
 1018W        W 5218   0.543   0.479   9.502
 1019W        W 5219   6.198  11.442   3.354
 1020W        W 5220   5.245   7.262   2.787
 1021W        W 5221   9.485  10.669   3.275
 1022W        W 5222   0.058   5.870   3.605
 1023W        W 5223   5.999   9.933   3.236
 1024W        W 5224   5.181   6.547   9.601
 1025W        W 5225   6.735  10.967  10.321
 1026W        W 5226   7.876   2.215  10.233
 1027W        W 5227   0.186  10.914   1.762
 1028W        W 5228   9.099   5.076   8.129
 1029W        W 5229   5.641   3.730   0.265
 1030W        W 5230   0.859   2.854   3.138
 1031W        W 5231   1.282   2.551  10.413
 1032W        W 5232   9.078   2.089   9.470
 1033W        W 5233   6.876   8.107  10.700
 1034W        W 5234   2.916   8.059   0.006
 1035W        W 5235   4.054   0.223   2.313
 1036W        W 5236   9.442   3.727   8.962
 1037W        W 5237  10.796   6.587   0.095
 1038W        W 5238   8.235   4.890   0.547
 1039W        W 5239   0.899  11.155   8.989
 1040W        W 5240  10.933   9.808   8.725
 1041W        W 5241   8.876   7.642   3.175
 1042W        W 5242   1.005   2.046   8.612
 1043W        W 5243   5.937   1.278   1.206
 1044W        W 5244   5.740   5.792   2.490
 1045W        W 5245   7.455   8.564   9.642
 1046W        W 5246  11.211   0.729   2.540
 1047W        W 5247   9.011   9.008  10.722
 1048W        W 5248   5.575   4.539  11.199
 1049W        W 5249   2.870   0.437   0.748
 1050W        W 5250   4.195  10.085   8.741
 1051W        W 5251   3.182   6.730  10.777
 1052W        W 5252   0.478  11.473   8.740
 1053W        W 5253   7.104   0.715   1.848
 1054W        W 5254   5.281  11.492   3.544
 1055W        W 5255   1.584   7.211  10.221
 1056W        W 5256   4.759   8.602   8.611
 1057W        W 5257   3.492   0.280   3.242
 1058W        W 5258   3.187   5.742   1.534
 1059W        W 5259   7.291   6.072   1.427
 1060W        W 5260   6.130   2.158   1.270
 1061W        W 5261   3.677   8.532   3.164
 1062W        W 5262   7.598   9.734   2.314
 1063W        W 5263   4.828   9.616  10.282
 1064W        W 5264   5.493   7.572   1.255
 1065W        W 5265   7.421   4.955   9.451
 1066W        W 5266  11.342   0.845   9.996
 1067W        W 5267   3.278   9.396   3.233
 1068W        W 5268   5.744   7.468   1.663
 1069W        W 5269   2.783   4.576  11.184
 1070W        W 5270   9.812   1.877  11.384
 1071W        W 5271   0.181   1.302   8.910
 1072W        W 5272   9.529   3.142  11.061
 1073W        W 5273   1.434   3.926  10.438
 1074W        W 5274   4.312   4.163   0.637
 1075W        W 5275   5.763  10.317   2.282
 1076W        W 5276   9.142   3.175   2.587
 1077W        W 5277   5.823  11.103   1.737
 1078W        W 5278   1.180   2.704   3.492
 1079W        W 5279  10.933  11.442  10.885
 1080W        W 5280   7.663  11.336   2.147
 1081W        W 5281   7.009   1.035   2.681
 1082W        W 5282   2.530   4.370  11.591
 1083W        W 5283   1.000   4.598  10.920
 1084W        W 5284   2.034   1.492   8.478
 1085W        W 5285   7.303   2.212  11.881
 1086W        W 5286   0.780   3.760   1.319
 1087W        W 5287   9.750   9.508   1.996
 1088W        W 5288   7.771   3.886  11.378
 1089W        W 5289   6.396   7.424   3.158
 1090W        W 5290   8.646   5.120   0.406
 1091W        W 5291   4.796   9.118   3.579
 1092W        W 5292   4.268   6.514   9.531
 1093W        W 5293   4.170   4.160   1.215
 1094W        W 5294   8.087   5.152   3.937
 1095W        W 5295   7.082   3.953   9.510
 1096W        W 5296   2.856   1.274   9.289
 1097W        W 5297   5.528   3.236   3.053
 1098W        W 5298   6.939   0.975   9.351
 1099W        W 5299   7.968   9.444   2.981
 1100W        W 5300   4.531   6.522   9.963
 1101W        W 5301   5.134   2.382   1.349
 1102W        W 5302   4.538   6.558  11.459
 1103W        W 5303   7.677   7.483   0.873
 1104W        W 5304   5.453  10.370   0.277
 1105W        W 5305  10.924   2.278  11.981
 1106W        W 5306   5.107   2.039  10.441
 1107W        W 5307   4.663   5.590  11.004
 1108W        W 5308   2.886   0.849   2.641
 1109W        W 5309   1.183   0.434   0.213
 1110W        W 5310  10.478   0.795   1.903
 1111W        W 5311   6.047   7.879  10.505
 1112W        W 5312   5.118   4.469   3.416
 1113W        W 5313   0.539   6.172   8.912
 1114W        W 5314   3.816   4.079   0.851
 1115W        W 5315   4.852   2.764   9.014
 1116W        W 5316   3.284   9.138  10.563
 1117W        W 5317   6.683   9.020  11.698
 1118W        W 5318   5.821   3.254  11.680
 1119W        W 5319   5.094   4.672   2.179
 1120W        W 5320   5.342   6.103   9.993
 1121W        W 5321   4.609   5.111  10.697
 1122W        W 5322   5.243   0.312   1.812
 1123W        W 5323   2.593  11.046   1.542
 1124W        W 5324   1.798   7.781  10.915
 1125W        W 5325   3.637   0.734   0.201
 1126W        W 5326   9.357   0.366  11.872
 1127W        W 5327   4.961   0.207   8.893
 1128W        W 5328   8.164   8.925  11.236
 1129W        W 5329   7.464   0.160  11.940
 1130W        W 5330  10.337  10.334   3.228
 1131W        W 5331   0.592   8.787   1.290
 1132W        W 5332   7.489   9.398   3.303
 1133W        W 5333   0.490   8.186   2.139
 1134W        W 5334  10.448   6.927   1.862
 1135W        W 5335   6.433   0.048  11.904
 1136W        W 5336   5.733   7.549   2.169
 1137W        W 5337   6.999   6.510  11.809
 1138W        W 5338   9.889   8.097   1.285
 1139W        W 5339   6.055   9.695   9.098
 1140W        W 5340   7.211  10.908   3.347
 1141W        W 5341   5.247  11.283   0.466
 1142W        W 5342   4.597  11.405  10.603
 1143W        W 5343  10.466   0.987   8.787
 1144W        W 5344   6.187   2.963   1.716
 1145W        W 5345  11.234   2.713   1.411
 1146W        W 5346   0.908   7.054  11.990
 1147W        W 5347   9.480  10.740   2.770
 1148W        W 5348  10.882   1.125  10.186
 1149W        W 5349   3.430   0.828   1.651
 1150W        W 5350   8.846   2.473   0.930
 1151W        W 5351   8.475  10.248   1.314
 1152W        W 5352   0.971   7.110   9.264
 1153W        W 5353   7.378   1.140   0.737
 1154W        W 5354   6.638   7.576   0.284
 1155W        W 5355   5.080   9.855  11.814
 1156W        W 5356  11.050   3.217   1.338
 1157W        W 5357   1.413   1.463  10.642
 1158W        W 5358   5.035   1.700   2.273
 1159W        W 5359   0.113   6.477   0.518
 1160W        W 5360   0.391   6.617  11.523
 1161W        W 5361   4.821   3.307  11.460
 1162W        W 5362   4.799  11.321  11.577
 1163W        W 5363   7.957   4.428   2.052
 1164W        W 5364   5.105   0.878   2.492
 1165W        W 5365   9.833   0.877   1.060
 1166W        W 5366   8.768   3.582   8.634
 1167W        W 5367   4.106   2.384   9.806
 1168W        W 5368   2.467   1.889   0.966
 1169W        W 5369   0.510  10.876   3.370
 1170W        W 5370   0.112   8.213  10.402
 1171W        W 5371   2.272   9.663   8.937
 1172W        W 5372   5.031   5.676   1.362
 1173W        W 5373   9.314   4.218   9.069
 1174W        W 5374  11.275   5.227   0.540
 1175W        W 5375   1.745   1.043   8.812
 1176W        W 5376   3.566   7.230   1.032
 1177W        W 5377   3.620   4.939   9.452
 1178W        W 5378   7.380  10.893   1.222
 1179W        W 5379   3.134   1.179  11.072
 1180W        W 5380   9.886   9.003  11.082
 1181W        W 5381   3.440   7.459   9.835
 1182W        W 5382  11.225   1.869  11.890
 1183W        W 5383  11.480   1.304   9.806
 1184W        W 5384   7.869   4.605   1.257
 1185W        W 5385   7.876  10.678  10.493
 1186W        W 5386  10.001   5.219   2.939
 1187W        W 5387   7.490   4.116  10.929
 1188W        W 5388   0.079   0.855  11.730
 1189W        W 5389   5.835   1.333  11.856
 1190W        W 5390   2.775   4.070  10.983
 1191W        W 5391   6.774   8.197  11.599
 1192W        W 5392   9.209   1.151  10.432
 1193W        W 5393   4.812   0.165   9.853
 1194W        W 5394   8.001   5.228   1.435
 1195W        W 5395   5.053  10.874   1.728
 1196W        W 5396   8.316  10.981   0.936
 1197W        W 5397  10.279   8.955   0.990
 1198W        W 5398  11.379   5.104   3.564
 1199W        W 5399   1.743   5.216   9.002
 1200W        W 5400   2.567   7.993   0.943
 1201W        W 5401   6.151   6.694   3.815
 1202W        W 5402   7.031   5.642   1.442
 1203W        W 5403   8.727   4.070   2.275
 1204W        W 5404   0.006   1.856   9.079
 1205W        W 5405   9.055   2.377   2.979
 1206W        W 5406   1.434   1.749   0.183
 1207W        W 5407   1.763   2.385   1.785
 1208W        W 5408   0.817   9.800   9.874
 1209W        W 5409   6.889   9.936  10.920
 1210W        W 5410   4.522   4.785   8.249
 1211W        W 5411   7.923   8.932  10.392
 1212W        W 5412   4.655   3.814   0.858
 1213W        W 5413   8.963   9.873  10.614
 1214W        W 5414   1.979   7.569  11.353
 1215W        W 5415   6.012   3.608   4.116
 1216W        W 5416   0.005   0.412  10.393
 1217W        W 5417   7.994  10.787  11.543
 1218W        W 5418   5.834   3.099   1.383
 1219W        W 5419   2.291   4.104  10.583
 1220W        W 5420   0.683   8.727   9.029
 1221W        W 5421   6.219   4.550   9.392
 1222W        W 5422  11.385   9.796   1.626
 1223W        W 5423   1.823  10.091  11.580
 1224W        W 5424   0.906   1.925   9.380
 1225W        W 5425   8.446   9.510   2.778
 1226W        W 5426   5.476   0.849   9.602
 1227W        W 5427   5.425   3.356   1.098
 1228W        W 5428   9.229   2.044   0.392
 1229W        W 5429   5.670   8.991   2.009
 1230W        W 5430  10.006   9.919   2.705
 1231W        W 5431   6.652   4.181   3.156
 1232W        W 5432   9.918   9.872   1.210
 1233W        W 5433   9.223   0.629  10.413
 1234W        W 5434   3.782   8.034  10.009
 1235W        W 5435   8.715   2.185   0.256
 1236W        W 5436   9.090   9.480   1.374
 1237W        W 5437   1.823   2.628  10.122
 1238W        W 5438   8.910   7.187   9.986
 1239W        W 5439   5.602   9.553   8.899
 1240W        W 5440   3.117   2.364  10.127
 1241W        W 5441   1.257   4.726   0.143
 1242W        W 5442  11.423   1.886   1.995
 1243W        W 5443   9.443   5.136   9.060
 1244W        W 5444  11.242  11.261   0.544
 1245W        W 5445   2.600  10.760   9.569
 1246W        W 5446   8.551   9.544   0.792
 1247W        W 5447   3.875   0.427   9.690
 1248W        W 5448   5.939   4.751  11.870
 1249W        W 5449   0.775   0.089   0.267
 1250W        W 5450   7.211   2.293   9.357
 1251W        W 5451   2.584   2.331   0.422
 1252W        W 5452   3.191   1.741   2.492
 1253W        W 5453  10.857   7.989  11.600
 1254W        W 5454   8.496   1.745   1.860
 1255W        W 5455   9.364   7.623   3.077
 1256W        W 5456   8.508   5.744  11.833
 1257W        W 5457   5.636   2.125  10.890
 1258W        W 5458   2.132   6.539   8.529
 1259W        W 5459  10.879   4.121   9.112
 1260W        W 5460   4.820  10.265   9.139
 1261W        W 5461   3.351   6.099  10.202
 1262W        W 5462  11.239   2.327   2.949
 1263W        W 5463   1.170   1.799  10.313
 1264W        W 5464   8.907   9.938   2.046
 1265W        W 5465   3.218   1.591   9.605
 1266W        W 5466   0.742  10.692   8.797
 1267W        W 5467  10.529   1.343  11.039
 1268W        W 5468  11.359   8.823  11.152
 1269W        W 5469   8.764   3.196   3.537
 1270W        W 5470   2.181  11.374   1.396
 1271W        W 5471   3.434  11.138   2.526
 1272W        W 5472   5.896   4.161  11.446
 1273W        W 5473   2.250   9.024   1.005
 1274W        W 5474   0.900   0.430   2.640
 1275W        W 5475   7.659  11.105   2.600
 1276W        W 5476   3.792   8.155   8.714
 1277W        W 5477   6.103   6.505   0.298
 1278W        W 5478  11.353   7.420  11.914
 1279W        W 5479   1.541   4.377   9.001
 1280W        W 5480   5.533  11.461   2.653
 1281W        W 5481  11.434   7.581   1.098
 1282W        W 5482   6.118   4.847   0.848
 1283W        W 5483   4.669   3.582  10.980
 1284W        W 5484   8.520   2.480   1.363
 1285W        W 5485   1.960  10.884  10.949
 1286W        W 5486   7.714   4.371   3.267
 1287W        W 5487   6.679   8.374   8.996
 1288W        W 5488   7.717   2.233   2.690
 1289W        W 5489   1.586   7.040  11.530
 1290W        W 5490   7.092   1.885  11.287
 1291W        W 5491   5.559   6.605   2.610
 1292W        W 5492   9.024   3.330   1.133
 1293W        W 5493   9.388   7.450   0.416
 1294W        W 5494   8.007   2.938  11.870
 1295W        W 5495   0.497   7.099  11.717
 1296W        W 5496  10.918  10.926   2.645
 1297W        W 5497   5.472   2.372   3.502
 1298W        W 5498   1.109   2.454  11.686
 1299W        W 5499   9.922   9.465   2.470
 1300W        W 5500   0.990   8.388   8.320
 1301W        W 5501   9.174   4.220   2.112
 1302W        W 5502   6.207  10.418   1.995
 1303W        W 5503   5.690   4.116   3.537
 1304W        W 5504   3.779   9.815   8.911
 1305W        W 5505  11.021  11.023  10.470
 1306W        W 5506   3.838   9.805  10.602
 1307W        W 5507   2.536   7.516   1.148
 1308W        W 5508  10.892  10.015   0.892
 1309W        W 5509   0.954   3.664   1.822
 1310W        W 5510   2.138   0.855   9.884
 1311W        W 5511   7.013   1.266   1.056
 1312W        W 5512   6.691   4.325  11.764
 1313W        W 5513  10.936   8.526   1.880
 1314W        W 5514   1.043   0.824  10.872
 1315W        W 5515   3.596  11.244  10.384
 1316W        W 5516   9.340   1.052   2.572
 1317W        W 5517   9.505   2.421   0.107
 1318W        W 5518   1.764  10.816   0.141
 1319W        W 5519  10.030   6.102  11.978
 1320W        W 5520   6.557   4.774   1.120
 1321W        W 5521   2.782   7.383   8.901
 1322W        W 5522   8.945   0.032   3.225
 1323W        W 5523  11.004   9.941   3.690
 1324W        W 5524   1.088   5.621   3.376
 1325W        W 5525   2.398   7.926   1.454
 1326W        W 5526   0.433   3.144   2.797
 1327W        W 5527   6.426   6.691   0.645
 1328W        W 5528   3.203  10.160   3.233
 1329W        W 5529   3.594   0.352   1.433
 1330W        W 5530   2.556   1.103   9.683
 1331W        W 5531   3.326   7.152   0.572
 1332W        W 5532  11.021   1.640   9.329
 1333W        W 5533   2.621   3.505  11.795
 1334W        W 5534   5.731   5.259   1.199
 1335W        W 5535   6.160   2.895  11.806
 1336W        W 5536   6.015   1.315  10.299
 1337W        W 5537   4.626   7.954  11.550
 1338W        W 5538  11.325   9.297   9.109
 1339W        W 5539  11.311   9.775   0.715
 1340W        W 5540   7.473   6.839   9.428
 1341W        W 5541   3.323  10.609   9.121
 1342W        W 5542   2.252   6.926   2.291
 1343W        W 5543   8.722   4.692  10.613
 1344W        W 5544   8.972   3.274   3.070
 1345W        W 5545   7.499   7.026   2.662
 1346W        W 5546   9.091   6.481   0.947
 1347W        W 5547   5.348   0.043   9.185
 1348W        W 5548   0.897   9.788  11.818
 1349W        W 5549  10.724  11.129   1.802
 1350W        W 5550   5.787  10.491   2.822
 1351W        W 5551   3.905   1.601   2.064
 1352W        W 5552   3.223   4.656  11.862
 1353W        W 5553   7.039   9.495   3.023
 1354W        W 5554   4.055   1.291  10.614
 1355W        W 5555   3.596  10.728  10.335
 1356W        W 5556   5.393   4.041  11.421
 1357W        W 5557   6.962   9.027   1.068
 1358W        W 5558   8.906   1.437  10.147
 1359W        W 5559   1.933   3.870  10.285
 1360W        W 5560   0.236   5.006   9.470
 1361W        W 5561   3.346   7.644  11.291
 1362W        W 5562   6.497   2.580   1.823
 1363W        W 5563   4.151  11.272   9.397
 1364W        W 5564   1.293   4.393   3.374
 1365W        W 5565   4.102   8.188   2.271
 1366W        W 5566   5.626   1.201  10.903
 1367W        W 5567   1.822   7.112   9.780
 1368W        W 5568   1.807   3.607  11.718
 1369W        W 5569   3.115   8.682   1.314
 1370W        W 5570   8.167   7.644   0.816
 1371W        W 5571   4.574   1.859   9.416
 1372W        W 5572   7.731   1.462   2.194
 1373W        W 5573   7.652   1.412   9.254
 1374W        W 5574   9.271   0.352   8.243
 1375W        W 5575   3.375   2.560   3.515
 1376W        W 5576   2.977   9.635   1.668
 1377W        W 5577   1.296   0.290  10.047
 1378W        W 5578   3.983   4.052  10.560
 1379W        W 5579   2.177   5.315   1.135
 1380W        W 5580   5.075   3.632   3.939
 1381W        W 5581   3.744   8.801  11.104
 1382W        W 5582   7.114   8.923   9.540
 1383W        W 5583   9.050  10.337   9.287
 1384W        W 5584   6.620   1.353   3.423
 1385W        W 5585   2.176   9.945   3.124
 1386W        W 5586   4.155   6.215  10.774
 1387W        W 5587   4.147   9.355   0.757
 1388W        W 5588   4.544   0.096   2.373
 1389W        W 5589   1.433   1.135  11.043
 1390W        W 5590   2.687  11.128  11.744
 1391W        W 5591   8.474   0.999   1.095
 1392W        W 5592   5.082   3.272  10.969
 1393W        W 5593   9.343   0.797   3.000
 1394W        W 5594   3.245   2.638   2.839
 1395W        W 5595  11.224   2.183   3.445
 1396W        W 5596   8.541   9.597   3.620
 1397W        W 5597   6.001   7.300   8.610
 1398W        W 5598   3.084   2.364   0.468
 1399W        W 5599   3.619  10.613  11.750
 1400W        W 5600   2.342   4.140   0.866
 1401W        W 5601   8.437   0.744  10.720
 1402W        W 5602  10.297  10.480   9.739
 1403W        W 5603   2.746   7.851   0.458
 1404W        W 5604   8.467   8.833   8.564
 1405W        W 5605   8.187   5.983   8.290
 1406W        W 5606   5.756  10.312   1.747
 1407W        W 5607   6.612   8.086   0.717
 1408W        W 5608   5.653   2.342   8.669
 1409W        W 5609   3.486   1.934   2.134
 1410W        W 5610   3.315   5.719  10.552
 1411W        W 5611  11.309   2.719   3.479
 1412W        W 5612   6.036   2.821   3.666
 1413W        W 5613   6.191  10.546   1.509
 1414W        W 5614   9.680   1.455  11.108
 1415W        W 5615  10.447   0.703   0.463
 1416W        W 5616   2.576   5.671   2.638
 1417W        W 5617   6.084   8.861   2.793
 1418W        W 5618   5.585   8.643   9.917
 1419W        W 5619  10.986   9.910   0.362
 1420W        W 5620   6.536   4.369   8.966
 1421W        W 5621   8.679   8.101   0.060
 1422W        W 5622   7.437   4.326  10.314
 1423W        W 5623   4.647   5.633  10.492
 1424W        W 5624   8.824   4.812   0.808
 1425W        W 5625   4.917   9.615   3.702
 1426W        W 5626   2.390   7.061   1.431
 1427W        W 5627   9.949   2.837  11.099
 1428W        W 5628   1.358   1.661   9.329
 1429W        W 5629   9.696   9.186   0.412
 1430W        W 5630  10.419   1.659   0.223
 1431W        W 5631   4.179   4.694   9.362
 1432W        W 5632   2.223   6.390   9.397
 1433W        W 5633   9.557   6.519   9.072
 1434W        W 5634   7.717   9.408  10.274
 1435W        W 5635   2.430   8.160   1.907
 1436W        W 5636   8.105   8.614   8.906
 1437W        W 5637   9.739   2.093   0.742
 1438W        W 5638   8.977   7.510  11.502
 1439W        W 5639   8.477   4.752   2.674
 1440W        W 5640   8.604   6.475   9.668
 1441W        W 5641   1.684  10.973   1.860
 1442W        W 5642   8.148   6.414   9.460
 1443W        W 5643  11.333   6.002   3.150
 1444W        W 5644   8.030   0.274  11.330
 1445W        W 5645   7.570   7.170   0.486
 1446W        W 5646   0.317   5.846   2.253
 1447W        W 5647   5.219  10.814  10.245
 1448W        W 5648   7.350   7.825   2.308
 1449W        W 5649   6.036   2.023   8.858
 1450W        W 5650   6.328   6.067  10.127
 1451W        W 5651   8.691   4.069   3.342
 1452W        W 5652   5.595   9.304  11.304
 1453W        W 5653   7.263   9.751   0.042
 1454W        W 5654   8.666   3.718   0.422
 1455W        W 5655   8.880  11.188  11.897
 1456W        W 5656   4.962  11.167   0.895
 1457W        W 5657   4.895   3.268   9.184
 1458W        W 5658   1.920   4.748   8.914
 1459W        W 5659   5.439   6.608  10.358
 1460W        W 5660   1.253   1.239   0.048
 1461W        W 5661   6.223   8.010   0.245
 1462W        W 5662   9.776   8.624   0.579
 1463W        W 5663  10.761   2.782   1.208
 1464W        W 5664   0.297  10.358  11.313
 1465W        W 5665   6.017   0.878   0.042
 1466W        W 5666   1.365   9.090  11.645
 1467W        W 5667   2.294   1.445  10.607
 1468W        W 5668   2.084   9.362   9.344
 1469W        W 5669   5.227   9.283   3.291
 1470W        W 5670   6.500   9.499   2.289
 1471W        W 5671   5.987   5.515  10.353
 1472W        W 5672   8.463   3.060   3.106
 1473W        W 5673   3.915   0.421  10.943
 1474W        W 5674   7.259   5.076   9.947
 1475W        W 5675   7.588   5.888  11.210
 1476W        W 5676   2.950   1.260   0.420
 1477W        W 5677   8.425   9.757   1.270
 1478W        W 5678  10.696   5.268  11.770
 1479W        W 5679   3.191   4.551   3.450
 1480W        W 5680   0.575   0.802  11.748
 1481W        W 5681   8.583   6.936  10.272
 1482W        W 5682   0.688   8.150  10.042
 1483W        W 5683   0.360   0.754  11.281
 1484W        W 5684   5.952   9.021   1.010
 1485W        W 5685   4.743   0.485   1.825
 1486W        W 5686   2.846   0.444   8.965
 1487W        W 5687   7.795   3.075   2.871
 1488W        W 5688   9.093   3.339   9.438
 1489W        W 5689   2.781   4.242   3.463
 1490W        W 5690   1.736   2.697  10.630
 1491W        W 5691  10.887   9.917   9.238
 1492W        W 5692   0.287   7.629  10.833
 1493W        W 5693   9.146   6.229   2.288
 1494W        W 5694   7.489   5.748  11.725
 1495W        W 5695   5.945   5.183  11.384
 1496W        W 5696   1.461   6.187   1.660
 1497W        W 5697   1.905   6.141   1.408
 1498W        W 5698  10.938   4.069   0.597
 1499W        W 5699   9.474   5.950   9.735
 1500W        W 5700   2.574   5.259  11.814
 1501W        W 5701   7.911   1.313   3.155
 1502W        W 5702   2.383   0.975  11.994
 1503W        W 5703   6.123   1.264  10.799
 1504W        W 5704   5.251   1.555  10.596
 1505W        W 5705   0.056   0.332   9.490
 1506W        W 5706   0.390   8.425   0.968
 1507W        W 5707   2.073   4.036  11.401
 1508W        W 5708   2.872   0.327   9.929
 1509W        W 5709   0.265   5.597   2.702
 1510W        W 5710   6.461   2.073  11.864
 1511W        W 5711   4.255   2.554  11.877
 1512W        W 5712   3.560   2.084   9.999
 1513W        W 5713   1.022   2.069   0.081
 1514W        W 5714   6.567   8.143   9.494
 1515W        W 5715   0.121  10.437   2.409
 1516W        W 5716   1.325   3.992   1.964
 1517W        W 5717   4.322  10.981   8.967
 1518W        W 5718  10.957   6.713   9.714
 1519W        W 5719   1.633  10.382   3.552
 1520W        W 5720   2.501   5.789  10.004
 1521W        W 5721   4.909   2.344   3.415
 1522W        W 5722   3.290   5.015  10.053
 1523W        W 5723   2.111   4.577  11.407
 1524W        W 5724  11.335   3.308  10.581
 1525W        W 5725   1.675   7.475   1.728
 1526W        W 5726   6.581   0.767   8.913
 1527W        W 5727   7.825   9.869  11.302
 1528W        W 5728  10.664   4.291  11.771
 1529W        W 5729   6.818   1.002  11.517
 1530W        W 5730   3.169   9.758   0.468
 1531W        W 5731   3.744   2.784   1.172
 1532W        W 5732   7.357   5.598  10.814
 1533W        W 5733   7.155   4.864  11.171
 1534W        W 5734   8.519   8.641   4.070
 1535W        W 5735   7.992   5.732  10.041
 1536W        W 5736  10.537   5.990   2.761
 1537W        W 5737   6.456   4.726  10.183
 1538W        W 5738   2.481   0.502   8.593
 1539W        W 5739   3.309   2.728  10.442
 1540W        W 5740   5.672   1.798   8.538
 1541W        W 5741   5.830   6.119   1.364
 1542W        W 5742   1.862   7.464   9.020
 1543W        W 5743   9.972   9.846  11.722
 1544W        W 5744   1.481   3.296   2.718
 1545W        W 5745   7.740   0.073   0.369
 1546W        W 5746   8.492  11.431   2.130
 1547W        W 5747   5.191   3.976   3.579
 1548W        W 5748   3.790   8.508   0.726
 1549W        W 5749   7.947   1.439   2.666
 1550W        W 5750   3.749   0.728   0.769
 1551W        W 5751   8.032   8.466   2.353
 1552W        W 5752  10.483   2.293   2.986
 1553W        W 5753   2.211   8.101   9.925
 1554W        W 5754  10.984   7.188  10.987
 1555W        W 5755   4.559   3.521   8.624
 1556W        W 5756   5.033   3.576   8.798
 1557W        W 5757   3.838   1.236   1.687
 1558W        W 5758  11.053   0.397   2.916
 1559W        W 5759  10.561   5.208   2.247
 1560W        W 5760   7.196   5.265  10.434
 1561W        W 5761   4.798   3.572   2.455
 1562W        W 5762   8.932   2.007   8.976
 1563W        W 5763   8.623   3.332   0.786
 1564W        W 5764   5.694   2.721   0.012
 1565W        W 5765   4.612  10.789   9.374
 1566W        W 5766   0.834   4.709  10.450
 1567W        W 5767   2.839   1.354   2.832
 1568W        W 5768   5.270   5.094   1.955
 1569W        W 5769   3.290   7.482   8.979
 1570W        W 5770   5.549   2.683   1.430
 1571W        W 5771   4.245   0.753   9.078
 1572W        W 5772   5.547   4.962  10.876
 1573W        W 5773  10.351   4.757  10.722
 1574W        W 5774  10.888   9.844   2.187
 1575W        W 5775   7.955   6.559   2.299
 1576W        W 5776   0.358   5.659   1.049
 1577W        W 5777   8.603   0.731   9.883
 1578W        W 5778  10.505   2.394  11.047
 1579W        W 5779   8.005   7.894   1.786
 1580W        W 5780   5.544   3.849   1.102
 1581W        W 5781   9.107   8.396   0.035
 1582W        W 5782   9.700   5.095  10.016
 1583W        W 5783   9.932   9.114   9.593
 1584W        W 5784  11.287   7.217   0.774
 1585W        W 5785   4.677  10.704  11.020
 1586W        W 5786   9.515  10.091   0.350
 1587W        W 5787   0.718   0.637   0.223
 1588W        W 5788   2.783   6.640   1.793
 1589W        W 5789   3.182   0.428  10.521
 1590W        W 5790   4.816   5.134   0.523
 1591W        W 5791   0.823   4.530   9.895
 1592W        W 5792   1.525   1.870   1.146
 1593W        W 5793   3.984   2.637   9.079
 1594W        W 5794   4.419   6.624   9.061
 1595W        W 5795   9.484   0.082   9.907
 1596W        W 5796  10.574   8.550   0.822
 1597W        W 5797  10.795   2.695   0.709
 1598W        W 5798   0.958  11.115   3.286
 1599W        W 5799   9.013  11.345   2.216
 1600W        W 5800  10.416   3.820  10.843
 1601W        W 5801   1.727   7.262  10.710
 1602W        W 5802   0.865  11.370   2.453
 1603W        W 5803   4.016   1.083   1.205
 1604W        W 5804   0.096   4.613   9.189
 1605W        W 5805  11.380  10.836   1.319
 1606W        W 5806   1.269   8.638  11.398
 1607W        W 5807   1.847   3.386   8.869
 1608W        W 5808   4.345   2.275  10.499
 1609W        W 5809   0.651   3.300   3.209
 1610W        W 5810   3.022   9.548   2.826
 1611W        W 5811   7.606   7.199  11.970
 1612W        W 5812   1.644   0.171  10.748
 1613W        W 5813   7.404   9.839  11.560
 1614W        W 5814  11.399   4.545  11.479
 1615W        W 5815  11.030   2.015   8.962
 1616W        W 5816   8.626   6.435  10.218
 1617W        W 5817   0.263  11.003  11.948
 1618W        W 5818   2.682   6.434   3.985
 1619W        W 5819   4.627   7.051  11.598
 1620W        W 5820   9.851   1.223   1.688
 1621W        W 5821   5.210   1.328   2.756
 1622W        W 5822   1.716   4.896   1.847
 1623W        W 5823   3.821   9.910   2.673
 1624W        W 5824   8.840   2.817   2.327
 1625W        W 5825   4.480   8.214   9.043
 1626W        W 5826   6.730   3.591   9.433
 1627W        W 5827   9.807   6.974   9.088
 1628W        W 5828   4.431   2.762   9.276
 1629W        W 5829   8.616   8.887   2.446
 1630W        W 5830   2.208   0.978  10.361
 1631W        W 5831   2.527   4.503   0.546
 1632W        W 5832   6.062   7.943   9.524
 1633W        W 5833   1.542   1.319   2.257
 1634W        W 5834   4.316   1.454   1.743
 1635W        W 5835   1.449   8.652   1.518
 1636W        W 5836   2.894   2.353  11.604
 1637W        W 5837   8.375   1.380   3.382
 1638W        W 5838   5.005   7.229   9.638
 1639W        W 5839   2.532   3.541   2.587
 1640W        W 5840  10.322   7.947   0.421
 1641W        W 5841   3.837   5.968   0.457
 1642W        W 5842   3.808   0.920  10.890
 1643W        W 5843   5.430   3.309   1.606
 1644W        W 5844   7.276   3.819  11.347
 1645W        W 5845   3.582   0.889   3.391
 1646W        W 5846   2.191   1.768  11.015
 1647W        W 5847   2.241   5.222   0.198
 1648W        W 5848   0.025   4.222  10.258
 1649W        W 5849   2.840   5.034   2.555
 1650W        W 5850   7.930   5.052   9.526
 1651W        W 5851   2.891   9.890   0.890
 1652W        W 5852   4.027   9.836   0.068
 1653W        W 5853   9.088   3.949  11.260
 1654W        W 5854  10.764  10.752   9.155
 1655W        W 5855   0.006   0.044   3.567
 1656W        W 5856   0.539   7.476   0.220
 1657W        W 5857   4.710   2.099  10.794
 1658W        W 5858   8.091   3.171   1.173
 1659W        W 5859   9.158   6.252   2.812
 1660W        W 5860   1.642   8.341   8.831
 1661W        W 5861  10.900   5.753   9.995
 1662W        W 5862   5.530   0.262   0.466
 1663W        W 5863   2.201   8.141   2.794
 1664W        W 5864   0.418  11.261   3.717
 1665W        W 5865   1.084   2.247   2.375
 1666W        W 5866   8.025   7.548   2.151
 1667W        W 5867   9.062   1.991   2.641
 1668W        W 5868   2.325   5.575  11.434
 1669W        W 5869   6.312   8.311  10.343
 1670W        W 5870   8.090   7.998  11.580
 1671W        W 5871   0.224   4.205   3.389
 1672W        W 5872  11.476   5.193   2.775
 1673W        W 5873   2.918  10.195   0.433
 1674W        W 5874   6.096   3.021   2.369
 1675W        W 5875   2.037   4.818   2.712
 1676W        W 5876   9.028  11.149  11.292
 1677W        W 5877   4.770   9.976   3.021
 1678W        W 5878   8.358   7.617  10.737
 1679W        W 5879   4.744   9.414   9.737
 1680W        W 5880   8.095   0.663  11.663
 1681W        W 5881   1.671   9.555   9.627
 1682W        W 5882   7.554   2.000   3.446
 1683W        W 5883   8.938   1.451   8.806
 1684W        W 5884   1.980   7.629   9.914
 1685W        W 5885   0.024  10.938  10.643
 1686W        W 5886   0.216   0.275  11.016
 1687W        W 5887   4.335  10.457   9.066
 1688W        W 5888   6.608   4.396   8.449
 1689W        W 5889   8.610  11.396  11.441
 1690W        W 5890   4.701   2.074   8.470
 1691W        W 5891   9.429   4.133   3.137
 1692W        W 5892   9.019   8.778   9.375
 1693W        W 5893   2.095   7.208   1.872
 1694W        W 5894   9.562   2.626  10.857
 1695W        W 5895   3.270   2.911   1.352
 1696W        W 5896   7.067   1.810   9.462
 1697W        W 5897   3.555   3.846  11.811
 1698W        W 5898  11.111   4.983  10.488
 1699W        W 5899   8.942   9.100   3.442
 1700W        W 5900  11.217   9.334   2.466
 1701W        W 5901   4.306   2.433   3.193
 1702W        W 5902   0.306   7.524   0.743
 1703W        W 5903   3.055   6.172   9.357
 1704W        W 5904   1.321   0.318  11.733
 1705W        W 5905  10.466   9.380   1.266
 1706W        W 5906   9.005   3.767  10.792
 1707W        W 5907   6.006   2.308  10.098
 1708W        W 5908  11.277   3.304  10.076
 1709W        W 5909   8.816   7.107   2.566
 1710W        W 5910   8.360   9.875  11.308
 1711W        W 5911   2.759  11.394   0.697
 1712W        W 5912   7.516   2.702   2.671
 1713W        W 5913  10.463   9.532   8.731
 1714W        W 5914   4.573   8.675   3.381
 1715W        W 5915   0.438   1.947   3.381
 1716W        W 5916   2.357   2.837   1.320
 1717W        W 5917   6.066   9.344  11.062
 1718W        W 5918   7.318   7.819   1.453
 1719W        W 5919   6.137   0.504   8.792
 1720W        W 5920   6.527  10.930   8.798
 1721W        W 5921   7.961   0.486   8.856
 1722W        W 5922   7.115   7.251   9.356
 1723W        W 5923   5.952   7.563   0.245
 1724W        W 5924   1.748   7.413   2.998
 1725W        W 5925  10.460   3.131   2.375
 1726W        W 5926   1.336   9.782   3.789
 1727W        W 5927  10.678   6.970   1.388
 1728W        W 5928   8.362   6.870   9.337
 1729W        W 5929   7.071  10.022   9.080
 1730W        W 5930   4.465   8.180   3.228
 1731W        W 5931   4.580   7.093  10.522
 1732W        W 5932   2.883   9.439  10.896
 1733W        W 5933   3.087   9.972  11.041
 1734W        W 5934   8.147   6.650  10.407
 1735W        W 5935  11.292   1.411   1.816
 1736W        W 5936   4.225   7.654   3.132
 1737W        W 5937   2.151   7.146   0.981
 1738W        W 5938   0.335   1.302   9.408
 1739W        W 5939  11.044  11.252   1.277
 1740W        W 5940   4.481   5.287   0.955
 1741W        W 5941   5.238   7.842   1.624
 1742W        W 5942   9.714   5.506   9.461
 1743W        W 5943   9.120   4.886   8.710
 1744W        W 5944  11.318   5.464  10.390
 1745W        W 5945  10.724   0.576   2.517
 1746W        W 5946   8.257   1.493   2.234
 1747W        W 5947   9.632   7.139  11.815
 1748W        W 5948   1.771   0.569  11.510
 1749W        W 5949   8.552   0.448   2.243
 1750W        W 5950  10.954   7.196   3.121
 1751W        W 5951  10.850   9.141   2.740
 1752W        W 5952   1.728   2.681  11.151
 1753W        W 5953   2.608   7.214   2.804
 1754W        W 5954   6.494   0.154   0.954
 1755W        W 5955   8.626   1.014   1.579
 1756W        W 5956   7.089   8.909  10.766
 1757W        W 5957   9.005   7.442   9.080
 1758W        W 5958   4.899   3.238   3.649
 1759W        W 5959   0.371   8.598  11.844
 1760W        W 5960   5.632   2.756   2.357
 1761W        W 5961  11.423   5.963   0.556
 1762W        W 5962   1.437   2.692   2.503
 1763W        W 5963   1.476   7.144   8.547
 1764W        W 5964   7.190   3.349  11.116
 1765W        W 5965  10.835   7.468  11.805
 1766W        W 5966   6.670   0.543   0.673
 1767W        W 5967   4.354   2.061  11.926
 1768W        W 5968  10.085   6.845  10.317
 1769W        W 5969   1.760  11.284  11.935
 1770W        W 5970   2.220   5.660   0.472
 1771W        W 5971   3.107  11.435  10.125
 1772W        W 5972   3.190   6.469   1.166
 1773W        W 5973  10.902   3.846   3.116
 1774W        W 5974   3.670   9.811   0.415
 1775W        W 5975   3.329   3.746   2.038
 1776W        W 5976   3.400  11.164  11.535
 1777W        W 5977   3.370   4.244   1.786
 1778W        W 5978   3.607   4.811   0.164
 1779W        W 5979   2.967   4.245   0.438
 1780W        W 5980   2.449  11.436   1.852
 1781W        W 5981   8.382   3.121   2.199
 1782W        W 5982   6.278  10.932   1.849
 1783W        W 5983   3.258  11.042   2.014
 1784W        W 5984   0.873   3.210   9.977
 1785W        W 5985   7.995  10.485  10.037
 1786W        W 5986   7.410   8.995  10.374
 1787W        W 5987   8.159   5.169   2.725
 1788W        W 5988   5.691  10.331   9.422
 1789W        W 5989   6.631   7.309   9.173
 1790W        W 5990   2.093   5.625   2.434
 1791W        W 5991   5.431   5.124  11.348
 1792W        W 5992   6.274   0.858   1.405
 1793W        W 5993   7.867   4.550   0.705
 1794W        W 5994   4.133   5.143  10.033
 1795W        W 5995   6.177   3.303  11.243
 1796W        W 5996  10.406   0.275   2.241
 1797W        W 5997   4.253  10.577   0.545
 1798W        W 5998   2.823   5.050   9.878
 1799W        W 5999   7.651   7.567   2.760
 1800W        W 6000   0.503   1.492  10.817
 1801W        W 6001   2.464   9.848   9.364
 1802W        W 6002   9.069   0.379   9.957
 1803W        W 6003   8.954  10.505  10.312
 1804W        W 6004   9.404   1.509   9.584
 1805W        W 6005  11.270   0.971   8.870
 1806W        W 6006   8.568   3.314   9.427
 1807W        W 6007   0.291   5.755  11.345
 1808W        W 6008   4.331   8.328  10.067
 1809W        W 6009   1.533   7.799  11.475
 1810W        W 6010   6.881   3.313   0.483
 1811W        W 6011   8.054   0.676   1.018
 1812W        W 6012   9.943  10.987   9.458
 1813W        W 6013   2.835   3.927   1.975
 1814W        W 6014   5.468   5.289   0.775
 1815W        W 6015   9.523   7.061   4.260
 1816W        W 6016   8.114  10.607   9.203
 1817W        W 6017   5.603   5.723  11.973
 1818W        W 6018  10.007   9.997   0.214
 1819W        W 6019   3.733  11.355   2.182
 1820W        W 6020   3.771   1.227  11.960
 1821W        W 6021   6.296   4.328   1.754
 1822W        W 6022   1.915   2.633   2.270
 1823W        W 6023   3.721   0.197   0.804
 1824W        W 6024  11.469   2.140   0.309
 1825W        W 6025   0.812   9.580   0.311
 1826W        W 6026   9.330   5.509  10.494
 1827W        W 6027   4.244   9.594   1.488
 1828W        W 6028   7.895   4.941  11.877
 1829W        W 6029   7.765   8.643   1.286
 1830W        W 6030   0.386   5.214   2.310
 1831W        W 6031   5.026   0.992   9.436
 1832W        W 6032   2.091   7.468   1.398
 1833W        W 6033   5.027   8.486   3.435
 1834W        W 6034   0.580   8.377  10.505
 1835W        W 6035   6.110   4.050  10.134
 1836W        W 6036   9.999   4.620  11.076
 1837W        W 6037   5.988   3.295   0.940
 1838W        W 6038   7.614  10.478   0.725
 1839W        W 6039   5.301   6.955   0.373
 1840W        W 6040   6.020   2.385  11.751
 1841W        W 6041   4.673   4.790  11.572
 1842W        W 6042   1.563   0.828  11.914
 1843W        W 6043   3.614   5.092  11.286
 1844W        W 6044   5.422   5.731   9.167
 1845W        W 6045  10.244   0.384  11.018
 1846W        W 6046   6.274   6.575   3.336
 1847W        W 6047   6.489   5.562  11.026
 1848W        W 6048   8.007   0.558   2.449
 1849W        W 6049   8.695   2.432   9.371
 1850W        W 6050  11.303   7.028  10.275
 1851W        W 6051   9.536   3.281   1.309
 1852W        W 6052   9.121   6.008   4.081
 1853W        W 6053  11.404  10.360   1.526
 1854W        W 6054   7.162   6.864   0.413
 1855W        W 6055   1.947   5.538  10.817
 1856W        W 6056   8.674   3.238  10.773
 1857W        W 6057   9.077   3.692   2.479
 1858W        W 6058   4.113   0.349  11.473
 1859W        W 6059   3.349   2.374   1.314
 1860W        W 6060   0.372   4.169   2.029
 1861W        W 6061   5.205   6.720   1.626
 1862W        W 6062   6.743   6.722   1.545
 1863W        W 6063  10.091   8.171   0.805
 1864W        W 6064   3.108   1.239   8.833
 1865W        W 6065   4.520   9.478   8.501
 1866W        W 6066   6.152   2.192   0.259
 1867W        W 6067  10.744   0.430  10.954
 1868W        W 6068   8.572   9.988   8.840
 1869W        W 6069   1.182   5.269   9.037
 1870W        W 6070   3.717   9.305   8.953
 1871W        W 6071   5.021  11.279   0.022
 1872W        W 6072  10.325   3.095   0.031
 1873W        W 6073   6.880   2.238  11.624
 1874W        W 6074   2.284   1.268  11.169
 1875W        W 6075   7.129   2.702  11.743
 1876W        W 6076   4.160   3.331   0.377
 1877W        W 6077   4.484   3.519   1.246
 1878W        W 6078   5.294   2.094   3.116
 1879W        W 6079   3.512   2.853   9.468
 1880W        W 6080   9.637   6.234   1.886
 1881W        W 6081   3.110   8.785   8.690
 1882W        W 6082   2.697   9.508  11.446
 1883W        W 6083  10.296  10.045  10.478
 1884W        W 6084   0.295   6.723  11.015
 1885W        W 6085   2.350   9.881   0.885
 1886W        W 6086  10.080   9.522   0.395
 1887W        W 6087   0.356   2.320   0.623
 1888W        W 6088   1.937   0.157   0.412
 1889W        W 6089   9.465   9.394   2.648
 1890W        W 6090  11.408   6.621   9.967
 1891W        W 6091   3.098   8.396   2.359
 1892W        W 6092   3.087   8.511  11.830
 1893W        W 6093   5.632   1.673   0.226
 1894W        W 6094   3.028   4.892   3.854
 1895W        W 6095   4.732   6.119  10.261
 1896W        W 6096   1.634   6.782  10.576
 1897W        W 6097   2.288   6.228   1.730
 1898W        W 6098   1.177   3.679   2.952
 1899W        W 6099   4.317   3.160  11.489
 1900W        W 6100   7.449   6.119   8.644
 1901W        W 6101   9.916  10.923  10.377
 1902W        W 6102   5.859   7.098   3.440
 1903W        W 6103   2.295   8.607   1.706
 1904W        W 6104   1.854   6.122   2.474
 1905W        W 6105   1.315   0.956   1.510
 1906W        W 6106   6.975   4.255  11.332
 1907W        W 6107   6.133   1.315   2.599
 1908W        W 6108   8.623   5.339   1.476
 1909W        W 6109   5.809   3.823  10.527
 1910W        W 6110   3.189   0.717  11.460
 1911W        W 6111   4.713   3.710   3.490
 1912W        W 6112   5.904   4.572   3.431
 1913W        W 6113   0.451   1.451   1.233
 1914W        W 6114   9.523  10.055  11.813
 1915W        W 6115   2.783   8.102  10.797
 1916W        W 6116   2.247   3.510  11.436
 1917W        W 6117   3.630   5.244  11.830
 1918W        W 6118   2.486   4.733  10.102
 1919W        W 6119   7.976   9.596   3.476
 1920W        W 6120   1.111   2.220  10.027
 1921W        W 6121   1.622   9.419   9.129
 1922W        W 6122   7.201   4.212   3.259
 1923W        W 6123   2.263   1.470   9.462
 1924W        W 6124   7.385  11.349   3.018
 1925W        W 6125   3.248   5.260   9.618
 1926W        W 6126   2.504   7.690   9.873
 1927W        W 6127   1.401   8.310   2.833
 1928W        W 6128   2.021   5.620   9.976
 1929W        W 6129   2.376   2.326   1.217
 1930W        W 6130   2.183   6.662   9.918
 1931W        W 6131   0.752   9.958  10.526
 1932W        W 6132   4.680   7.967   2.382
 1933W        W 6133   2.098   6.166  10.027
 1934W        W 6134  10.733   5.881   9.425
 1935W        W 6135   0.232   8.464   3.482
 1936W        W 6136   1.441   2.313   1.381
 1937W        W 6137   3.080   5.051   3.360
 1938W        W 6138   0.680   8.603   2.752
 1939W        W 6139   1.397   4.873   1.430
 1940W        W 6140   9.074   8.473   8.961
 1941W        W 6141   3.173   4.024   3.245
 1942W        W 6142   5.613   8.087   3.958
 1943W        W 6143  10.024   4.600   8.945
 1944W        W 6144   8.160   9.763   9.557
 1945W        W 6145  10.762  11.390   9.427
 1946W        W 6146   0.322   6.584   1.625
 1947W        W 6147   7.393   2.187   9.887
 1948W        W 6148   9.530   9.136   8.467
 1949W        W 6149   8.114   5.234   9.973
 1950W        W 6150   3.970   9.472   2.900
 1951W        W 6151   0.377   6.564   0.960
 1952W        W 6152  10.906   9.035   3.228
 1953W        W 6153   0.428   2.828   8.866
 1954W        W 6154   3.294  11.438   0.394
 1955W        W 6155   0.778   5.895  11.278
 1956W        W 6156   6.455   8.458   0.416
 1957W        W 6157   6.456   1.741   2.578
 1958W        W 6158   6.597   2.736  11.098
 1959W        W 6159   2.827   8.412  10.399
 1960W        W 6160   6.051   5.515   2.180
 1961W        W 6161   0.934   2.201  10.535
 1962W        W 6162   4.719  10.453   2.829
 1963W        W 6163   4.667   9.353   0.688
 1964W        W 6164   8.911  10.399   9.780
 1965W        W 6165   2.019   2.150   2.460
 1966W        W 6166   8.652  10.747  10.784
 1967W        W 6167   1.257   0.471   1.362
 1968W        W 6168   5.691   0.926   3.249
 1969W        W 6169   8.386  10.320   2.124
 1970W        W 6170   4.387   1.341   0.362
 1971W        W 6171   0.404   1.267   2.976
 1972W        W 6172   1.182   5.845   8.497
 1973W        W 6173   4.173   3.687   0.733
 1974W        W 6174   7.452   5.071   8.919
 1975W        W 6175   4.761   4.414  11.911
 1976W        W 6176   2.681   3.512  10.871
 1977W        W 6177   3.173   9.543  11.308
 1978W        W 6178   5.623   8.495   1.266
 1979W        W 6179  10.585   0.033  11.767
 1980W        W 6180   9.009   4.420   3.124
 1981W        W 6181  11.114   4.571   9.038
 1982W        W 6182  11.117   0.544   0.896
 1983W        W 6183   1.510   0.633  10.943
 1984W        W 6184   2.770   5.387  10.270
 1985W        W 6185   3.117   5.106   1.135
 1986W        W 6186   8.240   5.246   1.875
 1987W        W 6187   9.824   0.944   3.479
 1988W        W 6188   1.885   7.984   9.108
 1989W        W 6189   2.214   4.338  11.990
 1990W        W 6190   2.822   2.264   0.905
 1991W        W 6191   4.372   9.521  10.082
 1992W        W 6192   8.534   9.877   2.378
 1993W        W 6193   0.069  10.430   1.018
 1994W        W 6194   5.148   7.658  11.083
 1995W        W 6195   1.870   1.375  10.878
 1996W        W 6196   4.126   3.148   1.399
 1997W        W 6197   7.270   9.267   0.169
 1998W        W 6198   6.740   1.388   9.588
 1999W        W 6199  10.197   1.802  11.736
 2000W        W 6200  10.503  10.929   9.560
 2001W        W 6201   1.872   1.368  10.351
 2002W        W 6202   4.748   6.709   0.396
 2003W        W 6203   0.240   6.974   0.699
 2004W        W 6204  11.274   4.571   2.390
 2005W        W 6205  10.059   8.121   2.154
 2006W        W 6206   3.349   5.131   2.349
 2007W        W 6207  10.093   8.723   1.523
 2008W        W 6208   5.664  10.999   2.929
 2009W        W 6209  11.004  11.400   2.798
 2010W        W 6210  10.898  10.303   1.326
 2011W        W 6211   5.020  10.956  11.306
 2012W        W 6212   8.167   8.951   1.306
 2013W        W 6213   8.703   8.146   9.133
 2014W        W 6214   6.050   8.229   1.219
 2015W        W 6215   8.851   3.784   0.919
 2016W        W 6216   2.294   3.804  11.004
 2017W        W 6217   9.795   2.562   1.820
 2018W        W 6218   1.180   4.768   3.043
 2019W        W 6219   4.251   4.587   0.912
 2020W        W 6220   7.110  10.953   0.202
 2021W        W 6221   8.996  11.354   9.996
 2022W        W 6222  11.319   2.363   9.945
 2023W        W 6223   7.251   4.113   1.546
 2024W        W 6224   1.221   6.946   9.992
 2025W        W 6225   3.231   8.977   2.880
 2026W        W 6226   2.435   0.187   0.962
 2027W        W 6227   3.762   5.737   1.944
 2028W        W 6228   9.999   3.621   9.072
 2029W        W 6229   6.077   0.877   1.895
 2030W        W 6230  10.017   3.679  10.021
 2031W        W 6231   8.453  10.046   0.787
 2032W        W 6232   4.811   2.080   0.159
 2033W        W 6233   6.685   8.649   9.427
 2034W        W 6234   1.691   8.849   0.296
 2035W        W 6235   4.387   5.895   2.508
 2036W        W 6236  10.848   1.191   9.097
 2037W        W 6237  11.035   7.388   0.313
 2038W        W 6238  11.107   5.556   9.539
 2039W        W 6239   9.086   7.938  11.233
 2040W        W 6240   5.805   4.869   9.576
 2041W        W 6241   5.745   3.838   9.390
 2042W        W 6242   0.255   5.545   0.554
 2043W        W 6243   9.602   8.859   9.884
 2044W        W 6244   1.807   6.260   0.515
 2045W        W 6245   3.864   7.524  10.115
 2046W        W 6246   7.184   1.708   9.949
 2047W        W 6247   0.148   5.125   0.062
 2048W        W 6248   3.487   0.776   9.547
 2049W        W 6249   3.635   3.285   1.343
 2050W        W 6250  10.440  10.604   8.733
 2051W        W 6251   6.914   4.924  10.724
 2052W        W 6252   9.114   8.584   1.348
 2053W        W 6253   9.617   3.245   8.954
 2054W        W 6254   1.441   5.239  10.945
 2055W        W 6255   4.661   3.682   2.948
 2056W        W 6256   0.589   5.993  11.749
 2057W        W 6257   2.338   4.312  11.047
 2058W        W 6258   1.839   4.644   2.287
 2059W        W 6259   6.485   8.861   8.942
 2060W        W 6260   8.183   3.309  10.941
 2061W        W 6261   9.215   5.549  11.746
 2062W        W 6262   8.303   4.408   1.468
 2063W        W 6263   3.271   4.674  11.340
 2064W        W 6264   9.550   5.034  10.505
 2065W        W 6265   8.505   0.577   0.777
 2066W        W 6266   8.325   8.016   0.464
 2067W        W 6267   5.446   3.284   2.107
 2068W        W 6268   8.161  10.456   0.938
 2069W        W 6269   6.856   0.750  10.743
 2070W        W 6270   8.290   3.765   3.494
 2071W        W 6271   7.573  10.243   2.172
 2072W        W 6272   9.124   5.204   0.977
 2073W        W 6273   8.806  10.020   3.493
 2074W        W 6274   0.118   8.003   8.654
 2075W        W 6275   3.743   7.656   8.832
 2076W        W 6276   9.895   5.182   8.755
 2077W        W 6277   3.534  11.383   3.558
 2078W        W 6278   8.012   3.111  11.381
 2079W        W 6279  10.100   0.426   1.834
 2080W        W 6280   1.043   4.119   1.025
 2081W        W 6281   7.760  11.162  10.524
 2082W        W 6282   9.981   3.714  10.566
 2083W        W 6283   6.628   3.180   8.671
 2084W        W 6284   7.598   8.100   2.751
 2085W        W 6285   4.477   1.370  10.329
 2086W        W 6286   8.355   2.393   0.881
 2087W        W 6287   3.255  10.498   2.866
 2088W        W 6288   4.047   8.643  11.497
 2089W        W 6289  11.201   6.966   1.316
 2090W        W 6290  10.856   2.085   2.703
 2091W        W 6291   5.829   6.591   3.069
 2092W        W 6292   6.209   9.406   4.087
 2093W        W 6293   6.306  10.507   2.989
 2094W        W 6294   2.394   9.577   2.859
 2095W        W 6295   8.887   4.068   8.507
 2096W        W 6296   3.291   8.953  11.958
 2097W        W 6297   4.777   4.789  10.314
 2098W        W 6298   0.282   6.244   3.321
 2099W        W 6299   1.630   2.951   3.524
 2100W        W 6300   9.583   8.027  11.778
 2101W        W 6301   2.300   9.445   2.176
 2102W        W 6302   8.621   8.035  10.971
 2103W        W 6303   2.718   8.184   9.959
 2104W        W 6304   2.911   9.463   1.182
 2105W        W 6305   6.130   1.657   1.538
 2106W        W 6306   6.591   1.870   3.530
 2107W        W 6307  10.348   2.678   2.635
 2108W        W 6308   3.146   3.413   1.250
 2109W        W 6309   7.992   2.590  11.297
 2110W        W 6310   5.983   6.213  11.082
 2111W        W 6311   2.759   3.315   2.992
 2112W        W 6312   0.475  10.478   9.654
 2113W        W 6313  11.361   9.518   1.178
 2114W        W 6314   6.330   7.117  11.517
 2115W        W 6315   0.328   2.623   0.225
 2116W        W 6316   9.425   6.060   1.007
 2117W        W 6317   2.598   8.497   0.009
 2118W        W 6318   4.642   8.085   1.000
 2119W        W 6319   6.845   3.488   0.005
 2120W        W 6320   2.012   5.595   8.744
 2121W        W 6321  10.928   0.318  11.420
 2122W        W 6322   9.091   7.589  10.651
 2123W        W 6323   5.314   0.842   0.398
 2124W        W 6324   7.341  10.502   0.276
 2125W        W 6325  10.698   1.834  11.826
 2126W        W 6326   5.667   6.720   0.068
 2127W        W 6327   9.819   4.110   8.876
 2128W        W 6328   7.688   6.431   9.707
 2129W        W 6329   9.392   2.943   0.373
 2130W        W 6330   7.941   7.229  10.058
 2131W        W 6331   1.784   8.093   2.522
 2132W        W 6332   5.573   3.528  10.901
 2133W        W 6333   9.797   1.706   1.048
 2134W        W 6334   1.373   6.233   0.227
 2135W        W 6335   5.288   8.662   9.471
 2136W        W 6336   3.412   0.500   8.775
 2137W        W 6337   3.387   9.496   1.381
 2138W        W 6338   8.008   2.622   2.854
 2139W        W 6339   2.335   1.574   1.950
 2140W        W 6340   9.864   9.389  11.509
 2141W        W 6341   4.998   3.773   8.323
 2142W        W 6342   0.269   1.334   0.405
 2143W        W 6343   2.569   4.236   9.271
 2144W        W 6344   3.686   5.264   9.860
 2145W        W 6345   5.934   5.805  10.774
 2146W        W 6346   5.609   6.226   2.264
 2147W        W 6347   2.174   0.736   2.311
 2148W        W 6348   8.918   6.719   2.206
 2149W        W 6349   3.700   5.581  11.384
 2150W        W 6350   5.770   1.654  10.667
 2151W        W 6351   0.801   7.917   0.231
 2152W        W 6352  11.297   1.928   2.495
 2153W        W 6353   6.991   5.056   1.025
 2154W        W 6354  11.190   2.420  11.533
 2155W        W 6355   7.035   8.008   2.818
 2156W        W 6356   9.482   6.426   1.373
 2157W        W 6357   1.200   3.638   9.950
 2158W        W 6358   7.707   5.625   2.063
 2159W        W 6359   3.398   9.056   1.067
 2160W        W 6360   2.933   3.881   1.137
 2161W        W 6361   9.493   9.964   0.866
 2162W        W 6362   5.267   8.784   3.125
 2163W        W 6363   8.803   8.223   0.542
 2164W        W 6364   6.950   9.387   1.998
 2165W        W 6365   5.650   1.516   0.737
 2166W        W 6366   7.454   8.054   9.550
 2167W        W 6367   2.079  10.565   3.722
 2168W        W 6368   8.365   1.208   2.892
 2169W        W 6369   9.226   5.577   9.353
 2170W        W 6370  10.484   9.328   0.694
 2171W        W 6371   8.590   5.938   3.594
 2172W        W 6372   2.263   6.329  10.866
 2173W        W 6373   7.981   4.763   3.047
 2174W        W 6374   5.321   2.411   0.340
 2175W        W 6375   9.552   6.503   3.072
 2176W        W 6376  11.283   3.975   0.222
 2177W        W 6377  10.805   3.642   1.486
 2178W        W 6378   6.548   7.372  10.537
 2179W        W 6379   9.538  10.764  11.071
 2180W        W 6380   5.656   0.470   9.005
 2181W        W 6381   1.871   5.872  10.388
 2182W        W 6382   6.939   9.716   9.991
 2183W        W 6383   3.702   1.937   1.157
 2184W        W 6384   6.409   4.244  11.353
 2185W        W 6385   2.442  10.738   2.334
 2186W        W 6386   1.896   8.965   9.049
 2187W        W 6387   5.344   4.167   1.451
 2188W        W 6388   6.138   5.464   3.154
 2189W        W 6389  10.823  10.039  10.461
 2190W        W 6390   4.534   0.851   9.484
 2191W        W 6391   5.792   2.379   3.106
 2192W        W 6392   1.684   6.685  10.076
 2193W        W 6393   4.635   5.707   9.967
 2194W        W 6394   3.097   8.008   2.725
 2195W        W 6395   1.439  10.252   1.695
 2196W        W 6396   0.840   3.170   1.933
 2197W        W 6397   7.821   8.582   2.803
 2198W        W 6398   8.984   3.141  11.615
 2199W        W 6399  10.488   4.191   0.403
 2200W        W 6400   9.078   7.955  11.755
 2201W        W 6401  10.029   1.565   2.923
 2202W        W 6402   0.686   8.831   9.552
 2203W        W 6403   9.311   9.929   1.332
 2204W        W 6404   6.253   2.363   9.169
 2205W        W 6405   8.858   5.547   0.630
 2206W        W 6406  10.540   1.512   8.802
 2207W        W 6407   3.623  10.307   3.477
 2208W        W 6408   3.732   8.569   1.737
 2209W        W 6409   8.705   1.004  10.315
 2210W        W 6410   5.223   7.649   2.115
 2211W        W 6411   7.190  10.049  10.493
 2212W        W 6412  10.320   6.189   9.469
 2213W        W 6413   2.831   1.498   9.931
 2214W        W 6414  10.354   6.038   1.689
 2215W        W 6415  10.070   2.469   3.310
 2216W        W 6416   5.591   2.191  10.382
 2217W        W 6417   0.839   2.689  10.165
 2218W        W 6418   5.673   8.963   1.478
 2219W        W 6419   9.094   6.272   0.377
 2220W        W 6420  11.021   8.346  11.922
 2221W        W 6421  10.872   1.616  10.049
 2222W        W 6422  10.972   8.057   8.827
 2223W        W 6423   3.647   1.657  11.715
 2224W        W 6424  10.024  10.324  11.058
 2225W        W 6425  10.861   4.762   1.136
 2226W        W 6426   9.974   0.881   2.052
 2227W        W 6427   7.444   4.801   3.280
 2228W        W 6428   1.609   7.581   1.202
 2229W        W 6429   7.167   2.850   9.340
 2230W        W 6430  10.525  11.308   1.379
 2231W        W 6431   1.256   9.097   0.207
 2232W        W 6432   1.300   2.924  10.786
 2233W        W 6433   5.648   9.698  11.951
 2234W        W 6434   2.398  10.048   1.818
 2235W        W 6435   5.647  11.034  11.860
 2236W        W 6436   8.884   1.961  10.858
 2237W        W 6437   3.835   6.246   9.982
 2238W        W 6438   7.476   1.497   3.338
 2239W        W 6439   7.270   1.427   1.808
 2240W        W 6440  10.071   3.207   8.717
 2241W        W 6441   3.228   8.139  11.108
 2242W        W 6442   6.574   0.759   1.810
 2243W        W 6443   7.615   1.381   0.331
 2244W        W 6444   6.395   3.189   0.492
 2245W        W 6445   6.138   5.552   1.242
 2246W        W 6446   3.338   0.710  10.967
 2247W        W 6447   4.172   2.412   1.880
 2248W        W 6448   9.864   3.093   0.935
 2249W        W 6449   4.065  10.056   3.350
 2250W        W 6450   3.447   6.072  11.444
 2251W        W 6451   4.958   4.123   4.063
 2252W        W 6452   0.601   6.510   0.458
 2253W        W 6453   9.929   7.584   8.652
 2254W        W 6454   4.758   8.957   2.530
 2255W        W 6455   8.154   9.161  10.785
 2256W        W 6456   3.712   2.384   9.470
 2257W        W 6457   3.960   3.829   9.274
 2258W        W 6458   5.270   2.140   2.282
 2259W        W 6459   9.950   4.752   9.687
 2260W        W 6460   9.388  11.491   9.009
 2261W        W 6461   4.762  10.705   8.869
 2262W        W 6462   3.716   1.246  10.263
 2263W        W 6463   5.942   3.673   9.833
 2264W        W 6464   9.716   4.184   3.569
 2265W        W 6465   0.402   8.150  10.919
 2266W        W 6466   0.162   4.172  10.757
 2267W        W 6467   0.112   8.821   1.429
 2268W        W 6468   3.794   8.100   1.271
 2269W        W 6469   8.184  11.261   0.337
 2270W        W 6470   5.736  11.348   9.471
 2271W        W 6471   2.705   9.967   3.118
 2272W        W 6472  10.301   5.490  11.482
 2273W        W 6473   5.995   0.667   3.614
 2274W        W 6474   1.518   0.551  10.432
 2275W        W 6475   8.017  10.050   8.605
 2276W        W 6476   1.889   6.037   3.335
 2277W        W 6477   5.623   7.944   0.454
 2278W        W 6478   0.648   6.986  11.256
 2279W        W 6479   5.847   5.312   2.678
 2280W        W 6480   6.679   4.139  10.913
 2281W        W 6481   2.173   2.795  10.914
 2282W        W 6482   9.284  10.869   0.786
 2283W        W 6483   8.979   7.052   1.818
 2284W        W 6484   6.484   0.637  11.252
 2285W        W 6485   5.199   0.925  10.913
 2286W        W 6486   3.206   0.845   2.117
 2287W        W 6487   8.087   5.956  11.049
 2288W        W 6488   3.644   2.610   9.926
 2289W        W 6489   5.488   0.424   2.284
 2290W        W 6490   6.071   1.914  11.503
 2291W        W 6491   0.984   1.738   1.059
 2292W        W 6492  10.724   6.281  11.282
 2293W        W 6493   0.777   7.516   9.506
 2294W        W 6494   0.203   8.547   2.974
 2295W        W 6495   3.863   9.415   1.201
 2296W        W 6496   2.263   2.329  10.024
 2297W        W 6497   4.884   4.311   1.694
 2298W        W 6498   6.019   4.568   0.369
 2299W        W 6499  10.219   6.998   0.265
 2300W        W 6500   3.153   4.242   9.633
 2301W        W 6501   0.827   7.640   0.712
 2302W        W 6502   1.097   7.502   0.218
 2303W        W 6503   0.212   4.781   2.555
 2304W        W 6504   6.976   6.596  10.415
 2305W        W 6505   8.391   1.905   1.011
 2306W        W 6506   2.241   0.203   2.965
 2307W        W 6507   9.786   5.766   0.257
 2308W        W 6508   9.997  11.438   0.643
 2309W        W 6509   5.088   0.212  11.731
 2310W        W 6510   1.460   3.005  10.288
 2311W        W 6511   7.671  11.222   3.403
 2312W        W 6512   3.152   9.980   1.343
 2313W        W 6513  10.460  11.035   2.888
 2314W        W 6514   4.015   5.038   1.025
 2315W        W 6515   9.440  11.036   2.336
 2316W        W 6516   2.808   6.762  11.366
 2317W        W 6517   4.405   0.721   1.370
 2318W        W 6518   9.998   5.686  10.833
 2319W        W 6519   0.769   6.558   2.274
 2320W        W 6520   5.625   8.515   2.320
 2321W        W 6521   4.133   9.392  11.850
 2322W        W 6522   2.847   1.845  10.816
 2323W        W 6523   1.919   2.589   1.338
 2324W        W 6524   2.847   2.612   1.297
 2325W        W 6525   2.812   2.832  10.310
 2326W        W 6526  11.374   5.649   9.096
 2327W        W 6527  10.332  10.977   0.951
 2328W        W 6528   1.819   4.615   9.410
 2329W        W 6529  10.849   1.375   0.511
 2330W        W 6530   4.438   7.129   3.114
 2331W        W 6531   4.169   0.271   9.258
 2332W        W 6532   9.049   4.920   3.254
 2333W        W 6533  10.502   8.942   2.414
 2334W        W 6534   8.492   0.736   2.675
 2335W        W 6535   8.186   5.647   2.210
 2336W        W 6536  10.671   0.797   2.971
 2337W        W 6537  10.391   6.128   1.158
 2338W        W 6538   0.985   7.939  10.429
 2339W        W 6539   8.607   6.488  11.169
 2340W        W 6540   0.546   1.013  10.885
 2341W        W 6541   6.009   2.365   9.602
 2342W        W 6542   6.469   8.598  11.500
 2343W        W 6543   3.173  10.706   2.402
 2344W        W 6544  10.841   6.571  10.198
 2345W        W 6545   6.072   7.843   2.744
 2346W        W 6546   0.874   4.057  10.080
 2347W        W 6547   9.424   5.257   8.560
 2348W        W 6548   7.725  11.288   1.244
 2349W        W 6549   6.351  10.746   0.318
 2350W        W 6550   7.855   5.043   3.487
 2351W        W 6551   2.940   7.277  11.286
 2352W        W 6552   9.142   1.820   9.897
 2353W        W 6553   3.648  10.418  10.852
 2354W        W 6554   0.454  10.288   2.805
 2355W        W 6555   0.089   3.716  10.369
 2356W        W 6556   4.703  10.919  10.378
 2357W        W 6557   1.815   1.810  10.599
 2358W        W 6558   1.971   1.839   0.916
 2359W        W 6559   9.238   7.019   0.098
 2360W        W 6560   3.220   9.104  10.043
 2361W        W 6561   5.184   8.863   1.661
 2362W        W 6562   3.159  10.331   9.533
 2363W        W 6563   1.200   6.316   1.237
 2364W        W 6564  11.215   3.438   3.471
 2365W        W 6565   3.387   3.889   0.377
 2366W        W 6566   0.044   2.461   9.021
 2367W        W 6567   0.225   9.776  10.401
 2368W        W 6568   2.133   1.333   8.978
 2369W        W 6569   7.799  10.485   8.807
 2370W        W 6570   7.854   4.039   0.634
 2371W        W 6571  11.180   6.169  10.066
 2372W        W 6572   5.246   1.254   2.181
 2373W        W 6573   9.732   7.595   0.057
 2374W        W 6574   2.682   5.499   0.270
 2375W        W 6575   7.332   3.263   2.870
 2376W        W 6576   5.228   9.019   2.260
 2377W        W 6577   2.894   5.376   4.068
 2378W        W 6578   7.144   8.600   3.943
 2379W        W 6579   3.869   4.200   1.676
 2380W        W 6580  10.329   8.548   2.144
 2381W        W 6581   0.365   9.283   0.311
 2382W        W 6582  11.421   2.229   1.375
 2383W        W 6583   7.591   4.326   0.278
 2384W        W 6584   2.276   1.320   1.504
 2385W        W 6585   3.662   6.733   1.149
 2386W        W 6586   1.150  10.976   8.550
 2387W        W 6587   9.474   2.971   9.396
 2388W        W 6588   1.414  10.426   0.021
 2389W        W 6589   4.277   3.628   2.408
 2390W        W 6590   0.461   5.042  10.597
 2391W        W 6591   3.225   7.371  10.392
 2392W        W 6592   4.112   5.594   9.756
 2393W        W 6593  10.397   5.903   9.876
 2394W        W 6594   2.609   5.071   1.254
 2395W        W 6595   0.860   6.653   9.018
 2396W        W 6596   4.431   3.653  11.429
 2397W        W 6597   2.371   6.640   2.756
 2398W        W 6598   1.631   7.465   0.272
 2399W        W 6599   2.342   9.386   0.266
 2400W        W 6600   0.880   3.532   2.331
 2401W        W 6601   8.170   6.077   2.497
 2402W        W 6602   7.643  10.092   2.680
 2403W        W 6603   6.421   5.161   2.244
 2404W        W 6604   7.151   4.865   1.959
 2405W        W 6605   1.588   7.025   2.730
 2406W        W 6606   4.187   1.781   2.688
 2407W        W 6607   3.654  10.777  11.242
 2408W        W 6608   1.575   2.258   2.238
 2409W        W 6609   6.462   0.674  10.195
 2410W        W 6610   4.644   9.901   1.367
 2411W        W 6611   5.432   9.220   8.551
 2412W        W 6612   0.886   6.679   9.529
 2413W        W 6613   9.544  10.161   3.309
 2414W        W 6614   1.355   4.388  11.737
 2415W        W 6615   1.056   5.908  11.970
 2416W        W 6616   0.549   1.432   2.497
 2417W        W 6617   8.512   9.611   9.209
 2418W        W 6618   7.182   4.537   2.360
 2419W        W 6619   0.966   1.187   9.999
 2420W        W 6620   5.151   2.932   1.224
 2421W        W 6621   0.421   7.905   1.124
 2422W        W 6622   9.467   9.674  10.359
 2423W        W 6623   9.097  11.332   2.748
 2424W        W 6624  10.644   8.088   1.987
 2425W        W 6625   9.426   7.645   2.281
 2426W        W 6626   9.564   8.352   8.994
 2427W        W 6627  10.792  10.172   2.666
 2428W        W 6628   3.361   0.496   1.014
 2429W        W 6629   7.223   8.053  11.447
 2430W        W 6630   7.548   2.758   3.575
 2431W        W 6631   8.377  10.677  10.357
 2432W        W 6632   9.532   2.429   1.374
 2433W        W 6633   5.479  10.624   3.320
 2434W        W 6634  11.377   2.867   9.844
 2435W        W 6635   5.209   2.886   1.811
 2436W        W 6636   7.067   9.016   3.208
 2437W        W 6637  11.409   3.308  11.087
 2438W        W 6638   4.622   2.737   2.490
 2439W        W 6639   6.431   0.861   9.394
 2440W        W 6640   0.779  10.253   1.382
 2441W        W 6641   8.637   4.864   8.560
 2442W        W 6642   2.332   1.190   3.299
 2443W        W 6643  10.277   3.384   0.982
 2444W        W 6644   2.608   8.860   0.426
 2445W        W 6645   5.516   8.957  10.341
 2446W        W 6646   6.574   4.274   1.279
 2447W        W 6647  10.901   6.248   3.026
 2448W        W 6648   8.425   3.785  11.934
 2449W        W 6649   8.906   0.384   0.226
 2450W        W 6650   4.615   3.019   1.189
 2451W        W 6651   9.295   2.218   0.945
 2452W        W 6652   1.978   9.538   1.799
 2453W        W 6653   1.029   9.062   9.224
 2454W        W 6654   4.798   8.067  10.170
 2455W        W 6655   2.370   5.026  11.404
 2456W        W 6656   1.002   2.764   1.634
 2457W        W 6657   4.312   6.072   9.792
 2458W        W 6658   0.555   2.671   1.907
 2459W        W 6659   9.490   3.983   2.653
 2460W        W 6660   3.876   3.786  11.419
 2461W        W 6661   2.238   7.960   2.322
 2462W        W 6662   0.271   4.914  11.189
 2463W        W 6663   8.400   6.976  11.508
 2464W        W 6664   3.438   3.919   9.320
 2465W        W 6665   0.972   3.712  11.736
 2466W        W 6666   8.137   8.180  11.041
 2467W        W 6667   6.533   9.921  11.329
 2468W        W 6668   1.085   1.838   2.731
 2469W        W 6669  10.144  10.941   9.927
 2470W        W 6670   2.712   4.143   8.799
 2471W        W 6671   0.646   8.110   8.648
 2472W        W 6672   4.958   3.359   1.423
 2473W        W 6673   9.790   3.624   8.579
 2474W        W 6674   5.992   8.492  11.353
 2475W        W 6675   5.193   9.319  10.490
 2476W        W 6676  11.082   5.928  10.505
 2477W        W 6677  10.879  10.240  11.374
 2478W        W 6678   4.353   4.315   1.738
 2479W        W 6679   1.324   1.422   1.284
 2480W        W 6680   6.495   3.450   2.715
 2481W        W 6681   7.462  10.086   1.681
 2482W        W 6682   9.999   7.446   9.155
 2483W        W 6683   4.140   3.420   1.925
 2484W        W 6684   6.902   2.052   0.164
 2485W        W 6685   6.264   2.688   0.260
 2486W        W 6686  11.361   6.100  10.890
 2487W        W 6687   2.605   3.884  11.438
 2488W        W 6688   1.718   1.277   9.289
 2489W        W 6689   8.907   2.836   1.296
 2490W        W 6690   6.592   1.815   1.364
 2491W        W 6691   2.906   6.603   2.693
 2492W        W 6692   8.458   4.529  11.571
 2493W        W 6693   0.299   4.612   0.323
 2494W        W 6694   1.852  11.195   9.083
 2495W        W 6695   0.489   4.325  11.956
 2496W        W 6696  10.702   2.256  11.515
 2497W        W 6697   8.353   7.263  11.956
 2498W        W 6698   2.721   1.756   9.491
 2499W        W 6699   6.243   3.027  10.327
 2500W        W 6700  10.004   8.102   3.240
 2501W        W 6701   2.848   2.261  11.106
 2502W        W 6702   9.207  11.393   9.520
 2503W        W 6703   2.692   3.784   3.232
 2504W        W 6704   6.635   8.646   2.120
 2505W        W 6705   1.886   1.621   1.393
 2506W        W 6706   7.132  11.148  10.914
 2507W        W 6707   4.199   3.044  11.975
 2508W        W 6708   1.649  10.726   1.402
 2509W        W 6709   4.785   8.849  10.991
 2510W        W 6710   3.208   5.116  11.580
 2511W        W 6711   5.679  10.483   0.714
 2512W        W 6712   6.487   3.846  11.884
 2513W        W 6713   3.505   4.957   3.642
 2514W        W 6714   2.222  10.724   2.811
 2515W        W 6715   4.756   2.415  11.761
 2516W        W 6716   3.103   8.403   0.351
 2517W        W 6717   0.770   6.595   1.310
 2518W        W 6718  10.036  11.318   1.201
 2519W        W 6719   7.591   2.854  10.522
 2520W        W 6720   7.957  10.277   1.841
 2521W        W 6721   5.452   1.408   1.197
 2522W        W 6722   0.995   6.875   2.595
 2523W        W 6723   3.136   2.732  10.952
 2524W        W 6724   3.072   4.253  10.592
 2525W        W 6725   5.550   1.877   3.632
 2526W        W 6726  10.027   6.648   2.702
 2527W        W 6727   6.650   9.936   1.306
 2528W        W 6728   8.225   7.644  10.226
 2529W        W 6729   4.302  10.149  11.320
 2530W        W 6730   3.546   0.948   1.184
 2531W        W 6731  10.782   1.420   1.934
 2532W        W 6732   3.292   5.752   9.538
 2533W        W 6733   0.976   3.669   0.265
 2534W        W 6734   2.952   1.773   1.027
 2535W        W 6735  10.038   2.823  10.597
 2536W        W 6736   7.086   9.018   2.707
 2537W        W 6737   8.494   6.252  11.930
 2538W        W 6738   2.450   0.247   0.441
 2539W        W 6739  11.253   3.607   1.782
 2540W        W 6740  10.272   9.418   9.800
 2541W        W 6741   7.484   6.682  11.822
 2542W        W 6742   5.486   7.213   8.518
 2543W        W 6743   3.616   4.457  10.717
 2544W        W 6744   0.918   3.274   1.443
 2545W        W 6745   6.287   3.296   3.723
 2546W        W 6746   1.418   1.391  10.131
 2547W        W 6747  10.207   7.102  11.268
 2548W        W 6748   6.700   9.156   9.334
 2549W        W 6749   3.126  10.476  10.850
 2550W        W 6750   2.650   1.901   3.247
 2551W        W 6751   3.688   2.626  10.776
 2552W        W 6752   9.484   4.621   9.998
 2553W        W 6753   8.110   0.863   1.489
 2554W        W 6754   2.398   6.580  10.378
 2555W        W 6755   5.837   6.099   9.148
 2556W        W 6756   0.896   6.021   1.517
 2557W        W 6757   6.972   5.253  11.551
 2558W        W 6758  10.011   2.240   9.923
 2559W        W 6759   3.359   6.991   2.384
 2560W        W 6760   4.609   0.239   1.394
 2561W        W 6761  11.008   0.542   2.004
 2562W        W 6762  10.443   9.952   1.914
 2563W        W 6763   6.456   5.234  11.457
 2564W        W 6764   5.935  11.459  11.766
 2565W        W 6765   9.539   0.135  10.784
 2566W        W 6766   1.268   8.416   1.952
 2567W        W 6767   6.423   4.902   9.705
 2568W        W 6768   5.029   9.047   0.255
 2569W        W 6769  11.218   3.990   1.421
 2570W        W 6770  10.045   6.291   3.089
 2571W        W 6771   1.106   7.121  11.397
 2572W        W 6772   8.675  10.038   0.244
 2573W        W 6773   7.568   2.979   1.190
 2574W        W 6774   2.631   4.613   9.630
 2575W        W 6775   8.294  10.998   9.651
 2576W        W 6776   0.250   7.006   8.539
 2577W        W 6777   7.502   1.207  10.928
 2578W        W 6778   5.331  10.629  11.615
 2579W        W 6779  10.943   0.970   1.730
 2580W        W 6780  10.559   3.507  11.233
 2581W        W 6781   6.896   3.707   0.785
 2582W        W 6782   8.142   2.990   8.715
 2583W        W 6783   1.890   8.826   1.308
 2584W        W 6784   1.708   0.677   1.242
 2585W        W 6785   2.691   9.415   2.485
 2586W        W 6786  10.851   2.743   8.970
 2587W        W 6787   1.220   5.730  11.484
 2588W        W 6788   4.989   5.299   1.000
 2589W        W 6789  10.773   6.240   9.778
 2590W        W 6790  10.749   5.128  10.851
 2591W        W 6791   0.613   9.477  11.473
 2592W        W 6792   7.659   6.130   2.397
 2593W        W 6793   1.405   7.140   1.453
 2594W        W 6794   5.632   2.198  11.425
 2595W        W 6795   5.755  11.139   9.930
 2596W        W 6796   0.333   0.998   2.359
 2597W        W 6797   6.058   5.699  11.249
 2598W        W 6798   0.786   1.512   3.341
 2599W        W 6799   6.698   1.714   3.051
 2600W        W 6800   8.665   6.107   2.743
 2601W        W 6801   4.077   5.144   9.537
 2602W        W 6802   0.002   2.394  11.048
 2603W        W 6803  11.451   4.585  10.973
 2604W        W 6804   1.393   3.249   1.225
 2605W        W 6805   9.420  10.616   9.554
 2606W        W 6806   1.925   4.419   0.926
 2607W        W 6807   8.560   0.340   3.449
 2608W        W 6808   4.927   7.650   9.353
 2609W        W 6809   5.282   2.792   9.819
 2610W        W 6810   8.578   2.338  11.750
 2611W        W 6811   5.807   8.849   8.622
 2612W        W 6812   6.954   2.631   2.139
 2613W        W 6813   4.717   9.402   2.758
 2614W        W 6814   8.951   6.340   3.719
 2615W        W 6815   2.762   9.002  11.931
 2616W        W 6816  10.531   7.474   0.387
 2617W        W 6817   3.064   6.509   9.932
 2618W        W 6818  10.763   4.779   3.099
 2619W        W 6819   0.356  10.131  11.779
 2620W        W 6820   7.542   4.193   8.753
 2621W        W 6821   1.386   3.641   1.554
 2622W        W 6822  10.953   4.397   0.200
 2623W        W 6823   1.180  10.558   1.383
 2624W        W 6824   6.554   6.148   9.680
 2625W        W 6825   3.614   1.195   8.726
 2626W        W 6826   3.336   1.008  11.844
 2627W        W 6827  10.414   6.685   0.995
 2628W        W 6828   2.101   3.222   0.404
 2629W        W 6829   9.013   4.777   2.754
 2630W        W 6830   2.480   9.431   9.650
 2631W        W 6831   1.701   8.363   0.078
 2632W        W 6832   1.217   7.357   9.689
 2633W        W 6833   0.317   5.759   3.168
 2634W        W 6834  10.926   4.834   2.119
 2635W        W 6835   3.510  10.707   0.699
 2636W        W 6836   6.639   6.228   8.762
 2637W        W 6837   1.512   2.231  11.952
 2638W        W 6838   3.859   2.329   1.452
 2639W        W 6839   8.430   5.569  11.313
 2640W        W 6840   7.906   3.601  11.830
 2641W        W 6841   7.988  11.490  10.198
 2642W        W 6842   0.259   0.926   3.366
 2643W        W 6843   6.729   3.095   0.922
 2644W        W 6844   9.876  10.379   3.003
 2645W        W 6845  11.017   0.352   9.469
 2646W        W 6846   2.076   6.890   3.647
 2647W        W 6847   6.449   9.083   0.898
 2648W        W 6848   5.606   5.583  11.476
 2649W        W 6849   8.143   1.769   1.469
 2650W        W 6850   4.692   4.593   9.424
 2651W        W 6851   7.600   9.398  11.775
 2652W        W 6852   8.784   6.824   3.580
 2653W        W 6853   5.697   0.456   0.900
 2654W        W 6854  10.479   5.080   2.775
 2655W        W 6855   0.517   2.112   0.173
 2656W        W 6856   1.452   6.154  10.531
 2657W        W 6857   0.385   0.820   1.886
 2658W        W 6858   5.463   2.890   0.454
 2659W        W 6859   6.180   1.342   0.229
 2660W        W 6860   7.095   3.532  10.406
 2661W        W 6861   6.087   6.122   3.136
 2662W        W 6862   5.012   2.793   0.235
 2663W        W 6863  10.884   0.461  11.919
 2664W        W 6864  10.379   5.183   0.153
 2665W        W 6865   6.363   6.040   0.360
 2666W        W 6866  11.120   3.950  10.392
 2667W        W 6867   5.589   8.063   2.635
 2668W        W 6868   5.929   8.068   2.257
 2669W        W 6869   4.048   5.987  11.999
 2670W        W 6870   1.827   6.904  11.967
 2671W        W 6871  11.156   6.373   0.370
 2672W        W 6872   6.793   2.180   1.948
 2673W        W 6873   1.062   0.796  11.859
 2674W        W 6874   8.206   7.175  10.503
 2675W        W 6875   1.733   2.242  10.863
 2676W        W 6876   6.222   9.961   2.252
 2677W        W 6877   9.082   0.890   9.994
 2678W        W 6878   6.892   9.106  10.319
 2679W        W 6879   6.768   0.733   2.285
 2680W        W 6880   9.968   4.207  11.396
 2681W        W 6881   9.939   6.697   1.733
 2682W        W 6882   8.540  10.906  11.257
 2683W        W 6883   7.226   4.667   4.136
 2684W        W 6884  10.895   2.135  10.161
 2685W        W 6885   9.295   4.138  10.136
 2686W        W 6886   3.818   6.630   1.645
 2687W        W 6887   5.619   1.796  11.737
 2688W        W 6888   4.346   6.969   9.735
 2689W        W 6889   2.968  11.400   1.726
 2690W        W 6890   8.480   8.898  10.424
 2691W        W 6891   3.887  11.074  11.668
 2692W        W 6892   6.528   7.873  11.863
 2693W        W 6893   4.199   2.209  11.472
 2694W        W 6894   8.080   3.809  10.912
 2695W        W 6895   5.712   2.913   1.866
 2696W        W 6896   6.430   7.798   1.082
 2697W        W 6897   8.704   5.134  11.126
 2698W        W 6898   0.723   5.551   2.501
 2699W        W 6899   3.645   0.520  11.355
 2700W        W 6900   5.001  11.029  10.794
 2701W        W 6901   2.888   8.946   0.914
 2702W        W 6902   8.042   2.698  10.294
 2703W        W 6903   7.104   0.770   0.934
 2704W        W 6904   4.740   7.158   2.689
 2705W        W 6905   6.714   3.689   2.230
 2706W        W 6906  10.088   1.498  10.767
 2707W        W 6907   4.562   9.928   3.507
 2708W        W 6908   8.877   5.626   2.645
 2709W        W 6909   8.226   4.237   3.251
 2710W        W 6910   1.764   6.537  11.022
 2711W        W 6911   0.787   1.849   2.334
 2712W        W 6912   1.308   7.538  10.519
 2713W        W 6913   8.817   7.091  11.801
 2714W        W 6914   0.015   3.755   2.235
 2715W        W 6915   4.717   6.655   1.419
 2716W        W 6916   7.502   4.082   2.879
 2717W        W 6917   7.786  10.686  11.092
 2718W        W 6918   7.929   7.693   1.272
 2719W        W 6919   0.784   6.444  10.525
 2720W        W 6920   7.535   4.656   9.946
 2721W        W 6921   6.438   0.856   3.257
 2722W        W 6922   6.092   5.600   0.272
 2723W        W 6923   9.074   6.692   3.160
 2724W        W 6924   5.465   8.903   0.994
 2725W        W 6925   5.518  10.921  11.227
 2726W        W 6926   6.546  10.936   1.424
 2727W        W 6927   9.044   9.948   9.610
 2728W        W 6928   2.888   6.040   3.307
 2729W        W 6929   3.218   5.546  10.067
 2730W        W 6930   8.430   5.954   9.612
 2731W        W 6931   2.172   5.622   3.489
 2732W        W 6932   5.056   3.789   1.172
 2733W        W 6933   5.571   9.325   9.369
 2734W        W 6934   7.568  10.006   0.398
 2735W        W 6935  10.595   4.513   8.933
 2736W        W 6936   2.635   8.965   1.799
 2737W        W 6937   2.797   7.685  11.683
 2738W        W 6938  11.267  11.465  10.298
 2739W        W 6939   7.573  10.577   1.709
 2740W        W 6940   0.440   9.162   2.230
 2741W        W 6941   4.771  10.214  11.012
 2742W        W 6942   1.880   0.064  11.512
 2743W        W 6943   9.026   6.715  10.963
 2744W        W 6944   3.805   2.723   0.118
 2745W        W 6945   7.877   9.787   1.732
 2746W        W 6946  10.247   5.018  11.664
 2747W        W 6947  10.977   2.966   3.181
 2748W        W 6948   7.104   8.714  10.037
 2749W        W 6949  10.340   7.687   2.085
 2750W        W 6950   6.956   1.270  10.040
 2751W        W 6951   9.122   0.367   2.216
 2752W        W 6952   4.766  11.362   3.334
 2753W        W 6953   8.891   3.551  10.349
 2754W        W 6954   0.005   8.017   1.385
 2755W        W 6955   7.417   7.247   3.117
 2756W        W 6956   5.248  10.792   0.641
 2757W        W 6957  10.683   7.133  11.421
 2758W        W 6958   1.741   9.842   0.540
 2759W        W 6959   2.209   1.867  10.278
 2760W        W 6960   8.458   7.657   1.855
 2761W        W 6961   8.415   4.192  10.759
 2762W        W 6962   2.137   9.838   1.410
 2763W        W 6963   5.061   7.779   0.406
 2764W        W 6964   3.155  11.411  10.627
 2765W        W 6965   5.288   6.926   9.956
 2766W        W 6966   8.654   5.855   1.379
 2767W        W 6967   1.815   8.614  11.335
 2768W        W 6968   1.878   9.386   1.248
 2769W        W 6969   7.541   9.185   9.439
 2770W        W 6970   2.365   6.984   3.196
 2771W        W 6971   1.895   9.037   3.352
 2772W        W 6972   0.846   9.080   2.542
 2773W        W 6973   2.624  11.365  10.886
 2774W        W 6974   6.211  10.430  11.356
 2775W        W 6975   1.240  11.468   1.298
 2776W        W 6976   8.003   7.605   8.847
 2777W        W 6977   6.534   6.699  11.717
 2778W        W 6978   4.240   3.899   8.808
 2779W        W 6979   2.684  10.170  11.975
 2780W        W 6980   6.814   6.558   2.508
 2781W        W 6981   1.108   7.107   1.871
 2782W        W 6982   0.722   8.337   9.383
 2783W        W 6983   7.511   2.553   0.703
 2784W        W 6984   3.523  10.004   9.692
 2785W        W 6985   9.771   1.485   3.359
 2786W        W 6986   9.045   6.168   1.361
 2787W        W 6987   7.660   4.271   2.426
 2788W        W 6988   5.626   5.675   0.485
 2789W        W 6989   2.654   5.066   8.897
 2790W        W 6990  10.116  11.276   2.571
 2791W        W 6991   4.769   0.663   9.911
 2792W        W 6992   1.302   4.400  10.203
 2793W        W 6993   1.324   1.793   9.813
 2794W        W 6994   3.939   8.103   3.042
 2795W        W 6995   3.964   6.463   2.667
 2796W        W 6996  11.288   8.568   9.502
 2797W        W 6997   2.186   7.705   1.874
 2798W        W 6998   5.675   4.293  10.252
 2799W        W 6999   5.251  10.713   8.695
 2800W        W 7000  11.279   2.841  11.235
 2801W        W 7001  10.930   8.484   9.135
 2802W        W 7002   2.517   5.523   8.713
 2803W        W 7003   0.181   9.131  10.851
 2804W        W 7004   8.927   5.653   8.924
 2805W        W 7005   2.724   9.451   3.230
 2806W        W 7006   5.789   8.880  11.008
 2807W        W 7007   0.385   8.938   0.809
 2808W        W 7008   8.554   9.790  10.308
 2809W        W 7009   4.539   3.977  11.800
 2810W        W 7010   6.835   2.286  11.116
 2811W        W 7011   0.343   4.027   9.889
 2812W        W 7012   4.200   0.424   0.033
 2813W        W 7013   4.910   2.806  11.417
 2814W        W 7014   1.777   0.942  10.650
 2815W        W 7015   6.020   5.107   9.992
 2816W        W 7016   9.551   9.876   2.423
 2817W        W 7017  11.469   0.364   1.656
 2818W        W 7018   8.899   1.756   2.187
 2819W        W 7019  11.054   0.041   1.725
 2820W        W 7020   2.857   8.522  11.083
 2821W        W 7021   6.533   3.638  10.876
 2822W        W 7022  10.325   9.170  11.332
 2823W        W 7023   3.877   1.393   3.438
 2824W        W 7024   5.210   4.125  11.906
 2825W        W 7025   1.885   1.974   3.035
 2826W        W 7026   3.281   8.605  11.352
 2827W        W 7027   6.689   6.678   3.635
 2828W        W 7028   2.733   0.010   2.284
 2829W        W 7029   1.105   5.419   0.758
 2830W        W 7030   9.977   1.183  10.319
 2831W        W 7031   2.875   5.894  10.360
 2832W        W 7032   4.857   9.535   0.216
 2833W        W 7033   6.234   5.840   9.401
 2834W        W 7034   5.545   1.923   9.547
 2835W        W 7035   0.451   0.959   1.366
 2836W        W 7036   9.085   5.043   4.278
 2837W        W 7037   6.725   2.604   4.007
 2838W        W 7038   3.242   0.500   2.831
 2839W        W 7039   0.224   2.170   2.811
 2840W        W 7040   6.448  11.161   0.971
 2841W        W 7041   4.510   8.601   0.231
 2842W        W 7042   8.121  10.057   9.121
 2843W        W 7043   0.917  11.051   3.790
 2844W        W 7044  10.040  10.343  11.834
 2845W        W 7045   2.673   8.133   2.943
 2846W        W 7046   9.944   6.238   1.467
 2847W        W 7047   3.222   9.233   2.403
 2848W        W 7048   8.346   0.798   8.996
 2849W        W 7049   0.031   0.672   1.190
 2850W        W 7050   5.239  10.136  10.797
 2851W        W 7051   8.911   9.511   0.404
 2852W        W 7052   9.338   2.261  10.103
 2853W        W 7053   5.634   7.052   9.020
 2854W        W 7054   6.561   9.526   2.812
 2855W        W 7055   8.463   9.027   1.744
 2856W        W 7056   4.586   9.745  10.994
 2857W        W 7057   4.379   9.577  11.448
 2858W        W 7058   4.166  10.052   0.519
 2859W        W 7059   7.945  10.059   0.727
 2860W        W 7060   4.319   1.434  11.034
 2861W        W 7061   8.983   0.668   9.522
 2862W        W 7062   7.578  10.389   1.237
 2863W        W 7063   0.445   9.909   9.494
 2864W        W 7064  10.820   0.224   1.282
 2865W        W 7065   2.764   7.368  10.177
 2866W        W 7066   9.907   6.520   0.281
 2867W        W 7067  10.358   1.315   9.243
 2868W        W 7068   8.376   5.038  11.501
 2869W        W 7069   7.420   0.950   9.169
 2870W        W 7070   8.753   7.554  11.050
 2871W        W 7071   0.743   2.316   9.663
 2872W        W 7072   2.158   9.125   2.902
 2873W        W 7073   8.481   3.212   8.388
 2874W        W 7074   0.293   1.729  10.063
 2875W        W 7075   8.336   4.119   0.489
 2876W        W 7076   6.267   5.747   0.782
 2877W        W 7077   6.090   0.992   9.004
 2878W        W 7078   6.059   7.445   9.786
 2879W        W 7079   2.328   0.245  11.350
 2880W        W 7080   4.330   6.820   2.686
 2881W        W 7081   2.083   7.883   1.055
 2882W        W 7082   8.036   9.261   9.562
 2883W        W 7083   7.626   6.707  11.331
 2884W        W 7084  10.854  11.430   0.226
 2885W        W 7085   2.236   7.473   3.075
 2886W        W 7086   2.403   5.272   2.148
 2887W        W 7087   3.298   4.713   8.954
 2888W        W 7088   2.157   2.891   9.328
 2889W        W 7089  10.520   9.886   3.470
 2890W        W 7090   8.867   0.632   9.007
 2891W        W 7091   3.453  10.937   3.851
 2892W        W 7092   0.122   1.453   2.220
 2893W        W 7093   6.807   7.960  11.172
 2894W        W 7094   2.697  10.682  10.422
 2895W        W 7095   4.591   4.028   2.554
 2896W        W 7096   8.158   3.654   0.343
 2897W        W 7097   2.374   7.563   0.683
 2898W        W 7098   6.467   9.391  10.389
 2899W        W 7099   4.100   6.420  11.240
 2900W        W 7100  10.936   5.363  11.336
 2901W        W 7101   0.892   6.706  11.606
 2902W        W 7102   0.269   0.419   9.951
 2903W        W 7103   7.213  11.407   3.511
 2904W        W 7104   5.953   8.046  10.998
 2905W        W 7105   7.413   9.598   1.849
 2906W        W 7106   5.670  11.353   1.330
 2907W        W 7107   7.948   3.678  10.430
 2908W        W 7108   2.251   1.157   2.781
 2909W        W 7109   0.078   4.177   2.547
 2910W        W 7110   4.071   3.409   8.828
 2911W        W 7111   9.400   6.561   3.565
 2912W        W 7112   5.328  11.301   1.732
 2913W        W 7113   9.028   2.294   1.372
 2914W        W 7114   8.952   9.025   1.553
 2915W        W 7115   9.914   0.445   2.326
 2916W        W 7116   0.342   9.252   1.209
 2917W        W 7117   0.695   9.527   1.957
 2918W        W 7118   5.036   9.595   8.567
 2919W        W 7119   0.336   8.077   3.180
 2920W        W 7120   8.043   9.501   2.459
 2921W        W 7121  11.443  11.386   2.516
 2922W        W 7122   7.109   2.949   4.094
 2923W        W 7123   4.811  10.835   9.884
 2924W        W 7124   6.437   2.356  10.813
 2925W        W 7125   5.202   6.920   3.589
 2926W        W 7126   4.080  11.060  11.179
 2927W        W 7127   2.727  11.042   2.029
 2928W        W 7128  10.608   0.471   0.892
 2929W        W 7129   5.224   2.627   0.824
 2930W        W 7130   0.223   6.968   1.255
 2931W        W 7131   0.576   1.764   2.904
 2932W        W 7132   0.892   7.671   9.996
 2933W        W 7133   1.563   2.147  10.297
 2934W        W 7134   0.169   9.582   2.070
 2935W        W 7135   2.880   2.127   0.060
 2936W        W 7136   8.425   6.761  11.983
 2937W        W 7137  10.618   8.572  10.453
 2938W        W 7138   1.857   9.330  11.829
 2939W        W 7139   6.304  10.469  11.879
 2940W        W 7140   0.354   3.388   2.364
 2941W        W 7141   7.276   2.411  11.351
 2942W        W 7142   3.401   5.674   2.848
 2943W        W 7143   3.577   4.330   3.070
 2944W        W 7144  11.099   0.889  10.954
 2945W        W 7145   3.235   5.170   2.858
 2946W        W 7146   0.832   9.499  10.301
 2947W        W 7147  10.376   0.433   0.015
 2948W        W 7148   5.083  10.139   2.606
 2949W        W 7149   9.540   5.028   2.666
 2950W        W 7150   9.509   6.953   8.653
 2951W        W 7151   2.659   1.973   1.864
 2952W        W 7152   3.869   1.446   9.466
 2953W        W 7153  10.890   5.679   0.742
 2954W        W 7154   3.959  11.294   9.988
 2955W        W 7155   2.666  10.246  10.738
 2956W        W 7156   0.270   5.151   3.229
 2957W        W 7157   7.568   3.352  10.502
 2958W        W 7158   9.866   9.627   9.554
 2959W        W 7159   5.144   9.325   8.992
 2960W        W 7160   5.520   6.321  11.824
 2961W        W 7161   1.226   3.235   0.186
 2962W        W 7162   5.985   1.756   2.359
 2963W        W 7163   0.885  10.349   1.869
 2964W        W 7164   3.793   1.236   2.418
 2965W        W 7165   9.362   2.769   1.038
 2966W        W 7166   7.409   5.010   3.767
 2967W        W 7167   5.055   6.082   0.508
 2968W        W 7168   4.920  10.114   1.732
 2969W        W 7169   9.374   8.135   1.364
 2970W        W 7170   7.938   9.067   9.098
 2971W        W 7171   3.854   5.510   0.245
 2972W        W 7172   1.712   3.153  10.950
 2973W        W 7173   8.947   8.834   0.264
 2974W        W 7174   2.900  10.287   9.100
 2975W        W 7175   9.082   1.492   2.605
 2976W        W 7176   5.131   7.321   8.889
 2977W        W 7177  10.783   3.275   0.907
 2978W        W 7178   2.740   1.847   2.696
 2979W        W 7179   5.854   3.301   9.383
 2980W        W 7180  10.026   9.466   0.893
 2981W        W 7181   8.959   2.942   0.770
 2982W        W 7182   0.178   4.042  11.664
 2983W        W 7183   5.203   1.440  11.088
 2984W        W 7184   2.170   4.271   9.589
 2985W        W 7185   6.798   2.102   2.456
 2986W        W 7186   0.510   0.428  10.392
 2987W        W 7187  10.157   7.090   9.503
 2988W        W 7188   3.547   6.706   9.831
 2989W        W 7189   6.139   6.523   9.945
 2990W        W 7190   2.697   6.706   8.254
 2991W        W 7191   0.341   0.073   1.162
 2992W        W 7192   2.072   4.287   9.079
 2993W        W 7193  11.408   3.895   0.755
 2994W        W 7194   3.712   0.844   9.084
 2995W        W 7195   6.529   4.589  10.705
 2996W        W 7196   8.628  10.479   9.017
 2997W        W 7197   0.145   0.420   3.222
 2998W        W 7198   8.859   4.870  11.526
 2999W        W 7199   9.777  11.328  11.730
 3000W        W 7200   0.457   3.331   8.902
 3001W        W 7201   2.214   0.010   0.002
 3002W        W 7202  10.927   0.439   0.434
 3003W        W 7203   4.875   1.469   9.574
 3004W        W 7204   0.912   1.371   2.857
 3005W        W 7205   4.329   2.308   2.652
 3006W        W 7206   7.258   2.800   3.110
 3007W        W 7207   3.505   9.413   2.774
 3008W        W 7208   4.360   3.697  10.574
 3009W        W 7209  10.776   0.804  10.575
 3010W        W 7210   9.891   7.682   2.981
 3011W        W 7211   1.219   5.778   1.860
 3012W        W 7212   0.776   8.511  11.226
 3013W        W 7213   2.978   5.999   9.864
 3014W        W 7214   1.309   3.166   1.749
 3015W        W 7215   7.404   2.099   0.933
 3016W        W 7216   1.368   8.569   0.949
 3017W        W 7217   4.104   9.201  10.431
 3018W        W 7218   0.638   8.339   3.757
 3019W        W 7219   3.748   4.929  10.288
 3020W        W 7220   9.591   5.133  11.716
 3021W        W 7221  10.002   8.115   2.702
 3022W        W 7222   2.274   1.963   9.254
 3023W        W 7223   5.668   9.015   2.528
 3024W        W 7224   5.133   3.813  10.916
 3025W        W 7225   6.710   2.667   8.555
 3026W        W 7226   4.259   1.122  11.912
 3027W        W 7227   6.542   1.681   8.773
 3028W        W 7228   3.217   5.292  11.039
 3029W        W 7229   2.631   0.613   1.171
 3030W        W 7230   3.857   5.855   1.473
 3031W        W 7231   3.627   4.341   1.243
 3032W        W 7232   5.091   5.707  10.208
 3033W        W 7233   0.693   7.993  11.344
 3034W        W 7234   8.676   7.442  10.371
 3035W        W 7235   4.618   7.957  11.045
 3036W        W 7236  11.207  11.036   1.783
 3037W        W 7237  10.059   5.181   2.443
 3038W        W 7238   6.267   3.269   9.061
 3039W        W 7239   1.394   5.726  10.206
 3040W        W 7240   2.661   1.694  10.367
 3041W        W 7241  10.141   9.595   1.631
 3042W        W 7242   2.648   0.181  11.821
 3043W        W 7243   0.152   2.588   1.013
 3044W        W 7244   3.136   7.538   1.673
 3045W        W 7245   3.619   9.813   3.182
 3046W        W 7246   0.947  10.799  11.972
 3047W        W 7247   6.285   7.674   0.619
 3048W        W 7248   5.981   1.316   8.444
 3049W        W 7249   9.880   5.145  11.302
 3050W        W 7250   9.197   7.943   9.029
 3051W        W 7251   7.969   4.709   2.526
 3052W        W 7252   6.766   8.818  11.142
 3053W        W 7253   7.718   3.633   2.826
 3054W        W 7254   3.155  10.896  11.907
 3055W        W 7255   7.741   7.593  10.370
 3056W        W 7256  11.048   0.004   3.313
 3057W        W 7257   7.063   0.572   9.064
 3058W        W 7258   0.515  10.845  11.559
 3059W        W 7259   9.917   7.604   9.633
 3060W        W 7260   0.897   0.458   0.665
 3061W        W 7261   2.321   7.204   9.921
 3062W        W 7262   1.193   1.195   9.174
 3063W        W 7263   4.424   2.668  11.410
 3064W        W 7264   3.713  11.384   9.093
 3065W        W 7265  10.409   8.172  11.480
 3066W        W 7266  10.936   2.738   0.215
 3067W        W 7267   9.939   4.867   3.451
 3068W        W 7268   8.880   7.251   0.332
 3069W        W 7269   2.771   1.810  11.644
 3070W        W 7270   7.473  10.381   9.793
 3071W        W 7271   9.461   8.874   8.939
 3072W        W 7272   7.477   6.740   3.211
 3073W        W 7273   5.511  10.755   1.929
 3074W        W 7274   1.457   5.267  11.484
 3075W        W 7275   0.012  10.091   2.016
 3076W        W 7276   5.536   0.619  10.165
 3077W        W 7277   5.821   7.573   0.792
 3078W        W 7278   5.243   3.738   2.269
 3079W        W 7279  10.540   1.410   2.918
 3080W        W 7280   8.181   5.046  10.459
 3081W        W 7281   6.663  10.470   1.234
 3082W        W 7282   6.757   3.763  11.324
 3083W        W 7283   6.056  11.019   1.275
 3084W        W 7284   9.864   4.688  11.567
 3085W        W 7285  11.361   9.239   3.463
 3086W        W 7286   0.520   5.907  10.843
 3087W        W 7287   7.468   8.512  11.477
 3088W        W 7288   5.192   5.728   9.676
 3089W        W 7289   8.076   0.024   3.455
 3090W        W 7290   2.665  10.201  10.239
 3091W        W 7291   8.329   0.786  11.218
 3092W        W 7292   9.431   7.375   1.054
 3093W        W 7293   8.958   1.602   9.311
 3094W        W 7294   5.602   4.470   1.094
 3095W        W 7295   2.903   4.635   8.619
 3096W        W 7296   5.291  10.978   9.763
 3097W        W 7297   1.853   6.572   2.795
 3098W        W 7298   4.145  11.449   8.825
 3099W        W 7299   6.561   9.870   8.925
 3100W        W 7300   5.815   6.046  11.542
 3101W        W 7301   0.852   2.660  10.703
 3102W        W 7302   4.596   5.443   1.436
 3103W        W 7303   4.283   7.829  10.078
 3104W        W 7304   2.843   7.509   2.093
 3105W        W 7305   1.438   8.165  10.527
 3106W        W 7306   7.506   2.754   1.649
 3107W        W 7307  11.384   1.250   0.045
 3108W        W 7308   8.030   0.815   1.996
 3109W        W 7309   6.128   0.449  11.777
 3110W        W 7310   5.260  10.510   1.065
 3111W        W 7311   8.117   2.445  11.933
 3112W        W 7312   7.041   4.084   1.086
 3113W        W 7313   3.252   8.652   9.352
 3114W        W 7314   3.590   5.762  11.864
 3115W        W 7315   5.804  10.768   0.281
 3116W        W 7316   4.042   0.781  10.435
 3117W        W 7317  11.372   5.203   9.763
 3118W        W 7318   6.441   4.774  11.705
 3119W        W 7319   1.186   8.588   9.334
 3120W        W 7320   3.261   7.919   0.369
 3121W        W 7321   3.285   8.197   1.264
 3122W        W 7322   1.806  11.221  10.565
 3123W        W 7323   4.567   0.008   0.898
 3124W        W 7324   8.480  11.338   2.650
 3125W        W 7325   6.177   1.299   0.740
 3126W        W 7326   0.902   7.246   3.974
 3127W        W 7327   0.375   3.811   0.993
 3128W        W 7328   3.734   3.201  11.885
 3129W        W 7329   1.631  10.309   9.014
 3130W        W 7330   3.521  11.272   3.049
 3131W        W 7331  11.047   8.732   0.578
 3132W        W 7332   5.707   2.291   9.196
 3133W        W 7333   2.571   5.119   3.733
 3134W        W 7334   6.736  10.510   9.042
 3135W        W 7335   5.742   2.827  10.014
 3136W        W 7336   3.982   4.675   9.828
 3137W        W 7337   4.518   9.112   0.266
 3138W        W 7338   7.767   8.322   9.235
 3139W        W 7339   0.257   0.847  10.270
 3140W        W 7340  11.470   1.263   1.305
 3141W        W 7341  11.128  10.758   3.537
 3142W        W 7342   1.290  11.357  10.503
 3143W        W 7343   6.843   7.865   2.346
 3144W        W 7344   6.508   4.497   2.610
 3145W        W 7345   1.027   4.512   1.339
 3146W        W 7346   4.273  10.319   1.979
 3147W        W 7347   0.633  10.055   0.190
 3148W        W 7348   1.398   9.534  11.014
 3149W        W 7349   8.978   1.091   9.196
 3150W        W 7350   2.925   0.285   0.249
 3151W        W 7351  11.313   8.743   3.325
 3152W        W 7352  11.170   4.630   3.419
 3153W        W 7353  11.217   4.341   9.883
 3154W        W 7354   1.911   1.871   0.043
 3155W        W 7355   6.972   9.797   0.915
 3156W        W 7356   5.287   8.953  10.991
 3157W        W 7357   1.888   3.882   0.875
 3158W        W 7358  10.494   8.437  11.923
 3159W        W 7359   4.391   9.965   9.229
 3160W        W 7360   2.560   1.214   2.390
 3161W        W 7361   8.408   5.555   8.990
 3162W        W 7362   1.558  10.392   0.996
 3163W        W 7363   3.740   1.768  10.424
 3164W        W 7364   5.626   1.674   1.599
 3165W        W 7365   8.164   1.042   2.441
 3166W        W 7366  10.539   9.341   0.178
 3167W        W 7367   6.243   5.076  10.475
 3168W        W 7368   3.603  10.979   9.452
 3169W        W 7369   8.494   2.672  10.001
 3170W        W 7370   2.300   8.672   9.116
 3171W        W 7371  10.931   9.529   3.384
 3172W        W 7372   9.340   4.270   9.632
 3173W        W 7373   5.739   7.994   9.094
 3174W        W 7374   3.156   6.947   1.049
 3175W        W 7375   9.991   4.565  10.168
 3176W        W 7376   2.826   2.802   0.479
 3177W        W 7377   5.607   2.839   3.373
 3178W        W 7378   6.964   0.783  10.244
 3179W        W 7379  11.469  10.954   2.259
 3180W        W 7380   2.121   6.116  11.766
 3181W        W 7381  11.337   7.606   1.627
 3182W        W 7382   1.687   0.695   9.174
 3183W        W 7383  10.588   8.861   1.388
 3184W        W 7384   3.202   8.883   1.989
 3185W        W 7385   6.084   8.311   1.778
 3186W        W 7386   0.363  11.072   1.311
 3187W        W 7387   5.991  10.906  11.436
 3188W        W 7388   9.868   2.229  11.778
 3189W        W 7389   8.930   0.865  10.746
 3190W        W 7390   8.608   3.791   2.675
 3191W        W 7391   1.210   6.504   3.545
 3192W        W 7392   8.902   1.247   9.681
 3193W        W 7393   3.819   7.785  11.421
 3194W        W 7394   8.312   9.532   2.016
 3195W        W 7395   9.310   7.843   1.842
 3196W        W 7396   0.951   9.877   9.377
 3197W        W 7397   8.781   4.558   1.264
 3198W        W 7398   1.101  11.319  11.939
 3199W        W 7399   1.197   1.007   2.626
 3200W        W 7400   5.753   3.274   8.376
 3201W        W 7401   9.939   6.183   9.841
 3202W        W 7402   5.656   0.929   2.204
 3203W        W 7403   2.692   7.179  11.733
 3204W        W 7404   5.755  11.275   0.425
 3205W        W 7405   2.640   2.843   9.454
 3206W        W 7406   3.819   2.615   3.229
 3207W        W 7407  10.939   8.963   9.290
 3208W        W 7408   2.227  11.230   2.760
 3209W        W 7409   9.060   4.689   9.677
 3210W        W 7410   8.131   9.385   1.565
 3211W        W 7411   7.540   9.028   2.933
 3212W        W 7412   2.009   7.636   2.633
 3213W        W 7413   8.715  11.348   0.379
 3214W        W 7414   0.794   1.593  11.350
 3215W        W 7415   8.443   0.567   1.748
 3216W        W 7416   7.499   7.979   1.007
 3217W        W 7417   4.006   2.825   9.562
 3218W        W 7418   0.831   8.803   0.061
 3219W        W 7419  10.767   4.873  11.440
 3220W        W 7420  11.282   8.180   0.368
 3221W        W 7421   2.735   1.528  11.220
 3222W        W 7422   6.575   0.752   2.763
 3223W        W 7423   4.171   0.971   3.382
 3224W        W 7424  10.817  10.803  10.895
 3225W        W 7425   7.256   1.343   9.579
 3226W        W 7426  10.925   2.550   9.706
 3227W        W 7427   9.429   6.625   0.331
 3228W        W 7428   1.862   2.910   2.705
 3229W        W 7429   3.479   4.399   0.457
 3230W        W 7430   9.567   6.550   0.820
 3231W        W 7431  10.240   1.274   3.338
 3232W        W 7432   7.513   9.431  11.289
 3233W        W 7433   9.897   9.477  10.524
 3234W        W 7434   3.910  10.042   9.358
 3235W        W 7435   3.443   7.962   1.746
 3236W        W 7436  10.579   1.832   9.191
 3237W        W 7437  10.793   0.833   3.460
 3238W        W 7438   3.592   8.952   0.577
 3239W        W 7439   6.987   4.314   2.784
 3240W        W 7440   3.141   3.214   0.454
 3241W        W 7441   6.480   9.199   8.494
 3242W        W 7442   6.113   5.224  11.893
 3243W        W 7443   4.327   8.650   2.568
 3244W        W 7444   6.278  11.294   0.370
 3245W        W 7445   3.662   6.509   2.142
 3246W        W 7446   2.813   4.329   0.932
 3247W        W 7447   1.252  10.061   1.265
 3248W        W 7448  11.309  10.289   9.948
 3249W        W 7449   8.079  10.311  11.279
 3250W        W 7450   0.923   5.642   9.963
 3251W        W 7451   8.413   7.088   9.817
 3252W        W 7452   0.780   7.779  10.875
 3253W        W 7453   3.951   3.209   0.894
 3254W        W 7454   6.398   5.758  10.557
 3255W        W 7455  10.421   9.785   0.925
 3256W        W 7456   0.796   9.970   0.667
 3257W        W 7457   0.396  11.030   9.954
 3258W        W 7458   4.648   4.392  10.016
 3259W        W 7459   0.854   1.262  11.729
 3260W        W 7460  11.484   0.167   0.710
 3261W        W 7461  10.917   1.257   3.219
 3262W        W 7462   1.924  10.405   3.132
 3263W        W 7463   6.307   6.034   1.211
 3264W        W 7464   0.313  11.459  10.250
 3265W        W 7465  10.253   0.529   2.728
 3266W        W 7466   5.362  10.090   0.765
 3267W        W 7467   6.001  11.410   2.853
 3268W        W 7468   2.795   9.386   9.257
 3269W        W 7469   8.369   9.276   3.253
 3270W        W 7470   9.916   2.831   0.464
 3271W        W 7471   9.396   0.032   1.457
 3272W        W 7472   5.048  11.493   2.504
 3273W        W 7473   9.692   0.040   0.170
 3274W        W 7474   8.406   8.617   2.053
 3275W        W 7475   3.355   8.465   2.789
 3276W        W 7476   0.374   6.089   0.749
 3277W        W 7477   4.201   6.538   8.572
 3278W        W 7478   5.059   2.369   9.992
 3279W        W 7479   1.156   8.769   2.917
 3280W        W 7480   2.619   8.493   3.287
 3281W        W 7481   0.379  11.033   8.457
 3282W        W 7482   7.503   1.414   1.196
 3283W        W 7483   1.382   2.251   3.316
 3284W        W 7484   9.958   7.187   9.951
 3285W        W 7485   1.307   0.597   2.375
 3286W        W 7486   2.686   3.464   1.020
 3287W        W 7487  11.289   6.872   0.367
 3288W        W 7488   7.477   8.193   0.307
 3289W        W 7489   6.976  10.175   0.063
 3290W        W 7490   0.465   0.467   1.460
 3291W        W 7491   5.509   3.252   0.093
 3292W        W 7492   8.648   5.942  10.081
 3293W        W 7493   2.219   4.117   1.747
 3294W        W 7494   0.401   2.969  11.842
 3295W        W 7495   7.661   0.090   1.686
 3296W        W 7496   1.933   5.141   2.309
 3297W        W 7497   7.475   2.679   2.163
 3298W        W 7498   1.399   6.919   9.505
 3299W        W 7499   8.479   0.296   2.946
 3300W        W 7500   1.566   9.433   0.840
 3301W        W 7501  11.333   1.617   0.421
 3302W        W 7502   6.605   7.106   9.656
 3303W        W 7503   9.054   8.896  11.230
 3304W        W 7504   3.747   4.640   0.829
 3305W        W 7505   1.803   0.465  10.016
 3306W        W 7506   8.377   8.896   9.421
 3307W        W 7507   1.035   7.936  11.741
 3308W        W 7508   0.441   5.549  10.477
 3309W        W 7509   2.966   9.497   9.808
 3310W        W 7510  10.844   0.658   8.962
 3311W        W 7511   3.240   8.206  10.093
 3312W        W 7512   7.470   0.532   0.267
 3313W        W 7513  11.322   6.450  10.464
 3314W        W 7514   3.179   1.262   1.551
 3315W        W 7515   3.188   7.685  10.800
 3316W        W 7516   6.693   9.054   2.403
 3317W        W 7517   8.010   0.517   0.284
 3318W        W 7518   1.882   3.082   1.278
 3319W        W 7519   4.980  10.359   0.497
 3320W        W 7520  10.316   3.674   8.667
 3321W        W 7521   3.891   2.343   0.908
 3322W        W 7522   7.544   5.620   1.565
 3323W        W 7523   1.362   8.922   1.961
 3324W        W 7524   6.212  10.143   1.193
 3325W        W 7525  10.586   6.092   0.677
 3326W        W 7526   3.984   2.192   3.526
 3327W        W 7527   9.760   3.069   1.865
 3328W        W 7528   0.196   4.540   2.995
 3329W        W 7529   0.548   3.892  10.570
 3330W        W 7530   6.048  10.590   1.028
 3331W        W 7531  10.478  11.205   0.496
 3332W        W 7532  10.354  10.460   9.216
 3333W        W 7533   4.361   5.993  11.178
 3334W        W 7534   9.370   1.017   9.590
 3335W        W 7535   3.067   1.447  10.563
 3336W        W 7536   4.735   6.783   9.489
 3337W        W 7537   4.656   1.088   2.881
 3338W        W 7538  10.726   3.627   2.668
 3339W        W 7539   0.612   9.041  10.519
 3340W        W 7540   8.549   1.511   8.404
 3341W        W 7541   0.843   0.488   3.168
 3342W        W 7542   0.522   2.320   8.814
 3343W        W 7543   6.171  11.475   9.857
 3344W        W 7544   4.088   1.615   1.303
 3345W        W 7545   9.937   6.662  11.281
 3346W        W 7546   4.056   5.046   0.051
 3347W        W 7547   8.051  10.539   1.426
 3348W        W 7548   7.276   5.466   1.036
 3349W        W 7549  11.369   6.013   2.418
 3350W        W 7550   9.472   8.406   2.780
 3351W        W 7551   0.579   7.490  11.265
 3352W        W 7552   7.463   6.039   1.908
 3353W        W 7553   3.039   9.763   3.501
 3354W        W 7554   6.784   4.211   2.274
 3355W        W 7555   3.437   6.563   2.648
 3356W        W 7556   4.989   7.534   1.273
 3357W        W 7557   0.869   8.421  11.716
 3358W        W 7558   7.411   9.904  10.040
 3359W        W 7559   0.947   5.673  10.480
 3360W        W 7560   7.994   8.926   3.187
 3361W        W 7561   5.704   3.121  11.177
 3362W        W 7562  11.452   2.813   2.954
 3363W        W 7563   5.205  10.537  11.102
 3364W        W 7564   2.254   8.562   0.772
 3365W        W 7565   0.379   1.759  11.600
 3366W        W 7566   2.893   7.169  10.786
 3367W        W 7567   8.349   5.660   2.744
 3368W        W 7568   0.934   8.034   1.472
 3369W        W 7569   6.729   9.132   4.150
 3370W        W 7570   1.102  11.240   0.463
 3371W        W 7571   6.587   3.052   0.043
 3372W        W 7572   9.174   6.433   1.806
 3373W        W 7573   2.838   2.957   1.927
 3374W        W 7574   6.506   4.369   9.810
 3375W        W 7575   3.201   3.493   3.213
 3376W        W 7576   4.754   0.769  11.303
 3377W        W 7577   9.367   4.083  10.638
 3378W        W 7578   7.775   3.363   8.740
 3379W        W 7579   3.779   6.464   9.447
 3380W        W 7580  10.323   9.499  11.742
 3381W        W 7581   3.818   4.123   2.649
 3382W        W 7582   4.534   7.302   9.409
 3383W        W 7583   6.939   0.490   9.588
 3384W        W 7584   1.062   6.231   8.819
 3385W        W 7585   1.283   2.444  10.922
 3386W        W 7586   4.898   6.555  10.605
 3387W        W 7587   9.363   2.320  11.622
 3388W        W 7588  10.946   6.732   2.672
 3389W        W 7589   4.271   5.313   1.853
 3390W        W 7590   5.027   2.389   1.862
 3391W        W 7591   5.475   4.965   2.792
 3392W        W 7592   9.786   9.942  11.269
 3393W        W 7593   4.395   7.024   0.632
 3394W        W 7594   8.263   6.968   3.358
 3395W        W 7595  10.849  11.040  11.842
 3396W        W 7596  10.503   6.083   3.294
 3397W        W 7597   5.251   2.211   8.960
 3398W        W 7598   7.028   1.015   8.809
 3399W        W 7599   7.058   2.870  11.251
 3400W        W 7600   6.793   7.043  10.184
 3401W        W 7601   5.234   5.730   0.846
 3402W        W 7602  10.031   7.169  10.800
 3403W        W 7603   9.020   6.191   9.780
 3404W        W 7604   4.188   1.945   1.690
 3405W        W 7605   2.945   8.644   9.927
 3406W        W 7606   0.401   9.557   8.529
 3407W        W 7607   9.902   8.669   8.748
 3408W        W 7608   6.495   9.642   9.398
 3409W        W 7609   3.118   1.682   1.883
 3410W        W 7610   8.454   2.577   8.533
 3411W        W 7611   5.241   1.418   9.207
 3412W        W 7612   4.156   3.157   9.911
 3413W        W 7613   9.515  10.272  10.963
 3414W        W 7614   3.018   3.155  10.652
 3415W        W 7615   3.572   8.582   0.244
 3416W        W 7616   1.351   2.647   9.899
 3417W        W 7617   1.790   7.660  10.402
 3418W        W 7618   4.106   6.740  10.843
 3419W        W 7619   7.847   6.919   1.544
 3420W        W 7620   1.941   2.857   1.789
 3421W        W 7621   8.420   6.302   0.821
 3422W        W 7622   6.700  11.267   2.357
 3423W        W 7623   2.760   2.580   9.041
 3424W        W 7624   2.328   6.900   9.490
 3425W        W 7625   4.315   0.371  10.611
 3426W        W 7626   3.122  10.832   9.555
 3427W        W 7627   7.106   5.013   0.092
 3428W        W 7628  10.819   9.010   0.954
 3429W        W 7629   9.595   1.486   2.630
 3430W        W 7630   4.303   9.886   2.832
 3431W        W 7631   0.700   0.908   2.718
 3432W        W 7632   6.759  10.624   3.214
 3433W        W 7633  10.938  10.907   0.334
 3434W        W 7634  10.928   8.068   2.719
 3435W        W 7635   5.830   6.672  10.921
 3436W        W 7636   8.963   4.406  11.386
 3437W        W 7637   2.192   8.372   9.496
 3438W        W 7638   4.124   3.058   3.255
 3439W        W 7639   2.500   2.197   2.317
 3440W        W 7640   4.160   3.633  10.120
 3441W        W 7641   6.564  10.514  10.166
 3442W        W 7642   3.485   8.787   2.414
 3443W        W 7643   6.627   5.193  11.986
 3444W        W 7644   9.884   2.701   9.593
 3445W        W 7645  10.826   8.947  11.235
 3446W        W 7646   1.335   5.209   0.356
 3447W        W 7647   7.202   6.971   0.920
 3448W        W 7648   2.326   1.065   1.942
 3449W        W 7649   8.662   7.789   0.895
 3450W        W 7650   6.995   3.915  11.761
 3451W        W 7651   7.102   8.551   3.428
 3452W        W 7652   9.805   4.561   1.019
 3453W        W 7653   8.639  11.227   1.277
 3454W        W 7654   1.678   0.839   9.653
 3455W        W 7655   8.113   0.979   3.494
 3456W        W 7656   8.195  10.478  10.814
 3457W        W 7657  10.851   5.731   3.126
 3458W        W 7658   2.140   4.898   3.554
 3459W        W 7659   5.280   7.878  10.281
 3460W        W 7660   1.758   2.701   9.596
 3461W        W 7661   0.099   1.749  10.558
 3462W        W 7662   9.392   2.736   3.028
 3463W        W 7663   3.410   1.236   9.282
 3464W        W 7664   7.113   3.927   1.986
 3465W        W 7665   8.765   5.160   8.965
 3466W        W 7666   0.271   8.285   0.237
 3467W        W 7667   7.700   8.043  11.264
 3468W        W 7668   5.124   6.852   2.511
 3469W        W 7669   2.414   9.468  10.162
 3470W        W 7670   6.703   6.915  10.704
 3471W        W 7671   5.064   4.215   2.395
 3472W        W 7672   0.045   9.640  10.914
 3473W        W 7673   5.883   7.514   3.124
 3474W        W 7674  11.385   8.789   9.048
 3475W        W 7675   7.738   8.540  11.947
 3476W        W 7676   5.157   9.366   1.880
 3477W        W 7677   1.801   9.482   3.061
 3478W        W 7678   3.032   5.262   0.639
 3479W        W 7679   5.960   6.064   0.060
 3480W        W 7680  10.841   4.532   9.474
 3481W        W 7681   9.014   6.705   1.407
 3482W        W 7682   0.792  10.806   1.184
 3483W        W 7683   5.986   0.808  10.341
 3484W        W 7684  11.472   1.284  10.803
 3485W        W 7685   9.578   5.409  10.941
 3486W        W 7686   4.306   9.462   9.457
 3487W        W 7687  10.295   2.782   8.945
 3488W        W 7688   4.020   5.551   2.367
 3489W        W 7689  10.821   8.189  10.129
 3490W        W 7690   4.687   0.832   3.317
 3491W        W 7691   1.375   6.108  11.148
 3492W        W 7692   6.046   6.467  11.783
 3493W        W 7693   9.772   4.107  10.311
 3494W        W 7694   8.323   1.435   0.856
 3495W        W 7695   5.740   5.761   0.985
 3496W        W 7696   3.578   8.317   2.169
 3497W        W 7697   8.542   4.687   3.194
 3498W        W 7698   1.224   8.628   0.436
 3499W        W 7699   8.874  10.470   0.454
 3500W        W 7700   0.815   4.746   2.181
 3501W        W 7701   0.536  10.594  10.908
 3502W        W 7702  10.048   1.711   9.585
 3503W        W 7703   4.309   3.709   9.637
 3504W        W 7704   2.427   3.010   3.275
 3505W        W 7705   3.301   9.593   8.850
 3506W        W 7706   2.386   5.328  10.975
 3507W        W 7707   9.362   7.018   0.682
 3508W        W 7708   7.509   4.587   2.806
 3509W        W 7709  11.074  11.381   8.548
 3510W        W 7710   1.604   8.635   3.195
 3511W        W 7711  10.850   8.363   1.289
 3512W        W 7712   6.787   5.218   1.887
 3513W        W 7713  11.313   5.762   1.910
 3514W        W 7714   8.303  11.194  10.501
 3515W        W 7715   2.789   5.039  10.877
 3516W        W 7716   2.259   6.632  11.286
 3517W        W 7717   1.576   8.527   2.356
 3518W        W 7718   3.029  10.554   0.767
 3519W        W 7719   3.255   5.598   9.028
 3520W        W 7720   1.030  10.721  11.000
 3521W        W 7721   1.819   6.585  11.551
 3522W        W 7722   8.140   8.428   3.204
 3523W        W 7723   4.599   9.040   9.385
 3524W        W 7724  11.354   3.312   9.556
 3525W        W 7725   3.191   4.166  11.990
 3526W        W 7726   9.036   2.296   2.235
 3527W        W 7727   1.288   0.731  11.391
 3528W        W 7728   3.133   4.759   9.535
 3529W        W 7729   5.259   1.404   0.424
 3530W        W 7730   9.326   4.686   2.318
 3531W        W 7731   0.480   0.252   2.869
 3532W        W 7732   0.761   6.416  11.145
 3533W        W 7733   3.738   2.619   2.702
 3534W        W 7734   1.069  10.390   0.880
 3535W        W 7735   6.139   7.688   8.922
 3536W        W 7736   0.730   3.329  11.980
 3537W        W 7737   1.744   9.828   8.842
 3538W        W 7738   4.313   1.855   0.384
 3539W        W 7739   3.331   4.619  10.352
 3540W        W 7740  10.432  10.881   0.091
 3541W        W 7741   6.571   9.285  11.189
 3542W        W 7742   8.152   2.148  11.529
 3543W        W 7743   0.941   3.759  11.237
 3544W        W 7744   4.625   1.498  11.934
 3545W        W 7745   5.219  10.628   9.247
 3546W        W 7746   8.864  10.406   2.277
 3547W        W 7747  11.141   5.188   0.005
 3548W        W 7748   8.074  10.365   2.944
 3549W        W 7749   9.375   5.534   2.475
 3550W        W 7750   1.630   1.854  11.608
 3551W        W 7751   6.417   9.371   8.963
 3552W        W 7752   5.984  10.427  10.356
 3553W        W 7753   7.889   8.925   1.741
 3554W        W 7754  10.963   7.425   1.340
 3555W        W 7755   1.851   8.966   2.380
 3556W        W 7756   4.950   8.303  11.742
 3557W        W 7757  10.189  11.396   0.098
 3558W        W 7758   6.690  11.291   1.840
 3559W        W 7759   4.763   9.905   9.557
 3560W        W 7760   8.580  10.338  11.104
 3561W        W 7761   5.394   7.317   3.292
 3562W        W 7762   6.302   3.834   1.384
 3563W        W 7763   2.722   3.053  11.068
 3564W        W 7764  11.365   5.571   0.902
 3565W        W 7765   7.940   3.229   9.592
 3566W        W 7766   5.256  11.065   3.225
 3567W        W 7767   1.299   0.102   2.293
 3568W        W 7768   1.354   9.183   3.166
 3569W        W 7769   7.123   7.394   2.106
 3570W        W 7770   4.093   6.473  11.768
 3571W        W 7771  10.980   1.868   1.711
 3572W        W 7772   9.263  11.498   3.643
 3573W        W 7773   6.171   2.484   8.646
 3574W        W 7774   6.699   9.927   2.506
 3575W        W 7775   3.610   3.584   8.978
 3576W        W 7776   3.103  10.050   9.991
 3577W        W 7777   8.052   0.247   0.747
 3578W        W 7778  10.004  10.319   8.840
 3579W        W 7779   8.680   2.398   2.584
 3580W        W 7780   0.420   2.274   1.339
 3581W        W 7781   3.654   0.371   9.242
 3582W        W 7782  11.418  11.019   8.698
 3583W        W 7783  11.030   2.318   2.287
 3584W        W 7784   1.832   6.040  10.855
 3585W        W 7785   3.436   8.607   9.829
 3586W        W 7786   2.588   7.095   1.935
 3587W        W 7787   9.946   4.840   0.623
 3588W        W 7788   7.686   8.833   2.271
 3589W        W 7789  11.337  10.572   1.967
 3590W        W 7790   0.918   5.426   1.616
 3591W        W 7791   6.986   1.892   0.663
 3592W        W 7792   1.982   2.295  11.755
 3593W        W 7793   6.544   5.693   1.508
 3594W        W 7794   9.121   3.451  11.213
 3595W        W 7795   3.525   7.496   2.607
 3596W        W 7796   3.589   7.076  10.184
 3597W        W 7797   7.270   6.221  11.009
 3598W        W 7798   4.012   9.336   8.520
 3599W        W 7799   6.138   2.832   0.736
 3600W        W 7800   9.547   9.052  11.762
 3601W        W 7801   2.401   9.161   8.983
 3602W        W 7802   9.192   5.799   3.048
 3603W        W 7803   4.992   6.657  11.233
 3604W        W 7804   4.254   4.725  11.244
 3605W        W 7805   5.354   8.856  11.911
 3606W        W 7806   3.245   7.914   2.238
 3607W        W 7807   8.450   1.804   0.512
 3608W        W 7808  11.413   7.844   3.026
 3609W        W 7809   0.988   8.265  10.822
 3610W        W 7810   1.132   4.270  11.281
 3611W        W 7811   6.096   5.286   9.478
 3612W        W 7812   6.678  10.207   0.810
 3613W        W 7813   6.811   0.303  10.066
 3614W        W 7814   5.631   4.067   9.818
 3615W        W 7815   4.621   1.603   2.909
 3616W        W 7816   8.081   8.120   0.982
 3617W        W 7817   1.900  10.316   0.230
 3618W        W 7818   1.317   2.705   9.318
 3619W        W 7819   6.492   2.640   2.335
 3620W        W 7820   4.117   7.553   9.644
 3621W        W 7821   2.298   5.560  10.434
 3622W        W 7822   9.546   8.263  10.735
 3623W        W 7823   1.877   7.003   9.264
 3624W        W 7824   9.972   0.867   0.561
 3625W        W 7825   6.142   8.538   2.245
 3626W        W 7826  11.307   1.104   0.535
 3627W        W 7827   7.489   7.676   0.227
 3628W        W 7828  11.068   6.170   0.863
 3629W        W 7829   2.131   8.995   0.515
 3630W        W 7830   8.386   6.888   2.323
 3631W        W 7831   3.242   4.703   2.096
 3632W        W 7832  10.955   1.392   1.444
 3633W        W 7833   4.672   1.909   0.913
 3634W        W 7834   5.644   0.632   1.785
 3635W        W 7835   3.216   7.583   3.028
 3636W        W 7836   1.065   7.633  11.327
 3637W        W 7837  10.017   9.937   3.240
 3638W        W 7838   5.769   2.220   2.337
 3639W        W 7839   9.047  10.821   1.536
 3640W        W 7840   6.527   8.166   2.906
 3641W        W 7841   1.827  10.409  10.733
 3642W        W 7842   9.942   8.750   0.083
 3643W        W 7843   1.738   4.243   9.925
 3644W        W 7844   4.254   8.482   0.951
 3645W        W 7845   9.843   5.662  11.317
 3646W        W 7846   0.177   1.714   0.055
 3647W        W 7847   3.666  10.466   9.479
 3648W        W 7848   8.518  10.868   0.431
 3649W        W 7849   5.018   3.884   9.211
 3650W        W 7850   8.027   0.040   2.452
 3651W        W 7851   5.452   7.446   0.368
 3652W        W 7852  10.444   0.842  10.954
 3653W        W 7853   8.220   1.905   0.070
 3654W        W 7854   0.687   0.058  11.060
 3655W        W 7855   8.082  10.314   3.449
 3656W        W 7856   8.558   6.611   3.136
 3657W        W 7857  10.967   8.577  10.888
 3658W        W 7858   1.346   0.258   2.798
 3659W        W 7859   5.043   5.241  10.438
 3660W        W 7860   8.539   4.633  11.089
 3661W        W 7861   2.346   5.219   2.651
 3662W        W 7862   9.341   2.359   9.123
 3663W        W 7863   4.054   1.230   9.045
 3664W        W 7864   2.612   6.565   2.284
 3665W        W 7865   7.296   7.959  10.957
 3666W        W 7866   5.104   3.878   2.756
 3667W        W 7867   4.502   9.863   1.879
 3668W        W 7868   8.382  11.458   9.265
 3669W        W 7869   8.462   0.315   8.920
 3670W        W 7870   0.917   2.299   1.434
 3671W        W 7871   2.889  10.538   9.929
 3672W        W 7872   5.111   3.256   0.458
 3673W        W 7873   9.635   3.485   9.411
 3674W        W 7874  10.061   7.180   2.821
 3675W        W 7875  10.603   2.669  11.844
 3676W        W 7876   5.064   3.067   3.178
 3677W        W 7877   6.331   6.590  10.849
 3678W        W 7878   0.362  10.829   0.874
 3679W        W 7879  11.396   3.072   0.073
 3680W        W 7880   1.263   0.359   9.108
 3681W        W 7881  11.221   2.346   1.823
 3682W        W 7882   3.781   5.222   2.056
 3683W        W 7883   2.376   3.106   1.761
 3684W        W 7884   4.302   9.249  10.941
 3685W        W 7885   6.016   5.310  10.874
 3686W        W 7886   5.662   1.371   3.552
 3687W        W 7887   3.303   8.665  10.845
 3688W        W 7888   8.725   5.148   1.956
 3689W        W 7889   6.286   3.989  10.609
 3690W        W 7890   2.354  10.349   1.373
 3691W        W 7891   4.898   4.092   3.156
 3692W        W 7892   8.147  10.750   0.071
 3693W        W 7893   7.293   2.129  10.902
 3694W        W 7894   2.842  11.038   9.938
 3695W        W 7895   6.526   5.664   2.008
 3696W        W 7896   7.082   7.558  11.329
 3697W        W 7897   4.363   5.998   1.536
 3698W        W 7898   9.727   0.102   3.339
 3699W        W 7899   4.180   9.089   1.704
 3700W        W 7900   9.497   4.512   2.786
 3701W        W 7901   3.387   2.268  11.006
 3702W        W 7902   6.137   5.625   9.879
 3703W        W 7903   2.375   7.969  11.515
 3704W        W 7904   2.270   5.674  11.960
 3705W        W 7905   0.367   6.586   9.182
 3706W        W 7906   9.969   1.035  11.021
 3707W        W 7907   0.438  11.355   1.764
 3708W        W 7908  11.378   2.674  10.351
 3709W        W 7909   7.967   6.664   3.738
 3710W        W 7910   2.671   6.655  10.818
 3711W        W 7911   3.164   5.889   2.022
 3712W        W 7912   5.744   6.669   1.633
 3713W        W 7913  11.383   9.069   2.933
 3714W        W 7914   1.112   2.958  11.772
 3715W        W 7915  11.044   7.932   9.337
 3716W        W 7916   5.653   9.429   1.720
 3717W        W 7917   3.836   2.458  11.232
 3718W        W 7918   9.578   5.212   0.731
 3719W        W 7919   8.524   7.432   1.378
 3720W        W 7920   9.520   3.272  11.564
 3721W        W 7921   2.300   3.582  10.521
 3722W        W 7922   9.642   9.649   3.458
 3723W        W 7923   8.594  11.303  10.921
 3724W        W 7924   7.109   2.658  10.319
 3725W        W 7925   3.153   6.175   2.871
 3726W        W 7926   1.128   0.897   0.427
 3727W        W 7927   8.547   5.658   1.850
 3728W        W 7928  10.067   6.135   2.601
 3729W        W 7929   4.161   7.739  10.983
 3730W        W 7930  10.433  11.494   0.924
 3731W        W 7931   0.125   2.633   8.519
 3732W        W 7932   6.122   2.780  11.307
 3733W        W 7933   4.251   0.057   0.446
 3734W        W 7934   6.331   6.940   1.295
 3735W        W 7935   6.069   4.818   1.783
 3736W        W 7936   7.775   5.574   1.114
 3737W        W 7937   7.298   9.385   0.987
 3738W        W 7938   5.158   9.192   0.728
 3739W        W 7939   1.891  10.042   1.831
 3740W        W 7940   5.285   4.643  10.277
 3741W        W 7941   4.302   3.802   0.231
 3742W        W 7942   3.088   2.570   9.461
 3743W        W 7943   6.905   4.708   9.857
 3744W        W 7944   5.054   9.676   0.715
 3745W        W 7945   5.142   0.873   3.008
 3746W        W 7946   9.384   3.555   2.916
 3747W        W 7947   0.285   6.332  10.670
 3748W        W 7948   0.797  11.279   1.424
 3749W        W 7949   3.264   4.238  11.055
 3750W        W 7950   4.058   0.301  10.167
 3751W        W 7951   0.458   5.764   1.557
 3752W        W 7952  10.834   3.226   0.019
 3753W        W 7953   8.149   8.182   2.759
 3754W        W 7954   6.228   8.306  11.831
 3755W        W 7955   9.092   6.505   9.373
 3756W        W 7956   2.160   3.892   2.653
 3757W        W 7957   3.544  10.853   1.235
 3758W        W 7958   9.636   1.902   9.824
 3759W        W 7959   8.301   4.317   2.436
 3760W        W 7960   9.488  10.771   1.850
 3761W        W 7961   9.533   8.540  11.787
 3762W        W 7962   3.305   1.943   0.291
 3763W        W 7963   3.910   9.063   2.542
 3764W        W 7964   9.270   1.374   3.078
 3765W        W 7965   6.118   0.313  10.252
 3766W        W 7966   7.621   4.612  10.965
 3767W        W 7967  10.847  11.060   0.828
 3768W        W 7968   6.056   8.118   0.717
 3769W        W 7969   6.673   4.667  11.220
 3770W        W 7970   2.213   4.255  10.095
 3771W        W 7971   8.513   3.631   9.973
 3772W        W 7972   0.755   9.791   1.156
 3773W        W 7973   3.029   0.434   2.362
 3774W        W 7974   8.434   3.621  10.545
 3775W        W 7975   2.912   5.177   2.076
 3776W        W 7976   6.088   4.113   9.129
 3777W        W 7977   9.256   5.381   3.427
 3778W        W 7978   2.562   5.658   3.141
 3779W        W 7979   6.950  10.690   8.593
 3780W        W 7980   4.182   5.640  10.252
 3781W        W 7981   6.676   3.144   2.330
 3782W        W 7982   0.806  11.237   9.496
 3783W        W 7983   0.276   7.480   8.779
 3784W        W 7984   8.000   1.885   2.442
 3785W        W 7985   9.791   7.897   0.474
 3786W        W 7986   9.832   6.023   9.375
 3787W        W 7987   3.356   3.324  11.565
 3788W        W 7988   5.577   0.918   2.723
 3789W        W 7989  10.964   9.972   3.114
 3790W        W 7990   2.150   8.255   8.708
 3791W        W 7991   8.589  10.086   9.373
 3792W        W 7992   1.824   5.968   9.099
 3793W        W 7993  11.276   7.491   2.120
 3794W        W 7994  10.067   5.344   1.502
 3795W        W 7995   7.947   8.179   9.705
 3796W        W 7996   8.026   1.929   8.936
 3797W        W 7997   9.833   0.904   2.546
 3798W        W 7998   5.697   9.895   0.437
 3799W        W 7999  10.793   2.729  11.284
 3800W        W 8000   9.783   1.529  11.793
 3801W        W 8001   8.995   2.978  11.094
 3802W        W 8002   3.404   5.677   0.576
 3803W        W 8003   0.691   1.192   9.062
 3804W        W 8004   2.559   2.227  10.444
 3805W        W 8005   1.844   3.592   1.313
 3806W        W 8006   3.634   7.860   9.566
 3807W        W 8007   7.895   7.400  10.826
 3808W        W 8008   5.234   3.498  10.529
 3809W        W 8009   4.722  10.042  10.537
 3810W        W 8010   7.961   3.817   9.068
 3811W        W 8011   3.627   8.594   1.220
 3812W        W 8012   6.668   7.387   2.315
 3813W        W 8013   7.591   7.548  11.224
 3814W        W 8014   3.146  10.462  10.351
 3815W        W 8015   0.629   2.787   1.240
 3816W        W 8016   9.801   2.366  10.394
 3817W        W 8017   8.486   9.376  11.137
 3818W        W 8018   8.518  10.565   9.515
 3819W        W 8019   4.466  11.326  10.114
 3820W        W 8020  11.211   9.145  11.532
 3821W        W 8021   1.611   9.431   3.533
 3822W        W 8022   8.104   5.450   8.217
 3823W        W 8023   2.016   8.885   9.549
 3824W        W 8024   8.750   5.320   3.369
 3825W        W 8025   8.435   8.188   1.782
 3826W        W 8026  10.957   1.227   9.672
 3827W        W 8027   9.101   8.106   2.439
 3828W        W 8028   3.981   9.977   1.757
 3829W        W 8029   8.187   5.499   9.476
 3830W        W 8030  10.693   2.298   1.884
 3831W        W 8031   7.385   4.470   1.225
 3832W        W 8032   9.465   6.968  10.831
 3833W        W 8033   0.459   6.857   2.565
 3834W        W 8034  10.375   6.554   0.479
 3835W        W 8035   1.777   4.108  11.828
 3836W        W 8036   4.667   4.096  10.897
 3837W        W 8037   0.552   4.966   3.665
 3838W        W 8038   1.849  10.253   1.371
 3839W        W 8039   7.227  11.423   0.346
 3840W        W 8040   6.299   6.992  10.057
 3841W        W 8041   9.996   9.765   8.773
 3842W        W 8042   2.487  10.567   1.823
 3843W        W 8043   8.919   2.968   0.174
 3844W        W 8044   9.395   0.376   9.353
 3845W        W 8045  10.282   1.292   1.995
 3846W        W 8046   0.797   3.490  10.829
 3847W        W 8047   6.953   1.566   2.633
 3848W        W 8048   8.433  10.516  11.568
 3849W        W 8049  11.000  10.328  10.864
 3850W        W 8050   9.499   1.920  11.948
 3851W        W 8051   3.517   3.336   2.348
 3852W        W 8052  10.016   0.381   0.365
 3853W        W 8053   3.802   8.980  11.975
 3854W        W 8054   8.986  10.363   1.354
 3855W        W 8055   3.777   0.249   0.293
 3856W        W 8056   2.306   1.414  10.037
 3857W        W 8057   9.418   3.628  10.324
 3858W        W 8058   6.988   9.492   9.552
 3859W        W 8059   8.597   5.119   4.119
 3860W        W 8060  10.136   0.807   1.479
 3861W        W 8061   1.417   1.451   2.724
 3862W        W 8062   0.805   9.393   1.478
 3863W        W 8063   7.290  10.950   0.698
 3864W        W 8064   6.463   2.335   2.756
 3865W        W 8065   9.580   1.816   3.022
 3866W        W 8066   4.975   3.375   1.931
 3867W        W 8067   2.462   1.358  11.642
 3868W        W 8068   7.186   3.473   2.212
 3869W        W 8069   8.501  10.963   9.180
 3870W        W 8070  10.428  10.952  10.592
 3871W        W 8071   9.818   3.570   1.829
 3872W        W 8072  11.436   6.684   8.893
 3873W        W 8073   0.262   9.572   3.663
 3874W        W 8074   3.554   5.418   1.372
 3875W        W 8075   6.012   1.857   9.339
 3876W        W 8076   4.708   4.308   0.923
 3877W        W 8077   6.046   1.748   0.517
 3878W        W 8078   3.131   3.455   9.149
 3879W        W 8079   6.088   7.450  10.779
 3880W        W 8080   4.487   8.896  10.574
 3881W        W 8081  10.952   9.406   0.501
 3882W        W 8082   5.119   4.675   0.702
 3883W        W 8083   4.467   8.717   9.009
 3884W        W 8084   5.754   1.865   3.148
 3885W        W 8085  10.322  10.142  11.440
 3886W        W 8086   5.739   4.377   9.416
 3887W        W 8087   9.513   7.392   9.001
 3888W        W 8088   4.768   0.690  10.771
 3889W        W 8089   4.284   4.228   9.547
 3890W        W 8090   7.216   1.829   3.010
 3891W        W 8091   1.340  10.435  11.506
 3892W        W 8092   4.471   1.262   1.285
 3893W        W 8093   4.800   3.627   9.591
 3894W        W 8094   3.382   7.125   3.268
 3895W        W 8095   9.033  10.732  11.729
 3896W        W 8096  11.247   5.783  11.343
 3897W        W 8097   4.800  10.645   0.874
 3898W        W 8098  11.318   0.165   0.202
 3899W        W 8099   4.207   9.876   9.745
 3900W        W 8100   3.590   8.043   2.625
 3901W        W 8101   3.136   9.911  11.994
 3902W        W 8102   2.693   9.085   9.937
 3903W        W 8103   9.445   9.290  10.750
 3904W        W 8104   5.527   4.696   0.168
 3905W        W 8105   8.461   0.500  11.971
 3906W        W 8106  10.894  11.252  11.373
 3907W        W 8107   8.854   5.860  11.460
 3908W        W 8108   9.549   3.628  10.850
 3909W        W 8109   6.336   5.205   2.749
 3910W        W 8110   5.216  10.137   9.438
 3911W        W 8111   0.467   3.308   0.878
 3912W        W 8112  11.414   1.338   3.132
 3913W        W 8113   8.346   1.247  10.562
 3914W        W 8114   4.909  10.851  11.790
 3915W        W 8115   1.765   0.187   9.149
 3916W        W 8116   4.625   8.424  10.730
 3917W        W 8117   5.580  11.259  10.804
 3918W        W 8118   8.552   1.750   2.573
 3919W        W 8119   6.370   7.298   0.945
 3920W        W 8120   0.270   9.017   8.774
 3921W        W 8121  10.509   2.254   2.362
 3922W        W 8122   4.181   9.493   2.011
 3923W        W 8123  10.373   8.504   2.657
 3924W        W 8124  11.321   3.827   9.945
 3925W        W 8125   7.151   0.327  11.588
 3926W        W 8126   2.259   5.756   1.960
 3927W        W 8127   0.457   3.657   1.936
 3928W        W 8128   8.050   2.216   1.252
 3929W        W 8129   7.236   7.831   9.954
 3930W        W 8130   2.750   7.958   2.325
 3931W        W 8131   7.411   5.242   2.257
 3932W        W 8132   8.417   6.426   3.589
 3933W        W 8133   7.647   5.078   2.699
 3934W        W 8134   9.665  10.259   2.041
 3935W        W 8135   6.063   7.799   1.842
 3936W        W 8136  10.442  11.465  10.756
 3937W        W 8137   5.659   1.719  11.186
 3938W        W 8138   7.207   5.189   1.566
 3939W        W 8139   8.570   1.839  11.736
 3940W        W 8140   3.284   2.706   1.844
 3941W        W 8141   0.510   4.341  10.324
 3942W        W 8142   1.224  11.033   1.576
 3943W        W 8143   3.892   4.102   0.356
 3944W        W 8144   9.466   4.782   8.329
 3945W        W 8145   9.037   4.756  11.039
 3946W        W 8146   7.661   1.028   2.512
 3947W        W 8147   4.508  10.818   8.416
 3948W        W 8148   7.193   8.414   0.907
 3949W        W 8149   7.600   8.385   3.220
 3950W        W 8150   5.396   7.783   3.061
 3951W        W 8151   6.282  11.339  11.404
 3952W        W 8152   3.792   2.795   1.673
 3953W        W 8153   7.524   3.104  11.845
 3954W        W 8154   3.257   1.824   1.409
 3955W        W 8155   7.950   3.162   1.648
 3956W        W 8156   1.969   9.448  10.408
 3957W        W 8157   1.043   5.576  10.986
 3958W        W 8158   9.316   2.871   2.087
 3959W        W 8159   2.722   7.600   3.172
 3960W        W 8160   8.456   4.298   0.011
 3961W        W 8161   7.140   7.352   1.608
 3962W        W 8162   7.145   4.555   3.640
 3963W        W 8163   6.663   3.082   1.811
 3964W        W 8164   4.182   3.844   2.870
 3965W        W 8165   4.256   8.853  10.094
 3966W        W 8166   7.872   4.450  11.720
 3967W        W 8167   2.186   7.431  10.865
 3968W        W 8168   9.531   4.601  11.934
 3969W        W 8169   2.132   6.163   2.893
 3970W        W 8170   1.355   8.687  10.605
 3971W        W 8171   8.318   5.082   9.173
 3972W        W 8172   4.813  10.408   1.335
 3973W        W 8173   6.064   3.207   9.881
 3974W        W 8174   9.051   5.581   1.621
 3975W        W 8175   8.464   7.131   1.871
 3976W        W 8176   9.052   4.700   0.346
 3977W        W 8177   5.857   2.638  10.470
 3978W        W 8178   2.084   5.659   2.956
 3979W        W 8179   1.788   8.811  11.797
 3980W        W 8180  11.436   9.022   0.454
 3981W        W 8181   0.706   7.731   2.993
 3982W        W 8182   5.149   9.957   9.921
 3983W        W 8183   8.627   9.302  10.122
 3984W        W 8184   4.789   0.731   9.009
 3985W        W 8185   7.704   2.190   9.243
 3986W        W 8186   4.844   0.818   0.621
 3987W        W 8187   7.647  11.193  11.066
 3988W        W 8188   2.361   3.819   2.186
 3989W        W 8189   8.097   7.206   1.186
 3990W        W 8190   6.741   4.978   0.574
 3991W        W 8191   6.663  10.896   2.766
 3992W        W 8192   1.324   3.796   2.477
 3993W        W 8193   0.718   5.724   0.663
 3994W        W 8194   4.698   1.738   8.934
 3995W        W 8195   8.970   9.549   2.711
 3996W        W 8196   2.031   0.491  10.531
 3997W        W 8197   6.573   1.260   9.086
 3998W        W 8198   6.133   6.940  11.983
 3999W        W 8199   8.918   7.747   0.436
 4000W        W 8200   5.278   8.040   0.039
 4001W        W 8201   2.193   0.895   1.206
 4002W        W 8202   9.482   4.607   3.329
 4003W        W 8203  10.413   0.548   9.716
 4004W        W 8204   7.425   9.255   2.377
 4005W        W 8205  11.272   1.747   1.251
 4006W        W 8206   7.619   8.464  10.990
 4007W        W 8207   1.932  10.805   2.286
 4008W        W 8208   4.272   9.596   3.258
 4009W        W 8209   4.226   2.803   2.822
 4010W        W 8210   9.624   5.986   2.355
 4011W        W 8211   7.970   3.754   9.931
 4012W        W 8212   3.341   5.415   1.901
 4013W        W 8213   4.647   4.368   2.149
 4014W        W 8214   5.914   4.052   3.066
 4015W        W 8215   7.176  10.954   2.794
 4016W        W 8216   9.317   4.615   1.353
 4017W        W 8217   2.648   7.604  10.707
 4018W        W 8218  10.716   2.183  10.633
 4019W        W 8219   1.318   2.276   0.441
 4020W        W 8220   6.092   6.411   0.924
 4021W        W 8221   3.366   1.393   3.325
 4022W        W 8222   6.617   7.066   3.973
 4023W        W 8223   5.702   8.207  10.343
 4024W        W 8224   1.317   5.175   3.355
 4025W        W 8225   2.887   9.279   8.754
 4026W        W 8226   8.235   5.650   3.323
 4027W        W 8227   0.361   2.874   3.372
 4028W        W 8228   2.927   0.786   1.696
 4029W        W 8229   5.721  10.908   8.571
 4030W        W 8230   5.935   1.299  11.299
 4031W        W 8231   6.444   6.152   1.738
 4032W        W 8232   1.269   0.809   8.855
 4033W        W 8233   9.523   4.149   0.855
 4034W        W 8234   3.881   6.892   2.411
 4035W        W 8235   4.313   8.515   9.470
 4036W        W 8236   4.605   8.042   0.493
 4037W        W 8237   3.011   5.111   0.045
 4038W        W 8238   9.382   1.375   9.079
 4039W        W 8239   6.890  10.588   0.508
 4040W        W 8240   5.685   1.155   1.674
 4041W        W 8241  11.321   6.635   1.791
 4042W        W 8242   4.057  10.576   3.452
 4043W        W 8243   3.735   0.268  11.791
 4044W        W 8244   4.035   8.504   0.014
 4045W        W 8245   2.488   0.567   9.653
 4046W        W 8246   2.751  11.390   9.032
 4047W        W 8247   1.787   3.618  11.205
 4048W        W 8248   3.653   6.395   8.602
 4049W        W 8249   1.198   1.877   1.525
 4050W        W 8250  11.300   7.486  10.049
 4051W        W 8251   6.749   7.848   8.295
 4052W        W 8252   0.415  11.260  10.735
 4053W        W 8253   8.770   7.587  11.963
 4054W        W 8254   5.523   3.032  10.683
 4055W        W 8255   6.644   1.877  10.864
 4056W        W 8256  11.276   5.144   9.252
 4057W        W 8257   8.094   9.319  11.947
 4058W        W 8258   7.455   0.532   9.494
 4059W        W 8259   3.245   4.628   0.932
 4060W        W 8260   7.688   9.980   9.509
 4061W        W 8261   4.016   8.465   9.058
 4062W        W 8262   1.775  11.170   0.492
 4063W        W 8263   9.467  11.048   8.715
 4064W        W 8264   0.549   6.186   1.876
 4065W        W 8265   5.018   3.820   1.693
 4066W        W 8266   5.531   5.200  11.860
 4067W        W 8267   2.131   8.404  11.745
 4068W        W 8268   2.364   3.404   8.643
 4069W        W 8269  10.783   5.524  10.470
 4070W        W 8270   3.994   0.936   9.519
 4071W        W 8271   7.616   3.754   1.663
 4072W        W 8272   4.730   9.120  10.183
 4073W        W 8273  10.807   3.900   0.068
 4074W        W 8274   7.948  11.188  11.883
 4075W        W 8275   5.637   0.219  10.501
 4076W        W 8276   3.076   5.123   9.178
 4077W        W 8277   6.766  10.628   0.014
 4078W        W 8278   2.209   9.800  11.804
 4079W        W 8279   4.023   3.161   2.378
 4080W        W 8280   3.217   6.363   4.017
 4081W        W 8281   7.504   0.094   2.585
 4082W        W 8282   3.093  10.007  10.540
 4083W        W 8283   2.982  10.617   1.919
 4084W        W 8284   6.857   1.964   8.436
 4085W        W 8285   8.464   7.494  11.507
 4086W        W 8286   9.531   4.583   8.796
 4087W        W 8287   6.313   8.048  11.384
 4088W        W 8288   1.038   6.274   1.928
 4089W        W 8289  11.006   1.813  11.419
 4090W        W 8290   2.647   7.492   9.390
 4091W        W 8291   8.312   7.764  11.964
 4092W        W 8292   9.530   4.898   0.336
 4093W        W 8293   0.042   2.883  10.797
 4094W        W 8294   6.727  10.287  10.582
 4095W        W 8295   3.771   3.876   8.583
 4096W        W 8296   5.759   8.851   9.459
 4097W        W 8297   3.534   5.335   3.253
 4098W        W 8298   6.631   6.818  11.201
 4099W        W 8299   0.560   9.485   0.774
 4100W        W 8300   3.707   1.698   3.058
 4101W        W 8301   0.554   3.832   0.001
 4102W        W 8302   9.767   1.936  10.861
 4103W        W 8303   5.683   2.173   0.081
 4104W        W 8304   6.407   6.588   2.837
 4105W        W 8305   2.322   4.812  11.868
 4106W        W 8306   0.783   8.491   1.768
 4107W        W 8307  11.079  10.577  11.807
 4108W        W 8308   5.008   4.733   9.846
 4109W        W 8309   2.983   0.777   8.586
 4110W        W 8310   4.482   4.834   9.821
 4111W        W 8311   0.500   7.452   3.750
 4112W        W 8312  10.880   9.521   0.979
 4113W        W 8313   9.820   9.505  11.017
 4114W        W 8314   3.954   0.029   3.201
 4115W        W 8315   9.621   5.952  10.482
 4116W        W 8316   1.953   0.812   1.695
 4117W        W 8317  11.233   2.758   2.429
 4118W        W 8318   3.181   6.657   3.118
 4119W        W 8319   9.943   7.663  10.127
 4120W        W 8320   6.965  11.204   8.664
 4121W        W 8321   2.190   1.372   0.991
 4122W        W 8322   5.282   0.964   1.383
 4123W        W 8323   0.374  10.576   1.408
 4124W        W 8324   8.466   6.188   8.668
 4125W        W 8325  10.847  10.314   8.938
 4126W        W 8326   1.724   8.521   9.313
 4127W        W 8327  10.849   7.877   0.463
 4128W        W 8328   0.059   6.215   1.970
 4129W        W 8329  11.436   7.621   9.575
 4130W        W 8330  10.010   8.495  11.223
 4131W        W 8331  11.351   4.104  11.241
 4132W        W 8332  11.465  10.039   2.874
 4133W        W 8333   6.043   3.762  10.983
 4134W        W 8334   9.811   4.107  10.906
 4135W        W 8335  10.983   6.823  10.619
 4136W        W 8336   2.436  10.512   9.165
 4137W        W 8337   4.332   4.311   0.145
 4138W        W 8338   2.780   0.747  10.993
 4139W        W 8339   6.545   1.243   2.913
 4140W        W 8340   9.409   4.065   8.554
 4141W        W 8341   6.738   2.726   3.150
 4142W        W 8342   6.574  11.051   9.832
 4143W        W 8343   8.803  11.026   0.825
 4144W        W 8344   0.161   2.657  11.522
 4145W        W 8345   6.812   0.827   0.260
 4146W        W 8346   0.316   4.363  11.269
 4147W        W 8347   1.071   4.944   1.796
 4148W        W 8348   6.710  10.343  11.598
 4149W        W 8349   4.023   4.606   0.400
 4150W        W 8350   0.962   3.341   8.871
 4151W        W 8351   0.854  10.827   0.677
 4152W        W 8352   8.197   6.651   1.853
 4153W        W 8353   1.769   9.865   1.045
 4154W        W 8354   7.725   9.602   0.787
 4155W        W 8355  10.095   1.759   0.630
 4156W        W 8356   7.590   4.000   1.161
 4157W        W 8357   9.521   6.214   0.034
 4158W        W 8358   2.830  10.842   9.116
 4159W        W 8359   1.652   4.320  11.310
 4160W        W 8360   7.023   3.219   3.294
 4161W        W 8361   3.662   6.109   2.859
 4162W        W 8362   9.412  11.204   3.245
 4163W        W 8363  10.703   7.107   9.479
 4164W        W 8364   8.153  10.977  10.920
 4165W        W 8365   5.650   7.734   3.530
 4166W        W 8366   2.986   6.480   3.573
 4167W        W 8367  10.513   6.151   0.171
 4168W        W 8368   2.672   3.441   2.012
 4169W        W 8369   6.579   1.851  11.395
 4170W        W 8370  11.277   8.935  10.611
 4171W        W 8371   8.770   6.980   9.045
 4172W        W 8372  10.679  10.342   2.154
 4173W        W 8373  10.046   9.025   3.228
 4174W        W 8374   2.788   6.131  10.844
 4175W        W 8375   9.838   1.070  11.591
 4176W        W 8376   9.611  10.556   8.562
 4177W        W 8377   9.147  10.370   0.874
 4178W        W 8378  10.426   2.165   1.445
 4179W        W 8379   3.509   1.506  11.227
 4180W        W 8380   5.645   1.370   2.477
 4181W        W 8381   3.945   0.721   2.500
 4182W        W 8382  10.816   4.193   8.593
 4183W        W 8383   7.645  10.704  11.909
 4184W        W 8384   7.718   9.026   0.099
 4185W        W 8385  10.649  10.183   8.503
 4186W        W 8386   6.061   4.290  10.964
 4187W        W 8387   8.971   2.775   3.342
 4188W        W 8388   9.893   8.556   2.455
 4189W        W 8389   3.137   3.721  10.868
 4190W        W 8390   2.386   4.653   8.309
 4191W        W 8391   1.912   7.057  11.140
 4192W        W 8392   2.052   1.263   2.317
 4193W        W 8393   2.766   0.469  11.407
 4194W        W 8394   9.937  11.072   1.818
 4195W        W 8395   1.804  10.256  10.214
 4196W        W 8396   9.609   8.578   1.466
 4197W        W 8397  10.710  10.309  10.002
 4198W        W 8398   9.500   6.977   3.264
 4199W        W 8399   5.553   5.265  10.456
 4200W        W 8400   5.712   7.698   8.389
 4201W        W 8401  11.408   6.758  11.422
 4202W        W 8402   9.729   8.301   0.188
 4203W        W 8403   3.769  11.488  11.354
 4204W        W 8404  10.310   8.166  10.594
 4205W        W 8405  10.807   0.941   0.773
 4206W        W 8406   0.806   7.433  10.459
 4207W        W 8407   8.161   6.551   8.440
 4208W        W 8408  10.868   5.179   0.844
 4209W        W 8409   7.600   2.578  10.972
 4210W        W 8410   4.649   7.504  10.820
 4211W        W 8411  10.361   6.438  10.502
 4212W        W 8412   6.067   0.380  10.764
 4213W        W 8413   3.932  11.259   2.687
 4214W        W 8414   2.833   4.529   2.501
 4215W        W 8415   4.993  11.173   8.817
 4216W        W 8416   1.687  11.237   1.426
 4217W        W 8417   2.903   6.060   2.443
 4218W        W 8418   9.884   1.650   2.033
 4219W        W 8419   4.712   1.247   9.118
 4220W        W 8420   4.227   2.766   0.957
 4221W        W 8421   6.629   0.276   2.502
 4222W        W 8422   7.484   0.724   8.714
 4223W        W 8423   7.927   8.214   3.605
 4224W        W 8424   9.467   0.048   2.421
 4225W        W 8425   6.745   5.671   1.008
 4226W        W 8426   9.627   3.423   0.390
 4227W        W 8427  10.847   2.647   2.778
 4228W        W 8428   2.722   9.785   2.119
 4229W        W 8429   8.018   9.401  11.406
 4230W        W 8430   8.344   9.877   3.233
 4231W        W 8431  10.001   3.093   9.262
 4232W        W 8432   4.916  11.500   2.022
 4233W        W 8433   0.009   8.069   0.861
 4234W        W 8434   8.829   6.906   0.965
 4235W        W 8435   3.690   4.461   3.566
 4236W        W 8436  10.304   2.236   9.022
 4237W        W 8437   2.852   7.781  11.178
 4238W        W 8438   3.692   8.441  10.280
 4239W        W 8439   9.118   4.164   1.214
 4240W        W 8440   1.712   5.712   1.637
 4241W        W 8441   8.263   8.398   9.341
 4242W        W 8442  10.896   1.839   0.295
 4243W        W 8443   9.520   7.884   9.893
 4244W        W 8444   7.802   6.103   1.522
 4245W        W 8445   9.716   7.197   1.449
 4246W        W 8446   1.223   4.947   0.943
 4247W        W 8447  10.820   4.979   9.053
 4248W        W 8448   5.059   7.039   2.035
 4249W        W 8449   4.042  10.916   1.380
 4250W        W 8450   4.338   9.629  10.578
 4251W        W 8451  11.144   4.232  10.804
 4252W        W 8452   9.136   0.833   0.328
 4253W        W 8453   0.957   3.124  10.468
 4254W        W 8454   6.833   6.206  11.374
 4255W        W 8455   4.277   1.123   2.556
 4256W        W 8456   8.077   1.165  11.644
 4257W        W 8457   8.361   6.099  11.462
 4258W        W 8458   0.935  10.432   0.365
 4259W        W 8459   0.362   4.678   8.480
 4260W        W 8460   3.895   8.849   8.722
 4261W        W 8461   5.368   9.882   1.680
 4262W        W 8462   0.824   8.164   0.936
 4263W        W 8463   3.448   1.307   2.019
 4264W        W 8464   9.118   1.366   0.468
 4265W        W 8465   8.435   4.315   1.951
 4266W        W 8466  10.267   9.562   9.214
 4267W        W 8467   0.987   8.484   9.794
 4268W        W 8468   7.245   2.317   2.878
 4269W        W 8469   9.458   4.404   0.417
 4270W        W 8470  10.417   6.673  11.480
 4271W        W 8471   2.920   8.977   3.304
 4272W        W 8472   6.038   4.786   2.657
 4273W        W 8473   5.351   3.113   9.360
 4274W        W 8474   0.795   0.142   9.136
 4275W        W 8475   7.231   1.933  10.398
 4276W        W 8476   1.436   7.155   9.052
 4277W        W 8477   4.210   7.431  11.410
 4278W        W 8478  10.967   5.707   2.292
 4279W        W 8479   9.171   9.792   0.089
 4280W        W 8480   7.999   4.070   0.072
 4281W        W 8481  11.052   8.048   1.661
 4282W        W 8482  10.993   5.223   3.005
 4283W        W 8483   1.355   6.615  11.868
 4284W        W 8484   7.943   4.332   9.062
 4285W        W 8485   0.254   8.522   2.465
 4286W        W 8486   0.305   1.832  11.099
 4287W        W 8487   8.877   0.952   0.764
 4288W        W 8488   6.298   2.161   2.266
 4289W        W 8489  10.206   1.026   2.878
 4290W        W 8490   0.038   3.812   9.495
 4291W        W 8491   7.956   7.757   3.834
 4292W        W 8492   9.531   9.104   2.223
 4293W        W 8493  11.250   6.991   2.187
 4294W        W 8494   7.107  10.346   1.942
 4295W        W 8495   7.106  10.129   0.550
 4296W        W 8496   0.935   7.979   1.979
 4297W        W 8497   4.250   8.458   8.606
 4298W        W 8498  10.071   9.019   2.692
 4299W        W 8499   2.414   8.976   3.311
 4300W        W 8500   0.472   0.276   3.617
 4301W        W 8501   8.253   3.229   3.558
 4302W        W 8502   4.075   7.171   1.021
 4303W        W 8503   4.711   6.045   3.537
 4304W        W 8504  10.819   8.530   2.947
 4305W        W 8505   8.170   9.522  10.006
 4306W        W 8506   3.131   6.538   2.188
 4307W        W 8507   0.290   6.506   0.021
 4308W        W 8508   1.679   1.412   0.931
 4309W        W 8509   2.764   8.462   0.986
 4310W        W 8510   7.678   5.134  10.244
 4311W        W 8511   8.142   7.699   2.635
 4312W        W 8512   4.638   0.290  11.487
 4313W        W 8513   6.549   6.225  11.918
 4314W        W 8514   7.051   1.192  10.538
 4315W        W 8515  10.935   1.134   2.711
 4316W        W 8516   0.624   4.670   9.436
 4317W        W 8517   9.465  10.934  11.538
 4318W        W 8518   9.386   9.857   1.853
 4319W        W 8519   9.040   3.639   9.875
 4320W        W 8520   9.962   4.752   2.780
 4321W        W 8521   3.855   5.968   9.512
 4322W        W 8522   8.950   9.001   8.895
 4323W        W 8523   6.799   2.196   3.089
 4324W        W 8524   7.708   6.195   0.470
 4325W        W 8525   4.561   3.437  11.927
 4326W        W 8526   6.467   3.192   3.197
 4327W        W 8527   4.502   2.066   3.559
 4328W        W 8528   7.536   1.895   1.405
 4329W        W 8529   9.833   3.582   2.656
 4330W        W 8530  11.159   9.451   1.960
 4331W        W 8531   9.144   8.561   9.882
 4332W        W 8532   4.521  10.293   0.217
 4333W        W 8533   2.770   4.249   7.752
 4334W        W 8534   2.717  10.626  11.664
 4335W        W 8535  10.465   5.945  10.717
 4336W        W 8536   6.036   3.714   3.614
 4337W        W 8537   6.226   3.664   9.404
 4338W        W 8538   1.186   7.040  10.510
 4339W        W 8539   6.166   0.916  11.559
 4340W        W 8540   7.192  10.513  11.733
 4341W        W 8541   4.694   2.476   1.104
 4342W        W 8542   3.163  11.288  11.108
 4343W        W 8543  10.210   4.186   8.529
 4344W        W 8544   8.425  10.024  11.799
 4345W        W 8545   9.176   3.140  10.235
 4346W        W 8546   6.486   9.834   3.412
 4347W        W 8547   6.261  10.315   3.446
 4348W        W 8548   1.288   5.312   2.868
 4349W        W 8549   9.352   4.738  11.471
 4350W        W 8550   1.753   2.558   0.475
 4351W        W 8551   8.916   4.276  10.880
 4352W        W 8552   2.762   0.347   1.907
 4353W        W 8553   0.674   8.684   2.240
 4354W        W 8554   4.463   0.831   0.273
 4355W        W 8555  10.370   7.934  10.157
 4356W        W 8556   6.975  11.299  10.015
 4357W        W 8557   6.696   0.159  11.468
 4358W        W 8558  10.012   8.389  11.726
 4359W        W 8559   4.063   8.841   0.400
 4360W        W 8560  10.911   6.553   1.184
 4361W        W 8561   8.844   0.559   8.494
 4362W        W 8562   5.036   3.229   9.758
 4363W        W 8563   1.153  10.534   9.112
 4364W        W 8564   3.875  10.337   0.890
 4365W        W 8565   2.987   3.165  11.890
 4366W        W 8566   5.935   6.622   8.956
 4367W        W 8567   8.750   6.852   8.170
 4368W        W 8568   9.836   1.324   9.299
 4369W        W 8569  11.307  10.297   3.354
 4370W        W 8570   2.399   1.996  11.951
 4371W        W 8571   6.113  10.005   9.502
 4372W        W 8572  10.268   2.627   1.285
 4373W        W 8573   5.232   2.595   3.117
 4374W        W 8574   7.589   3.404  11.434
 4375W        W 8575   4.065   7.043  10.417
 4376W        W 8576   4.527   6.645  11.947
 4377W        W 8577   3.811   2.220   2.413
 4378W        W 8578   3.227   0.991   3.025
 4379W        W 8579   6.174   9.044  11.549
 4380W        W 8580   0.784   1.008   3.214
 4381W        W 8581   8.302   6.047   9.123
 4382W        W 8582   2.763  10.575   2.715
 4383W        W 8583   8.115   3.318   9.123
 4384W        W 8584  11.256   9.558   2.946
 4385W        W 8585  11.372   8.465   1.144
 4386W        W 8586   4.432   0.058   1.873
 4387W        W 8587   8.080   7.414   3.060
 4388W        W 8588  11.444   3.232   2.642
 4389W        W 8589   4.803   2.586  10.971
 4390W        W 8590  10.353   7.651   3.234
 4391W        W 8591   9.416   2.692  10.385
 4392W        W 8592  10.965   7.119   1.774
 4393W        W 8593   9.323   8.810   1.830
 4394W        W 8594   0.902   4.102   3.178
 4395W        W 8595   6.058   2.268  11.134
 4396W        W 8596   7.838  10.824   1.051
 4397W        W 8597   7.213  11.352  11.395
 4398W        W 8598   3.114   4.085  10.113
 4399W        W 8599   7.531   7.085  10.990
 4400W        W 8600   9.865   0.031   1.628
 4401W        W 8601  11.416   5.036  11.602
 4402W        W 8602   9.557   6.174   3.870
 4403W        W 8603   3.700   6.776  11.915
 4404W        W 8604  10.910  10.796   2.172
 4405W        W 8605   9.955   6.698   9.819
 4406W        W 8606   4.677   9.417   1.683
 4407W        W 8607   0.582   6.022  10.332
 4408W        W 8608   4.581   2.529   0.264
 4409W        W 8609   4.975   0.402   3.242
 4410W        W 8610   7.737   4.554   9.502
 4411W        W 8611   3.137   1.300   1.041
 4412W        W 8612   8.454   2.234   8.944
 4413W        W 8613   0.803   2.852   0.161
 4414W        W 8614   4.327   9.076   2.852
 4415W        W 8615   7.994   2.845   3.315
 4416W        W 8616   0.340   3.132   1.936
 4417W        W 8617   3.460   6.686   3.564
 4418W        W 8618   0.143   2.568   9.521
 4419W        W 8619   8.885   2.516   8.888
 4420W        W 8620   9.220   8.328   1.827
 4421W        W 8621   9.849   9.950  10.725
 4422W        W 8622  10.346   9.000  10.430
 4423W        W 8623   6.418   7.951   3.686
 4424W        W 8624   5.599   3.352   0.615
 4425W        W 8625   9.954   4.414   3.170
 4426W        W 8626  11.019   3.594   2.245
 4427W        W 8627  10.897   1.994   9.676
 4428W        W 8628   3.470   7.686   1.292
 4429W        W 8629   3.254   1.965  11.745
 4430W        W 8630   8.998   6.119  11.880
 4431W        W 8631   0.704   1.217   1.988
 4432W        W 8632   3.785   9.513   1.701
 4433W        W 8633   5.749   1.364   2.976
 4434W        W 8634  10.726   2.721   2.254
 4435W        W 8635   8.741   9.110   2.900
 4436W        W 8636   1.171   1.540   8.468
 4437W        W 8637  10.304  10.977   9.081
 4438W        W 8638   6.694  11.489   3.533
 4439W        W 8639   1.441   4.837   9.157
 4440W        W 8640   4.588  11.411   8.548
 4441W        W 8641   9.798   3.614   0.850
 4442W        W 8642   2.781   2.466   1.823
 4443W        W 8643   6.822   6.274   9.252
 4444W        W 8644   2.348   8.423  11.256
 4445W        W 8645   3.197   0.047   0.884
 4446W        W 8646   3.061   3.737  11.738
 4447W        W 8647   7.599   0.363   2.156
 4448W        W 8648   0.227   2.846   2.432
 4449W        W 8649   5.141   8.189   2.444
 4450W        W 8650  11.337   0.499   9.063
 4451W        W 8651   1.319   1.810   2.199
 4452W        W 8652   1.210   3.208   9.308
 4453W        W 8653   9.980   4.337   0.404
 4454W        W 8654   9.446   1.571   1.781
 4455W        W 8655   2.625   8.339   0.501
 4456W        W 8656   9.805  10.573   9.936
 4457W        W 8657   1.297   3.308   0.717
 4458W        W 8658   1.621   1.440   3.479
 4459W        W 8659   1.958   9.865   9.316
 4460W        W 8660   2.364   5.828  10.899
 4461W        W 8661   1.061   5.008   9.563
 4462W        W 8662   7.576   3.164   9.188
 4463W        W 8663   0.076   5.950  10.370
 4464W        W 8664   9.247   4.589  10.592
 4465W        W 8665   3.095   0.601   3.310
 4466W        W 8666   9.255   1.180  10.993
 4467W        W 8667  10.397   6.776   2.385
 4468W        W 8668   9.003   1.191   1.289
 4469W        W 8669   4.755   1.713  11.192
 4470W        W 8670   9.407   6.360  10.100
 4471W        W 8671   1.879   3.706   3.322
 4472W        W 8672   9.499   5.010   9.556
 4473W        W 8673  10.910   4.384  11.311
 4474W        W 8674   6.118   9.216   1.507
 4475W        W 8675   4.443   7.806   9.342
 4476W        W 8676   7.003   8.875   9.037
 4477W        W 8677   8.200   0.839  10.277
 4478W        W 8678   8.630   6.670   8.644
 4479W        W 8679   2.876   9.310   2.040
 4480W        W 8680   6.025   6.825   2.606
 4481W        W 8681   3.419   6.218   9.702
 4482W        W 8682   6.759   9.347   0.108
 4483W        W 8683   7.057   3.233  11.610
 4484W        W 8684   1.516   6.097  11.732
 4485W        W 8685   1.153   8.479   3.394
 4486W        W 8686   8.913   6.612   0.015
 4487W        W 8687   3.175   6.111   8.794
 4488W        W 8688   8.039   2.828  10.806
 4489W        W 8689  11.379  10.843   9.179
 4490W        W 8690   1.293   2.236   9.531
 4491W        W 8691   2.590   6.833   3.644
 4492W        W 8692   2.274   3.355   9.143
 4493W        W 8693   0.942   1.656   1.891
 4494W        W 8694   4.059   5.090  11.535
 4495W        W 8695   3.767   0.806  10.003
 4496W        W 8696  10.947   3.972   9.635
 4497W        W 8697   5.692   0.146   9.985
 4498W        W 8698   8.642   1.787   9.864
 4499W        W 8699   7.474   1.859   1.950
 4500W        W 8700  10.787   4.313   3.279
 4501W        W 8701   0.957   2.831   8.959
 4502W        W 8702   4.778   8.041   1.494
 4503W        W 8703   9.085   1.231   2.154
 4504W        W 8704   9.961   5.078  10.799
 4505W        W 8705   5.904   4.112   1.308
 4506W        W 8706   2.153   8.463   0.282
 4507W        W 8707   8.838   3.079   9.804
 4508W        W 8708  10.845   1.851   2.227
 4509W        W 8709   4.269   4.680  10.262
 4510W        W 8710   5.529   5.465  10.937
 4511W        W 8711   1.759   4.204   3.241
 4512W        W 8712   0.449   2.669  11.036
 4513W        W 8713   4.365   0.895   0.846
 4514W        W 8714   4.499  10.559  11.807
 4515W        W 8715  10.524   0.050  11.253
 4516W        W 8716   4.866   6.173   1.515
 4517W        W 8717   8.897   0.681   1.213
 4518W        W 8718  10.798   0.819  11.349
 4519W        W 8719   8.120   2.459   2.380
 4520W        W 8720   7.626  10.867   3.051
 4521W        W 8721   5.656   7.619  10.968
 4522W        W 8722   8.398   2.839   2.617
 4523W        W 8723   4.257   0.756   2.927
 4524W        W 8724   8.537   9.333   9.633
 4525W        W 8725   3.104   1.919  10.352
 4526W        W 8726   8.877   2.922   9.224
 4527W        W 8727   3.378   6.077   0.279
 4528W        W 8728   1.937   9.347   8.712
 4529W        W 8729   3.569   9.030  11.527
 4530W        W 8730   6.100   4.536   8.366
 4531W        W 8731   9.406   5.745   1.971
 4532W        W 8732   4.726  11.325   0.444
 4533W        W 8733   6.304   1.658  10.529
 4534W        W 8734   3.584   1.028  11.372
 4535W        W 8735   0.000   3.159  11.578
 4536W        W 8736   3.918   4.390   8.589
 4537W        W 8737   6.507   2.349   9.841
 4538W        W 8738   5.214   9.144   2.782
 4539W        W 8739   1.878   0.936  11.171
 4540W        W 8740   3.940   0.491   3.434
 4541W        W 8741   6.979   3.640   9.909
 4542W        W 8742   2.131   2.048   1.947
 4543W        W 8743   3.489   4.569   9.861
 4544W        W 8744   6.534   7.304  11.044
 4545W        W 8745   7.151   6.410   9.631
 4546W        W 8746   2.190   3.309  10.972
 4547W        W 8747   7.297   4.981   8.409
 4548W        W 8748   8.567   4.120  11.256
 4549W        W 8749  10.743   9.530  10.586
 4550W        W 8750   4.139   7.079  11.815
 4551W        W 8751   6.870   2.246  10.581
 4552W        W 8752  10.517   1.763  11.357
 4553W        W 8753   3.903   9.347   0.307
 4554W        W 8754   6.519   7.455  10.042
 4555W        W 8755   7.138   0.345   0.624
 4556W        W 8756   4.588   4.164   9.106
 4557W        W 8757   6.948   3.515   1.748
 4558W        W 8758   9.674   4.001   9.349
 4559W        W 8759   8.972  11.088   3.522
 4560W        W 8760   3.572   3.813   3.017
 4561W        W 8761   7.823   3.534   0.698
 4562W        W 8762   4.206   9.925   2.304
 4563W        W 8763   7.218   0.447  10.560
 4564W        W 8764   9.442   6.845   1.679
 4565W        W 8765   2.894   6.529   9.046
 4566W        W 8766   0.045   0.670   0.641
 4567W        W 8767   2.693  10.298   2.236
 4568W        W 8768   3.149   8.518   3.263
 4569W        W 8769   8.605   8.649   9.045
 4570W        W 8770  11.358   7.525  11.097
 4571W        W 8771   4.184   3.360  10.943
 4572W        W 8772   7.138   2.265   1.335
 4573W        W 8773   5.279   3.161   4.004
 4574W        W 8774   6.582   8.789   3.351
 4575W        W 8775   8.866   1.970   0.774
 4576W        W 8776  10.084   7.946  11.958
 4577W        W 8777  11.322   6.826   3.158
 4578W        W 8778   3.295   9.503   9.366
 4579W        W 8779   0.063   7.033   9.260
 4580W        W 8780   4.650  11.251  11.097
 4581W        W 8781   9.997   9.901   2.180
 4582W        W 8782  10.889   3.121  10.417
 4583W        W 8783  10.301  10.331   2.700
 4584W        W 8784   2.405   9.474   1.186
 4585W        W 8785   2.266   7.362   3.573
 4586W        W 8786  10.806   6.735   3.157
 4587W        W 8787  11.219   7.556   3.376
 4588W        W 8788   6.568   4.248  10.292
 4589W        W 8789   9.527   9.467   1.021
 4590W        W 8790   2.143   7.385   9.476
 4591W        W 8791   9.012   1.764   8.408
 4592W        W 8792   0.343   3.133   0.347
 4593W        W 8793   9.063  10.011   2.528
 4594W        W 8794   0.494   3.483   3.643
 4595W        W 8795   8.878   2.952   8.606
 4596W        W 8796  11.368   7.473  10.563
 4597W        W 8797  10.314   2.861   0.824
 4598W        W 8798   5.067   4.795  11.215
 4599W        W 8799   2.836   5.534   9.710
 4600W        W 8800   1.477   2.751   1.995
 4601W        W 8801   6.412   3.537   1.793
 4602W        W 8802   5.182   1.681   8.763
 4603W        W 8803   3.409   3.830   2.527
 4604W        W 8804   9.629  10.447   0.776
 4605W        W 8805   5.635   6.259  10.701
 4606W        W 8806   8.704   8.467  10.157
 4607W        W 8807   1.755   2.233   9.276
 4608W        W 8808  10.510   3.788   9.817
 4609W        W 8809   3.806   4.709   8.996
 4610W        W 8810   5.382   7.400   9.315
 4611W        W 8811   5.533   2.440   1.933
 4612W        W 8812   5.569   0.710  11.214
 4613W        W 8813   6.691   8.499  11.974
 4614W        W 8814   1.847   6.669   0.835
 4615W        W 8815   2.823   9.284  10.395
 4616W        W 8816  10.457   1.155   0.249
 4617W        W 8817   6.992   7.804   9.463
 4618W        W 8818   1.382  10.375  10.992
 4619W        W 8819   3.445   0.895   2.570
 4620W        W 8820  10.798   5.451   0.284
 4621W        W 8821   8.163   3.155   0.678
 4622W        W 8822   3.126   1.412  11.548
 4623W        W 8823   8.305   3.154   9.929
 4624W        W 8824   1.841  10.561  11.732
 4625W        W 8825  10.858   7.527   0.824
 4626W        W 8826   0.037  10.480  10.861
 4627W        W 8827  11.005   2.233  11.085
 4628W        W 8828  11.157   4.147  11.732
 4629W        W 8829   1.491   2.298  11.382
 4630W        W 8830   8.879   0.185  11.767
 4631W        W 8831  10.805   5.750   1.797
 4632W        W 8832   9.228   0.126  10.378
 4633W        W 8833   5.120   7.712   2.612
 4634W        W 8834   9.026   6.745  10.443
 4635W        W 8835   3.543   9.079   9.618
 4636W        W 8836   4.232   6.145  10.285
 4637W        W 8837   2.329   2.589   2.629
 4638W        W 8838   6.629   9.332   3.333
 4639W        W 8839   6.090   8.827   9.853
 4640W        W 8840   8.192   4.078  11.590
 4641W        W 8841   1.314  10.866   0.958
 4642W        W 8842   3.179   2.944   9.061
 4643W        W 8843   6.984   0.142  10.989
 4644W        W 8844   3.788   1.955   0.130
 4645W        W 8845   5.736   2.631  10.971
 4646W        W 8846   3.610   4.909   8.566
 4647W        W 8847  10.321   3.377   9.534
 4648W        W 8848  10.496   7.386   1.162
 4649W        W 8849   2.680   9.663  11.949
 4650W        W 8850  10.455   3.340  10.027
 4651W        W 8851   9.850   2.583   0.967
 4652W        W 8852   6.456   6.595  10.355
 4653W        W 8853  10.774  10.565  10.437
 4654W        W 8854   3.600  10.127  11.972
 4655W        W 8855   4.757   4.069   0.339
 4656W        W 8856  11.252   7.676   2.590
 4657W        W 8857   7.265   9.624   0.535
 4658W        W 8858  10.712   3.420   3.328
 4659W        W 8859  10.293   9.339  10.827
 4660W        W 8860   1.867   6.068   1.956
 4661W        W 8861   8.988   3.754   1.962
 4662W        W 8862  10.246  10.868   1.446
 4663W        W 8863   0.320   6.363   2.394
 4664W        W 8864   5.210   0.685  11.879
 4665W        W 8865   5.756   5.263   1.781
 4666W        W 8866   3.464   1.192   0.356
 4667W        W 8867   9.530   7.770  10.945
 4668W        W 8868   9.999   6.558   9.322
 4669W        W 8869   9.954   0.624  11.394
 4670W        W 8870   2.245   8.896   0.034
 4671W        W 8871  10.011   5.247   0.993
 4672W        W 8872  10.104   6.103   0.494
 4673W        W 8873   9.510   9.884   8.990
 4674W        W 8874   7.729   0.256   9.832
 4675W        W 8875   7.990   0.837   2.919
 4676W        W 8876   4.304   5.369   2.748
 4677W        W 8877   1.336   4.782  10.581
 4678W        W 8878   2.699   4.269   2.963
 4679W        W 8879   1.140   4.882  10.096
 4680W        W 8880   4.782   1.381   1.944
 4681W        W 8881  11.022   9.070   0.138
 4682W        W 8882   9.697   7.152  11.276
 4683W        W 8883   2.636   6.382   8.634
 4684W        W 8884   6.225   7.712   8.359
 4685W        W 8885  10.475   6.660   9.511
 4686W        W 8886   4.835   8.800  11.846
 4687W        W 8887   5.146   2.716   4.206
 4688W        W 8888   5.660   2.729   9.484
 4689W        W 8889   5.938   9.992   2.706
 4690W        W 8890   9.615   6.911   2.781
 4691W        W 8891   5.026   3.234  11.951
 4692W        W 8892   8.891   0.338  10.772
 4693W        W 8893  11.352   8.366   9.969
 4694W        W 8894   1.025   9.284  10.724
 4695W        W 8895   2.622   7.437   0.197
 4696W        W 8896   4.044   3.321   9.372
 4697W        W 8897   5.631   7.549   8.872
 4698W        W 8898   2.528   3.057  11.567
 4699W        W 8899   6.632  11.107   0.043
 4700W        W 8900   8.131   9.610  10.512
 4701W        W 8901  10.211   7.993   1.678
 4702W        W 8902   0.751   0.964   9.537
 4703W        W 8903   7.614   4.865   0.351
 4704W        W 8904   6.488   1.054  11.937
 4705W        W 8905   4.606   3.064  11.066
 4706W        W 8906  10.512   4.162   9.475
 4707W        W 8907   1.442  10.860  11.252
 4708W        W 8908   5.224   1.005   3.483
 4709W        W 8909   9.096  10.292   0.013
 4710W        W 8910   9.999   3.835   2.241
 4711W        W 8911   0.271   6.619   2.984
 4712W        W 8912   3.524   3.373   9.446
 4713W        W 8913   3.725   3.391   3.274
 4714W        W 8914   8.353   4.614   8.914
 4715W        W 8915   3.755   4.108  11.046
 4716W        W 8916   6.857   3.112   2.828
 4717W        W 8917   1.001   1.635   8.958
 4718W        W 8918   8.468   6.390   2.209
 4719W        W 8919   5.260   4.232   9.517
 4720W        W 8920   3.390  10.084   8.658
 4721W        W 8921   5.672   6.607   0.583
 4722W        W 8922   0.271   8.639   1.931
 4723W        W 8923   8.173   8.404   8.426
 4724W        W 8924   1.420   4.317  10.812
 4725W        W 8925   3.567   1.217   9.783
 4726W        W 8926   5.254   8.909   3.644
 4727W        W 8927  10.894   4.419   1.804
 4728W        W 8928  10.474   5.005   9.882
 4729W        W 8929  11.290   7.752  11.547
 4730W        W 8930   0.819   0.786   2.234
 4731W        W 8931   5.555   4.481  10.697
 4732W        W 8932   8.192  11.475   1.155
 4733W        W 8933  11.266   0.892  10.481
 4734W        W 8934   7.010   1.120  11.049
 4735W        W 8935   0.801   0.189  10.052
 4736W        W 8936   1.986  11.307   3.184
 4737W        W 8937   9.017   1.713   1.287
 4738W        W 8938   4.727   2.343   9.541
 4739W        W 8939   9.866   2.924   3.193
 4740W        W 8940   3.809   3.637   0.199
 4741W        W 8941   7.663   0.291   1.185
 4742W        W 8942   8.213   9.012   9.975
 4743W        W 8943  10.034   9.214   8.682
 4744W        W 8944   7.390  10.869   9.556
 4745W        W 8945  11.444   1.165   2.645
 4746W        W 8946  10.949   5.926   0.300
 4747W        W 8947   5.579   2.171   1.491
 4748W        W 8948   4.604   3.268   3.225
 4749W        W 8949   8.574   5.235   0.949
 4750W        W 8950   8.308   7.064   8.835
 4751W        W 8951   3.285  10.491   0.251
 4752W        W 8952  10.367   6.542   1.481
 4753W        W 8953   7.926   2.932   2.397
 4754W        W 8954   3.181   3.863   8.835
 4755W        W 8955   5.536   5.783  10.471
 4756W        W 8956   3.230   8.096   8.657
 4757W        W 8957   9.040   0.171  11.251
 4758W        W 8958   4.209   6.748   1.261
 4759W        W 8959   0.804   0.046  10.555
 4760W        W 8960  10.816   4.709   2.600
 4761W        W 8961  11.075   6.848   9.229
 4762W        W 8962  11.454   3.974   9.001
 4763W        W 8963  10.901   5.373   1.455
 4764W        W 8964  11.418   6.542   9.456
 4765W        W 8965   9.987   1.365   0.263
 4766W        W 8966   4.117   7.007   9.286
 4767W        W 8967   1.796   3.339   1.762
 4768W        W 8968  10.110  10.547   0.749
 4769W        W 8969   8.378   2.228   9.748
 4770W        W 8970   6.735   4.559   9.403
 4771W        W 8971  10.568   2.780   1.704
 4772W        W 8972   4.963   7.024   3.140
 4773W        W 8973   0.242   2.147   9.784
 4774W        W 8974   7.828   7.996   2.294
 4775W        W 8975   3.958   6.011  11.512
 4776W        W 8976  11.347   4.631   1.864
 4777W        W 8977   4.584   7.557   0.342
 4778W        W 8978   5.590   4.590   2.462
 4779W        W 8979  10.450   7.535   9.374
 4780W        W 8980   7.484   4.328  11.394
 4781W        W 8981   8.322   8.717   2.819
 4782W        W 8982   3.651   3.248   1.867
 4783W        W 8983   2.036   6.997  10.294
 4784W        W 8984  10.284   1.776   1.137
 4785W        W 8985  11.393   8.779   8.524
 4786W        W 8986  10.157   2.183   1.905
 4787W        W 8987   7.151   9.921   2.743
 4788W        W 8988   0.266   6.238  11.170
 4789W        W 8989   1.215   1.002   2.018
 4790W        W 8990  10.456   9.873   2.953
 4791W        W 8991   8.717   0.003  10.438
 4792W        W 8992   9.345   2.201  11.116
 4793W        W 8993   8.526   3.462   1.276
 4794W        W 8994   9.135   5.188  10.822
 4795W        W 8995   4.780   7.916   0.024
 4796W        W 8996  11.436  11.427  10.775
 4797W        W 8997   0.673   9.405   3.406
 4798W        W 8998   0.464   0.008   9.733
 4799W        W 8999   1.940   7.922  11.812
 4800W        W 9000  10.438   8.521   8.864
 4801W        W 9001   3.818   2.880  10.339
 4802W        W 9002   4.878   4.990   1.407
 4803W        W 9003   1.141   2.812   0.590
 4804W        W 9004   7.388   3.783   0.737
 4805W        W 9005   8.531   6.776  10.752
 4806W        W 9006   2.131   4.744   0.349
 4807W        W 9007   4.746   1.598  10.705
 4808W        W 9008   1.541   2.859   0.927
 4809W        W 9009   9.033  10.966   0.345
 4810W        W 9010   0.695   7.099   2.178
 4811W        W 9011   1.249   2.814  11.300
 4812W        W 9012  11.022  10.141   1.804
 4813W        W 9013   4.788   1.305   2.456
 4814W        W 9014   9.596   9.785   2.956
 4815W        W 9015  10.805   4.568   0.665
 4816W        W 9016   5.955   6.094   9.745
 4817W        W 9017   9.954   5.302   0.411
 4818W        W 9018   9.180   4.696   9.175
 4819W        W 9019   9.099   7.659  10.137
 4820W        W 9020   0.242   2.255   1.827
 4821W        W 9021   9.953  11.057  11.346
 4822W        W 9022   9.512  10.116   9.463
 4823W        W 9023   9.429   6.619  11.259
 4824W        W 9024   1.145   9.589   3.373
 4825W        W 9025   9.795   8.598   1.963
 4826W        W 9026   8.054   4.565   0.207
 4827W        W 9027   9.956   1.882   0.162
 4828W        W 9028   6.570   7.507   8.692
 4829W        W 9029   7.146   4.557   8.671
 4830W        W 9030   0.493   7.926   9.613
 4831W        W 9031   3.451   6.055   1.244
 4832W        W 9032   1.587   6.166  10.040
 4833W        W 9033   1.701   0.844   2.143
 4834W        W 9034   5.973   1.357   2.054
 4835W        W 9035   1.086   8.487   2.457
 4836W        W 9036   1.857   4.046  10.899
 4837W        W 9037   6.652   2.392   3.532
 4838W        W 9038   6.526   8.541   1.636
 4839W        W 9039   0.905   3.651   0.809
 4840W        W 9040   6.868  11.214   3.136
 4841W        W 9041   1.171   5.534   9.470
 4842W        W 9042   6.869   1.157   1.970
 4843W        W 9043  10.432   9.975  11.922
 4844W        W 9044   6.705   4.685   0.149
 4845W        W 9045   1.619   7.981   0.867
 4846W        W 9046   0.281   3.500  10.792
 4847W        W 9047  10.021   7.566  11.122
 4848W        W 9048   7.111  10.184  11.323
 4849W        W 9049   7.979   5.223   0.305
 4850W        W 9050   5.604   1.353   8.808
 4851W        W 9051   8.954   6.149   8.828
 4852W        W 9052   2.257   4.182   8.517
 4853W        W 9053   5.136   5.640  11.240
 4854W        W 9054   4.730   8.576  10.249
 4855W        W 9055   7.747   1.811   2.986
 4856W        W 9056   0.166   9.459   9.509
 4857W        W 9057   7.682   1.336  11.391
 4858W        W 9058   6.307   4.029   2.243
 4859W        W 9059   0.615   2.216  10.139
 4860W        W 9060   7.590   6.200  11.954
 4861W        W 9061   0.788   5.223  10.256
 4862W        W 9062   7.994   2.483   8.848
 4863W        W 9063   7.410   4.291   0.752
 4864W        W 9064   8.369   3.284  11.770
 4865W        W 9065   8.575   4.570   9.803
 4866W        W 9066   0.378   0.300  11.511
 4867W        W 9067   3.020   3.493   2.375
 4868W        W 9068   8.988   0.432   0.721
 4869W        W 9069   0.332   8.345  11.412
 4870W        W 9070   3.068   5.560   3.207
 4871W        W 9071   1.992   1.017  11.680
 4872W        W 9072  10.515   8.369  11.019
 4873W        W 9073   5.670  10.076   8.893
 4874W        W 9074   2.592   5.993   9.518
 4875W        W 9075   4.149   0.533   0.543
 4876W        W 9076   4.337   8.153   2.725
 4877W        W 9077   8.753   7.106   3.151
 4878W        W 9078   8.046   1.904  11.019
 4879W        W 9079   3.955   8.669   2.205
 4880W        W 9080   2.616  10.992   3.008
 4881W        W 9081   9.657   4.258   2.261
 4882W        W 9082   5.585   1.813   9.047
 4883W        W 9083   3.763   4.622  11.161
 4884W        W 9084   0.410   5.247  11.567
 4885W        W 9085   5.632   4.799   0.670
 4886W        W 9086   7.905   8.752   9.519
 4887W        W 9087   0.752   3.026   8.516
 4888W        W 9088   2.881   7.053   1.487
 4889W        W 9089   5.772  10.882  10.388
 4890W        W 9090   1.270  11.391   9.317
 4891W        W 9091   2.511   2.504   3.159
 4892W        W 9092   0.593   2.632   9.295
 4893W        W 9093   9.759   9.063   1.748
 4894W        W 9094   1.432   6.122   2.195
 4895W        W 9095   9.357   2.833  11.828
 4896W        W 9096   6.123  11.026   9.602
 4897W        W 9097   1.816   3.590  10.694
 4898W        W 9098   1.729   9.912  10.578
 4899W        W 9099   4.397  10.485  10.065
 4900W        W 9100   7.711   0.852  11.945
 4901W        W 9101   5.140   8.506   1.078
 4902W        W 9102   3.206   2.184   1.772
 4903W        W 9103   0.664   9.145  11.073
 4904W        W 9104   9.507   2.351   9.618
 4905W        W 9105   9.944   2.160   1.264
 4906W        W 9106   9.284  11.405  11.659
 4907W        W 9107   7.918   5.505  10.514
 4908W        W 9108  10.605   3.103   0.465
 4909W        W 9109   5.658   8.486   0.740
 4910W        W 9110   5.098   6.338   2.425
 4911W        W 9111   7.470   1.311   8.779
 4912W        W 9112   6.543   1.154  10.337
 4913W        W 9113   7.592   6.515   1.315
 4914W        W 9114   0.568  10.363   0.932
 4915W        W 9115   3.995   7.618   1.363
 4916W        W 9116   5.779   9.958  10.357
 4917W        W 9117   8.494   2.655  10.531
 4918W        W 9118   9.335   7.943   0.222
 4919W        W 9119   3.064   9.130   1.551
 4920W        W 9120   1.750   4.584   3.590
 4921W        W 9121   1.680   0.179   1.188
 4922W        W 9122   7.483   0.913  10.450
 4923W        W 9123   7.375   7.327  10.138
 4924W        W 9124   1.842   1.212   3.095
 4925W        W 9125   9.494   7.628  11.458
 4926W        W 9126   6.587   3.963   2.690
 4927W        W 9127   1.113   5.144  11.865
 4928W        W 9128  11.339   7.201   8.819
 4929W        W 9129   2.079   5.942   9.579
 4930W        W 9130   9.391   9.782  10.881
 4931W        W 9131   1.780   4.900   1.033
 4932W        W 9132   2.813  11.066   2.526
 4933W        W 9133   0.471   1.749   9.584
 4934W        W 9134  10.369   2.228  11.945
 4935W        W 9135   7.018   9.571  11.241
 4936W        W 9136  11.292   6.705   0.851
 4937W        W 9137   6.948   6.087  10.049
 4938W        W 9138   4.632   4.535   3.137
 4939W        W 9139   3.336   3.250   3.632
 4940W        W 9140   5.138   8.894   9.964
 4941W        W 9141   3.884  10.872  10.723
 4942W        W 9142   4.340   0.945  10.840
 4943W        W 9143   4.730   2.802   0.709
 4944W        W 9144   9.828   7.682   1.908
 4945W        W 9145   2.773  11.465  11.373
 4946W        W 9146   7.231  11.384   1.875
 4947W        W 9147  10.865   2.618  10.289
 4948W        W 9148   9.882   6.377  10.307
 4949W        W 9149   2.675   3.090   2.395
 4950W        W 9150   6.428   8.746   8.252
 4951W        W 9151  10.960   9.575  11.966
 4952W        W 9152   0.827   2.430   0.427
 4953W        W 9153   5.469   4.107   9.057
 4954W        W 9154   2.898  10.940  10.811
 4955W        W 9155   8.611   6.415   1.276
 4956W        W 9156   5.113   9.478   2.432
 4957W        W 9157   5.858   6.675   2.153
 4958W        W 9158   9.967   1.974   3.425
 4959W        W 9159   0.811   6.251   0.922
 4960W        W 9160   0.723  10.841   1.721
 4961W        W 9161   5.741   9.196  11.812
 4962W        W 9162   2.656   2.270   9.488
 4963W        W 9163   0.279   1.452   3.465
 4964W        W 9164   9.952   4.254   2.675
 4965W        W 9165   3.822   8.107  11.797
 4966W        W 9166   2.994   5.654   8.579
 4967W        W 9167   9.999   6.180  10.772
 4968W        W 9168   5.524   0.956   9.119
 4969W        W 9169  11.392   2.646   0.526
 4970W        W 9170   9.797  10.927   0.929
 4971W        W 9171  10.005  10.797   2.722
 4972W        W 9172   2.734   7.987   9.494
 4973W        W 9173  10.771   7.637   2.385
 4974W        W 9174   4.774   7.591   1.755
 4975W        W 9175  10.767   4.940   3.581
 4976W        W 9176  10.297   1.932  10.942
 4977W        W 9177   1.614   6.157   0.988
 4978W        W 9178  10.337   6.989   9.045
 4979W        W 9179   8.113   9.947   0.252
 4980W        W 9180   6.934   4.413   1.823
 4981W        W 9181   4.646   4.730   3.607
 4982W        W 9182   6.551   5.458   0.462
 4983W        W 9183   7.914   9.971   9.982
 4984W        W 9184   5.036   4.620   3.922
 4985W        W 9185   2.215   3.301   2.214
 4986W        W 9186   5.676   9.087   3.049
 4987W        W 9187   5.533   4.111   2.585
 4988W        W 9188   2.538   2.672   0.873
 4989W        W 9189  10.253   7.267   2.346
 4990W        W 9190   5.667   3.177   8.888
 4991W        W 9191   8.430  11.004  11.745
 4992W        W 9192   1.037   4.087   0.518
 4993W        W 9193   3.393   6.598  10.318
 4994W        W 9194  10.309   6.572  11.969
 4995W        W 9195   4.155   9.102   9.097
 4996W        W 9196   9.922   5.683   9.912
 4997W        W 9197   3.487   8.505   8.923
 4998W        W 9198   4.363  10.994  10.757
 4999W        W 9199   9.993   1.645  10.091
 5000W        W 9200  10.044   1.286   8.821
 5001W        W 9201  10.053   0.858   0.042
 5002W        W 9202   6.082   5.773   1.711
 5003W        W 9203   1.264   9.447  10.008
 5004W        W 9204   2.514   7.714   2.705
 5005W        W 9205   9.908   0.777   8.906
 5006W        W 9206   3.982   1.347  11.475
 5007W        W 9207   2.077   1.624   3.344
 5008W        W 9208   8.658   3.088  10.288
 5009W        W 9209  10.495  10.821   3.368
 5010W        W 9210   2.249   9.335  11.258
 5011W        W 9211   8.448   2.639   2.039
 5012W        W 9212   7.451  11.323   8.825
 5013W        W 9213   8.174   0.796   8.491
 5014W        W 9214   0.214   6.100   2.807
 5015W        W 9215   8.675   9.971   2.862
 5016W        W 9216   4.553   5.308   9.661
 5017W        W 9217   5.957   6.271   2.659
 5018W        W 9218   3.701  10.788   2.784
 5019W        W 9219   1.606   5.605   3.175
 5020W        W 9220   4.719   4.530   2.626
 5021W        W 9221   8.115   4.614   3.551
 5022W        W 9222   6.844   9.364   0.670
 5023W        W 9223   0.084   5.652  10.822
 5024W        W 9224   0.624   1.464   0.748
 5025W        W 9225   2.344   0.672   0.760
 5026W        W 9226   8.350   2.141   3.723
 5027W        W 9227   4.908   6.082   1.003
 5028W        W 9228  10.231  11.411   9.395
 5029W        W 9229   7.109   2.635   9.796
 5030W        W 9230  10.885   7.542   9.662
 5031W        W 9231   5.541   6.430  11.278
 5032W        W 9232   0.978   2.339   9.104
 5033W        W 9233   5.490   0.006   0.020
 5034W        W 9234   1.618   3.480  10.212
 5035W        W 9235   4.738   2.822   2.012
 5036W        W 9236   4.959   8.076   1.976
 5037W        W 9237   8.536   5.500   9.852
 5038W        W 9238   0.705   4.153  11.000
 5039W        W 9239  11.278   2.224   9.414
 5040W        W 9240   9.622   8.369   9.915
 5041W        W 9241   5.776   9.866   2.006
 5042W        W 9242   6.968   4.561   0.920
 5043W        W 9243   4.794   1.652   0.430
 5044W        W 9244   2.286  11.251  11.430
 5045W        W 9245   1.272   0.494   1.883
 5046W        W 9246   4.086   2.328   0.310
 5047W        W 9247   7.232   4.459   9.544
 5048W        W 9248   9.886  10.478   9.408
 5049W        W 9249   1.925   6.385  10.463
 5050W        W 9250   7.008   8.297   9.722
 5051W        W 9251   0.753   8.399   0.404
 5052W        W 9252   9.387   3.920   1.678
 5053W        W 9253   9.848   2.608   2.808
 5054W        W 9254   6.756  10.753   1.876
 5055W        W 9255   5.472   8.099   2.028
 5056W        W 9256   9.406   0.944  11.885
 5057W        W 9257   5.489  11.068   9.029
 5058W        W 9258   6.224   2.744   9.886
 5059W        W 9259   2.274   7.097   0.066
 5060W        W 9260  11.289  11.401   9.362
 5061W        W 9261   5.658   0.697  10.713
 5062W        W 9262  10.866   8.325   9.626
 5063W        W 9263  10.285   5.966  11.194
 5064W        W 9264   6.981   3.169   1.376
 5065W        W 9265   2.742   8.502   9.467
 5066W        W 9266  10.854   7.624   1.867
 5067W        W 9267   9.402   4.390  11.053
 5068W        W 9268   7.497  11.344   9.337
 5069W        W 9269  10.817   3.920   1.905
 5070W        W 9270   2.587   6.302   9.987
 5071W        W 9271  10.589   7.880   0.004
 5072W        W 9272   0.445  11.336   0.712
 5073W        W 9273  11.428   5.018   2.175
 5074W        W 9274   4.595  11.402   9.107
 5075W        W 9275   8.926   5.341   8.521
 5076W        W 9276   8.873   2.830   2.839
 5077W        W 9277   0.483   3.608  11.539
 5078W        W 9278   8.447   2.952   1.545
 5079W        W 9279   8.061   3.933   1.933
 5080W        W 9280   0.508   5.388  11.014
 5081W        W 9281   2.457   2.519  11.882
 5082W        W 9282   2.779   3.108   1.432
 5083W        W 9283   6.150  10.559   9.403
 5084W        W 9284   4.655  10.886   1.350
 5085W        W 9285   1.045   9.503   0.777
 5086W        W 9286   4.657   6.823   2.298
 5087W        W 9287   5.179   9.845   9.016
 5088W        W 9288   0.281   9.920   0.911
 5089W        W 9289   5.810   7.083   0.384
 5090W        W 9290   7.888   6.943   2.983
 5091W        W 9291   3.845  10.786   9.874
 5092W        W 9292   2.608   6.214  11.879
 5093W        W 9293   1.384   2.024   8.968
 5094W        W 9294   0.826   1.873  10.918
 5095W        W 9295   4.091   0.871  11.297
 5096W        W 9296   2.020  11.107  10.076
 5097W        W 9297   1.413   7.870   8.811
 5098W        W 9298   2.171   4.949   1.494
 5099W        W 9299   2.641   9.755  10.540
 5100W        W 9300  10.543  11.233   2.294
 5101W        W 9301   6.075   0.413   3.196
 5102W        W 9302   3.862   7.351   2.225
 5103W        W 9303   3.857   8.481   2.672
 5104W        W 9304  10.033   3.310   1.435
 5105W        W 9305   3.479   2.223  10.499
 5106W        W 9306   0.359   9.603   1.576
 5107W        W 9307   8.872   4.132   9.864
 5108W        W 9308   0.197   3.661   2.763
 5109W        W 9309   0.503   3.065  10.685
 5110W        W 9310   4.172  10.811   1.884
 5111W        W 9311   4.164  10.903  10.287
 5112W        W 9312   5.355   9.454   0.323
 5113W        W 9313   0.149  10.597   3.087
 5114W        W 9314  10.574   0.879  11.840
 5115W        W 9315   2.873   8.599   2.836
 5116W        W 9316   9.526   2.712   3.511
 5117W        W 9317   5.745   7.773  10.035
 5118W        W 9318   8.546   1.473   1.337
 5119W        W 9319   8.116   9.421   1.054
 5120W        W 9320   9.370   2.727  11.319
 5121W        W 9321   6.735   7.891   9.907
 5122W        W 9322   5.780   4.814  10.356
 5123W        W 9323   7.655  10.294  10.798
 5124W        W 9324   5.103   5.717  10.736
 5125W        W 9325   9.158   3.742   0.213
 5126W        W 9326   2.187   0.802   8.909
 5127W        W 9327   0.276   7.561   3.291
 5128W        W 9328   6.853   8.568   2.971
 5129W        W 9329   0.650  10.374   2.337
 5130W        W 9330   2.940   0.262  10.962
 5131W        W 9331   2.984   4.571   9.989
 5132W        W 9332   6.487   4.038   0.796
 5133W        W 9333   3.850   4.684   8.163
 5134W        W 9334   4.803   2.727   1.537
 5135W        W 9335   8.156   1.826   9.987
 5136W        W 9336   3.363   2.375   0.017
 5137W        W 9337   8.503   1.885  11.253
 5138W        W 9338   3.773  10.349   8.969
 5139W        W 9339   9.598   0.616   0.239
 5140W        W 9340   8.592   5.010  10.138
 5141W        W 9341   6.656  10.370  11.090
 5142W        W 9342   9.544   2.367   2.216
 5143W        W 9343  10.705   1.314  11.536
 5144W        W 9344   1.416   3.883  11.482
 5145W        W 9345   8.054   2.773   0.367
 5146W        W 9346   0.417   5.715   9.960
 5147W        W 9347   4.169   7.466   9.065
 5148W        W 9348  10.362   4.559  11.450
 5149W        W 9349   4.695   3.557   0.431
 5150W        W 9350   6.785   3.139   9.174
 5151W        W 9351   7.689   5.767   8.319
 5152W        W 9352   4.581   6.372   2.516
 5153W        W 9353   5.568   8.973   0.419
 5154W        W 9354   2.753   3.399  10.296
 5155W        W 9355   2.827   2.329   2.763
 5156W        W 9356   5.468   2.395   2.703
 5157W        W 9357   6.724   2.804   0.467
 5158W        W 9358   3.176   0.813   9.112
 5159W        W 9359   8.988  10.009  10.124
 5160W        W 9360  11.382   5.583   0.215
 5161W        W 9361   4.521   3.206   9.532
 5162W        W 9362   8.042   1.823   3.443
 5163W        W 9363   8.479   6.967   0.459
 5164W        W 9364  10.460   8.097   2.975
 5165W        W 9365   7.661   0.740   3.399
 5166W        W 9366   4.090  11.386  10.497
 5167W        W 9367   1.916   5.215  11.229
 5168W        W 9368   4.539   5.449   2.276
 5169W        W 9369   5.567   3.675   3.795
 5170W        W 9370   7.376   4.792  10.530
 5171W        W 9371  11.325   6.414   2.811
 5172W        W 9372   1.705   2.321   0.937
 5173W        W 9373   5.101   9.847   2.116
 5174W        W 9374  11.490  11.460   2.010
 5175W        W 9375   9.183   9.538   2.243
 5176W        W 9376   0.775   7.172   9.929
 5177W        W 9377   6.958   1.253  11.945
 5178W        W 9378   0.774   7.492   1.789
 5179W        W 9379   0.864   9.132   1.050
 5180W        W 9380   5.164   5.575  11.757
 5181W        W 9381  10.119   5.030  10.299
 5182W        W 9382  10.120   1.961  10.472
 5183W        W 9383   4.991   1.510  10.122
 5184W        W 9384   8.841   6.920   9.539
 5185W        W 9385   0.807   2.038  11.617
 5186W        W 9386   0.762   5.511   3.007
 5187W        W 9387   6.275   5.025   0.365
 5188W        W 9388   1.267   5.270  10.442
 5189W        W 9389   5.333   6.717  10.849
 5190W        W 9390   1.617   5.070  11.965
 5191W        W 9391   0.267  11.433   0.240
 5192W        W 9392   0.487   4.584  10.829
 5193W        W 9393  11.313   8.892   1.881
 5194W        W 9394   8.721  11.252   9.579
 5195W        W 9395  10.507   7.364  10.949
 5196W        W 9396   9.103   9.055   2.518
 5197W        W 9397  11.258   4.795   0.816
 5198W        W 9398   3.280   2.639   0.864
 5199W        W 9399   8.546   0.953   9.437
 5200W        W 9400   7.056   8.365   1.945
 5201W        W 9401   5.160  11.492   3.009
 5202W        W 9402   2.999   3.996   4.104
 5203W        W 9403   1.206   8.114   0.602
 5204W        W 9404   1.345   9.560   0.395
 5205W        W 9405   0.735   0.925  10.426
 5206W        W 9406  10.338   2.572   9.407
 5207W        W 9407  10.555   1.585   9.643
 5208W        W 9408  10.241   8.468   0.396
 5209W        W 9409   2.368  10.247   2.754
 5210W        W 9410   9.968   8.064  10.955
 5211W        W 9411   2.286  11.266   0.479
 5212W        W 9412   7.640   2.450   3.172
 5213W        W 9413  10.173   0.303  10.101
 5214W        W 9414   8.469  11.324   3.190
 5215W        W 9415   9.440   6.686   2.161
 5216W        W 9416   4.120   8.078   9.643
 5217W        W 9417   9.830   0.823   9.453
 5218W        W 9418   7.183  10.395   3.397
 5219W        W 9419   0.684   6.936  10.374
 5220W        W 9420  11.302   1.802  10.970
 5221W        W 9421   2.160   2.946   8.806
 5222W        W 9422   7.731   7.730   9.872
 5223W        W 9423   8.599   6.005  11.014
 5224W        W 9424   7.496   7.069   1.875
 5225W        W 9425   1.774  10.991   2.793
 5226W        W 9426   1.810  10.487  11.240
 5227W        W 9427   2.966   7.858  10.377
 5228W        W 9428   1.831   3.704   2.283
 5229W        W 9429   9.446   8.784   0.219
 5230W        W 9430   0.397   6.053   0.242
 5231W        W 9431   0.497   3.879   2.419
 5232W        W 9432   4.731   2.655   2.978
 5233W        W 9433   0.720   0.691   9.971
 5234W        W 9434  10.392   7.472   9.878
 5235W        W 9435   3.216   0.145   9.149
 5236W        W 9436   3.748   0.618   2.960
 5237W        W 9437   1.185   5.709   2.379
 5238W        W 9438   7.545   1.026   1.967
 5239W        W 9439   7.449   8.356   2.310
 5240W        W 9440   8.600   6.453   0.382
 5241W        W 9441  10.221   2.276   0.836
 5242W        W 9442   6.655   9.879   2.002
 5243W        W 9443   3.684  11.458   9.590
 5244W        W 9444   4.659   4.623  10.929
 5245W        W 9445   4.803   9.011   3.072
 5246W        W 9446   2.672   1.145   1.253
 5247W        W 9447   4.769   6.998  10.039
 5248W        W 9448   1.367   9.518  11.903
 5249W        W 9449   2.379   3.798   9.473
 5250W        W 9450   4.659   4.755   1.805
 5251W        W 9451   2.897   9.986  11.527
 5252W        W 9452   9.238   7.355  11.083
 5253W        W 9453   8.790   8.690   0.746
 5254W        W 9454   8.108   1.440   8.690
 5255W        W 9455   9.632   9.550   1.504
 5256W        W 9456   0.714   4.678  11.327
 5257W        W 9457   8.104   8.845  11.753
 5258W        W 9458   1.821   7.406  11.812
 5259W        W 9459   4.725   8.501   0.719
 5260W        W 9460   6.328   7.452   1.473
 5261W        W 9461   3.728   8.863  10.591
 5262W        W 9462  10.357   5.037  11.161
 5263W        W 9463   1.435   5.236   2.379
 5264W        W 9464   1.891   0.468   0.815
 5265W        W 9465   2.829   7.034   2.381
 5266W        W 9466   7.906   5.216  11.435
 5267W        W 9467   1.805   5.256   2.797
 5268W        W 9468   6.399   1.254   1.750
 5269W        W 9469   1.631   3.043   0.450
 5270W        W 9470  11.073   0.928   1.233
 5271W        W 9471   1.467   0.028   0.267
 5272W        W 9472   4.094   3.526  11.793
 5273W        W 9473   5.178   0.807   1.939
 5274W        W 9474  10.044   8.952   9.138
 5275W        W 9475   2.004  10.391   9.402
 5276W        W 9476   2.742   4.610   1.356
 5277W        W 9477   4.542   5.134  11.204
 5278W        W 9478   9.003   5.689   9.784
 5279W        W 9479   4.638   4.014   1.362
 5280W        W 9480   7.815   9.524  10.901
 5281W        W 9481   4.204   1.347   3.016
 5282W        W 9482   9.383   8.623   2.317
 5283W        W 9483   1.435   5.555  11.926
 5284W        W 9484   3.767   1.119   2.957
 5285W        W 9485   9.966   2.750  10.094
 5286W        W 9486   1.159   7.296   2.861
 5287W        W 9487   5.932   5.593   9.060
 5288W        W 9488   6.538   2.880   3.604
 5289W        W 9489   9.722   1.139   2.993
 5290W        W 9490   4.084  11.347   0.874
 5291W        W 9491   0.898  11.047  10.650
 5292W        W 9492   8.313   6.791   0.939
 5293W        W 9493   7.123   7.026  11.938
 5294W        W 9494   9.953  10.871  11.891
 5295W        W 9495   3.730   6.921  11.158
 5296W        W 9496   2.212   8.041   0.574
 5297W        W 9497   9.639   4.213   1.346
 5298W        W 9498  10.633   0.700   1.382
 5299W        W 9499   7.583   7.355   2.297
 5300W        W 9500   1.989   5.333   1.839
 5301W        W 9501  10.565  10.478  11.767
 5302W        W 9502   1.608   7.003   1.910
 5303W        W 9503   8.311   4.027  10.278
 5304W        W 9504   5.649   3.229   2.553
 5305W        W 9505   6.047   0.365   2.199
 5306W        W 9506   9.571   7.682   1.445
 5307W        W 9507   9.904   3.200   9.786
 5308W        W 9508   9.616   4.902   1.723
 5309W        W 9509   8.212   3.670   9.502
 5310W        W 9510   6.677   3.973   1.720
 5311W        W 9511   9.983   8.531  10.711
 5312W        W 9512   8.478  10.268  10.036
 5313W        W 9513   0.324  11.454   9.252
 5314W        W 9514   3.684   3.613  10.971
 5315W        W 9515  11.455  10.718   9.685
 5316W        W 9516   0.175   7.187  11.327
 5317W        W 9517   8.944   9.362  11.419
 5318W        W 9518   2.612   0.835   9.227
 5319W        W 9519   0.540   3.440  10.316
 5320W        W 9520  10.225   2.721   2.100
 5321W        W 9521   5.628   8.539   1.786
 5322W        W 9522   3.960   7.999   1.759
 5323W        W 9523   8.264   3.860   4.000
 5324W        W 9524   1.216   4.045   9.231
 5325W        W 9525   2.259   1.889   9.764
 5326W        W 9526   9.871  10.774   2.224
 5327W        W 9527   5.187   9.831   3.349
 5328W        W 9528   1.966   2.148  11.285
 5329W        W 9529   7.993  10.418   2.426
 5330W        W 9530   1.942   3.205   8.386
 5331W        W 9531   0.394  10.018  10.926
 5332W        W 9532   8.572   3.565   3.134
 5333W        W 9533   9.928   7.689   2.418
 5334W        W 9534   6.543  10.912   9.323
 5335W        W 9535   2.793   5.293  11.340
 5336W        W 9536   4.969   2.511   8.619
 5337W        W 9537   6.729   8.635   0.822
 5338W        W 9538   1.873   6.918   8.766
 5339W        W 9539   3.654   0.170   2.743
 5340W        W 9540   5.012   8.301   8.938
 5341W        W 9541   6.997   9.376   8.536
 5342W        W 9542   1.250   7.573   2.061
 5343W        W 9543   7.997   5.915   0.792
 5344W        W 9544   5.635  10.959   0.950
 5345W        W 9545   0.669   8.773  10.083
 5346W        W 9546   4.003   6.205   1.848
 5347W        W 9547  10.728   7.428   3.514
 5348W        W 9548   1.630   6.645   8.354
 5349W        W 9549   0.309  10.999   9.467
 5350W        W 9550   5.224   4.683   1.665
 5351W        W 9551   2.793   4.824  11.630
 5352W        W 9552   3.143   3.338   1.766
 5353W        W 9553   0.137   7.900   9.997
 5354W        W 9554   6.319   6.477   2.336
 5355W        W 9555   2.196  10.987   1.856
 5356W        W 9556   0.437   0.512   2.429
 5357W        W 9557   9.716   7.043   0.308
 5358W        W 9558   0.886   7.085   1.417
 5359W        W 9559   5.221   1.387   1.689
 5360W        W 9560   1.747   4.806  10.291
 5361W        W 9561   5.788   5.166   0.305
 5362W        W 9562   1.774   8.071   9.620
 5363W        W 9563   1.189   1.912  11.278
 5364W        W 9564  10.970   9.960   9.738
 5365W        W 9565   3.805   9.371   3.415
 5366W        W 9566   6.898   2.619   2.662
 5367W        W 9567   6.373   2.528  10.338
 5368W        W 9568   2.220   1.469   0.074
 5369W        W 9569   1.168   1.288   3.644
 5370W        W 9570   7.797   0.340   3.753
 5371W        W 9571   2.298   5.770   9.142
 5372W        W 9572   8.950   7.478   2.163
 5373W        W 9573  11.250   5.138   1.198
 5374W        W 9574   1.433  10.363   2.941
 5375W        W 9575   2.830   3.247   3.499
 5376W        W 9576  10.468   8.897   2.965
 5377W        W 9577   8.622   7.370   9.447
 5378W        W 9578   1.896   4.541  10.904
 5379W        W 9579  10.087   1.301   1.219
 5380W        W 9580   7.569   1.797   9.589
 5381W        W 9581   3.153   5.613   0.103
 5382W        W 9582   4.049   5.155  11.022
 5383W        W 9583   2.692   3.108   8.996
 5384W        W 9584   0.184   1.805   1.518
 5385W        W 9585   9.794   1.304   0.765
 5386W        W 9586   8.944   0.762   1.897
 5387W        W 9587   7.572   5.060   1.243
 5388W        W 9588   6.709  10.389   2.716
 5389W        W 9589   0.842  10.285  10.086
 5390W        W 9590   0.088   9.373   0.756
 5391W        W 9591   7.664   1.027   9.602
 5392W        W 9592   7.697   6.516   1.838
 5393W        W 9593   8.102   6.692   9.908
 5394W        W 9594   3.752   9.086   2.022
 5395W        W 9595   1.696   8.899  10.900
 5396W        W 9596   7.017   5.994  11.828
 5397W        W 9597   6.230   0.840   2.385
 5398W        W 9598   8.062  10.828   2.766
 5399W        W 9599   0.225   5.467   1.895
 5400W        W 9600   8.098   3.723   1.441
 5401W        W 9601  10.879   1.386   0.006
 5402W        W 9602   8.978   8.576   2.712
 5403W        W 9603   8.461   1.466   9.521
 5404W        W 9604   0.287   7.577  11.712
 5405W        W 9605   7.108   6.686  11.335
 5406W        W 9606   2.318   7.938  10.989
 5407W        W 9607   0.355   1.280  11.841
 5408W        W 9608   3.955   6.303   1.269
 5409W        W 9609   6.656   7.481   3.651
 5410W        W 9610  11.336   8.456   2.185
 5411W        W 9611   9.119  11.417   0.722
 5412W        W 9612   0.164   5.159   0.924
 5413W        W 9613   9.885   0.381  11.842
 5414W        W 9614   5.079   0.247   0.238
 5415W        W 9615   6.237   3.499   2.267
 5416W        W 9616  10.802  10.353   3.432
 5417W        W 9617  11.193   5.261   8.763
 5418W        W 9618   5.727   8.635   3.314
 5419W        W 9619   8.981   3.663   3.448
 5420W        W 9620  11.182   1.500   8.842
 5421W        W 9621   2.740  11.274   0.217
 5422W        W 9622   5.712   2.395   1.018
 5423W        W 9623   5.090   7.736  11.645
 5424W        W 9624   1.178   8.241   0.113
 5425W        W 9625  10.623   7.845   1.415
 5426W        W 9626   7.662   3.060   0.704
 5427W        W 9627  11.417   3.783   3.149
 5428W        W 9628   4.365   5.004   1.416
 5429W        W 9629   0.182   9.241  10.337
 5430W        W 9630   8.740   7.969  10.377
 5431W        W 9631   1.708  10.832   9.414
 5432W        W 9632   9.362   6.639  11.788
 5433W        W 9633   9.138   7.335   9.571
 5434W        W 9634  11.490  11.375   9.825
 5435W        W 9635  10.768   0.224   9.909
 5436W        W 9636   1.980  10.699   8.981
 5437W        W 9637   7.758   6.286   8.254
 5438W        W 9638   0.188   5.533   9.514
 5439W        W 9639  10.811   7.148   8.906
 5440W        W 9640   6.443   2.793   8.978
 5441W        W 9641  10.102   0.739  10.556
 5442W        W 9642   6.796   6.105   1.313
 5443W        W 9643   9.508   3.306   2.276
 5444W        W 9644   5.251   5.811   2.350
 5445W        W 9645   7.312   0.455  10.059
 5446W        W 9646   8.927   0.802   2.407
 5447W        W 9647   3.668   3.601   0.713
 5448W        W 9648   0.203   3.062  10.247
 5449W        W 9649   0.422   8.684  10.891
 5450W        W 9650   7.598   6.362   3.533
 5451W        W 9651   1.294   7.850  10.917
 5452W        W 9652   3.999   1.017   0.429
 5453W        W 9653   9.480   2.797   9.899
 5454W        W 9654   7.286   1.006   0.265
 5455W        W 9655   6.786   0.595   8.457
 5456W        W 9656   5.518   3.773   1.821
 5457W        W 9657   9.523   1.368   1.311
 5458W        W 9658   0.510   7.053   8.993
 5459W        W 9659   0.213   8.723  10.395
 5460W        W 9660   0.297   3.861  11.148
 5461W        W 9661   1.419  10.879  11.782
 5462W        W 9662  10.753   9.354   2.257
 5463W        W 9663   2.081   8.401   3.223
 5464W        W 9664   1.643  10.359   2.157
 5465W        W 9665   4.636   8.124   9.686
 5466W        W 9666   9.469   6.888   9.876
 5467W        W 9667   3.696   5.443  10.340
 5468W        W 9668  11.379   6.048   0.044
 5469W        W 9669   3.350   7.208  10.968
 5470W        W 9670  10.925   8.555   8.633
 5471W        W 9671  10.733   6.989   0.400
 5472W        W 9672   3.338   9.129  11.066
 5473W        W 9673   1.634   9.627  11.464
 5474W        W 9674   5.890   1.514   9.802
 5475W        W 9675   4.908  10.396  10.167
 5476W        W 9676   1.312   5.732   0.384
 5477W        W 9677   2.142   1.751  11.576
 5478W        W 9678   9.832   0.633   3.036
 5479W        W 9679   7.693   9.047   9.908
 5480W        W 9680   7.145   7.118  10.545
 5481W        W 9681  11.454   9.825   8.704
 5482W        W 9682   1.357  10.442   9.975
 5483W        W 9683   5.495  10.743   2.451
 5484W        W 9684   4.998   7.979   3.359
 5485W        W 9685   3.249   0.189  11.456
 5486W        W 9686   2.269   7.496  10.343
 5487W        W 9687   1.486   4.273   2.365
 5488W        W 9688  10.483   2.462   9.932
 5489W        W 9689   4.955   6.408  11.720
 5490W        W 9690   7.078   1.760   1.148
 5491W        W 9691   0.413   0.346   0.512
 5492W        W 9692   8.364   7.192  11.020
 5493W        W 9693   2.336   3.083   2.778
 5494W        W 9694  10.573   6.009   2.191
 5495W        W 9695   4.295  11.378  11.522
 5496W        W 9696   2.405  10.197  11.525
 5497W        W 9697   0.967  11.463   8.568
 5498W        W 9698   9.423   0.780   2.128
 5499W        W 9699   7.704   6.610   8.680
 5500W        W 9700   6.609   8.582   3.830
 5501W        W 9701   2.370   0.392   9.160
 5502W        W 9702   8.486   5.048   9.639
 5503W        W 9703   3.724   0.844   2.061
 5504W        W 9704   1.714   0.363   1.651
 5505W        W 9705   4.271   2.266   9.288
 5506W        W 9706   0.374   8.031   9.113
 5507W        W 9707   9.995  10.032   0.720
 5508W        W 9708   0.417   3.388   1.479
 5509W        W 9709   4.228   0.019  11.000
 5510W        W 9710  11.125   1.436   2.334
 5511W        W 9711   5.097   7.007   1.042
 5512W        W 9712  11.475   5.581   1.425
 5513W        W 9713   1.380   7.068   0.124
 5514W        W 9714   1.407   3.735   1.031
 5515W        W 9715   3.301   7.625   0.795
 5516W        W 9716   6.099   1.746   3.502
 5517W        W 9717   8.474   8.432   3.592
 5518W        W 9718   9.924  10.421   3.530
 5519W        W 9719   9.528   7.738  10.421
 5520W        W 9720   8.045  10.989  10.099
 5521W        W 9721  10.871   8.685   9.994
 5522W        W 9722   2.506   4.319   2.133
 5523W        W 9723   8.681   8.528  11.756
 5524W        W 9724   2.393   6.070  10.439
 5525W        W 9725   2.864   8.903  10.738
 5526W        W 9726   7.124   5.744  11.362
 5527W        W 9727   2.874   9.337   0.293
 5528W        W 9728   5.103   9.077  11.472
 5529W        W 9729   3.440   0.214  10.979
 5530W        W 9730   4.626   4.560   0.495
 5531W        W 9731   0.639   0.520  10.858
 5532W        W 9732   8.407   7.875   3.100
 5533W        W 9733  10.394   5.608   0.907
 5534W        W 9734   1.845   5.692  11.647
 5535W        W 9735   2.033   4.687   9.876
 5536W        W 9736  11.053   5.307   1.954
 5537W        W 9737   4.846  10.459  11.457
 5538W        W 9738   4.404   4.080   3.254
 5539W        W 9739   7.278   2.270   8.817
 5540W        W 9740   3.687   1.850   1.668
 5541W        W 9741   8.398   4.155   9.267
 5542W        W 9742   7.861   3.257   0.244
 5543W        W 9743   4.387   3.245   3.675
 5544W        W 9744   9.014   5.019   1.451
 5545W        W 9745   4.247   7.023   8.776
 5546W        W 9746   7.766   0.921   0.457
 5547W        W 9747   6.118   4.563   1.318
 5548W        W 9748  10.357   6.432   9.993
 5549W        W 9749   5.863   9.404   0.329
 5550W        W 9750   4.177   1.380   0.824
 5551W        W 9751  11.219   9.847  10.195
 5552W        W 9752   7.223   9.539  10.371
 5553W        W 9753   6.024   4.276   2.612
 5554W        W 9754   4.947   2.331   2.645
 5555W        W 9755  10.344   9.492  10.294
 5556W        W 9756   2.596   9.871  11.091
 5557W        W 9757   1.421   1.759   3.127
 5558W        W 9758   5.547   5.384   2.256
 5559W        W 9759   4.875   7.108   1.506
 5560W        W 9760   0.382   1.302  11.307
 5561W        W 9761   5.577   4.630   9.014
 5562W        W 9762   5.918   6.513   9.458
 5563W        W 9763   0.239   6.793   2.096
 5564W        W 9764   9.913  10.470   1.232
 5565W        W 9765   2.305   3.349   1.324
 5566W        W 9766   4.932   9.088   8.550
 5567W        W 9767   8.538   3.868   1.743
 5568W        W 9768   1.524   4.806   2.671
 5569W        W 9769   6.239  11.466   1.400
 5570W        W 9770   1.869   6.928   3.155
 5571W        W 9771   3.160   3.604   0.770
 5572W        W 9772   7.699   9.205   1.292
 5573W        W 9773   7.880   8.073  10.213
 5574W        W 9774   9.577  11.399   0.988
 5575W        W 9775   6.754   6.566   9.944
 5576W        W 9776   3.041   5.520   2.502
 5577W        W 9777   7.317   8.554   2.771
 5578W        W 9778   3.398  10.930  10.805
 5579W        W 9779   8.038   1.308   1.264
 5580W        W 9780   5.929   3.070   0.317
 5581W        W 9781  11.277   1.023   3.556
 5582W        W 9782  10.313   3.704   1.707
 5583W        W 9783   4.606   3.359  10.032
 5584W        W 9784   8.510   7.667   9.050
 5585W        W 9785   7.739   5.245   8.528
 5586W        W 9786   1.725   3.136   2.254
 5587W        W 9787   3.141   7.035   9.893
 5588W        W 9788   2.280   2.466   1.695
 5589W        W 9789   9.495   7.393   9.961
 5590W        W 9790   7.488   0.243  11.155
 5591W        W 9791   6.628   2.339   1.379
 5592W        W 9792   8.643   7.639   9.891
 5593W        W 9793  10.974   3.587   0.458
 5594W        W 9794   3.596   2.343   0.470
 5595W        W 9795   8.130   6.604  11.287
 5596W        W 9796   6.943   0.324   1.101
 5597W        W 9797   0.917   5.728   9.001
 5598W        W 9798  10.294   5.655   2.439
 5599W        W 9799   4.196   6.917  11.336
 5600W        W 9800   0.114   0.748  10.819
 5601W        W 9801   1.456  11.363   0.839
 5602W        W 9802  10.012   0.305   9.131
 5603W        W 9803   2.252   1.927   8.721
 5604W        W 9804   1.381   1.434   1.784
 5605W        W 9805   9.126   9.939   3.103
 5606W        W 9806   8.631   1.155  11.023
 5607W        W 9807   9.282   2.656   2.550
 5608W        W 9808   9.192  11.467   0.203
 5609W        W 9809   7.508   8.764   9.157
 5610W        W 9810   2.775   1.587   1.503
 5611W        W 9811  10.700  10.578   2.959
 5612W        W 9812  10.429   8.279   3.480
 5613W        W 9813   8.381   7.919   1.356
 5614W        W 9814   2.185   0.672   2.818
 5615W        W 9815   6.440   1.162  11.202
 5616W        W 9816   7.196   6.469   1.723
 5617W        W 9817   5.421   5.276   9.548
 5618W        W 9818   0.116   1.623   2.734
 5619W        W 9819   3.180   2.816   9.923
 5620W        W 9820   3.010   4.700   2.985
 5621W        W 9821   2.047   5.152   0.663
 5622W        W 9822   6.038   9.426   9.572
 5623W        W 9823   9.041   5.133   2.398
 5624W        W 9824   8.471   0.412   1.245
 5625W        W 9825  10.341   6.471  11.009
 5626W        W 9826   7.088   8.426  11.073
 5627W        W 9827   4.045   4.748  10.708
 5628W        W 9828   2.344   7.716   8.966
 5629W        W 9829   6.547   3.088   4.132
 5630W        W 9830  11.230  11.043  11.055
 5631W        W 9831   0.001   3.450   9.077
 5632W        W 9832   2.983   8.371   9.020
 5633W        W 9833   6.232   9.337  11.984
 5634W        W 9834   2.253   2.816   9.833
 5635W        W 9835   9.898   6.156  11.460
 5636W        W 9836   8.687   6.591   1.772
 5637W        W 9837  10.425  10.468  10.793
 5638W        W 9838  10.040   4.087   0.893
 5639W        W 9839   6.946   0.791   3.152
 5640W        W 9840  10.403   4.497   2.864
 5641W        W 9841   8.752   2.300   1.816
 5642W        W 9842   9.207   3.829   9.419
 5643W        W 9843   5.486   5.037   9.993
 5644W        W 9844   6.950  10.769   2.367
 5645W        W 9845   3.509   7.732  11.944
 5646W        W 9846   0.223   2.709   1.522
 5647W        W 9847   1.889   8.174   1.998
 5648W        W 9848   9.146   9.069   9.776
 5649W        W 9849   1.194   4.804  11.479
 5650W        W 9850  11.393   9.823   9.228
 5651W        W 9851   8.595   9.345  10.628
 5652W        W 9852   7.971   2.331  10.726
 5653W        W 9853   0.502   8.042  11.824
 5654W        W 9854   4.474   2.814  10.650
 5655W        W 9855   8.924   1.565  11.188
 5656W        W 9856   3.486   3.797   1.172
 5657W        W 9857   6.437   3.525   0.874
 5658W        W 9858   6.571   2.852   1.361
 5659W        W 9859  10.447   3.292  10.619
 5660W        W 9860   3.703   8.288  11.292
 5661W        W 9861   4.137   6.578   0.770
 5662W        W 9862   4.735   0.316  10.338
 5663W        W 9863  10.051   0.112  11.422
 5664W        W 9864  10.988  11.252   9.928
 5665W        W 9865   0.793   5.055   3.221
 5666W        W 9866  10.074   1.364   2.455
 5667W        W 9867   8.885   4.178   0.263
 5668W        W 9868   0.776   9.912   3.244
 5669W        W 9869  10.849   9.663   2.673
 5670W        W 9870   3.434   3.146   0.882
 5671W        W 9871  11.021   6.976   3.578
 5672W        W 9872   1.267   2.319   2.839
 5673W        W 9873   2.159  10.833   1.368
 5674W        W 9874   7.147  10.315   2.440
 5675W        W 9875   3.422  11.071   9.926
 5676W        W 9876   2.216   3.326   9.647
 5677W        W 9877   3.494   3.972  10.626
 5678W        W 9878   1.887   5.533   9.361
 5679W        W 9879   8.674   5.191   2.873
 5680W        W 9880   5.545   7.357   9.793
 5681W        W 9881   4.317   7.527   0.775
 5682W        W 9882   0.950   2.685   2.664
 5683W        W 9883   0.206   6.825  10.510
 5684W        W 9884   5.469   4.101   4.037
 5685W        W 9885   8.195   8.080   8.960
 5686W        W 9886   8.890   5.469  10.231
 5687W        W 9887   7.476   2.369  10.497
 5688W        W 9888   7.706  11.232   9.793
 5689W        W 9889   0.200   5.232   8.993
 5690W        W 9890   1.887   6.990   1.457
 5691W        W 9891   0.978   5.280   2.151
 5692W        W 9892   7.661   0.612   1.696
 5693W        W 9893  11.406   5.693   9.938
 5694W        W 9894   2.623  11.250   9.516
 5695W        W 9895  10.873   7.155  10.002
 5696W        W 9896   3.739   4.762   2.260
 5697W        W 9897   4.680   9.930   0.514
 5698W        W 9898   7.876   1.546  11.928
 5699W        W 9899   0.751   0.421   8.670
 5700W        W 9900  11.331   0.030  11.290
 5701W        W 9901   0.455   7.999   0.609
 5702W        W 9902  10.233  11.327  10.304
 5703W        W 9903   1.440   4.240   0.231
 5704W        W 9904   4.895   1.315   3.245
 5705W        W 9905   7.673   8.983  10.908
 5706W        W 9906   6.867   8.875   8.542
 5707W        W 9907   3.677   5.489  10.859
 5708W        W 9908   4.937   4.338  10.505
 5709W        W 9909   0.384   8.777   0.324
 5710W        W 9910   6.949   4.583  10.344
 5711W        W 9911   8.224   9.598   8.785
 5712W        W 9912   5.023   2.901  10.625
 5713W        W 9913   9.759   4.567  10.628
 5714W        W 9914  11.144   8.482  10.411
 5715W        W 9915   4.457   7.996   1.893
 5716W        W 9916   6.437   1.317   1.242
 5717W        W 9917   1.423   9.071   1.218
 5718W        W 9918   9.918   6.467   3.575
 5719W        W 9919   1.323   7.150   2.327
 5720W        W 9920   8.069   4.152   1.087
 5721W        W 9921   4.796   5.243   1.870
 5722W        W 9922   0.396   3.478   9.424
 5723W        W 9923   6.958   1.702   2.131
 5724W        W 9924   4.428  10.285   0.921
 5725W        W 9925  10.033   8.084   9.821
 5726W        W 9926  10.296   3.974  11.984
 5727W        W 9927   8.401   6.164   1.709
 5728W        W 9928  11.290   3.405   0.858
 5729W        W 9929   4.464   6.312   1.151
 5730W        W 9930   0.025   8.550   0.644
 5731W        W 9931   8.831   1.146   3.384
 5732W        W 9932   3.874   7.112   1.484
 5733W        W 9933   9.027   4.325   0.733
 5734W        W 9934   7.750   1.475   1.663
 5735W        W 9935  11.357  10.125  11.628
 5736W        W 9936   4.170   5.063   2.339
 5737W        W 9937   8.925   7.575   1.667
 5738W        W 9938   3.162   7.710   9.414
 5739W        W 9939   2.292   4.789   0.956
 5740W        W 9940   1.420  11.438   8.821
 5741W        W 9941   1.431  11.315  11.536
 5742W        W 9942   7.143   2.929   8.821
 5743W        W 9943  11.183   9.276  11.003
 5744W        W 9944   0.437   3.766   3.240
 5745W        W 9945   1.022   8.467  10.315
 5746W        W 9946   8.814   5.983   8.356
 5747W        W 9947   6.364   0.814  10.693
 5748W        W 9948   5.512   3.715   8.141
 5749W        W 9949   9.537   8.631   3.249
 5750W        W 9950   5.908   3.386   1.878
 5751W        W 9951   2.272   8.436  10.300
 5752W        W 9952   5.720   9.120   3.570
 5753W        W 9953   3.611   1.887   9.504
 5754W        W 9954   1.344   4.760   2.190
 5755W        W 9955   6.047   8.344   2.701
 5756W        W 9956  10.380   6.585   3.364
 5757W        W 9957   0.300  10.560   9.162
 5758W        W 9958   9.565   5.544   1.129
 5759W        W 9959   8.518   0.967   2.081
 5760W        W 9960   2.899   7.872   1.327
 5761W        W 9961   0.088  10.579  11.732
 5762W        W 9962   5.190   0.964  11.439
 5763W        W 9963   9.063   7.603   2.658
 5764W        W 9964   2.271   0.857  10.849
 5765W        W 9965   6.298  10.517  10.755
 5766W        W 9966   3.496   3.763   3.564
 5767W        W 9967  10.574   9.989  10.983
 5768W        W 9968   6.159   1.747  11.022
 5769W        W 9969   8.105   7.676  11.189
 5770W        W 9970   2.192   8.888  11.029
 5771W        W 9971   8.930   6.034   0.790
 5772W        W 9972  10.185   4.256  10.589
 5773W        W 9973   3.272   9.089   9.080
 5774W        W 9974  10.501   9.038   8.902
 5775W        W 9975  10.041   9.014   2.179
 5776W        W 9976  10.326   5.371  10.623
 5777W        W 9977   1.687   3.805   2.851
 5778W        W 9978  11.267  10.275   0.622
 5779W        W 9979   1.928  11.435   1.852
 5780W        W 9980   4.518  10.913  11.446
 5781W        W 9981   2.763   2.061   9.040
 5782W        W 9982   6.158   9.061   2.304
 5783W        W 9983   8.946   0.365   2.704
 5784W        W 9984   9.552   6.443   9.593
 5785W        W 9985   1.373   3.830  10.956
 5786W        W 9986   7.425   7.609  11.711
 5787W        W 9987   0.984   3.676  10.400
 5788W        W 9988   4.893   7.198   0.568
 5789W        W 9989  10.462  10.743   2.458
 5790W        W 9990   3.318   3.753   9.778
 5791W        W 9991   1.776  11.426   3.602
 5792W        W 9992   7.193   7.486   1.075
 5793W        W 9993   3.130  10.801  11.288
 5794W        W 9994   0.299  10.069   1.394
 5795W        W 9995   8.622   1.986   1.444
 5796W        W 9996   5.165   1.938  10.945
 5797W        W 9997   4.705   6.059  10.773
 5798W        W 9998  10.068   7.594   1.360
 5799W        W 9999   2.321   9.868   2.437
 5800W        W10000  10.361   4.965   8.840
 5801W        W10001   4.684  10.567   1.827
 5802W        W10002   6.995   0.374   0.123
 5803W        W10003   0.603  11.348  11.777
 5804W        W10004   9.209   5.217  11.330
 5805W        W10005   8.025   5.664   8.684
 5806W        W10006   8.564  11.036   1.780
 5807W        W10007   2.518   4.766   2.866
 5808W        W10008   3.714   3.073   9.045
 5809W        W10009   3.377   9.432   3.732
 5810W        W10010   2.589   9.324   0.728
 5811W        W10011   2.674   4.296  10.273
 5812W        W10012   3.701   4.253   2.171
 5813W        W10013   8.465   9.580   0.161
 5814W        W10014   7.722   6.432   9.167
 5815W        W10015   1.916   0.986   0.743
 5816W        W10016   9.004  10.857   2.540
 5817W        W10017   2.836   5.558  10.765
 5818W        W10018  10.886  10.531   0.870
 5819W        W10019   5.666  10.131   9.889
 5820W        W10020   5.636   9.585   3.239
 5821W        W10021   6.603   1.244   2.395
 5822W        W10022   6.088   1.511   8.955
 5823W        W10023   0.864   4.863   8.511
 5824W        W10024   8.692   4.738   9.282
 5825W        W10025   6.195   1.637   3.008
 5826W        W10026   6.667   0.580  11.762
 5827W        W10027   4.693   1.315   0.800
 5828W        W10028   9.450   8.769  10.836
 5829W        W10029   2.657   9.046  11.177
 5830W        W10030   3.668   2.361   1.932
 5831W        W10031   0.007   8.943   2.342
 5832W        W10032   1.794   8.676   1.923
 5833W        W10033   8.947   8.450  11.031
 5834W        W10034   8.050   4.793   1.716
 5835W        W10035   7.095   6.499   1.183
 5836W        W10036   5.968   8.486   0.323
 5837W        W10037   9.903   1.864   2.493
 5838W        W10038   8.648   6.464   9.128
 5839W        W10039   6.227   3.651   3.149
 5840W        W10040   2.601   8.816   1.319
 5841W        W10041   3.666   9.937   1.342
 5842W        W10042   0.874   4.609  11.810
 5843W        W10043  11.413   3.653  11.466
 5844W        W10044  10.481   5.709  11.920
 5845W        W10045   7.495   4.079   9.812
 5846W        W10046   7.901   7.932   3.150
 5847W        W10047   1.456   9.890   9.284
 5848W        W10048  10.500   0.064   2.803
 5849W        W10049   2.235  10.664   0.879
 5850W        W10050   2.888   3.441  11.355
 5851W        W10051  11.434   1.066  11.290
 5852W        W10052   8.290   3.726   0.858
 5853W        W10053   5.277   9.764   1.179
 5854W        W10054   0.329   7.490   9.284
 5855W        W10055  10.411   4.216   1.788
 5856W        W10056   8.930   0.137   8.788
 5857W        W10057   0.373   8.361   1.480
 5858W        W10058  10.774   1.821   1.236
 5859W        W10059   1.159  10.345   2.322
 5860W        W10060  10.078   3.257  11.441
 5861W        W10061   6.414   7.820  10.897
 5862W        W10062   6.051   4.333   0.846
 5863W        W10063   6.645   1.288   0.428
 5864W        W10064   7.997   4.260  11.116
 5865W        W10065   8.730   5.813  10.566
 5866W        W10066   7.414   8.290  10.075
 5867W        W10067   8.933   8.077   9.894
 5868W        W10068   6.741  11.411   1.333
 5869W        W10069   1.632   6.173   9.526
 5870W        W10070   1.695   0.947  10.147
 5871W        W10071   1.769   2.446   3.570
 5872W        W10072   6.851   1.405   1.520
 5873W        W10073   5.226   2.155  11.847
 5874W        W10074  11.362   0.401  11.728
 5875W        W10075   2.155   9.011   1.988
 5876W        W10076   8.910   8.519   2.191
 5877W        W10077   3.912   7.039   3.251
 5878W        W10078  10.871   5.878   3.616
 5879W        W10079   2.498   7.065  10.500
 5880W        W10080  10.476   5.640   1.408
 5881W        W10081   3.195   5.622  11.531
 5882W        W10082   7.933   7.026   9.579
 5883W        W10083   6.584   0.328   3.060
 5884W        W10084   9.368   3.192   8.502
 5885W        W10085   4.717   7.041   9.020
 5886W        W10086   5.089   7.155  10.982
 5887W        W10087   8.329   4.819   2.168
 5888W        W10088  11.314   4.790   0.288
 5889W        W10089   2.364   8.653   2.864
 5890W        W10090   6.469   8.021   8.678
 5891W        W10091  11.050   2.842   1.877
 5892W        W10092   6.529   8.473   9.904
 5893W        W10093   5.559   3.277   9.805
 5894W        W10094  10.539   5.545  11.041
 5895W        W10095  10.287   0.286   1.344
 5896W        W10096   3.412  10.192   0.643
 5897W        W10097   4.919   1.154  10.516
 5898W        W10098   2.663  10.970  11.256
 5899W        W10099   7.533  10.174  11.922
 5900W        W10100   2.113   6.661   0.361
 5901W        W10101  10.374   1.060   9.692
 5902W        W10102   7.333   8.342   1.418
 5903W        W10103   2.554   8.848  10.345
 5904W        W10104   2.687   5.823   1.625
 5905W        W10105   7.507   9.558   2.797
 5906W        W10106   8.650   3.284   2.643
 5907W        W10107   6.494  11.379   2.821
 5908W        W10108   5.299   4.768   9.420
 5909W        W10109   1.679   9.750  10.100
 5910W        W10110   0.275   7.602   2.747
 5911W        W10111   2.894  10.422   1.378
 5912W        W10112  10.399   3.819   1.214
 5913W        W10113   6.213   8.179   9.088
 5914W        W10114   9.511   0.233   0.596
 5915W        W10115   6.056   7.077   1.698
 5916W        W10116   4.479  10.505  10.579
 5917W        W10117   0.376  11.026   8.969
 5918W        W10118  11.073   1.861   0.791
 5919W        W10119   3.383   9.780   0.943
 5920W        W10120   5.427   1.057  10.437
 5921W        W10121   6.558   9.529   1.642
 5922W        W10122   6.184   1.811   8.422
 5923W        W10123   0.280   8.488   8.787
 5924W        W10124   1.666   3.143  11.950
 5925W        W10125   9.025   8.535   3.262
 5926W        W10126   4.650   8.754   9.788
 5927W        W10127   9.297   2.841   8.912
 5928W        W10128   7.259  11.476   1.329
 5929W        W10129   6.303   8.823   0.024
 5930W        W10130   9.459   6.147   8.715
 5931W        W10131  10.011   4.570   1.782
 5932W        W10132   1.726   1.948   3.527
 5933W        W10133   0.996   2.249   3.647
 5934W        W10134  11.255   9.458  10.522
 5935W        W10135   2.601   1.109   8.795
 5936W        W10136  10.885   4.724   9.962
 5937W        W10137   2.129   6.808  10.759
 5938W        W10138   7.137   7.955  11.955
 5939W        W10139   1.444  10.888  10.743
 5940W        W10140   9.262   7.493  11.917
 5941W        W10141   4.238   8.462   1.834
 5942W        W10142  10.011   5.780   1.224
 5943W        W10143   4.485  10.682   2.300
 5944W        W10144  10.075   2.657  11.966
 5945W        W10145   2.774   8.521   1.993
 5946W        W10146  10.512   4.551  10.293
 5947W        W10147   7.401   9.870  10.988
 5948W        W10148   4.221  11.183   2.265
 5949W        W10149   8.235   8.586   0.823
 5950W        W10150   8.968   6.771   0.499
 5951W        W10151   6.709   1.863   9.809
 5952W        W10152   1.607   0.671   0.424
 5953W        W10153   9.169   6.730   2.651
 5954W        W10154   8.999   7.392   0.807
 5955W        W10155   7.114   5.567   9.967
 5956W        W10156   2.645   9.917   1.354
 5957W        W10157  11.319   0.675   0.159
 5958W        W10158   7.126   2.532   0.256
 5959W        W10159   5.305   5.251   1.478
 5960W        W10160   5.218   0.220  10.188
 5961W        W10161  11.003   8.890   2.297
 5962W        W10162   0.704   9.259   8.869
 5963W        W10163   7.465   1.822   2.475
 5964W        W10164  10.980   5.981   8.967
 5965W        W10165   2.663  11.477   2.795
 5966W        W10166   0.696   4.117  11.536
 5967W        W10167   8.881   5.584  11.021
 5968W        W10168  11.182   7.215  11.480
 5969W        W10169   5.790   6.987  10.065
 5970W        W10170   9.200   2.328   3.482
 5971W        W10171   1.766  11.299   2.320
 5972W        W10172   6.933   2.230  10.084
 5973W        W10173  10.423   7.534   8.863
 5974W        W10174   0.892   0.225   1.650
 5975W        W10175   8.607   8.978  11.478
 5976W        W10176   1.401   9.836   1.992
 5977W        W10177   4.273   4.333   2.813
 5978W        W10178  10.068   5.077   1.944
 5979W        W10179  10.389  11.083  11.613
 5980W        W10180  10.613   3.165   2.878
 5981W        W10181  10.970   7.672  10.793
 5982W        W10182   7.029   7.131  11.050
 5983W        W10183   9.356   9.521  11.691
 5984W        W10184  10.603   8.011   0.899
 5985W        W10185   5.052   5.233  10.957
 5986W        W10186   1.571   1.945   2.637
 5987W        W10187   1.454   4.501   1.090
 5988W        W10188   9.245   7.065  11.514
 5989W        W10189   0.182   9.454   2.605
 5990W        W10190   1.067   6.686   0.322
 5991W        W10191  11.425   1.501  11.570
 5992W        W10192   6.246   8.981   9.392
 5993W        W10193   3.804  10.846   2.279
 5994W        W10194   6.151   5.706  11.749
 5995W        W10195   5.549   1.854   2.655
 5996W        W10196   2.507   8.969   9.474
 5997W        W10197  10.030  10.959   0.432
 5998W        W10198   9.985   8.566   3.484
 5999W        W10199   7.075   7.010   3.479
 6000W        W10200   4.217  10.024  10.283
 6001W        W10201   3.314  10.339  11.303
 6002W        W10202   3.019   6.227   1.600
 6003W        W10203   2.714   0.430   3.017
 6004W        W10204   6.147  11.003  11.925
 6005W        W10205   7.993   6.106   2.009
 6006W        W10206   4.548   4.322  11.371
 6007W        W10207   5.041   0.182   0.749
 6008W        W10208   4.068   9.698  11.062
 6009W        W10209   9.970   8.571   2.968
 6010W        W10210   5.131   3.600   3.209
 6011W        W10211  10.436   1.925  10.056
 6012W        W10212   2.757   5.579   3.608
 6013W        W10213   7.669   9.857  10.514
 6014W        W10214   8.272   5.572   1.205
 6015W        W10215   3.881   0.768  11.752
 6016W        W10216   1.015   6.962   3.585
 6017W        W10217   2.311   7.939   3.273
 6018W        W10218   0.634   7.879   3.535
 6019W        W10219   7.921   1.435   9.757
 6020W        W10220   1.356   2.528   8.785
 6021W        W10221   8.258   8.065  10.553
 6022W        W10222  10.850   0.989   2.230
 6023W        W10223   0.500   1.907   0.999
 6024W        W10224   9.372   9.616   9.418
 6025W        W10225   7.932   5.181   2.270
 6026W        W10226   8.797   4.599   2.267
 6027W        W10227   5.134   3.706   0.205
 6028W        W10228   9.291   7.139   2.360
 6029W        W10229   8.377   0.461   9.433
 6030W        W10230   7.903  11.250   0.762
 6031W        W10231   1.011   7.316  10.925
 6032W        W10232   9.113   5.162   9.885
 6033W        W10233   6.522  10.260   0.317
 6034W        W10234   6.991   3.599   2.680
 6035W        W10235   6.196  11.438   1.904
 6036W        W10236   6.105   9.491   3.533
 6037W        W10237   1.464   8.882   3.618
 6038W        W10238   5.534   9.534   0.777
 6039W        W10239  11.013   3.222   9.124
 6040W        W10240   0.704   6.522   3.466
 6041W        W10241  -0.001   5.354  11.227
 6042W        W10242   2.727   4.020   2.495
 6043W        W10243   9.774   3.085   0.024
 6044W        W10244   7.097   4.450  10.845
 6045W        W10245   3.805   6.964   0.630
 6046W        W10246   7.420   6.687   2.249
 6047W        W10247  11.031  10.963   9.525
 6048W        W10248   6.988   8.644  11.551
 6049W        W10249   4.634   7.214   1.039
 6050W        W10250   1.724   0.321   2.151
 6051W        W10251   5.504   4.552   9.839
 6052W        W10252  10.408   3.046  11.086
 6053W        W10253  10.189   7.047   1.404
 6054W        W10254   2.432   8.633   9.863
 6055W        W10255   8.430   0.298  10.994
 6056W        W10256  10.969   5.393   3.498
 6057W        W10257  10.598   1.407   2.415
 6058W        W10258   9.594   8.239   0.892
 6059W        W10259   3.672   9.482  11.319
 6060W        W10260   6.586   0.336  10.560
 6061W        W10261   3.655   5.771   9.937
 6062W        W10262   6.980   1.753  11.762
 6063W        W10263   9.855   8.143  10.330
 6064W        W10264  10.376   3.989   2.566
 6065W        W10265   8.234   2.172   2.772
 6066W        W10266  10.217   2.179  11.400
 6067W        W10267   2.420  10.416   3.251
 6068W        W10268   3.816   9.801  10.077
 6069W        W10269   8.639   1.022   8.606
 6070W        W10270   2.605   4.874   1.791
 6071W        W10271   6.047   3.259   2.856
 6072W        W10272   2.685   3.390   9.437
 6073W        W10273  10.018   7.678  10.623
 6074W        W10274   6.909   5.869  10.914
 6075W        W10275   5.945  10.810   2.224
 6076W        W10276   4.490   7.668   1.267
 6077W        W10277   9.621  11.071   1.420
 6078W        W10278   5.924   5.031   2.234
 6079W        W10279   9.940   2.213   9.388
 6080W        W10280   4.555   4.468   4.056
 6081W        W10281   9.080   8.230   0.966
 6082W        W10282   6.071   8.495  10.772
 6083W        W10283  10.182  10.366   2.151
 6084W        W10284   6.271   8.493   8.661
 6085W        W10285   7.693   3.490   1.185
 6086W        W10286   1.836   1.730   2.221
 6087W        W10287   3.131  11.340   9.590
 6088W        W10288   8.963   0.688  11.780
 6089W        W10289   0.778   9.266   9.846
 6090W        W10290   9.350   4.743   0.813
 6091W        W10291   2.207   5.737   1.451
 6092W        W10292   0.769   4.310   9.089
 6093W        W10293   8.918   3.912   9.000
 6094W        W10294   0.289   9.777   0.430
 6095W        W10295   1.935   7.786   8.604
 6096W        W10296   4.851   8.935   1.035
 6097W        W10297  10.876   5.055   9.557
 6098W        W10298   7.379   9.646   9.273
 6099W        W10299   4.274   9.461   2.506
 6100W        W10300  11.083   4.307   1.023
 6101W        W10301   0.880   4.114   2.165
 6102W        W10302   5.800   6.153  10.224
 6103W        W10303   3.469   9.520   9.846
 6104W        W10304   9.936   1.715   1.536
 6105W        W10305   9.501   5.370   0.152
 6106W        W10306   2.838   5.732   0.713
 6107W        W10307   6.985   4.735  11.656
 6108W        W10308   8.769   8.577   1.712
 6109W        W10309   3.903   9.820   0.886
 6110W        W10310   9.562   3.753  11.356
 6111W        W10311   3.682   0.252  10.527
 6112W        W10312   4.622   6.994  11.063
 6113W        W10313   7.832   0.859  11.244
 6114W        W10314   8.484  11.275  10.044
 6115W        W10315   2.773  10.646   0.182
 6116W        W10316   8.974   2.825  10.607
 6117W        W10317   4.438  10.933   3.391
 6118W        W10318  10.323  10.644  11.321
 6119W        W10319   3.733   8.100   0.302
 6120W        W10320   2.840   8.192  11.488
 6121W        W10321   4.722   3.306  10.541
 6122W        W10322   1.162   8.962   9.748
 6123W        W10323  10.119   1.455  11.343
 6124W        W10324   6.241   1.363   9.468
 6125W        W10325   0.479   7.845  10.410
 6126W        W10326   3.113   8.906   0.440
 6127W        W10327   3.349   0.434   0.513
 6128W        W10328   5.201   8.160   9.416
 6129W        W10329  11.214   2.790   9.348
 6130W        W10330   9.351  10.524   2.326
 6131W        W10331   9.002  10.497   3.402
 6132W        W10332   0.344   8.854  11.374
 6133W        W10333   2.167   2.396   9.534
 6134W        W10334   8.047   0.353   1.491
 6135W        W10335   9.703  11.452   9.426
 6136W        W10336   1.700   4.814  11.540
 6137W        W10337   1.962  10.543   1.782
 6138W        W10338   8.136   8.908   0.350
 6139W        W10339   6.295   6.666   1.863
 6140W        W10340   4.208   4.628  11.762
 6141W        W10341   7.099   8.941   0.586
 6142W        W10342   4.192   2.709   3.616
 6143W        W10343   2.978   3.726   3.653
 6144W        W10344   3.727   8.847   9.221
 6145W        W10345   6.438   0.463   0.206
 6146W        W10346   6.170  11.277   2.380
 6147W        W10347   5.152   6.576   0.682
 6148W        W10348   5.181  11.050   2.714
 6149W        W10349   2.733   0.196  10.438
 6150W        W10350   7.710  10.788   2.166
 6151W        W10351   8.147  11.042   1.428
 6152W        W10352   5.454   8.038  10.758
 6153W        W10353  10.294   1.297   0.694
 6154W        W10354   5.602   8.574   3.798
 6155W        W10355   9.524   2.517   0.599
 6156W        W10356   5.185   4.472   2.852
 6157W        W10357   0.935   3.158   3.605
 6158W        W10358   2.376  11.155   0.981
 6159W        W10359   3.642   6.905  10.660
 6160W        W10360   6.609   5.625  10.102
 6161W        W10361   6.436   2.388  11.449
 6162W        W10362   1.982   8.447  10.887
 6163W        W10363   1.189   9.446   9.514
 6164W        W10364   6.305   7.184   0.433
 6165W        W10365   8.836   1.677   0.183
 6166W        W10366   9.776   2.833   2.343
 6167W        W10367   4.026   4.626   1.392
 6168W        W10368   5.483  10.061   2.968
 6169W        W10369   6.172  10.212   9.027
 6170W        W10370   7.062  10.920   9.083
 6171W        W10371   5.745   2.831   2.878
 6172W        W10372   1.161   1.675  11.751
 6173W        W10373  11.491   9.101  11.952
 6174W        W10374   7.885   5.466  11.888
 6175W        W10375   5.580   7.113  11.132
 6176W        W10376   4.297   2.050   8.797
 6177W        W10377   6.174   6.479   1.422
 6178W        W10378   3.320   9.979   2.752
 6179W        W10379   0.721   1.150   0.197
 6180W        W10380   0.280  10.062   9.019
 6181W        W10381   7.155   9.989   9.592
 6182W        W10382  10.915   6.236   2.507
 6183W        W10383   6.664  10.351   2.212
 6184W        W10384  10.842   3.426   9.622
 6185W        W10385   7.929   1.297  10.264
 6186W        W10386   9.825   4.237   9.806
 6187W        W10387   7.281   0.744   2.326
 6188W        W10388   0.881   8.010   2.518
 6189W        W10389  10.392   9.902   9.978
 6190W        W10390   3.730   6.482   0.358
 6191W        W10391   5.364   5.495   2.741
 6192W        W10392   1.855   4.099   1.343
 6193W        W10393   9.110  10.736   8.953
 6194W        W10394  10.078   1.747   9.080
 6195W        W10395  10.286   0.753   3.317
 6196W        W10396   1.338   6.596  11.348
 6197W        W10397   6.523   1.753   9.289
 6198W        W10398   9.321   0.479   8.761
 6199W        W10399   6.610  10.535   9.664
 6200W        W10400   1.791   8.534  10.417
 6201W        W10401   6.566   4.200   0.248
 6202W        W10402   0.654   4.528   3.387
 6203W        W10403   9.317   4.141  11.990
 6204W        W10404   6.701   9.449   1.163
 6205W        W10405   9.946  10.576   1.740
 6206W        W10406   2.118   7.595   0.251
 6207W        W10407   8.891   1.025   2.881
 6208W        W10408   8.540  10.363   3.168
 6209W        W10409   6.973  11.441  11.874
 6210W        W10410   3.407   9.890   1.785
 6211W        W10411   6.202   8.592   0.849
 6212W        W10412  11.205   7.918  10.353
 6213W        W10413  11.239   0.861   3.050
 6214W        W10414   7.735   0.754  10.026
 6215W        W10415   8.139   5.420   0.743
 6216W        W10416   9.069   5.686   1.125
 6217W        W10417   6.125   7.535   3.586
 6218W        W10418   8.832   1.458   0.885
 6219W        W10419   5.972  11.346  10.361
 6220W        W10420   5.961   8.086   8.628
 6221W        W10421   8.472   7.418   2.334
 6222W        W10422   4.580   0.058  11.997
 6223W        W10423  10.007   3.310   2.269
 6224W        W10424   8.715   8.407   9.576
 6225W        W10425  11.353   3.205   2.143
 6226W        W10426   0.695   1.655   0.020
 6227W        W10427   4.887   2.295   0.620
 6228W        W10428   9.326   8.326   3.641
 6229W        W10429  10.283   2.679  11.450
 6230W        W10430  10.581   8.120   9.186
 6231W        W10431   8.561   8.796   3.263
 6232W        W10432   0.931  10.298  11.848
 6233W        W10433   8.200   5.967  10.484
 6234W        W10434   2.115  10.067   3.603
 6235W        W10435   3.622   7.242   0.073
 6236W        W10436   4.744   9.931  11.448
 6237W        W10437   0.369  10.301  10.496
 6238W        W10438   9.294   0.574  10.952
 6239W        W10439   5.052   1.823   2.774
 6240W        W10440   2.000  10.228   0.746
 6241W        W10441   1.003   6.065  10.796
 6242W        W10442   4.899   7.535   3.065
 6243W        W10443   5.481   0.477   3.374
 6244W        W10444   7.933   0.489  10.878
 6245W        W10445   4.556   3.207   1.687
 6246W        W10446   2.272   6.731   1.793
 6247W        W10447   9.335   1.440   0.020
 6248W        W10448   3.782   0.325   1.903
 6249W        W10449   7.488   3.560  10.006
 6250W        W10450   4.526   7.516  11.819
 6251W        W10451   4.602   3.885  10.036
 6252W        W10452   5.750   5.675   9.541
 6253W        W10453   8.877  10.277  11.532
 6254W        W10454   5.471   1.371  11.509
 6255W        W10455   5.204   0.479   9.763
 6256W        W10456  11.458   6.892   2.656
 6257W        W10457   1.918   8.109  11.304
 6258W        W10458   5.980   5.337   0.744
 6259W        W10459  10.847   7.289  10.493
 6260W        W10460   5.682   8.064   1.550
 6261W        W10461   0.844  11.017   2.806
 6262W        W10462   0.811   6.384  11.997
 6263W        W10463   1.331  11.254   2.652
 6264W        W10464   7.280   6.902   1.434
 6265W        W10465   4.746   9.317  11.210
 6266W        W10466   8.908   9.015   2.048
 6267W        W10467   8.581   4.554   0.439
 6268W        W10468   8.892   4.237   1.678
 6269W        W10469   7.857   3.536   3.655
 6270W        W10470   5.625   8.025   0.996
 6271W        W10471   0.871   9.680  11.027
 6272W        W10472   9.901  11.461   2.152
 6273W        W10473   1.805   0.410   3.149
 6274W        W10474   9.063   6.232  11.150
 6275W        W10475   9.880  10.455  10.597
 6276W        W10476   7.830   5.621   2.579
 6277W        W10477  11.326   6.512   2.312
 6278W        W10478   0.147   2.194  10.308
 6279W        W10479   3.537   4.257  11.497
 6280W        W10480  10.498   0.392  10.484
 6281W        W10481   9.674   0.726   1.673
 6282W        W10482   3.977   3.650   1.201
 6283W        W10483   2.605   6.188   0.755
 6284W        W10484  11.083   4.707  11.825
 6285W        W10485   1.642   4.812   0.519
 6286W        W10486   4.162  10.556  11.007
 6287W        W10487   1.628   1.837   8.519
 6288W        W10488   3.679   8.354   9.423
 6289W        W10489   1.443  10.734   2.482
 6290W        W10490   4.285  10.358   9.574
 6291W        W10491   7.289   3.688   3.154
 6292W        W10492   1.200   4.556   0.632
 6293W        W10493   7.594  10.351  11.440
 6294W        W10494   8.993   9.821   9.118
 6295W        W10495   3.306   2.108   0.861
 6296W        W10496   4.210   2.010   2.205
 6297W        W10497   3.379   1.800  10.796
 6298W        W10498   1.341   8.032   2.309
 6299W        W10499   3.098   4.267   9.127
 6300W        W10500   7.145   3.047   1.922
 6301W        W10501   2.686   9.081   2.863
 6302W        W10502   7.668   3.657   9.502
 6303W        W10503  10.942  11.019   3.145
 6304W        W10504   7.723   0.393  10.404
 6305W        W10505   2.328   4.368   2.616
 6306W        W10506   8.429   2.841   9.524
 6307W        W10507   3.381   4.447   8.499
 6308W        W10508   9.171   6.762   3.990
 6309W        W10509   6.699   2.831  10.059
 6310W        W10510   7.880   1.010   8.896
 6311W        W10511   3.870   6.486  10.449
 6312W        W10512   5.701   1.866   1.104
 6313W        W10513   9.550   1.894   9.292
 6314W        W10514   8.948  11.219   9.102
 6315W        W10515   1.415   0.727   3.000
 6316W        W10516   2.694   8.680  11.539
 6317W        W10517   6.858  10.090   3.136
 6318W        W10518   6.927   1.943   8.999
 6319W        W10519   3.650   9.389  10.329
 6320W        W10520   9.437   0.509   3.409
 6321W        W10521   5.044   4.632   8.183
 6322W        W10522   9.992   2.338   0.364
 6323W        W10523   2.152   4.607   1.878
 6324W        W10524   6.766   8.384   8.476
 6325W        W10525  10.657   6.095  10.273
 6326W        W10526   7.480   1.256  10.030
 6327W        W10527   4.109   1.904   9.619
 6328W        W10528   5.944   9.174   9.033
 6329W        W10529   1.379   3.590   9.004
 6330W        W10530   9.577   6.124  11.049
 6331W        W10531   1.082   4.516   2.568
 6332W        W10532   1.741   3.925   8.899
 6333W        W10533   1.922   2.108   1.377
 6334W        W10534   3.728   3.132  10.810
 6335W        W10535   5.652   1.004   0.846
 6336W        W10536   9.415   0.811  11.385
 6337W        W10537   5.493   7.050   1.372
 6338W        W10538   3.627   9.550  11.875
 6339W        W10539  10.418   7.100   3.241
 6340W        W10540   0.158   2.392   3.278
 6341W        W10541  10.395   4.049   3.092
 6342W        W10542   9.423   3.172   3.264
 6343W        W10543   0.919   4.047   2.666
 6344W        W10544   8.190   3.849   2.934
 6345W        W10545   7.912   7.994   0.122
 6346W        W10546   0.757   4.688   0.913
 6347W        W10547   8.165   2.383   9.332
 6348W        W10548   5.608   4.730   1.990
 6349W        W10549   3.921   8.946   0.975
 6350W        W10550   8.901   6.018   1.853
 6351W        W10551   6.707   0.897   9.811
 6352W        W10552   8.806   3.451  11.990
 6353W        W10553   6.559   2.593   0.918
 6354W        W10554   6.932   6.007   1.815
 6355W        W10555   9.542   8.633   9.428
 6356W        W10556   1.313  10.788   0.389
 6357W        W10557   3.722   8.384  10.788
 6358W        W10558   0.816   1.755   9.951
 6359W        W10559   1.807   9.360   0.336
 6360W        W10560   2.341   5.219  10.004
 6361W        W10561   9.315   1.700   0.866
 6362W        W10562   9.854   0.187   2.772
 6363W        W10563   9.449  11.024   9.246
 6364W        W10564   2.000   2.713   3.181
 6365W        W10565   9.310   1.085   1.711
 6366W        W10566  10.422   5.950   9.023
 6367W        W10567   3.086   1.113   9.701
 6368W        W10568   8.455   7.508   0.412
 6369W        W10569   5.578  10.142   3.480
 6370W        W10570   9.099   1.909   3.182
 6371W        W10571   9.414   3.300   9.830
 6372W        W10572   9.323   5.730  11.271
 6373W        W10573   0.516   7.006   3.498
 6374W        W10574  10.251   3.216   3.357
 6375W        W10575   3.644   3.133   9.894
 6376W        W10576   1.391   8.116   9.260
 6377W        W10577   0.452   9.787   2.877
 6378W        W10578   1.317   0.314   3.314
 6379W        W10579   6.580   7.075   2.702
 6380W        W10580   7.353   3.572  11.880
 6381W        W10581   7.646  11.053   0.319
 6382W        W10582   4.795   8.942   2.011
 6383W        W10583   4.225   4.375   3.651
 6384W        W10584   5.466   8.471   0.242
 6385W        W10585   1.751   2.215   9.807
 6386W        W10586   8.618   5.910   2.286
 6387W        W10587   1.200   9.928  10.248
 6388W        W10588   3.041   7.415   1.173
 6389W        W10589   9.818   2.853   1.395
 6390W        W10590   6.095   0.396   1.187
 6391W        W10591   4.342  11.318   1.332
 6392W        W10592   5.957   6.259   1.858
 6393W        W10593   0.825  10.492  11.393
 6394W        W10594   7.090   2.742   1.115
 6395W        W10595   5.327   4.173   8.303
 6396W        W10596   1.394  10.968   9.023
 6397W        W10597   4.616   9.199   8.910
 6398W        W10598   1.149   9.989   0.229
 6399W        W10599   4.925   3.356   0.914
 6400W        W10600  11.151   1.633   3.493
 6401W        W10601   4.910   2.824   9.494
 6402W        W10602  10.139   7.940   9.336
 6403W        W10603   5.211  10.102  11.345
 6404W        W10604   2.751   3.859  10.503
 6405W        W10605   7.181   3.011   2.438
 6406W        W10606   2.846   6.036   0.297
 6407W        W10607   9.448   5.647   8.908
 6408W        W10608   8.438   4.098   8.762
 6409W        W10609  11.009   2.291   0.490
 6410W        W10610   5.238   2.394   9.453
 6411W        W10611   2.152   9.035  10.036
 6412W        W10612   4.074  10.405   2.451
 6413W        W10613   0.444   6.955   0.223
 6414W        W10614   9.579   5.034   1.218
 6415W        W10615   3.351  10.397   1.640
 6416W        W10616   3.383   6.657   0.694
 6417W        W10617   3.273   1.589   0.650
 6418W        W10618   4.619   8.420  11.248
 6419W        W10619   7.967   2.838   9.248
 6420W        W10620  10.382   1.811   3.199
 6421W        W10621   3.673   1.276   0.812
 6422W        W10622   1.655   9.100   9.878
 6423W        W10623   4.590   5.239  10.184
 6424W        W10624   5.144   0.434  11.268
 6425W        W10625   8.154  10.751   1.895
 6426W        W10626   2.400   9.303  10.733
 6427W        W10627  10.435   3.983  11.417
 6428W        W10628   6.145   2.837   9.391
 6429W        W10629   1.352   7.575   0.666
 6430W        W10630   4.032   2.894   8.611
 6431W        W10631  10.114   3.819   0.466
 6432W        W10632  11.330   1.376  10.294
 6433W        W10633   8.013   6.995   0.204
 6434W        W10634   1.120   9.489  11.446
 6435W        W10635  11.343   9.818   2.430
 6436W        W10636   9.605  11.123  10.728
 6437W        W10637   4.183   8.145  11.428
 6438W        W10638   9.412   6.887   1.166
 6439W        W10639   4.736   5.749   1.810
 6440W        W10640   3.143  10.967  10.351
 6441W        W10641   7.176   2.916   0.630
 6442W        W10642   6.672   0.030   9.637
 6443W        W10643   7.144  10.482   0.942
 6444W        W10644   9.616   1.247   2.170
 6445W        W10645   3.813  11.269   0.440
 6446W        W10646   6.728   7.991   4.085
 6447W        W10647   1.251   9.393   1.753
 6448W        W10648   4.203   6.619   3.134
 6449W        W10649   9.535   8.722  11.329
 6450W        W10650   1.191   5.923   0.839
 6451W        W10651  11.491   0.484   2.176
 6452W        W10652   2.917   7.982   1.836
 6453W        W10653   4.744   4.443   8.582
 6454W        W10654  10.451   3.748  10.344
 6455W        W10655   6.070   4.576   8.888
 6456W        W10656   3.401  11.483   8.687
 6457W        W10657   0.933   5.100  10.799
 6458W        W10658   0.216  10.564  10.093
 6459W        W10659   9.160  10.833  10.725
 6460W        W10660   7.590   6.073   1.036
 6461W        W10661   9.572   9.136   3.386
 6462W        W10662   7.694   2.147  11.298
 6463W        W10663   0.460   9.105  11.809
 6464W        W10664  10.361   5.461  10.131
 6465W        W10665   8.881   3.294   2.148
 6466W        W10666   0.343   8.982   2.721
 6467W        W10667   9.171   3.296  10.719
 6468W        W10668   4.806   8.499   9.367
 6469W        W10669  11.240   4.756   2.888
 6470W        W10670   7.213  11.219   2.355
 6471W        W10671   6.104   4.047   0.397
 6472W        W10672   1.859   3.695   9.806
 6473W        W10673  11.255   8.642   2.681
 6474W        W10674   1.537   8.276  11.626
 6475W        W10675   8.009  11.475   8.888
 6476W        W10676   0.701   5.280   8.788
 6477W        W10677   3.789   9.307  10.844
 6478W        W10678   2.775   6.991   9.255
 6479W        W10679   8.051   5.962  11.917
 6480W        W10680   3.900   2.372  10.295
 6481W        W10681   8.401   1.330  10.026
 6482W        W10682   0.483  11.029   2.173
 6483W        W10683   0.865   2.348  11.173
 6484W        W10684   9.624   6.106   3.365
 6485W        W10685   2.729   5.196   3.029
 6486W        W10686   1.747   8.912   0.827
 6487W        W10687   7.002  10.712  11.256
 6488W        W10688  11.059   7.222   2.609
 6489W        W10689   9.844   5.465  10.388
 6490W        W10690   1.273   3.245   3.223
 6491W        W10691   7.545   2.836   0.264
 6492W        W10692   4.390   0.508  11.091
 6493W        W10693   0.886  10.005   2.695
 6494W        W10694  10.335   0.887   0.994
 6495W        W10695   5.581   6.908   9.530
 6496W        W10696   0.219   6.623   3.682
 6497W        W10697   6.409   8.114   2.429
 6498W        W10698   5.612   3.676   2.803
 6499W        W10699   5.273   3.131  10.204
 6500W        W10700   1.338   5.829   1.319
 6501W        W10701   8.405   7.932   9.503
 6502W        W10702   5.726   0.851   8.653
 6503W        W10703   7.447   0.013  10.704
 6504W        W10704   9.021   2.027  11.870
 6505W        W10705   8.843   9.916   1.554
 6506W        W10706   4.186   8.238  10.931
 6507W        W10707  10.040   8.630  10.194
 6508W        W10708   6.417   0.457   9.729
 6509W        W10709   5.136  11.069   2.197
 6510W        W10710   2.871   6.977   0.360
 6511W        W10711   1.820   1.763   9.523
 6512W        W10712   7.904   0.196   9.340
 6513W        W10713   9.311   1.718  10.894
 6514W        W10714   4.015  11.293   1.761
 6515W        W10715   0.473   0.584   0.960
 6516W        W10716  11.388   9.511   0.269
 6517W        W10717   2.200  10.994  11.886
 6518W        W10718  10.449   0.823  10.170
 6519W        W10719   8.781   9.489   8.775
 6520W        W10720   0.025   8.118   9.527
 6521W        W10721   9.584   1.654   0.433
 6522W        W10722   5.239   4.272   0.390
 6523W        W10723   0.650   5.010   0.044
 6524W        W10724   3.484   7.815  10.361
 6525W        W10725  10.095   6.982  11.745
 6526W        W10726   4.079  11.414  11.994
 6527W        W10727   4.178   0.350   1.027
 6528W        W10728   1.748   8.097  10.128
 6529W        W10729   7.534   8.855   3.430
 6530W        W10730  10.439   9.892   2.427
 6531W        W10731   6.095   7.147   2.203
 6532W        W10732  10.338   4.691   0.946
 6533W        W10733  10.480   5.138   1.198
 6534W        W10734   7.847   9.924   3.120
 6535W        W10735  11.475   7.122   1.733
 6536W        W10736   6.157  10.344   9.881
 6537W        W10737   7.610   0.233   3.280
 6538W        W10738   2.879   6.626   0.761
 6539W        W10739   2.768  10.402  11.212
 6540W        W10740   4.212   3.587   3.306
 6541W        W10741  10.489   8.448   1.676
 6542W        W10742   0.205   0.850   9.214
 6543W        W10743   5.564   8.811  11.445
 6544W        W10744   5.982   8.309   9.923
 6545W        W10745   7.360   2.101   0.417
 6546W        W10746   3.144   1.776   3.008
 6547W        W10747   1.419   5.312   1.805
 6548W        W10748   5.979   8.643   9.056
 6549W        W10749   0.323   1.821   0.529
 6550W        W10750   0.323   4.702   2.061
 6551W        W10751   1.683   9.912   3.354
 6552W        W10752   1.265   6.664   2.160
 6553W        W10753   0.553   4.398   2.458
 6554W        W10754   5.769   0.793   1.307
 6555W        W10755   1.578   6.141   2.916
 6556W        W10756   0.419   8.096   2.686
 6557W        W10757   9.018   7.216   1.320
 6558W        W10758   1.686  10.856   3.312
 6559W        W10759   9.783   5.627   8.506
 6560W        W10760   0.624   7.638   2.267
 6561W        W10761   6.218   7.911   3.227
 6562W        W10762   4.394   5.382   0.260
 6563W        W10763   4.920   5.205   0.013
 6564W        W10764   6.589   0.356   9.230
 6565W        W10765   0.871   6.825  10.846
 6566W        W10766   6.511   9.115   1.922
 6567W        W10767   2.708   2.034   9.979
 6568W        W10768   5.028   8.407   9.845
 6569W        W10769   9.289   3.293   0.022
 6570W        W10770   8.396   7.931   3.612
 6571W        W10771   1.238   6.807   1.115
 6572W        W10772   8.917   2.132  11.383
 6573W        W10773   8.542   4.009   1.252
 6574W        W10774  10.135   5.918  10.327
 6575W        W10775   1.729   1.023   2.641
 6576W        W10776   4.214   4.338  10.924
 6577W        W10777   6.004  11.441   0.907
 6578W        W10778   1.049   6.222  11.558
 6579W        W10779   8.947   6.638  11.500
 6580W        W10780   5.471   6.194   0.819
 6581W        W10781   0.834   0.496  11.329
 6582W        W10782   2.576   0.205   1.459
 6583W        W10783   6.882   2.537   9.040
 6584W        W10784   7.822   9.355   2.020
 6585W        W10785   9.520   7.914   2.700
 6586W        W10786   5.605   5.670   1.491
 6587W        W10787   4.174   8.305   0.466
 6588W        W10788   7.713   6.916   1.002
 6589W        W10789   1.242   1.793   3.614
 6590W        W10790   6.162   6.209  10.581
 6591W        W10791   9.466   1.921   1.357
 6592W        W10792   2.313   3.131   0.874
 6593W        W10793   2.233   9.130   1.515
 6594W        W10794   7.113   3.804   0.292
 6595W        W10795   4.067   4.288   9.081
 6596W        W10796   2.806   0.674  11.863
 6597W        W10797   4.216  10.388   2.957
 6598W        W10798   9.533   4.886  11.007
 6599W        W10799   8.985   9.469  10.932
 6600W        W10800  11.417   2.142   8.595
 6601W        W10801   8.029  11.482  10.858
 6602W        W10802   8.638   1.805  10.393
 6603W        W10803   4.744   8.488   1.771
 6604W        W10804   8.624   0.208   9.805
 6605W        W10805   4.094   5.127   9.029
 6606W        W10806   3.214   7.216   9.423
 6607W        W10807   3.715   7.275  11.572
 6608W        W10808   5.535   7.142   0.827
 6609W        W10809   4.950   1.397   1.262
 6610W        W10810   9.536   7.042   3.751
 6611W        W10811   0.954   0.047   3.572
 6612W        W10812   3.801   9.539   9.414
 6613W        W10813  11.322   0.187   1.190
 6614W        W10814   0.918   8.775  10.814
 6615W        W10815   1.470  10.393   9.485
 6616W        W10816   6.218  10.403   2.510
 6617W        W10817   9.438  11.045   0.031
 6618W        W10818   0.388   2.159   9.288
 6619W        W10819   7.378   3.355   0.397
 6620W        W10820   2.424   4.587   8.805
 6621W        W10821   9.927   7.245   0.978
 6622W        W10822   0.467   3.834   9.056
 6623W        W10823   9.546   3.803   9.825
 6624W        W10824   8.609   1.297   0.444
 6625W        W10825   0.296   9.047   9.842
 6626W        W10826   8.006  10.323  11.794
 6627W        W10827   6.238   7.883  10.005
 6628W        W10828   2.772   0.950   0.792
 6629W        W10829   2.898   4.438   1.836
 6630W        W10830   6.117  10.051  10.732
 6631W        W10831  10.452   1.693   1.652
 6632W        W10832   0.385  11.253   2.763
 6633W        W10833   2.127   6.443   2.184
 6634W        W10834   5.406   4.090   3.111
 6635W        W10835   3.118   0.807   0.256
 6636W        W10836   7.603  10.647   3.558
 6637W        W10837   4.554   7.109   0.135
 6638W        W10838  10.830   6.602   1.693
 6639W        W10839   2.457  10.746   8.705
 6640W        W10840   7.031   6.903   1.935
 6641W        W10841   0.302   1.928   2.374
 6642W        W10842   2.664   7.047   0.995
 6643W        W10843   1.563   6.197   8.706
 6644W        W10844   6.064   9.266  10.106
 6645W        W10845   6.120   0.823   0.916
 6646W        W10846   6.149  10.214   0.681
 6647W        W10847   3.654   7.887  10.908
 6648W        W10848   7.432   4.653  11.913
 6649W        W10849   9.788   0.546  10.930
 6650W        W10850   7.136   7.902   0.569
 6651W        W10851   1.430   3.060   8.866
 6652W        W10852  10.809   9.028   1.842
 6653W        W10853   8.581   8.889  10.948
 6654W        W10854   9.063   8.889  11.761
 6655W        W10855   1.744   6.738   2.325
 6656W        W10856   7.462  10.879  11.444
 6657W        W10857   1.785   3.858   1.797
 6658W        W10858   1.502   5.643   8.845
 6659W        W10859   5.450   8.205   3.468
 6660W        W10860   9.415   9.597   0.523
 6661W        W10861   0.838   1.953   0.597
 6662W        W10862   4.871   3.933  11.325
 6663W        W10863  10.159   4.321   2.211
 6664W        W10864   8.529   0.935  11.692
 6665W        W10865   2.194   4.604  10.493
 6666W        W10866   1.097   9.018  10.272
 6667W        W10867   7.968   2.715   0.915
 6668W        W10868   2.237  11.499  10.424
 6669W        W10869   7.066   1.432   9.113
 6670W        W10870   1.008   8.495   1.292
 6671W        W10871   7.438   0.706  10.937
 6672W        W10872   6.490   8.606   2.615
 6673W        W10873  10.246   4.131  10.090
 6674W        W10874   1.487   1.476   8.858
 6675W        W10875   2.258  10.690  11.412
 6676W        W10876   0.982   0.023  11.461
 6677W        W10877   1.249   8.122  10.026
 6678W        W10878   2.293   4.368   3.545
 6679W        W10879   1.647   6.570   1.295
 6680W        W10880   1.376   6.690   8.811
 6681W        W10881   9.264   2.440   1.801
 6682W        W10882   8.372   4.101   9.782
 6683W        W10883   5.028   5.276   9.911
 6684W        W10884   0.255   4.081   0.356
 6685W        W10885   4.148   1.882   0.859
 6686W        W10886   7.037   4.268   9.094
 6687W        W10887   2.367   6.651   0.833
 6688W        W10888   7.013   4.084  10.477
 6689W        W10889   8.886   2.644  11.468
 6690W        W10890   8.991   2.688  10.111
 6691W        W10891  10.501   3.552   0.259
 6692W        W10892   4.031   4.022  11.855
 6693W        W10893   9.862   5.566   2.159
 6694W        W10894   7.936   7.159  11.297
 6695W        W10895   8.235   8.206   4.018
 6696W        W10896   8.707   5.513   9.384
 6697W        W10897   7.559   9.183   0.566
 6698W        W10898   8.011   6.520   3.240
 6699W        W10899   5.446   8.128   8.637
 6700W        W10900   0.078   4.224   1.130
 6701W        W10901   1.201   2.191   0.927
 6702W        W10902   9.976   9.202   1.323
 6703W        W10903   1.335   8.986   2.458
 6704W        W10904   3.697   1.880   0.643
 6705W        W10905   5.098   8.601  11.357
 6706W        W10906  10.867  10.405   0.299
 6707W        W10907   6.163   7.102   9.066
 6708W        W10908   0.924   6.122   0.431
 6709W        W10909   6.201   8.480   3.170
 6710W        W10910  11.276   0.792   9.501
 6711W        W10911   0.926   0.817   1.135
 6712W        W10912   7.507   8.087   1.864
 6713W        W10913   7.612  10.023   8.989
 6714W        W10914   5.291   8.787   4.151
 6715W        W10915  11.180   0.498   3.411
 6716W        W10916   6.055   3.552   0.490
 6717W        W10917   5.280  10.429   1.575
 6718W        W10918   8.509  11.313   8.780
 6719W        W10919   6.692   3.233  11.146
 6720W        W10920  10.884   3.766  11.567
 6721W        W10921   9.806  10.132  10.224
 6722W        W10922   0.410   5.689   9.070
 6723W        W10923   8.593   9.288   1.311
 6724W        W10924   7.579   2.582   9.550
 6725W        W10925   0.755   4.142   1.666
 6726W        W10926   8.695   3.652  11.514
 6727W        W10927   3.988   7.746   2.674
 6728W        W10928   5.764  11.358  11.298
 6729W        W10929   7.094   7.374   0.363
 6730W        W10930   7.418   1.816   9.060
 6731W        W10931   8.845   0.204   9.310
 6732W        W10932   7.381   9.237   8.947
 6733W        W10933   4.233  10.846   2.714
 6734W        W10934  11.167   2.411   0.965
 6735W        W10935   3.020   2.268   3.236
 6736W        W10936  10.968   9.278   1.421
 6737W        W10937   1.408   3.777  11.993
 6738W        W10938   1.583   1.244   8.379
 6739W        W10939   2.787   0.214   9.431
 6740W        W10940   8.433   2.731   9.032
 6741W        W10941   7.019  10.769   9.909
 6742W        W10942   2.390   2.739   2.121
 6743W        W10943   9.111   1.947   1.756
 6744W        W10944   1.588   5.707   9.730
 6745W        W10945   2.023   8.074  10.561
 6746W        W10946   1.058   6.116  10.184
 6747W        W10947  11.204   4.104   3.470
 6748W        W10948   7.495   5.687  10.294
 6749W        W10949   7.887   6.098   2.927
 6750W        W10950   7.678   4.695   8.622
 6751W        W10951   9.434   9.057   1.338
 6752W        W10952   4.054   4.560   3.207
 6753W        W10953   3.175   6.695   9.465
 6754W        W10954   7.818   1.857   0.387
 6755W        W10955   9.302   3.719   0.695
 6756W        W10956  10.548   1.670  10.503
 6757W        W10957   4.147   4.785   1.892
 6758W        W10958   8.116  11.063   2.321
 6759W        W10959   4.644   2.114   2.994
 6760W        W10960   1.771  10.670   0.623
 6761W        W10961   2.008   2.770   0.014
 6762W        W10962  10.665   9.523   1.761
 6763W        W10963  10.849   5.486   9.101
 6764W        W10964   9.847   5.619   2.673
 6765W        W10965   2.820   4.665   8.046
 6766W        W10966  10.086   5.254   9.704
 6767W        W10967   4.337   7.314  10.081
 6768W        W10968   4.226   3.821   1.624
 6769W        W10969   7.945   2.689   1.938
 6770W        W10970   6.167   4.557   2.207
 6771W        W10971   2.886   4.881  10.386
 6772W        W10972   0.679   6.143   9.820
 6773W        W10973   5.217   8.185   0.672
 6774W        W10974   5.181   9.626   9.501
 6775W        W10975   3.774   4.149   9.678
 6776W        W10976  11.044   9.792  10.885
 6777W        W10977   7.081   6.844   2.899
 6778W        W10978   3.354   7.436   2.134
 6779W        W10979   3.743   5.736   0.969
 6780W        W10980   8.725   5.944   0.300
 6781W        W10981   0.275  10.309   0.503
 6782W        W10982   0.133   6.178  11.645
 6783W        W10983   1.662   7.567   9.502
 6784W        W10984   5.110   8.435  10.875
 6785W        W10985   7.517   5.723   0.678
 6786W        W10986  10.819   8.133  10.629
 6787W        W10987   5.652   2.903   0.938
 6788W        W10988  10.661   4.346   2.263
 6789W        W10989  11.053   1.374  11.158
 6790W        W10990   3.708   7.415  10.596
 6791W        W10991   1.319   1.958  10.764
 6792W        W10992   6.755  11.190  11.264
 6793W        W10993   4.126   1.220   9.941
 6794W        W10994   5.815   2.534   0.482
 6795W        W10995   0.016   0.349   2.692
 6796W        W10996   4.324  10.491   1.473
 6797W        W10997   6.972   7.580  10.318
 6798W        W10998   5.744   5.752   2.994
 6799W        W10999   6.801   1.650  10.360
 6800W        W11000   8.820  11.012  10.375
 6801W        W11001   8.439   9.050   0.892
 6802W        W11002  10.950   3.163   2.500
 6803W        W11003   1.835   3.151  11.453
 6804W        W11004   6.236  11.466   9.345
 6805W        W11005   0.886   5.454   0.242
 6806W        W11006   9.959   7.948  11.450
 6807W        W11007   9.644   5.612   3.156
 6808W        W11008   5.571   7.660  11.921
 6809W        W11009   5.151   9.660   2.890
 6810W        W11010   5.242   0.612   8.703
 6811W        W11011   4.102   8.967   9.587
 6812W        W11012   5.187   9.937   0.294
 6813W        W11013  10.790   6.153   1.477
 6814W        W11014   9.633   3.935   0.368
 6815W        W11015   9.895   5.787   1.712
 6816W        W11016   9.111   4.690   1.848
 6817W        W11017   5.394   3.276   3.531
 6818W        W11018   4.110   5.475   1.266
 6819W        W11019   1.765   2.709   9.059
 6820W        W11020   7.845   1.293   0.798
 6821W        W11021  11.089   0.240   2.412
 6822W        W11022   0.360  10.477   1.927
 6823W        W11023   2.094   8.925  10.541
 6824W        W11024   9.960   9.152  10.111
 6825W        W11025   0.875   8.214   3.010
 6826W        W11026   2.392   4.794   2.327
 6827W        W11027   6.952   5.342  11.035
 6828W        W11028   5.784   8.143   3.096
 6829W        W11029   1.836   4.327   2.740
 6830W        W11030   9.844   8.986  10.574
 6831W        W11031  10.909   2.310   1.404
 6832W        W11032   8.839   0.656  11.203
 6833W        W11033   2.228   6.206   8.901
 6834W        W11034   0.678   0.945   0.662
 6835W        W11035  10.039   3.248  10.299
 6836W        W11036   8.015   2.694   1.429
 6837W        W11037   0.135   9.321  11.329
 6838W        W11038   5.131   9.198   8.096
 6839W        W11039   6.200   2.822  10.796
 6840W        W11040   8.392   2.234  10.252
 6841W        W11041   8.435  11.481  11.937
 6842W        W11042   6.655  10.284   1.696
 6843W        W11043   6.479   7.619   9.556
 6844W        W11044   8.479   2.880   1.016
 6845W        W11045   7.442   1.423   2.781
 6846W        W11046   9.651   5.794  11.768
 6847W        W11047   3.168   3.830   1.574
 6848W        W11048   4.536   9.834  11.919
 6849W        W11049   2.281   4.402   1.318
 6850W        W11050   8.870   7.147  10.739
 6851W        W11051   5.377   1.433   9.709
 6852W        W11052   4.264   0.710   9.915
 6853W        W11053   6.074   0.887   2.896
 6854W        W11054   1.873   8.541   2.770
 6855W        W11055   7.038   1.329   3.109
 6856W        W11056   8.460   2.111   2.215
 6857W        W11057   7.254   6.701  10.834
 6858W        W11058  11.341  10.331   9.026
 6859W        W11059   4.385   2.330   0.719
 6860W        W11060   8.839   6.013   9.317
 6861W        W11061   1.432   3.644   9.504
 6862W        W11062  11.254   5.727   8.530
 6863W        W11063   7.454  10.010   0.905
 6864W        W11064  11.455   1.760   9.581
 6865W        W11065   1.664   5.633   2.143
 6866W        W11066   0.990   8.980   3.447
 6867W        W11067  11.341   1.254   9.298
 6868W        W11068  10.867   7.588  11.285
 6869W        W11069   0.695   5.719   9.504
 6870W        W11070   4.468   6.108  11.708
 6871W        W11071   9.318   1.184   0.886
 6872W        W11072   1.491   8.379  10.997
 6873W        W11073   1.295   1.200   3.157
 6874W        W11074   9.961  10.981   8.527
 6875W        W11075   0.765   7.499   8.974
 6876W        W11076   9.004   3.893   2.973
 6877W        W11077  10.464   3.548  11.752
 6878W        W11078   7.149   4.645   0.445
 6879W        W11079  10.848   6.649   2.184
 6880W        W11080   1.367  11.146   3.585
 6881W        W11081   8.401   4.917   1.345
 6882W        W11082   8.710   3.803   9.504
 6883W        W11083   1.852   1.784   9.011
 6884W        W11084   8.082  10.965   8.838
 6885W        W11085   7.875   9.581   9.178
 6886W        W11086   5.923   6.077   0.595
 6887W        W11087   9.366  10.160  10.478
 6888W        W11088   0.849   7.399   3.357
 6889W        W11089   2.815   8.861   9.097
 6890W        W11090   9.543   8.198  11.268
 6891W        W11091   1.208   7.596   1.535
 6892W        W11092   1.270   3.347  11.140
 6893W        W11093   6.136   8.703   1.351
 6894W        W11094   1.458  11.348   3.135
 6895W        W11095   8.711   0.497  10.318
 6896W        W11096  10.497   2.137   0.428
 6897W        W11097   9.460   5.909   1.490
 6898W        W11098  10.912   6.679  11.582
 6899W        W11099   1.726   3.181   9.378
 6900W        W11100   5.905  10.834  10.904
 6901W        W11101   2.164  10.313   2.211
 6902W        W11102   2.284   2.727  10.358
 6903W        W11103   8.504   9.799  10.821
 6904W        W11104   6.400   1.515  10.010
 6905W        W11105  11.442   0.886   1.645
 6906W        W11106   0.412   2.252  11.365
 6907W        W11107   8.143   1.270  11.134
 6908W        W11108   9.630   6.033   2.867
 6909W        W11109   7.034   2.781   3.606
 6910W        W11110   9.631   1.888  10.348
 6911W        W11111   1.881   7.089   0.506
 6912W        W11112   5.134   2.771   3.638
 6913W        W11113   4.862   6.148   9.761
 6914W        W11114   8.027   3.874   2.452
 6915W        W11115   4.648   1.149   9.901
 6916W        W11116   8.396   2.799  11.533
 6917W        W11117   2.773   5.781  11.228
 6918W        W11118   8.432   0.039   1.616
 6919W        W11119   3.818  11.397   1.299
 6920W        W11120  11.381  10.600   0.227
 6921W        W11121   5.822   0.694   0.469
 6922W        W11122   1.776   4.320  10.443
 6923W        W11123   5.097   4.786  10.714
 6924W        W11124  10.589   1.739   0.735
 6925W        W11125   3.578  11.207   0.875
 6926W        W11126   0.103   4.668  10.502
 6927W        W11127   6.223   9.638   1.255
 6928W        W11128  11.430   7.740   9.065
 6929W        W11129   4.544   6.494  10.965
 6930W        W11130   5.265  10.332   2.098
 6931W        W11131   1.499   7.571   2.567
 6932W        W11132   5.969   7.745   1.280
 6933W        W11133   7.338   5.875   0.232
 6934W        W11134   0.192   7.263   2.366
 6935W        W11135   6.096   7.050  11.086
 6936W        W11136   9.563   0.958  10.134
 6937W        W11137   9.919   9.671  10.061
 6938W        W11138   0.941   3.874   8.832
 6939W        W11139   0.745  10.765   9.319
 6940W        W11140   8.650   7.912   2.642
 6941W        W11141  11.175   9.655  11.359
 6942W        W11142   3.355   3.796  11.324
 6943W        W11143  10.422   2.639   0.344
 6944W        W11144   5.689   7.070   2.932
 6945W        W11145   7.259   2.280   2.374
 6946W        W11146   2.495   5.021   7.898
 6947W        W11147  10.013   2.349   2.401
 6948W        W11148   9.597   5.151   2.187
 6949W        W11149   5.252  11.007   1.286
 6950W        W11150   4.408   2.537   8.818
 6951W        W11151  11.483   4.410  11.994
 6952W        W11152   9.027   3.346   0.479
 6953W        W11153   7.547  10.813  10.085
 6954W        W11154   8.892   4.279   9.372
 6955W        W11155  10.292   3.200   1.868
 6956W        W11156   7.428   6.514   0.774
 6957W        W11157  11.037   5.796   1.224
 6958W        W11158   3.234   5.220  10.522
 6959W        W11159  10.715   5.515   2.683
 6960W        W11160  11.413   9.330   8.594
 6961W        W11161   5.207   4.200   0.903
 6962W        W11162   8.999   7.048   8.591
 6963W        W11163   7.437   4.793   0.843
 6964W        W11164   3.145   1.868  11.258
 6965W        W11165  11.042   5.180   2.485
 6966W        W11166   3.649   4.677   1.751
 6967W        W11167   0.735   2.373   0.944
 6968W        W11168   2.698   6.612   1.271
 6969W        W11169   2.282   3.524   3.055
 6970W        W11170   5.713   1.062   9.976
 6971W        W11171   9.566   8.151   2.242
 6972W        W11172   8.076   1.660  11.479
 6973W        W11173  10.424   8.408   9.913
 6974W        W11174   0.359   7.460   9.826
 6975W        W11175   7.229   8.465  10.550
 6976W        W11176  11.474   9.276   1.603
 6977W        W11177  10.501  11.436   8.940
 6978W        W11178   5.136   1.661  11.978
 6979W        W11179  10.848   2.486   3.306
 6980W        W11180   7.864  10.750   9.635
 6981W        W11181   7.428   5.323  11.258
 6982W        W11182   1.707   9.983  11.075
 6983W        W11183  10.484   3.614   2.189
 6984W        W11184  11.232   6.057   9.546
 6985W        W11185   4.205   4.072   2.166
 6986W        W11186   8.234   5.174   8.673
 6987W        W11187   3.259   5.814  11.046
 6988W        W11188   6.030  10.999   9.098
 6989W        W11189   7.342   6.249  11.510
 6990W        W11190   3.220   5.612   1.039
 6991W        W11191   0.690   1.838   1.484
 6992W        W11192   7.460   4.576   9.082
 6993W        W11193   1.147   0.780   3.483
 6994W        W11194   6.923   8.368   2.457
 6995W        W11195   5.622   9.141   9.857
 6996W        W11196   3.022   2.869  11.451
 6997W        W11197   8.629   8.325   8.645
 6998W        W11198   6.027   3.307  10.739
 6999W        W11199  11.478   9.839   9.763
 7000W        W11200   8.477   3.683   9.067
 7001W        W11201   2.335   0.768  11.354
 7002W        W11202   0.300  11.328  11.316
 7003W        W11203   5.350   2.640  10.315
 7004W        W11204   7.988   8.417   0.391
 7005W        W11205   8.854   8.087   3.425
 7006W        W11206   0.004   5.125  10.773
 7007W        W11207   0.509   7.044   9.512
 7008W        W11208   0.854   6.196   9.318
 7009W        W11209   9.350   2.221  10.621
 7010W        W11210   8.630  10.546   0.022
 7011W        W11211   4.178   5.680  10.786
 7012W        W11212   4.862   1.165   0.259
 7013W        W11213  10.921   8.433   3.478
 7014W        W11214   1.522   9.001   9.397
 7015W        W11215   6.109   4.447  10.460
 7016W        W11216  10.433  10.003   8.958
 7017W        W11217  10.431   9.966   1.395
 7018W        W11218   0.396   3.162  11.222
 7019W        W11219   7.614   0.900   1.153
 7020W        W11220   3.404   2.145   2.744
 7021W        W11221   0.605   1.821  10.448
 7022W        W11222   4.722   4.219   3.626
 7023W        W11223   3.092  11.438  11.877
 7024W        W11224   1.156   6.245   2.598
 7025W        W11225   4.711   6.707   8.634
 7026W        W11226   2.577   8.406   2.468
 7027W        W11227   2.355   5.510   9.576
 7028W        W11228   1.361   4.148   1.468
 7029W        W11229  11.453   4.821   8.741
 7030W        W11230   2.406   3.578   0.232
 7031W        W11231   7.066   3.781  10.875
 7032W        W11232   2.616   7.506   1.640
 7033W        W11233   4.604   2.263   1.620
 7034W        W11234   3.671   9.038   1.506
 7035W        W11235   3.937   8.536   9.827
 7036W        W11236  11.455   6.510   1.282
 7037W        W11237   6.964   0.254   1.667
 7038W        W11238   7.233   3.659   1.311
 7039W        W11239  11.062   1.768  10.503
 7040W        W11240   9.689   0.461  10.284
 7041W        W11241   5.462   4.822   3.299
 7042W        W11242   5.705   0.430   2.843
 7043W        W11243   4.124   7.786   0.390
 7044W        W11244   7.955   0.289   2.891
 7045W        W11245   9.368   8.697   0.928
 7046W        W11246   6.019   9.538   2.461
 7047W        W11247   9.246   7.198  10.371
 7048W        W11248   4.553  10.418   3.346
 7049W        W11249   3.078   1.256   2.380
 7050W        W11250  10.919   9.796   1.405
 7051W        W11251   8.462   7.453   3.413
 7052W        W11252  10.705   2.218   0.925
 7053W        W11253   8.117   1.427   0.374
 7054W        W11254   8.549  10.810   2.269
 7055W        W11255   0.219   9.432   3.140
 7056W        W11256   8.865   3.266   1.625
 7057W        W11257   5.975   2.469   1.635
 7058W        W11258   4.291   1.939  11.057
 7059W        W11259   6.715   6.617   0.225
 7060W        W11260   1.430   0.703   3.903
 7061W        W11261   2.532   5.302   0.755
 7062W        W11262   3.909   4.033   3.341
 7063W        W11263   3.817   3.563  10.485
 7064W        W11264   5.271  10.472   9.815
 7065W        W11265   0.699   9.998  11.399
 7066W        W11266   8.994  10.660  11.199
 7067W        W11267   7.943   7.500  11.695
 7068W        W11268   8.226   8.353  11.917
 7069W        W11269  10.863   1.957   3.193
 7070W        W11270  11.458   7.074  10.867
 7071W        W11271   4.297   8.916  11.865
 7072W        W11272   4.982  11.265  10.114
 7073W        W11273   5.217   0.440  10.747
 7074W        W11274   3.698   5.474   9.389
 7075W        W11275   6.870   8.149   1.525
 7076W        W11276   2.943   8.053   3.372
 7077W        W11277   1.830   9.865   2.291
 7078W        W11278   2.930   6.016   1.150
 7079W        W11279   1.877   1.337   1.841
 7080W        W11280   6.059   9.057  10.605
 7081W        W11281   6.072   1.774  11.990
 7082W        W11282   7.596   3.804   2.175
 7083W        W11283   7.570   2.646  10.057
 7084W        W11284   2.004   4.179   2.228
 7085W        W11285  11.020   3.297  11.428
 7086W        W11286  10.739  11.437  10.341
 7087W        W11287   2.600   6.522   0.344
 7088W        W11288  10.526   7.702  10.571
 7089W        W11289   2.282   3.618   0.729
 7090W        W11290   5.934   3.753   8.454
 7091W        W11291   5.276   2.132   0.914
 7092W        W11292   6.926   9.506   9.037
 7093W        W11293  10.587   3.712   9.275
 7094W        W11294   3.411   6.122   2.398
 7095W        W11295   7.229   6.386   0.266
 7096W        W11296   2.897   6.407  10.408
 7097W        W11297   2.668   6.555   3.181
 7098W        W11298   6.750   3.647   3.133
 7099W        W11299   5.143   4.169  10.028
 7100W        W11300   9.605   0.917  10.649
 7101W        W11301   9.023  10.337  10.817
 7102W        W11302   0.983   4.141   0.005
 7103W        W11303   8.025   6.083   3.507
 7104W        W11304   9.275   6.975   9.204
 7105W        W11305   9.465   0.535   2.581
 7106W        W11306   4.980   8.838   9.034
 7107W        W11307   3.273   0.914   0.733
 7108W        W11308   6.700   6.161  10.498
 7109W        W11309   5.726   9.429   1.223
 7110W        W11310   3.803  10.281  11.371
 7111W        W11311   2.555   0.442   2.534
 7112W        W11312   9.514  11.315  11.196
 7113W        W11313   9.573   5.085   3.174
 7114W        W11314   7.593   7.322   1.366
 7115W        W11315   6.578   9.008   1.413
 7116W        W11316   1.357   9.909   2.492
 7117W        W11317  11.363   9.055   9.571
 7118W        W11318   6.577   1.590   0.013
 7119W        W11319   0.349   9.960   2.396
 7120W        W11320   3.332   8.090  11.614
 7121W        W11321   2.755   5.534   9.191
 7122W        W11322  10.121   3.292   0.511
 7123W        W11323   3.519   4.829   3.124
 7124W        W11324   7.880   2.209   0.765
 7125W        W11325   2.232  11.496   8.860
 7126W        W11326   1.147   4.510   9.448
 7127W        W11327   1.861   1.303   9.794
 7128W        W11328   8.208   6.208  10.000
 7129W        W11329   4.126   8.693   1.389
 7130W        W11330   1.508   4.718   9.797
 7131W        W11331   6.111   4.113   9.635
 7132W        W11332   7.207   5.154   0.576
 7133W        W11333   9.909   7.292   3.309
 7134W        W11334   3.052   8.087   0.806
 7135W        W11335   8.483   8.488  11.270
 7136W        W11336   3.670   6.268   0.836
 7137W        W11337   8.374   6.986   2.833
 7138W        W11338  10.815   8.425   2.376
 7139W        W11339   0.479   7.898   1.667
 7140W        W11340  10.262   1.308  11.817
 7141W        W11341   5.286   2.822  11.096
 7142W        W11342  11.435   3.136   1.643
 7143W        W11343   7.615   7.392   9.160
 7144W        W11344   7.599  10.891   9.077
 7145W        W11345   4.648   1.873   1.953
 7146W        W11346   2.378  10.740  10.029
 7147W        W11347   2.878   6.233  11.440
 7148W        W11348  11.335   3.760  10.849
 7149W        W11349   8.495   2.557   3.038
 7150W        W11350   8.628   8.741   1.252
 7151W        W11351   5.631   8.588   2.824
 7152W        W11352   1.776   0.343  11.972
 7153W        W11353   2.358   7.430   2.296
 7154W        W11354   2.224   8.875  11.526
 7155W        W11355   5.673   7.049  10.595
 7156W        W11356   0.983   1.349  10.946
 7157W        W11357   0.291   8.956   3.304
 7158W        W11358   1.294   9.941   9.758
 7159W        W11359   2.187   9.885   0.314
 7160W        W11360  10.548   7.938   9.684
 7161W        W11361   2.644   2.644  10.764
 7162W        W11362   6.117   6.187   8.707
 7163W        W11363   0.044   2.354   2.320
 7164W        W11364  11.348   4.646   1.334
 7165W        W11365   9.894  11.293   8.980
 7166W        W11366   6.200   9.830   0.320
 7167W        W11367   6.080   6.991   9.575
 7168W        W11368   4.655   4.924   2.295
 7169W        W11369   7.969  11.159   9.311
 7170W        W11370   8.965   1.540  11.694
 7171W        W11371   5.248  10.560   2.870
 7172W        W11372   3.859   5.080   0.529
 7173W        W11373   3.028   0.043   3.233
 7174W        W11374   6.942   8.872   1.767
 7175W        W11375  10.435   2.898  10.253
 7176W        W11376   4.452   7.985  10.550
 7177W        W11377  10.958  10.753   8.670
 7178W        W11378   9.481   3.793   2.162
 7179W        W11379   0.108   3.297   3.163
 7180W        W11380   0.443   6.189   1.295
 7181W        W11381   4.317  10.933   9.792
 7182W        W11382   2.855   1.174  11.925
 7183W        W11383   7.349   9.918   3.214
 7184W        W11384   5.252   7.842   9.023
 7185W        W11385   6.719   8.581  10.564
 7186W        W11386   9.049  10.896   3.051
 7187W        W11387   2.220   9.482   3.367
 7188W        W11388  10.051   4.855   1.362
 7189W        W11389  10.464   8.044   2.459
 7190W        W11390   6.072   4.658  11.356
 7191W        W11391   6.545   9.998   9.831
 7192W        W11392   4.691   6.712   0.913
 7193W        W11393   3.103   1.816   3.502
 7194W        W11394   1.656   1.783  11.097
 7195W        W11395   3.714  10.304   2.986
 7196W        W11396   1.304   7.422  11.753
 7197W        W11397   3.917   6.064   2.334
 7198W        W11398   8.485   2.772   0.028
 7199W        W11399   9.039   9.416  10.405
 7200W        W11400   8.505   8.557   0.301
 7201W        W11401   0.265   8.536   9.305
 7202W        W11402   0.823   3.235   0.498
 7203W        W11403   9.090   2.645   9.602
 7204W        W11404   9.373   0.216   2.978
 7205W        W11405   6.498   9.460   9.874
 7206W        W11406   9.315   1.014   3.465
 7207W        W11407   7.016   8.458   0.423
 7208W        W11408   5.601   9.490   2.739
 7209W        W11409  11.354   8.138   3.595
 7210W        W11410   1.458   5.688  10.706
 7211W        W11411   6.996  11.497   2.726
 7212W        W11412   0.434  10.769   2.624
 7213W        W11413   8.712   2.311   3.412
 7214W        W11414  11.396   7.969  10.838
 7215W        W11415   9.150  11.176   1.185
 7216W        W11416   5.242   3.317   8.316
 7217W        W11417  10.396   4.516   9.802
 7218W        W11418   4.652   6.705   3.403
 7219W        W11419   8.510   7.280   0.881
 7220W        W11420   5.673   4.835   1.469
 7221W        W11421   2.820   2.109   1.402
 7222W        W11422   9.552   9.364   9.851
 7223W        W11423   3.282   0.454  11.916
 7224W        W11424   9.400   3.230   0.809
 7225W        W11425   7.793   3.125  10.090
 7226W        W11426   6.975   7.976   1.062
 7227W        W11427   9.458   0.727   0.728
 7228W        W11428   5.703  10.588   8.979
 7229W        W11429  10.735   4.158   1.396
 7230W        W11430   9.925   6.218   0.953
 7231W        W11431   5.329   4.917   1.097
 7232W        W11432   1.347   1.219  11.547
 7233W        W11433   9.815  10.351   2.507
 7234W        W11434   3.671   6.532  11.466
 7235W        W11435  10.156   4.286   1.346
 7236W        W11436   3.154   0.012   2.715
 7237W        W11437   0.674   9.435   9.363
 7238W        W11438   2.121  11.448  10.943
 7239W        W11439  10.420   1.367  10.095
 7240W        W11440   5.211   8.389  10.336
 7241W        W11441   6.179  10.846  10.078
 7242W        W11442   7.630  10.436   9.309
 7243W        W11443   0.464   9.084   1.714
 7244W        W11444  10.399   1.847   2.676
 7245W        W11445   8.531   2.049   8.474
 7246W        W11446   4.741   0.527  11.974
 7247W        W11447  10.285   9.481   2.118
 7248W        W11448   4.822   0.927   1.126
 7249W        W11449   8.465   3.222   0.287
 7250W        W11450   8.333   7.982   2.239
 7251W        W11451   0.671   8.603   3.274
 7252W        W11452   3.830   8.602   4.031
 7253W        W11453   5.922   4.987   3.104
 7254W        W11454   2.341   2.123   2.859
 7255W        W11455   5.273  10.829   0.138
 7256W        W11456  10.421   6.944   9.935
 7257W        W11457   3.223   6.523  11.723
 7258W        W11458   3.603   7.002   1.936
 7259W        W11459   6.458   5.248   0.924
 7260W        W11460   4.651   7.603   9.801
 7261W        W11461   2.021   2.737   0.876
 7262W        W11462   1.711   9.132   1.670
 7263W        W11463   5.140   4.321  10.989
 7264W        W11464   6.359   7.074   3.534
 7265W        W11465   0.489   7.170  10.806
 7266W        W11466   5.675   2.065   0.606
 7267W        W11467   5.485   8.953   9.028
 7268W        W11468   8.628   0.804   0.329
 7269W        W11469   0.847   6.759   0.815
 7270W        W11470   1.304   7.025   0.637
 7271W        W11471   9.686   8.145   9.460
 7272W        W11472   0.119   3.076   1.169
 7273W        W11473   2.761   1.648   2.235
 7274W        W11474   8.504   5.616   8.496
 7275W        W11475   8.581   8.448  10.670
 7276W        W11476   0.619   7.190   0.985
 7277W        W11477   2.119   9.735   9.808
 7278W        W11478   7.768   6.358  11.000
 7279W        W11479   5.139   0.035   1.249
 7280W        W11480   2.379   6.066   2.396
 7281W        W11481  10.012   9.476   2.986
 7282W        W11482   5.585   7.055   1.921
 7283W        W11483   3.613   6.920   9.333
 7284W        W11484   7.084   0.271   3.182
 7285W        W11485   4.749   2.238   9.041
 7286W        W11486   2.310   3.850   1.276
 7287W        W11487  10.964   3.778   1.023
 7288W        W11488   0.418   5.061   0.504
 7289W        W11489   4.099  10.653  11.505
 7290W        W11490   0.837   1.005  11.309
 7291W        W11491   6.350   2.580   8.179
 7292W        W11492   3.676   7.504   1.751
 7293W        W11493   0.914   5.206  11.327
 7294W        W11494   3.127  10.958   0.431
 7295W        W11495   4.340   4.974   0.579
 7296W        W11496   1.534  10.964   9.906
 7297W        W11497   3.918   2.815  11.596
 7298W        W11498   5.332   4.016  10.498
 7299W        W11499   6.675   4.714   2.154
 7300W        W11500   6.576   7.664   2.742
 7301W        W11501   9.009   6.672   9.943
 7302W        W11502   8.127  11.253  11.355
 7303W        W11503   7.581   3.231   3.319
 7304W        W11504   9.374   1.813   8.804
 7305W        W11505   3.056   0.935  10.609
 7306W        W11506   1.746   5.248   1.401
 7307W        W11507   8.773   5.353  11.614
 7308W        W11508   6.207   1.933   9.792
 7309W        W11509   2.893   7.869   9.010
 7310W        W11510   9.529   2.209   2.695
 7311W        W11511   8.560   6.378   8.173
 7312W        W11512   7.896   4.837   9.062
 7313W        W11513   4.727   8.479   2.302
 7314W        W11514   9.503   3.710   3.417
 7315W        W11515   0.370  10.081   9.995
 7316W        W11516   4.778   1.194   3.735
 7317W        W11517   6.411   2.896   2.761
 7318W        W11518   1.977   3.411   2.659
 7319W        W11519   1.447   7.966   1.799
 7320W        W11520   3.117   6.514   0.260
 7321W        W11521   4.247   0.563   1.949
 7322W        W11522   7.016   2.398   0.747
 7323W        W11523   1.695   8.423   0.575
 7324W        W11524   0.026   2.061   0.898
 7325W        W11525   5.575   2.737   3.888
 7326W        W11526   6.534   3.370  11.619
 7327W        W11527   5.593   4.613   8.259
 7328W        W11528   7.445   8.863   0.945
 7329W        W11529   0.429   9.628  11.938
 7330W        W11530   5.738   1.397   9.323
 7331W        W11531   5.559   2.359   9.861
 7332W        W11532   0.809   5.531  11.715
 7333W        W11533   3.605  10.873   0.206
 7334W        W11534   5.282   9.826  10.398
 7335W        W11535   8.859   9.350  11.919
 7336W        W11536  10.824   3.675   8.821
 7337W        W11537   4.265   7.703   2.265
 7338W        W11538   9.581   6.438   2.570
 7339W        W11539   4.468   8.451  11.732
 7340W        W11540   4.127   5.538   0.690
 7341W        W11541  11.355   8.974   0.991
 7342W        W11542   3.024   9.707   8.414
 7343W        W11543   4.207   1.845   3.200
 7344W        W11544  11.473   1.864   3.153
 7345W        W11545   0.490   3.635   0.475
 7346W        W11546   8.949   3.740   1.447
 7347W        W11547   0.883  10.514  10.540
 7348W        W11548   7.675   1.922  10.635
 7349W        W11549   3.115  11.020   0.951
 7350W        W11550   0.686   4.091   3.658
 7351W        W11551   1.712  11.335   9.584
 7352W        W11552   1.081   1.266   0.854
 7353W        W11553   4.452   4.654   8.942
 7354W        W11554   3.663   3.186   0.396
 7355W        W11555   8.170   7.530   9.717
 7356W        W11556   2.227  10.254  11.036
 7357W        W11557   1.916   3.776   0.250
 7358W        W11558  10.865   3.596  10.659
 7359W        W11559   3.503  10.759   3.257
 7360W        W11560   9.418   1.840   2.256
 7361W        W11561   3.286   0.632  10.029
 7362W        W11562  11.496  11.347   1.509
 7363W        W11563   2.284   2.746   0.442
 7364W        W11564  11.347   8.876  10.069
 7365W        W11565   4.747   5.960   4.062
 7366W        W11566   6.380  10.907  11.079
 7367W        W11567   6.638   5.717  11.510
 7368W        W11568   7.874   2.206   9.733
 7369W        W11569  11.104   3.694   9.261
 7370W        W11570  10.832   4.957   0.354
 7371W        W11571   2.364   9.305  11.761
 7372W        W11572   1.715   5.247   8.491
 7373W        W11573   0.941   9.511   2.899
 7374W        W11574   1.865   7.895   1.519
 7375W        W11575   1.813   5.693   1.134
 7376W        W11576   1.866   7.542   0.738
 7377W        W11577   3.830   3.566   2.661
 7378W        W11578   6.122   9.489   1.944
 7379W        W11579   7.646   4.555   3.749
 7380W        W11580   1.269   6.669   1.630
 7381W        W11581   9.856  10.491   0.299
 7382W        W11582   1.821   4.590   1.441
 7383W        W11583   1.630   5.664  11.189
 7384W        W11584   9.365  10.329   9.977
 7385W        W11585   2.732   5.548   1.196
 7386W        W11586   5.649   7.548   2.671
 7387W        W11587   0.977   4.203  10.564
 7388W        W11588   9.523   4.410   1.798
 7389W        W11589   2.651  10.265   9.571
 7390W        W11590   5.336   4.248   1.966
 7391W        W11591   0.450   1.735   1.940
 7392W        W11592   3.704   1.734   2.549
 7393W        W11593   0.860   0.760   1.679
 7394W        W11594   2.318   7.030   8.542
 7395W        W11595   8.361   5.259  11.951
 7396W        W11596  10.397   2.096   9.579
 7397W        W11597   1.179   5.812   2.906
 7398W        W11598   6.046   2.588   2.101
 7399W        W11599   3.557   5.174   8.992
 7400W        W11600   8.022   5.695   3.843
 7401W        W11601   2.395   6.087   3.337
 7402W        W11602  11.031   8.276   0.799
 7403W        W11603   4.428   0.349   3.248
 7404W        W11604   9.228   0.484   1.590
 7405W        W11605   5.605   4.043  10.963
 7406W        W11606   9.603   7.396   2.680
 7407W        W11607   0.047  10.252   9.485
 7408W        W11608   5.959  10.274   0.198
 7409W        W11609   2.810   9.960   2.607
 7410W        W11610   1.838   7.248   2.319
 7411W        W11611   1.430   8.642  10.062
 7412W        W11612   9.017   5.118   9.397
 7413W        W11613   4.066  10.769   9.372
 7414W        W11614   6.394   7.991   1.533
 7415W        W11615  10.375   4.696   0.383
 7416W        W11616   7.315   5.744   2.392
 7417W        W11617   3.272   8.212  10.605
 7418W        W11618   2.729   0.929   3.129
 7419W        W11619  10.511   9.381   3.141
 7420W        W11620   6.650   3.752  10.332
 7421W        W11621   3.228   6.954   8.980
 7422W        W11622   8.368   0.281   8.417
 7423W        W11623   3.753   2.777   0.668
 7424W        W11624   2.512  11.405   3.287
 7425W        W11625  11.139   7.934   9.838
 7426W        W11626   5.019   3.112   2.343
 7427W        W11627   6.750   9.798  10.447
 7428W        W11628   3.532   4.453   9.354
 7429W        W11629  11.093   8.792   1.428
 7430W        W11630   3.094  10.904   1.499
 7431W        W11631   6.980  11.155   9.518
 7432W        W11632   6.386   9.387   0.463
 7433W        W11633   8.370   9.968   1.751
 7434W        W11634   4.959   3.701  11.745
 7435W        W11635   7.666   1.763  10.113
 7436W        W11636   3.662  10.904   1.737
 7437W        W11637   0.318   4.308   8.832
 7438W        W11638   4.714   5.712   0.030
 7439W        W11639  10.761   0.813   9.429
 7440W        W11640   1.192  11.340   9.829
 7441W        W11641   2.369   8.980   2.452
 7442W        W11642  10.549   4.219   0.929
 7443W        W11643   0.166   2.199  11.825
 7444W        W11644   2.940   2.664   0.006
 7445W        W11645  10.727   5.255   8.555
 7446W        W11646   7.599   8.095  11.763
 7447W        W11647   0.584   5.113   1.853
 7448W        W11648   2.237   3.847  11.840
 7449W        W11649  10.315   0.989  11.415
 7450W        W11650  11.376  10.086  11.130
 7451W        W11651  10.534  11.355   3.297
 7452W        W11652   7.088   1.802   3.516
 7453W        W11653   2.991   2.119   2.233
 7454W        W11654   8.156   9.931   2.714
 7455W        W11655   3.192   9.601  10.265
 7456W        W11656  10.675   0.365   3.256
 7457W        W11657   3.285   4.119   0.840
 7458W        W11658   4.105   6.975   1.934
 7459W        W11659  11.028  10.713   9.978
 7460W        W11660   5.122   7.218  11.512
 7461W        W11661   8.063  10.843   3.331
 7462W        W11662   2.209   5.069   8.638
 7463W        W11663  10.822   0.339   8.526
 7464W        W11664   5.547   7.261   3.802
 7465W        W11665  10.379   5.471   8.855
 7466W        W11666   2.924   2.769   3.338
 7467W        W11667  10.741   9.274  11.620
 7468W        W11668  10.329   5.598   3.025
 7469W        W11669   8.109  10.271   9.595
 7470W        W11670   1.774  10.093   9.737
 7471W        W11671   5.513   4.539   3.761
 7472W        W11672   4.684   9.301  11.774
 7473W        W11673   7.609   4.775   2.174
 7474W        W11674   7.137   8.412   9.249
 7475W        W11675   1.050   4.801   3.579
 7476W        W11676   1.597   8.214   3.491
 7477W        W11677   4.010   7.598  11.893
 7478W        W11678   9.164   3.667  11.685
 7479W        W11679   5.627   0.351   9.509
 7480W        W11680   8.615   8.011  11.519
 7481W        W11681  11.320  10.021   1.161
 7482W        W11682  11.390   8.266   9.057
 7483W        W11683   3.386  10.377   1.118
 7484W        W11684   1.849   8.391   1.043
 7485W        W11685   1.231   9.064  11.136
 7486W        W11686   2.649   9.767   0.460
 7487W        W11687   5.036   5.312   2.355
 7488W        W11688   7.747   2.372   0.275
 7489W        W11689  10.311   9.126   1.742
 7490W        W11690   8.948  10.430   2.842
 7491W        W11691   1.086   4.412   8.693
 7492W        W11692   2.865   8.870   2.391
 7493W        W11693   1.712   1.418  11.891
 7494W        W11694   3.499   2.557   9.014
 7495W        W11695   7.150   8.796   2.241
 7496W        W11696   6.794   7.650   1.409
 7497W        W11697   2.683   0.332   3.529
 7498W        W11698   1.233   9.548   1.242
 7499W        W11699   7.820   8.578  10.006
 7500W        W11700   6.128   7.334   2.690
 7501W        W11701   2.635   0.718   0.350
 7502W        W11702   3.113   1.675   9.113
 7503W        W11703   8.041   4.723  11.296
 7504W        W11704   4.660   8.507   1.266
 7505W        W11705   5.071   6.092   1.979
 7506W        W11706   4.705   4.835   0.948
 7507W        W11707   1.220   0.754   9.434
 7508W        W11708   7.529   2.643   9.054
 7509W        W11709   6.562   9.033  10.727
 7510W        W11710   1.806   6.628   9.587
 7511W        W11711  10.475   0.198   0.463
 7512W        W11712   8.207   8.495  10.312
 7513W        W11713   4.494   5.258  11.740
 7514W        W11714   0.928   3.100   0.975
 7515W        W11715   9.983   6.810   0.701
 7516W        W11716   2.395   8.010   0.068
 7517W        W11717   0.717   5.687   1.990
 7518W        W11718   8.670   2.054   2.961
 7519W        W11719   5.044   4.390  11.498
 7520W        W11720   9.295   8.386   0.510
 7521W        W11721   8.876   2.294  10.441
 7522W        W11722   3.940   2.387   8.610
 7523W        W11723  10.954   5.245  10.045
 7524W        W11724   6.778   5.125  10.138
 7525W        W11725   9.042   2.534   0.461
 7526W        W11726   8.853   4.442   8.865
 7527W        W11727   3.224   8.420   1.757
 7528W        W11728   3.569   4.872   1.257
 7529W        W11729  10.549   3.741   0.725
 7530W        W11730   6.571   3.334  10.027
 7531W        W11731   0.960   4.802   9.050
 7532W        W11732   5.446   8.383  11.698
 7533W        W11733   1.909   3.661   9.303
 7534W        W11734   3.896   2.150  10.791
 7535W        W11735  10.428   1.169  10.563
 7536W        W11736   3.414   5.208   4.120
 7537W        W11737   6.174   2.739   3.179
 7538W        W11738   4.068   9.147  11.386
 7539W        W11739   6.023   4.784  10.845
 7540W        W11740   8.232   8.436   1.381
 7541W        W11741   9.317   1.817  11.452
 7542W        W11742   1.640   6.489   3.283
 7543W        W11743   8.148   7.341   9.249
 7544W        W11744   8.257   1.707   2.990
 7545W        W11745   8.574  10.849   2.813
 7546W        W11746   2.247   4.059   3.126
 7547W        W11747  11.449   9.605  11.775
 7548W        W11748   0.446   2.640   2.870
 7549W        W11749   6.181   5.056   1.328
 7550W        W11750   6.586   9.025   2.907
 7551W        W11751   7.688  11.451  11.526
 7552W        W11752   6.321   0.888   0.452
 7553W        W11753   0.862   8.939  11.519
 7554W        W11754   2.130   9.812  11.297
 7555W        W11755   5.006   7.412   0.049
 7556W        W11756  10.740  10.837   1.277
 7557W        W11757   3.970   7.957   9.175
 7558W        W11758   5.059   4.077   8.735
 7559W        W11759   9.091   3.325   8.931
 7560W        W11760   4.354   9.583   0.347
 7561W        W11761   2.367   6.692   8.993
 7562W        W11762   6.144   6.003   2.247
 7563W        W11763   6.227   4.489   3.044
 7564W        W11764   0.857   5.659   1.160
 7565W        W11765   0.370   9.555   9.965
 7566W        W11766   8.565   5.201   8.178
 7567W        W11767   3.349   2.464   2.337
 7568W        W11768  10.386   0.471   8.796
 7569W        W11769   8.568   3.673  11.027
 7570W        W11770  11.358   8.252  11.289
 7571W        W11771  10.185   0.271   3.177
 7572W        W11772   6.204   6.598  11.328
 7573W        W11773  10.806   3.296   1.874
 7574W        W11774   5.134   7.404  10.101
 7575W        W11775   0.486  10.836  10.430
 7576W        W11776   5.170   8.658   2.614
 7577W        W11777   9.985  11.386  10.960
 7578W        W11778   7.101   9.329   1.489
 7579W        W11779   9.185   8.253   9.446
 7580W        W11780   5.226   1.924   0.419
 7581W        W11781   4.214   4.552   2.357
 7582W        W11782   8.968   8.922  10.229
 7583W        W11783   0.670   2.404   3.276
 7584W        W11784   7.591   6.387   4.053
 7585W        W11785   9.014   6.478   7.884
 7586W        W11786   7.978   6.848  10.860
 7587W        W11787   2.816  11.347   1.203
 7588W        W11788   9.635   4.568   9.319
 7589W        W11789   6.905   7.598  10.829
 7590W        W11790   5.642   9.815  10.861
 7591W        W11791   0.397   6.560   9.686
 7592W        W11792   2.127   0.397   1.330
 7593W        W11793   3.017   2.334  10.637
 7594W        W11794  10.812  10.759  11.403
 7595W        W11795   1.212   7.835   2.885
 7596W        W11796   0.378   7.123   3.016
 7597W        W11797   5.040   8.840  10.542
 7598W        W11798   7.452   1.649   0.731
 7599W        W11799   5.603   0.243  11.012
 7600W        W11800   7.904   7.803   9.350
 7601W        W11801   6.444   9.672  10.868
 7602W        W11802   5.262   2.886   2.718
 7603W        W11803   5.190   6.159  10.466
 7604W        W11804   5.218   2.100   8.470
 7605W        W11805   1.459   0.231  11.247
 7606W        W11806   2.714   1.624   0.127
 7607W        W11807   0.852   6.888   3.092
 7608W        W11808   8.236   3.602   8.634
 7609W        W11809   0.896   9.075   2.016
 7610W        W11810   6.092  11.340  10.892
 7611W        W11811   5.631   9.464  10.277
 7612W        W11812   3.567   0.158  10.046
 7613W        W11813  11.196  10.483   2.829
 7614W        W11814   6.610   8.940   0.425
 7615W        W11815   0.333   4.209   9.370
 7616W        W11816   1.505   7.418  11.152
 7617W        W11817   8.506   2.820  11.008
 7618W        W11818   2.828   9.793   8.951
 7619W        W11819   4.820   2.467  10.445
 7620W        W11820   3.520   1.300  10.730
 7621W        W11821   4.801   7.649   0.816
 7622W        W11822   1.558   5.176   9.497
 7623W        W11823   3.476   5.440   8.525
 7624W        W11824  10.327   5.576   1.928
 7625W        W11825   2.739   5.731  11.748
 7626W        W11826   9.210   5.187   1.897
 7627W        W11827   2.700   3.645   8.977
 7628W        W11828   5.960  10.360   8.565
 7629W        W11829   6.654  10.127   9.361
 7630W        W11830   2.232   2.441   9.028
 7631W        W11831   6.359   8.206   8.213
 7632W        W11832   6.978   0.009  10.477
 7633W        W11833   8.651  10.801   9.945
 7634W        W11834   6.023   4.546   9.930
 7635W        W11835   5.649   2.708  11.493
 7636W        W11836   4.078  10.641   8.659
 7637W        W11837   5.785   3.222   3.863
 7638W        W11838   5.063   0.699  10.338
 7639W        W11839   2.662   4.546  10.702
 7640W        W11840  11.089  11.485  11.772
 7641W        W11841   7.450   1.269  11.839
 7642W        W11842   5.556   5.936  11.096
 7643W        W11843   1.813   6.402   0.028
 7644W        W11844   5.453  11.274  10.304
 7645W        W11845   2.930   8.417   8.388
 7646W        W11846   4.225   5.533  11.309
 7647W        W11847   4.770   7.465   2.271
 7648W        W11848   6.057   2.120  10.597
 7649W        W11849   9.285   8.162  10.262
 7650W        W11850   2.814   1.243   1.919
 7651W        W11851   8.887   1.154   0.014
 7652W        W11852   4.739   9.315  10.695
 7653W        W11853   0.907  11.290   1.941
 7654W        W11854   1.127   2.659   1.132
 7655W        W11855   8.210   6.069   1.226
 7656W        W11856   9.942   0.354   9.634
 7657W        W11857   0.292   6.963   9.996
 7658W        W11858   2.594   8.568   8.724
 7659W        W11859   2.688   5.043   8.396
 7660W        W11860   2.742   4.234   8.300
 7661W        W11861  11.391   4.805  10.072
 7662W        W11862   4.276   2.709  10.206
 7663W        W11863   5.048   4.426   9.099
 7664W        W11864   5.629   9.835   9.340
 7665W        W11865   5.846   3.603   1.419
 7666W        W11866   9.504  10.407   9.049
 7667W        W11867   6.191   5.705   2.686
 7668W        W11868  10.431   5.226   9.300
 7669W        W11869   9.316   7.458   8.535
 7670W        W11870  11.260   8.308   3.090
 7671W        W11871   0.000   6.028   1.089
 7672W        W11872  11.286   4.742   9.569
 7673W        W11873  11.316   1.864  10.066
 7674W        W11874   2.982   6.913  10.355
 7675W        W11875   6.841   7.128  11.531
 7676W        W11876   6.441   6.632   9.543
 7677W        W11877   5.161   2.360  11.317
 7678W        W11878   7.746   5.068  10.762
 7679W        W11879   6.740   3.633   1.278
 7680W        W11880   2.653   1.449   0.783
 7681W        W11881   2.832   2.599   2.335
 7682W        W11882   7.162  10.465   2.914
 7683W        W11883   9.776   9.415   9.097
 7684W        W11884  10.604   4.775  11.931
 7685W        W11885   7.610  10.368   3.128
 7686W        W11886   0.887   1.445   9.518
 7687W        W11887   3.651   3.940  10.140
 7688W        W11888  10.525   5.155   1.713
 7689W        W11889   0.667   9.564   2.467
 7690W        W11890   1.805   5.157   9.935
 7691W        W11891   3.831   3.279  11.349
 7692W        W11892   9.954  10.092   9.744
 7693W        W11893  10.314  11.424   1.847
 7694W        W11894   7.123   2.605  10.832
 7695W        W11895   4.752   9.561   9.210
 7696W        W11896   5.146   9.584  11.381
 7697W        W11897  10.009   2.114   2.921
 7698W        W11898   7.980   5.725  11.479
 7699W        W11899   9.948   4.914   0.062
 7700W        W11900   1.204  10.845  10.280
 7701W        W11901   7.606   0.538   0.755
 7702W        W11902   6.805   7.153   1.226
 7703W        W11903  10.294   0.781   9.240
 7704W        W11904   0.053   6.956  11.880
 7705W        W11905   6.498   4.536   0.640
 7706W        W11906   8.159  11.483   9.717
 7707W        W11907   0.694   3.010   2.379
 7708W        W11908   5.142   8.000   1.145
 7709W        W11909  10.357   0.926   2.395
 7710W        W11910   0.220   9.819  11.389
 7711W        W11911   8.463   9.490  11.640
 7712W        W11912   2.314   0.666   3.309
 7713W        W11913   2.299  10.493  11.946
 7714W        W11914   0.081   1.550   0.877
 7715W        W11915   2.314   8.378   1.241
 7716W        W11916   3.779   3.099   2.842
 7717W        W11917   4.419   9.424   3.696
 7718W        W11918   2.292  11.228   2.278
 7719W        W11919   3.652   7.586   0.424
 7720W        W11920   2.639   4.968   0.357
 7721W        W11921   1.355   9.994  11.754
 7722W        W11922   7.908   1.483  10.751
 7723W        W11923  10.490   1.179   1.543
 7724W        W11924   0.716   3.125   9.299
 7725W        W11925   7.102   1.629  10.823
 7726W        W11926   6.238   7.648   2.296
 7727W        W11927   6.579   6.532   1.107
 7728W        W11928   1.764   2.037   0.500
 7729W        W11929   9.397   1.319  11.510
 7730W        W11930   3.691   3.716   1.652
 7731W        W11931   7.447   4.312   1.972
 7732W        W11932   1.904   1.537   0.479
 7733W        W11933   1.132   9.461   2.273
 7734W        W11934   9.973   6.665   8.722
 7735W        W11935   5.967  10.723   3.293
 7736W        W11936   0.267   9.516   9.015
 7737W        W11937   7.859   5.502  11.016
 7738W        W11938   8.187   9.050   2.195
 7739W        W11939   0.976   3.203   2.777
 7740W        W11940   3.014   4.217  11.507
 7741W        W11941  10.193   4.483  11.933
 7742W        W11942   7.574  10.323  10.290
 7743W        W11943   1.674   9.000   2.844
 7744W        W11944  10.824   6.574   0.679
 7745W        W11945   6.711   0.070   0.424
 7746W        W11946  11.293   6.114   1.548
 7747W        W11947   9.596   3.687  11.918
 7748W        W11948   1.992  11.462   0.872
 7749W        W11949   3.742   7.826   2.184
 7750W        W11950   1.746   5.784   0.648
 7751W        W11951   8.861   8.118   1.476
 7752W        W11952   4.934   6.521   9.084
 7753W        W11953   0.028   2.728   1.981
 7754W        W11954  10.440  11.082  11.098
 7755W        W11955   6.704   2.212   9.395
 7756W        W11956   4.380   1.530   2.257
 7757W        W11957   3.574   4.208   8.919
 7758W        W11958   4.785   0.220  10.961
 7759W        W11959   2.863   7.072   3.271
 7760W        W11960   5.731  10.634   9.931
 7761W        W11961  10.937   4.776   8.588
 7762W        W11962   9.237   9.098   0.620
 7763W        W11963  10.579   2.766  10.710
 7764W        W11964   6.192   1.730   1.012
 7765W        W11965   6.488  10.678   0.805
 7766W        W11966   3.169   4.212   2.258
 7767W        W11967   5.233   6.812   8.762
 7768W        W11968   0.411   5.572   0.045
 7769W        W11969  11.458   6.184   9.074
 7770W        W11970  10.896   5.905  10.990
 7771W        W11971   4.249  10.098  10.795
 7772W        W11972   8.986   9.053   1.054
 7773W        W11973   5.051  11.123   9.325
 7774W        W11974   8.528   5.311   2.387
 7775W        W11975   3.168   3.312   9.982
 7776W        W11976   8.191   0.969   0.108
 7777W        W11977   1.376  10.377  10.482
 7778W        W11978   1.915   4.276   0.430
 7779W        W11979   6.545   3.698   0.384
 7780W        W11980   6.448  10.815   2.310
 7781W        W11981   0.695   9.781   8.938
 7782W        W11982   6.185   4.294  11.886
 7783W        W11983   9.573  11.069   9.811
 7784W        W11984   2.411   5.067  10.511
 7785W        W11985   8.214   5.109  10.992
 7786W        W11986   9.406   3.749   1.189
 7787W        W11987   7.034   7.018   2.428
 7788W        W11988   1.759   7.722   2.163
 7789W        W11989  11.332   9.385   9.987
 7790W        W11990   2.485   3.108  10.614
 7791W        W11991   8.877   9.800  11.672
 7792W        W11992   5.165   1.903   1.818
 7793W        W11993   4.818  11.310   1.567
 7794W        W11994   2.917   3.657   0.242
 7795W        W11995   5.369   2.707   9.034
 7796W        W11996   7.979   0.211  11.872
 7797W        W11997   6.404   9.096   3.731
 7798W        W11998   8.382   3.398   1.771
 7799W        W11999   5.992   0.191   0.218
 7800W        W12000   6.505  10.839  11.577
 7801W        W12001  10.461   2.220   3.530
 7802W        W12002   0.791   6.705   1.803
 7803W        W12003   8.425   1.408  11.964
 7804W        W12004   1.785   1.755  10.037
 7805W        W12005   3.258   8.684  10.335
 7806W        W12006   6.600   6.135   0.797
 7807W        W12007   9.492   8.104   3.209
 7808W        W12008   1.412   3.515   2.074
 7809W        W12009   6.273   8.847  11.090
 7810W        W12010   8.878   6.207   3.236
 7811W        W12011   8.774   9.569   3.177
 7812W        W12012   5.703   5.130   9.143
 7813W        W12013   9.333   3.391   1.791
 7814W        W12014   7.637   5.418   9.809
 7815W        W12015   3.127   2.091   9.689
 7816W        W12016   0.953   1.979   3.206
 7817W        W12017   8.945   0.560   3.194
 7818W        W12018  10.401   6.442   1.989
 7819W        W12019   7.916   4.263  10.044
 7820W        W12020   6.676   2.536  11.991
 7821W        W12021   4.497   5.788   1.075
 7822W        W12022  10.843   7.021   0.919
 7823W        W12023   4.447   3.243   0.776
 7824W        W12024  10.655   9.592   9.556
 7825W        W12025  11.384   5.496   3.224
 7826W        W12026   6.660   2.730   9.500
 7827W        W12027   5.487  10.170  11.805
 7828W        W12028   2.791   4.841   0.834
 7829W        W12029   2.487   9.534   1.703
 7830W        W12030   5.135   6.504   1.176
 7831W        W12031   1.809   3.356   0.840
 7832W        W12032  10.458   9.124   9.415
 7833W        W12033   4.293   8.668   3.802
 7834W        W12034   0.838   0.259   1.138
 7835W        W12035   5.961   8.190   3.585
 7836W        W12036   7.641   6.552  10.536
 7837W        W12037   4.447   4.215  10.453
 7838W        W12038   8.964  10.826   9.454
 7839W        W12039   7.862   6.935   9.078
 7840W        W12040   8.521   6.918   1.398
 7841W        W12041   2.688  10.790   1.119
 7842W        W12042  10.050  11.294   3.079
 7843W        W12043   3.095   7.041   1.942
 7844W        W12044   3.781   5.963  11.029
 7845W        W12045   4.817   6.143  11.301
 7846W        W12046   9.548   8.616  10.351
 7847W        W12047   3.384  10.024   9.182
 7848W        W12048   2.239   7.870   9.459
 7849W        W12049   3.351   3.464   0.073
 7850W        W12050   1.468   7.848  11.983
 7851W        W12051   4.490   2.750   9.768
 7852W        W12052   8.585   9.142   0.437
 7853W        W12053   9.106  11.344  10.803
 7854W        W12054   7.171   2.343   3.381
 7855W        W12055   2.565   2.630  11.285
 7856W        W12056   0.338   4.815   1.259
 7857W        W12057   4.699   0.113   2.862
 7858W        W12058   5.767   4.379   1.688
 7859W        W12059   6.656   6.071   2.275
 7860W        W12060   5.881   2.723   8.976
 7861W        W12061   8.285   5.151   3.216
 7862W        W12062   6.928   5.111   2.379
 7863W        W12063   9.122   8.414  11.506
 7864W        W12064   2.248   5.268   9.104
 7865W        W12065   1.279   4.110   9.750
 7866W        W12066   0.853   0.286   2.152
 7867W        W12067   7.459  11.477  10.187
 7868W        W12068   0.747   2.175   1.933
 7869W        W12069   7.170   0.769  11.842
 7870W        W12070   8.349   4.539  10.295
 7871W        W12071  11.104   4.104   2.294
 7872W        W12072   9.905   3.788   1.341
 7873W        W12073   3.132   9.347   0.740
 7874W        W12074   3.814   1.637   9.934
 7875W        W12075  10.848   4.636  10.831
 7876W        W12076   8.255   6.362  10.813
 7877W        W12077  10.101   3.839   9.535
 7878W        W12078  10.692   4.158  10.576
 7879W        W12079   5.130   7.499  10.604
 7880W        W12080  11.420  10.958   2.786
 7881W        W12081   0.430   5.289   1.396
 7882W        W12082  10.152   3.766   3.444
 7883W        W12083   6.337   3.963   8.178
 7884W        W12084   3.237   5.413   3.681
 7885W        W12085   8.489   0.803   3.186
 7886W        W12086   1.809   6.499   9.077
 7887W        W12087   2.316   1.852   0.451
 7888W        W12088  10.864   3.913  11.079
 7889W        W12089   5.220   1.842  11.434
 7890W        W12090   5.463   8.165   9.896
 7891W        W12091   5.881   2.013   1.892
 7892W        W12092   2.313   7.542  11.790
 7893W        W12093   3.066   0.317   1.396
 7894W        W12094   7.645   3.118  10.968
 7895W        W12095   2.446  10.690  10.891
 7896W        W12096   4.210   3.209  10.432
 7897W        W12097   8.582   4.268   2.864
 7898W        W12098   1.372   0.388   0.836
 7899W        W12099   0.295   0.398   0.009
 7900W        W12100   7.076   0.245   2.233
 7901W        W12101   9.107   6.628   8.864
 7902W        W12102   4.195   7.499   1.820
 7903W        W12103   8.580   1.824   3.383
 7904W        W12104   1.517   0.330   9.581
 7905W        W12105   1.436   2.884   8.350
 7906W        W12106   7.342   6.456  10.097
 7907W        W12107  10.576   7.115   2.747
 7908W        W12108  11.391   9.784   3.384
 7909W        W12109   6.454   9.762   0.811
 7910W        W12110   1.862   7.762   3.496
 7911W        W12111   2.844   1.892   0.542
 7912W        W12112   7.024   4.834   9.099
 7913W        W12113   3.294   6.216  10.704
 7914W        W12114   9.611   3.109   2.761
 7915W        W12115   6.457   6.078  10.982
 7916W        W12116  10.352  10.384   0.229
 7917W        W12117   3.126   6.048  11.847
 7918W        W12118   5.359   1.910  10.017
 7919W        W12119   7.709   5.951  10.699
 7920W        W12120   7.498   5.386   0.243
 7921W        W12121   9.422  10.239   2.805
 7922W        W12122   0.988   9.854   1.661
 7923W        W12123   4.613   1.767   1.428
 7924W        W12124   6.151   2.262   0.766
 7925W        W12125   1.817   2.266   8.752
 7926W        W12126   2.182   7.081  11.565
 7927W        W12127   9.456   9.126   9.381
 7928W        W12128   4.654   1.883  10.293
 7929W        W12129   1.373   6.997   3.233
 7930W        W12130   9.990   3.280  10.850
 7931W        W12131   8.962   5.056   3.749
 7932W        W12132   6.472   9.961  11.895
 7933W        W12133   5.203   8.345   1.568
 7934W        W12134   6.593   2.324   0.468
 7935W        W12135  11.287  10.538  10.408
 7936W        W12136   4.798   0.980   1.626
 7937W        W12137   7.713   8.976  11.439
 7938W        W12138   5.524   7.547  11.438
 7939W        W12139   7.626   3.122   2.016
 7940W        W12140   7.945   6.879  11.716
 7941W        W12141   4.677   9.414   2.190
 7942W        W12142   2.256   6.145   0.271
 7943W        W12143   3.930   0.427   8.810
 7944W        W12144   5.940   0.952   9.485
 7945W        W12145   7.513   4.101   9.268
 7946W        W12146   9.489   1.895   3.549
 7947W        W12147   4.638  11.067   1.991
 7948W        W12148   5.713   1.176   0.346
 7949W        W12149   5.427  10.769  10.719
 7950W        W12150   6.986   4.192   9.963
 7951W        W12151   7.673   7.071  10.483
 7952W        W12152   3.682   6.457  10.932
 7953W        W12153  10.043   8.319   8.408
 7954W        W12154  10.993   0.415  10.340
 7955W        W12155  10.818   4.193   2.741
 7956W        W12156   1.335   6.622   2.890
 7957W        W12157   2.301   4.711   9.269
 7958W        W12158   2.375   1.607   2.946
 7959W        W12159   2.993   7.523   2.569
 7960W        W12160   5.488  11.458   0.875
 7961W        W12161   9.568   5.402   1.618
 7962W        W12162   0.994   7.066   8.734
 7963W        W12163   7.089   3.036   0.116
 7964W        W12164   1.788   5.417   0.297
 7965W        W12165   6.828   3.282   3.756
 7966W        W12166   6.680   5.348  10.585
 7967W        W12167   3.592   1.450   1.291
 7968W        W12168   4.149   7.999   0.887
 7969W        W12169   4.337   4.846   2.788
 7970W        W12170   2.193   0.375   1.932
 7971W        W12171   8.337  10.392   0.437
 7972W        W12172   5.229   9.367  11.852
 7973W        W12173   7.641   2.577  11.799
 7974W        W12174   2.776   2.832   2.832
 7975W        W12175   4.831   2.877  10.128
 7976W        W12176   0.775   7.582   1.271
 7977W        W12177   8.588  10.844   3.318
 7978W        W12178   0.797   4.113   9.564
 7979W        W12179   6.125   0.413   1.692
 7980W        W12180  10.537  10.717   0.564
 7981W        W12181   4.981  10.634   2.421
 7982W        W12182   5.608   9.642   9.802
 7983W        W12183   8.049   7.381   1.666
 7984W        W12184   3.026   9.047   9.557
 7985W        W12185  10.294   3.573   2.951
 7986W        W12186   5.127   1.652   0.848
 7987W        W12187   5.127   1.106   8.818
 7988W        W12188   9.997  10.820   3.232
 7989W        W12189   8.511   0.394  11.489
 7990W        W12190   8.552   7.456   2.839
 7991W        W12191   4.427   0.589   2.434
 7992W        W12192   7.474   3.051   9.700
 7993W        W12193   7.245  10.866   1.968
 7994W        W12194   0.004   5.537  11.723
 7995W        W12195   5.068  10.310   3.287
 7996W        W12196   8.685   9.381   2.327
 7997W        W12197   9.555   1.115   0.361
 7998W        W12198   6.564   9.508  11.642
 7999W        W12199   1.799   5.897   0.132
 8000W        W12200   5.639   3.671   3.298
 8001W        W12201   8.656   1.252   2.474
 8002W        W12202   9.020   4.532  11.871
 8003W        W12203  11.009   9.047   8.779
 8004W        W12204   2.471   7.049  11.070
 8005W        W12205   0.911   9.928   2.184
 8006W        W12206   9.702  10.966   3.632
 8007W        W12207   8.814   7.082  11.249
 8008W        W12208   6.558   2.207   8.790
 8009W        W12209   3.240   6.482  11.200
 8010W        W12210   0.700   3.657   9.804
 8011W        W12211   8.105   6.218   3.990
 8012W        W12212  10.482   8.606   9.409
 8013W        W12213  10.775   9.046  10.743
 8014W        W12214   6.553   4.783   1.650
 8015W        W12215   7.952   4.127   3.673
 8016W        W12216   7.543   2.869  11.398
 8017W        W12217   3.344   2.779   0.332
 8018W        W12218   2.698   6.528   9.536
 8019W        W12219   7.200   6.604   3.770
 8020W        W12220   1.453   2.790   3.031
 8021W        W12221   1.378   6.029   3.383
 8022W        W12222   0.671   5.222   0.930
 8023W        W12223   8.345   5.576  10.818
 8024W        W12224   8.690  10.503   1.772
 8025W        W12225   2.616   8.050   8.592
 8026W        W12226   6.918   9.863  11.669
 8027W        W12227   9.143   1.806  10.410
 8028W        W12228   2.716   6.018   8.995
 8029W        W12229   2.260   6.617  11.846
 8030W        W12230   5.273   6.035  11.506
 8031W        W12231   5.827   2.712   8.338
 8032W        W12232   0.307   7.463   1.414
 8033W        W12233  10.807   7.665  10.146
 8034W        W12234   3.422   5.240   0.323
 8035W        W12235   9.296   9.316   1.807
 8036W        W12236   7.004   9.811   1.659
 8037W        W12237   5.930   8.664  10.307
 8038W        W12238   5.848  11.490   8.992
 8039W        W12239  10.893   7.974   3.234
 8040W        W12240   3.232  10.234   2.154
 8041W        W12241   6.494  11.414  10.257
 8042W        W12242   5.429   9.557   3.702
 8043W        W12243   4.471   1.636   9.884
 8044W        W12244   2.437   2.169  11.462
 8045W        W12245   6.111   8.823   1.834
 8046W        W12246   0.284  10.100   3.264
 8047W        W12247   3.417  10.501   9.923
 8048W        W12248   9.079  10.220   8.780
 8049W        W12249   6.987  10.974  11.687
 8050W        W12250   8.695   5.743   3.115
 8051W        W12251  10.320   2.423  10.408
 8052W        W12252   5.020   6.515  10.097
 8053W        W12253   6.903   8.979   3.683
 8054W        W12254   9.907   4.069   1.789
 8055W        W12255   9.340   6.069   9.229
 8056W        W12256   0.355   1.327  10.373
 8057W        W12257  11.268   4.246   2.980
 8058W        W12258   7.232  11.077  10.402
 8059W        W12259  10.347   1.784   2.169
 8060W        W12260   8.656   5.211  10.626
 8061W        W12261   7.571   4.828  11.454
 8062W        W12262   3.120   4.766   0.417
 8063W        W12263   3.440   8.011   9.110
 8064W        W12264   7.799   3.865   3.265
 8065W        W12265   2.470   7.487  11.311
 8066W        W12266   4.201   3.856  11.028
 8067W        W12267   0.432   0.848   8.752
 8068W        W12268   7.932   0.704   9.325
 8069W        W12269   9.800   2.827  11.579
 8070W        W12270  11.392   8.627   0.140
 8071W        W12271   3.422   9.908  11.549
 8072W        W12272   1.763   4.589   0.016
 8073W        W12273   0.936   0.009   2.968
 8074W        W12274   5.219   5.592   1.865
 8075W        W12275   6.511   0.467   3.561
 8076W        W12276   2.410   7.072   0.546
 8077W        W12277   9.553  11.188   0.510
 8078W        W12278   2.769   6.901   8.730
 8079W        W12279  10.391   5.092   3.279
 8080W        W12280   1.456   3.723   0.494
 8081W        W12281  10.394   5.140   0.660
 8082W        W12282  11.386   8.430   1.662
 8083W        W12283   4.157   4.143  10.033
 8084W        W12284   4.748   0.605   2.818
 8085W        W12285   9.608   2.297   3.198
 8086W        W12286   7.578   7.578   1.836
 8087W        W12287   6.598   2.077   0.930
 8088W        W12288  10.144   8.996   0.494
 8089W        W12289   6.555   0.413   1.417
 8090W        W12290   3.301   6.652   1.665
 8091W        W12291   3.565   8.064   0.803
 8092W        W12292   3.224   3.205   2.774
 8093W        W12293   0.752   2.226   2.792
 8094W        W12294   5.954   3.825  11.862
 8095W        W12295   0.430   3.048   9.747
 8096W        W12296  10.423  10.033   9.484
 8097W        W12297   9.062   5.005  10.359
 8098W        W12298   5.570   9.439   2.222
 8099W        W12299   3.112   5.136   8.681
 8100W        W12300   3.607   9.935  11.060
 8101W        W12301   4.289   2.660   1.451
 8102W        W12302   8.475  10.379   2.624
 8103W        W12303   2.187   2.276   0.741
 8104W        W12304   4.810   0.399   8.440
 8105W        W12305   9.810   7.016   2.329
 8106W        W12306   0.446   4.812  10.118
 8107W        W12307   3.783   5.952  10.488
 8108W        W12308  11.062   2.879  11.716
 8109W        W12309   2.799   0.810  10.024
 8110W        W12310   0.513   9.506  10.717
 8111W        W12311   6.956  11.385   0.852
 8112W        W12312   6.860   6.060   0.340
 8113W        W12313   0.823  11.196  10.172
 8114W        W12314   7.349   8.928  11.770
 8115W        W12315  10.470   8.825   3.464
 8116W        W12316   3.826   2.119   9.054
 8117W        W12317   4.156   1.964  10.128
 8118W        W12318   6.311   6.310   9.173
 8119W        W12319   5.176   1.146   0.847
 8120W        W12320   0.673   5.233   9.293
 8121W        W12321   8.066   5.695   1.672
 8122W        W12322   9.074   8.535  10.536
 8123W        W12323  10.926   9.126  10.269
 8124W        W12324   6.343  10.060  10.291
 8125W        W12325   8.187   6.559   8.950
 8126W        W12326   2.102   7.106   2.739
 8127W        W12327   7.096  10.566   1.492
 8128W        W12328   6.076   9.774   9.967
 8129W        W12329  10.976   4.898   1.614
 8130W        W12330   0.387   2.613  10.491
 8131W        W12331   9.995   0.769   9.952
 8132W        W12332   1.851  11.011  11.494
 8133W        W12333   0.215   4.524   9.756
 8134W        W12334   2.466   6.152   1.271
 8135W        W12335   7.503   9.708   1.334
 8136W        W12336  11.115   7.847   0.029
 8137W        W12337   4.385   8.962   8.526
 8138W        W12338   8.162   3.186  10.443
 8139W        W12339   1.222   9.969  11.273
 8140W        W12340   3.963  10.851   0.873
 8141W        W12341   6.273  10.980  10.558
 8142W        W12342   5.091   9.654  10.873
 8143W        W12343   5.146   2.632   2.284
 8144W        W12344   3.670   4.349  11.978
 8145W        W12345   2.689  11.194  10.407
 8146W        W12346   7.523   4.056  11.830
 8147W        W12347   9.052   9.530   0.878
 8148W        W12348   7.971   8.477  11.427
 8149W        W12349   2.243  10.955  10.506
 8150W        W12350   2.821   3.657   9.861
 8151W        W12351   7.444  10.782  10.742
 8152W        W12352   1.259   1.003  10.441
 8153W        W12353   6.022   3.818   0.917
 8154W        W12354   5.717   4.263   8.641
 8155W        W12355   2.930   3.022   0.938
 8156W        W12356  10.452   7.865  11.051
 8157W        W12357   1.453  10.297   0.504
 8158W        W12358   6.091   8.963   0.500
 8159W        W12359   2.688   0.779   2.158
 8160W        W12360   1.040   1.396   2.340
 8161W        W12361   5.540   1.483  10.196
 8162W        W12362   2.545  11.449   9.991
 8163W        W12363   7.280  10.475   8.939
 8164W        W12364  10.391   8.924   9.901
 8165W        W12365   1.626   9.050  10.380
 8166W        W12366   9.579   6.134   0.531
 8167W        W12367   3.617   7.016   2.830
 8168W        W12368   7.888   5.348   9.062
 8169W        W12369   8.516   1.270   9.039
 8170W        W12370  11.280   6.595  10.959
 8171W        W12371   3.674   2.832   2.187
 8172W        W12372  11.370   2.567  11.997
 8173W        W12373   3.561  10.170  10.328
 8174W        W12374  10.811   7.607   2.895
 8175W        W12375  10.245   9.673  11.251
 8176W        W12376   3.709   7.427   9.319
 8177W        W12377  11.423  10.988  10.146
 8178W        W12378   3.210   6.960  11.987
 8179W        W12379   5.543   4.465  11.697
 8180W        W12380   4.779  10.935   3.006
 8181W        W12381   4.595   6.281   0.656
 8182W        W12382   5.919   7.251   1.208
 8183W        W12383   5.665   6.653   3.595
 8184W        W12384   2.078   0.072   9.866
 8185W        W12385   3.893   5.104   1.571
 8186W        W12386   6.645   8.291   3.389
 8187W        W12387   8.915   7.800   9.459
 8188W        W12388   3.390   1.387   2.773
 8189W        W12389  10.617   5.466   9.696
 8190W        W12390   1.275   6.443   0.726
 8191W        W12391   8.120   6.596   0.493
 8192W        W12392   6.747  10.255   3.621
 8193W        W12393   3.500   8.480   3.636
 8194W        W12394   6.206   7.002  10.577
 8195W        W12395   0.186  10.861  11.166
 8196W        W12396   7.509   0.302   9.036
 8197W        W12397  11.196   2.912   0.944
 8198W        W12398   8.088   0.282   1.997
 8199W        W12399   0.342   8.468   9.811
 8200W        W12400   1.484   1.251   0.496
 8201W        W12401   7.702   8.426   0.812
 8202W        W12402   8.251   2.247   1.744
 8203W        W12403  11.110   1.357   0.943
 8204W        W12404   6.893  10.914   1.046
 8205W        W12405  11.479   0.522   3.823
 8206W        W12406   1.879   9.394  10.908
 8207W        W12407   9.941   6.516   2.216
 8208W        W12408   8.010   2.722   9.779
 8209W        W12409   2.197   9.923  10.289
 8210W        W12410   6.640   1.368  10.788
 8211W        W12411   8.682   6.602   2.644
 8212W        W12412   2.209   5.166   3.133
 8213W        W12413   8.111   8.642  10.808
 8214W        W12414   7.491   8.602   1.845
 8215W        W12415   5.169   6.237  10.961
 8216W        W12416   6.127  10.899   2.721
 8217W        W12417   5.341   6.053   1.278
 8218W        W12418   9.998   5.432  11.903
 8219W        W12419   7.115  10.576  10.384
 8220W        W12420   3.128  10.989   2.915
 8221W        W12421   4.494   3.604   9.154
 8222W        W12422   2.134  10.172   8.939
 8223W        W12423   7.236   3.319   0.928
 8224W        W12424   7.394   9.098   1.887
 8225W        W12425   2.150  11.005   9.595
 8226W        W12426   7.557   0.573   2.741
 8227W        W12427   8.950   4.546  10.163
 8228W        W12428   3.361   9.599  10.770
 8229W        W12429   7.177   5.566   1.932
 8230W        W12430   0.463   4.122   2.890
 8231W        W12431  10.338   7.620   2.715
 8232W        W12432   0.674  11.050  11.118
 8233W        W12433   2.318   2.280  10.929
 8234W        W12434   7.107   1.489   0.379
 8235W        W12435   2.212  10.776   0.368
 8236W        W12436   3.218   9.734   2.288
 8237W        W12437  11.058   7.908   1.146
 8238W        W12438   6.556   7.861  10.397
 8239W        W12439   0.071   3.785   3.625
 8240W        W12440  10.907   3.147  10.942
 8241W        W12441  10.960   0.160   8.998
 8242W        W12442   5.464   3.666  11.793
 8243W        W12443   6.224   4.162   3.462
 8244W        W12444   2.374   4.052   0.366
 8245W        W12445   2.116   2.715  11.497
 8246W        W12446  10.327   4.065   9.011
 8247W        W12447   1.371   2.707   0.136
 8248W        W12448   8.239   0.981   0.628
 8249W        W12449   7.944   4.101   9.531
 8250W        W12450   5.839   7.635   4.014
 8251W        W12451   8.073   4.731   9.902
 8252W        W12452   4.131   5.219  10.529
 8253W        W12453   1.130   4.448   1.843
 8254W        W12454  11.381  10.068  10.616
 8255W        W12455  11.219   6.288  11.375
 8256W        W12456   7.071   6.364   4.219
 8257W        W12457   5.015   4.718   0.207
 8258W        W12458   9.976   9.237  11.987
 8259W        W12459   0.932   3.656   3.439
 8260W        W12460   5.249   4.554   8.645
 8261W        W12461  11.482   3.516   0.392
 8262W        W12462   1.394  11.480   1.798
 8263W        W12463   1.316  11.116   2.165
 8264W        W12464   9.560   6.774  10.370
 8265W        W12465   5.624   6.519   9.882
 8266W        W12466   3.376   7.133   1.491
 8267W        W12467   1.317   5.965   9.192
 8268W        W12468   1.308   9.919   0.792
 8269W        W12469   0.397   0.017   2.327
 8270W        W12470   6.464   2.037  10.247
 8271W        W12471  10.274  10.538  10.262
 8272W        W12472   7.937   0.972  10.725
 8273W        W12473   6.608   7.825   9.110
 8274W        W12474   1.746   7.266   3.496
 8275W        W12475   4.074  10.744   0.042
 8276W        W12476   8.553  10.741   1.344
 8277W        W12477   6.588   5.720   0.025
 8278W        W12478   6.761   7.075   0.658
 8279W        W12479   6.650   3.278  10.539
 8280W        W12480   7.923   6.427   0.918
 8281W        W12481  10.066   5.871   3.387
 8282W        W12482   4.632  10.005  10.018
 8283W        W12483   9.415  10.655   1.217
 8284W        W12484   9.058   4.274   2.616
 8285W        W12485   8.962   5.569   2.141
 8286W        W12486   9.968   6.804   3.179
 8287W        W12487  11.079   0.948  11.754
 8288W        W12488   3.804   4.426  10.250
 8289W        W12489   9.245   5.809   0.203
 8290W        W12490   5.466   6.254   1.727
 8291W        W12491  11.416   7.319   2.967
 8292W        W12492  10.402   9.415   2.638
 8293W        W12493   6.537   8.312   1.163
 8294W        W12494   9.748   7.264  10.404
 8295W        W12495   4.329   7.208   2.353
 8296W        W12496  11.115   6.336   8.377
 8297W        W12497   4.127   4.862   8.587
 8298W        W12498  11.118   3.109   0.489
 8299W        W12499   1.583   6.686   0.380
 8300W        W12500   8.125   9.391   0.524
 8301W        W12501   8.047   9.943   2.206
 8302W        W12502   4.744  10.794   0.306
 8303W        W12503   8.689   8.866   9.815
 8304W        W12504   3.803  10.400   0.354
 8305W        W12505   9.591   8.897   2.707
 8306W        W12506   6.095   3.775   2.667
 8307W        W12507   0.718  10.270   9.158
 8308W        W12508   1.800   6.549   1.784
 8309W        W12509   0.003   5.073   1.645
 8310W        W12510   3.949   9.348   9.878
 8311W        W12511   1.667  11.283  11.081
 8312W        W12512   3.518   5.616   2.360
 8313W        W12513   2.168   0.217   3.485
 8314W        W12514   9.435   9.238  11.260
 8315W        W12515   6.421   1.682   2.053
 8316W        W12516  10.475   5.548   3.524
 8317W        W12517   1.947   3.136  10.490
 8318W        W12518   1.787   0.022   2.774
 8319W        W12519   6.906   8.244  10.216
 8320W        W12520   9.287   9.267   0.140
 8321W        W12521   2.478   7.967  10.365
 8322W        W12522   2.344   1.856   1.479
 8323W        W12523   4.814   8.018   2.877
 8324W        W12524  11.442  10.056   0.143
 8325W        W12525   7.671   5.169   1.816
 8326W        W12526   2.621   0.695  10.499
 8327W        W12527   3.417   6.476   9.071
 8328W        W12528   5.765  11.155   3.470
 8329W        W12529   4.694   9.821   2.501
 8330W        W12530   2.156   3.274  11.882
 8331W        W12531   3.852   7.129   9.745
 8332W        W12532   3.784   7.418  11.091
 8333W        W12533   7.728   8.459  10.499
 8334W        W12534   0.125   7.798   0.176
 8335W        W12535   1.619   5.700   2.654
 8336W        W12536  10.375   4.731   9.339
 8337W        W12537   6.115   1.240   3.335
 8338W        W12538   1.783   9.131  11.351
 8339W        W12539   8.554   2.721   0.528
 8340W        W12540   3.909  10.284   9.933
 8341W        W12541   9.056   9.975   0.571
 8342W        W12542   2.294   3.230  10.144
 8343W        W12543   8.617   0.053   0.859
 8344W        W12544   7.782   7.932  10.754
 8345W        W12545   1.601   9.759   1.520
 8346W        W12546  10.378   4.580   3.428
 8347W        W12547   6.147   9.037   3.270
 8348W        W12548   7.967  10.029   1.262
 8349W        W12549   8.858   5.473   0.110
 8350W        W12550  11.026   6.196   1.991
 8351W        W12551  11.317   7.700   0.590
 8352W        W12552   5.527   3.687  10.132
 8353W        W12553   8.450   2.179  10.767
 8354W        W12554   3.167   4.801   1.578
 8355W        W12555   1.479   4.757  11.075
 8356W        W12556   3.111   7.087   2.821
 8357W        W12557  10.830   6.345  10.730
 8358W        W12558   3.199  10.557   3.631
 8359W        W12559   6.250   9.970   1.707
 8360W        W12560   1.814   1.400  11.387
 8361W        W12561  10.908   6.583   8.816
 8362W        W12562   6.932   4.646   3.179
 8363W        W12563  10.342   8.314   1.225
 8364W        W12564   2.349   1.145   0.492
 8365W        W12565   0.565   2.438   2.369
 8366W        W12566   6.649   2.862  11.579
 8367W        W12567  10.794   2.901   3.658
 8368W        W12568   2.616   9.860   9.882
 8369W        W12569   2.238   0.512  11.795
 8370W        W12570   7.792   8.152   1.413
 8371W        W12571   0.281   1.305   1.717
 8372W        W12572  11.044  10.422   9.473
 8373W        W12573   5.495   6.141   9.515
 8374W        W12574   3.516   2.141   3.251
 8375W        W12575   0.472   7.079   1.713
 8376W        W12576   3.891   1.505   0.387
 8377W        W12577   5.562   7.814   9.541
 8378W        W12578   9.084   7.733   1.206
 8379W        W12579   7.498   8.687   0.404
 8380W        W12580  10.432  10.405   1.664
 8381W        W12581   4.180   8.607   3.067
 8382W        W12582   4.273   9.083   3.357
 8383W        W12583   8.615   8.332   3.011
 8384W        W12584   5.533   0.342   1.374
 8385W        W12585  11.096   3.399   2.963
 8386W        W12586   5.819  10.563  11.784
 8387W        W12587   4.533   4.867   0.094
 8388W        W12588   1.714   4.893   3.161
 8389W        W12589   8.080   1.831   9.451
 8390W        W12590   9.842   3.426   3.149
 8391W        W12591   7.879   1.760   1.018
 8392W        W12592  11.344  11.029  11.563
 8393W        W12593   5.175   6.499   0.174
 8394W        W12594   2.183  11.474   9.379
 8395W        W12595   0.648  11.081   0.275
 8396W        W12596   5.195   1.845   1.324
 8397W        W12597   6.461   5.051  10.959
 8398W        W12598   3.139   4.303   1.339
 8399W        W12599   1.784   9.934   2.802
 8400W        W12600   4.643   8.280   3.714
 8401W        W12601   6.982   8.872   0.097
 8402W        W12602   5.075   1.895   9.313
 8403W        W12603   2.048  11.071   8.608
 8404W        W12604   7.436   3.281   1.581
 8405W        W12605   0.241   1.070   0.894
 8406W        W12606   1.008  11.001  11.495
 8407W        W12607   4.469  11.070  11.931
 8408W        W12608   1.147  10.057   8.916
 8409W        W12609   5.607   9.806  11.446
 8410W        W12610   5.214   0.423   2.744
 8411W        W12611   3.286   3.269  11.065
 8412W        W12612  10.074   6.033   2.110
 8413W        W12613   0.492  10.556   0.080
 8414W        W12614   2.121   4.570   3.131
 8415W        W12615   3.382   2.419  11.490
 8416W        W12616   4.293   2.176   1.230
 8417W        W12617   5.849   8.668  11.849
 8418W        W12618   6.035   0.326  11.288
 8419W        W12619   4.191   0.255   2.795
 8420W        W12620   0.798   4.519   0.323
 8421W        W12621   9.928   8.584   1.065
 8422W        W12622   6.030   0.829  11.069
 8423W        W12623   5.203   0.540   9.246
 8424W        W12624   8.995   2.519  11.959
 8425W        W12625   7.752   6.158  10.231
 8426W        W12626   2.086   5.073   9.538
 8427W        W12627   2.440   0.356  10.848
 8428W        W12628   9.997   5.376   3.403
 8429W        W12629   5.099   9.127   9.478
 8430W        W12630   4.369   7.193   1.460
 8431W        W12631   8.426   0.248   0.401
 8432W        W12632   0.877  10.214  10.964
 8433W        W12633   2.079   9.466   0.759
 8434W        W12634   4.840   3.830  10.492
 8435W        W12635   3.536   5.243   0.872
 8436W        W12636   1.204   3.113   2.309
 8437W        W12637   7.275   0.554   1.382
 8438W        W12638   0.280   3.928   1.520
 8439W        W12639   8.853   2.255   9.906
 8440W        W12640   0.162  10.974   0.440
 8441W        W12641   9.474   9.854   9.888
 8442W        W12642  10.402   6.174  11.654
 8443W        W12643   1.300   6.473   9.264
 8444W        W12644   8.828   4.085  10.400
 8445W        W12645   7.963   7.503   0.289
 8446W        W12646   0.726   2.782  11.454
 8447W        W12647   6.348   7.606   4.055
 8448W        W12648   0.481   4.814   8.948
 8449W        W12649   4.936   0.447   2.295
 8450W        W12650   6.990  10.242  10.013
 8451W        W12651   3.883   8.820   3.537
 8452W        W12652   4.539   8.901  11.429
 8453W        W12653   4.608   2.343   2.171
 8454W        W12654   0.569   4.305   1.222
 8455W        W12655   3.739   7.139   8.886
 8456W        W12656   0.364   6.469  10.189
 8457W        W12657   0.272   0.873   9.720
 8458W        W12658   5.781   8.132  11.998
 8459W        W12659   5.619   9.302  10.772
 8460W        W12660   1.898   1.079   0.222
 8461W        W12661   2.810   4.671   9.147
 8462W        W12662  10.737   7.154   2.225
 8463W        W12663  10.372   7.140   0.739
 8464W        W12664  10.612   1.340   1.074
 8465W        W12665   6.169   0.379   0.653
 8466W        W12666  11.417   8.165   2.613
 8467W        W12667   2.569   1.592   9.010
 8468W        W12668   4.399   6.603  10.450
 8469W        W12669   8.587  10.244  10.566
 8470W        W12670   3.313   0.306   9.631
 8471W        W12671   3.206   3.654  10.356
 8472W        W12672   7.110   6.055   0.855
 8473W        W12673   7.043   7.592   8.964
 8474W        W12674   8.147   1.848  10.495
 8475W        W12675  11.390   4.121   1.874
 8476W        W12676   4.787   1.906  11.679
 8477W        W12677   6.985   5.730  10.436
 8478W        W12678   6.028   9.569  10.578
 8479W        W12679   5.100   7.830   9.801
 8480W        W12680   3.819   3.633   9.753
 8481W        W12681   1.024   8.942   1.541
 8482W        W12682   5.178   8.697   0.605
 8483W        W12683   7.961   7.044   2.065
 8484W        W12684   9.144   5.184   0.461
 8485W        W12685   4.791  10.389   9.655
 8486W        W12686   8.383   5.513  10.318
 8487W        W12687   2.648  10.890   0.619
 8488W        W12688   9.381   0.841   1.260
 8489W        W12689   9.784   2.644   9.088
 8490W        W12690  10.851   3.009   9.922
 8491W        W12691  11.366   0.567  11.262
 8492W        W12692   2.780   1.024  11.427
 8493W        W12693   2.196   2.160   3.414
 8494W        W12694   9.461   1.464  10.096
 8495W        W12695   5.927   1.820  10.205
 8496W        W12696   4.504   7.609   2.711
 8497W        W12697   5.439   6.110   2.754
 8498W        W12698   4.734   8.529   2.888
 8499W        W12699   4.219   2.916   1.924
 8500W        W12700   6.067  10.961   0.690
 8501W        W12701   7.898   4.191  10.586
 8502W        W12702   4.275  11.059   0.405
 8503W        W12703   5.183  11.425  11.114
 8504W        W12704   7.225   9.252   9.938
 8505W        W12705   9.382   6.177  11.540
 8506W        W12706  10.680   3.897   3.598
 8507W        W12707   3.951   8.010  10.495
 8508W        W12708   6.792  10.769  10.782
 8509W        W12709   4.896  10.092   0.954
 8510W        W12710   1.654   0.893   3.465
 8511W        W12711   7.081  10.476   9.434
 8512W        W12712   9.836  10.783   8.990
 8513W        W12713   2.132   0.190   2.436
 8514W        W12714   2.389   6.116  11.332
 8515W        W12715   4.163   1.719   9.148
 8516W        W12716  10.469   4.316  11.016
 8517W        W12717   9.785   0.406   1.293
 8518W        W12718   0.918   4.984   0.511
 8519W        W12719   1.315   5.313   9.922
 8520W        W12720   8.481   5.804   0.810
 8521W        W12721   1.164   8.150  11.304
 8522W        W12722   0.217   3.457  11.944
 8523W        W12723   2.730   3.856   0.671
 8524W        W12724   2.619   5.090   9.421
 8525W        W12725   9.880   5.700   0.745
 8526W        W12726   8.582   8.277   1.029
 8527W        W12727   5.973   9.386   8.558
 8528W        W12728   9.609   3.139  10.536
 8529W        W12729   6.346   2.093   1.734
 8530W        W12730   5.823   9.862   1.475
 8531W        W12731   7.129   9.876   2.182
 8532W        W12732   4.650  11.262   9.607
 8533W        W12733   5.704   8.334   9.483
 8534W        W12734   5.660   5.816   1.982
 8535ION    NA+12735   2.771   6.702  11.894
 8536ION    NA+12736   4.184   1.071   2.059
 8537ION    NA+12737   1.192  10.663   3.391
 8538ION    NA+12738   6.825   0.885   1.373
 8539ION    NA+12739   7.206   3.417   9.470
 8540ION    NA+12740  10.150   9.502   3.499
 8541ION    NA+12741  11.458   2.012  11.412
 8542ION    NA+12742   5.636   4.064   0.649
 8543ION    NA+12743  11.242   7.142   9.644
 8544ION    NA+12744   8.225   4.616   9.421
 8545ION    NA+12745   6.822   6.440  10.906
 8546ION    NA+12746   7.751   2.277   1.668
 8547ION    NA+12747   8.050   4.977   0.991
 8548ION    NA+12748   8.119   2.296   3.252
 8549ION    NA+12749   1.837  10.999   0.997
 8550ION    NA+12750   0.912   9.291  11.892
 8551ION    NA+12751   7.857   6.236  11.513
 8552ION    NA+12752   5.333   1.580   3.197
 8553ION    NA+12753   3.992  10.436  10.459
 8554ION    NA+12754   1.840   3.113   9.925
 8555ION    NA+12755   9.846   4.725   2.270
 8556ION    NA+12756   0.856   8.674   0.824
 8557ION    NA+12757   6.324   7.424  11.917
 8558ION    NA+12758   8.052   3.408   3.130
 8559ION    NA+12759   8.872   6.309  10.670
 8560ION    NA+12760   9.739   7.747   0.950
 8561ION    NA+12761   6.385  10.989   3.175
 8562ION    NA+12762   8.240   2.288   0.404
 8563ION    NA+12763   0.926   2.812   9.652
 8564ION    NA+12764   2.116   0.626   0.297
 8565ION    NA+12765   3.400   2.837  11.797
 8566ION    NA+12766   6.596   7.673   1.895
 8567ION    NA+12767   3.211   4.887   8.253
 8568ION    NA+12768   4.669  11.142   2.553
 8569ION    NA+12769   5.694  10.286   1.216
 8570ION    NA+12770   3.167   4.709  10.832
 8571ION    NA+12771  10.438   0.484  11.508
 8572ION    NA+12772   7.113   7.546   3.425
 8573ION    NA+12773   7.638   3.769   0.261
 8574ION    NA+12774  10.239   7.442  11.970
 8575ION    NA+12775   3.698   9.988   2.187
 8576ION    NA+12776   3.221   1.130  10.180
 8577ION    NA+12777   1.461   7.666  10.006
 8578ION    NA+12778   1.419   8.815   8.917
 8579ION    NA+12779   3.120   9.428  11.823
 8580ION    NA+12780   8.914   0.156   1.297
 8581ION    NA+12781   0.543   5.237   9.806
 8582ION    NA+12782   5.602   7.089   2.424
 8583ION    NA+12783   2.914   3.859   9.395
 8584ION    NA+12784   7.023   5.623   0.559
 8585ION    NA+12785   3.497  11.423   1.730
 8586ION    NA+12786   0.928  10.822   2.321
 8587ION    NA+12787   4.825   6.535   1.926
 8588ION    NA+12788   1.037   6.272   3.097
 8589ION    NA+12789   9.801   2.131   8.883
 8590ION    NA+12790   6.658   6.902   3.163
 8591ION    NA+12791   9.178  10.349   1.844
 8592ION    NA+12792   1.500   4.161   0.734
 8593ION    NA+12793   1.664   4.369   1.873
 8594ION    NA+12794   3.371   6.206   3.334
 8595ION    NA+12795   9.631   7.678   3.482
 8596ION    NA+12796   5.767   8.033  11.480
 8597ION    NA+12797   1.169   6.008   9.690
 8598ION    NA+12798   8.460   3.635   2.219
 8599ION    NA+12799   9.822   2.332   3.773
 8600ION    NA+12800   7.406   1.745   0.046
 8601ION    NA+12801   8.537   8.381   2.495
 8602ION    NA+12802   0.025  11.074   3.274
 8603ION    NA+12803   6.814   7.488   4.213
 8604ION    NA+12804   5.320  11.280  11.579
 8605ION    NA+12805   6.044   2.551   2.608
 8606ION    NA+12806   8.293   8.544   9.817
 8607ION    NA+12807   7.333   8.871   1.435
 8608ION    NA+12808   4.738  10.210   2.196
 8609ION    NA+12809   4.275   5.816   2.013
 8610ION    NA+12810   0.033   8.007   1.911
 8611ION    NA+12811   4.155  10.052   1.274
 8612ION    NA+12812   8.146   0.943   9.770
 8613ION    NA+12813   4.359   5.913   0.384
 8614ION    NA+12814  10.089   0.426   0.869
 8615ION    NA+12815   9.728   7.868   9.033
 8616ION    NA+12816   6.010   3.906   1.838
 8617ION    NA+12817   7.326   9.362  10.828
 8618ION    NA+12818   5.920   3.245   3.347
 8619ION    NA+12819   1.769   1.150   1.359
 8620ION    NA+12820   7.666   2.849   8.613
 8621ION    NA+12821   6.193   8.484   9.493
 8622ION    NA+12822   0.652   4.678   1.615
 8623ION    NA+12823   3.176   6.595   8.597
 8624ION    NA+12824   4.132   6.805   0.255
 8625ION    CL-12825   5.532   1.703   2.113
 8626ION    CL-12826   0.205   7.859  11.289
 8627ION    CL-12827  11.332   4.321   8.638
 8628ION    CL-12828   2.111   8.515   2.312
 8629ION    CL-12829   7.018   7.822   1.871
 8630ION    CL-12830   4.663   8.940   1.519
 8631ION    CL-12831   8.197   3.598  11.387
 8632ION    CL-12832   0.145   7.830   2.303
 8633ION    CL-12833   9.247   5.861   3.568
 8634ION    CL-12834   0.274   0.875   0.212
 8635ION    CL-12835   7.457  11.485   0.821
 8636ION    CL-12836   3.316  11.339   1.332
 8637ION    CL-12837   6.941   3.145   9.704
 8638ION    CL-12838   5.026   0.528   1.394
 8639ION    CL-12839  11.482  11.452   3.025
 8640ION    CL-12840   4.769   1.189  11.023
 8641ION    CL-12841   5.807   9.923   0.965
 8642ION    CL-12842  11.132   7.355   9.266
 8643ION    CL-12843   0.260   4.450   1.622
 8644ION    CL-12844   6.049   7.769  11.748
 8645ION    CL-12845  10.609  10.946  10.121
 8646ION    CL-12846   3.574  11.330  11.985
 8647ION    CL-12847   7.229   1.051   1.472
 8648ION    CL-12848   9.107   1.563   3.543
 8649ION    CL-12849   3.250  11.137   9.114
 8650ION    CL-12850   0.978  10.353   9.593
 8651ION    CL-12851   3.430   2.969   3.196
 8652ION    CL-12852   6.886   7.292   3.107
 8653ION    CL-12853   6.703   2.782  10.606
 8654ION    CL-12854  11.464   3.551   1.301
 8655ION    CL-12855   2.361   0.436  10.132
 8656ION    CL-12856   9.473  10.649  10.357
 8657ION    CL-12857   1.108   7.943   3.384
 8658ION    CL-12858   6.475   7.272   4.429
 8659ION    CL-12859   8.472   4.954   3.643
 8660ION    CL-12860   5.380   2.854   8.534
 8661ION    CL-12861   8.189   6.513   2.761
 8662ION    CL-12862   6.985   9.489   2.505
 8663ION    CL-12863   5.192   3.389   2.742
 8664ION    CL-12864  11.206   3.558  11.930
 8665ION    CL-12865  10.530   3.208   1.399
 8666ION    CL-12866   7.522   7.317   9.659
 8667ION    CL-12867   1.019   1.515   0.403
 8668ION    CL-12868   3.335   1.555  10.105
 8669ION    CL-12869  10.881   3.601  10.116
 8670ION    CL-12870   1.350   1.236   9.656
 8671ION    CL-12871  11.435   5.494   2.329
 8672ION    CL-12872   2.660   6.829   9.976
 8673ION    CL-12873   6.889   9.416  10.762
 8674ION    CL-12874   8.311   4.609   0.961
 8675ION    CL-12875   4.256   8.738  11.014
 8676ION    CL-12876   5.301   3.764   0.671
 8677ION    CL-12877   0.224   5.264  10.120
 8678ION    CL-12878   5.816   4.170   2.145
 8679ION    CL-12879   9.120   9.571   3.550
 8680ION    CL-12880  10.974   5.542   8.104
 8681ION    CL-12881   3.021   7.761   9.890
 8682ION    CL-12882   5.317   1.179  11.962
 8683ION    CL-12883   9.900   6.688   1.202
 8684ION    CL-12884   9.200   7.178   2.916
 8685ION    CL-12885   4.086   7.261   0.299
 8686ION    CL-12886   9.316   6.385  10.665
 8687ION    CL-12887   0.693   4.644   2.886
 8688ION    CL-12888  10.429  10.448   1.142
 8689ION    CL-12889   7.129  10.111   1.282
 8690ION    CL-12890   5.309   3.700   9.625
 8691ION    CL-12891   4.543   6.185   2.008
 8692ION    CL-12892   4.231   6.348   0.302
 8693ION    CL-12893  10.882   0.874   8.502
 8694ION    CL-12894   5.536   8.311  11.196
 8695ION    CL-12895   5.326   3.113  11.551
 8696ION    CL-12896   4.457   3.067   8.854
 8697ION    CL-12897   9.964   7.464  11.618
 8698ION    CL-12898   0.744   5.998   3.329
 8699ION    CL-12899  10.112   3.118   2.774
 8700ION    CL-12900   9.338   7.818   0.763
 8701ION    CL-12901   7.486   1.763  11.607
 8702ION    CL-12902   2.723   5.665   2.130
 8703ION    CL-12903   5.674  10.702   1.406
 8704ION    CL-12904   1.240   2.295   1.855
 8705ION    CL-12905   1.156  11.271  11.039
 8706ION    CL-12906   4.893   1.926   9.814
 8707ION    CL-12907   8.072  11.282   1.861
 8708ION    CL-12908   1.434   9.441   2.698
 8709ION    CL-12909   6.628   7.107   0.037
 8710ION    CL-12910   1.750  10.751  10.344
 8711ION    CL-12911   0.860   4.988   1.348
 8712ION    CL-12912   6.047   9.555  11.552
 8713ION    CL-12913   5.148  10.201   8.636
 8714ION    CL-12914   9.526  10.315   1.566
  11.50000  11.50000  12.00000
