Protein in INSANE! Membrane UpperLeaflet>POPC=1.0 LowerLeaflet>POPC=1.0
11125
    1AU     AUC    1   2.770   3.485   6.457 -0.0875  0.0177  0.0148
    1AU     AUC    2   2.591   3.351   6.665  0.1218 -0.0009 -0.0431
    1AU     AUC    3   2.589   3.704   6.596  0.0166 -0.0279  0.0007
    1AU     AUC    4   2.939   3.320   6.241 -0.0351  0.0858  0.0057
    1AU     AUC    5   2.969   3.654   6.215  0.0662  0.0094  0.1003
    1AU     AUC    6   3.098   3.488   6.497 -0.0259 -0.0294  0.0371
    1AU     AUC    7   2.869   3.499   6.763 -0.0232 -0.0283 -0.1008
    1AU     AUC    8   2.686   3.479   6.146 -0.0507  0.0144  0.0265
    1AU     AUC    9   2.437   3.508   6.378  0.0473  0.0940  0.0035
    1AU     AUC   10   2.645   3.762   6.307  0.0072 -0.1170 -0.0307
    1AU     AUC   11   2.914   3.767   6.529  0.0421  0.0207 -0.0665
    1AU     AUC   12   2.667   3.209   6.359 -0.0343 -0.0376 -0.0924
    1AU     AUC   13   2.870   3.222   6.587 -0.0583 -0.0415 -0.0628
    1AU     AUC   14   2.402   3.200   6.922  0.0068  0.1041 -0.0568
    1AU     AUC   15   2.359   3.566   6.857  0.0332 -0.0047 -0.1046
    1AU     AUC   16   2.366   3.921   6.797 -0.1533  0.0775 -0.0992
    1AU     AUC   17   3.133   3.151   6.004 -0.0162 -0.0236  0.0443
    1AU     AUC   18   3.183   3.482   5.966  0.0100 -0.1045  0.0050
    1AU     AUC   19   3.182   3.814   6.033  0.0633  0.0088 -0.0205
    1AU     AUC   20   3.440   3.462   6.561 -0.0359  0.0482 -0.0613
    1AU     AUC   21   3.216   3.460   6.860  0.0077  0.0499  0.0226
    1AU     AUC   22   2.941   3.540   7.092  0.0720  0.0530  0.0125
    1AU     AUC   23   2.586   3.474   5.790  0.0085 -0.0248 -0.0133
    1AU     AUC   24   2.313   3.480   6.046  0.0891 -0.0189 -0.1267
    1AU     AUC   25   2.101   3.503   6.327  0.0250  0.0437 -0.0571
    1AU     AUC   26   2.516   4.037   6.147  0.0839 -0.0645  0.0997
    1AU     AUC   27   2.811   4.096   6.394  0.0445 -0.0236 -0.0641
    1AU     AUC   28   3.024   4.064   6.626 -0.0324 -0.1494  0.0659
    1AU     AUC   29   2.486   2.942   6.268  0.0413 -0.0465 -0.0483
    1AU     AUC   30   2.744   2.889   6.472  0.0274 -0.0437  0.1853
    1AU     AUC   31   3.002   2.943   6.647  0.0224  0.0107 -0.0019
    1AU     AUC   32   2.426   4.013   6.438 -0.0424 -0.0377  0.0185
    1AU     AUC   33   2.687   4.031   6.710  0.0157  0.0390 -0.0013
    1AU     AUC   34   2.439   3.014   6.644 -0.0549  0.0324 -0.0237
    1AU     AUC   35   2.698   3.062   6.839 -0.0960  0.0515  0.0369
    1AU     AUC   36   2.885   3.997   6.082 -0.0338  0.0372  0.0549
    1AU     AUC   37   3.167   3.973   6.353 -0.0489  0.0144 -0.0224
    1AU     AUC   38   2.796   3.008   6.108  0.0519  0.0451  0.0074
    1AU     AUC   39   3.071   2.995   6.302  0.0338  0.1105  0.0213
    1AU     AUC   40   2.633   3.406   7.033 -0.0512  0.0323  0.0633
    1AU     AUC   41   2.666   3.748   6.916 -0.0032 -0.0495 -0.0037
    1AU     AUC   42   3.317   3.305   6.255 -0.0914  0.0437  0.0527
    1AU     AUC   43   3.356   3.628   6.283  0.0620 -0.0053 -0.0253
    1AU     AUC   44   2.223   3.376   6.630  0.0133  0.0475 -0.0578
    1AU     AUC   45   2.237   3.727   6.546  0.0078  0.0211  0.0372
    1AU     AUC   46   2.861   3.325   5.840  0.0694 -0.0583 -0.0928
    1AU     AUC   47   2.897   3.682   5.912 -0.0446  0.0986  0.0612
    1AU     AUC   48   3.273   3.757   6.638 -0.0012  0.0108 -0.0145
    1AU     AUC   49   3.019   3.813   6.859  0.0926 -0.1176 -0.0235
    1AU     AUC   50   2.559   3.743   5.979 -0.0647 -0.0346  0.0133
    1AU     AUC   51   2.275   3.767   6.179 -0.1197  0.0337 -0.0220
    1AU     AUC   52   3.216   3.176   6.603  0.1123 -0.0723 -0.0005
    1AU     AUC   53   2.991   3.222   6.925  0.0109 -0.0028  0.0120
    1AU     AUC   54   2.503   3.190   6.007  0.0058  0.0185 -0.0694
    1AU     AUC   55   2.285   3.232   6.319 -0.0069  0.0648  0.0646
    1AU    AUSL   56   2.375   4.310   6.661 -0.0811  0.0144  0.0656
    1AU    AUSL   57   2.173   4.199   6.250 -0.0650  0.0096  0.0304
    1AU     AUL   58   2.095   4.427   6.563  0.0330 -0.0619  0.0298
    1AU       S   59   1.753   4.258   6.297  0.1006 -0.2531 -0.1376
    1AU     LIG   60   1.616   4.535   5.975 -0.3094 -0.1078 -0.0380
    1AU     LIG   61   1.451   4.906   6.074 -0.1088  0.1170 -0.2729
    1AU     LIG   62   1.288   5.090   6.372 -0.2590 -0.1850  0.0597
    1AU     LIG   63   1.011   4.971   6.620 -0.0326 -0.0938  0.1475
    1AU       S   64   2.378   4.767   6.516 -0.0107  0.2175  0.2822
    1AU     LIG   65   2.136   5.161   6.521  0.3649 -0.4183  0.1437
    1AU     LIG   66   1.763   5.425   6.408  0.0143 -0.0074 -0.1906
    1AU     LIG   67   1.485   5.526   6.101  0.0275  0.0030 -0.1780
    1AU     LIG   68   1.251   5.930   5.869  0.1379 -0.1620 -0.2197
    1AU    AUSL   69   2.563   4.400   6.281  0.0310 -0.0381  0.0505
    1AU    AUSL   70   3.046   4.410   6.362  0.0253  0.0365 -0.0497
    1AU     AUL   71   2.806   4.637   6.488 -0.0929 -0.0185  0.0672
    1AU       S   72   2.398   4.647   6.182  0.4675 -0.0507  0.1322
    1AU     LIG   73   2.017   4.777   6.021 -0.0268 -0.2996 -0.0053
    1AU     LIG   74   1.904   5.196   5.992  0.0414  0.0658 -0.2206
    1AU     LIG   75   1.983   5.462   5.745  0.0830 -0.0744  0.3046
    1AU     LIG   76   2.339   5.536   5.646  0.0823 -0.1800  0.2474
    1AU       S   77   2.998   4.597   6.071 -0.0461 -0.1953 -0.3390
    1AU     LIG   78   2.884   5.028   6.179 -0.2587  0.1557  0.0263
    1AU     LIG   79   2.723   5.170   6.562 -0.0601  0.2413 -0.0749
    1AU     LIG   80   2.505   5.202   6.861 -0.0058  0.0879  0.0563
    1AU     LIG   81   2.327   5.161   7.235  0.3667  0.3452 -0.0451
    1AU    AUSL   82   2.787   4.172   6.626  0.0019  0.0724 -0.0184
    1AU    AUSL   83   2.539   4.168   7.062 -0.0239 -0.0209  0.0566
    1AU     AUL   84   2.596   4.472   6.887  0.0012  0.0480  0.0609
    1AU       S   85   3.198   4.587   6.776 -0.0421  0.2642  0.2810
    1AU     LIG   86   3.359   4.909   6.573 -0.2584  0.2494  0.3162
    1AU     LIG   87   3.268   5.305   6.314 -0.2459 -0.5504 -0.2448
    1AU     LIG   88   3.542   5.707   6.329  0.5104  0.1384 -0.1012
    1AU     LIG   89   3.537   6.051   6.615  0.1619 -0.0416 -0.0039
    1AU       S   90   2.697   4.382   7.348  0.1441  0.4576 -0.2671
    1AU     LIG   91   2.313   4.619   7.323  0.3669  0.1944 -0.0574
    1AU     LIG   92   2.061   4.799   6.972 -0.1844  0.4315  0.1547
    1AU     LIG   93   1.849   5.115   6.954 -0.0541 -0.2634 -0.0910
    1AU     LIG   94   1.525   5.086   6.823  0.2948  0.3986 -0.2723
    1AU    AUSL   95   2.519   2.788   6.981  0.0500 -0.1455 -0.0500
    1AU    AUSL   96   2.890   3.018   7.031  0.0437  0.0280  0.0106
    1AU     AUL   97   2.837   2.696   7.189  0.0669 -0.0320 -0.1013
    1AU       S   98   2.585   2.305   7.012 -0.2606  0.2521  0.1497
    1AU     LIG   99   2.304   1.917   6.991  0.0180  0.0253  0.4045
    1AU     LIG  100   2.342   1.430   7.097 -0.1985 -0.4122  0.0234
    1AU     LIG  101   2.294   1.126   6.785 -0.1471  0.1240 -0.3079
    1AU     LIG  102   2.005   0.786   6.854 -0.1874  0.0968 -0.1344
    1AU       S  103   2.646   2.922   7.542 -0.0726  0.2216  0.0607
    1AU     LIG  104   2.402   2.483   7.474 -0.1652 -0.0713  0.1882
    1AU     LIG  105   2.562   2.225   7.591 -0.1365  0.3753  0.2498
    1AU     LIG  106   2.846   1.962   7.681  0.2479  0.2106  0.3182
    1AU     LIG  107   3.161   1.706   7.427  0.1266 -0.4743  0.6147
    1AU    AUSL  108   2.404   2.634   6.600 -0.0436  0.0590 -0.0464
    1AU    AUSL  109   2.151   2.949   6.836  0.0312 -0.0055 -0.0882
    1AU     AUL  110   2.225   2.614   6.979  0.0660 -0.0032 -0.0297
    1AU       S  111   1.880   2.683   6.701  0.0769 -0.2039 -0.0876
    1AU     LIG  112   1.835   2.292   6.901  0.0557 -0.0056  0.0896
    1AU     LIG  113   1.810   1.814   6.971 -0.1384 -0.6683 -0.1568
    1AU     LIG  114   1.696   1.354   6.846  0.1348 -0.0369  0.0815
    1AU     LIG  115   1.563   0.873   6.705 -0.2617  0.1503 -0.0630
    1AU       S  116   2.655   2.306   6.874  0.2716  0.0144  0.1271
    1AU     LIG  117   2.663   1.950   6.658 -0.0911 -0.0405 -0.0803
    1AU     LIG  118   2.500   1.550   6.625  0.1576 -0.3818  0.4856
    1AU     LIG  119   2.674   1.117   6.374 -0.0679  0.0679  0.4257
    1AU     LIG  120   2.749   0.834   6.144 -0.1315 -0.3016  0.0647
    1AU    AUSL  121   2.827   2.752   6.696 -0.0762  0.0086  0.0445
    1AU    AUSL  122   2.665   2.689   6.263  0.1062  0.0383 -0.0053
    1AU     AUL  123   2.572   2.451   6.435  0.0096 -0.0810 -0.0075
    1AU       S  124   2.875   2.260   6.101 -0.2045  0.2512 -0.7156
    1AU     LIG  125   2.782   1.851   6.146  0.2483  0.1860 -0.0150
    1AU     LIG  126   2.517   1.570   6.068 -0.0584 -0.0793 -0.1080
    1AU     LIG  127   2.126   1.539   6.257  0.0628  0.0211  0.0270
    1AU     LIG  128   1.960   1.181   6.463 -0.1550  0.3826  0.2222
    1AU       S  129   2.827   2.411   6.807  0.2347 -0.3670  0.3004
    1AU     LIG  130   3.188   2.347   6.843  0.1476 -0.0921 -0.1380
    1AU     LIG  131   3.587   2.223   6.544  0.1172  0.0207  0.3872
    1AU     LIG  132   3.969   2.037   6.616  0.1618  0.1916 -0.0576
    1AU     LIG  133   4.181   1.745   6.383 -0.1275  0.2152 -0.1846
    1AU    AUSL  134   3.268   4.194   6.009  0.0858 -0.0619  0.0130
    1AU    AUSL  135   3.339   4.137   6.539 -0.0545  0.0318 -0.0860
    1AU     AUL  136   3.357   4.401   6.334 -0.0142  0.1241  0.0062
    1AU       S  137   3.244   4.663   5.936  0.1347  0.4638  0.0442
    1AU     LIG  138   3.614   4.901   6.116 -0.2949 -0.2172  0.2537
    1AU     LIG  139   3.957   4.982   6.353 -0.0340 -0.0143  0.0860
    1AU     LIG  140   4.273   5.200   6.433  0.3509 -0.3349 -0.0816
    1AU     LIG  141   4.506   5.571   6.707 -0.0572 -0.0725 -0.2066
    1AU       S  142   3.741   4.159   6.381 -0.0203  0.0700 -0.3559
    1AU     LIG  143   3.726   4.555   6.613 -0.0944 -0.1274 -0.2521
    1AU     LIG  144   3.823   4.957   6.815  0.0481 -0.1925  0.0302
    1AU     LIG  145   3.603   5.404   6.767  0.0783  0.4114  0.1112
    1AU     LIG  146   3.223   5.671   6.721 -0.0333 -0.1137 -0.0519
    1AU    AUSL  147   2.846   4.135   6.112 -0.0236 -0.0080  0.0843
    1AU    AUSL  148   2.948   4.059   5.695 -0.1195 -0.1084  0.0697
    1AU     AUL  149   3.182   4.220   5.733  0.0732 -0.0589  0.0678
    1AU       S  150   2.805   4.348   5.432 -0.0372  0.3991 -0.3431
    1AU     LIG  151   3.123   4.623   5.324  0.0235  0.2656  0.2689
    1AU     LIG  152   3.489   4.943   5.278  0.3980  0.0018 -0.2296
    1AU     LIG  153   3.879   5.045   5.455 -0.1771 -0.0885 -0.1664
    1AU     LIG  154   4.114   5.500   5.518  0.2759 -0.2786 -0.1122
    1AU       S  155   2.876   4.519   5.952 -0.0582 -0.0429  0.3968
    1AU     LIG  156   2.795   4.786   5.635 -0.0486 -0.1794 -0.1862
    1AU     LIG  157   3.121   5.117   5.615  0.3138 -0.0814  0.0794
    1AU     LIG  158   2.923   5.450   5.828 -0.0101  0.2071 -0.2930
    1AU     LIG  159   2.924   5.684   6.207  0.4728  0.1634  0.0125
    1AU    AUSL  160   3.006   2.735   5.999  0.0620 -0.0711 -0.0356
    1AU    AUSL  161   2.584   2.945   5.926  0.0055  0.0484 -0.0863
    1AU     AUL  162   2.532   2.577   5.964 -0.0179  0.0271  0.0376
    1AU       S  163   3.003   2.361   5.971  0.3861 -0.1856  0.1295
    1AU     LIG  164   3.456   2.080   6.064  0.0883  0.1023  0.0776
    1AU     LIG  165   3.913   2.053   6.104  0.1623  0.1086  0.1374
    1AU     LIG  166   4.200   1.940   5.935 -0.2201 -0.0484  0.0705
    1AU     LIG  167   4.527   1.699   5.946 -0.0787 -0.3572 -0.4877
    1AU       S  168   2.746   2.700   5.578 -0.2224 -0.4435  0.0731
    1AU     LIG  169   2.691   2.342   5.559 -0.2608 -0.0345  0.1569
    1AU     LIG  170   2.455   2.060   5.787  0.0012 -0.2184  0.1249
    1AU     LIG  171   2.309   1.995   6.221 -0.3286 -0.2124 -0.2730
    1AU     LIG  172   2.157   2.188   6.605 -0.3584 -0.0187 -0.0860
    1AU    AUSL  173   3.068   2.568   6.405  0.0712 -0.0684  0.0232
    1AU    AUSL  174   3.406   2.869   6.095  0.0768 -0.0894 -0.0255
    1AU     AUL  175   3.338   2.596   6.175 -0.1313  0.0191 -0.0294
    1AU       S  176   3.834   2.665   6.025 -0.1688 -0.0061  0.0659
    1AU     LIG  177   3.888   2.910   5.630 -0.0408  0.3270  0.0433
    1AU     LIG  178   3.843   3.116   5.315  0.0472 -0.5726 -0.0204
    1AU     LIG  179   3.740   2.889   4.960 -0.0933  0.2959  0.0348
    1AU     LIG  180   3.600   2.992   4.567 -0.2556  0.1459  0.1267
    1AU       S  181   3.018   2.287   6.301 -0.0354 -0.3222 -0.2527
    1AU     LIG  182   3.165   1.761   6.494 -0.0855  0.4918 -0.1088
    1AU     LIG  183   3.080   1.332   6.647 -0.1390 -0.2783 -0.0124
    1AU     LIG  184   2.800   0.984   6.909  0.0068 -0.0980  0.0725
    1AU     LIG  185   2.719   0.549   6.994  0.1831  0.0690 -0.2089
    1AU    AUSL  186   2.620   3.597   7.327  0.0519 -0.0136 -0.0134
    1AU    AUSL  187   2.504   3.181   7.173 -0.0144 -0.0493 -0.0242
    1AU     AUL  188   2.530   3.388   7.598 -0.0711 -0.1024  0.0796
    1AU       S  189   2.447   2.990   7.382  0.2166 -0.1296 -0.3180
    1AU     LIG  190   2.074   2.942   7.377  0.0955  0.0100  0.0437
    1AU     LIG  191   1.812   2.711   7.190 -0.4708  0.0049  0.1298
    1AU     LIG  192   1.494   2.447   7.264  0.2559 -0.0001 -0.1668
    1AU     LIG  193   1.188   2.717   7.220 -0.0650  0.0621 -0.1554
    1AU       S  194   2.264   3.839   7.583 -0.1916  0.6143 -0.0504
    1AU     LIG  195   2.493   3.776   7.955 -0.1096  0.1937 -0.0336
    1AU     LIG  196   2.590   3.901   8.410 -0.2328 -0.4037  0.0627
    1AU     LIG  197   2.876   3.950   8.761  0.1019  0.1264 -0.0856
    1AU     LIG  198   3.226   4.016   9.045 -0.1906 -0.3382 -0.0461
    1AU    AUSL  199   2.194   3.453   7.255  0.0543  0.1129  0.0805
    1AU    AUSL  200   1.970   3.776   6.959 -0.0394  0.0556 -0.0167
    1AU     AUL  201   1.858   3.546   7.216  0.0792  0.0607  0.0024
    1AU       S  202   2.169   3.667   7.518 -0.1345  0.2009 -0.3280
    1AU     LIG  203   2.199   3.210   7.786  0.3942  0.0337 -0.3532
    1AU     LIG  204   2.094   2.783   7.858 -0.4619  0.1333 -0.0541
    1AU     LIG  205   1.743   2.548   7.695 -0.4786  0.0972  0.1691
    1AU     LIG  206   1.247   2.339   7.782 -0.1250  0.1702  0.0217
    1AU       S  207   1.519   3.701   6.889 -0.0653 -0.2148  0.0096
    1AU     LIG  208   1.369   4.151   6.802 -0.0886 -0.1485  0.1213
    1AU     LIG  209   1.254   4.577   7.004  0.0281 -0.0665 -0.1696
    1AU     LIG  210   1.145   5.172   7.093 -0.2231  0.0788  0.1329
    1AU     LIG  211   1.110   5.466   6.694 -0.2564  0.0853  0.2015
    1AU    AUSL  212   2.382   3.774   7.012 -0.0667  0.0415 -0.0721
    1AU    AUSL  213   2.844   3.864   7.088  0.0948  0.0613  0.0152
    1AU     AUL  214   2.664   3.892   7.341 -0.0567  0.0136  0.0109
    1AU       S  215   2.812   4.303   7.476  0.0994 -0.0332 -0.0151
    1AU     LIG  216   2.776   4.204   7.850  0.0127 -0.0460  0.2328
    1AU     LIG  217   2.459   4.320   8.123  0.2740 -0.0675  0.0183
    1AU     LIG  218   2.008   4.571   8.166  0.1677  0.0092  0.2126
    1AU     LIG  219   1.689   4.468   8.320 -0.2991 -0.0036 -0.1384
    1AU       S  220   2.194   3.930   7.338 -0.0478 -0.1808  0.2624
    1AU     LIG  221   1.778   3.987   7.340 -0.0755 -0.1011 -0.2815
    1AU     LIG  222   1.611   4.353   7.214  0.0985  0.1828 -0.0532
    1AU     LIG  223   1.712   4.514   6.806  0.2454 -0.2743 -0.0579
    1AU     LIG  224   1.770   4.805   6.501  0.0912 -0.2216 -0.0083
    1AU    AUSL  225   3.616   3.457   6.283  0.0823 -0.0958 -0.0365
    1AU    AUSL  226   3.421   3.859   6.214  0.0579 -0.0197  0.0348
    1AU     AUL  227   3.869   3.672   6.227  0.0229 -0.0059  0.1262
    1AU       S  228   3.714   4.120   6.139  0.1350  0.0782  0.4485
    1AU     LIG  229   4.150   3.976   6.026  0.1180  0.0475  0.1788
    1AU     LIG  230   4.526   3.779   6.023  0.1578  0.2918 -0.3340
    1AU     LIG  231   4.989   3.846   6.184 -0.3924  0.0491  0.1063
    1AU     LIG  232   5.313   3.593   6.374 -0.2167  0.0965  0.0421
    1AU       S  233   3.984   3.407   6.598  0.3006  0.1089 -0.0110
    1AU     LIG  234   4.395   3.475   6.590  0.0696  0.6369 -0.2133
    1AU     LIG  235   4.789   3.722   6.573  0.2420  0.2957  0.1366
    1AU     LIG  236   5.235   3.786   6.774  0.0934 -0.1708 -0.4971
    1AU     LIG  237   5.648   3.539   6.737 -0.1047 -0.1804 -0.0590
    1AU    AUSL  238   3.338   3.265   6.008  0.0204 -0.1105  0.0265
    1AU    AUSL  239   3.622   3.068   6.443 -0.0520  0.0779  0.1443
    1AU     AUL  240   3.710   3.129   6.108 -0.0080  0.0041 -0.0156
    1AU       S  241   3.388   2.868   5.640 -0.0872  0.0108 -0.1351
    1AU     LIG  242   3.361   2.504   5.715 -0.0352 -0.1023  0.0979
    1AU     LIG  243   3.150   2.168   5.519 -0.5479  0.1508  0.2834
    1AU     LIG  244   2.976   1.861   5.334 -0.3283 -0.1104 -0.1311
    1AU     LIG  245   2.866   1.823   4.961 -0.1397  0.0088  0.2664
    1AU       S  246   3.942   2.870   6.478 -0.1186  0.1190  0.1573
    1AU     LIG  247   3.881   2.543   6.840  0.0154  0.0588 -0.1670
    1AU     LIG  248   4.040   2.238   7.068  0.1381 -0.0368 -0.0697
    1AU     LIG  249   3.993   1.768   7.015 -0.0633  0.2310  0.0673
    1AU     LIG  250   3.862   1.322   7.128 -0.0429  0.2482  0.0279
    1AU    AUSL  251   3.535   3.630   5.861  0.0074 -0.0420 -0.0391
    1AU    AUSL  252   3.250   3.324   5.608  0.0890  0.0729 -0.0637
    1AU     AUL  253   3.572   3.311   5.713 -0.0254 -0.1241 -0.0394
    1AU       S  254   3.360   3.607   5.374  0.6478  0.3177 -0.2660
    1AU     LIG  255   3.722   3.597   5.204  0.0236 -0.4376 -0.0824
    1AU     LIG  256   3.697   4.009   5.280 -0.0600 -0.2009 -0.0032
    1AU     LIG  257   3.680   4.236   5.683  0.2683  0.3372 -0.1374
    1AU     LIG  258   3.895   4.604   5.873  0.1256  0.2916 -0.0494
    1AU       S  259   3.701   3.764   5.791  0.1244  0.0246 -0.0464
    1AU     LIG  260   4.074   3.451   5.803  0.1011  0.2346 -0.3091
    1AU     LIG  261   4.347   3.131   6.073  0.2342 -0.1567  0.3051
    1AU     LIG  262   4.734   2.893   6.135  0.2670 -0.0767  0.1333
    1AU     LIG  263   5.011   2.809   6.425 -0.1891  0.1736  0.4197
    1AU    AUSL  264   1.898   3.565   6.590  0.0357  0.0004  0.0124
    1AU    AUSL  265   2.174   3.935   6.615 -0.0409  0.0028 -0.0464
    1AU     AUL  266   1.857   3.981   6.727 -0.1553 -0.0208  0.0351
    1AU       S  267   1.632   3.567   6.576  0.5775 -0.2007  0.0523
    1AU     LIG  268   1.155   3.784   6.586  0.2285 -0.0246 -0.2981
    1AU     LIG  269   0.874   3.705   6.075  0.1184  0.1699  0.1038
    1AU     LIG  270   0.391   3.757   6.022 -0.3020  0.1589 -0.4255
    1AU     LIG  271   0.049   3.811   5.748 -0.0137  0.0517 -0.2202
    1AU       S  272   1.682   4.147   6.336 -0.2452 -0.0748  0.1731
    1AU     LIG  273   1.358   4.524   6.421 -0.0816 -0.0483 -0.2095
    1AU     LIG  274   1.020   4.643   6.189  0.3011  0.0123  0.0047
    1AU     LIG  275   0.748   4.960   5.929 -0.0717  0.2080 -0.3559
    1AU     LIG  276   0.289   4.928   5.830  0.0349 -0.1634  0.2471
    1AU    AUSL  277   2.181   3.371   6.831 -0.0103 -0.0068  0.0843
    1AU    AUSL  278   1.885   3.134   6.536  0.0528  0.0290  0.0426
    1AU     AUL  279   1.869   3.207   6.880 -0.0588  0.0718 -0.0554
    1AU       S  280   1.511   3.458   6.878 -0.1540 -0.1921 -0.1071
    1AU     LIG  281   1.292   3.059   6.840  0.0219 -0.1725  0.1403
    1AU     LIG  282   0.896   2.887   6.765 -0.0479 -0.3342  0.1400
    1AU     LIG  283   0.753   2.452   6.826 -0.0628 -0.0151 -0.0708
    1AU     LIG  284   0.896   2.151   7.017 -0.1812 -0.0816 -0.0933
    1AU       S  285   1.670   2.838   6.633 -0.5225  0.2661 -0.1663
    1AU     LIG  286   1.339   2.487   6.716  0.2014 -0.0587  0.0148
    1AU     LIG  287   1.074   2.209   6.563 -0.0390  0.4696 -0.1560
    1AU     LIG  288   0.991   1.924   6.217 -0.4070 -0.1206 -0.1615
    1AU     LIG  289   1.319   1.854   5.997  0.0094  0.0730 -0.0299
    1AU    AUSL  290   2.860   3.504   5.525  0.0270  0.0560  0.0305
    1AU    AUSL  291   2.944   3.113   5.778 -0.0067  0.0523 -0.0139
    1AU     AUL  292   3.042   3.196   5.394  0.0309 -0.0217 -0.0304
    1AU       S  293   2.879   2.781   5.554 -0.2939  0.1861  0.3190
    1AU     LIG  294   3.190   2.695   5.223 -0.0193  0.0913 -0.2448
    1AU     LIG  295   3.340   2.609   4.744  0.0711 -0.1161  0.0153
    1AU     LIG  296   3.469   2.565   4.405 -0.0176 -0.2305  0.0556
    1AU     LIG  297   3.432   2.874   4.072 -0.0336  0.2530  0.2074
    1AU       S  298   3.185   3.619   5.236 -0.2330 -0.1884  0.1741
    1AU     LIG  299   2.802   3.901   5.029 -0.2753  0.3879 -0.0308
    1AU     LIG  300   2.417   3.828   5.132  0.0274  0.0880 -0.0689
    1AU     LIG  301   2.101   4.179   5.141 -0.0501 -0.3377  0.0012
    1AU     LIG  302   1.720   4.294   5.065  0.1104  0.0356 -0.3224
    1AU    AUSL  303   3.122   3.698   5.815 -0.0749  0.0380 -0.0488
    1AU    AUSL  304   2.657   3.760   5.803  0.0729  0.0139  0.0034
    1AU     AUL  305   2.822   3.829   5.509 -0.0944 -0.0448  0.0475
    1AU       S  306   2.634   4.227   5.356  0.0074  0.2102  0.6790
    1AU     LIG  307   2.476   4.555   5.128  0.0627 -0.0119  0.3371
    1AU     LIG  308   2.287   4.880   5.311  0.0735  0.1188 -0.0164
    1AU     LIG  309   2.377   5.041   5.754  0.1579 -0.3577 -0.3794
    1AU     LIG  310   2.464   5.254   6.113  0.1346 -0.1638 -0.0865
    1AU       S  311   3.280   3.771   5.499 -0.0746  0.3376  0.1124
    1AU     LIG  312   3.258   4.147   5.219 -0.0048  0.3084 -0.1551
    1AU     LIG  313   2.972   4.389   4.969  0.2573 -0.1091  0.0623
    1AU     LIG  314   2.721   4.489   4.568 -0.2397 -0.0763  0.0330
    1AU     LIG  315   2.445   4.288   4.233  0.4346 -0.0023 -0.0706
    1AU    AUSL  316   3.243   3.903   6.871  0.0532 -0.0750  0.0437
    1AU    AUSL  317   3.563   3.757   6.598 -0.0586 -0.0868  0.0427
    1AU     AUL  318   3.491   4.158   6.804 -0.0446 -0.0859 -0.0580
    1AU       S  319   3.816   3.861   6.639  0.1939  0.1810  0.0530
    1AU     LIG  320   4.234   3.994   6.588 -0.4600  0.1813 -0.3809
    1AU     LIG  321   4.643   4.244   6.446 -0.1152  0.0671 -0.1042
    1AU     LIG  322   4.899   4.599   6.335  0.0602  0.0190  0.2134
    1AU     LIG  323   5.246   4.852   6.488 -0.2051 -0.1199  0.3724
    1AU       S  324   3.602   4.001   7.243 -0.2304 -0.2187 -0.2335
    1AU     LIG  325   3.944   4.197   6.989 -0.3592  0.0722  0.0911
    1AU     LIG  326   4.313   4.414   6.832 -0.1730  0.2308  0.0753
    1AU     LIG  327   4.436   4.795   6.596  0.0910  0.0480 -0.2388
    1AU     LIG  328   4.818   5.126   6.628 -0.1217 -0.2357  0.0333
    1AU    AUSL  329   3.538   3.603   6.975 -0.0042  0.0306 -0.0874
    1AU    AUSL  330   3.282   3.249   7.123  0.0340  0.1470  0.1608
    1AU     AUL  331   3.529   3.372   7.383 -0.0523 -0.0078  0.0499
    1AU       S  332   3.652   3.713   7.083  0.2858 -0.1831 -0.1280
    1AU     LIG  333   4.071   3.704   7.174 -0.2309  0.2243 -0.3013
    1AU     LIG  334   4.439   3.939   7.059  0.0205  0.0551 -0.3831
    1AU     LIG  335   4.775   4.171   6.922 -0.0110  0.3026  0.0706
    1AU     LIG  336   5.005   4.576   6.878  0.0107 -0.1633 -0.0691
    1AU       S  337   3.689   3.044   7.074  0.1568 -0.0837  0.3971
    1AU     LIG  338   4.012   2.755   7.289 -0.0146 -0.1685  0.0528
    1AU     LIG  339   4.450   2.777   7.195  0.0657 -0.1357 -0.3875
    1AU     LIG  340   4.915   3.028   7.098  0.2003 -0.0704 -0.2049
    1AU     LIG  341   5.261   3.260   6.752 -0.0881  0.0262 -0.3383
    1AU    AUSL  342   3.195   3.669   7.228  0.0468  0.0171 -0.1021
    1AU    AUSL  343   3.011   4.257   6.975 -0.0314  0.0714  0.0191
    1AU     AUL  344   3.148   4.072   7.217 -0.0603 -0.0103 -0.0509
    1AU       S  345   2.920   4.520   7.214 -0.2547  0.3834 -0.3609
    1AU     LIG  346   2.951   4.895   7.005  0.0154  0.0824  0.0818
    1AU     LIG  347   3.042   5.254   6.930 -0.3977  0.3996  0.0196
    1AU     LIG  348   2.736   5.623   6.727 -0.0203 -0.3746  0.2905
    1AU     LIG  349   2.390   5.642   6.592  0.1954  0.1566  0.2958
    1AU       S  350   3.447   3.811   7.416 -0.0403 -0.1448  0.1543
    1AU     LIG  351   3.427   3.659   7.823  0.0614  0.1751 -0.0100
    1AU     LIG  352   3.442   3.447   8.201 -0.5714  0.1110 -0.1703
    1AU     LIG  353   3.284   3.051   8.403  0.0402  0.1263  0.2727
    1AU     LIG  354   3.373   2.766   8.656  0.2597 -0.4682 -0.0062
    1AU    AUSL  355   2.281   3.920   5.942  0.0022 -0.0275  0.0436
    1AU    AUSL  356   1.973   3.809   6.252  0.1295 -0.1091 -0.0344
    1AU     AUL  357   2.045   4.122   5.952  0.0254  0.0335  0.0192
    1AU       S  358   1.911   3.963   5.544  0.1292  0.2088  0.2296
    1AU     LIG  359   1.585   4.128   5.739 -0.1767  0.0876 -0.2818
    1AU     LIG  360   1.273   4.200   6.040  0.1811  0.2139 -0.1417
    1AU     LIG  361   0.983   4.245   6.500  0.1307  0.1075  0.0161
    1AU     LIG  362   0.775   4.495   6.611 -0.0664  0.1435 -0.3338
    1AU       S  363   1.721   3.864   6.220 -0.1178  0.2634  0.0783
    1AU     LIG  364   1.397   3.662   6.167  0.2653 -0.2977  0.0991
    1AU     LIG  365   1.209   3.392   5.956 -0.0675 -0.2181  0.0808
    1AU     LIG  366   1.032   2.953   5.948 -0.0923 -0.1374 -0.1179
    1AU     LIG  367   0.769   2.647   6.374 -0.0372 -0.1147  0.0727
    1AU    AUSL  368   2.350   3.607   5.565  0.0160 -0.0856  0.0083
    1AU    AUSL  369   2.547   4.221   5.837 -0.0091 -0.0870  0.0298
    1AU     AUL  370   2.375   3.972   5.631 -0.1361 -0.0491  0.0346
    1AU       S  371   1.974   3.794   5.397 -0.0687  0.1927 -0.2164
    1AU     LIG  372   1.621   3.819   5.200 -0.0711 -0.0189 -0.0715
    1AU     LIG  373   1.290   3.980   5.267 -0.0870  0.1625  0.1309
    1AU     LIG  374   1.260   4.327   5.372  0.2976  0.2722  0.1931
    1AU     LIG  375   1.212   4.693   5.736  0.0615 -0.0546  0.0076
    1AU       S  376   2.521   4.392   5.574 -0.0173 -0.1159 -0.2753
    1AU     LIG  377   2.074   4.524   5.557 -0.0910  0.1047  0.1527
    1AU     LIG  378   1.757   4.899   5.591 -0.2996  0.0649 -0.0650
    1AU     LIG  379   1.315   5.159   5.611  0.1062  0.1715 -0.3050
    1AU     LIG  380   1.105   5.295   5.923  0.0371  0.5601 -0.3232
    1AU    AUSL  381   1.998   3.612   5.875  0.0593 -0.0022  0.0579
    1AU    AUSL  382   2.307   3.291   5.869 -0.0511 -0.0477 -0.0046
    1AU     AUL  383   2.135   3.343   5.536  0.0706  0.0548 -0.0447
    1AU       S  384   1.751   3.219   5.796 -0.1927  0.3322  0.1638
    1AU     LIG  385   1.666   3.293   5.277  0.2468  0.3441 -0.1285
    1AU     LIG  386   1.435   3.399   4.974 -0.2715  0.4303 -0.0462
    1AU     LIG  387   1.443   3.672   4.754  0.1109  0.2477  0.0998
    1AU     LIG  388   1.461   3.766   4.319 -0.1456 -0.0608 -0.0095
    1AU       S  389   1.863   3.729   5.730  0.1229  0.1745  0.2280
    1AU     LIG  390   1.524   3.623   5.669  0.3006  0.2873 -0.1011
    1AU     LIG  391   1.125   3.870   5.728 -0.5552 -0.0750  0.0806
    1AU     LIG  392   0.848   4.207   5.648 -0.2205 -0.1532 -0.1998
    1AU     LIG  393   0.414   4.058   5.511 -0.1338 -0.0182  0.3713
    1AU    AUSL  394   3.268   2.862   6.888  0.0126  0.1014 -0.0323
    1AU    AUSL  395   2.924   3.298   7.340  0.0709 -0.0012 -0.0115
    1AU     AUL  396   3.190   2.985   7.270 -0.1723 -0.1244 -0.0463
    1AU       S  397   3.616   2.909   7.131 -0.0202 -0.1593 -0.0983
    1AU     LIG  398   3.494   2.511   7.227  0.3260  0.0551  0.1756
    1AU     LIG  399   3.517   2.042   7.066  0.0663 -0.1063  0.1892
    1AU     LIG  400   3.484   1.614   6.859 -0.2158 -0.0315 -0.3758
    1AU     LIG  401   3.626   1.222   6.623  0.4214 -0.1871 -0.1082
    1AU       S  402   2.801   3.030   7.585 -0.0010  0.3565  0.3043
    1AU     LIG  403   2.916   2.579   7.704 -0.0627  0.1242  0.1390
    1AU     LIG  404   3.018   2.275   7.348  0.1254 -0.1113  0.0087
    1AU     LIG  405   3.025   1.936   7.063  0.1499  0.0754  0.3692
    1AU     LIG  406   2.793   1.549   7.051  0.3917  0.0982  0.1763
    1AU    AUSL  407   3.406   3.269   6.727  0.0677  0.0052  0.0078
    1AU    AUSL  408   3.212   2.943   6.482  0.0992 -0.0212 -0.0367
    1AU     AUL  409   3.489   2.803   6.669 -0.0407  0.0425  0.0010
    1AU       S  410   3.714   3.160   6.915  0.4073 -0.1966 -0.0313
    1AU     LIG  411   4.139   3.043   6.883  0.5302  0.1624 -0.0897
    1AU     LIG  412   4.489   2.932   6.633 -0.1569  0.1586 -0.2731
    1AU     LIG  413   4.565   2.533   6.718  0.1982  0.0954  0.0762
    1AU     LIG  414   4.596   2.348   7.219  0.1629  0.4074 -0.4096
    1AU       S  415   3.793   2.642   6.363  0.3654  0.3336 -0.0593
    1AU     LIG  416   4.180   2.445   6.289  0.3362 -0.0320 -0.2731
    1AU     LIG  417   4.468   2.115   6.402  0.0590  0.3089  0.1830
    1AU     LIG  418   4.859   1.997   6.404  0.0417  0.0943 -0.0762
    1AU     LIG  419   5.326   2.104   6.400 -0.0042  0.0421 -0.0195
    1AU    AUSL  420   2.154   2.910   6.023 -0.0008  0.0015  0.0344
    1AU    AUSL  421   2.573   3.170   5.551  0.0479 -0.0047 -0.1533
    1AU     AUL  422   2.291   2.919   5.702  0.0111 -0.0532 -0.0332
    1AU       S  423   2.659   2.931   5.398  0.0231  0.2234  0.4477
    1AU     LIG  424   2.303   2.962   5.186  0.1428 -0.0436 -0.2785
    1AU     LIG  425   1.923   2.916   4.859  0.3033 -0.1831  0.0762
    1AU     LIG  426   1.620   2.639   4.682  0.1968  0.0895 -0.0341
    1AU     LIG  427   1.406   2.773   4.416  0.0439 -0.0706  0.0593
    1AU       S  428   1.845   3.042   5.783 -0.1025  0.0680 -0.5095
    1AU     LIG  429   1.549   2.739   5.987  0.0776  0.1682 -0.0368
    1AU     LIG  430   1.470   2.335   6.071 -0.1197 -0.3184  0.0547
    1AU     LIG  431   1.717   2.118   6.355  0.1813  0.1251  0.0133
    1AU     LIG  432   1.745   1.704   6.430  0.0160  0.0136  0.0297
    1AU    AUSL  433   2.019   3.322   6.189  0.0234 -0.0778 -0.0008
    1AU    AUSL  434   2.293   2.997   6.402 -0.0436 -0.0099 -0.0535
    1AU     AUL  435   1.927   2.949   6.249  0.0595  0.0156 -0.0093
    1AU       S  436   1.676   3.277   6.063  0.2620 -0.5106 -0.2225
    1AU     LIG  437   1.415   3.138   6.371 -0.0734 -0.0131 -0.0892
    1AU     LIG  438   0.986   3.270   6.383 -0.1508  0.1983  0.0351
    1AU     LIG  439   0.560   3.225   6.128 -0.1531  0.0773  0.1161
    1AU     LIG  440   0.110   3.249   6.239 -0.1466 -0.1850 -0.4883
    1AU       S  441   1.929   2.591   6.511  0.1592  0.1293  0.2182
    1AU     LIG  442   2.004   2.493   6.164  0.0397 -0.0626 -0.2820
    1AU     LIG  443   1.892   2.533   5.731  0.2276 -0.1155 -0.2050
    1AU     LIG  444   1.718   2.644   5.298 -0.0639 -0.2641  0.1552
    1AU     LIG  445   1.376   2.906   5.015 -0.0658 -0.0098  0.2219
    2POPC   NC3  446   1.504   0.293   8.351 -0.0567  0.0738 -0.2051
    2POPC   PO4  447   1.563   0.520   8.635  0.3573  0.1883 -0.1109
    2POPC   GL1  448   1.801   0.657   8.221  0.0679 -0.2523 -0.1140
    2POPC   GL2  449   1.683   0.347   7.922  0.0265  0.1109  0.2116
    2POPC   C1A  450   2.050   0.984   8.148  0.0116 -0.0515 -0.0593
    2POPC   D2A  451   1.920   1.272   7.800  0.1114  0.0257  0.4494
    2POPC   C3A  452   2.125   1.607   7.518 -0.1126 -0.0359 -0.1379
    2POPC   C4A  453   2.500   1.722   7.426  0.3152  0.0766 -0.0236
    2POPC   C1B  454   1.707   0.687   7.760  0.0666 -0.1133 -0.1022
    2POPC   C2B  455   2.026   0.648   7.436  0.2044  0.0047 -0.1866
    2POPC   C3B  456   2.447   0.460   7.457 -0.0943  0.0845 -0.3404
    2POPC   C4B  457   2.514   0.001   7.590  0.2569 -0.2654 -0.2583
    3POPC   NC3  458   8.867   4.172   8.377 -0.2244 -0.0187  0.3666
    3POPC   PO4  459   8.869   3.769   8.498  0.1130  0.2860  0.0704
    3POPC   GL1  460   9.061   3.807   8.130 -0.0065  0.1887 -0.2969
    3POPC   GL2  461   8.830   3.954   7.907 -0.3321 -0.1867 -0.1018
    3POPC   C1A  462   9.101   3.559   7.777 -0.0903  0.1824  0.1519
    3POPC   D2A  463   9.309   3.246   7.360 -0.2495  0.0056  0.3820
    3POPC   C3A  464   9.398   3.287   6.875 -0.1356 -0.1427  0.2617
    3POPC   C4A  465   9.384   3.204   6.516 -0.2678 -0.0100 -0.1364
    3POPC   C1B  466   8.876   3.941   7.476 -0.0216  0.1306  0.0376
    3POPC   C2B  467   9.172   3.797   7.237  0.0368  0.1840  0.0025
    3POPC   C3B  468   9.134   3.667   6.890 -0.0890  0.0013 -0.1985
    3POPC   C4B  469   8.878   3.470   6.615 -0.2050  0.0517 -0.0886
    4POPC   NC3  470   1.683   7.642   8.169  0.0819 -0.2645 -0.4337
    4POPC   PO4  471   2.117   7.559   8.392 -0.1723  0.0364 -0.0681
    4POPC   GL1  472   2.118   7.514   7.979  0.0948 -0.0293  0.3036
    4POPC   GL2  473   1.861   7.300   7.810 -0.0554  0.1788  0.1731
    4POPC   C1A  474   2.149   7.583   7.569 -0.0885  0.0627 -0.1434
    4POPC   D2A  475   2.046   7.720   7.152 -0.3653  0.0104 -0.3752
    4POPC   C3A  476   1.724   7.948   7.119 -0.1383 -0.0761 -0.1738
    4POPC   C4A  477   1.430   7.969   6.700  0.0306  0.3971  0.0512
    4POPC   C1B  478   1.957   7.205   7.373 -0.0517 -0.0833 -0.0777
    4POPC   C2B  479   2.172   6.990   6.969  0.0314  0.4132  0.0513
    4POPC   C3B  480   2.452   6.889   6.611  0.3310 -0.0849 -0.0561
    4POPC   C4B  481   2.746   6.863   6.342 -0.0079 -0.0454  0.1940
    5POPC   NC3  482   0.140   5.057   9.227  0.4682 -0.1018  0.0333
    5POPC   PO4  483   0.356   4.978   8.894  0.1419 -0.0689 -0.0399
    5POPC   GL1  484   0.395   4.811   8.443  0.1170  0.1908 -0.0894
    5POPC   GL2  485   0.376   4.405   8.417 -0.0609 -0.1168  0.0139
    5POPC   C1A  486   0.742   4.689   8.186  0.3094 -0.0942 -0.1568
    5POPC   D2A  487   0.720   4.731   7.729 -0.2232  0.1875 -0.0512
    5POPC   C3A  488   0.457   5.043   7.373 -0.1240 -0.0547  0.2608
    5POPC   C4A  489   0.633   5.276   7.091  0.1837  0.0569  0.0354
    5POPC   C1B  490   0.503   4.215   8.013  0.1674  0.3687 -0.0138
    5POPC   C2B  491   0.790   4.122   7.880  0.2312  0.0121  0.2334
    5POPC   C3B  492   1.177   3.901   7.867  0.1155  0.2646 -0.1605
    5POPC   C4B  493   1.297   4.048   7.438  0.0598  0.1855 -0.2882
    6POPC   NC3  494   1.145   7.017   8.596 -0.1594 -0.2029  0.1146
    6POPC   PO4  495   1.034   7.382   8.346 -0.2202 -0.0965  0.1013
    6POPC   GL1  496   1.006   7.315   7.954  0.0028  0.0379 -0.3057
    6POPC   GL2  497   0.777   7.555   7.856 -0.2855  0.2633 -0.2702
    6POPC   C1A  498   1.246   7.157   7.631 -0.1629  0.1842 -0.2931
    6POPC   D2A  499   1.285   6.886   7.288 -0.0540  0.0263  0.1870
    6POPC   C3A  500   1.215   6.999   6.717  0.0322 -0.0138  0.1108
    6POPC   C4A  501   1.414   6.934   6.433  0.1651 -0.0087  0.1099
    6POPC   C1B  502   0.785   7.494   7.470  0.0867  0.2868 -0.2220
    6POPC   C2B  503   1.001   7.345   7.164  0.0317 -0.0263 -0.3732
    6POPC   C3B  504   1.241   7.547   6.916 -0.2121  0.0798 -0.1017
    6POPC   C4B  505   1.477   7.504   6.493 -0.2082 -0.0469  0.0684
    7POPC   NC3  506   8.553   0.327   8.511 -0.0059 -0.0212 -0.0560
    7POPC   PO4  507   8.469  -0.121   8.640 -0.1150  0.0323 -0.1740
    7POPC   GL1  508   8.558  -0.116   8.174  0.0028 -0.2135 -0.2871
    7POPC   GL2  509   8.680   0.144   8.061  0.0146  0.1271  0.0434
    7POPC   C1A  510   8.619  -0.354   7.787  0.2571 -0.1111 -0.2307
    7POPC   D2A  511   8.482  -0.322   7.289  0.1004 -0.2258  0.2115
    7POPC   C3A  512   8.585  -0.699   7.134  0.0288 -0.2479  0.0472
    7POPC   C4A  513   8.868  -0.934   6.937  0.1613  0.1404  0.1707
    7POPC   C1B  514   8.501   0.248   7.673 -0.1085 -0.1569 -0.0051
    7POPC   C2B  515   8.409   0.193   7.310  0.2002  0.0387  0.1746
    7POPC   C3B  516   8.439   0.198   6.879  0.1155  0.0308  0.0469
    7POPC   C4B  517   8.566   0.311   6.493 -0.1820  0.2258  0.1181
    8POPC   NC3  518   1.128   1.625   9.364 -0.1089 -0.1898 -0.0900
    8POPC   PO4  519   0.669   1.818   9.321  0.0831 -0.3444 -0.3535
    8POPC   GL1  520   0.768   2.042   8.927  0.1863  0.2066  0.0162
    8POPC   GL2  521   1.121   1.948   8.912 -0.0191 -0.1617 -0.0398
    8POPC   C1A  522   0.863   2.484   8.845  0.0424 -0.1845 -0.0427
    8POPC   D2A  523   0.741   2.762   8.608 -0.0174 -0.0405 -0.0078
    8POPC   C3A  524   0.825   2.781   8.208  0.0558  0.0174  0.1564
    8POPC   C4A  525   0.981   2.767   7.740 -0.1163 -0.1896 -0.0441
    8POPC   C1B  526   1.309   2.146   8.643  0.3890  0.2183  0.1942
    8POPC   C2B  527   1.242   2.458   8.503  0.3075  0.1339 -0.0267
    8POPC   C3B  528   1.281   2.868   8.227  0.1310  0.0042  0.0106
    8POPC   C4B  529   1.474   2.920   7.829 -0.0038 -0.0268 -0.1233
    9POPC   NC3  530   9.815   4.361   8.676  0.2627 -0.0806 -0.2960
    9POPC   PO4  531   9.403   4.502   8.580 -0.1153  0.1265 -0.0267
    9POPC   GL1  532   9.341   4.398   8.145 -0.0117  0.1265  0.2288
    9POPC   GL2  533   9.105   4.577   7.880  0.1882  0.0174  0.1559
    9POPC   C1A  534   9.258   4.118   7.723 -0.0411 -0.1451  0.0739
    9POPC   D2A  535   9.430   4.187   7.310  0.1305  0.0824 -0.1584
    9POPC   C3A  536   9.381   4.104   6.859 -0.1262 -0.2342 -0.3349
    9POPC   C4A  537   9.615   3.749   6.628  0.1221 -0.2025  0.1273
    9POPC   C1B  538   9.156   4.600   7.521  0.0953  0.0211  0.1115
    9POPC   C2B  539   9.035   4.465   7.183  0.1575  0.0259  0.0083
    9POPC   C3B  540   8.930   4.147   6.920  0.1632 -0.1793 -0.0353
    9POPC   C4B  541   8.791   3.943   6.642 -0.1880 -0.0202  0.1106
   10POPC   NC3  542   7.593   3.335   8.148  0.1230  0.2662  0.0159
   10POPC   PO4  543   7.841   3.181   8.495 -0.0374 -0.0600  0.0874
   10POPC   GL1  544   7.789   2.852   8.334  0.0488 -0.2017 -0.3046
   10POPC   GL2  545   7.991   2.960   8.094 -0.1964  0.1612 -0.1879
   10POPC   C1A  546   7.430   2.647   8.091  0.0662 -0.2656 -0.0267
   10POPC   D2A  547   7.184   2.610   7.784  0.0847 -0.2401 -0.0314
   10POPC   C3A  548   7.293   3.027   7.599  0.1741 -0.1620  0.1628
   10POPC   C4A  549   7.539   3.328   7.375  0.0818 -0.1773 -0.1138
   10POPC   C1B  550   7.789   2.934   7.724 -0.0286 -0.2320 -0.0420
   10POPC   C2B  551   7.627   2.596   7.612 -0.1414  0.0586 -0.1206
   10POPC   C3B  552   7.640   2.279   7.381  0.0884  0.1478 -0.0567
   10POPC   C4B  553   7.263   2.155   6.981 -0.1175 -0.1408 -0.1020
   11POPC   NC3  554   5.133   1.324   8.947 -0.1385  0.2105  0.2516
   11POPC   PO4  555   5.517   1.265   8.704  0.1916  0.1743  0.2471
   11POPC   GL1  556   5.269   1.489   8.420  0.0604 -0.2374  0.1286
   11POPC   GL2  557   5.131   1.277   8.237  0.1992 -0.2814  0.0574
   11POPC   C1A  558   5.109   1.880   8.194  0.2591 -0.2599 -0.1378
   11POPC   D2A  559   4.933   2.305   8.022  0.1347 -0.0385 -0.0885
   11POPC   C3A  560   4.672   2.367   7.732 -0.1915  0.2267  0.0788
   11POPC   C4A  561   4.268   2.412   7.582 -0.0506 -0.0622  0.0393
   11POPC   C1B  562   5.010   1.460   7.918 -0.1860  0.4251 -0.0646
   11POPC   C2B  563   4.893   1.889   7.772 -0.1572  0.2397  0.1251
   11POPC   C3B  564   5.082   2.233   7.432  0.0564  0.1900 -0.1409
   11POPC   C4B  565   5.066   2.594   7.233 -0.0709  0.2947 -0.1863
   12POPC   NC3  566   0.084   1.408   8.464  0.0171 -0.0404 -0.0290
   12POPC   PO4  567   0.100   0.896   8.264 -0.2130  0.0406 -0.0816
   12POPC   GL1  568  -0.150   1.185   7.927 -0.0198  0.1197  0.1270
   12POPC   GL2  569   0.052   1.450   7.926 -0.3253  0.2500  0.0803
   12POPC   C1A  570  -0.125   1.155   7.473  0.1147 -0.0710  0.0976
   12POPC   D2A  571   0.227   1.048   7.115  0.2114 -0.0510 -0.1136
   12POPC   C3A  572   0.290   0.530   7.189  0.0629 -0.0658  0.0861
   12POPC   C4A  573   0.419   0.224   7.427 -0.1560  0.3813 -0.2936
   12POPC   C1B  574   0.175   1.559   7.585 -0.1093  0.0806  0.4556
   12POPC   C2B  575   0.305   1.588   7.217  0.3633 -0.1463  0.1179
   12POPC   C3B  576   0.487   1.807   6.894  0.1815  0.1455  0.2059
   12POPC   C4B  577   0.527   2.106   6.479 -0.2807 -0.3893  0.0835
   13POPC   NC3  578   6.118   5.801   9.194  0.1168  0.0083 -0.3642
   13POPC   PO4  579   6.178   5.651   8.761  0.2126 -0.2118  0.0099
   13POPC   GL1  580   6.210   5.571   8.361 -0.1033 -0.1680 -0.3868
   13POPC   GL2  581   6.296   5.237   8.235  0.0126 -0.2668  0.3650
   13POPC   C1A  582   5.877   5.510   8.022 -0.0478 -0.0898 -0.1398
   13POPC   D2A  583   5.373   5.352   7.913  0.2477 -0.1947 -0.0059
   13POPC   C3A  584   5.052   5.436   7.627 -0.2947  0.3035  0.3825
   13POPC   C4A  585   5.102   5.697   7.308  0.0789  0.1755  0.3265
   13POPC   C1B  586   6.433   5.101   7.887 -0.1316  0.3566  0.0829
   13POPC   C2B  587   6.487   5.086   7.386 -0.1726 -0.1579 -0.3832
   13POPC   C3B  588   6.651   4.914   6.924  0.0366 -0.1096  0.0944
   13POPC   C4B  589   6.377   4.664   6.597 -0.1596  0.1302 -0.2822
   14POPC   NC3  590   9.289   9.091   8.312 -0.1971  0.0629 -0.0024
   14POPC   PO4  591   9.188   8.668   8.002 -0.1660  0.4797 -0.3193
   14POPC   GL1  592   9.404   8.656   7.559 -0.0493  0.1573 -0.0271
   14POPC   GL2  593   9.672   8.742   7.760 -0.3273 -0.1287  0.2127
   14POPC   C1A  594   9.582   8.456   7.217 -0.3586  0.1666 -0.0212
   14POPC   D2A  595   9.872   8.490   7.019  0.1466 -0.1533 -0.2590
   14POPC   C3A  596   9.986   8.325   6.612 -0.4308  0.2081  0.2802
   14POPC   C4A  597  10.082   8.430   6.194  0.0648  0.0915  0.0038
   14POPC   C1B  598  10.029   8.581   7.540 -0.1410 -0.1266  0.1618
   14POPC   C2B  599  10.274   8.285   7.334 -0.0379  0.2411 -0.0152
   14POPC   C3B  600  10.378   8.367   6.926 -0.0008 -0.1625 -0.0665
   14POPC   C4B  601  10.554   8.348   6.660  0.0421  0.0665  0.1303
   15POPC   NC3  602   6.725   6.418   8.383  0.2051  0.2586  0.2142
   15POPC   PO4  603   6.295   6.570   8.547 -0.0252  0.2489  0.4511
   15POPC   GL1  604   6.250   6.442   8.152 -0.0623  0.1718 -0.0128
   15POPC   GL2  605   6.195   6.156   8.020 -0.3973 -0.1337 -0.0224
   15POPC   C1A  606   6.136   6.769   7.683  0.0313  0.0059  0.0989
   15POPC   D2A  607   6.064   6.703   7.174  0.1086 -0.0609  0.2807
   15POPC   C3A  608   6.411   6.817   7.050  0.1119 -0.0071 -0.0676
   15POPC   C4A  609   6.850   6.751   7.025 -0.0490 -0.1631 -0.2672
   15POPC   C1B  610   6.271   5.798   7.825 -0.1924  0.1027  0.2581
   15POPC   C2B  611   6.178   5.450   7.620 -0.4970  0.0271  0.2646
   15POPC   C3B  612   6.065   5.263   7.212 -0.1336 -0.0013  0.1927
   15POPC   C4B  613   5.845   4.992   6.923  0.0037  0.1260  0.1334
   16POPC   NC3  614   4.563   3.845   8.951  0.2413  0.0589  0.0117
   16POPC   PO4  615   4.338   3.524   9.326  0.0081  0.0886  0.1543
   16POPC   GL1  616   4.139   3.607   8.961  0.2894 -0.3011 -0.0662
   16POPC   GL2  617   4.121   3.954   8.744  0.0558 -0.2522  0.1920
   16POPC   C1A  618   3.812   3.628   8.563 -0.0906  0.4072 -0.3787
   16POPC   D2A  619   3.923   3.500   8.201  0.1049  0.2127 -0.1839
   16POPC   C3A  620   3.907   3.557   7.720  0.1538  0.0146  0.1540
   16POPC   C4A  621   3.987   3.247   7.355 -0.1354  0.2640  0.2509
   16POPC   C1B  622   4.175   3.960   8.311  0.2016 -0.3212 -0.1529
   16POPC   C2B  623   4.313   3.755   7.907  0.1669 -0.0791 -0.0663
   16POPC   C3B  624   4.439   3.424   7.570 -0.0530  0.1227 -0.1735
   16POPC   C4B  625   4.489   3.322   7.106 -0.1882  0.1236  0.3692
   17POPC   NC3  626   7.382   5.349   8.873 -0.1823 -0.1627 -0.0350
   17POPC   PO4  627   7.139   5.655   8.754  0.2588 -0.3777 -0.2979
   17POPC   GL1  628   6.890   5.526   8.280  0.1704 -0.0455  0.1906
   17POPC   GL2  629   6.936   5.192   8.192 -0.4426  0.2140  0.1646
   17POPC   C1A  630   6.993   5.631   7.861 -0.2152  0.0793  0.2563
   17POPC   D2A  631   7.242   5.601   7.471  0.0182  0.1038  0.0737
   17POPC   C3A  632   7.598   5.508   7.082  0.2715 -0.0085 -0.0396
   17POPC   C4A  633   7.759   5.850   6.728  0.0470  0.2517 -0.0883
   17POPC   C1B  634   6.911   5.167   7.658 -0.1102  0.2056 -0.0869
   17POPC   C2B  635   6.981   5.195   7.251 -0.2811 -0.0796  0.2627
   17POPC   C3B  636   7.242   5.080   6.923  0.0315 -0.0728 -0.1113
   17POPC   C4B  637   7.557   5.143   6.615  0.0420 -0.0166  0.0925
   18POPC   NC3  638   6.257   3.750   9.422 -0.1298  0.0944 -0.1274
   18POPC   PO4  639   6.065   3.336   9.259 -0.2584  0.0095 -0.0730
   18POPC   GL1  640   5.794   3.358   8.808  0.0296  0.2185 -0.2259
   18POPC   GL2  641   5.561   3.095   8.921  0.0731 -0.1343 -0.3010
   18POPC   C1A  642   5.913   3.313   8.324  0.0101  0.1025  0.1903
   18POPC   D2A  643   5.701   3.244   8.001  0.0907  0.2441  0.1785
   18POPC   C3A  644   5.798   3.215   7.565  0.0945  0.1468  0.2711
   18POPC   C4A  645   5.699   3.289   7.165 -0.0327  0.1022  0.0772
   18POPC   C1B  646   5.456   3.307   8.435  0.0177  0.0532 -0.1519
   18POPC   C2B  647   5.099   3.175   8.225 -0.0569 -0.3391 -0.2979
   18POPC   C3B  648   4.843   3.340   8.011  0.1233  0.0832 -0.3405
   18POPC   C4B  649   4.874   3.595   7.703  0.0825 -0.1067 -0.0960
   19POPC   NC3  650   5.329   2.238   9.052 -0.1599  0.0127 -0.1592
   19POPC   PO4  651   5.396   1.769   8.796 -0.2818  0.3336 -0.1607
   19POPC   GL1  652   5.657   1.795   8.435 -0.2710 -0.0019  0.0924
   19POPC   GL2  653   5.841   1.513   8.390 -0.3295 -0.2281  0.1743
   19POPC   C1A  654   5.635   1.813   7.986 -0.0811  0.0066  0.1960
   19POPC   D2A  655   5.859   1.896   7.534  0.1453  0.1151  0.0561
   19POPC   C3A  656   6.151   1.648   7.321 -0.0655 -0.0908 -0.2731
   19POPC   C4A  657   6.118   1.338   6.978  0.2209  0.0289  0.1468
   19POPC   C1B  658   5.713   1.338   8.049 -0.0476  0.1315 -0.1470
   19POPC   C2B  659   5.707   1.444   7.574  0.3300  0.1011 -0.1961
   19POPC   C3B  660   5.611   1.418   7.124 -0.0305 -0.2852  0.1895
   19POPC   C4B  661   5.690   1.588   6.731 -0.0534 -0.2729 -0.4329
   20POPC   NC3  662   6.661   4.919   8.462 -0.2715 -0.1624  0.1043
   20POPC   PO4  663   6.451   4.573   8.793  0.0818 -0.1293 -0.0796
   20POPC   GL1  664   6.371   4.420   8.353  0.2361  0.0937  0.1886
   20POPC   GL2  665   6.598   4.279   8.256 -0.0785  0.2431 -0.4750
   20POPC   C1A  666   6.332   4.602   7.962 -0.4843  0.1189  0.0296
   20POPC   D2A  667   6.381   4.513   7.606  0.1764  0.4771 -0.3433
   20POPC   C3A  668   6.629   4.317   7.322 -0.3396  0.1480  0.0202
   20POPC   C4A  669   6.572   3.954   7.042  0.0191  0.0767  0.0481
   20POPC   C1B  670   6.784   4.263   7.839 -0.3381  0.0755  0.2234
   20POPC   C2B  671   7.153   4.372   7.693 -0.0660 -0.0774  0.2833
   20POPC   C3B  672   7.402   4.760   7.454  0.0058  0.2311 -0.1086
   20POPC   C4B  673   7.551   5.133   7.378  0.0945 -0.2184  0.2523
   21POPC   NC3  674   2.057   2.160   9.642 -0.0404 -0.1901 -0.2700
   21POPC   PO4  675   2.443   2.120   9.893 -0.3715 -0.2299  0.1426
   21POPC   GL1  676   2.538   2.178   9.374 -0.2618 -0.0049  0.2473
   21POPC   GL2  677   2.270   2.161   9.168 -0.2782 -0.0818  0.4768
   21POPC   C1A  678   2.826   2.199   9.018  0.0141 -0.1331 -0.0175
   21POPC   D2A  679   3.115   2.051   8.654  0.2341  0.0960  0.2218
   21POPC   C3A  680   3.377   2.299   8.484  0.1214  0.2160  0.3044
   21POPC   C4A  681   3.369   2.646   8.130 -0.1623  0.0745  0.1221
   21POPC   C1B  682   2.118   2.071   8.741  0.1792  0.1066 -0.0148
   21POPC   C2B  683   2.058   1.983   8.279  0.1853  0.0862  0.2480
   21POPC   C3B  684   2.115   2.204   7.841 -0.0542 -0.0973  0.2038
   21POPC   C4B  685   2.071   2.177   7.335  0.3385  0.2169  0.4864
   22POPC   NC3  686   9.730   0.332   8.217  0.2345 -0.3128  0.1465
   22POPC   PO4  687   9.463   0.750   8.069  0.0738  0.0988 -0.0071
   22POPC   GL1  688   9.632   0.596   7.783  0.0704  0.0711  0.0011
   22POPC   GL2  689   9.856   0.731   7.689  0.1514 -0.2609 -0.0563
   22POPC   C1A  690   9.788   0.195   7.641 -0.0747  0.1043 -0.1589
   22POPC   D2A  691   9.865  -0.008   7.249  0.1528 -0.2360 -0.2034
   22POPC   C3A  692   9.647  -0.402   7.253 -0.2080  0.5074 -0.0089
   22POPC   C4A  693   9.546  -0.768   7.413  0.0793  0.1253  0.1792
   22POPC   C1B  694  10.284   1.024   7.632  0.2678 -0.1017  0.0528
   22POPC   C2B  695  10.640   1.263   7.414 -0.1077 -0.1386 -0.0770
   22POPC   C3B  696  11.008   1.394   7.535  0.1443  0.1008  0.0263
   22POPC   C4B  697  11.524   1.583   7.375 -0.0299 -0.0519 -0.1192
   23POPC   NC3  698   9.686   5.716   8.569  0.1358  0.1934 -0.3525
   23POPC   PO4  699   9.522   5.422   8.187 -0.1938  0.1065  0.1244
   23POPC   GL1  700   9.411   5.226   7.852 -0.3216  0.2639 -0.2740
   23POPC   GL2  701   9.586   4.943   7.911 -0.1886 -0.0199  0.1389
   23POPC   C1A  702   9.310   5.064   7.478 -0.0635 -0.1194 -0.4766
   23POPC   D2A  703   9.093   4.956   7.103  0.0973 -0.0194 -0.2034
   23POPC   C3A  704   9.155   5.145   6.694  0.1628  0.0571 -0.1342
   23POPC   C4A  705   9.017   5.324   6.336  0.2380  0.1377 -0.4239
   23POPC   C1B  706   9.674   4.689   7.487 -0.2080  0.0649  0.2493
   23POPC   C2B  707   9.977   4.787   7.124 -0.0212 -0.0505 -0.1207
   23POPC   C3B  708  10.078   4.691   6.737 -0.1241  0.0113  0.0135
   23POPC   C4B  709  10.386   4.995   6.679  0.1459  0.0387  0.0351
   24POPC   NC3  710   3.150   7.261   7.977 -0.2122  0.1222  0.1755
   24POPC   PO4  711   3.547   7.592   8.091  0.2822  0.3442  0.4328
   24POPC   GL1  712   3.669   7.551   7.718  0.0028 -0.0590 -0.1802
   24POPC   GL2  713   3.492   7.392   7.527 -0.2255  0.2375  0.3896
   24POPC   C1A  714   4.028   7.460   7.393 -0.1610  0.0933  0.1148
   24POPC   D2A  715   4.442   7.574   7.298 -0.2757  0.0805 -0.0450
   24POPC   C3A  716   4.631   7.277   6.932 -0.1843  0.2352  0.3442
   24POPC   C4A  717   5.025   7.208   6.704 -0.1892 -0.4174  0.1363
   24POPC   C1B  718   3.550   7.488   7.133  0.0114 -0.0352  0.0735
   24POPC   C2B  719   3.532   7.517   6.624 -0.2409 -0.0559  0.1607
   24POPC   C3B  720   3.666   7.402   6.162 -0.1042 -0.2229  0.2634
   24POPC   C4B  721   3.882   7.142   5.905 -0.1330  0.0856  0.2607
   25POPC   NC3  722   2.686   5.877   8.688 -0.1956 -0.2537 -0.1830
   25POPC   PO4  723   2.940   6.060   8.429  0.3055 -0.1780 -0.1503
   25POPC   GL1  724   3.074   5.962   8.061  0.2277  0.0917 -0.2481
   25POPC   GL2  725   3.094   6.335   7.922 -0.0269  0.1416 -0.0407
   25POPC   C1A  726   3.221   5.953   7.614  0.2452 -0.0075  0.1811
   25POPC   D2A  727   3.128   6.307   7.341  0.3857  0.0859  0.1614
   25POPC   C3A  728   3.000   6.116   6.915  0.3110 -0.0335 -0.3418
   25POPC   C4A  729   2.971   6.105   6.507  0.4914 -0.3715  0.1991
   25POPC   C1B  730   2.846   6.606   7.714  0.0692  0.0958  0.1403
   25POPC   C2B  731   2.854   6.696   7.198 -0.0184  0.5039  0.3378
   25POPC   C3B  732   2.596   6.541   6.910 -0.0248  0.1456  0.1298
   25POPC   C4B  733   2.110   6.503   6.864 -0.3981 -0.1979 -0.1954
   26POPC   NC3  734   8.965   8.278   8.483  0.1732  0.3456  0.1938
   26POPC   PO4  735   9.197   8.111   8.269  0.0089  0.1638 -0.0310
   26POPC   GL1  736   9.338   8.066   7.823 -0.2082  0.0675 -0.1698
   26POPC   GL2  737   9.201   7.843   7.738 -0.1483  0.1223  0.2775
   26POPC   C1A  738   9.121   8.293   7.418 -0.0200  0.1975  0.1700
   26POPC   D2A  739   9.076   8.500   7.131  0.2795 -0.3372  0.0498
   26POPC   C3A  740   9.383   8.841   7.030 -0.1337 -0.1936 -0.3631
   26POPC   C4A  741   9.807   9.040   6.993  0.0268 -0.0314  0.3256
   26POPC   C1B  742   9.032   7.765   7.410 -0.0362 -0.3003  0.1941
   26POPC   C2B  743   8.631   7.632   7.344 -0.2682  0.1216  0.3702
   26POPC   C3B  744   8.250   7.698   7.109  0.1062  0.2580 -0.0047
   26POPC   C4B  745   7.822   7.885   6.913  0.3088 -0.2656 -0.1341
   27POPC   NC3  746   8.402   2.818   8.355  0.0825  0.0251 -0.0653
   27POPC   PO4  747   8.849   2.713   8.368  0.0377  0.2839 -0.0200
   27POPC   GL1  748   8.794   2.946   8.012  0.0151  0.0199 -0.2208
   27POPC   GL2  749   8.516   2.879   7.879  0.2985  0.1059 -0.2529
   27POPC   C1A  750   8.858   3.153   7.624 -0.2508 -0.0158  0.0821
   27POPC   D2A  751   8.870   3.353   7.240 -0.0152  0.2183 -0.1490
   27POPC   C3A  752   8.662   3.749   7.125 -0.2044  0.0135 -0.1507
   27POPC   C4A  753   8.332   3.860   6.932 -0.1528 -0.1103  0.0011
   27POPC   C1B  754   8.603   2.682   7.475 -0.1176  0.3599  0.2054
   27POPC   C2B  755   8.699   2.902   7.169 -0.0089  0.0060 -0.1819
   27POPC   C3B  756   8.932   2.893   6.758  0.3591  0.4916  0.0892
   27POPC   C4B  757   9.272   2.684   6.415 -0.1324  0.0617 -0.1685
   28POPC   NC3  758   2.169   6.730   8.757  0.1444 -0.0709 -0.2038
   28POPC   PO4  759   2.487   6.886   8.437 -0.1015 -0.0610 -0.1135
   28POPC   GL1  760   2.430   6.743   7.986  0.1987  0.0527 -0.2457
   28POPC   GL2  761   2.300   6.970   7.779 -0.0324 -0.0611 -0.0452
   28POPC   C1A  762   2.371   6.534   7.448 -0.1928 -0.4100 -0.0282
   28POPC   D2A  763   2.020   6.379   7.373 -0.1338 -0.2142  0.0941
   28POPC   C3A  764   1.800   6.245   7.673  0.2960 -0.0219  0.0685
   28POPC   C4A  765   1.473   6.063   7.799 -0.3442  0.0376  0.1365
   28POPC   C1B  766   2.444   7.108   7.381 -0.1952 -0.4201  0.0165
   28POPC   C2B  767   2.668   7.111   7.019  0.1104 -0.0903  0.1273
   28POPC   C3B  768   2.921   7.199   6.643 -0.1520  0.0216  0.0007
   28POPC   C4B  769   3.185   7.389   6.327 -0.0935  0.1629  0.1713
   29POPC   NC3  770   9.669   3.012   8.402  0.0212 -0.0258 -0.0565
   29POPC   PO4  771   9.466   3.384   8.531 -0.0775 -0.2144 -0.0088
   29POPC   GL1  772   9.453   3.580   8.091  0.0256  0.2172 -0.0280
   29POPC   GL2  773   9.519   3.956   8.130  0.0793  0.1763 -0.1303
   29POPC   C1A  774   9.540   3.307   7.783  0.2036  0.0153 -0.1095
   29POPC   D2A  775   9.837   3.337   7.566  0.0677  0.0438 -0.0268
   29POPC   C3A  776  10.174   2.963   7.451  0.1003 -0.0549  0.1278
   29POPC   C4A  777  10.269   2.805   7.016  0.0735  0.0890 -0.1130
   29POPC   C1B  778   9.580   3.756   7.657  0.1645 -0.1857 -0.0019
   29POPC   C2B  779   9.635   3.600   7.217  0.0585 -0.3813  0.1749
   29POPC   C3B  780   9.972   3.800   6.994 -0.1204 -0.0536  0.0345
   29POPC   C4B  781  10.327   3.881   6.995 -0.2275  0.2893 -0.0418
   30POPC   NC3  782   3.609   0.217   8.652  0.0830 -0.1396  0.0643
   30POPC   PO4  783   3.352  -0.115   8.407 -0.1598  0.1166 -0.0604
   30POPC   GL1  784   3.176   0.061   8.113  0.0087  0.0336  0.1790
   30POPC   GL2  785   2.934   0.028   7.884  0.0292  0.1092  0.0760
   30POPC   C1A  786   2.921   0.499   7.850 -0.1776 -0.2367  0.0698
   30POPC   D2A  787   2.862   0.775   7.519  0.0724  0.0339 -0.0555
   30POPC   C3A  788   3.018   1.089   7.434 -0.2610  0.1360 -0.1432
   30POPC   C4A  789   3.397   1.196   7.279  0.0193 -0.0672 -0.1847
   30POPC   C1B  790   3.187   0.243   7.558 -0.1111  0.0282  0.0594
   30POPC   C2B  791   2.877   0.146   7.255 -0.0254  0.0907 -0.0364
   30POPC   C3B  792   3.112   0.302   6.807 -0.0346  0.2316  0.1213
   30POPC   C4B  793   2.968   0.573   6.489 -0.2551 -0.0714 -0.3293
   31POPC   NC3  794   5.955   1.061   8.812 -0.3694  0.2112  0.1117
   31POPC   PO4  795   5.981   0.650   8.529 -0.1887  0.3431 -0.1107
   31POPC   GL1  796   5.760   0.877   8.215 -0.0699  0.1814  0.2235
   31POPC   GL2  797   5.423   0.916   8.235  0.0945  0.0844 -0.2184
   31POPC   C1A  798   5.847   0.827   7.800 -0.1143  0.0929  0.0170
   31POPC   D2A  799   5.894   0.994   7.381 -0.3018 -0.0399  0.0063
   31POPC   C3A  800   6.208   0.805   7.024  0.1473 -0.1350  0.1105
   31POPC   C4A  801   6.214   0.349   6.946  0.0778  0.3043  0.0222
   31POPC   C1B  802   5.386   1.106   7.784  0.0848 -0.4105 -0.4361
   31POPC   C2B  803   5.177   1.314   7.468 -0.0224 -0.2801  0.0109
   31POPC   C3B  804   5.111   1.499   7.110  0.0717 -0.0037  0.1869
   31POPC   C4B  805   5.285   1.821   6.818  0.5073  0.3004  0.0949
   32POPC   NC3  806   4.936   9.432   8.457 -0.2075  0.0577 -0.0697
   32POPC   PO4  807   5.351   9.410   8.474  0.2539  0.1339  0.0095
   32POPC   GL1  808   5.332   9.458   8.056 -0.0689  0.0534 -0.1937
   32POPC   GL2  809   5.583   9.181   8.030 -0.0525 -0.2907  0.0236
   32POPC   C1A  810   5.525   9.581   7.701  0.0594 -0.0122 -0.0570
   32POPC   D2A  811   5.805   9.720   7.367  0.2365 -0.5104 -0.4117
   32POPC   C3A  812   5.715   9.959   6.903 -0.3063 -0.0086 -0.2180
   32POPC   C4A  813   5.539  10.326   6.652 -0.0968  0.1815  0.2223
   32POPC   C1B  814   5.307   9.082   7.689  0.0086  0.0793 -0.0205
   32POPC   C2B  815   5.451   9.242   7.324 -0.2394 -0.0228 -0.0963
   32POPC   C3B  816   5.676   9.470   6.955 -0.2819 -0.2025  0.0640
   32POPC   C4B  817   5.812   9.647   6.546  0.2173  0.1489 -0.0691
   33POPC   NC3  818   0.599   5.681   8.764 -0.0316 -0.0498  0.0302
   33POPC   PO4  819   0.255   5.722   8.387 -0.0582  0.3235 -0.0112
   33POPC   GL1  820   0.129   5.431   8.006 -0.3442  0.0984 -0.1715
   33POPC   GL2  821   0.089   5.102   8.053 -0.2625  0.1658  0.1351
   33POPC   C1A  822   0.272   5.477   7.524  0.2678  0.2509  0.1986
   33POPC   D2A  823   0.433   5.778   7.145  0.0483 -0.1445  0.0388
   33POPC   C3A  824   0.535   5.554   6.698 -0.1455  0.0585  0.0206
   33POPC   C4A  825   0.728   5.242   6.320 -0.1021 -0.0909  0.0484
   33POPC   C1B  826   0.146   5.049   7.723 -0.0928 -0.1246 -0.2413
   33POPC   C2B  827  -0.142   5.199   7.442 -0.1268  0.3564 -0.1326
   33POPC   C3B  828  -0.452   5.275   7.085 -0.0227  0.0547 -0.1512
   33POPC   C4B  829  -0.865   5.420   7.119  0.0456  0.0173  0.2124
   34POPC   NC3  830   5.985   4.738   8.556 -0.0265 -0.0962  0.0448
   34POPC   PO4  831   5.802   5.242   8.667  0.3643  0.3340 -0.1954
   34POPC   GL1  832   5.663   5.173   8.335  0.0722  0.1853  0.2580
   34POPC   GL2  833   5.348   5.021   8.288 -0.1884 -0.0951 -0.0408
   34POPC   C1A  834   5.954   5.022   7.925  0.3243 -0.1153  0.1024
   34POPC   D2A  835   5.907   4.660   7.564  0.1735  0.1897 -0.1524
   34POPC   C3A  836   5.610   4.305   7.342 -0.2660  0.3492  0.1725
   34POPC   C4A  837   5.297   4.198   7.088 -0.0725  0.0311 -0.0557
   34POPC   C1B  838   5.451   4.840   7.890 -0.1811 -0.5568  0.0458
   34POPC   C2B  839   5.276   4.775   7.501  0.0442  0.2092 -0.1243
   34POPC   C3B  840   5.445   4.781   7.107 -0.1793  0.3169  0.2628
   34POPC   C4B  841   5.464   4.496   6.754 -0.0328  0.0806 -0.4258
   35POPC   NC3  842   5.082   4.815   8.619 -0.0507  0.0058  0.0253
   35POPC   PO4  843   5.501   4.907   8.921  0.1049  0.0072 -0.0424
   35POPC   GL1  844   5.476   4.539   8.531  0.3171  0.1547  0.0912
   35POPC   GL2  845   5.636   4.549   8.281 -0.1720 -0.1330  0.2086
   35POPC   C1A  846   5.586   4.123   8.439  0.1361 -0.2660  0.0539
   35POPC   D2A  847   5.736   3.798   8.099  0.0835 -0.2737  0.1916
   35POPC   C3A  848   5.877   3.975   7.626  0.2227 -0.0030  0.2442
   35POPC   C4A  849   6.129   4.215   7.268  0.1140  0.1491 -0.0542
   35POPC   C1B  850   5.945   4.261   8.104 -0.4474  0.0551  0.2649
   35POPC   C2B  851   6.230   4.101   7.942  0.1779  0.3078  0.1096
   35POPC   C3B  852   6.384   3.944   7.598 -0.0461 -0.1749 -0.2177
   35POPC   C4B  853   6.889   3.921   7.515  0.0522  0.0202  0.1416
   36POPC   NC3  854   6.454   9.133   8.969  0.2822 -0.0970  0.1534
   36POPC   PO4  855   6.613   9.038   8.401 -0.1281 -0.3562 -0.0431
   36POPC   GL1  856   6.688   9.283   7.936 -0.0206  0.1011 -0.0698
   36POPC   GL2  857   6.816   9.516   8.034 -0.1677 -0.0080 -0.0893
   36POPC   C1A  858   6.549   9.511   7.603  0.0925 -0.0376  0.1287
   36POPC   D2A  859   6.520   9.673   7.091 -0.2589  0.2725  0.2728
   36POPC   C3A  860   6.235   9.798   6.768 -0.0464 -0.0678 -0.3231
   36POPC   C4A  861   6.019  10.084   6.492  0.0694  0.2999 -0.0063
   36POPC   C1B  862   7.138   9.429   7.628 -0.1051  0.1737  0.1512
   36POPC   C2B  863   7.360   9.427   7.251 -0.2457 -0.2307  0.0604
   36POPC   C3B  864   7.530   9.166   6.912 -0.1175 -0.4591  0.5820
   36POPC   C4B  865   7.461   8.767   6.746  0.1720 -0.0279 -0.1161
   37POPC   NC3  866   4.047   6.307   9.026  0.1842  0.0436  0.2095
   37POPC   PO4  867   3.839   6.009   8.678 -0.2787  0.1637 -0.1500
   37POPC   GL1  868   4.114   5.901   8.360  0.0196 -0.0574 -0.1011
   37POPC   GL2  869   4.013   5.656   8.275 -0.0832 -0.0064  0.0189
   37POPC   C1A  870   4.085   5.863   7.866  0.0365 -0.3898  0.2576
   37POPC   D2A  871   4.153   5.661   7.563  0.0877 -0.1505  0.0693
   37POPC   C3A  872   3.943   5.704   7.149  0.2877  0.0923 -0.0046
   37POPC   C4A  873   3.965   5.721   6.627 -0.1606  0.1492  0.1113
   37POPC   C1B  874   3.768   5.487   7.875 -0.3230 -0.3813  0.3249
   37POPC   C2B  875   3.596   5.585   7.517 -0.0488  0.1300 -0.1549
   37POPC   C3B  876   3.168   5.556   7.366 -0.2425 -0.0328  0.1275
   37POPC   C4B  877   2.679   5.633   7.271  0.0847  0.3090  0.3685
   38POPC   NC3  878   1.682   8.403   8.443 -0.0588  0.0684  0.0157
   38POPC   PO4  879   1.470   8.590   8.107  0.6097 -0.0448 -0.0570
   38POPC   GL1  880   1.740   8.643   7.756  0.0066  0.1511 -0.1290
   38POPC   GL2  881   1.609   8.970   7.636 -0.1965 -0.1207 -0.0386
   38POPC   C1A  882   1.785   8.617   7.309 -0.3244 -0.0167 -0.0302
   38POPC   D2A  883   1.837   8.448   6.932  0.2097 -0.0007 -0.2468
   38POPC   C3A  884   1.982   8.138   6.654 -0.0193  0.1395 -0.2451
   38POPC   C4A  885   1.942   7.629   6.679  0.4787  0.1626  0.0753
   38POPC   C1B  886   1.387   9.158   7.362  0.0078  0.1298 -0.0917
   38POPC   C2B  887   1.235   9.213   6.834  0.3324  0.0819 -0.2555
   38POPC   C3B  888   1.233   9.108   6.433 -0.2010 -0.3150 -0.0830
   38POPC   C4B  889   1.101   8.968   6.068 -0.1783 -0.2148  0.1504
   39POPC   NC3  890   4.387   6.390   8.236 -0.2794 -0.1061 -0.1991
   39POPC   PO4  891   4.047   6.434   8.517  0.2165 -0.0277 -0.1187
   39POPC   GL1  892   3.845   6.310   8.138  0.1225 -0.1333 -0.1613
   39POPC   GL2  893   3.843   6.626   8.001 -0.1996  0.0419  0.1359
   39POPC   C1A  894   3.602   5.973   7.974  0.0898  0.1403 -0.3345
   39POPC   D2A  895   3.306   5.544   8.026 -0.0091 -0.1287 -0.2661
   39POPC   C3A  896   2.948   5.586   7.808  0.1361  0.1641  0.1809
   39POPC   C4A  897   2.587   5.368   7.663 -0.1023  0.1991  0.2725
   39POPC   C1B  898   4.118   6.555   7.662 -0.0889 -0.4081  0.1580
   39POPC   C2B  899   4.007   6.599   7.190 -0.1930 -0.4185 -0.2678
   39POPC   C3B  900   3.864   6.202   7.027 -0.0240  0.2192  0.0631
   39POPC   C4B  901   3.477   5.967   7.155  0.0705  0.1483  0.3325
   40POPC   NC3  902   3.507   1.052   9.234  0.3430 -0.2738  0.0119
   40POPC   PO4  903   3.335   0.648   8.920 -0.0364 -0.0101 -0.0601
   40POPC   GL1  904   3.553   0.861   8.573 -0.1866  0.0065  0.1301
   40POPC   GL2  905   3.754   0.690   8.418 -0.1912  0.5281 -0.0608
   40POPC   C1A  906   3.635   1.204   8.482 -0.2226  0.2652 -0.1385
   40POPC   D2A  907   3.809   1.411   8.096 -0.1304  0.0677  0.2156
   40POPC   C3A  908   3.881   1.809   7.911  0.0063 -0.0711 -0.1126
   40POPC   C4A  909   3.948   2.073   7.618  0.0250  0.1411 -0.0792
   40POPC   C1B  910   3.990   0.897   8.180 -0.1088 -0.1821  0.0791
   40POPC   C2B  911   4.232   1.178   7.899  0.0707 -0.0629 -0.1630
   40POPC   C3B  912   4.058   1.526   7.565  0.2081 -0.4321  0.2280
   40POPC   C4B  913   3.647   1.731   7.387 -0.0929 -0.0096 -0.1745
   41POPC   NC3  914   0.409   0.664   8.561 -0.2057  0.4496 -0.2003
   41POPC   PO4  915   0.402   1.106   8.726  0.1144 -0.1447  0.1536
   41POPC   GL1  916   0.516   1.170   8.250 -0.1312  0.0381  0.1920
   41POPC   GL2  917   0.647   0.851   8.146 -0.1412  0.2271  0.2131
   41POPC   C1A  918   0.556   1.447   7.865 -0.0363  0.1584 -0.0359
   41POPC   D2A  919   0.684   1.778   7.552  0.1327 -0.1083  0.0012
   41POPC   C3A  920   0.889   1.658   7.100 -0.0236  0.1245 -0.5854
   41POPC   C4A  921   1.275   1.694   6.712  0.0295 -0.0146 -0.2073
   41POPC   C1B  922   0.922   0.898   7.775 -0.1136 -0.3484  0.0671
   41POPC   C2B  923   1.168   0.922   7.328  0.1519 -0.1736 -0.1897
   41POPC   C3B  924   1.184   1.098   6.878  0.0101  0.2739 -0.1582
   41POPC   C4B  925   0.944   0.890   6.535  0.2520 -0.2386 -0.2050
   42POPC   NC3  926   2.584   4.635   9.788  0.2593  0.0471 -0.0356
   42POPC   PO4  927   2.401   4.639   9.412 -0.1140 -0.1002 -0.0379
   42POPC   GL1  928   2.380   4.288   9.036 -0.0075 -0.2098  0.0929
   42POPC   GL2  929   2.280   4.049   9.231  0.0862 -0.1205 -0.2501
   42POPC   C1A  930   2.241   4.304   8.577  0.1227 -0.1129  0.0458
   42POPC   D2A  931   2.097   4.017   8.361  0.2821  0.0905 -0.2465
   42POPC   C3A  932   2.073   4.064   7.945  0.1419 -0.0527  0.1871
   42POPC   C4A  933   2.278   4.303   7.676  0.0568 -0.1024 -0.0234
   42POPC   C1B  934   2.162   3.882   8.838  0.0158 -0.0246  0.3513
   42POPC   C2B  935   1.816   3.577   8.768  0.3133  0.1215  0.2228
   42POPC   C3B  936   1.794   3.388   8.521  0.1295 -0.1565 -0.3329
   42POPC   C4B  937   1.996   3.570   8.166  0.0121 -0.1135 -0.1023
   43POPC   NC3  938   0.252   3.654   8.938 -0.0598 -0.0418  0.1214
   43POPC   PO4  939   0.019   3.336   8.753 -0.0351 -0.2938  0.1133
   43POPC   GL1  940   0.229   3.448   8.334  0.1912 -0.2957  0.2362
   43POPC   GL2  941  -0.012   3.414   8.135  0.1787  0.0282 -0.2265
   43POPC   C1A  942   0.458   3.212   7.988  0.1948 -0.0879  0.1461
   43POPC   D2A  943   0.682   3.119   7.610  0.1486 -0.0871  0.1482
   43POPC   C3A  944   0.888   3.183   7.238 -0.1732  0.0385  0.1804
   43POPC   C4A  945   0.875   3.456   6.894  0.2329  0.1788 -0.1083
   43POPC   C1B  946   0.081   2.956   7.879  0.2946 -0.2108 -0.1061
   43POPC   C2B  947   0.428   2.671   7.869  0.2334  0.1694  0.1308
   43POPC   C3B  948   0.389   2.312   7.969  0.1803  0.0175  0.3511
   43POPC   C4B  949   0.387   1.807   8.175 -0.3453  0.2626 -0.2032
   44POPC   NC3  950   3.535   4.751   9.671  0.0131 -0.1211  0.3767
   44POPC   PO4  951   3.233   4.851   9.369  0.0369  0.1026  0.2125
   44POPC   GL1  952   3.168   4.868   8.917 -0.2417  0.0370  0.1270
   44POPC   GL2  953   3.369   5.067   8.783 -0.2056  0.0343  0.1791
   44POPC   C1A  954   3.120   4.701   8.439 -0.4426  0.0010  0.0958
   44POPC   D2A  955   3.212   4.500   8.112 -0.1998 -0.3687 -0.3012
   44POPC   C3A  956   3.193   4.705   7.688  0.1284 -0.1207  0.0555
   44POPC   C4A  957   2.841   4.951   7.552  0.0663  0.0317  0.0599
   44POPC   C1B  958   3.360   5.147   8.339 -0.1717 -0.2054 -0.0013
   44POPC   C2B  959   3.636   5.017   8.033 -0.2180  0.0295  0.2872
   44POPC   C3B  960   3.684   4.842   7.557  0.2296  0.0630  0.2839
   44POPC   C4B  961   3.428   4.569   7.247 -0.1694  0.0114 -0.1239
   45POPC   NC3  962   6.331   3.495   8.803 -0.2992 -0.2559 -0.2610
   45POPC   PO4  963   6.464   3.983   8.788  0.0160 -0.2876 -0.0578
   45POPC   GL1  964   6.583   3.763   8.429 -0.0287  0.3556  0.1095
   45POPC   GL2  965   6.274   3.749   8.303  0.0137  0.1026  0.4370
   45POPC   C1A  966   6.658   3.758   7.971 -0.3371 -0.1467 -0.1631
   45POPC   D2A  967   6.562   3.419   7.678  0.0378  0.1454 -0.1153
   45POPC   C3A  968   6.592   3.483   7.238  0.2150  0.0392  0.1991
   45POPC   C4A  969   6.683   3.499   6.773 -0.0004  0.1412  0.0399
   45POPC   C1B  970   6.161   3.600   7.836  0.2957  0.3754  0.0940
   45POPC   C2B  971   6.129   3.588   7.385 -0.1546 -0.3993 -0.1378
   45POPC   C3B  972   6.139   3.677   6.980  0.0474 -0.3198 -0.2047
   45POPC   C4B  973   6.048   3.649   6.555  0.0635 -0.3038  0.2141
   46POPC   NC3  974   8.295   8.882   9.104 -0.2940 -0.0647  0.3093
   46POPC   PO4  975   7.964   8.760   8.796  0.1519 -0.2864 -0.3311
   46POPC   GL1  976   7.685   8.691   8.431  0.4125  0.1341  0.0193
   46POPC   GL2  977   7.346   8.599   8.356 -0.2594  0.1653 -0.2738
   46POPC   C1A  978   7.565   8.956   8.107  0.0448  0.0984 -0.4518
   46POPC   D2A  979   7.227   8.904   7.726 -0.1134 -0.2913 -0.1940
   46POPC   C3A  980   6.817   8.850   7.654 -0.2030 -0.2728 -0.2518
   46POPC   C4A  981   6.747   9.148   7.306 -0.1485 -0.3458 -0.3594
   46POPC   C1B  982   7.547   8.495   7.940 -0.1537  0.0725 -0.2494
   46POPC   C2B  983   7.485   8.549   7.496  0.3948 -0.0106 -0.1354
   46POPC   C3B  984   7.170   8.817   7.173 -0.0394 -0.1801  0.1283
   46POPC   C4B  985   6.837   8.558   6.792  0.1087 -0.0103  0.1397
   47POPC   NC3  986   5.794   9.915   8.669  0.2420  0.2110 -0.0458
   47POPC   PO4  987   6.213  10.022   8.608  0.0061  0.0335  0.2457
   47POPC   GL1  988   6.268   9.982   8.128  0.0836  0.0306 -0.0139
   47POPC   GL2  989   6.580  10.069   8.072 -0.0171  0.2451  0.0321
   47POPC   C1A  990   6.206   9.891   7.723  0.0383 -0.0567  0.1057
   47POPC   D2A  991   6.322   9.973   7.390  0.2607 -0.1479 -0.2643
   47POPC   C3A  992   6.623  10.223   7.220 -0.0278 -0.5709 -0.4232
   47POPC   C4A  993   7.058  10.360   7.112  0.0272 -0.2093 -0.1616
   47POPC   C1B  994   6.541  10.353   7.788 -0.0302 -0.0423 -0.0404
   47POPC   C2B  995   6.791  10.633   7.426  0.0438  0.0597 -0.0635
   47POPC   C3B  996   6.685  10.664   6.964 -0.0114  0.1957 -0.2260
   47POPC   C4B  997   6.523  10.933   6.582 -0.0591 -0.0748  0.1180
   48POPC   NC3  998   9.284   6.291   9.184 -0.1038  0.1539 -0.0844
   48POPC   PO4  999   9.238   6.561   8.660  0.1075 -0.0264 -0.1020
   48POPC   GL1 1000   9.163   6.654   8.303  0.0295 -0.1434  0.0229
   48POPC   GL2 1001   9.304   6.542   8.051 -0.1307  0.1400 -0.1763
   48POPC   C1A 1002   8.959   6.946   8.059  0.1593  0.5921  0.1987
   48POPC   D2A 1003   8.525   7.071   7.908  0.1297 -0.1862 -0.1957
   48POPC   C3A 1004   8.441   7.137   7.463 -0.0186 -0.2231  0.0550
   48POPC   C4A 1005   8.391   7.230   7.104  0.0878 -0.2956 -0.0310
   48POPC   C1B 1006   9.268   6.578   7.570  0.1528 -0.0128 -0.1528
   48POPC   C2B 1007   9.118   6.638   7.156 -0.1253  0.2105 -0.2360
   48POPC   C3B 1008   9.187   6.474   6.784  0.1804  0.2731  0.1445
   48POPC   C4B 1009   9.288   6.591   6.315 -0.0404  0.1397  0.0644
   49POPC   NC3 1010   0.122   9.265   8.072 -0.1438 -0.1499 -0.0693
   49POPC   PO4 1011   0.561   9.434   8.116 -0.1013 -0.0597 -0.1803
   49POPC   GL1 1012   0.785   9.366   7.809  0.0366  0.1259 -0.2602
   49POPC   GL2 1013   1.200   9.429   7.739  0.2544 -0.1844  0.1579
   49POPC   C1A 1014   0.904   9.165   7.412 -0.2618 -0.2095  0.0934
   49POPC   D2A 1015   0.730   9.158   7.064  0.2842 -0.0848 -0.0425
   49POPC   C3A 1016   0.458   9.322   6.838  0.1999  0.4036  0.4254
   49POPC   C4A 1017   0.274   9.682   6.835  0.1612 -0.0225  0.0191
   49POPC   C1B 1018   1.262   9.665   7.345 -0.1103 -0.1195  0.1833
   49POPC   C2B 1019   1.478   9.907   7.000  0.1389 -0.1020  0.1013
   49POPC   C3B 1020   1.477   9.916   6.548  0.1341  0.1539  0.1488
   49POPC   C4B 1021   1.283  10.079   6.101 -0.0361  0.1346 -0.1125
   50POPC   NC3 1022   8.037   0.178   8.774  0.2194  0.1519 -0.3019
   50POPC   PO4 1023   7.941  -0.300   8.887  0.1028 -0.1251 -0.0742
   50POPC   GL1 1024   7.884  -0.235   8.363 -0.1697  0.0685 -0.1367
   50POPC   GL2 1025   8.096   0.067   8.281  0.1425  0.0453 -0.0779
   50POPC   C1A 1026   7.794  -0.463   8.037  0.0501  0.0519  0.1181
   50POPC   D2A 1027   7.604  -0.620   7.759  0.1602  0.0083  0.2386
   50POPC   C3A 1028   7.677  -0.948   7.402 -0.1698 -0.0850  0.3002
   50POPC   C4A 1029   7.702  -1.365   7.092  0.2757 -0.0434  0.1211
   50POPC   C1B 1030   8.133  -0.058   7.806 -0.3367 -0.2926  0.0132
   50POPC   C2B 1031   8.046  -0.317   7.588  0.1520 -0.1008  0.0436
   50POPC   C3B 1032   7.804  -0.335   7.195  0.0234  0.1093 -0.1926
   50POPC   C4B 1033   7.857  -0.191   6.816  0.1387  0.1190  0.1619
   51POPC   NC3 1034   8.935   0.521   8.258  0.1411  0.1730 -0.0210
   51POPC   PO4 1035   9.267   0.252   8.027 -0.3042  0.1268  0.3624
   51POPC   GL1 1036   9.022   0.496   7.703 -0.0762 -0.2420  0.0076
   51POPC   GL2 1037   9.215   0.460   7.413  0.2206 -0.0535  0.2297
   51POPC   C1A 1038   8.688   0.580   7.354  0.2382  0.0703 -0.4313
   51POPC   D2A 1039   8.268   0.738   7.156 -0.0614  0.1284 -0.1973
   51POPC   C3A 1040   7.884   0.697   7.027  0.0939  0.1147  0.0074
   51POPC   C4A 1041   7.535   0.515   6.947 -0.2819 -0.1265 -0.2407
   51POPC   C1B 1042   9.217   0.544   6.947  0.0782 -0.0189 -0.1357
   51POPC   C2B 1043   9.495   0.805   6.610 -0.1133  0.2541 -0.0199
   51POPC   C3B 1044   9.938   0.857   6.638  0.0331 -0.0077 -0.3598
   51POPC   C4B 1045  10.327   0.697   6.721 -0.1447  0.2213 -0.2387
   52POPC   NC3 1046   7.484   5.947   8.584 -0.0790 -0.0881 -0.2325
   52POPC   PO4 1047   7.792   5.667   8.627  0.0319 -0.0718  0.1337
   52POPC   GL1 1048   7.876   5.320   8.331  0.1770  0.0722 -0.3376
   52POPC   GL2 1049   8.185   5.412   8.054 -0.0998  0.0801 -0.2528
   52POPC   C1A 1050   7.860   5.025   7.966  0.0355 -0.0220  0.0584
   52POPC   D2A 1051   7.881   4.707   7.620  0.1457  0.0818 -0.0099
   52POPC   C3A 1052   8.192   4.508   7.448  0.0950  0.4193  0.1348
   52POPC   C4A 1053   8.468   4.320   7.136 -0.1576 -0.2439  0.0657
   52POPC   C1B 1054   8.515   5.428   7.695  0.3899 -0.2304 -0.2366
   52POPC   C2B 1055   8.597   5.316   7.323 -0.3158 -0.0863  0.2173
   52POPC   C3B 1056   8.584   5.263   6.909 -0.1275 -0.0387 -0.0998
   52POPC   C4B 1057   8.467   5.531   6.640  0.0637 -0.0056  0.1685
   53POPC   NC3 1058   7.294   1.408   8.599  0.2922  0.5529 -0.3208
   53POPC   PO4 1059   7.726   1.444   8.563  0.5270  0.0077 -0.1481
   53POPC   GL1 1060   7.616   1.168   8.158  0.1746  0.0234 -0.0384
   53POPC   GL2 1061   7.971   1.113   8.142  0.1245 -0.1741 -0.3099
   53POPC   C1A 1062   7.728   0.983   7.751  0.3307  0.4314  0.3854
   53POPC   D2A 1063   7.888   1.125   7.367 -0.0239  0.1227  0.0204
   53POPC   C3A 1064   7.696   1.436   7.101  0.0577 -0.1104  0.0944
   53POPC   C4A 1065   7.664   1.375   6.635 -0.2451 -0.0203  0.0339
   53POPC   C1B 1066   7.937   1.593   7.937  0.1923  0.1824  0.0840
   53POPC   C2B 1067   7.929   1.833   7.532  0.1282 -0.0670  0.0706
   53POPC   C3B 1068   7.945   1.893   7.068  0.1815  0.1311  0.0154
   53POPC   C4B 1069   7.808   2.146   6.827 -0.0156  0.2275 -0.0719
   54POPC   NC3 1070   9.588   1.078   8.442  0.1516 -0.2203 -0.0056
   54POPC   PO4 1071   9.564   1.548   8.335  0.3117 -0.0739  0.1000
   54POPC   GL1 1072   9.382   1.656   7.909  0.0519 -0.0877 -0.1220
   54POPC   GL2 1073   9.577   1.628   7.761 -0.2977  0.2540  0.2073
   54POPC   C1A 1074   9.110   1.776   7.540  0.0732  0.0634  0.0429
   54POPC   D2A 1075   8.800   1.559   7.385 -0.1010  0.1322 -0.1170
   54POPC   C3A 1076   8.885   1.358   6.952  0.0455 -0.0333 -0.1703
   54POPC   C4A 1077   8.745   0.879   6.906 -0.0486  0.2418  0.0444
   54POPC   C1B 1078   9.614   1.705   7.342  0.1936 -0.0356  0.0429
   54POPC   C2B 1079   9.897   1.897   6.939  0.3591  0.1532 -0.0210
   54POPC   C3B 1080   9.773   1.811   6.550 -0.1542 -0.2577  0.1993
   54POPC   C4B 1081   9.481   1.421   6.441 -0.2434  0.0344  0.1162
   55POPC   NC3 1082   2.521   7.810   8.290 -0.2356  0.2687 -0.0598
   55POPC   PO4 1083   2.447   8.156   8.246 -0.3485  0.1440 -0.1793
   55POPC   GL1 1084   2.427   8.171   7.835  0.0452 -0.1936  0.3472
   55POPC   GL2 1085   2.495   7.868   7.795 -0.0107  0.4010  0.2261
   55POPC   C1A 1086   2.689   8.252   7.415 -0.0323 -0.4139  0.0651
   55POPC   D2A 1087   3.004   8.181   7.142  0.0433 -0.0473  0.0125
   55POPC   C3A 1088   3.422   8.367   7.053 -0.1815 -0.1247 -0.0590
   55POPC   C4A 1089   3.834   8.470   6.945  0.0305 -0.0839 -0.0485
   55POPC   C1B 1090   2.695   7.586   7.647 -0.2553 -0.0391 -0.1379
   55POPC   C2B 1091   2.620   7.565   7.168 -0.0231 -0.0609  0.1804
   55POPC   C3B 1092   2.746   7.873   6.774 -0.0981 -0.0073 -0.0766
   55POPC   C4B 1093   2.823   8.086   6.463 -0.0288 -0.0174  0.0385
   56POPC   NC3 1094   5.411   0.420   8.422  0.0209 -0.2076 -0.1388
   56POPC   PO4 1095   5.394   0.004   8.351  0.0894  0.1866  0.4184
   56POPC   GL1 1096   5.445   0.137   7.936  0.0324 -0.1246  0.0063
   56POPC   GL2 1097   5.456   0.523   7.892 -0.1044  0.0089 -0.1067
   56POPC   C1A 1098   5.386   0.145   7.546  0.0169 -0.2002 -0.0502
   56POPC   D2A 1099   5.165  -0.042   7.229 -0.0331  0.4719 -0.1666
   56POPC   C3A 1100   5.115  -0.291   6.903 -0.0081  0.0322 -0.0482
   56POPC   C4A 1101   5.326  -0.491   6.606  0.2637  0.1064  0.0791
   56POPC   C1B 1102   5.319   0.636   7.511 -0.2793  0.1816 -0.1912
   56POPC   C2B 1103   5.337   0.965   7.181 -0.0527  0.0356 -0.3878
   56POPC   C3B 1104   5.341   1.106   6.747 -0.0487 -0.0595 -0.0615
   56POPC   C4B 1105   5.206   1.033   6.305  0.0476  0.0747 -0.3015
   57POPC   NC3 1106   5.167   4.093   9.263  0.2787 -0.1710 -0.1828
   57POPC   PO4 1107   5.145   4.429   8.891  0.1569  0.0742  0.0331
   57POPC   GL1 1108   5.057   4.137   8.610 -0.0687  0.2227 -0.0471
   57POPC   GL2 1109   4.858   4.051   8.590 -0.0181 -0.1853 -0.2613
   57POPC   C1A 1110   5.157   4.178   8.222  0.4156 -0.2015  0.0086
   57POPC   D2A 1111   5.125   4.032   7.720 -0.2489  0.0219 -0.0968
   57POPC   C3A 1112   5.006   3.862   7.333  0.0337  0.4247 -0.2634
   57POPC   C4A 1113   5.047   3.481   7.177  0.0179  0.0179  0.0730
   57POPC   C1B 1114   4.767   3.952   8.025 -0.1922 -0.1316 -0.0765
   57POPC   C2B 1115   4.652   4.036   7.630  0.3277  0.2999 -0.0505
   57POPC   C3B 1116   4.401   4.392   7.318 -0.3401  0.0939  0.2475
   57POPC   C4B 1117   4.567   4.738   7.120 -0.0570 -0.0372  0.2811
   58POPC   NC3 1118   1.196   0.731   8.910  0.0813  0.1586  0.0791
   58POPC   PO4 1119   0.953   0.633   8.576  0.2257 -0.2273 -0.1020
   58POPC   GL1 1120   1.113   0.636   8.153 -0.0363  0.2891 -0.2698
   58POPC   GL2 1121   1.364   0.813   8.090 -0.2873  0.0560  0.1413
   58POPC   C1A 1122   1.219   0.478   7.639 -0.0245 -0.1375 -0.2484
   58POPC   D2A 1123   1.078   0.190   7.172 -0.1863 -0.2197  0.4109
   58POPC   C3A 1124   1.037   0.216   6.723  0.0240 -0.3842  0.2574
   58POPC   C4A 1125   0.928   0.454   6.327 -0.2964  0.2089 -0.2126
   58POPC   C1B 1126   1.445   1.102   7.737  0.0580 -0.0889 -0.0826
   58POPC   C2B 1127   1.669   1.074   7.396 -0.0434 -0.0136  0.0464
   58POPC   C3B 1128   1.967   1.157   7.219 -0.3493  0.2530  0.2793
   58POPC   C4B 1129   2.412   0.938   7.186  0.1277  0.2944 -0.1717
   59POPC   NC3 1130   7.018   2.393   8.855  0.3037  0.0724  0.2232
   59POPC   PO4 1131   6.654   2.128   8.688 -0.1119  0.2601  0.2139
   59POPC   GL1 1132   6.569   2.085   8.240 -0.2579  0.0235 -0.2510
   59POPC   GL2 1133   6.332   2.193   8.191  0.1937  0.1136  0.0160
   59POPC   C1A 1134   6.805   1.932   7.919  0.4497  0.0836 -0.0391
   59POPC   D2A 1135   6.662   1.664   7.543  0.3048 -0.0796 -0.0144
   59POPC   C3A 1136   6.984   1.475   7.458 -0.1268 -0.0487 -0.2066
   59POPC   C4A 1137   7.384   1.309   7.458 -0.0180  0.0845 -0.2596
   59POPC   C1B 1138   5.906   2.221   7.900 -0.2916 -0.1297 -0.2794
   59POPC   C2B 1139   5.608   2.338   7.455  0.0977 -0.1329  0.2616
   59POPC   C3B 1140   5.448   2.344   7.003 -0.2679  0.1577 -0.2535
   59POPC   C4B 1141   4.997   2.242   6.871 -0.1567 -0.0136 -0.4810
   60POPC   NC3 1142   9.747   9.480   8.864 -0.1629  0.1676  0.0738
   60POPC   PO4 1143   9.740   9.230   8.529  0.1287 -0.4645 -0.1202
   60POPC   GL1 1144   9.574   9.433   8.118 -0.1271  0.0525  0.0309
   60POPC   GL2 1145   9.544   9.204   7.863 -0.2395 -0.4923 -0.0012
   60POPC   C1A 1146   9.726   9.641   7.717  0.1403 -0.0518  0.0027
   60POPC   D2A 1147   9.321   9.878   7.488  0.3667 -0.1223 -0.3858
   60POPC   C3A 1148   9.395   9.897   7.093  0.2926  0.2209 -0.0404
   60POPC   C4A 1149   9.665   9.736   6.807  0.0526 -0.1728  0.0850
   60POPC   C1B 1150   9.172   9.395   7.662  0.4138 -0.1973  0.3118
   60POPC   C2B 1151   8.970   9.592   7.383  0.0451 -0.1920 -0.0645
   60POPC   C3B 1152   8.799   9.746   6.965  0.1962  0.0968  0.2565
   60POPC   C4B 1153   9.008  10.020   6.757  0.4225  0.0042 -0.1467
   61POPC   NC3 1154   8.942   5.266   8.714  0.0580 -0.0440 -0.2521
   61POPC   PO4 1155   8.515   5.069   8.571  0.1235 -0.0799 -0.4006
   61POPC   GL1 1156   8.506   4.976   8.173 -0.4780 -0.0391 -0.1828
   61POPC   GL2 1157   8.653   4.735   8.030  0.0806 -0.2421 -0.0818
   61POPC   C1A 1158   8.340   4.975   7.782 -0.0318 -0.0427 -0.0469
   61POPC   D2A 1159   8.098   5.153   7.466 -0.2313 -0.0889  0.0167
   61POPC   C3A 1160   8.011   4.894   7.109  0.2194 -0.1553 -0.2394
   61POPC   C4A 1161   7.614   4.728   7.019 -0.0496  0.1098  0.0987
   61POPC   C1B 1162   8.850   5.085   7.788 -0.0955  0.0330 -0.0585
   61POPC   C2B 1163   9.036   5.467   7.668  0.0610 -0.1177 -0.0333
   61POPC   C3B 1164   9.422   5.656   7.477  0.1077 -0.0465  0.0689
   61POPC   C4B 1165   9.719   5.667   7.685  0.1333  0.1055 -0.0138
   62POPC   NC3 1166   7.504   1.737   8.938  0.3976 -0.0845  0.0690
   62POPC   PO4 1167   7.162   1.935   8.831  0.0505 -0.1822  0.2104
   62POPC   GL1 1168   7.087   2.197   8.419  0.0868  0.0224 -0.1912
   62POPC   GL2 1169   6.977   2.467   8.266 -0.0168 -0.0462  0.0735
   62POPC   C1A 1170   7.232   2.147   7.993  0.3620  0.2664 -0.1288
   62POPC   D2A 1171   7.187   2.139   7.555 -0.0366 -0.0767  0.0024
   62POPC   C3A 1172   7.341   1.784   7.244 -0.0569  0.0414 -0.1370
   62POPC   C4A 1173   7.243   1.530   6.868  0.1441  0.1164  0.2129
   62POPC   C1B 1174   6.800   2.381   7.875 -0.1375 -0.0600 -0.1861
   62POPC   C2B 1175   6.781   2.455   7.479 -0.1102  0.0450 -0.3153
   62POPC   C3B 1176   6.495   2.656   7.224  0.2543  0.0505  0.0424
   62POPC   C4B 1177   6.405   2.720   6.780  0.0338  0.1322 -0.0902
   63POPC   NC3 1178   3.410   2.413   9.256 -0.0198 -0.2438  0.1081
   63POPC   PO4 1179   3.829   2.517   9.364 -0.0431  0.1157 -0.1359
   63POPC   GL1 1180   3.941   2.578   8.894 -0.4750 -0.2600 -0.4903
   63POPC   GL2 1181   3.726   2.331   8.785  0.2352  0.4504 -0.5193
   63POPC   C1A 1182   3.914   2.711   8.521 -0.1013  0.0638 -0.1177
   63POPC   D2A 1183   3.727   2.983   8.176 -0.0946  0.1149 -0.1257
   63POPC   C3A 1184   3.990   3.093   7.863  0.1337 -0.1955  0.0029
   63POPC   C4A 1185   4.283   2.947   7.646 -0.4273 -0.2482  0.0725
   63POPC   C1B 1186   3.873   2.234   8.352  0.0883  0.1565  0.1792
   63POPC   C2B 1187   3.711   2.367   7.984  0.1316  0.1775  0.0650
   63POPC   C3B 1188   3.638   2.786   7.679 -0.1839 -0.2136  0.0347
   63POPC   C4B 1189   3.373   3.115   7.838 -0.0493  0.1967  0.5638
   64POPC   NC3 1190   4.861   6.124   8.926  0.1972  0.1626 -0.2573
   64POPC   PO4 1191   4.880   6.335   8.555 -0.2204 -0.2042  0.3196
   64POPC   GL1 1192   4.676   5.978   8.349  0.0025 -0.1364  0.1052
   64POPC   GL2 1193   4.869   5.693   8.474  0.0626 -0.2563 -0.2328
   64POPC   C1A 1194   4.801   5.786   7.942 -0.1358  0.3551  0.2454
   64POPC   D2A 1195   4.671   5.829   7.536  0.1740 -0.1999  0.0056
   64POPC   C3A 1196   4.680   5.433   7.180  0.3819  0.1955 -0.1838
   64POPC   C4A 1197   4.346   5.123   6.981 -0.0050  0.1021 -0.1692
   64POPC   C1B 1198   4.972   5.365   8.133  0.1980 -0.6036 -0.1869
   64POPC   C2B 1199   4.849   4.977   7.945 -0.4085 -0.0605 -0.1353
   64POPC   C3B 1200   5.061   4.579   7.904 -0.0435  0.3009  0.0855
   64POPC   C4B 1201   5.471   4.380   7.885 -0.2195 -0.0215  0.2008
   65POPC   NC3 1202   4.378   1.308   8.988 -0.2641  0.0975 -0.2362
   65POPC   PO4 1203   4.706   1.321   8.721  0.4720  0.2424  0.0528
   65POPC   GL1 1204   4.695   1.611   8.481  0.0157 -0.1137  0.0349
   65POPC   GL2 1205   4.550   1.601   8.133 -0.0848 -0.0313 -0.0774
   65POPC   C1A 1206   4.682   2.113   8.428  0.1105  0.1804  0.0559
   65POPC   D2A 1207   4.652   2.576   8.419 -0.0084  0.2153  0.1161
   65POPC   C3A 1208   4.896   2.777   8.079  0.1458  0.1131 -0.1729
   65POPC   C4A 1209   4.784   2.908   7.667  0.0742  0.0612  0.1066
   65POPC   C1B 1210   4.365   1.822   7.826  0.1028  0.2418  0.0122
   65POPC   C2B 1211   4.320   1.966   7.362  0.2148 -0.0354 -0.0366
   65POPC   C3B 1212   4.442   1.799   6.910 -0.0331  0.1040 -0.1058
   65POPC   C4B 1213   4.592   1.566   6.605 -0.0433 -0.1459  0.1745
   66POPC   NC3 1214   4.002   5.451   8.946 -0.0894  0.1584 -0.3796
   66POPC   PO4 1215   4.327   5.118   9.060 -0.0493 -0.2327 -0.1614
   66POPC   GL1 1216   4.279   4.895   8.721  0.1194  0.1901 -0.3572
   66POPC   GL2 1217   4.025   5.124   8.559  0.1230  0.2127 -0.1078
   66POPC   C1A 1218   4.345   4.833   8.312  0.0307  0.0384 -0.0274
   66POPC   D2A 1219   4.367   4.740   7.862  0.3354  0.3457 -0.1814
   66POPC   C3A 1220   4.641   4.537   7.710 -0.1756 -0.5464  0.0529
   66POPC   C4A 1221   4.936   4.360   7.390  0.1374 -0.0094  0.1854
   66POPC   C1B 1222   3.768   4.807   8.702  0.0310  0.2420 -0.1670
   66POPC   C2B 1223   3.465   4.547   8.715 -0.2690  0.1584 -0.2096
   66POPC   C3B 1224   3.212   4.250   8.602  0.2009  0.1048 -0.0582
   66POPC   C4B 1225   2.753   4.392   8.501 -0.0959 -0.1654 -0.2463
   67POPC   NC3 1226   5.540   5.577   8.976 -0.0939 -0.1214 -0.1329
   67POPC   PO4 1227   5.266   5.827   8.867 -0.1311 -0.0369 -0.1171
   67POPC   GL1 1228   5.421   6.024   8.446  0.3367 -0.2698 -0.0255
   67POPC   GL2 1229   5.124   6.078   8.202 -0.2427  0.1852 -0.1674
   67POPC   C1A 1230   5.560   5.962   8.001 -0.2192 -0.0323  0.1474
   67POPC   D2A 1231   5.747   5.809   7.601 -0.0184 -0.3986 -0.2681
   67POPC   C3A 1232   5.555   5.561   7.413 -0.0423  0.0219  0.0664
   67POPC   C4A 1233   5.632   5.122   7.476  0.0181 -0.0586  0.0052
   67POPC   C1B 1234   5.191   5.979   7.691  0.2625  0.3746  0.1349
   67POPC   C2B 1235   5.459   6.104   7.348 -0.3469  0.0319  0.0259
   67POPC   C3B 1236   5.597   6.431   6.983  0.1242 -0.0668  0.1780
   67POPC   C4B 1237   5.415   6.692   6.624  0.0457 -0.0736 -0.0976
   68POPC   NC3 1238   0.699   8.922   8.225  0.1813 -0.0080  0.2898
   68POPC   PO4 1239   0.648   8.521   8.215 -0.2125 -0.1488 -0.2653
   68POPC   GL1 1240   0.595   8.531   7.764 -0.3266  0.2822  0.1296
   68POPC   GL2 1241   0.577   8.921   7.671  0.3204  0.1462 -0.3454
   68POPC   C1A 1242   0.779   8.132   7.534  0.1136 -0.1184 -0.1263
   68POPC   D2A 1243   0.741   7.893   7.181 -0.2053  0.1707 -0.0083
   68POPC   C3A 1244   0.909   7.965   6.767 -0.2658 -0.2923 -0.0053
   68POPC   C4A 1245   1.028   7.749   6.454 -0.1004 -0.2352 -0.0106
   68POPC   C1B 1246   0.348   8.775   7.165  0.1114  0.2301  0.0230
   68POPC   C2B 1247   0.367   8.829   6.773  0.1467 -0.0153 -0.1107
   68POPC   C3B 1248   0.009   8.871   6.473  0.1071 -0.1864 -0.1067
   68POPC   C4B 1249  -0.285   8.874   5.996 -0.1165 -0.1778 -0.1527
   69POPC   NC3 1250   0.755   9.754   8.531  0.1307  0.1610 -0.4090
   69POPC   PO4 1251   0.729  10.216   8.291  0.0126 -0.1967  0.2124
   69POPC   GL1 1252   0.827  10.284   7.888 -0.0881  0.1306  0.3244
   69POPC   GL2 1253   0.645  10.436   7.759 -0.2229 -0.1309  0.1967
   69POPC   C1A 1254   0.886   9.982   7.615 -0.0395 -0.1749  0.1887
   69POPC   D2A 1255   0.712   9.697   7.367 -0.1945  0.2380  0.3519
   69POPC   C3A 1256   0.347   9.609   7.372  0.2935 -0.1027  0.0410
   69POPC   C4A 1257   0.276   9.205   7.397 -0.0922  0.0513  0.0485
   69POPC   C1B 1258   0.807  10.519   7.380  0.1691  0.0263 -0.1142
   69POPC   C2B 1259   0.696  10.779   7.059 -0.1462  0.0070 -0.4985
   69POPC   C3B 1260   0.618  11.142   6.875 -0.1726  0.0320  0.0676
   69POPC   C4B 1261   0.729  11.465   6.472 -0.0499 -0.2833 -0.1823
   70POPC   NC3 1262   0.699   1.367   9.061  0.0284 -0.0333  0.0124
   70POPC   PO4 1263   1.080   1.160   9.185 -0.0210 -0.0441  0.0047
   70POPC   GL1 1264   1.144   1.350   8.765  0.1047 -0.1873 -0.0936
   70POPC   GL2 1265   1.021   1.165   8.600 -0.4963  0.1449 -0.2726
   70POPC   C1A 1266   1.035   1.686   8.487 -0.0057  0.0351  0.2818
   70POPC   D2A 1267   0.933   1.962   8.294 -0.1328  0.0760 -0.2128
   70POPC   C3A 1268   0.820   2.100   7.912 -0.0760 -0.0590 -0.2679
   70POPC   C4A 1269   0.770   2.295   7.557 -0.2962 -0.1466 -0.1620
   70POPC   C1B 1270   1.048   1.277   8.161 -0.3149  0.0835  0.1287
   70POPC   C2B 1271   1.155   1.728   7.921  0.0951 -0.2091 -0.0642
   70POPC   C3B 1272   1.175   1.915   7.476  0.1260 -0.0770 -0.3272
   70POPC   C4B 1273   1.342   2.002   7.104 -0.2486  0.0659 -0.1891
   71POPC   NC3 1274   5.089   3.135   9.074  0.4417  0.1300  0.1776
   71POPC   PO4 1275   5.405   3.393   9.272 -0.4735  0.1093  0.1121
   71POPC   GL1 1276   5.237   3.516   8.864 -0.1457  0.1316 -0.3348
   71POPC   GL2 1277   5.368   3.844   8.827 -0.5053  0.2871  0.1508
   71POPC   C1A 1278   4.851   3.523   8.490  0.2612 -0.0315  0.4233
   71POPC   D2A 1279   4.450   3.559   8.342  0.0296 -0.1614 -0.1704
   71POPC   C3A 1280   4.170   3.199   8.629  0.0057 -0.3625 -0.0735
   71POPC   C4A 1281   3.800   3.109   8.765  0.1676 -0.4130 -0.1367
   71POPC   C1B 1282   5.246   3.729   8.386 -0.1005  0.0538  0.2095
   71POPC   C2B 1283   5.271   3.601   8.025  0.1027  0.0595 -0.2003
   71POPC   C3B 1284   5.379   3.537   7.667 -0.0980  0.0109  0.1536
   71POPC   C4B 1285   5.592   3.751   7.324  0.2954 -0.0214  0.0956
   72POPC   NC3 1286   2.918   5.276   8.878 -0.1162  0.0612  0.1391
   72POPC   PO4 1287   2.464   5.339   8.759 -0.0504 -0.0527 -0.5560
   72POPC   GL1 1288   2.731   5.410   8.417  0.0149 -0.2939 -0.0821
   72POPC   GL2 1289   2.684   5.644   8.231 -0.2291 -0.2728  0.0360
   72POPC   C1A 1290   2.558   5.153   8.124 -0.2704 -0.1120 -0.1504
   72POPC   D2A 1291   2.404   4.846   7.842 -0.1185 -0.1886  0.3762
   72POPC   C3A 1292   1.964   4.770   7.639  0.2094 -0.3330  0.0883
   72POPC   C4A 1293   1.688   4.800   7.324  0.1402 -0.0160  0.1786
   72POPC   C1B 1294   2.311   5.595   7.999  0.1671  0.1707 -0.0164
   72POPC   C2B 1295   2.109   5.308   7.700  0.3569  0.0354 -0.0487
   72POPC   C3B 1296   1.857   5.341   7.387  0.2372  0.2384  0.0744
   72POPC   C4B 1297   1.461   5.511   7.027 -0.3083  0.0681  0.1527
   73POPC   NC3 1298   8.175   7.543   8.042 -0.1423 -0.3234  0.1303
   73POPC   PO4 1299   7.882   7.382   8.222 -0.1622  0.1341  0.0596
   73POPC   GL1 1300   7.824   6.987   8.001  0.4321 -0.1935 -0.4021
   73POPC   GL2 1301   7.475   6.890   8.053  0.1016  0.2252 -0.0036
   73POPC   C1A 1302   7.966   6.901   7.612 -0.1844 -0.2771 -0.2035
   73POPC   D2A 1303   7.980   6.895   7.175 -0.4146  0.1575 -0.0963
   73POPC   C3A 1304   7.568   6.817   6.923 -0.1200 -0.3654 -0.1011
   73POPC   C4A 1305   7.249   6.799   6.588 -0.0489 -0.2118  0.1971
   73POPC   C1B 1306   7.498   6.980   7.571  0.1120 -0.2563 -0.2053
   73POPC   C2B 1307   7.113   7.123   7.341  0.0310 -0.0203 -0.4309
   73POPC   C3B 1308   6.912   7.452   7.104  0.0998 -0.0301  0.0601
   73POPC   C4B 1309   6.758   7.690   6.747 -0.0559 -0.1400  0.3496
   74POPC   NC3 1310   9.250   7.322   8.805  0.1445  0.0465  0.1301
   74POPC   PO4 1311   9.427   7.000   8.588 -0.1988 -0.1585 -0.1636
   74POPC   GL1 1312   9.459   7.148   8.293  0.1515 -0.0531  0.2215
   74POPC   GL2 1313   9.459   7.525   8.229 -0.2119 -0.1534  0.0446
   74POPC   C1A 1314   9.308   7.209   7.857 -0.1774  0.3247 -0.1222
   74POPC   D2A 1315   9.428   7.396   7.541  0.1252 -0.1177 -0.0484
   74POPC   C3A 1316   9.289   7.457   7.044 -0.0688 -0.0169 -0.0699
   74POPC   C4A 1317   9.398   7.496   6.661  0.2106 -0.1577  0.0876
   74POPC   C1B 1318   9.718   7.705   7.882  0.1014  0.1965  0.4174
   74POPC   C2B 1319   9.898   7.537   7.511  0.1270 -0.2863 -0.0159
   74POPC   C3B 1320   9.791   7.441   7.098 -0.3273 -0.4231  0.3731
   74POPC   C4B 1321   9.880   7.078   6.902  0.1263  0.0065 -0.1369
   75POPC   NC3 1322   6.846   0.660   9.001  0.0241  0.1474 -0.0265
   75POPC   PO4 1323   6.994   0.932   8.758  0.1375  0.1101 -0.0952
   75POPC   GL1 1324   7.140   0.956   8.344 -0.0904  0.0155  0.1351
   75POPC   GL2 1325   7.079   1.294   8.169  0.3437 -0.1673 -0.0970
   75POPC   C1A 1326   7.207   0.967   7.814  0.1218 -0.2690  0.1684
   75POPC   D2A 1327   7.349   0.742   7.447 -0.0818 -0.1628  0.0852
   75POPC   C3A 1328   7.620   0.387   7.419  0.1893  0.2292  0.2471
   75POPC   C4A 1329   7.893   0.201   7.144  0.0990  0.2494 -0.0867
   75POPC   C1B 1330   7.281   1.515   7.924  0.0527 -0.0300  0.1370
   75POPC   C2B 1331   7.497   1.739   7.736  0.3406 -0.1455  0.1649
   75POPC   C3B 1332   7.731   2.067   7.918  0.0774 -0.2486 -0.1665
   75POPC   C4B 1333   7.655   2.248   8.267 -0.2788 -0.0033 -0.1678
   76POPC   NC3 1334   3.815   0.685   9.037  0.2903 -0.1419 -0.0911
   76POPC   PO4 1335   4.093   0.457   8.668  0.0666 -0.4184  0.0042
   76POPC   GL1 1336   4.340   0.579   8.240 -0.2391  0.1905 -0.0962
   76POPC   GL2 1337   4.143   0.448   8.025  0.5272 -0.1025  0.2061
   76POPC   C1A 1338   4.479   0.731   7.806  0.2969 -0.1559  0.1257
   76POPC   D2A 1339   4.252   1.009   7.412  0.2115  0.0664 -0.1391
   76POPC   C3A 1340   4.410   1.282   7.031 -0.0917  0.0360 -0.0158
   76POPC   C4A 1341   4.149   1.338   6.648  0.2696 -0.2228 -0.1143
   76POPC   C1B 1342   3.923   0.691   7.702  0.0489 -0.1671  0.1040
   76POPC   C2B 1343   3.814   0.706   7.259  0.2811  0.0659 -0.1563
   76POPC   C3B 1344   3.588   0.885   6.969 -0.2642  0.2824  0.2441
   76POPC   C4B 1345   3.290   0.878   6.725  0.0429 -0.2692  0.2218
   77POPC   NC3 1346   3.293   8.857   8.487 -0.1089 -0.0250  0.0545
   77POPC   PO4 1347   3.327   9.220   8.595  0.0836  0.1648  0.2982
   77POPC   GL1 1348   3.506   9.175   8.134 -0.3208  0.1856 -0.3208
   77POPC   GL2 1349   3.542   9.550   7.986  0.0368  0.1800  0.1088
   77POPC   C1A 1350   3.419   8.968   7.718 -0.0912 -0.0411  0.3786
   77POPC   D2A 1351   3.652   9.002   7.255  0.0196 -0.1960  0.0266
   77POPC   C3A 1352   3.438   9.313   7.096  0.0685 -0.0740 -0.2244
   77POPC   C4A 1353   3.090   9.664   6.922 -0.0610 -0.0414  0.0996
   77POPC   C1B 1354   3.607   9.940   7.717  0.0764 -0.1781 -0.1199
   77POPC   C2B 1355   3.660  10.211   7.450  0.0060  0.2035  0.0778
   77POPC   C3B 1356   3.560  10.259   7.000  0.0200  0.0175  0.1871
   77POPC   C4B 1357   3.513  10.222   6.486  0.1425 -0.3141 -0.2640
   78POPC   NC3 1358   1.405   7.949   9.084 -0.0394 -0.0399 -0.1604
   78POPC   PO4 1359   1.485   7.988   8.541  0.1742  0.0862  0.0976
   78POPC   GL1 1360   1.558   8.121   8.025  0.0207 -0.2623 -0.4105
   78POPC   GL2 1361   1.827   7.902   7.796 -0.0631  0.1306 -0.1446
   78POPC   C1A 1362   1.512   8.245   7.528 -0.1329  0.0583  0.0144
   78POPC   D2A 1363   1.263   8.688   7.351 -0.1038  0.0957  0.0918
   78POPC   C3A 1364   0.804   8.652   7.219 -0.2910  0.1383  0.0446
   78POPC   C4A 1365   0.908   8.783   6.733  0.1267  0.0389  0.0186
   78POPC   C1B 1366   2.026   8.123   7.496  0.0596 -0.0553  0.0195
   78POPC   C2B 1367   2.376   8.086   7.071  0.1484  0.0344 -0.4549
   78POPC   C3B 1368   2.557   8.327   6.819 -0.1398 -0.1403  0.1106
   78POPC   C4B 1369   2.674   8.729   6.783  0.0850 -0.0005 -0.1590
   79POPC   NC3 1370   5.680   2.965   9.413  0.2377 -0.0171  0.2680
   79POPC   PO4 1371   5.684   2.626   9.127  0.1364 -0.1101 -0.0735
   79POPC   GL1 1372   5.708   2.550   8.710  0.0160  0.0202 -0.0732
   79POPC   GL2 1373   6.001   2.579   8.415 -0.2650  0.0231 -0.2605
   79POPC   C1A 1374   5.562   2.296   8.317  0.0300  0.0786  0.0194
   79POPC   D2A 1375   5.359   2.194   7.894  0.1464 -0.2566 -0.2421
   79POPC   C3A 1376   5.352   1.829   7.587  0.3930 -0.1429  0.1938
   79POPC   C4A 1377   5.434   1.868   7.247 -0.1166  0.0761 -0.0956
   79POPC   C1B 1378   5.856   2.789   8.093  0.3669  0.2551 -0.0275
   79POPC   C2B 1379   5.821   2.699   7.723  0.0177 -0.0795  0.0257
   79POPC   C3B 1380   5.859   2.798   7.243  0.0667 -0.2234  0.2662
   79POPC   C4B 1381   6.047   2.527   7.020  0.2534  0.2235  0.0357
   80POPC   NC3 1382   0.341   7.334   8.916  0.0074 -0.0371  0.3038
   80POPC   PO4 1383   0.142   7.711   8.716  0.2816 -0.3322 -0.2181
   80POPC   GL1 1384   0.157   7.473   8.166  0.0677  0.2104  0.0585
   80POPC   GL2 1385  -0.061   7.195   8.024 -0.0859  0.0795 -0.0834
   80POPC   C1A 1386   0.340   7.366   7.808  0.1431 -0.0533  0.2676
   80POPC   D2A 1387   0.323   7.195   7.365 -0.0386 -0.2276  0.0461
   80POPC   C3A 1388   0.418   7.471   6.970 -0.2635 -0.0691 -0.2354
   80POPC   C4A 1389   0.723   7.433   6.716 -0.0900 -0.2625  0.0885
   80POPC   C1B 1390  -0.124   6.991   7.578 -0.1912  0.2460 -0.2190
   80POPC   C2B 1391  -0.417   7.001   7.237  0.2322 -0.1178 -0.1148
   80POPC   C3B 1392  -0.498   6.900   6.766 -0.1683  0.0348 -0.1432
   80POPC   C4B 1393  -0.626   7.145   6.360 -0.3440 -0.1460 -0.1710
   81POPC   NC3 1394   3.303   7.770   8.571 -0.1598  0.0192  0.2195
   81POPC   PO4 1395   3.031   7.616   8.247 -0.0318  0.0751 -0.0608
   81POPC   GL1 1396   3.147   7.707   7.738  0.4001 -0.0067 -0.2050
   81POPC   GL2 1397   3.055   8.067   7.636  0.0713  0.3632  0.1912
   81POPC   C1A 1398   3.430   7.868   7.413 -0.1348 -0.0754  0.5067
   81POPC   D2A 1399   3.702   7.937   7.116 -0.4709  0.0126  0.0461
   81POPC   C3A 1400   4.020   7.617   6.917  0.1856 -0.1525  0.0487
   81POPC   C4A 1401   4.345   7.726   6.766 -0.3805  0.0844  0.3318
   81POPC   C1B 1402   3.108   8.567   7.498  0.1373 -0.0113  0.0597
   81POPC   C2B 1403   3.133   8.767   7.228  0.2304 -0.1894  0.3073
   81POPC   C3B 1404   3.345   8.809   6.827 -0.0862  0.0693 -0.2806
   81POPC   C4B 1405   3.175   8.851   6.479  0.0279 -0.1813 -0.2201
   82POPC   NC3 1406   8.052   8.313   8.423 -0.2009 -0.3874 -0.1406
   82POPC   PO4 1407   8.501   7.969   8.429 -0.0639  0.0892 -0.0868
   82POPC   GL1 1408   8.765   7.898   8.025 -0.1860  0.0050 -0.1376
   82POPC   GL2 1409   8.802   8.196   7.877 -0.0780 -0.0674 -0.1028
   82POPC   C1A 1410   8.894   7.475   7.773  0.0023  0.3750 -0.0387
   82POPC   D2A 1411   8.926   7.125   7.576  0.0345  0.0309  0.4748
   82POPC   C3A 1412   8.896   7.160   7.125 -0.0260 -0.7382 -0.3016
   82POPC   C4A 1413   8.989   7.053   6.719  0.1399 -0.2638  0.0681
   82POPC   C1B 1414   8.521   8.239   7.529 -0.3606 -0.0796 -0.0475
   82POPC   C2B 1415   8.172   8.653   7.469  0.1685  0.3468  0.0087
   82POPC   C3B 1416   8.164   8.897   7.163  0.2568  0.1965  0.3396
   82POPC   C4B 1417   8.076   9.239   6.875  0.1686 -0.1720  0.2499
   83POPC   NC3 1418   0.933   2.559   9.715 -0.0685 -0.0322  0.0887
   83POPC   PO4 1419   0.977   3.000   9.479 -0.0483 -0.0926 -0.1180
   83POPC   GL1 1420   1.200   2.886   9.196  0.0718  0.1620  0.1992
   83POPC   GL2 1421   1.498   2.822   9.353 -0.0188 -0.0093 -0.0729
   83POPC   C1A 1422   1.205   2.867   8.795  0.1112 -0.0949  0.1787
   83POPC   D2A 1423   1.607   2.897   8.655  0.1540 -0.0673  0.5375
   83POPC   C3A 1424   1.880   2.881   9.002 -0.1514 -0.1158  0.0224
   83POPC   C4A 1425   2.335   2.669   8.921 -0.2574 -0.1073 -0.0064
   83POPC   C1B 1426   1.513   2.495   9.008  0.0570  0.0899  0.0368
   83POPC   C2B 1427   1.845   2.428   8.814  0.0783 -0.2367  0.0382
   83POPC   C3B 1428   2.091   2.476   8.455 -0.2012  0.3503  0.1843
   83POPC   C4B 1429   2.408   2.547   8.212  0.0303  0.0834 -0.1560
   84POPC   NC3 1430   7.208   3.704   8.826 -0.1994  0.0503 -0.0044
   84POPC   PO4 1431   7.557   3.741   8.491  0.5393  0.2756  0.0394
   84POPC   GL1 1432   7.938   3.897   8.235  0.1724 -0.0013  0.3870
   84POPC   GL2 1433   8.064   3.606   8.044  0.2398  0.1983 -0.4117
   84POPC   C1A 1434   7.821   4.018   7.763 -0.0572 -0.0806 -0.2588
   84POPC   D2A 1435   7.701   4.288   7.533 -0.1265  0.0222 -0.1230
   84POPC   C3A 1436   7.377   4.274   7.298 -0.0882  0.1266 -0.0963
   84POPC   C4A 1437   7.036   4.122   7.058  0.1694  0.0849 -0.0235
   84POPC   C1B 1438   7.926   3.569   7.685 -0.1247 -0.1159 -0.0735
   84POPC   C2B 1439   8.093   3.503   7.150 -0.1036  0.1880  0.2100
   84POPC   C3B 1440   8.465   3.277   6.807  0.4917 -0.0775 -0.1195
   84POPC   C4B 1441   8.478   3.165   6.398 -0.2108 -0.2822  0.0149
   85POPC   NC3 1442   1.531   9.089   8.171  0.5357  0.0900  0.0673
   85POPC   PO4 1443   1.898   8.852   8.309  0.0560  0.2477  0.0107
   85POPC   GL1 1444   2.067   8.996   7.943 -0.0460 -0.1947 -0.1115
   85POPC   GL2 1445   2.128   9.366   7.902 -0.0766 -0.3156 -0.0396
   85POPC   C1A 1446   2.080   9.002   7.494 -0.0029 -0.2182  0.0618
   85POPC   D2A 1447   1.850   9.086   7.134  0.2764 -0.1166 -0.0581
   85POPC   C3A 1448   1.675   8.905   6.749  0.2554 -0.1752 -0.2390
   85POPC   C4A 1449   1.737   8.985   6.271  0.2151 -0.2172 -0.1492
   85POPC   C1B 1450   2.299   9.432   7.470 -0.0398 -0.2382  0.2083
   85POPC   C2B 1451   2.356   9.600   7.212  0.0898 -0.2220  0.1155
   85POPC   C3B 1452   2.577   9.848   6.837  0.2023 -0.0697  0.2385
   85POPC   C4B 1453   2.735  10.064   6.552 -0.0569  0.1314  0.0513
   86POPC   NC3 1454   2.875   9.845   8.573 -0.2756  0.2022  0.0100
   86POPC   PO4 1455   3.188  10.057   8.834  0.1412 -0.2330  0.0410
   86POPC   GL1 1456   3.180  10.348   8.517  0.4633  0.2625  0.0894
   86POPC   GL2 1457   2.909  10.610   8.557 -0.1556  0.2807  0.1791
   86POPC   C1A 1458   3.235  10.507   8.226  0.1517  0.0073 -0.3751
   86POPC   D2A 1459   3.449  10.403   7.903 -0.2097  0.0309 -0.0651
   86POPC   C3A 1460   3.347  10.640   7.517  0.1588  0.0930  0.0956
   86POPC   C4A 1461   3.171  10.583   7.161 -0.0939  0.0798 -0.0681
   86POPC   C1B 1462   3.086  11.003   8.433 -0.1437 -0.0980 -0.3037
   86POPC   C2B 1463   3.239  11.291   8.156 -0.2367 -0.1339  0.1413
   86POPC   C3B 1464   3.428  11.294   7.756  0.2161 -0.0522  0.0364
   86POPC   C4B 1465   3.765  11.036   7.566  0.4114  0.2236 -0.1198
   87POPC   NC3 1466   1.275   3.792   8.921  0.1001 -0.0172  0.1384
   87POPC   PO4 1467   1.334   4.243   9.000 -0.1939 -0.0464  0.0666
   87POPC   GL1 1468   1.449   4.119   8.589  0.1493  0.2393  0.4471
   87POPC   GL2 1469   1.094   3.927   8.423  0.1764  0.1879  0.0675
   87POPC   C1A 1470   1.567   3.877   8.141 -0.2406  0.1364  0.0130
   87POPC   D2A 1471   1.679   3.761   7.758  0.1251  0.0917 -0.0954
   87POPC   C3A 1472   1.714   3.344   7.673  0.0058  0.1787 -0.0042
   87POPC   C4A 1473   1.508   3.048   7.340 -0.1282 -0.2553 -0.3051
   87POPC   C1B 1474   1.209   4.317   8.194 -0.2141  0.1194 -0.0636
   87POPC   C2B 1475   1.210   4.376   7.789 -0.1497 -0.1329  0.0210
   87POPC   C3B 1476   0.915   4.346   7.445  0.4035  0.0232 -0.1658
   87POPC   C4B 1477   0.518   4.074   7.451  0.3182  0.1273  0.0944
   88POPC   NC3 1478   7.938   4.333   8.658  0.0305  0.0328  0.0997
   88POPC   PO4 1479   8.107   4.740   8.549 -0.1016 -0.1413  0.4681
   88POPC   GL1 1480   8.061   4.531   8.132 -0.0491 -0.0077 -0.1154
   88POPC   GL2 1481   7.829   4.405   8.166 -0.0096  0.2752  0.1586
   88POPC   C1A 1482   8.302   4.270   7.861  0.2914  0.1257 -0.2731
   88POPC   D2A 1483   8.631   4.380   7.702 -0.0990 -0.0795  0.1108
   88POPC   C3A 1484   8.669   4.757   7.338 -0.1071 -0.0727 -0.2449
   88POPC   C4A 1485   8.550   4.822   7.045  0.3559  0.1086 -0.1552
   88POPC   C1B 1486   7.549   4.657   7.987 -0.1078 -0.0475 -0.1992
   88POPC   C2B 1487   7.313   4.975   7.874 -0.1531  0.1205 -0.0682
   88POPC   C3B 1488   7.485   5.372   7.906  0.1970  0.1835  0.1722
   88POPC   C4B 1489   7.712   5.531   7.671  0.0923  0.0279  0.1669
   89POPC   NC3 1490   8.062   3.593   8.573  0.0671  0.1953 -0.2797
   89POPC   PO4 1491   8.325   3.279   8.359 -0.2507 -0.1449  0.3773
   89POPC   GL1 1492   8.535   3.367   8.018  0.0290 -0.1039 -0.3133
   89POPC   GL2 1493   8.701   3.486   8.005  0.0258 -0.0463  0.2789
   89POPC   C1A 1494   8.312   3.199   7.538  0.2723  0.3441 -0.0295
   89POPC   D2A 1495   8.153   2.993   7.120 -0.0102  0.2616 -0.0899
   89POPC   C3A 1496   7.741   2.755   7.170  0.2910  0.1830 -0.0634
   89POPC   C4A 1497   7.280   2.634   7.211 -0.0494 -0.3017 -0.1501
   89POPC   C1B 1498   8.470   3.691   7.649 -0.1533 -0.2405  0.1247
   89POPC   C2B 1499   8.253   3.947   7.478 -0.5152 -0.1087 -0.0121
   89POPC   C3B 1500   7.987   4.105   7.176 -0.0053  0.1326 -0.3471
   89POPC   C4B 1501   7.665   4.146   6.895 -0.2363 -0.1859 -0.3875
   90POPC   NC3 1502   3.908   4.025  10.043 -0.0114 -0.0223 -0.1567
   90POPC   PO4 1503   3.774   3.928   9.609  0.1100 -0.0549 -0.3536
   90POPC   GL1 1504   3.531   3.648   9.463  0.3386 -0.1582  0.1982
   90POPC   GL2 1505   3.773   3.412   9.212  0.0730 -0.0078 -0.4973
   90POPC   C1A 1506   3.117   3.531   9.231  0.4112  0.0920  0.1291
   90POPC   D2A 1507   2.875   3.508   8.904  0.0084 -0.1334 -0.1871
   90POPC   C3A 1508   2.814   3.483   8.462 -0.0115  0.2296 -0.2504
   90POPC   C4A 1509   2.920   3.416   7.987  0.1865  0.1240  0.0299
   90POPC   C1B 1510   3.608   3.665   8.956 -0.3371 -0.1756 -0.0255
   90POPC   C2B 1511   3.633   4.052   8.692  0.0299 -0.3697 -0.0194
   90POPC   C3B 1512   3.573   4.051   8.254 -0.2271 -0.1057 -0.0685
   90POPC   C4B 1513   3.807   4.011   7.812 -0.1257 -0.0099 -0.3038
   91POPC   NC3 1514   2.621   0.353   8.733  0.0011 -0.2022 -0.1971
   91POPC   PO4 1515   2.419   0.091   8.574 -0.0949 -0.2474 -0.5218
   91POPC   GL1 1516   2.208   0.316   8.240  0.0164 -0.1822 -0.1015
   91POPC   GL2 1517   2.083   0.104   8.085  0.1736  0.1244  0.1406
   91POPC   C1A 1518   2.219   0.559   7.911 -0.0317  0.2244  0.3971
   91POPC   D2A 1519   2.303   0.981   7.695 -0.0128 -0.4919 -0.1290
   91POPC   C3A 1520   2.604   1.235   7.578 -0.0308  0.4495 -0.0232
   91POPC   C4A 1521   2.879   1.447   7.819  0.1983  0.0750  0.2402
   91POPC   C1B 1522   2.020   0.054   7.653 -0.1293  0.0913 -0.0122
   91POPC   C2B 1523   2.069   0.158   7.235  0.0281 -0.1468 -0.0027
   91POPC   C3B 1524   2.279   0.348   6.805  0.0790  0.0115  0.0785
   91POPC   C4B 1525   2.451   0.599   6.543 -0.0410 -0.0310  0.1529
   92POPC   NC3 1526   8.485   1.752   8.754  0.2873 -0.2321 -0.0883
   92POPC   PO4 1527   8.160   2.013   8.551  0.0739  0.0068  0.1907
   92POPC   GL1 1528   8.328   2.155   8.137  0.1472 -0.0389 -0.3428
   92POPC   GL2 1529   8.538   2.419   8.051  0.1225 -0.2789 -0.0421
   92POPC   C1A 1530   8.290   2.101   7.728 -0.4276  0.0031 -0.0808
   92POPC   D2A 1531   8.396   1.910   7.289 -0.0809  0.0563  0.3681
   92POPC   C3A 1532   8.350   1.539   7.101  0.0289 -0.1000 -0.1099
   92POPC   C4A 1533   8.514   1.143   7.264 -0.0846 -0.0392  0.1556
   92POPC   C1B 1534   8.042   2.548   7.918 -0.0503  0.1742  0.0702
   92POPC   C2B 1535   8.105   2.554   7.431  0.0464 -0.0486 -0.0195
   92POPC   C3B 1536   8.283   2.414   7.054  0.0151 -0.2328  0.0558
   92POPC   C4B 1537   8.714   2.440   6.907 -0.2184  0.4903  0.1593
   93POPC   NC3 1538   5.624   8.780   8.392 -0.2879  0.0844  0.1799
   93POPC   PO4 1539   5.359   8.494   8.159 -0.1208  0.0416  0.0583
   93POPC   GL1 1540   5.711   8.557   7.984 -0.2387 -0.1273 -0.1467
   93POPC   GL2 1541   5.594   8.738   7.752  0.0611  0.0440  0.3778
   93POPC   C1A 1542   5.976   8.337   7.706 -0.1495  0.2824 -0.1213
   93POPC   D2A 1543   6.242   7.995   7.536  0.0866 -0.0963 -0.4022
   93POPC   C3A 1544   6.263   7.778   7.158  0.1110 -0.0868 -0.0730
   93POPC   C4A 1545   6.449   7.514   7.082 -0.0763  0.1087 -0.0408
   93POPC   C1B 1546   5.920   8.902   7.626  0.0885 -0.2939 -0.0505
   93POPC   C2B 1547   5.888   8.878   7.212 -0.1862  0.2774  0.0719
   93POPC   C3B 1548   5.940   8.701   6.872  0.0803 -0.0387  0.1136
   93POPC   C4B 1549   6.249   8.927   6.597  0.3212  0.0607 -0.1822
   94POPC   NC3 1550   1.943   0.672   9.215 -0.3824  0.2581 -0.2039
   94POPC   PO4 1551   2.350   0.819   9.402 -0.6450 -0.0060  0.0439
   94POPC   GL1 1552   2.409   0.917   8.993  0.0922  0.1018  0.0189
   94POPC   GL2 1553   2.081   1.144   8.825  0.0794 -0.1506  0.1283
   94POPC   C1A 1554   2.360   0.888   8.525  0.0538  0.3838 -0.2647
   94POPC   D2A 1555   2.605   0.795   8.119 -0.2945 -0.1528  0.0782
   94POPC   C3A 1556   3.023   0.983   7.929 -0.0571  0.1778  0.1916
   94POPC   C4A 1557   3.500   0.971   8.008  0.2185  0.1215  0.3432
   94POPC   C1B 1558   1.685   1.245   8.648 -0.0678 -0.3574 -0.0668
   94POPC   C2B 1559   1.620   1.360   8.200 -0.1584 -0.1522  0.0906
   94POPC   C3B 1560   1.690   1.709   7.881  0.0396  0.1063  0.0350
   94POPC   C4B 1561   1.608   2.029   7.611  0.0409  0.0272  0.0377
   95POPC   NC3 1562   0.517   4.495   8.891 -0.1305 -0.4013  0.1045
   95POPC   PO4 1563   0.321   4.086   8.757 -0.2029 -0.1117 -0.3640
   95POPC   GL1 1564   0.459   3.919   8.373  0.2098  0.2408  0.0106
   95POPC   GL2 1565   0.137   3.934   8.133  0.0527 -0.2942 -0.1441
   95POPC   C1A 1566   0.757   3.698   8.154  0.0986 -0.2801  0.0450
   95POPC   D2A 1567   0.752   3.591   7.759 -0.1863  0.0535  0.0350
   95POPC   C3A 1568   0.896   3.786   7.384  0.0978  0.0703  0.2286
   95POPC   C4A 1569   0.899   4.141   7.000 -0.0786  0.1047  0.1042
   95POPC   C1B 1570   0.217   3.809   7.731  0.0538 -0.2319  0.0288
   95POPC   C2B 1571   0.353   3.507   7.429  0.1766  0.1776 -0.2922
   95POPC   C3B 1572   0.397   3.314   7.072  0.0132 -0.0737 -0.1744
   95POPC   C4B 1573   0.463   3.296   6.572 -0.4204 -0.0832  0.0523
   96POPC   NC3 1574   9.737   6.729   8.339 -0.0176  0.0164 -0.1165
   96POPC   PO4 1575   9.858   6.307   8.248 -0.0731  0.0260  0.0495
   96POPC   GL1 1576   9.802   6.480   7.838 -0.0269  0.3019 -0.0341
   96POPC   GL2 1577   9.636   6.203   7.717  0.1816  0.2219  0.3631
   96POPC   C1A 1578   9.836   6.542   7.306  0.2070  0.0939 -0.1331
   96POPC   D2A 1579   9.634   6.367   6.958  0.2598  0.0252 -0.1866
   96POPC   C3A 1580   9.587   5.982   6.818  0.0980  0.0697  0.0047
   96POPC   C4A 1581   9.453   5.604   6.726  0.1174  0.1771  0.0749
   96POPC   C1B 1582   9.698   6.060   7.298 -0.1439  0.1508 -0.1721
   96POPC   C2B 1583   9.856   5.659   7.050 -0.0867  0.0491  0.0410
   96POPC   C3B 1584   9.965   5.320   6.831 -0.1095 -0.0238  0.1670
   96POPC   C4B 1585   9.977   5.054   6.381 -0.0839 -0.3709 -0.0951
   97POPC   NC3 1586   8.090   1.134   8.690  0.2022 -0.2182  0.0392
   97POPC   PO4 1587   8.071   0.704   8.598 -0.0671 -0.1697 -0.1114
   97POPC   GL1 1588   7.744   0.451   8.299  0.1937  0.1528  0.1367
   97POPC   GL2 1589   7.461   0.673   8.164 -0.0180 -0.0506 -0.1673
   97POPC   C1A 1590   7.813   0.402   7.885 -0.2144  0.1898 -0.0022
   97POPC   D2A 1591   8.079   0.630   7.596 -0.1018  0.4637 -0.3027
   97POPC   C3A 1592   8.318   0.992   7.704 -0.0224 -0.3485 -0.0857
   97POPC   C4A 1593   8.247   1.443   7.586  0.5505  0.1558 -0.0228
   97POPC   C1B 1594   7.281   0.391   7.815  0.2241 -0.1512  0.2498
   97POPC   C2B 1595   6.982   0.117   7.703  0.1292  0.1993 -0.1313
   97POPC   C3B 1596   6.942  -0.094   7.281 -0.3461 -0.0145 -0.2463
   97POPC   C4B 1597   6.977  -0.402   6.931  0.3657 -0.0320  0.4568
   98POPC   NC3 1598   8.825   1.693   8.392 -0.3118  0.0243 -0.3563
   98POPC   PO4 1599   8.651   1.279   8.600  0.1314  0.1763 -0.0106
   98POPC   GL1 1600   8.885   1.120   8.144 -0.0227 -0.1397  0.0134
   98POPC   GL2 1601   9.173   1.220   8.090 -0.0624  0.1226 -0.2066
   98POPC   C1A 1602   8.841   0.954   7.723 -0.0801  0.1054 -0.0187
   98POPC   D2A 1603   8.979   0.991   7.336 -0.1982 -0.1444  0.3975
   98POPC   C3A 1604   9.414   0.878   7.359 -0.0978  0.1601  0.1129
   98POPC   C4A 1605   9.667   0.670   7.045  0.0244 -0.3022 -0.4149
   98POPC   C1B 1606   9.235   1.272   7.690  0.1152 -0.1197 -0.1858
   98POPC   C2B 1607   9.307   1.360   7.240  0.1198  0.0077 -0.1405
   98POPC   C3B 1608   9.644   1.287   6.974  0.0358  0.0987 -0.1052
   98POPC   C4B 1609   9.998   1.383   6.748 -0.0609 -0.1612  0.1888
   99POPC   NC3 1610   1.871   4.608   9.028 -0.0003  0.1342 -0.0935
   99POPC   PO4 1611   1.744   4.982   8.984 -0.0681 -0.2491 -0.0582
   99POPC   GL1 1612   1.992   4.916   8.580  0.1665 -0.4240 -0.0059
   99POPC   GL2 1613   1.920   5.040   8.253 -0.0063  0.3649 -0.2936
   99POPC   C1A 1614   2.418   4.794   8.356 -0.0260 -0.3643 -0.1049
   99POPC   D2A 1615   2.785   4.722   8.123 -0.1754 -0.0344 -0.1096
   99POPC   C3A 1616   3.011   5.137   7.968  0.3212 -0.1259 -0.3900
   99POPC   C4A 1617   3.322   5.177   7.690 -0.0801  0.0839  0.1970
   99POPC   C1B 1618   1.597   5.184   8.010 -0.6292 -0.0427 -0.0356
   99POPC   C2B 1619   1.422   5.184   7.517  0.1496 -0.2829  0.2081
   99POPC   C3B 1620   1.216   4.834   7.496 -0.2331 -0.0192 -0.2573
   99POPC   C4B 1621   0.856   4.815   7.136 -0.0249  0.3368 -0.0559
  100POPC   NC3 1622   5.046   6.937   8.652  0.1259 -0.1838 -0.0193
  100POPC   PO4 1623   4.713   6.767   8.319 -0.0126  0.3161 -0.0707
  100POPC   GL1 1624   4.852   6.497   7.968 -0.1316  0.0524  0.5543
  100POPC   GL2 1625   4.600   6.681   7.724  0.1511 -0.4793  0.1371
  100POPC   C1A 1626   4.924   6.352   7.565 -0.0301 -0.1421 -0.0497
  100POPC   D2A 1627   4.834   6.121   7.143  0.2129 -0.0026  0.1248
  100POPC   C3A 1628   4.883   5.794   6.891 -0.0981 -0.2252  0.2771
  100POPC   C4A 1629   5.067   5.682   6.541  0.0291  0.1506 -0.0126
  100POPC   C1B 1630   4.535   6.536   7.295  0.0850  0.2767 -0.1576
  100POPC   C2B 1631   4.302   6.383   6.888  0.0298 -0.0895  0.0415
  100POPC   C3B 1632   4.369   6.591   6.453  0.3816  0.0578  0.0363
  100POPC   C4B 1633   4.123   6.833   6.140  0.0360  0.1461 -0.1160
  101POPC   NC3 1634   0.757   8.044   8.125 -0.0752  0.0499 -0.0942
  101POPC   PO4 1635   1.136   7.834   8.131  0.2189  0.3789 -0.2998
  101POPC   GL1 1636   1.141   7.898   7.736  0.1160  0.2560 -0.0293
  101POPC   GL2 1637   1.370   7.634   7.758 -0.2251 -0.0931 -0.0773
  101POPC   C1A 1638   1.210   7.853   7.314 -0.2155 -0.1465  0.1201
  101POPC   D2A 1639   1.100   8.260   7.115  0.1885 -0.0843  0.3425
  101POPC   C3A 1640   1.364   8.476   6.781 -0.1615  0.1679  0.1812
  101POPC   C4A 1641   1.606   8.447   6.395  0.2010 -0.1416  0.0662
  101POPC   C1B 1642   1.635   7.550   7.422  0.0724 -0.2900 -0.1346
  101POPC   C2B 1643   1.601   7.269   7.086 -0.2977  0.2503  0.0560
  101POPC   C3B 1644   1.762   7.160   6.683  0.0716  0.1845  0.0381
  101POPC   C4B 1645   1.978   7.190   6.354  0.2230  0.3060 -0.0046
  102POPC   NC3 1646   1.356   3.335   9.488 -0.2348  0.1062 -0.1279
  102POPC   PO4 1647   1.051   3.456   9.286 -0.0761 -0.0470 -0.0078
  102POPC   GL1 1648   1.008   3.396   8.800 -0.2729 -0.0350  0.3444
  102POPC   GL2 1649   0.678   3.583   8.710 -0.1299 -0.1884  0.1629
  102POPC   C1A 1650   1.300   3.285   8.499 -0.0236  0.1949  0.0109
  102POPC   D2A 1651   1.486   3.358   8.130  0.1135 -0.0802  0.2028
  102POPC   C3A 1652   1.812   3.068   8.173 -0.0332  0.3207 -0.0343
  102POPC   C4A 1653   2.181   2.947   8.481  0.2564 -0.2950  0.0226
  102POPC   C1B 1654   0.767   3.271   8.397 -0.0517  0.3931 -0.4229
  102POPC   C2B 1655   0.975   3.220   8.105  0.3167  0.0937 -0.0464
  102POPC   C3B 1656   1.136   3.303   7.653 -0.2300  0.0374 -0.0993
  102POPC   C4B 1657   1.309   3.475   7.334 -0.0597 -0.1845  0.1385
  103POPC   NC3 1658   4.250   6.852   8.464 -0.2340  0.2502  0.1661
  103POPC   PO4 1659   4.300   7.051   8.071  0.1719 -0.2626  0.0643
  103POPC   GL1 1660   4.091   7.082   7.706 -0.0670 -0.0440  0.0017
  103POPC   GL2 1661   4.333   7.045   7.382  0.0773  0.1610 -0.3216
  103POPC   C1A 1662   3.790   6.951   7.439 -0.1528  0.2368  0.1051
  103POPC   D2A 1663   3.612   6.791   7.050 -0.0585 -0.0560 -0.0117
  103POPC   C3A 1664   3.435   6.438   6.871 -0.3597  0.0564  0.1270
  103POPC   C4A 1665   3.161   6.637   6.576 -0.2025  0.0283 -0.0987
  103POPC   C1B 1666   4.036   7.112   7.009  0.1222 -0.1457 -0.2918
  103POPC   C2B 1667   3.986   6.831   6.691  0.3750 -0.0213  0.1703
  103POPC   C3B 1668   3.614   6.859   6.527 -0.1246 -0.0247  0.1170
  103POPC   C4B 1669   3.232   6.878   6.184  0.0586  0.1750 -0.0134
  104POPC   NC3 1670   6.680   1.710   8.961 -0.3153  0.0537  0.1734
  104POPC   PO4 1671   6.311   1.445   8.791 -0.0960 -0.1589  0.1019
  104POPC   GL1 1672   6.410   1.559   8.326 -0.3440 -0.1421 -0.0468
  104POPC   GL2 1673   6.621   1.399   8.059  0.0014 -0.2147  0.1859
  104POPC   C1A 1674   6.152   1.701   7.944 -0.2569 -0.0544  0.0050
  104POPC   D2A 1675   6.343   2.006   7.732 -0.2877  0.0141  0.3968
  104POPC   C3A 1676   6.420   2.062   7.276 -0.1412  0.4890  0.1440
  104POPC   C4A 1677   6.785   1.932   6.989  0.0772 -0.1589 -0.0114
  104POPC   C1B 1678   6.259   1.224   7.748  0.1362 -0.2924 -0.1832
  104POPC   C2B 1679   6.322   0.900   7.558  0.3237 -0.0633  0.1210
  104POPC   C3B 1680   6.175   0.518   7.440 -0.1987 -0.0720  0.1041
  104POPC   C4B 1681   5.872   0.323   7.586 -0.0161  0.2031 -0.0417
  105POPC   NC3 1682   4.521   1.703   9.701  0.3464 -0.2591 -0.0234
  105POPC   PO4 1683   4.269   1.529   9.401  0.1368  0.1679 -0.0448
  105POPC   GL1 1684   3.931   1.596   9.042  0.0628  0.0809  0.2551
  105POPC   GL2 1685   3.725   1.370   8.941  0.1521 -0.0916 -0.1219
  105POPC   C1A 1686   3.685   1.798   8.650 -0.0704 -0.0345 -0.2263
  105POPC   D2A 1687   3.328   1.837   8.335 -0.2213 -0.1422  0.1546
  105POPC   C3A 1688   3.350   1.910   7.852  0.2409  0.2375  0.0951
  105POPC   C4A 1689   3.466   2.220   7.605  0.1754  0.4598 -0.3114
  105POPC   C1B 1690   3.311   1.605   8.922  0.0944  0.1348 -0.1066
  105POPC   C2B 1691   3.020   1.575   8.556  0.3217 -0.1221 -0.0939
  105POPC   C3B 1692   2.839   1.777   8.171  0.2180 -0.2128 -0.1018
  105POPC   C4B 1693   2.572   2.079   8.069 -0.0339 -0.2929  0.2887
  106POPC   NC3 1694   2.790   6.740   8.807  0.0901 -0.1357 -0.0307
  106POPC   PO4 1695   2.595   6.404   8.700  0.0767  0.2951 -0.2634
  106POPC   GL1 1696   2.454   6.150   8.296  0.0212  0.1144 -0.1386
  106POPC   GL2 1697   2.593   6.242   8.038 -0.0116  0.0130  0.0545
  106POPC   C1A 1698   2.143   6.029   7.883  0.2063  0.1469  0.0823
  106POPC   D2A 1699   2.193   5.862   7.413 -0.0725  0.0128  0.0774
  106POPC   C3A 1700   2.201   5.689   7.047  0.2522  0.4260 -0.1264
  106POPC   C4A 1701   1.953   5.576   6.846 -0.1597  0.1060  0.2237
  106POPC   C1B 1702   2.716   6.091   7.645  0.0422  0.1230  0.1694
  106POPC   C2B 1703   2.665   6.143   7.314  0.2767 -0.0343 -0.0713
  106POPC   C3B 1704   2.399   6.100   7.014 -0.1948  0.1646  0.0842
  106POPC   C4B 1705   2.346   6.175   6.642  0.1909 -0.2922  0.1179
  107POPC   NC3 1706   2.069   9.570   8.336  0.2777 -0.2211  0.1940
  107POPC   PO4 1707   1.605   9.455   8.469 -0.0918  0.4155 -0.1448
  107POPC   GL1 1708   1.632   9.560   8.059  0.1748  0.1191 -0.1084
  107POPC   GL2 1709   1.634   9.817   8.052 -0.0437  0.0878 -0.0140
  107POPC   C1A 1710   1.696   9.475   7.647  0.0961  0.0108 -0.2111
  107POPC   D2A 1711   1.876   9.582   7.295 -0.1846 -0.1404  0.0096
  107POPC   C3A 1712   1.963   9.855   6.799  0.0441  0.0916  0.1464
  107POPC   C4A 1713   1.702  10.285   6.833  0.0729  0.0822  0.1505
  107POPC   C1B 1714   1.367   9.914   7.714  0.0217  0.1266 -0.1481
  107POPC   C2B 1715   1.648  10.189   7.433 -0.0134 -0.1200  0.1128
  107POPC   C3B 1716   1.471  10.536   7.172  0.0228  0.0182  0.0013
  107POPC   C4B 1717   1.237  10.514   6.946  0.2578 -0.1492 -0.2562
  108POPC   NC3 1718   6.100   7.995   8.991  0.0257 -0.1463 -0.0604
  108POPC   PO4 1719   6.167   7.997   8.526  0.5019 -0.0247  0.3393
  108POPC   GL1 1720   6.410   8.136   8.175  0.2545 -0.1364  0.1237
  108POPC   GL2 1721   6.773   8.019   8.147 -0.2973  0.2959 -0.1852
  108POPC   C1A 1722   6.571   8.377   7.789 -0.0026  0.0815  0.0948
  108POPC   D2A 1723   6.530   8.392   7.356 -0.0019  0.0580 -0.1516
  108POPC   C3A 1724   6.100   8.403   7.256  0.1634  0.2190  0.1669
  108POPC   C4A 1725   5.631   8.438   7.163  0.0201  0.3784  0.2701
  108POPC   C1B 1726   6.794   7.950   7.737  0.1678 -0.1400 -0.0219
  108POPC   C2B 1727   6.596   7.548   7.547  0.0560 -0.1165  0.1892
  108POPC   C3B 1728   6.584   7.144   7.397 -0.1081  0.2039 -0.2283
  108POPC   C4B 1729   6.640   6.682   7.481  0.0053 -0.0754 -0.0176
  109POPC   NC3 1730   4.718   7.255   8.070  0.2548  0.1972  0.1750
  109POPC   PO4 1731   4.983   7.411   8.428  0.4142 -0.0523 -0.1909
  109POPC   GL1 1732   5.072   7.568   7.920  0.3366  0.2282 -0.0038
  109POPC   GL2 1733   4.769   7.612   7.712  0.0978  0.3100 -0.0658
  109POPC   C1A 1734   5.189   7.773   7.539  0.0920  0.0716 -0.1346
  109POPC   D2A 1735   5.300   8.061   7.184 -0.3374  0.0397 -0.2124
  109POPC   C3A 1736   5.388   7.963   6.751  0.1645  0.0924 -0.1079
  109POPC   C4A 1737   5.221   7.704   6.428  0.1496  0.0747  0.0454
  109POPC   C1B 1738   4.734   7.937   7.317  0.1696  0.0902 -0.1589
  109POPC   C2B 1739   4.853   8.281   7.125 -0.2596 -0.2076 -0.1162
  109POPC   C3B 1740   5.135   8.567   7.014 -0.0865 -0.0104  0.1775
  109POPC   C4B 1741   5.230   8.844   7.277 -0.1402 -0.0262  0.2207
  110POPC   NC3 1742   4.500   0.161   8.605 -0.0480 -0.1611 -0.0847
  110POPC   PO4 1743   4.849   0.019   8.451 -0.0513  0.0597  0.0484
  110POPC   GL1 1744   4.854   0.338   8.139 -0.0159  0.2487  0.0689
  110POPC   GL2 1745   4.985   0.553   8.214  0.1443 -0.0403 -0.1710
  110POPC   C1A 1746   4.929   0.334   7.613  0.0329 -0.3813 -0.1336
  110POPC   D2A 1747   4.719   0.671   7.333  0.1642  0.2256  0.1883
  110POPC   C3A 1748   4.521   0.748   6.908 -0.0373  0.2129 -0.1135
  110POPC   C4A 1749   4.122   0.884   6.916  0.2977 -0.1368  0.0613
  110POPC   C1B 1750   4.916   0.908   7.901 -0.0667  0.0140  0.3009
  110POPC   C2B 1751   4.669   1.135   7.557 -0.0936 -0.0513 -0.1929
  110POPC   C3B 1752   4.646   1.563   7.409  0.0297  0.1815 -0.2874
  110POPC   C4B 1753   4.857   1.907   7.206  0.0846 -0.1542  0.0041
  111POPC   NC3 1754   4.518   9.599   8.637 -0.3025 -0.2100 -0.1842
  111POPC   PO4 1755   4.232   9.285   8.485  0.0199 -0.0960 -0.0789
  111POPC   GL1 1756   4.028   9.408   8.105 -0.0233 -0.4396  0.1524
  111POPC   GL2 1757   4.178   9.326   7.886  0.2638  0.3013 -0.3841
  111POPC   C1A 1758   4.064   9.770   7.812 -0.2001  0.1938 -0.4351
  111POPC   D2A 1759   4.005   9.797   7.417 -0.0090 -0.1329  0.1818
  111POPC   C3A 1760   4.412   9.927   7.270 -0.1543  0.1329 -0.2239
  111POPC   C4A 1761   4.754  10.153   7.148 -0.0339  0.5101 -0.1050
  111POPC   C1B 1762   3.836   9.379   7.605  0.1003 -0.5800 -0.0439
  111POPC   C2B 1763   3.898   9.436   7.122 -0.0824 -0.4390 -0.0333
  111POPC   C3B 1764   3.771   9.179   6.783  0.0369  0.0363 -0.0972
  111POPC   C4B 1765   3.781   9.289   6.406 -0.1976  0.2551  0.3183
  112POPC   NC3 1766   3.763   9.454   8.507 -0.0651 -0.0536 -0.2653
  112POPC   PO4 1767   4.098   9.806   8.522  0.0585 -0.0267 -0.3713
  112POPC   GL1 1768   4.336   9.925   8.167 -0.1079 -0.2816  0.2277
  112POPC   GL2 1769   4.540   9.680   8.107 -0.0506  0.1544 -0.0566
  112POPC   C1A 1770   4.481  10.108   7.759 -0.0862 -0.1910  0.0284
  112POPC   D2A 1771   4.292  10.417   7.388  0.0689 -0.2540 -0.0844
  112POPC   C3A 1772   4.075  10.228   7.082  0.5184  0.3929 -0.1435
  112POPC   C4A 1773   4.065   9.889   6.809  0.4424  0.0479 -0.1244
  112POPC   C1B 1774   4.575   9.562   7.673  0.0734 -0.0361 -0.0962
  112POPC   C2B 1775   4.671   9.526   7.178 -0.1938 -0.1247  0.0310
  112POPC   C3B 1776   4.574   9.788   6.831  0.1181  0.0910  0.0223
  112POPC   C4B 1777   4.895   9.693   6.426  0.0915  0.1345 -0.0144
  113POPC   NC3 1778   2.849   2.985   9.680  0.0617 -0.0633  0.0818
  113POPC   PO4 1779   3.244   2.799   9.456 -0.0427 -0.0732 -0.2660
  113POPC   GL1 1780   3.404   3.010   9.135 -0.1157 -0.0919 -0.2788
  113POPC   GL2 1781   3.113   3.027   8.982 -0.0448 -0.0428  0.0011
  113POPC   C1A 1782   3.356   3.340   8.752 -0.0187  0.0298  0.1236
  113POPC   D2A 1783   3.275   3.737   8.583  0.0904  0.0048 -0.0645
  113POPC   C3A 1784   3.028   3.853   8.185 -0.1962  0.3224  0.0014
  113POPC   C4A 1785   2.961   3.813   7.646  0.1682  0.3004 -0.2983
  113POPC   C1B 1786   2.968   2.598   8.761 -0.0171 -0.1291  0.0744
  113POPC   C2B 1787   2.651   2.272   8.507 -0.2362  0.0429 -0.1840
  113POPC   C3B 1788   2.549   1.825   8.584 -0.0344 -0.0547  0.1949
  113POPC   C4B 1789   2.183   1.516   8.485  0.2501  0.5497 -0.2732
  114POPC   NC3 1790   7.357   3.254   9.191  0.1950 -0.2072 -0.3520
  114POPC   PO4 1791   6.948   3.327   9.000  0.0289 -0.0267  0.2114
  114POPC   GL1 1792   6.814   3.361   8.623  0.1105 -0.0126  0.3851
  114POPC   GL2 1793   7.095   3.482   8.311 -0.1167  0.1975  0.2442
  114POPC   C1A 1794   6.583   3.343   8.218 -0.0893 -0.1138  0.0836
  114POPC   D2A 1795   6.240   3.091   7.945  0.3116 -0.0735  0.4115
  114POPC   C3A 1796   6.222   2.935   7.556 -0.1221 -0.0294  0.0105
  114POPC   C4A 1797   6.241   3.181   7.081  0.1519  0.1609 -0.1725
  114POPC   C1B 1798   7.037   3.356   7.884 -0.1101 -0.0870 -0.1711
  114POPC   C2B 1799   7.052   3.416   7.486  0.4609 -0.1137 -0.1550
  114POPC   C3B 1800   7.083   3.618   7.027  0.1057  0.1140  0.4445
  114POPC   C4B 1801   7.347   3.813   6.672  0.0800  0.1727 -0.0292
  115POPC   NC3 1802   9.416   2.206   8.613 -0.0169 -0.0758  0.0606
  115POPC   PO4 1803   9.334   2.651   8.348 -0.3294  0.1488 -0.0204
  115POPC   GL1 1804   9.291   2.584   7.889 -0.1787 -0.1025 -0.1512
  115POPC   GL2 1805   9.043   2.541   7.772  0.2887  0.3864 -0.2597
  115POPC   C1A 1806   9.560   2.789   7.532 -0.0281 -0.0733  0.0212
  115POPC   D2A 1807   9.722   3.091   7.124 -0.1087 -0.0204 -0.0571
  115POPC   C3A 1808   9.889   3.352   6.831 -0.0886  0.1121  0.1425
  115POPC   C4A 1809  10.054   3.680   6.471 -0.1842 -0.2016  0.0726
  115POPC   C1B 1810   9.095   2.656   7.282 -0.1298  0.0106 -0.0136
  115POPC   C2B 1811   9.440   2.702   6.941  0.1042  0.0266 -0.3388
  115POPC   C3B 1812   9.822   2.822   6.706 -0.0036 -0.0904 -0.5760
  115POPC   C4B 1813  10.187   2.821   6.485  0.0260 -0.0493 -0.2191
  116POPC   NC3 1814   6.594   2.624   9.061 -0.0019  0.0713  0.1666
  116POPC   PO4 1815   6.982   2.836   9.081 -0.3206  0.1183 -0.1796
  116POPC   GL1 1816   7.010   2.882   8.677  0.0895  0.0778  0.2307
  116POPC   GL2 1817   6.701   2.791   8.589  0.1247 -0.0066 -0.0519
  116POPC   C1A 1818   7.012   2.980   8.230  0.0691  0.1308  0.1214
  116POPC   D2A 1819   6.729   2.977   7.903 -0.0450  0.0443 -0.2552
  116POPC   C3A 1820   6.732   2.999   7.488  0.1614  0.0340  0.0601
  116POPC   C4A 1821   6.852   2.988   7.188  0.1230  0.1477  0.0274
  116POPC   C1B 1822   6.500   2.734   8.268 -0.1940  0.0613  0.0994
  116POPC   C2B 1823   6.318   2.564   7.881 -0.1716 -0.2776  0.2661
  116POPC   C3B 1824   6.155   2.405   7.503 -0.0635  0.3301 -0.1599
  116POPC   C4B 1825   5.926   2.080   7.101 -0.1593  0.3355  0.3180
  117POPC   NC3 1826   0.597   7.655   8.433  0.1618 -0.0192 -0.0059
  117POPC   PO4 1827   0.530   7.178   8.422  0.0166 -0.1664 -0.1470
  117POPC   GL1 1828   0.608   7.017   8.152  0.0686  0.0450 -0.0141
  117POPC   GL2 1829   0.316   6.843   8.060  0.1042  0.3636  0.0751
  117POPC   C1A 1830   0.713   7.025   7.718 -0.1749 -0.0567 -0.1712
  117POPC   D2A 1831   0.780   6.899   7.292 -0.5463 -0.1796 -0.0062
  117POPC   C3A 1832   0.716   6.927   6.851  0.0511 -0.0358  0.3186
  117POPC   C4A 1833   0.358   7.083   6.627 -0.0303 -0.0526 -0.0478
  117POPC   C1B 1834   0.320   6.698   7.566  0.0869 -0.2382 -0.0048
  117POPC   C2B 1835   0.360   6.660   7.113  0.1365  0.2711 -0.1144
  117POPC   C3B 1836   0.118   6.641   6.747 -0.0928  0.2134 -0.2292
  117POPC   C4B 1837  -0.195   6.370   6.494 -0.1113  0.0056 -0.3023
  118POPC   NC3 1838   0.278   2.066   9.040 -0.0147  0.2747  0.0662
  118POPC   PO4 1839  -0.096   2.286   8.865  0.0884 -0.3543  0.0968
  118POPC   GL1 1840  -0.076   2.267   8.373 -0.3452  0.1389 -0.0504
  118POPC   GL2 1841  -0.075   1.932   8.223 -0.1790 -0.0480  0.0169
  118POPC   C1A 1842  -0.141   2.446   7.907  0.1910  0.0192 -0.2929
  118POPC   D2A 1843   0.075   2.493   7.535  0.1286 -0.1236  0.0683
  118POPC   C3A 1844  -0.011   2.470   7.097 -0.3978 -0.3369  0.1894
  118POPC   C4A 1845   0.194   2.310   6.763 -0.0751 -0.1352  0.1861
  118POPC   C1B 1846   0.015   2.011   7.824 -0.0278  0.1021 -0.0366
  118POPC   C2B 1847   0.107   2.026   7.409 -0.0667 -0.1525  0.0050
  118POPC   C3B 1848   0.431   2.370   7.219  0.2652 -0.0622 -0.0309
  118POPC   C4B 1849   0.726   2.673   7.271  0.0891 -0.0988 -0.0048
  119POPC   NC3 1850   1.233   5.782   9.376 -0.0541  0.1945 -0.0926
  119POPC   PO4 1851   1.056   5.841   8.972 -0.0204  0.0098  0.2723
  119POPC   GL1 1852   0.980   5.348   8.761 -0.1187  0.0623 -0.0495
  119POPC   GL2 1853   1.156   5.520   8.573  0.1033 -0.1469 -0.1254
  119POPC   C1A 1854   0.950   5.139   8.268 -0.0578  0.2956 -0.2252
  119POPC   D2A 1855   1.088   5.121   7.872  0.0211  0.2432  0.3932
  119POPC   C3A 1856   0.888   5.348   7.529  0.1321  0.0419  0.0299
  119POPC   C4A 1857   0.623   5.802   7.601  0.0832 -0.0526 -0.2318
  119POPC   C1B 1858   1.388   5.088   8.497 -0.0800  0.0428 -0.1390
  119POPC   C2B 1859   1.327   4.833   8.187  0.1930  0.0607 -0.0923
  119POPC   C3B 1860   1.568   4.728   7.925 -0.0564  0.0629  0.0022
  119POPC   C4B 1861   1.693   4.328   7.789  0.0614  0.0129  0.1753
  120POPC   NC3 1862   7.931   6.355   9.026  0.1006  0.1492 -0.2878
  120POPC   PO4 1863   8.106   6.056   8.790  0.1700  0.2298 -0.0043
  120POPC   GL1 1864   7.992   6.047   8.335  0.2707 -0.1422  0.1934
  120POPC   GL2 1865   7.706   6.188   8.214  0.2154 -0.0295 -0.0016
  120POPC   C1A 1866   7.981   5.926   7.833  0.0980 -0.3252 -0.1821
  120POPC   D2A 1867   8.147   5.690   7.387  0.2624  0.1105  0.0806
  120POPC   C3A 1868   8.166   5.423   7.067 -0.0232  0.0452 -0.0582
  120POPC   C4A 1869   8.084   5.129   6.652  0.2976 -0.0493  0.0410
  120POPC   C1B 1870   7.678   6.331   7.747  0.5956 -0.0738  0.2366
  120POPC   C2B 1871   7.798   6.443   7.314  0.1490  0.2460  0.0882
  120POPC   C3B 1872   8.085   6.457   7.024  0.2476 -0.0610  0.1390
  120POPC   C4B 1873   8.205   6.667   6.701  0.1068 -0.2709  0.1222
  121POPC   NC3 1874   5.402   7.477   8.261 -0.1226  0.1392  0.0572
  121POPC   PO4 1875   5.224   7.107   8.027 -0.0337 -0.1105  0.0654
  121POPC   GL1 1876   4.986   7.079   7.650 -0.1041 -0.1885 -0.1060
  121POPC   GL2 1877   5.189   7.237   7.464 -0.0378 -0.0166 -0.0969
  121POPC   C1A 1878   4.843   6.932   7.214  0.1958  0.0134 -0.1871
  121POPC   D2A 1879   4.478   6.810   6.909  0.3045 -0.0456  0.0863
  121POPC   C3A 1880   4.800   6.613   6.748  0.1768  0.1295  0.0696
  121POPC   C4A 1881   5.099   6.507   6.980  0.0629  0.0470  0.2422
  121POPC   C1B 1882   4.957   7.500   7.171  0.3302 -0.2205 -0.0447
  121POPC   C2B 1883   4.869   7.832   6.764 -0.2039 -0.3400 -0.2942
  121POPC   C3B 1884   4.812   7.976   6.366 -0.0875 -0.1483 -0.3735
  121POPC   C4B 1885   4.646   7.765   5.940  0.1605 -0.1724  0.0373
  122POPC   NC3 1886   2.247   2.995  10.344  0.0059 -0.1295  0.1507
  122POPC   PO4 1887   2.379   3.066   9.863 -0.1760 -0.0444  0.0412
  122POPC   GL1 1888   2.439   3.166   9.396  0.0121 -0.2249  0.0661
  122POPC   GL2 1889   2.722   3.117   9.236  0.2975 -0.0352 -0.0100
  122POPC   C1A 1890   2.189   3.344   9.017 -0.2703 -0.1096  0.3503
  122POPC   D2A 1891   2.307   3.520   8.555  0.0150  0.0021 -0.3014
  122POPC   C3A 1892   2.453   3.357   8.197  0.0401  0.0508 -0.3445
  122POPC   C4A 1893   2.568   2.963   8.022  0.5043 -0.1529 -0.4137
  122POPC   C1B 1894   2.636   3.121   8.812  0.1535  0.0363 -0.2681
  122POPC   C2B 1895   2.670   2.909   8.534 -0.1786  0.2667  0.2309
  122POPC   C3B 1896   2.903   2.625   8.250 -0.3409  0.0408 -0.4136
  122POPC   C4B 1897   3.070   2.270   8.065 -0.1171 -0.0850 -0.1146
  123POPC   NC3 1898   2.440   8.766   8.242 -0.1826  0.0298 -0.0296
  123POPC   PO4 1899   2.520   9.232   8.160 -0.1885 -0.2646 -0.2893
  123POPC   GL1 1900   2.575   9.009   7.770 -0.0435  0.2813 -0.3541
  123POPC   GL2 1901   2.603   8.630   7.796  0.0165  0.3380 -0.1708
  123POPC   C1A 1902   2.598   8.926   7.308 -0.0745 -0.0774 -0.0898
  123POPC   D2A 1903   2.357   9.158   6.988  0.0073 -0.2627 -0.3179
  123POPC   C3A 1904   2.207   9.427   6.667 -0.2035  0.0047 -0.0066
  123POPC   C4A 1905   2.066   9.642   6.323 -0.0063  0.2575 -0.0511
  123POPC   C1B 1906   2.317   8.572   7.487  0.1154 -0.1013 -0.0241
  123POPC   C2B 1907   2.234   8.732   7.050  0.0968  0.0249  0.2028
  123POPC   C3B 1908   2.273   8.872   6.581 -0.0667 -0.1453  0.0267
  123POPC   C4B 1909   2.160   9.171   6.075 -0.1723  0.1271  0.2208
  124POPC   NC3 1910   4.266   4.641   9.199 -0.0783 -0.0196  0.3172
  124POPC   PO4 1911   4.659   4.289   9.180 -0.0132  0.0310  0.1034
  124POPC   GL1 1912   4.438   4.323   8.786  0.0972 -0.0308 -0.1560
  124POPC   GL2 1913   4.673   4.536   8.689  0.2698  0.3255 -0.1832
  124POPC   C1A 1914   4.059   4.450   8.452 -0.5572 -0.3016  0.0672
  124POPC   D2A 1915   3.666   4.539   8.282 -0.1010  0.1911 -0.2106
  124POPC   C3A 1916   3.688   4.479   7.904  0.0392  0.2140  0.2325
  124POPC   C4A 1917   3.333   4.214   7.653  0.2229  0.0864  0.3497
  124POPC   C1B 1918   4.579   4.393   8.217  0.2149 -0.0544 -0.1592
  124POPC   C2B 1919   4.226   4.248   7.944 -0.0587 -0.0931  0.1223
  124POPC   C3B 1920   3.973   4.367   7.525  0.3066  0.1219 -0.1999
  124POPC   C4B 1921   4.014   4.663   7.189 -0.1647 -0.0082 -0.1326
  125POPC   NC3 1922   6.113   8.536   8.336  0.1447  0.0637  0.0211
  125POPC   PO4 1923   6.147   9.009   8.553 -0.1123 -0.0542  0.0163
  125POPC   GL1 1924   6.050   9.003   8.125 -0.2066 -0.0466  0.1264
  125POPC   GL2 1925   6.345   8.883   7.932 -0.1800  0.2552 -0.0442
  125POPC   C1A 1926   6.027   9.303   7.835 -0.0442  0.2781 -0.2512
  125POPC   D2A 1927   6.083   9.356   7.368 -0.1540  0.2196  0.2019
  125POPC   C3A 1928   6.277   9.298   6.959 -0.5416  0.2437 -0.2651
  125POPC   C4A 1929   6.330   9.481   6.458  0.0701 -0.2448 -0.0295
  125POPC   C1B 1930   6.329   8.953   7.459  0.0985  0.1484  0.0513
  125POPC   C2B 1931   6.405   8.815   7.037  0.0161 -0.0148 -0.1460
  125POPC   C3B 1932   6.360   8.431   6.792  0.1134 -0.2112  0.0040
  125POPC   C4B 1933   6.584   8.076   6.996  0.0154  0.2056 -0.2507
  126POPC   NC3 1934   0.461   6.141   8.413  0.0895 -0.1183  0.0553
  126POPC   PO4 1935   0.673   6.477   8.275 -0.0575 -0.1638 -0.1370
  126POPC   GL1 1936   0.481   6.323   7.826 -0.0380 -0.1111 -0.2557
  126POPC   GL2 1937   0.317   6.110   7.963  0.0561 -0.3738  0.0336
  126POPC   C1A 1938   0.704   6.301   7.570 -0.3271  0.1068 -0.1470
  126POPC   D2A 1939   0.713   6.249   7.084  0.1112  0.0489  0.1705
  126POPC   C3A 1940   0.587   6.499   6.677 -0.2549 -0.0048 -0.1425
  126POPC   C4A 1941   0.454   6.332   6.318  0.0628 -0.0169  0.2309
  126POPC   C1B 1942   0.257   6.046   7.492  0.1500 -0.0829 -0.0483
  126POPC   C2B 1943   0.204   6.202   7.033  0.1066 -0.1334 -0.0797
  126POPC   C3B 1944   0.153   6.034   6.667  0.0711 -0.0297  0.1057
  126POPC   C4B 1945   0.065   5.700   6.449  0.2463  0.2509  0.2757
  127POPC   NC3 1946   4.257   8.786   8.746 -0.0220 -0.1098 -0.2396
  127POPC   PO4 1947   4.312   8.464   8.395 -0.1380  0.0468 -0.2443
  127POPC   GL1 1948   3.989   8.260   8.015  0.1350  0.0907  0.0002
  127POPC   GL2 1949   3.929   7.990   7.967  0.0808 -0.1172  0.2517
  127POPC   C1A 1950   3.973   8.478   7.610 -0.2406 -0.0284 -0.3680
  127POPC   D2A 1951   4.269   8.710   7.193  0.1869 -0.3231  0.0107
  127POPC   C3A 1952   4.197   8.635   6.757 -0.1991  0.0167 -0.0282
  127POPC   C4A 1953   4.374   8.695   6.486 -0.0575 -0.1704  0.1215
  127POPC   C1B 1954   4.127   8.016   7.545 -0.0913  0.0846  0.4055
  127POPC   C2B 1955   4.230   8.102   7.095  0.0793  0.0965  0.3867
  127POPC   C3B 1956   3.939   8.043   6.677 -0.0297 -0.4700 -0.0894
  127POPC   C4B 1957   3.819   7.812   6.333 -0.2354  0.0407 -0.2974
  128POPC   NC3 1958   9.655   8.317   8.162 -0.2035 -0.1464  0.1770
  128POPC   PO4 1959  10.081   8.397   8.345  0.1211 -0.0990  0.1264
  128POPC   GL1 1960  10.126   8.187   7.915 -0.0041 -0.0363 -0.2074
  128POPC   GL2 1961  10.191   7.929   7.921 -0.2510  0.3698  0.1358
  128POPC   C1A 1962   9.791   8.143   7.565 -0.1643  0.0679 -0.3719
  128POPC   D2A 1963   9.519   7.846   7.363 -0.0937 -0.1358 -0.0118
  128POPC   C3A 1964   9.329   8.008   7.080 -0.0046 -0.1280  0.0493
  128POPC   C4A 1965   9.082   8.118   6.693  0.2098  0.0709 -0.0725
  128POPC   C1B 1966  10.281   7.778   7.477 -0.2411 -0.0419  0.0470
  128POPC   C2B 1967  10.057   7.893   7.073 -0.0740  0.0734  0.1557
  128POPC   C3B 1968   9.777   7.871   6.718 -0.1324 -0.1123 -0.1446
  128POPC   C4B 1969   9.495   7.931   6.421 -0.0709 -0.4707 -0.0560
  129POPC   NC3 1970   1.801   5.681   9.224 -0.3646 -0.0305 -0.1396
  129POPC   PO4 1971   1.765   5.852   8.817 -0.1012 -0.0501 -0.2707
  129POPC   GL1 1972   1.658   5.523   8.478  0.2789 -0.2431 -0.0703
  129POPC   GL2 1973   1.867   5.508   8.241 -0.0083  0.1784 -0.0309
  129POPC   C1A 1974   1.296   5.601   8.142  0.1942 -0.3084 -0.2545
  129POPC   D2A 1975   1.088   5.739   7.832  0.2965  0.3319 -0.2435
  129POPC   C3A 1976   1.237   5.702   7.485  0.0757 -0.2166  0.1841
  129POPC   C4A 1977   0.980   5.650   7.172 -0.0434 -0.1982 -0.4371
  129POPC   C1B 1978   1.765   5.652   7.736 -0.0188  0.0054  0.0875
  129POPC   C2B 1979   1.675   5.859   7.344 -0.1576 -0.1750  0.0457
  129POPC   C3B 1980   1.775   6.026   6.926 -0.2516 -0.0400  0.1899
  129POPC   C4B 1981   1.851   6.074   6.512 -0.1047  0.0913 -0.3892
  130POPC   NC3 1982   8.287   9.373   8.438 -0.0793 -0.0123  0.0394
  130POPC   PO4 1983   8.352   8.886   8.451 -0.0224  0.0838 -0.1077
  130POPC   GL1 1984   8.101   8.840   8.110  0.0227  0.0095  0.1588
  130POPC   GL2 1985   8.015   8.543   7.998 -0.1092  0.3122 -0.2735
  130POPC   C1A 1986   8.007   9.085   7.792  0.0462  0.0558 -0.0124
  130POPC   D2A 1987   8.328   9.200   7.578 -0.0110  0.0726  0.0444
  130POPC   C3A 1988   8.761   9.068   7.554 -0.2577  0.2356 -0.0963
  130POPC   C4A 1989   9.088   8.963   7.407 -0.1443 -0.0545 -0.2268
  130POPC   C1B 1990   7.887   8.242   7.716  0.0006 -0.0747 -0.1349
  130POPC   C2B 1991   8.004   8.187   7.273 -0.1397  0.5297 -0.3275
  130POPC   C3B 1992   8.283   8.282   6.968 -0.0474  0.1424  0.1445
  130POPC   C4B 1993   8.682   8.523   6.750  0.0804 -0.2853 -0.0512
  131POPC   NC3 1994   4.860   8.248   8.326  0.2089  0.0421 -0.3983
  131POPC   PO4 1995   4.735   7.832   8.217  0.3344  0.1835  0.0488
  131POPC   GL1 1996   4.449   8.126   7.860  0.2975 -0.0890 -0.1494
  131POPC   GL2 1997   4.479   8.456   7.965  0.0592 -0.0358  0.2388
  131POPC   C1A 1998   4.569   8.362   7.464 -0.0493  0.0288 -0.1725
  131POPC   D2A 1999   4.736   8.772   7.279  0.0274  0.0418  0.0236
  131POPC   C3A 2000   4.821   9.100   7.485 -0.1513 -0.1819 -0.1177
  131POPC   C4A 2001   5.055   9.536   7.590 -0.0928 -0.1445 -0.3599
  131POPC   C1B 2002   4.482   8.842   7.722  0.1131 -0.2840  0.3405
  131POPC   C2B 2003   4.296   9.175   7.425 -0.0385 -0.0609  0.0727
  131POPC   C3B 2004   4.414   9.090   6.925 -0.1227 -0.0318  0.0765
  131POPC   C4B 2005   4.648   8.844   6.811 -0.0286 -0.0161 -0.0882
  132POPC   NC3 2006   6.627   5.873   8.867  0.2650  0.1678 -0.2150
  132POPC   PO4 2007   6.523   5.971   8.415  0.3133 -0.0306 -0.0900
  132POPC   GL1 2008   6.655   6.013   7.920 -0.0678  0.2757  0.0137
  132POPC   GL2 2009   6.667   6.348   7.831  0.3213 -0.0201 -0.0858
  132POPC   C1A 2010   6.692   5.866   7.602  0.1834 -0.1556 -0.2464
  132POPC   D2A 2011   6.717   5.561   7.444  0.1331  0.1511  0.0909
  132POPC   C3A 2012   6.524   5.385   6.979  0.0939 -0.1299  0.0017
  132POPC   C4A 2013   6.274   5.201   6.700  0.0589 -0.0186  0.0033
  132POPC   C1B 2014   6.348   6.264   7.517  0.0309  0.0331 -0.2077
  132POPC   C2B 2015   6.413   6.320   7.094  0.2249  0.2704 -0.1860
  132POPC   C3B 2016   6.532   6.347   6.635 -0.1228 -0.0155  0.3313
  132POPC   C4B 2017   6.290   6.148   6.378 -0.0691 -0.1713  0.2640
  133POPC   NC3 2018   7.035   6.949   8.298 -0.0741 -0.3798  0.1431
  133POPC   PO4 2019   7.322   6.564   8.479  0.0042  0.0238  0.0348
  133POPC   GL1 2020   7.160   6.307   8.155 -0.0853  0.0853  0.0805
  133POPC   GL2 2021   7.084   5.987   8.206 -0.1361 -0.0622 -0.3338
  133POPC   C1A 2022   7.059   6.176   7.626 -0.0109  0.2875 -0.1882
  133POPC   D2A 2023   6.829   6.258   7.321 -0.0171  0.0108 -0.1568
  133POPC   C3A 2024   6.713   5.883   7.020 -0.3924  0.0801 -0.0947
  133POPC   C4A 2025   6.631   5.724   6.580  0.0983  0.0808  0.0023
  133POPC   C1B 2026   7.446   5.882   7.918  0.0379 -0.0873 -0.0344
  133POPC   C2B 2027   7.571   5.990   7.394 -0.0893  0.1004  0.4323
  133POPC   C3B 2028   7.270   6.015   7.103  0.2575 -0.2010  0.0167
  133POPC   C4B 2029   6.980   6.333   6.775 -0.0407 -0.1316 -0.0898
  134POPC   NC3 2030   6.440   7.589   8.353  0.0077 -0.0860 -0.0286
  134POPC   PO4 2031   6.705   7.343   8.252  0.0008 -0.2678 -0.1533
  134POPC   GL1 2032   6.928   7.210   7.814 -0.0151  0.2735 -0.1322
  134POPC   GL2 2033   6.917   6.947   7.746 -0.0169 -0.1297 -0.2882
  134POPC   C1A 2034   7.196   7.574   7.577  0.0281  0.0634 -0.0747
  134POPC   D2A 2035   7.522   7.610   7.236 -0.0722 -0.2278  0.1786
  134POPC   C3A 2036   7.893   7.363   7.156 -0.1411 -0.0250 -0.3300
  134POPC   C4A 2037   7.995   7.138   6.736  0.0709  0.0048  0.0588
  134POPC   C1B 2038   7.091   6.652   7.615  0.0112 -0.1699  0.2182
  134POPC   C2B 2039   7.263   6.467   7.205  0.0693 -0.2539 -0.0331
  134POPC   C3B 2040   7.573   6.386   6.783  0.2141  0.1128 -0.1428
  134POPC   C4B 2041   7.539   6.102   6.382  0.2034  0.0822 -0.3547
  135POPC   NC3 2042   8.974   2.478   8.821 -0.0481 -0.5152  0.2053
  135POPC   PO4 2043   8.911   2.016   8.837 -0.0951 -0.2190  0.3264
  135POPC   GL1 2044   8.950   2.200   8.363  0.0438 -0.0155  0.0390
  135POPC   GL2 2045   9.186   2.117   8.162  0.2281  0.2633 -0.2363
  135POPC   C1A 2046   8.790   2.063   7.886 -0.1248 -0.3301 -0.0973
  135POPC   D2A 2047   8.799   2.217   7.388 -0.4339  0.0022  0.1025
  135POPC   C3A 2048   8.897   1.853   7.004  0.2744  0.3229  0.0702
  135POPC   C4A 2049   9.297   1.688   6.850  0.1332  0.0558  0.0896
  135POPC   C1B 2050   9.407   2.161   7.741  0.0502 -0.2206 -0.0975
  135POPC   C2B 2051   9.570   2.301   7.404  0.1809  0.1515 -0.1652
  135POPC   C3B 2052   9.514   2.194   6.955 -0.0680  0.0861  0.3937
  135POPC   C4B 2053   9.186   2.254   6.680 -0.3009  0.2181 -0.2694
  136POPC   NC3 2054   9.399   6.153   8.315  0.1256  0.2844 -0.0649
  136POPC   PO4 2055   9.202   5.696   8.569  0.1844  0.0602 -0.3873
  136POPC   GL1 2056   9.094   5.753   8.169 -0.4584 -0.0637 -0.0405
  136POPC   GL2 2057   9.297   5.849   7.959  0.1370 -0.0376 -0.0444
  136POPC   C1A 2058   8.707   5.793   7.980  0.4142  0.2145  0.0982
  136POPC   D2A 2059   8.462   6.148   7.835 -0.0360  0.2084  0.1950
  136POPC   C3A 2060   8.273   6.157   7.432 -0.1191  0.1396  0.0197
  136POPC   C4A 2061   8.327   5.939   6.981 -0.2294  0.3275  0.0833
  136POPC   C1B 2062   9.157   6.087   7.638  0.2448  0.1255  0.2448
  136POPC   C2B 2063   9.237   6.173   7.222  0.2112  0.0794 -0.0474
  136POPC   C3B 2064   9.030   5.993   6.901 -0.1430 -0.0975  0.1013
  136POPC   C4B 2065   8.866   5.822   6.473 -0.2063  0.3037  0.0206
  137POPC   NC3 2066   3.018   9.468   8.180 -0.0377  0.0151  0.0298
  137POPC   PO4 2067   2.936   8.977   8.143  0.2105  0.1329 -0.2082
  137POPC   GL1 2068   3.000   9.230   7.725 -0.2550  0.2110 -0.1416
  137POPC   GL2 2069   2.796   9.466   7.732 -0.1478 -0.0449 -0.0183
  137POPC   C1A 2070   3.240   9.615   7.505 -0.0580 -0.0996  0.0428
  137POPC   D2A 2071   3.558   9.783   7.220  0.0211 -0.1043 -0.1581
  137POPC   C3A 2072   3.516   9.753   6.751  0.0386 -0.1818  0.1034
  137POPC   C4A 2073   3.286   9.825   6.359 -0.3357  0.2231  0.0572
  137POPC   C1B 2074   2.832   9.352   7.262 -0.2833  0.0149 -0.0976
  137POPC   C2B 2075   2.847   9.209   6.882 -0.1046 -0.0278 -0.0580
  137POPC   C3B 2076   2.833   9.546   6.524  0.0568 -0.2243  0.1576
  137POPC   C4B 2077   2.882   9.670   6.145 -0.0183 -0.0450 -0.1836
  138POPC   NC3 2078   7.542   9.527   8.688  0.2669  0.0698  0.3584
  138POPC   PO4 2079   7.130   9.784   8.604 -0.2386 -0.3949  0.2987
  138POPC   GL1 2080   7.049  10.030   8.268  0.1048  0.2774  0.1009
  138POPC   GL2 2081   7.329  10.095   8.212  0.0382  0.0001  0.0193
  138POPC   C1A 2082   6.919  10.482   8.094  0.2620 -0.0710  0.0641
  138POPC   D2A 2083   6.652  10.838   8.061  0.0606  0.1626  0.0722
  138POPC   C3A 2084   6.769  10.994   7.740  0.0470  0.0391  0.0226
  138POPC   C4A 2085   6.546  11.134   7.269 -0.1992 -0.0412  0.0737
  138POPC   C1B 2086   7.585   9.923   8.032 -0.1607 -0.1008 -0.1959
  138POPC   C2B 2087   7.440   9.890   7.588 -0.1626  0.4033 -0.0555
  138POPC   C3B 2088   7.442   9.906   7.104 -0.1721 -0.0962 -0.3767
  138POPC   C4B 2089   7.461  10.006   6.676 -0.2114  0.0789 -0.1618
  139POPC   NC3 2090   4.799   4.809   9.064  0.2064  0.1790  0.1498
  139POPC   PO4 2091   4.706   5.129   8.734  0.2109 -0.1144 -0.0650
  139POPC   GL1 2092   4.448   5.307   8.322  0.3854  0.0610 -0.0519
  139POPC   GL2 2093   4.472   5.554   8.169  0.1822  0.1521  0.0134
  139POPC   C1A 2094   4.117   5.172   7.972 -0.1405  0.1979  0.0201
  139POPC   D2A 2095   4.235   5.072   7.518  0.3096  0.0855  0.0434
  139POPC   C3A 2096   3.913   5.217   7.256  0.3974  0.1818  0.2294
  139POPC   C4A 2097   3.449   5.059   7.142 -0.0517 -0.1418  0.1135
  139POPC   C1B 2098   4.528   5.364   7.783  0.1243 -0.1872  0.1875
  139POPC   C2B 2099   4.675   5.056   7.482 -0.2226  0.2957  0.1288
  139POPC   C3B 2100   5.006   5.094   7.167  0.0685 -0.5182  0.1929
  139POPC   C4B 2101   5.391   5.180   6.834  0.1808 -0.0817 -0.1768
  140POPC   NC3 2102   4.338   2.455   9.181  0.1578 -0.0016 -0.2615
  140POPC   PO4 2103   4.809   2.482   9.057 -0.2634 -0.2119  0.0014
  140POPC   GL1 2104   4.892   2.760   8.752  0.3581  0.2658 -0.0338
  140POPC   GL2 2105   5.217   2.723   8.738  0.0798 -0.0147 -0.2396
  140POPC   C1A 2106   4.646   3.089   8.447  0.3957  0.4595  0.0597
  140POPC   D2A 2107   4.418   3.101   8.079  0.1278  0.0370 -0.1070
  140POPC   C3A 2108   4.148   2.664   8.078 -0.0091 -0.0471 -0.2736
  140POPC   C4A 2109   4.207   2.195   8.050 -0.0585  0.1001  0.1890
  140POPC   C1B 2110   5.361   2.805   8.236 -0.2733  0.0466  0.1635
  140POPC   C2B 2111   5.326   2.963   7.800  0.1240 -0.0201  0.0289
  140POPC   C3B 2112   5.359   2.949   7.341  0.2827 -0.5013 -0.1086
  140POPC   C4B 2113   5.346   2.810   6.832  0.0460  0.1400 -0.2385
  141POPC   NC3 2114   9.411   5.002   8.429  0.1840 -0.0028  0.0857
  141POPC   PO4 2115   9.780   4.683   8.329 -0.0414 -0.1929  0.2305
  141POPC   GL1 2116   9.902   4.438   8.095 -0.4670  0.3922  0.2812
  141POPC   GL2 2117  10.164   4.617   7.955  0.2511 -0.3533 -0.0961
  141POPC   C1A 2118   9.811   4.218   7.651  0.0511 -0.2647 -0.0874
  141POPC   D2A 2119  10.007   4.223   7.285 -0.2160 -0.0431  0.0872
  141POPC   C3A 2120   9.846   4.301   6.995  0.0938  0.3083 -0.4146
  141POPC   C4A 2121   9.757   4.356   6.505  0.2208 -0.2614 -0.2186
  141POPC   C1B 2122  10.227   4.613   7.537 -0.1948 -0.1223 -0.0368
  141POPC   C2B 2123  10.373   4.480   7.060 -0.1034  0.1078 -0.0272
  141POPC   C3B 2124  10.196   4.208   6.680  0.2348  0.2561  0.1251
  141POPC   C4B 2125  10.020   4.105   6.177  0.0906 -0.1339 -0.1119
  142POPC   NC3 2126   5.987   6.980   8.301 -0.1889 -0.1175 -0.0138
  142POPC   PO4 2127   5.954   7.380   8.231  0.2944 -0.1997 -0.0083
  142POPC   GL1 2128   5.854   7.381   7.819  0.0355  0.1920 -0.3297
  142POPC   GL2 2129   5.539   7.566   7.808  0.0246  0.0570 -0.3749
  142POPC   C1A 2130   6.102   7.397   7.457 -0.0933 -0.0392  0.2724
  142POPC   D2A 2131   6.108   7.180   7.135 -0.2488 -0.1762  0.0373
  142POPC   C3A 2132   5.751   6.943   6.910  0.2535  0.1222 -0.1400
  142POPC   C4A 2133   5.311   7.016   7.040  0.2925 -0.1147  0.0427
  142POPC   C1B 2134   5.788   7.830   7.382 -0.0050  0.1013 -0.1245
  142POPC   C2B 2135   5.813   8.006   7.017 -0.2878 -0.4615 -0.1175
  142POPC   C3B 2136   5.790   8.237   6.677  0.3788  0.0445  0.1989
  142POPC   C4B 2137   5.535   8.550   6.655 -0.1841 -0.2591 -0.1164
  143POPC   NC3 2138   2.540   1.715   9.525 -0.0126  0.1787 -0.2428
  143POPC   PO4 2139   2.113   1.729   9.491 -0.3053  0.0477 -0.0233
  143POPC   GL1 2140   2.008   1.684   9.055 -0.3597  0.0522 -0.1164
  143POPC   GL2 2141   2.347   1.631   9.009 -0.4102 -0.1421  0.2747
  143POPC   C1A 2142   1.666   1.812   8.679  0.2169 -0.2373  0.2341
  143POPC   D2A 2143   1.519   1.835   8.306  0.3216 -0.2126  0.0315
  143POPC   C3A 2144   1.562   2.164   8.157 -0.2742 -0.0938  0.0267
  143POPC   C4A 2145   1.661   2.537   8.241 -0.1687 -0.1013  0.0921
  143POPC   C1B 2146   2.598   1.329   8.834 -0.5521  0.1077 -0.2545
  143POPC   C2B 2147   2.642   1.338   8.335 -0.1563  0.2308  0.3813
  143POPC   C3B 2148   2.344   1.336   8.042  0.1204  0.1468 -0.0128
  143POPC   C4B 2149   2.287   1.643   7.966 -0.0702 -0.0495  0.1614
  144POPC   NC3 2150   7.061   8.364   8.968  0.3761 -0.0686 -0.1027
  144POPC   PO4 2151   7.018   8.102   8.591 -0.0620  0.3677 -0.0958
  144POPC   GL1 2152   7.223   8.122   8.195 -0.0877  0.1942 -0.2604
  144POPC   GL2 2153   7.238   7.797   8.019  0.0218  0.0902  0.2022
  144POPC   C1A 2154   7.069   8.353   7.788 -0.1679  0.0851  0.4396
  144POPC   D2A 2155   7.023   8.347   7.340 -0.1000 -0.2158  0.1645
  144POPC   C3A 2156   7.040   7.934   7.054 -0.1790  0.4056 -0.0499
  144POPC   C4A 2157   7.222   7.788   6.644 -0.0558  0.0133 -0.1486
  144POPC   C1B 2158   7.414   8.004   7.619 -0.1395  0.0954 -0.0568
  144POPC   C2B 2159   7.450   8.129   7.192 -0.0263 -0.0142  0.1387
  144POPC   C3B 2160   7.343   8.293   6.808 -0.0592  0.2056  0.3895
  144POPC   C4B 2161   7.159   8.350   6.420  0.1010 -0.1579 -0.0686
  145POPC   NC3 2162   5.996   6.060   8.505  0.0993 -0.4186  0.2776
  145POPC   PO4 2163   5.711   6.446   8.528  0.1684  0.0578 -0.0636
  145POPC   GL1 2164   5.754   6.381   8.128 -0.4687  0.2431  0.1314
  145POPC   GL2 2165   5.388   6.369   7.884 -0.0987  0.0594  0.1349
  145POPC   C1A 2166   5.851   6.305   7.725 -0.3251  0.3693 -0.1417
  145POPC   D2A 2167   5.937   6.265   7.333  0.2719  0.1867 -0.0406
  145POPC   C3A 2168   5.811   5.905   7.059 -0.1571 -0.1446  0.0772
  145POPC   C4A 2169   5.433   5.829   6.892  0.2126 -0.0016  0.3525
  145POPC   C1B 2170   5.408   6.586   7.555  0.3447 -0.0119  0.0269
  145POPC   C2B 2171   5.585   6.879   7.407 -0.1570 -0.1370 -0.1266
  145POPC   C3B 2172   5.613   7.312   7.227  0.1772 -0.2463 -0.1043
  145POPC   C4B 2173   5.416   7.576   7.112 -0.0542  0.1303  0.3166
  146POPC   NC3 2174   2.029   7.044   8.232 -0.0078  0.1908  0.0527
  146POPC   PO4 2175   1.611   6.737   8.356  0.0921  0.1874 -0.2033
  146POPC   GL1 2176   1.458   6.560   8.042 -0.0178  0.1633  0.0739
  146POPC   GL2 2177   1.828   6.688   7.915  0.1672 -0.0775  0.0712
  146POPC   C1A 2178   1.302   6.480   7.597 -0.3452 -0.1191 -0.0251
  146POPC   D2A 2179   1.340   6.321   7.166 -0.0608  0.0730 -0.4267
  146POPC   C3A 2180   1.250   6.043   7.007  0.1380 -0.1293 -0.0005
  146POPC   C4A 2181   1.383   5.902   6.526 -0.0626  0.0037 -0.0745
  146POPC   C1B 2182   1.669   6.883   7.613 -0.0504 -0.1118  0.1562
  146POPC   C2B 2183   1.696   6.748   7.069  0.2517 -0.0515  0.0930
  146POPC   C3B 2184   1.540   6.476   6.733 -0.2317  0.0751 -0.0716
  146POPC   C4B 2185   1.139   6.437   6.685  0.0409  0.0957  0.1037
  147POPC   NC3 2186   8.422   6.992   8.356  0.0512  0.2416  0.1632
  147POPC   PO4 2187   8.256   6.616   8.634  0.0145  0.2336  0.0044
  147POPC   GL1 2188   8.257   6.567   8.202  0.0526  0.1631 -0.1213
  147POPC   GL2 2189   8.034   6.450   7.990  0.1929  0.0556  0.0136
  147POPC   C1A 2190   8.679   6.547   7.984 -0.3077 -0.1818  0.1824
  147POPC   D2A 2191   8.814   6.630   7.683 -0.2029 -0.0542  0.4906
  147POPC   C3A 2192   8.761   6.261   7.410 -0.0574 -0.0334  0.1363
  147POPC   C4A 2193   8.770   5.833   7.278 -0.1627  0.3497  0.0299
  147POPC   C1B 2194   8.346   6.592   7.633  0.0390 -0.0397  0.0500
  147POPC   C2B 2195   8.464   6.667   7.274 -0.1556 -0.1903 -0.0402
  147POPC   C3B 2196   8.625   6.488   6.827  0.0717 -0.0889  0.3639
  147POPC   C4B 2197   8.801   6.335   6.421 -0.0168  0.3003 -0.1144
  148POPC   NC3 2198   3.372   6.359   8.387 -0.1564  0.2693  0.1213
  148POPC   PO4 2199   3.324   6.794   8.100  0.2622 -0.1037 -0.1006
  148POPC   GL1 2200   3.389   6.658   7.697 -0.0043 -0.0697  0.4289
  148POPC   GL2 2201   3.244   6.851   7.504 -0.1444  0.1295 -0.0893
  148POPC   C1A 2202   3.583   6.411   7.501  0.2776 -0.0205 -0.0938
  148POPC   D2A 2203   3.804   6.108   7.527 -0.1705 -0.0729  0.2455
  148POPC   C3A 2204   4.235   6.135   7.367 -0.2052 -0.4474  0.1360
  148POPC   C4A 2205   4.401   5.849   7.130  0.2120 -0.3906 -0.1525
  148POPC   C1B 2206   3.083   7.230   7.231 -0.4311 -0.0118  0.0108
  148POPC   C2B 2207   3.129   7.586   6.933 -0.0982  0.0448 -0.2901
  148POPC   C3B 2208   3.293   7.933   6.762  0.2911  0.1119 -0.1637
  148POPC   C4B 2209   3.577   8.339   6.504 -0.0731  0.1640  0.0501
  149POPC   NC3 2210   7.031   4.544   8.756  0.1619  0.1202 -0.0051
  149POPC   PO4 2211   7.148   5.025   8.605  0.0505  0.0563  0.3762
  149POPC   GL1 2212   7.102   4.615   8.313  0.4859  0.0394 -0.1702
  149POPC   GL2 2213   6.950   4.690   8.058  0.0832  0.1373  0.3300
  149POPC   C1A 2214   7.198   4.223   8.214  0.0637  0.0207  0.0850
  149POPC   D2A 2215   7.357   3.891   8.035 -0.1338 -0.0623  0.0135
  149POPC   C3A 2216   7.397   3.765   7.663  0.0551 -0.1970  0.0910
  149POPC   C4A 2217   7.627   3.811   7.324  0.0216 -0.0232  0.0229
  149POPC   C1B 2218   6.809   4.717   7.590  0.2358  0.1152 -0.1314
  149POPC   C2B 2219   7.003   4.624   7.175  0.2596  0.2542  0.2712
  149POPC   C3B 2220   6.880   4.464   6.763 -0.0815 -0.0731  0.3015
  149POPC   C4B 2221   6.825   3.959   6.634 -0.3454 -0.2355  0.2129
  150POPC   NC3 2222   8.138   9.789   4.939 -0.3176  0.2435 -0.0949
  150POPC   PO4 2223   7.759   9.860   4.951  0.0709  0.1637 -0.1165
  150POPC   GL1 2224   7.883   9.910   5.448 -0.2171 -0.0828 -0.2334
  150POPC   GL2 2225   8.138  10.020   5.471  0.0715 -0.2824 -0.0009
  150POPC   C1A 2226   7.977  10.027   5.914  0.2231 -0.2513 -0.0977
  150POPC   D2A 2227   8.020   9.894   6.290 -0.2824  0.1410  0.3869
  150POPC   C3A 2228   7.979   9.513   6.372  0.0405  0.2764  0.0052
  150POPC   C4A 2229   7.757   9.177   6.395  0.2653  0.2307  0.2067
  150POPC   C1B 2230   8.375  10.374   5.799 -0.1586 -0.0460 -0.1786
  150POPC   C2B 2231   8.192  10.490   6.196 -0.1087  0.0321  0.0942
  150POPC   C3B 2232   8.195  10.719   6.612 -0.2242  0.1840  0.1865
  150POPC   C4B 2233   8.080  11.054   6.869  0.5332  0.3443 -0.2072
  151POPC   NC3 2234   9.871   3.091   3.259 -0.0970  0.2394 -0.0736
  151POPC   PO4 2235  10.298   2.999   3.243 -0.2089 -0.0917  0.0566
  151POPC   GL1 2236  10.548   3.138   3.599  0.0599 -0.1324  0.2522
  151POPC   GL2 2237  10.728   2.955   3.813 -0.1420 -0.1682  0.0566
  151POPC   C1A 2238  10.580   3.418   3.931  0.1958  0.0838 -0.0996
  151POPC   D2A 2239  10.375   3.646   4.054 -0.1042 -0.2245 -0.3543
  151POPC   C3A 2240  10.523   3.968   4.257 -0.0988  0.1649 -0.2673
  151POPC   C4A 2241  10.467   4.127   4.631 -0.4818 -0.0492  0.2097
  151POPC   C1B 2242  11.219   2.884   3.758 -0.1055 -0.1011  0.2809
  151POPC   C2B 2243  11.703   2.850   3.716 -0.1881 -0.2356  0.2521
  151POPC   C3B 2244  11.965   3.190   3.579  0.2635  0.3605  0.2003
  151POPC   C4B 2245  12.333   3.210   3.318 -0.4430 -0.1918 -0.0829
  152POPC   NC3 2246   1.355   7.051   4.231  0.0667  0.0515 -0.1229
  152POPC   PO4 2247   1.745   7.271   4.374  0.1840  0.3659 -0.1251
  152POPC   GL1 2248   1.605   6.937   4.633  0.2749 -0.1335  0.0287
  152POPC   GL2 2249   1.711   6.882   4.962 -0.1601  0.0858  0.0136
  152POPC   C1A 2250   1.466   6.479   4.914 -0.0973 -0.2016  0.4308
  152POPC   D2A 2251   1.251   6.210   5.127  0.3247 -0.1928  0.0928
  152POPC   C3A 2252   1.516   5.787   5.287  0.0395 -0.1393  0.0655
  152POPC   C4A 2253   1.479   5.567   5.602 -0.0737 -0.2254 -0.0442
  152POPC   C1B 2254   1.602   7.134   5.276 -0.1785  0.1933  0.1289
  152POPC   C2B 2255   1.675   7.126   5.729  0.1495  0.0616 -0.0002
  152POPC   C3B 2256   1.732   6.885   6.060  0.0564 -0.0705  0.2902
  152POPC   C4B 2257   1.915   6.638   6.370 -0.0460  0.3105 -0.0506
  153POPC   NC3 2258   9.635   9.572   4.876  0.0914 -0.0828  0.3352
  153POPC   PO4 2259   9.671  10.000   4.932 -0.0834  0.2677 -0.2752
  153POPC   GL1 2260   9.919   9.981   5.329  0.0852 -0.1372  0.1608
  153POPC   GL2 2261   9.810   9.723   5.445  0.0164  0.3232  0.0175
  153POPC   C1A 2262  10.049  10.132   5.669 -0.0028 -0.0135  0.0187
  153POPC   D2A 2263  10.210   9.843   5.993  0.1549 -0.1677  0.0180
  153POPC   C3A 2264  10.419  10.042   6.360 -0.0797 -0.0993 -0.3284
  153POPC   C4A 2265  10.465  10.101   6.827 -0.0610  0.0204  0.1442
  153POPC   C1B 2266   9.774   9.341   5.763 -0.1168 -0.4903  0.2361
  153POPC   C2B 2267   9.762   9.319   6.151 -0.2170 -0.1042  0.0662
  153POPC   C3B 2268   9.494   9.146   6.565 -0.0469  0.0337 -0.1976
  153POPC   C4B 2269   9.267   9.352   6.954  0.2027 -0.1629  0.2155
  154POPC   NC3 2270   5.036   5.400   3.964  0.0469 -0.3119  0.2612
  154POPC   PO4 2271   5.226   5.373   4.474  0.0620  0.2455 -0.3977
  154POPC   GL1 2272   5.023   5.538   4.887  0.0331  0.0767 -0.1367
  154POPC   GL2 2273   4.921   5.817   4.955 -0.0761  0.2436 -0.0384
  154POPC   C1A 2274   5.050   5.387   5.417  0.0596 -0.0448  0.1064
  154POPC   D2A 2275   4.919   5.135   5.743  0.1982  0.0622 -0.0470
  154POPC   C3A 2276   5.063   4.753   5.907 -0.0284  0.0133  0.0163
  154POPC   C4A 2277   4.840   4.308   5.948  0.1151 -0.2700 -0.0979
  154POPC   C1B 2278   4.890   5.940   5.323  0.0110  0.3160  0.0722
  154POPC   C2B 2279   4.823   6.012   5.800 -0.1255  0.1342  0.2244
  154POPC   C3B 2280   4.805   6.019   6.232 -0.3056  0.1996 -0.1101
  154POPC   C4B 2281   5.012   6.157   6.559 -0.0767  0.0808  0.0201
  155POPC   NC3 2282   7.643   7.556   4.043 -0.0705  0.0090  0.2029
  155POPC   PO4 2283   7.638   7.549   4.522 -0.1386 -0.0755  0.1636
  155POPC   GL1 2284   7.629   7.628   4.992 -0.1519  0.2969  0.2662
  155POPC   GL2 2285   7.418   7.686   5.179  0.0633  0.0586 -0.1979
  155POPC   C1A 2286   7.617   7.269   5.321 -0.4417 -0.1137 -0.0813
  155POPC   D2A 2287   7.478   6.969   5.170  0.0646 -0.1810  0.1439
  155POPC   C3A 2288   7.489   6.544   5.418 -0.2778 -0.0762  0.1521
  155POPC   C4A 2289   7.457   6.091   5.445 -0.0040 -0.2933  0.0084
  155POPC   C1B 2290   7.212   7.470   5.531  0.0241 -0.0834 -0.4116
  155POPC   C2B 2291   7.071   7.348   5.903 -0.1561 -0.2374 -0.0796
  155POPC   C3B 2292   6.920   7.372   6.341  0.0828 -0.0670  0.2917
  155POPC   C4B 2293   6.654   7.178   6.776  0.0517 -0.2497 -0.3132
  156POPC   NC3 2294   5.609   6.276   4.882  0.0530  0.1272 -0.0181
  156POPC   PO4 2295   5.983   6.000   4.768  0.1427  0.4014 -0.1790
  156POPC   GL1 2296   5.927   6.063   5.235  0.0224 -0.0880  0.1365
  156POPC   GL2 2297   5.846   6.373   5.357 -0.0776 -0.0492  0.1805
  156POPC   C1A 2298   5.789   5.872   5.609  0.0311  0.1370 -0.1270
  156POPC   D2A 2299   5.733   5.547   5.928 -0.3002 -0.0232 -0.0751
  156POPC   C3A 2300   5.979   5.219   5.949 -0.3701  0.0989  0.1363
  156POPC   C4A 2301   6.390   5.127   6.113 -0.1882  0.2297  0.0480
  156POPC   C1B 2302   5.651   6.343   5.728  0.1040  0.1833  0.1448
  156POPC   C2B 2303   5.650   6.011   6.103  0.2669 -0.0638 -0.0143
  156POPC   C3B 2304   5.853   5.829   6.444 -0.1066 -0.1516 -0.0307
  156POPC   C4B 2305   5.795   5.464   6.757 -0.1979  0.2204 -0.2020
  157POPC   NC3 2306   5.149   7.072   4.691  0.0033 -0.4163 -0.0550
  157POPC   PO4 2307   5.410   6.748   4.611 -0.4002 -0.0251  0.0255
  157POPC   GL1 2308   5.469   6.716   5.033  0.0268 -0.1727 -0.2241
  157POPC   GL2 2309   5.113   6.713   5.106 -0.0494  0.1790  0.0034
  157POPC   C1A 2310   5.569   6.771   5.517 -0.2271  0.0858  0.0816
  157POPC   D2A 2311   5.254   6.787   5.782  0.0845  0.0211  0.1115
  157POPC   C3A 2312   5.405   6.463   6.158 -0.2473  0.1316  0.2552
  157POPC   C4A 2313   5.491   6.172   6.561  0.0097 -0.0898  0.2950
  157POPC   C1B 2314   5.250   7.116   5.341 -0.1865 -0.0014  0.0102
  157POPC   C2B 2315   5.149   7.556   5.545  0.0910  0.0563  0.1788
  157POPC   C3B 2316   5.031   7.946   5.423  0.2521 -0.0626  0.1091
  157POPC   C4B 2317   4.648   8.085   5.551  0.0446  0.0627 -0.1266
  158POPC   NC3 2318   6.505   0.820   4.731  0.0855  0.1798  0.3383
  158POPC   PO4 2319   6.645   0.330   4.705 -0.3569  0.1425  0.0232
  158POPC   GL1 2320   6.877   0.349   5.138 -0.2312  0.0964 -0.2935
  158POPC   GL2 2321   6.745   0.446   5.455 -0.1079  0.2104  0.2249
  158POPC   C1A 2322   7.007   0.028   5.489  0.0594  0.1032 -0.1491
  158POPC   D2A 2323   7.250  -0.059   5.762 -0.0178  0.0240  0.2966
  158POPC   C3A 2324   7.115  -0.294   6.125  0.0560  0.0142 -0.0365
  158POPC   C4A 2325   6.840  -0.295   6.388  0.0529  0.0398 -0.0301
  158POPC   C1B 2326   6.458   0.559   5.705  0.0159 -0.2652 -0.1845
  158POPC   C2B 2327   6.333   0.422   6.070 -0.2160 -0.1757  0.1628
  158POPC   C3B 2328   6.542   0.083   6.302 -0.1700 -0.1013 -0.0423
  158POPC   C4B 2329   6.678   0.139   6.771  0.0875 -0.1609  0.0190
  159POPC   NC3 2330   7.074   5.310   5.009  0.0772 -0.0850  0.0454
  159POPC   PO4 2331   6.757   5.072   5.166  0.3222  0.1867  0.0553
  159POPC   GL1 2332   6.733   4.678   5.330 -0.2175  0.4295  0.3702
  159POPC   GL2 2333   6.489   4.476   5.402  0.0271 -0.1481 -0.2403
  159POPC   C1A 2334   6.643   4.674   5.794  0.4148 -0.1313  0.1289
  159POPC   D2A 2335   6.657   4.572   6.193  0.0174 -0.1293  0.1448
  159POPC   C3A 2336   6.753   5.033   6.411 -0.1039  0.0861  0.0352
  159POPC   C4A 2337   7.032   5.368   6.511  0.1299 -0.0031  0.2371
  159POPC   C1B 2338   6.068   4.436   5.685 -0.0339  0.3792  0.0345
  159POPC   C2B 2339   5.771   4.220   5.925 -0.0001  0.2413 -0.0622
  159POPC   C3B 2340   5.653   3.992   6.412  0.2963  0.1072  0.2823
  159POPC   C4B 2341   5.761   4.030   6.824  0.3088  0.2249  0.0727
  160POPC   NC3 2342   5.736   9.716   4.823 -0.2266 -0.3104 -0.0238
  160POPC   PO4 2343   5.665  10.136   4.897  0.2600 -0.0201  0.3225
  160POPC   GL1 2344   5.674  10.254   5.331  0.0996  0.2083  0.0418
  160POPC   GL2 2345   6.010  10.348   5.386  0.0647  0.0743 -0.0599
  160POPC   C1A 2346   5.485  10.085   5.703 -0.2392 -0.0410 -0.1039
  160POPC   D2A 2347   5.237   9.733   5.983 -0.0360 -0.2427  0.2950
  160POPC   C3A 2348   5.339   9.907   6.388 -0.1588  0.0386  0.2868
  160POPC   C4A 2349   5.074  10.055   6.644 -0.1470 -0.0878 -0.1180
  160POPC   C1B 2350   6.098   9.986   5.774  0.1790 -0.1092 -0.1476
  160POPC   C2B 2351   6.246   9.734   6.020  0.1026  0.0555  0.0749
  160POPC   C3B 2352   6.612   9.515   5.979  0.2381  0.0564 -0.0419
  160POPC   C4B 2353   6.893   9.461   5.698  0.0795  0.1247  0.1589
  161POPC   NC3 2354   7.455   6.099   4.845  0.0395 -0.0409 -0.0614
  161POPC   PO4 2355   7.345   5.716   4.838  0.1904  0.1323  0.0070
  161POPC   GL1 2356   7.571   5.691   5.196  0.4932 -0.0457 -0.0280
  161POPC   GL2 2357   7.831   5.719   5.240 -0.4444  0.0228  0.1243
  161POPC   C1A 2358   7.546   5.681   5.724  0.0779  0.0385  0.3093
  161POPC   D2A 2359   7.710   5.896   5.976 -0.0361 -0.4701  0.0181
  161POPC   C3A 2360   7.923   6.253   6.104  0.1922 -0.0370 -0.1385
  161POPC   C4A 2361   7.830   6.523   6.356 -0.1811 -0.0331 -0.1648
  161POPC   C1B 2362   8.033   5.510   5.454  0.0788  0.1591  0.2038
  161POPC   C2B 2363   8.129   5.448   5.828  0.0765  0.1777  0.1330
  161POPC   C3B 2364   8.249   5.146   6.118  0.2583  0.2049 -0.0595
  161POPC   C4B 2365   8.635   5.031   6.366 -0.5252  0.0250  0.0071
  162POPC   NC3 2366   7.210   6.457   4.597 -0.0818 -0.0106 -0.1457
  162POPC   PO4 2367   7.648   6.646   4.763  0.0528  0.0457  0.0173
  162POPC   GL1 2368   7.887   6.398   5.002  0.0745 -0.4001 -0.1081
  162POPC   GL2 2369   7.995   6.226   4.813  0.0966 -0.1635  0.3026
  162POPC   C1A 2370   7.934   6.338   5.358 -0.1511 -0.0202 -0.0884
  162POPC   D2A 2371   8.031   6.027   5.591  0.1791 -0.2003  0.0096
  162POPC   C3A 2372   8.347   6.031   5.893 -0.0297  0.0200  0.3247
  162POPC   C4A 2373   8.432   5.905   6.311  0.1324 -0.2461 -0.1238
  162POPC   C1B 2374   8.195   6.000   5.155 -0.0182 -0.2107 -0.2758
  162POPC   C2B 2375   8.410   5.745   5.308 -0.2975 -0.0469  0.0273
  162POPC   C3B 2376   8.590   5.546   5.623  0.1103 -0.0155  0.3431
  162POPC   C4B 2377   8.609   5.476   6.094 -0.0418  0.1328  0.3005
  163POPC   NC3 2378   7.746   0.801   4.981 -0.1654  0.0955  0.0309
  163POPC   PO4 2379   7.558   0.405   4.996  0.0587 -0.0296  0.4520
  163POPC   GL1 2380   7.699   0.438   5.394  0.2580  0.1237  0.0958
  163POPC   GL2 2381   7.908   0.676   5.479 -0.3887 -0.1206  0.0749
  163POPC   C1A 2382   7.332   0.406   5.695 -0.1740  0.0216 -0.1476
  163POPC   D2A 2383   7.359   0.508   6.171  0.1668  0.3450  0.4798
  163POPC   C3A 2384   7.757   0.381   6.405 -0.1733  0.0119 -0.0115
  163POPC   C4A 2385   8.053   0.348   6.674 -0.0455 -0.0389  0.1677
  163POPC   C1B 2386   7.758   0.701   5.912 -0.1420  0.0805  0.1280
  163POPC   C2B 2387   7.843   0.933   6.281  0.1544 -0.0537  0.0906
  163POPC   C3B 2388   7.575   0.863   6.645  0.2313 -0.1867  0.4312
  163POPC   C4B 2389   7.470   1.040   7.026 -0.0664  0.0464 -0.4248
  164POPC   NC3 2390   3.991   0.945   4.590 -0.1997 -0.0117  0.0750
  164POPC   PO4 2391   3.741   1.213   4.392  0.2331  0.0997  0.2861
  164POPC   GL1 2392   3.710   1.261   4.867  0.0200  0.2195  0.2042
  164POPC   GL2 2393   3.918   1.058   5.050 -0.1876  0.0715 -0.0180
  164POPC   C1A 2394   3.809   1.448   5.287 -0.4688 -0.1403 -0.3235
  164POPC   D2A 2395   4.063   1.545   5.617 -0.1584 -0.1672 -0.1654
  164POPC   C3A 2396   3.993   1.457   5.972 -0.2112 -0.1130  0.2796
  164POPC   C4A 2397   3.865   1.126   6.208  0.0551 -0.3744  0.0833
  164POPC   C1B 2398   3.760   1.006   5.437  0.1574 -0.2544  0.1327
  164POPC   C2B 2399   3.545   1.310   5.771  0.0113 -0.0489 -0.1368
  164POPC   C3B 2400   3.439   1.397   6.167 -0.2678  0.0906  0.0586
  164POPC   C4B 2401   3.666   1.670   6.393  0.0995 -0.2248  0.2624
  165POPC   NC3 2402   7.283   0.073   4.803 -0.1748 -0.1170  0.1920
  165POPC   PO4 2403   7.130  -0.335   4.841  0.0422 -0.1594  0.0668
  165POPC   GL1 2404   7.012  -0.576   5.228 -0.1382  0.1088  0.0721
  165POPC   GL2 2405   7.389  -0.671   5.210  0.0522  0.0515 -0.3823
  165POPC   C1A 2406   6.888  -0.922   5.598  0.0824  0.1173 -0.0493
  165POPC   D2A 2407   6.586  -0.963   5.899 -0.1347  0.0186  0.1008
  165POPC   C3A 2408   6.627  -0.791   6.263  0.3330  0.1162 -0.1257
  165POPC   C4A 2409   6.817  -0.812   6.634 -0.2795  0.0705 -0.1268
  165POPC   C1B 2410   7.351  -0.609   5.614  0.4663 -0.0659 -0.3125
  165POPC   C2B 2411   7.263  -0.741   5.927  0.0140  0.0254  0.1327
  165POPC   C3B 2412   7.251  -0.760   6.382 -0.3618 -0.0264  0.4286
  165POPC   C4B 2413   7.423  -0.431   6.578  0.0101  0.0842 -0.0584
  166POPC   NC3 2414   5.214   2.933   3.948 -0.2804  0.1656 -0.1555
  166POPC   PO4 2415   5.278   3.409   3.898 -0.2767 -0.1497 -0.2181
  166POPC   GL1 2416   5.306   3.337   4.267 -0.1067  0.2646  0.1720
  166POPC   GL2 2417   5.256   3.126   4.454 -0.0586  0.1242  0.2377
  166POPC   C1A 2418   5.020   3.516   4.630  0.1058  0.1678  0.1907
  166POPC   D2A 2419   4.993   3.608   5.058 -0.0218 -0.2874  0.0070
  166POPC   C3A 2420   4.548   3.664   5.261 -0.3115 -0.0400  0.1404
  166POPC   C4A 2421   4.158   3.805   5.488  0.1372 -0.2451  0.0310
  166POPC   C1B 2422   5.121   2.716   4.719 -0.1719  0.0822  0.2530
  166POPC   C2B 2423   4.808   2.788   5.078 -0.0829 -0.0177  0.1086
  166POPC   C3B 2424   4.650   2.675   5.438 -0.2277 -0.2272 -0.2074
  166POPC   C4B 2425   4.359   2.659   5.786 -0.2256  0.4327  0.0692
  167POPC   NC3 2426   6.218   9.914   4.683  0.1298 -0.0909 -0.5237
  167POPC   PO4 2427   6.243   9.546   4.768 -0.0241 -0.0436 -0.0824
  167POPC   GL1 2428   6.409   9.502   5.231  0.3951  0.1465  0.0126
  167POPC   GL2 2429   6.487   9.264   5.515  0.0717 -0.2320 -0.1897
  167POPC   C1A 2430   6.401   9.777   5.493  0.0244 -0.1146 -0.1105
  167POPC   D2A 2431   6.595  10.026   5.796 -0.3612  0.2640  0.0861
  167POPC   C3A 2432   6.908  10.136   5.998  0.0767  0.2039  0.3227
  167POPC   C4A 2433   7.062  10.069   6.383 -0.1227 -0.0155 -0.2511
  167POPC   C1B 2434   6.171   9.210   5.853 -0.2892  0.1941  0.1845
  167POPC   C2B 2435   6.007   9.200   6.233 -0.1288 -0.0173  0.0147
  167POPC   C3B 2436   5.729   9.059   6.548  0.3456 -0.1694 -0.0798
  167POPC   C4B 2437   5.516   8.974   6.874  0.1356  0.0636  0.1177
  168POPC   NC3 2438   6.066   1.574   4.961 -0.1234 -0.3719 -0.3801
  168POPC   PO4 2439   6.470   1.342   5.020  0.2375  0.2397 -0.1091
  168POPC   GL1 2440   6.526   1.289   5.457 -0.0687  0.3218 -0.0084
  168POPC   GL2 2441   6.281   1.602   5.560 -0.1716 -0.0369  0.2234
  168POPC   C1A 2442   6.788   1.173   5.755  0.3495  0.0558 -0.1296
  168POPC   D2A 2443   7.189   1.410   5.864  0.0807 -0.1501 -0.0065
  168POPC   C3A 2444   7.304   1.553   6.273  0.1718  0.1708  0.0684
  168POPC   C4A 2445   7.594   1.863   6.435 -0.1937  0.0182 -0.0616
  168POPC   C1B 2446   6.086   1.590   5.995 -0.2794  0.3075  0.3639
  168POPC   C2B 2447   5.967   1.938   6.339 -0.0844 -0.2991  0.4178
  168POPC   C3B 2448   6.088   2.272   6.618  0.0144  0.0392  0.2591
  168POPC   C4B 2449   6.462   2.255   6.787  0.1676  0.0998  0.1136
  169POPC   NC3 2450   1.412   7.551   3.997 -0.0483 -0.1232 -0.0845
  169POPC   PO4 2451   1.157   7.406   4.472 -0.1964 -0.0616 -0.1108
  169POPC   GL1 2452   1.391   7.384   4.831  0.1903  0.1140  0.1066
  169POPC   GL2 2453   1.670   7.459   4.929 -0.2034  0.2499  0.1743
  169POPC   C1A 2454   1.206   7.386   5.253  0.1260  0.1041 -0.2223
  169POPC   D2A 2455   1.135   7.249   5.705  0.2151 -0.3714 -0.1125
  169POPC   C3A 2456   1.242   7.521   6.063  0.1453 -0.0403 -0.3794
  169POPC   C4A 2457   1.438   8.004   6.223 -0.2235  0.2888  0.0761
  169POPC   C1B 2458   1.607   7.689   5.322  0.0946 -0.4003 -0.1029
  169POPC   C2B 2459   1.690   7.653   5.738  0.0109 -0.4530 -0.0091
  169POPC   C3B 2460   1.833   7.622   6.172  0.1220  0.0319  0.0287
  169POPC   C4B 2461   2.332   7.818   6.341  0.1839  0.0745  0.1059
  170POPC   NC3 2462   8.017   0.936   4.259  0.0794 -0.0825 -0.2744
  170POPC   PO4 2463   7.963   1.219   4.638  0.1502 -0.0275 -0.0600
  170POPC   GL1 2464   7.828   1.375   5.031  0.3832 -0.0441 -0.1318
  170POPC   GL2 2465   8.145   1.413   5.216  0.0436 -0.2621 -0.1069
  170POPC   C1A 2466   7.823   1.264   5.491  0.1209  0.2180 -0.1537
  170POPC   D2A 2467   8.181   1.310   5.796  0.0397 -0.2799 -0.0255
  170POPC   C3A 2468   8.288   1.208   6.242  0.1598 -0.0001 -0.2500
  170POPC   C4A 2469   8.482   1.242   6.638  0.0600  0.0311 -0.1953
  170POPC   C1B 2470   8.383   1.619   5.466 -0.0604  0.0399 -0.0518
  170POPC   C2B 2471   8.460   1.818   5.846 -0.3079 -0.0014 -0.0075
  170POPC   C3B 2472   8.652   2.003   6.268 -0.1638  0.2588 -0.0486
  170POPC   C4B 2473   8.760   2.402   6.340  0.0383  0.0359 -0.0912
  171POPC   NC3 2474   9.495   5.403   5.120  0.0038 -0.1564  0.1614
  171POPC   PO4 2475   9.589   5.305   4.629  0.1948  0.0030 -0.2773
  171POPC   GL1 2476   9.649   4.914   4.937 -0.0356 -0.2384 -0.0295
  171POPC   GL2 2477   9.914   4.886   5.093  0.1201 -0.2015 -0.1902
  171POPC   C1A 2478   9.625   4.500   5.115 -0.2972  0.1288 -0.0991
  171POPC   D2A 2479   9.858   4.157   5.284  0.2011  0.3357 -0.0777
  171POPC   C3A 2480   9.738   3.770   5.167 -0.1211 -0.0016 -0.2363
  171POPC   C4A 2481   9.847   3.420   4.883  0.2033  0.2213 -0.3039
  171POPC   C1B 2482  10.133   4.633   5.431 -0.0066 -0.0855 -0.6044
  171POPC   C2B 2483  10.324   4.419   5.832  0.3667  0.0061  0.0520
  171POPC   C3B 2484  10.581   4.179   6.123 -0.0925  0.2652 -0.3545
  171POPC   C4B 2485  10.520   3.846   6.465 -0.0273  0.0846 -0.1702
  172POPC   NC3 2486   1.648   9.837   4.606  0.2392 -0.1492 -0.0121
  172POPC   PO4 2487   1.631  10.229   4.202 -0.0213 -0.0963 -0.0389
  172POPC   GL1 2488   1.887  10.399   4.529  0.1209  0.0683  0.0255
  172POPC   GL2 2489   1.821  10.542   4.881 -0.0600 -0.1666 -0.6069
  172POPC   C1A 2490   2.228  10.166   4.797  0.3708 -0.1428  0.0126
  172POPC   D2A 2491   2.664   9.897   4.842 -0.0451  0.0122 -0.2200
  172POPC   C3A 2492   2.833   9.935   5.145  0.1466  0.2076 -0.3625
  172POPC   C4A 2493   3.093  10.307   5.337  0.3065  0.0390 -0.0803
  172POPC   C1B 2494   2.154  10.443   5.250  0.0212 -0.2079 -0.2263
  172POPC   C2B 2495   2.111  10.652   5.675 -0.5828 -0.0321 -0.4632
  172POPC   C3B 2496   2.269  10.504   6.021  0.0106  0.0279 -0.0284
  172POPC   C4B 2497   2.770  10.189   6.075  0.3919  0.0667  0.0689
  173POPC   NC3 2498   6.735   7.535   4.610 -0.2598 -0.1002  0.0148
  173POPC   PO4 2499   6.450   7.570   4.930 -0.0783  0.5103  0.0298
  173POPC   GL1 2500   6.398   7.816   5.260  0.1838  0.2379  0.2370
  173POPC   GL2 2501   6.108   7.553   5.401 -0.1250 -0.1712  0.1343
  173POPC   C1A 2502   6.528   8.113   5.637  0.0415 -0.1402 -0.0301
  173POPC   D2A 2503   6.783   8.269   6.044 -0.0368 -0.0282 -0.0987
  173POPC   C3A 2504   6.663   8.144   6.487  0.0614 -0.3511  0.1956
  173POPC   C4A 2505   6.241   7.959   6.696 -0.1304  0.2478  0.1722
  173POPC   C1B 2506   6.121   7.797   5.799 -0.1310 -0.0775  0.1087
  173POPC   C2B 2507   6.299   8.183   6.107 -0.3968 -0.1609  0.0974
  173POPC   C3B 2508   6.479   8.596   6.276 -0.0853  0.2331 -0.2812
  173POPC   C4B 2509   6.979   8.730   6.096 -0.1859  0.0514  0.1657
  174POPC   NC3 2510   0.325   5.723   3.132  0.3075  0.2013  0.1065
  174POPC   PO4 2511   0.591   5.628   3.441  0.2226 -0.3438  0.0176
  174POPC   GL1 2512   0.656   5.286   3.845  0.0747 -0.2797  0.0706
  174POPC   GL2 2513   0.853   5.351   3.926  0.0272  0.0844  0.2488
  174POPC   C1A 2514   0.750   4.849   3.864 -0.0506 -0.2765  0.0127
  174POPC   D2A 2515   0.674   4.446   3.551  0.2390 -0.0639  0.2291
  174POPC   C3A 2516   0.852   4.206   3.901 -0.0239 -0.3347  0.0678
  174POPC   C4A 2517   1.211   4.099   4.185  0.0344 -0.0066  0.1507
  174POPC   C1B 2518   1.108   5.493   4.287  0.2627 -0.2331 -0.1354
  174POPC   C2B 2519   1.297   5.352   4.625  0.2841 -0.0876 -0.1104
  174POPC   C3B 2520   1.455   5.092   4.993  0.0579  0.1353  0.4598
  174POPC   C4B 2521   1.339   4.739   5.184 -0.0674  0.0762  0.0720
  175POPC   NC3 2522   4.965   3.609   3.073 -0.1707 -0.2525  0.2995
  175POPC   PO4 2523   4.587   3.773   3.285 -0.0913 -0.0444 -0.0579
  175POPC   GL1 2524   4.275   3.854   3.659  0.0061  0.1833 -0.1893
  175POPC   GL2 2525   4.066   4.116   3.678  0.1181  0.1888  0.1017
  175POPC   C1A 2526   3.990   3.551   3.848  0.2355 -0.3268 -0.3265
  175POPC   D2A 2527   3.846   3.300   4.267 -0.1091  0.0592  0.0195
  175POPC   C3A 2528   4.273   3.205   4.466 -0.0474 -0.0563  0.0685
  175POPC   C4A 2529   4.347   2.869   4.686 -0.3517  0.1130 -0.2790
  175POPC   C1B 2530   3.974   4.170   4.097 -0.1742  0.0273 -0.3110
  175POPC   C2B 2531   4.304   4.285   4.389  0.1841 -0.1003  0.0951
  175POPC   C3B 2532   4.452   4.420   4.700 -0.1914 -0.1029  0.2736
  175POPC   C4B 2533   4.812   4.574   5.012 -0.0282 -0.0481  0.1122
  176POPC   NC3 2534   6.106   3.641   4.116  0.1751 -0.1041 -0.2940
  176POPC   PO4 2535   5.992   3.550   4.605  0.1247  0.1226 -0.0827
  176POPC   GL1 2536   5.974   3.448   4.979  0.0919 -0.1407  0.2231
  176POPC   GL2 2537   6.205   3.651   5.274 -0.1773  0.2721  0.2586
  176POPC   C1A 2538   5.863   3.298   5.387  0.2520 -0.2465  0.2374
  176POPC   D2A 2539   5.982   3.373   5.792  0.3690 -0.0592 -0.3359
  176POPC   C3A 2540   6.188   3.181   6.020  0.0030  0.2070  0.0453
  176POPC   C4A 2541   6.494   2.926   6.178  0.1581  0.1636  0.1322
  176POPC   C1B 2542   6.361   3.999   5.576  0.1559 -0.3210 -0.1663
  176POPC   C2B 2543   6.330   4.185   6.040 -0.0381 -0.1874  0.0240
  176POPC   C3B 2544   6.330   4.055   6.384 -0.0008  0.0555 -0.2000
  176POPC   C4B 2545   6.281   4.193   6.750 -0.0653  0.1102  0.1077
  177POPC   NC3 2546   9.013   1.106   4.709  0.0764  0.0654  0.0201
  177POPC   PO4 2547   8.494   1.271   4.736  0.1118 -0.0964  0.0993
  177POPC   GL1 2548   8.579   1.090   5.132 -0.1401 -0.0527  0.1088
  177POPC   GL2 2549   8.786   0.973   5.206  0.1982 -0.2570  0.1903
  177POPC   C1A 2550   8.320   1.001   5.477 -0.2136 -0.2077  0.2618
  177POPC   D2A 2551   8.472   0.925   5.887  0.0330 -0.0132 -0.1237
  177POPC   C3A 2552   8.696   0.819   6.354  0.0374  0.0949  0.3668
  177POPC   C4A 2553   8.992   0.578   6.522  0.2003  0.2956  0.0038
  177POPC   C1B 2554   8.860   0.946   5.566  0.0092  0.0581 -0.2196
  177POPC   C2B 2555   9.005   0.787   5.976  0.3088 -0.0401  0.0239
  177POPC   C3B 2556   9.301   0.535   6.158 -0.0775 -0.0346  0.0740
  177POPC   C4B 2557   9.429   0.262   6.591  0.2489  0.0069  0.1323
  178POPC   NC3 2558   1.481   0.631   3.852  0.0830  0.1451  0.3598
  178POPC   PO4 2559   1.625   1.005   4.107  0.0985 -0.0528  0.0223
  178POPC   GL1 2560   1.930   0.966   4.400  0.1146  0.1110  0.1437
  178POPC   GL2 2561   2.232   1.028   4.379 -0.1429  0.1460 -0.1038
  178POPC   C1A 2562   2.040   1.157   4.792 -0.1476  0.1954 -0.0077
  178POPC   D2A 2563   2.074   1.051   5.240 -0.0159  0.0126 -0.0025
  178POPC   C3A 2564   1.854   1.264   5.571 -0.0605 -0.0930  0.3163
  178POPC   C4A 2565   1.711   0.986   6.058  0.0794  0.0717  0.0413
  178POPC   C1B 2566   2.391   1.414   4.580  0.0127 -0.0650 -0.2350
  178POPC   C2B 2567   2.301   1.633   4.910  0.0296  0.0104  0.2735
  178POPC   C3B 2568   2.008   1.529   5.207  0.2114 -0.0736  0.2947
  178POPC   C4B 2569   1.566   1.607   5.398 -0.0172 -0.0666 -0.2894
  179POPC   NC3 2570   9.732   6.209   5.009 -0.1657 -0.1332  0.0704
  179POPC   PO4 2571  10.059   6.214   4.767  0.0219 -0.2032 -0.1059
  179POPC   GL1 2572  10.187   6.463   5.197 -0.1661  0.0676  0.1166
  179POPC   GL2 2573   9.851   6.559   5.391  0.0122  0.1145 -0.1821
  179POPC   C1A 2574  10.432   6.719   5.430  0.0105  0.3064 -0.2323
  179POPC   D2A 2575  10.196   6.634   5.805  0.0377  0.0202  0.3148
  179POPC   C3A 2576  10.100   6.743   6.173 -0.3014 -0.0529  0.2055
  179POPC   C4A 2577   9.733   6.916   6.412  0.1152 -0.1901  0.2810
  179POPC   C1B 2578   9.831   6.139   5.611  0.1221 -0.1103 -0.0394
  179POPC   C2B 2579  10.145   5.892   5.882 -0.0134 -0.2820  0.0860
  179POPC   C3B 2580  10.394   5.695   6.228 -0.1207 -0.0130  0.1415
  179POPC   C4B 2581  10.836   5.650   6.247  0.2231 -0.0259  0.0291
  180POPC   NC3 2582   9.818   0.580   4.700  0.3861 -0.0873  0.0562
  180POPC   PO4 2583   9.522   1.020   4.721 -0.1958  0.1030 -0.0915
  180POPC   GL1 2584   9.711   1.215   5.088 -0.2446 -0.0796  0.0529
  180POPC   GL2 2585   9.996   0.987   5.278 -0.1771 -0.2279 -0.0909
  180POPC   C1A 2586   9.661   1.385   5.426 -0.1169 -0.1678 -0.2631
  180POPC   D2A 2587   9.784   1.291   5.805 -0.2700 -0.0845  0.0623
  180POPC   C3A 2588   9.419   1.549   5.963  0.2494  0.0002 -0.0410
  180POPC   C4A 2589   9.257   1.811   6.286 -0.0598 -0.1917  0.1243
  180POPC   C1B 2590  10.219   1.154   5.624 -0.0807 -0.2576 -0.0054
  180POPC   C2B 2591  10.625   1.400   5.780  0.1163 -0.1344  0.0176
  180POPC   C3B 2592  10.894   1.435   6.042 -0.2208  0.0253 -0.0204
  180POPC   C4B 2593  11.171   1.340   6.317 -0.1754 -0.3599  0.2679
  181POPC   NC3 2594   8.666   9.051   4.738 -0.0509 -0.0887  0.2881
  181POPC   PO4 2595   9.193   9.158   4.575 -0.0352  0.0444 -0.1732
  181POPC   GL1 2596   9.181   9.327   4.984  0.0167  0.0668  0.0329
  181POPC   GL2 2597   8.997   9.592   5.012 -0.1314 -0.1470 -0.1743
  181POPC   C1A 2598   9.373   9.364   5.360 -0.1811  0.1035  0.0165
  181POPC   D2A 2599   9.361   9.633   5.784 -0.2982  0.0827  0.0805
  181POPC   C3A 2600   9.125   9.921   6.025 -0.2025 -0.1010 -0.0382
  181POPC   C4A 2601   8.847  10.230   6.030  0.5684 -0.0289  0.0309
  181POPC   C1B 2602   8.970   9.651   5.445  0.2291 -0.0981  0.2701
  181POPC   C2B 2603   8.739   9.472   5.860 -0.0399 -0.2521  0.2383
  181POPC   C3B 2604   8.705   9.274   6.278  0.2801  0.1047 -0.2396
  181POPC   C4B 2605   8.994   9.273   6.558 -0.0252 -0.0856 -0.1811
  182POPC   NC3 2606   6.059   4.453   4.631  0.1314 -0.3111  0.0187
  182POPC   PO4 2607   5.894   4.821   4.823  0.0544  0.0417 -0.0602
  182POPC   GL1 2608   5.860   4.907   5.365 -0.0818  0.2161 -0.1803
  182POPC   GL2 2609   6.194   4.866   5.550  0.2886 -0.1122 -0.2207
  182POPC   C1A 2610   5.634   4.743   5.702 -0.1596  0.1192 -0.0277
  182POPC   D2A 2611   5.563   4.671   6.145 -0.0438  0.1804 -0.0287
  182POPC   C3A 2612   5.322   4.353   6.206  0.0641 -0.0570 -0.0383
  182POPC   C4A 2613   5.132   4.248   6.537 -0.0790  0.1289 -0.1992
  182POPC   C1B 2614   6.150   4.736   6.120 -0.3112 -0.1019  0.0682
  182POPC   C2B 2615   5.907   4.408   6.395 -0.0407 -0.1173 -0.1319
  182POPC   C3B 2616   5.950   4.564   6.865 -0.3464  0.2324  0.1211
  182POPC   C4B 2617   6.197   4.702   7.133  0.3333 -0.0715  0.1258
  183POPC   NC3 2618   2.052   3.465   2.800  0.2969  0.2103 -0.1728
  183POPC   PO4 2619   1.680   3.733   2.821 -0.1417  0.0132  0.0325
  183POPC   GL1 2620   1.692   3.896   3.184  0.1502 -0.2033 -0.0050
  183POPC   GL2 2621   1.401   4.046   3.310 -0.1572  0.3819  0.0994
  183POPC   C1A 2622   1.665   3.708   3.600 -0.1502  0.2607  0.1700
  183POPC   D2A 2623   1.557   4.019   3.903 -0.3332  0.2430 -0.0559
  183POPC   C3A 2624   1.456   4.403   3.747 -0.2593  0.0701  0.0908
  183POPC   C4A 2625   1.163   4.505   3.550  0.1505 -0.0891 -0.1228
  183POPC   C1B 2626   1.175   3.870   3.631  0.0355  0.0322  0.1876
  183POPC   C2B 2627   1.135   3.569   3.962  0.1402 -0.2004 -0.1775
  183POPC   C3B 2628   0.966   3.601   4.370 -0.0244 -0.2159 -0.2752
  183POPC   C4B 2629   1.016   3.896   4.626 -0.2956 -0.2930 -0.0889
  184POPC   NC3 2630   3.074   7.188   4.341 -0.1214  0.1867 -0.1163
  184POPC   PO4 2631   2.673   6.877   4.316 -0.1050  0.0139  0.2258
  184POPC   GL1 2632   2.750   6.979   4.764 -0.2987 -0.3456 -0.1847
  184POPC   GL2 2633   2.602   7.223   4.887  0.0464 -0.4065 -0.0874
  184POPC   C1A 2634   2.687   6.892   5.203  0.0596 -0.0189 -0.1632
  184POPC   D2A 2635   2.495   6.854   5.617 -0.0500 -0.1084  0.0385
  184POPC   C3A 2636   2.605   6.465   5.793  0.0488  0.0245  0.2161
  184POPC   C4A 2637   2.732   6.251   6.104 -0.2928  0.0913  0.6089
  184POPC   C1B 2638   2.216   7.176   5.046  0.3394  0.1300  0.4253
  184POPC   C2B 2639   1.985   6.841   5.462 -0.4951 -0.0886 -0.3196
  184POPC   C3B 2640   1.904   6.571   5.726 -0.0957 -0.1986 -0.2057
  184POPC   C4B 2641   1.485   6.300   5.621  0.2097  0.3987  0.0660
  185POPC   NC3 2642   9.148   0.162   4.941  0.0513 -0.3243 -0.1269
  185POPC   PO4 2643   9.247   0.340   4.632  0.0952 -0.2877  0.5306
  185POPC   GL1 2644   9.296   0.657   4.955 -0.2802 -0.0428  0.1068
  185POPC   GL2 2645   9.568   0.523   5.120 -0.0735 -0.0348 -0.1361
  185POPC   C1A 2646   9.338   0.977   5.337 -0.1637 -0.1284 -0.1296
  185POPC   D2A 2647   9.292   1.130   5.686 -0.0060 -0.0895 -0.0333
  185POPC   C3A 2648   9.365   1.040   6.158  0.0205  0.0916 -0.2445
  185POPC   C4A 2649   9.130   1.066   6.659 -0.2292 -0.2044 -0.2838
  185POPC   C1B 2650   9.758   0.642   5.505 -0.1386 -0.4780  0.0949
  185POPC   C2B 2651   9.713   0.720   5.926 -0.2019 -0.0680 -0.2828
  185POPC   C3B 2652   9.895   1.000   6.188  0.2114 -0.2347 -0.1505
  185POPC   C4B 2653  10.010   1.414   6.247 -0.0668 -0.2386  0.1843
  186POPC   NC3 2654   2.844   0.837   3.768  0.1864 -0.1228 -0.0527
  186POPC   PO4 2655   2.771   0.903   4.190 -0.1753 -0.1663  0.0653
  186POPC   GL1 2656   3.028   0.841   4.569 -0.4028  0.2274  0.1350
  186POPC   GL2 2657   3.291   1.011   4.691  0.1000 -0.0358  0.1279
  186POPC   C1A 2658   2.948   0.826   5.086  0.1972  0.0279  0.0509
  186POPC   D2A 2659   2.781   0.929   5.405 -0.1993  0.4140 -0.1210
  186POPC   C3A 2660   2.543   1.067   5.695  0.2255  0.1770 -0.0632
  186POPC   C4A 2661   2.241   1.093   6.065  0.1017 -0.2476  0.0992
  186POPC   C1B 2662   3.217   1.227   5.102  0.1519 -0.2030  0.2109
  186POPC   C2B 2663   2.933   1.402   5.492 -0.1272  0.0736 -0.2694
  186POPC   C3B 2664   3.007   1.210   5.947 -0.1001 -0.0535 -0.2012
  186POPC   C4B 2665   3.236   0.902   6.193  0.2617  0.1233  0.0069
  187POPC   NC3 2666   5.908   6.997   4.242 -0.1411  0.1716 -0.0121
  187POPC   PO4 2667   6.260   7.155   4.674 -0.4668  0.2553 -0.2113
  187POPC   GL1 2668   6.281   7.121   5.108  0.1107 -0.0493  0.1054
  187POPC   GL2 2669   6.134   6.802   5.324  0.1244 -0.1017 -0.0295
  187POPC   C1A 2670   6.395   7.193   5.471 -0.0506 -0.1747  0.3473
  187POPC   D2A 2671   6.533   7.245   5.829  0.0396  0.0143  0.2611
  187POPC   C3A 2672   6.472   7.092   6.331 -0.3070 -0.0477 -0.0854
  187POPC   C4A 2673   6.196   7.204   6.635 -0.0794 -0.2499 -0.2114
  187POPC   C1B 2674   6.066   6.769   5.723 -0.3501  0.0237  0.1405
  187POPC   C2B 2675   5.912   6.840   6.094 -0.0639  0.1912  0.0319
  187POPC   C3B 2676   5.763   7.078   6.406  0.0191  0.0379 -0.2163
  187POPC   C4B 2677   5.514   7.341   6.685 -0.0851  0.1157  0.4762
  188POPC   NC3 2678   3.577   7.139   4.490  0.2873 -0.1021  0.1223
  188POPC   PO4 2679   3.892   6.766   4.447  0.0965  0.1624  0.0455
  188POPC   GL1 2680   3.718   6.737   4.868 -0.1355  0.0098 -0.2487
  188POPC   GL2 2681   3.989   6.733   5.071  0.0657 -0.1663  0.0430
  188POPC   C1A 2682   3.600   6.403   5.119 -0.0551  0.2256 -0.1159
  188POPC   D2A 2683   3.528   6.257   5.481 -0.0572 -0.1287  0.0253
  188POPC   C3A 2684   3.940   6.363   5.667  0.3486  0.0205 -0.2107
  188POPC   C4A 2685   4.093   6.748   5.630 -0.0500  0.0603  0.0101
  188POPC   C1B 2686   3.678   6.814   5.368  0.0568  0.0409 -0.1387
  188POPC   C2B 2687   3.535   6.748   5.732  0.0016  0.1159 -0.1504
  188POPC   C3B 2688   3.700   6.597   6.051 -0.0803 -0.3256  0.0517
  188POPC   C4B 2689   3.876   6.419   6.384 -0.0564  0.3998 -0.0671
  189POPC   NC3 2690   0.646   9.800   4.639 -0.1973 -0.2054  0.0029
  189POPC   PO4 2691   0.274  10.178   4.852 -0.0898  0.3164  0.1095
  189POPC   GL1 2692   0.350  10.408   5.249 -0.0087  0.2206 -0.3566
  189POPC   GL2 2693   0.510  10.189   5.340 -0.0199  0.0119  0.2574
  189POPC   C1A 2694   0.449  10.578   5.678  0.0929 -0.0252  0.1345
  189POPC   D2A 2695   0.414  10.464   6.066 -0.0033  0.0775  0.0537
  189POPC   C3A 2696   0.001  10.419   6.337 -0.0869  0.1491  0.1075
  189POPC   C4A 2697   0.035  10.156   6.740  0.1425  0.2374  0.0242
  189POPC   C1B 2698   0.839   9.991   5.571 -0.0382  0.0441  0.1211
  189POPC   C2B 2699   1.315  10.191   5.641 -0.0644 -0.1515  0.1550
  189POPC   C3B 2700   1.635  10.440   5.911 -0.0818  0.1174  0.0647
  189POPC   C4B 2701   1.869  10.532   6.363  0.0228 -0.2812 -0.1964
  190POPC   NC3 2702   4.844   4.547   3.407  0.2222  0.0085 -0.2031
  190POPC   PO4 2703   4.430   4.805   3.516  0.1188  0.1097  0.1454
  190POPC   GL1 2704   4.077   4.709   3.768  0.0203  0.0231  0.1613
  190POPC   GL2 2705   3.789   4.711   3.728 -0.2864 -0.3151  0.0512
  190POPC   C1A 2706   3.891   4.655   4.254 -0.0971 -0.2425  0.0416
  190POPC   D2A 2707   3.816   4.277   4.567  0.3780  0.1574  0.1368
  190POPC   C3A 2708   3.981   4.327   5.001 -0.1492  0.2409 -0.2502
  190POPC   C4A 2709   3.831   4.592   5.345  0.2353 -0.3915 -0.0621
  190POPC   C1B 2710   3.457   4.626   3.995 -0.2527  0.1342 -0.0949
  190POPC   C2B 2711   3.343   4.662   4.356 -0.2845  0.2601 -0.1963
  190POPC   C3B 2712   3.172   4.309   4.540 -0.0274 -0.1324 -0.0878
  190POPC   C4B 2713   3.249   3.894   4.740 -0.1873 -0.2988 -0.2719
  191POPC   NC3 2714   7.156   0.706   4.894  0.1010 -0.3309 -0.1089
  191POPC   PO4 2715   7.344   1.128   4.951 -0.1027 -0.0740  0.1300
  191POPC   GL1 2716   7.353   1.416   5.238 -0.0671 -0.1599 -0.1351
  191POPC   GL2 2717   6.997   1.554   5.441  0.0734 -0.2373  0.3414
  191POPC   C1A 2718   7.390   1.894   5.384 -0.0068  0.1511 -0.2802
  191POPC   D2A 2719   7.696   2.225   5.489 -0.2594  0.0870  0.0113
  191POPC   C3A 2720   7.743   2.287   5.912 -0.1607 -0.0161 -0.1148
  191POPC   C4A 2721   7.811   2.327   6.294 -0.0679  0.2428  0.1688
  191POPC   C1B 2722   6.703   1.654   5.749 -0.0388  0.0511 -0.3926
  191POPC   C2B 2723   6.630   1.424   6.141 -0.0415 -0.1370  0.2185
  191POPC   C3B 2724   6.297   1.548   6.463 -0.0540 -0.0868 -0.0247
  191POPC   C4B 2725   6.183   1.777   6.803 -0.1280  0.0744 -0.1333
  192POPC   NC3 2726   8.782   5.456   4.552  0.2063 -0.4300  0.1553
  192POPC   PO4 2727   9.091   5.206   4.792 -0.0745  0.2129 -0.1757
  192POPC   GL1 2728   9.188   4.820   5.148 -0.1520 -0.1205  0.2737
  192POPC   GL2 2729   9.049   4.674   5.551 -0.0450  0.2308 -0.0833
  192POPC   C1A 2730   9.528   4.726   5.522  0.2696  0.0216 -0.3189
  192POPC   D2A 2731   9.799   4.463   5.758  0.1721 -0.0914  0.1000
  192POPC   C3A 2732   9.889   4.663   6.073  0.0086 -0.3401  0.0711
  192POPC   C4A 2733  10.263   4.684   6.270 -0.2141 -0.0515  0.0155
  192POPC   C1B 2734   9.139   4.880   5.920 -0.0031  0.1312  0.3472
  192POPC   C2B 2735   9.429   4.866   6.269 -0.0012 -0.1596  0.1034
  192POPC   C3B 2736   9.610   4.896   6.629 -0.0892  0.0478 -0.1509
  192POPC   C4B 2737   9.455   4.671   7.050 -0.2114  0.3196 -0.1583
  193POPC   NC3 2738   7.671   3.020   4.826  0.0261 -0.0911 -0.0897
  193POPC   PO4 2739   8.170   2.947   4.808 -0.0606 -0.3751 -0.1509
  193POPC   GL1 2740   8.184   3.022   5.167 -0.0723 -0.2732  0.3598
  193POPC   GL2 2741   7.898   3.186   5.195  0.0206 -0.0474  0.0543
  193POPC   C1A 2742   8.355   3.304   5.534 -0.0633  0.0309 -0.1023
  193POPC   D2A 2743   8.665   3.297   5.940  0.0305  0.0467  0.1455
  193POPC   C3A 2744   8.813   3.532   6.151 -0.1569  0.1042  0.2557
  193POPC   C4A 2745   9.227   3.688   6.305  0.0561 -0.0540  0.2601
  193POPC   C1B 2746   7.861   3.158   5.638 -0.0304 -0.2018  0.1173
  193POPC   C2B 2747   8.035   3.153   6.013 -0.1167 -0.0727 -0.1579
  193POPC   C3B 2748   8.047   3.404   6.471  0.0807  0.0432  0.1209
  193POPC   C4B 2749   7.891   3.678   6.732  0.1416 -0.0222  0.2692
  194POPC   NC3 2750   6.082   8.851   4.355 -0.1471 -0.1749 -0.1456
  194POPC   PO4 2751   6.237   9.007   4.768 -0.2098 -0.0099 -0.3441
  194POPC   GL1 2752   6.108   9.050   5.206  0.1162 -0.1575 -0.1175
  194POPC   GL2 2753   5.862   9.198   5.197 -0.0647  0.1077  0.1429
  194POPC   C1A 2754   6.090   8.744   5.507 -0.2408 -0.1199  0.3084
  194POPC   D2A 2755   6.396   8.569   5.703 -0.0256  0.1031  0.2137
  194POPC   C3A 2756   6.852   8.493   5.521 -0.2599 -0.3230 -0.1857
  194POPC   C4A 2757   7.103   7.961   5.509  0.2402  0.1093  0.4350
  194POPC   C1B 2758   5.610   9.037   5.532 -0.0508  0.6207 -0.1751
  194POPC   C2B 2759   5.800   8.830   5.907 -0.1092 -0.2174  0.0542
  194POPC   C3B 2760   6.046   8.725   6.092 -0.2587  0.1058  0.5652
  194POPC   C4B 2761   5.999   8.506   6.355  0.0765 -0.0828  0.0801
  195POPC   NC3 2762   0.789   6.324   4.359  0.4486 -0.3658 -0.1233
  195POPC   PO4 2763   0.897   6.723   4.366  0.1589  0.2398 -0.2789
  195POPC   GL1 2764   0.960   6.986   4.638 -0.0918  0.5264 -0.2790
  195POPC   GL2 2765   0.790   7.283   4.763 -0.3237  0.2520  0.1105
  195POPC   C1A 2766   1.186   6.921   5.039  0.1650  0.0625  0.0405
  195POPC   D2A 2767   1.408   6.682   5.328 -0.1205  0.1814 -0.3997
  195POPC   C3A 2768   1.809   6.433   5.236  0.0456 -0.2626  0.0408
  195POPC   C4A 2769   2.104   6.630   5.056  0.3102  0.2049 -0.3774
  195POPC   C1B 2770   0.797   7.148   5.193 -0.0222  0.2971 -0.0007
  195POPC   C2B 2771   0.918   6.874   5.566 -0.1049 -0.1851 -0.0456
  195POPC   C3B 2772   1.193   6.768   5.920 -0.0250 -0.0320  0.0243
  195POPC   C4B 2773   1.306   6.472   6.180 -0.2075 -0.3951  0.1071
  196POPC   NC3 2774   2.860   5.667   3.516 -0.1798 -0.1909  0.2846
  196POPC   PO4 2775   2.958   5.360   3.764 -0.0403  0.1550  0.1664
  196POPC   GL1 2776   3.080   5.214   4.061  0.4592  0.0119  0.0594
  196POPC   GL2 2777   2.976   5.487   4.241  0.2741 -0.0300  0.0741
  196POPC   C1A 2778   2.888   4.969   4.498  0.0472  0.1378  0.0445
  196POPC   D2A 2779   2.574   4.941   4.853  0.2586 -0.0118  0.2029
  196POPC   C3A 2780   2.241   5.293   5.035 -0.0980 -0.0696  0.1394
  196POPC   C4A 2781   2.280   5.688   4.829 -0.0410  0.0558 -0.1061
  196POPC   C1B 2782   3.160   5.571   4.654  0.0883  0.2364  0.0207
  196POPC   C2B 2783   3.424   5.531   4.985 -0.1714 -0.1396 -0.2166
  196POPC   C3B 2784   3.532   5.414   5.420  0.0390  0.2054  0.1326
  196POPC   C4B 2785   3.600   5.299   5.836 -0.2616 -0.4262  0.0776
  197POPC   NC3 2786   3.576   4.026   2.511  0.1210  0.2084 -0.0962
  197POPC   PO4 2787   3.701   4.195   2.939 -0.1614 -0.1379 -0.2692
  197POPC   GL1 2788   3.604   4.076   3.409  0.0101  0.3573  0.3302
  197POPC   GL2 2789   3.646   3.725   3.557  0.1435 -0.2227 -0.2406
  197POPC   C1A 2790   3.578   4.143   3.874 -0.1184  0.0052 -0.0846
  197POPC   D2A 2791   3.418   4.081   4.215 -0.0015 -0.0527  0.2739
  197POPC   C3A 2792   2.943   4.227   4.148  0.2028  0.1594 -0.1509
  197POPC   C4A 2793   2.905   4.677   4.079 -0.0922 -0.2259  0.1153
  197POPC   C1B 2794   3.507   3.543   3.991  0.1533  0.0295 -0.0837
  197POPC   C2B 2795   3.337   3.277   4.279 -0.3931 -0.1417 -0.0724
  197POPC   C3B 2796   3.125   2.960   4.482 -0.0393  0.3683 -0.1356
  197POPC   C4B 2797   2.901   2.924   4.918  0.4710 -0.1894  0.0779
  198POPC   NC3 2798   0.443   0.692   4.691  0.1781 -0.0515  0.0756
  198POPC   PO4 2799   0.735   0.320   4.500  0.1245  0.0535 -0.1530
  198POPC   GL1 2800   0.893   0.202   4.926 -0.3435 -0.3208 -0.0301
  198POPC   GL2 2801   1.127   0.450   4.846  0.0544 -0.0835 -0.3166
  198POPC   C1A 2802   0.952   0.484   5.331  0.2297  0.1791  0.0868
  198POPC   D2A 2803   1.267   0.730   5.664 -0.2955 -0.2074  0.0685
  198POPC   C3A 2804   1.223   0.745   6.087 -0.1999  0.0670  0.0968
  198POPC   C4A 2805   1.389   0.490   6.431  0.0327  0.1294 -0.2975
  198POPC   C1B 2806   1.041   0.918   5.133 -0.1146  0.0974  0.3297
  198POPC   C2B 2807   1.222   1.163   5.466 -0.1878  0.1983  0.0298
  198POPC   C3B 2808   1.370   1.270   5.794  0.0551  0.2157 -0.0550
  198POPC   C4B 2809   1.676   1.481   5.975 -0.0379  0.0866 -0.0930
  199POPC   NC3 2810   6.428   3.665   4.771 -0.1141  0.1648 -0.0021
  199POPC   PO4 2811   6.409   3.221   4.935 -0.2205 -0.2397  0.2783
  199POPC   GL1 2812   6.388   3.231   5.327  0.0072 -0.1397 -0.0008
  199POPC   GL2 2813   6.476   2.994   5.554 -0.0257  0.3170  0.3604
  199POPC   C1A 2814   6.452   3.469   5.616  0.0167 -0.2765  0.0539
  199POPC   D2A 2815   6.475   3.715   5.975 -0.1238 -0.0985 -0.1009
  199POPC   C3A 2816   6.414   3.532   6.268  0.0022 -0.0513 -0.3595
  199POPC   C4A 2817   6.266   3.206   6.584 -0.0747  0.1512  0.1050
  199POPC   C1B 2818   6.201   2.705   5.793 -0.1293  0.2426 -0.4616
  199POPC   C2B 2819   6.360   2.463   6.283 -0.2435 -0.1504 -0.0189
  199POPC   C3B 2820   6.750   2.561   6.478  0.2424  0.1350  0.0472
  199POPC   C4B 2821   6.959   2.549   6.829  0.4873 -0.1151 -0.2059
  200POPC   NC3 2822   7.001   6.230   4.178 -0.0590 -0.0160  0.1955
  200POPC   PO4 2823   6.739   6.367   4.460 -0.2556  0.0178 -0.0086
  200POPC   GL1 2824   6.706   6.325   5.019  0.0887 -0.0440 -0.0886
  200POPC   GL2 2825   6.957   6.050   5.181  0.1811 -0.0322 -0.1700
  200POPC   C1A 2826   7.023   6.545   5.347  0.1276  0.0167  0.4423
  200POPC   D2A 2827   7.018   6.502   5.778  0.0847  0.1264 -0.1319
  200POPC   C3A 2828   6.901   6.788   6.026  0.2394  0.1129 -0.1283
  200POPC   C4A 2829   6.809   6.813   6.492  0.0824  0.1291 -0.4533
  200POPC   C1B 2830   7.050   6.008   5.679  0.1825  0.2121  0.2943
  200POPC   C2B 2831   7.096   5.854   6.080 -0.1234  0.1852  0.0621
  200POPC   C3B 2832   7.139   5.897   6.555 -0.1820 -0.2879 -0.0917
  200POPC   C4B 2833   7.108   5.567   6.934 -0.1077  0.0798 -0.3074
  201POPC   NC3 2834   1.328   6.244   3.571  0.0016  0.2524 -0.0140
  201POPC   PO4 2835   1.600   6.414   3.947 -0.1615 -0.0221  0.1194
  201POPC   GL1 2836   1.711   6.180   4.264  0.1825 -0.2029  0.2523
  201POPC   GL2 2837   1.807   6.396   4.573  0.1569 -0.2973  0.0186
  201POPC   C1A 2838   1.482   6.010   4.672 -0.3296 -0.2076  0.2835
  201POPC   D2A 2839   1.129   5.795   4.816 -0.0114 -0.2754 -0.0125
  201POPC   C3A 2840   1.136   5.465   5.202  0.0084  0.2406 -0.2020
  201POPC   C4A 2841   0.839   5.141   5.452  0.1972  0.0678  0.2758
  201POPC   C1B 2842   1.932   6.047   4.919  0.1295 -0.1397  0.2388
  201POPC   C2B 2843   2.092   5.797   5.315  0.3113 -0.1741 -0.3724
  201POPC   C3B 2844   1.837   5.949   5.736  0.1657 -0.3255  0.1406
  201POPC   C4B 2845   1.666   6.121   6.057  0.2296  0.0176  0.1009
  202POPC   NC3 2846   8.892   7.945   4.935  0.3968 -0.0785  0.1399
  202POPC   PO4 2847   8.565   7.953   5.123 -0.0099 -0.2392  0.1988
  202POPC   GL1 2848   8.663   8.020   5.602 -0.0113 -0.0724  0.2551
  202POPC   GL2 2849   8.480   7.824   5.713 -0.2058  0.2119  0.0201
  202POPC   C1A 2850   8.958   8.242   5.824  0.0794 -0.2165 -0.0498
  202POPC   D2A 2851   9.208   8.135   6.026 -0.1925  0.0559 -0.0797
  202POPC   C3A 2852   9.367   8.421   6.232  0.2466 -0.2083  0.0955
  202POPC   C4A 2853   9.500   8.514   6.665  0.0772  0.0659 -0.1580
  202POPC   C1B 2854   8.522   7.897   6.180 -0.0638 -0.3639  0.1525
  202POPC   C2B 2855   8.512   7.956   6.687 -0.2731  0.1329 -0.0161
  202POPC   C3B 2856   8.726   8.070   7.076 -0.0715 -0.0170  0.0227
  202POPC   C4B 2857   8.645   8.585   7.217  0.0341 -0.2558 -0.0495
  203POPC   NC3 2858   7.479   4.005   4.458 -0.0305 -0.2001  0.2905
  203POPC   PO4 2859   7.477   4.054   5.017 -0.0843 -0.3202  0.4259
  203POPC   GL1 2860   7.416   3.807   5.366 -0.1154  0.3103  0.1943
  203POPC   GL2 2861   7.140   3.752   5.475 -0.0480 -0.0765 -0.0631
  203POPC   C1A 2862   7.487   3.488   5.669  0.1933 -0.2098  0.3059
  203POPC   D2A 2863   7.309   3.349   6.071  0.1915  0.3579 -0.0104
  203POPC   C3A 2864   7.550   3.366   6.460 -0.2573 -0.2124  0.0170
  203POPC   C4A 2865   7.686   3.270   6.892  0.0023  0.1582  0.3236
  203POPC   C1B 2866   6.946   3.754   5.804  0.0522  0.1321  0.3146
  203POPC   C2B 2867   6.988   3.683   6.294 -0.3246  0.0308 -0.0031
  203POPC   C3B 2868   7.079   3.338   6.508  0.2640 -0.1299  0.0434
  203POPC   C4B 2869   6.778   3.039   6.636  0.2838 -0.2379  0.1958
  204POPC   NC3 2870   5.514   1.189   4.939  0.1199 -0.2960 -0.0822
  204POPC   PO4 2871   5.625   1.466   4.690  0.0143 -0.3273  0.0670
  204POPC   GL1 2872   5.612   1.660   5.124 -0.2357 -0.2323  0.2086
  204POPC   GL2 2873   5.659   1.975   5.213 -0.0344  0.0095  0.2107
  204POPC   C1A 2874   5.789   1.715   5.606  0.2169 -0.0953  0.1438
  204POPC   D2A 2875   5.660   1.768   5.994 -0.1848 -0.1603 -0.0734
  204POPC   C3A 2876   5.350   1.511   6.315 -0.0293  0.0832 -0.1097
  204POPC   C4A 2877   5.096   1.460   6.499 -0.2663 -0.0226 -0.1338
  204POPC   C1B 2878   5.532   2.168   5.496  0.2940 -0.2216 -0.1210
  204POPC   C2B 2879   5.223   2.168   5.827 -0.0455 -0.2730 -0.1124
  204POPC   C3B 2880   5.101   1.810   6.035 -0.0801 -0.0268 -0.1335
  204POPC   C4B 2881   4.894   1.355   6.077 -0.3857  0.1788  0.0942
  205POPC   NC3 2882   0.672   1.810   4.103  0.0673  0.2661  0.2054
  205POPC   PO4 2883   0.459   2.123   3.950 -0.1720  0.1286  0.0787
  205POPC   GL1 2884   0.601   2.340   4.310 -0.2891  0.0754  0.4174
  205POPC   GL2 2885   0.519   2.655   4.115 -0.1667 -0.0470 -0.1443
  205POPC   C1A 2886   0.672   2.463   4.733 -0.1944 -0.0136  0.0073
  205POPC   D2A 2887   0.303   2.659   4.982  0.1831 -0.0676 -0.2202
  205POPC   C3A 2888   0.260   3.064   5.348 -0.2438  0.2190  0.2027
  205POPC   C4A 2889   0.232   3.332   5.752  0.2791 -0.1957 -0.1804
  205POPC   C1B 2890   0.914   2.729   4.325 -0.1062  0.3628 -0.2701
  205POPC   C2B 2891   1.116   3.110   4.112  0.3046 -0.2357 -0.2762
  205POPC   C3B 2892   1.580   3.294   3.968 -0.1092  0.0272 -0.3519
  205POPC   C4B 2893   1.978   3.573   3.982 -0.0095 -0.0659 -0.1795
  206POPC   NC3 2894   3.364   9.058   3.874  0.0911 -0.0128  0.0242
  206POPC   PO4 2895   3.580   9.183   4.167  0.1486 -0.1453 -0.2750
  206POPC   GL1 2896   3.664   9.162   4.668  0.0169 -0.3173  0.1402
  206POPC   GL2 2897   3.337   9.231   4.723  0.3141 -0.0909 -0.2497
  206POPC   C1A 2898   3.820   9.173   5.114  0.3415 -0.1079  0.0459
  206POPC   D2A 2899   3.721   9.081   5.650  0.2469 -0.1013 -0.0318
  206POPC   C3A 2900   3.505   8.918   6.080 -0.2069  0.2415 -0.2284
  206POPC   C4A 2901   3.719   8.823   6.461  0.2418  0.0487 -0.1305
  206POPC   C1B 2902   3.244   9.064   5.162  0.2399  0.0349  0.0003
  206POPC   C2B 2903   2.983   8.930   5.509  0.1853  0.1824  0.0254
  206POPC   C3B 2904   2.975   8.878   5.967 -0.2913 -0.0745  0.0535
  206POPC   C4B 2905   2.761   9.058   6.333  0.1033  0.1511  0.1521
  207POPC   NC3 2906   9.511   6.722   4.533 -0.1917  0.4635 -0.1048
  207POPC   PO4 2907   9.555   7.093   4.611 -0.0954 -0.0085 -0.0264
  207POPC   GL1 2908   9.683   7.163   5.041  0.2093 -0.2022 -0.1884
  207POPC   GL2 2909   9.552   7.505   5.232 -0.0481 -0.0915  0.1097
  207POPC   C1A 2910  10.062   7.080   5.290  0.0331  0.0189 -0.0581
  207POPC   D2A 2911  10.378   7.187   5.597  0.0644  0.3485  0.0246
  207POPC   C3A 2912  10.593   7.031   5.946 -0.0689 -0.1530  0.0339
  207POPC   C4A 2913  10.833   7.177   6.306  0.2539 -0.0017 -0.0519
  207POPC   C1B 2914   9.272   7.354   5.585  0.1719  0.0578 -0.0678
  207POPC   C2B 2915   8.986   7.273   5.979  0.1429 -0.0671 -0.4226
  207POPC   C3B 2916   8.696   7.283   6.268  0.0721  0.1924  0.1515
  207POPC   C4B 2917   8.517   7.070   6.641 -0.2233  0.0596 -0.0319
  208POPC   NC3 2918   1.672   2.173   3.149  0.1300  0.2520  0.2550
  208POPC   PO4 2919   1.328   2.085   3.491  0.1767  0.5042 -0.6697
  208POPC   GL1 2920   1.599   2.353   3.664 -0.3499  0.3367 -0.0430
  208POPC   GL2 2921   1.820   2.065   3.613 -0.0888  0.0466 -0.1675
  208POPC   C1A 2922   1.585   2.462   4.113 -0.0459  0.1051  0.0175
  208POPC   D2A 2923   1.944   2.327   4.512 -0.2012 -0.1868  0.4079
  208POPC   C3A 2924   2.057   2.457   4.969 -0.2347 -0.2907  0.0945
  208POPC   C4A 2925   2.272   2.470   5.377 -0.0049  0.1950 -0.0698
  208POPC   C1B 2926   1.760   1.997   4.174 -0.0992  0.0993  0.0895
  208POPC   C2B 2927   1.499   2.074   4.638  0.1132  0.3524  0.1360
  208POPC   C3B 2928   1.521   2.122   5.123  0.0001  0.0785 -0.1419
  208POPC   C4B 2929   1.468   2.159   5.507 -0.1384 -0.0985 -0.2099
  209POPC   NC3 2930   6.388   8.524   4.638 -0.3446 -0.0876 -0.1336
  209POPC   PO4 2931   6.785   8.791   4.676 -0.0388 -0.3028  0.2246
  209POPC   GL1 2932   7.017   8.592   5.074  0.2970 -0.1684 -0.3745
  209POPC   GL2 2933   7.228   8.801   5.179 -0.1936  0.1891 -0.0474
  209POPC   C1A 2934   7.359   8.359   5.434  0.1247  0.2571  0.0782
  209POPC   D2A 2935   7.329   8.272   5.831  0.3556  0.1639 -0.1688
  209POPC   C3A 2936   7.634   8.240   6.205 -0.2310  0.0159 -0.3093
  209POPC   C4A 2937   7.732   7.832   6.366  0.1392  0.0550 -0.2126
  209POPC   C1B 2938   7.364   8.744   5.705  0.1353  0.2830 -0.2703
  209POPC   C2B 2939   7.637   8.681   5.899  0.0343 -0.3580 -0.1077
  209POPC   C3B 2940   7.912   8.700   6.276  0.0998 -0.1703  0.0943
  209POPC   C4B 2941   7.938   8.711   6.685  0.1820 -0.0496  0.1785
  210POPC   NC3 2942   2.039   5.910   3.075 -0.0041 -0.0406 -0.3362
  210POPC   PO4 2943   1.695   5.886   3.371 -0.1024  0.2845  0.1668
  210POPC   GL1 2944   1.558   5.888   3.730  0.1299  0.3085 -0.2420
  210POPC   GL2 2945   1.397   5.612   3.714  0.1752 -0.2393 -0.2529
  210POPC   C1A 2946   1.594   5.642   4.147  0.0376 -0.0929  0.0736
  210POPC   D2A 2947   1.882   5.697   4.532 -0.0138  0.0951  0.0045
  210POPC   C3A 2948   1.789   5.540   4.908  0.2716  0.1203  0.1290
  210POPC   C4A 2949   1.810   5.319   5.276 -0.0479 -0.1176  0.5738
  210POPC   C1B 2950   1.659   5.269   3.821  0.1181  0.1098 -0.0462
  210POPC   C2B 2951   2.002   5.127   4.030  0.1022  0.0121 -0.1503
  210POPC   C3B 2952   2.181   4.705   4.207  0.0227  0.2923  0.0468
  210POPC   C4B 2953   2.038   4.406   4.578  0.0390  0.0407 -0.0914
  211POPC   NC3 2954   3.017   9.505   3.647 -0.0951  0.0666 -0.0023
  211POPC   PO4 2955   3.001   9.456   4.124 -0.0068  0.0137 -0.1053
  211POPC   GL1 2956   2.942   9.543   4.556 -0.1390  0.0912 -0.2599
  211POPC   GL2 2957   3.166   9.802   4.810  0.0016 -0.0942 -0.0805
  211POPC   C1A 2958   2.903   9.453   5.002 -0.1805 -0.1389 -0.4369
  211POPC   D2A 2959   2.776   9.371   5.285 -0.0155 -0.0330 -0.0395
  211POPC   C3A 2960   2.303   9.373   5.394 -0.0334 -0.1856  0.0286
  211POPC   C4A 2961   2.021   9.629   5.569 -0.1638  0.0267  0.0512
  211POPC   C1B 2962   3.261   9.609   5.254 -0.0288  0.0445 -0.2269
  211POPC   C2B 2963   3.145   9.448   5.688  0.2757  0.0837  0.2049
  211POPC   C3B 2964   3.231   9.325   6.107 -0.1058 -0.0316 -0.1074
  211POPC   C4B 2965   3.328   9.329   6.580  0.0575 -0.0013  0.2550
  212POPC   NC3 2966   9.376   2.415   4.260  0.0046 -0.1114  0.1077
  212POPC   PO4 2967   9.200   1.922   4.272  0.0211 -0.4359 -0.0220
  212POPC   GL1 2968   9.596   1.983   4.562  0.1499  0.1627 -0.0454
  212POPC   GL2 2969   9.604   2.340   4.704 -0.2029  0.1590  0.1379
  212POPC   C1A 2970   9.733   1.858   4.965  0.0557  0.2246  0.0281
  212POPC   D2A 2971   9.748   1.897   5.454 -0.0845  0.1903 -0.3274
  212POPC   C3A 2972   9.356   1.920   5.646  0.1389 -0.0526 -0.1695
  212POPC   C4A 2973   9.025   1.774   5.872 -0.0958 -0.0532  0.0219
  212POPC   C1B 2974   9.513   2.307   5.217 -0.1311 -0.2568 -0.1117
  212POPC   C2B 2975   9.317   2.382   5.606  0.3253 -0.1160 -0.0320
  212POPC   C3B 2976   9.500   2.215   6.111  0.2013  0.0983  0.2060
  212POPC   C4B 2977   9.656   2.404   6.516  0.0012  0.1115 -0.0757
  213POPC   NC3 2978   4.729   9.773   4.730  0.3337  0.2125 -0.0504
  213POPC   PO4 2979   5.200   9.734   4.656  0.0066  0.2331 -0.1973
  213POPC   GL1 2980   5.077   9.523   4.984  0.0637 -0.2898 -0.2728
  213POPC   GL2 2981   4.658   9.409   5.028 -0.4430 -0.0904 -0.2583
  213POPC   C1A 2982   5.208   9.315   5.384 -0.3231 -0.1026  0.2313
  213POPC   D2A 2983   5.216   9.144   5.864  0.1119  0.0283 -0.1704
  213POPC   C3A 2984   5.018   9.316   6.159  0.0987  0.0984 -0.1462
  213POPC   C4A 2985   4.694   9.206   6.534 -0.0170  0.0341  0.1992
  213POPC   C1B 2986   4.709   9.531   5.465 -0.0801  0.0988 -0.1172
  213POPC   C2B 2987   4.749   9.692   5.864 -0.1825  0.0478 -0.0127
  213POPC   C3B 2988   4.807  10.083   6.161 -0.0936  0.0011 -0.2572
  213POPC   C4B 2989   4.679  10.327   6.536 -0.0392  0.0927 -0.0871
  214POPC   NC3 2990   3.507   4.686   3.318 -0.0382 -0.0066  0.1790
  214POPC   PO4 2991   3.054   4.596   3.213 -0.1075  0.1141  0.0970
  214POPC   GL1 2992   3.127   4.319   3.457  0.0385  0.0711 -0.0995
  214POPC   GL2 2993   2.833   4.419   3.682 -0.0647  0.0576  0.2528
  214POPC   C1A 2994   3.118   4.029   3.724  0.0025 -0.1752  0.2512
  214POPC   D2A 2995   3.057   3.733   4.126  0.2533 -0.0866 -0.0801
  214POPC   C3A 2996   2.783   3.963   4.514 -0.3459 -0.1373 -0.3297
  214POPC   C4A 2997   2.379   4.086   4.702 -0.1580 -0.5137  0.0682
  214POPC   C1B 2998   2.613   3.986   3.839 -0.2765  0.0628 -0.2219
  214POPC   C2B 2999   2.531   3.753   4.178  0.1425  0.0240 -0.1218
  214POPC   C3B 3000   2.408   3.568   4.603  0.1998 -0.1810 -0.5117
  214POPC   C4B 3001   2.427   3.163   4.670 -0.1762  0.1173 -0.2152
  215POPC   NC3 3002   4.802   1.254   4.498  0.0507  0.0772  0.0457
  215POPC   PO4 3003   4.502   0.857   4.633 -0.2547 -0.2677 -0.0672
  215POPC   GL1 3004   4.390   0.883   4.986  0.0677  0.0175 -0.0010
  215POPC   GL2 3005   4.711   1.113   5.112  0.0410  0.3839 -0.2649
  215POPC   C1A 3006   4.365   1.031   5.444  0.0442 -0.1038  0.0038
  215POPC   D2A 3007   4.542   1.228   5.760 -0.1125 -0.1664 -0.0513
  215POPC   C3A 3008   4.403   1.214   6.219  0.0539  0.0296 -0.1785
  215POPC   C4A 3009   4.325   0.866   6.426 -0.0174 -0.1742  0.0249
  215POPC   C1B 3010   4.543   1.455   5.293 -0.0173  0.0152 -0.2212
  215POPC   C2B 3011   4.599   1.868   5.491 -0.0065 -0.0617  0.1120
  215POPC   C3B 3012   4.648   2.238   5.697 -0.2480  0.0350 -0.0848
  215POPC   C4B 3013   4.798   2.362   6.085 -0.0195 -0.0433 -0.0883
  216POPC   NC3 3014   4.188   0.543   4.421 -0.1273 -0.0121 -0.1727
  216POPC   PO4 3015   3.867   0.239   4.476  0.0680  0.2756  0.0261
  216POPC   GL1 3016   3.679   0.039   4.773 -0.0858  0.0689  0.2120
  216POPC   GL2 3017   3.645  -0.273   4.857  0.4401  0.0092  0.1974
  216POPC   C1A 3018   3.468   0.173   5.093 -0.2852  0.0402  0.0704
  216POPC   D2A 3019   3.418   0.109   5.623 -0.2419 -0.0343  0.2929
  216POPC   C3A 3020   3.011   0.036   5.740  0.1033  0.0096  0.0791
  216POPC   C4A 3021   2.677  -0.128   5.632  0.2236 -0.1177  0.3504
  216POPC   C1B 3022   3.734  -0.202   5.277 -0.0865 -0.0192 -0.1841
  216POPC   C2B 3023   3.744  -0.270   5.752 -0.3171 -0.1571 -0.1098
  216POPC   C3B 3024   3.784   0.028   6.061  0.0960 -0.0108  0.0810
  216POPC   C4B 3025   3.879  -0.174   6.332  0.1223  0.1996  0.2400
  217POPC   NC3 3026   9.916   7.841   4.244  0.5359  0.3788 -0.0673
  217POPC   PO4 3027   9.684   8.048   4.600  0.5739  0.0843 -0.3344
  217POPC   GL1 3028   9.808   8.171   5.087  0.1778  0.0088 -0.0508
  217POPC   GL2 3029   9.629   8.385   5.331  0.1280 -0.0367 -0.0464
  217POPC   C1A 3030   9.807   7.942   5.475  0.3906  0.1833 -0.2658
  217POPC   D2A 3031   9.500   7.738   5.797 -0.2020  0.1894  0.0803
  217POPC   C3A 3032   9.672   7.516   6.219  0.1937  0.0435 -0.0938
  217POPC   C4A 3033   9.962   7.428   6.530  0.0237  0.0439 -0.4510
  217POPC   C1B 3034   9.641   8.377   5.816  0.0362 -0.1371 -0.5103
  217POPC   C2B 3035   9.743   8.067   6.033 -0.0131 -0.2626 -0.0826
  217POPC   C3B 3036  10.076   7.872   6.298 -0.2322  0.1070  0.0745
  217POPC   C4B 3037  10.297   7.889   6.657 -0.0412 -0.2601  0.1244
  218POPC   NC3 3038   5.732   5.616   4.530 -0.0223 -0.0538 -0.0426
  218POPC   PO4 3039   5.503   5.762   4.784  0.2654 -0.2353  0.0333
  218POPC   GL1 3040   5.442   5.860   5.170 -0.1462  0.0258  0.1905
  218POPC   GL2 3041   5.318   6.197   5.267 -0.0915  0.2697  0.2705
  218POPC   C1A 3042   5.291   5.849   5.605 -0.2388  0.3643  0.0358
  218POPC   D2A 3043   5.135   5.699   6.050  0.2019 -0.1421 -0.1607
  218POPC   C3A 3044   5.507   5.526   6.365  0.4363 -0.0095 -0.0297
  218POPC   C4A 3045   5.733   5.108   6.411 -0.0050  0.0846  0.3770
  218POPC   C1B 3046   5.051   6.429   5.511  0.4429  0.1598 -0.0633
  218POPC   C2B 3047   4.829   6.530   5.926 -0.0378  0.1832 -0.1517
  218POPC   C3B 3048   4.606   6.867   6.065  0.1070 -0.1196  0.0931
  218POPC   C4B 3049   4.610   7.023   6.507  0.1135  0.0971  0.1088
  219POPC   NC3 3050   4.389   7.741   4.581  0.4026  0.0912  0.0769
  219POPC   PO4 3051   4.810   7.918   4.666 -0.0245  0.1407  0.1045
  219POPC   GL1 3052   4.597   7.880   5.059 -0.1011  0.2261  0.1063
  219POPC   GL2 3053   4.362   7.734   5.114  0.0403  0.1323  0.0167
  219POPC   C1A 3054   4.599   7.520   5.479  0.2081  0.0584 -0.0593
  219POPC   D2A 3055   4.397   7.172   5.765 -0.2802 -0.2443  0.0979
  219POPC   C3A 3056   4.341   7.311   6.151 -0.0890  0.4461 -0.2005
  219POPC   C4A 3057   4.146   7.263   6.510 -0.4034  0.0691  0.0601
  219POPC   C1B 3058   4.196   7.774   5.490  0.0449  0.0347  0.2365
  219POPC   C2B 3059   4.088   7.637   5.914  0.0347  0.0788 -0.0935
  219POPC   C3B 3060   4.306   8.000   6.331  0.0594 -0.2157 -0.0686
  219POPC   C4B 3061   4.519   8.235   6.678  0.0294 -0.0924 -0.1058
  220POPC   NC3 3062   9.526   5.715   4.306  0.0096  0.0141  0.1173
  220POPC   PO4 3063   9.746   5.778   4.741 -0.0866 -0.2515 -0.2744
  220POPC   GL1 3064   9.888   5.752   5.168  0.1535  0.0556 -0.2306
  220POPC   GL2 3065  10.117   5.987   5.256 -0.0130 -0.1829  0.0485
  220POPC   C1A 3066  10.053   5.487   5.463 -0.0798 -0.1900 -0.3238
  220POPC   D2A 3067   9.723   5.202   5.485  0.1188  0.3651 -0.0928
  220POPC   C3A 3068   9.645   5.149   5.921  0.0017  0.2208  0.2150
  220POPC   C4A 3069   9.508   5.431   6.284 -0.2480  0.1778  0.0071
  220POPC   C1B 3070  10.376   6.184   5.588  0.1628  0.0614 -0.2586
  220POPC   C2B 3071  10.641   5.988   5.911  0.0241  0.0100 -0.0886
  220POPC   C3B 3072  10.799   6.109   6.364 -0.1398  0.2554 -0.0269
  220POPC   C4B 3073  10.744   5.937   6.686  0.0232 -0.3007 -0.0764
  221POPC   NC3 3074   6.206   5.205   5.118 -0.2069 -0.1545 -0.1451
  221POPC   PO4 3075   6.012   5.590   5.015  0.0488  0.0824 -0.1390
  221POPC   GL1 3076   6.205   5.654   5.401  0.0840  0.1046  0.0077
  221POPC   GL2 3077   5.925   5.400   5.441  0.2005 -0.0835 -0.2055
  221POPC   C1A 3078   6.220   5.879   5.827  0.1343  0.1315 -0.1302
  221POPC   D2A 3079   6.045   6.310   5.966  0.1855 -0.0380  0.3045
  221POPC   C3A 3080   5.857   6.431   6.347  0.1656  0.0093  0.1455
  221POPC   C4A 3081   6.032   6.297   6.789 -0.0816 -0.1634  0.4058
  221POPC   C1B 3082   5.523   5.377   5.539  0.0520 -0.0896 -0.0509
  221POPC   C2B 3083   5.398   5.213   5.989 -0.2503 -0.2093 -0.0477
  221POPC   C3B 3084   4.994   5.215   6.209 -0.3254  0.0047 -0.4132
  221POPC   C4B 3085   4.612   4.989   6.114  0.2640 -0.3414  0.0580
  222POPC   NC3 3086   2.435   8.303   4.662  0.1041  0.0267 -0.4401
  222POPC   PO4 3087   2.016   8.457   4.788  0.0815 -0.0444  0.1314
  222POPC   GL1 3088   2.278   8.458   5.117  0.4376  0.2085  0.2591
  222POPC   GL2 3089   2.601   8.179   5.112  0.3334 -0.0317 -0.2777
  222POPC   C1A 3090   2.476   8.408   5.508 -0.0191 -0.3319 -0.2700
  222POPC   D2A 3091   2.517   8.657   5.906  0.0684 -0.1909  0.2318
  222POPC   C3A 3092   2.841   8.559   6.290 -0.0647 -0.2535 -0.1087
  222POPC   C4A 3093   3.083   8.434   6.700 -0.0462  0.0117 -0.0563
  222POPC   C1B 3094   2.658   7.935   5.545 -0.1378 -0.0582  0.1983
  222POPC   C2B 3095   2.424   7.631   5.862  0.2622  0.4112 -0.0508
  222POPC   C3B 3096   2.408   7.343   6.193 -0.0670 -0.1413 -0.0736
  222POPC   C4B 3097   2.482   7.391   6.673  0.1886  0.1273  0.2064
  223POPC   NC3 3098   4.530   2.816   3.819  0.1231  0.0793 -0.0318
  223POPC   PO4 3099   4.109   2.936   3.942 -0.3014  0.0709 -0.2849
  223POPC   GL1 3100   3.989   2.778   4.312 -0.1561 -0.0172 -0.1588
  223POPC   GL2 3101   4.339   2.580   4.250 -0.0838  0.5034  0.1734
  223POPC   C1A 3102   3.935   2.503   4.731 -0.2112 -0.2137 -0.0493
  223POPC   D2A 3103   4.025   2.600   5.215 -0.3054 -0.2191 -0.2677
  223POPC   C3A 3104   4.331   2.961   5.264  0.0369  0.0765  0.0285
  223POPC   C4A 3105   4.388   3.272   5.484  0.0894  0.2309 -0.0630
  223POPC   C1B 3106   4.490   2.342   4.697  0.1522 -0.1108 -0.0341
  223POPC   C2B 3107   4.418   2.246   5.185  0.1151 -0.1814 -0.2891
  223POPC   C3B 3108   4.171   2.164   5.510 -0.0281 -0.1246 -0.0729
  223POPC   C4B 3109   3.780   2.293   5.696 -0.1148  0.0807  0.2094
  224POPC   NC3 3110   7.190   3.569   4.753  0.2845 -0.0310  0.1501
  224POPC   PO4 3111   6.822   3.408   4.606 -0.1060 -0.0478 -0.0332
  224POPC   GL1 3112   6.857   3.446   5.117 -0.0730  0.0539  0.0824
  224POPC   GL2 3113   6.894   3.809   5.031 -0.0007 -0.1765  0.0928
  224POPC   C1A 3114   6.925   3.297   5.471 -0.1611 -0.1858  0.2562
  224POPC   D2A 3115   6.810   3.315   5.961  0.2828 -0.1787  0.0233
  224POPC   C3A 3116   6.992   2.923   6.158  0.3373  0.1047 -0.1401
  224POPC   C4A 3117   7.252   2.888   6.521 -0.0486  0.4454  0.0987
  224POPC   C1B 3118   6.752   4.060   5.277  0.2664 -0.2378 -0.0794
  224POPC   C2B 3119   6.782   4.228   5.662  0.1973 -0.3656  0.1783
  224POPC   C3B 3120   6.832   4.134   6.077 -0.3383 -0.0544 -0.0107
  224POPC   C4B 3121   7.237   4.093   6.319 -0.3200  0.0909 -0.0410
  225POPC   NC3 3122   9.583   8.509   4.825 -0.1268  0.0339  0.1644
  225POPC   PO4 3123  10.000   8.764   4.930  0.3890 -0.0012  0.1579
  225POPC   GL1 3124  10.112   8.593   5.258 -0.4361  0.2665  0.0030
  225POPC   GL2 3125  10.085   8.897   5.501  0.0798 -0.1627 -0.0854
  225POPC   C1A 3126  10.065   8.381   5.614  0.2089  0.2116  0.1253
  225POPC   D2A 3127  10.244   8.025   5.865  0.1131 -0.1498  0.1198
  225POPC   C3A 3128  10.059   7.677   5.858 -0.1007 -0.0123  0.1246
  225POPC   C4A 3129  10.038   7.172   6.004 -0.2374 -0.2077 -0.0305
  225POPC   C1B 3130   9.624   8.909   5.515 -0.0961  0.1234  0.1239
  225POPC   C2B 3131   9.341   8.674   5.636 -0.0174 -0.0491  0.1299
  225POPC   C3B 3132   9.029   8.739   6.002 -0.1712  0.2285 -0.0929
  225POPC   C4B 3133   9.096   8.785   6.417  0.3113  0.2325 -0.0759
  226POPC   NC3 3134   9.245   3.436   3.853  0.0858  0.0979  0.0353
  226POPC   PO4 3135   9.535   3.838   3.868 -0.3538  0.0904 -0.1141
  226POPC   GL1 3136   9.814   3.911   4.218 -0.0763  0.1520  0.1919
  226POPC   GL2 3137   9.946   3.655   4.244 -0.2116 -0.0064  0.0144
  226POPC   C1A 3138  10.025   3.926   4.717 -0.1559 -0.0178 -0.2330
  226POPC   D2A 3139  10.260   3.868   5.028 -0.0826 -0.3596  0.0194
  226POPC   C3A 3140  10.221   3.634   5.315 -0.0650 -0.1357 -0.0405
  226POPC   C4A 3141  10.605   3.639   5.572 -0.0838 -0.1657 -0.2587
  226POPC   C1B 3142  10.258   3.577   4.501  0.2204 -0.0611 -0.1091
  226POPC   C2B 3143  10.553   3.581   4.753 -0.1407 -0.2431 -0.2616
  226POPC   C3B 3144  10.807   3.624   5.029 -0.1386 -0.1710 -0.4925
  226POPC   C4B 3145  11.057   3.478   5.347 -0.1508 -0.0344  0.0917
  227POPC   NC3 3146   5.381   0.580   4.982 -0.0411  0.1772  0.1443
  227POPC   PO4 3147   5.782   0.771   5.123 -0.4739  0.0863  0.1070
  227POPC   GL1 3148   5.854   0.830   5.550 -0.2591  0.0199  0.0049
  227POPC   GL2 3149   6.216   0.991   5.666  0.0303  0.1422  0.2851
  227POPC   C1A 3150   5.884   0.607   5.923  0.0557  0.1400  0.0133
  227POPC   D2A 3151   5.703   0.318   6.176 -0.2367 -0.1335 -0.1346
  227POPC   C3A 3152   5.728  -0.069   6.087 -0.2105 -0.1365 -0.2386
  227POPC   C4A 3153   5.724  -0.486   5.870 -0.0493 -0.2192 -0.2065
  227POPC   C1B 3154   6.211   1.047   6.051  0.0678 -0.1274  0.1814
  227POPC   C2B 3155   5.941   1.174   6.419  0.3494 -0.2775 -0.2629
  227POPC   C3B 3156   5.809   0.975   6.823 -0.0015  0.1882  0.3206
  227POPC   C4B 3157   5.782   0.567   7.140  0.0304 -0.0323  0.1604
  228POPC   NC3 3158   4.826   3.827   3.748  0.2281 -0.1701 -0.1059
  228POPC   PO4 3159   5.031   4.156   3.851  0.0249  0.0932  0.1963
  228POPC   GL1 3160   4.749   4.154   4.150 -0.4277 -0.0440  0.5883
  228POPC   GL2 3161   4.460   3.884   4.121 -0.1411 -0.0501  0.2873
  228POPC   C1A 3162   4.827   4.093   4.477  0.0574  0.0458 -0.0235
  228POPC   D2A 3163   4.773   4.055   4.917  0.0828 -0.0979  0.0336
  228POPC   C3A 3164   4.465   4.220   5.148  0.0392  0.0179 -0.1553
  228POPC   C4A 3165   4.227   4.325   5.549 -0.1405 -0.0430 -0.1163
  228POPC   C1B 3166   4.119   3.765   4.392 -0.4786 -0.0768 -0.0695
  228POPC   C2B 3167   3.596   3.663   4.479 -0.1395  0.1714  0.2233
  228POPC   C3B 3168   3.360   3.431   4.802  0.1004 -0.1387  0.3850
  228POPC   C4B 3169   3.374   3.151   5.005  0.0317 -0.1838  0.1190
  229POPC   NC3 3170   9.232   5.716   4.696 -0.1456 -0.1561 -0.1600
  229POPC   PO4 3171   9.294   6.137   4.792 -0.2772 -0.3530  0.1449
  229POPC   GL1 3172   9.303   6.033   5.205 -0.0089 -0.0860 -0.0609
  229POPC   GL2 3173   9.406   6.343   5.404  0.0185 -0.2444  0.2061
  229POPC   C1A 3174   9.426   5.867   5.556  0.1695  0.2428  0.0823
  229POPC   D2A 3175   9.581   5.713   5.897 -0.0113  0.0603  0.3376
  229POPC   C3A 3176   9.739   5.992   6.176 -0.1280  0.1202  0.2027
  229POPC   C4A 3177   9.961   6.296   6.065  0.2134 -0.0845  0.1454
  229POPC   C1B 3178   9.025   6.300   5.681  0.0787  0.1806 -0.0670
  229POPC   C2B 3179   8.693   6.417   5.903 -0.1725  0.1835 -0.1613
  229POPC   C3B 3180   8.325   6.471   6.194  0.1012  0.2043  0.1873
  229POPC   C4B 3181   8.096   6.194   6.622 -0.0005 -0.1871 -0.3699
  230POPC   NC3 3182   5.011   9.286   4.586  0.1341  0.1725  0.0152
  230POPC   PO4 3183   5.111   8.927   4.796  0.1235 -0.1604 -0.1863
  230POPC   GL1 3184   4.781   8.857   5.058 -0.0078 -0.0848 -0.0497
  230POPC   GL2 3185   4.521   8.714   4.937 -0.0675  0.0047 -0.3637
  230POPC   C1A 3186   4.841   8.961   5.459  0.0531 -0.2444 -0.1075
  230POPC   D2A 3187   4.715   9.055   5.856 -0.1927 -0.2214 -0.2656
  230POPC   C3A 3188   4.333   9.362   6.195 -0.0915  0.0439 -0.2296
  230POPC   C4A 3189   4.216   9.427   6.635  0.3242 -0.2857 -0.3128
  230POPC   C1B 3190   4.383   9.041   5.295 -0.3054 -0.4576 -0.1555
  230POPC   C2B 3191   4.212   9.309   5.618  0.0554 -0.3351  0.0470
  230POPC   C3B 3192   4.285   9.772   5.940  0.0205 -0.0081  0.2143
  230POPC   C4B 3193   4.349   9.868   6.355  0.2486  0.1072 -0.2279
  231POPC   NC3 3194   6.787   2.951   4.945  0.3129  0.0854  0.3111
  231POPC   PO4 3195   7.133   2.977   4.792 -0.0548 -0.2693  0.0940
  231POPC   GL1 3196   7.178   2.768   5.194  0.2281  0.0813  0.1047
  231POPC   GL2 3197   7.501   2.817   5.262 -0.2529 -0.1066 -0.2047
  231POPC   C1A 3198   6.950   2.782   5.615  0.3658  0.3500 -0.1083
  231POPC   D2A 3199   6.707   2.507   5.993 -0.1513 -0.0975  0.0539
  231POPC   C3A 3200   6.831   2.219   6.085 -0.1663  0.1615  0.2358
  231POPC   C4A 3201   7.064   1.946   5.827  0.1361 -0.1850  0.1145
  231POPC   C1B 3202   7.441   2.925   5.638 -0.2669 -0.0440  0.4527
  231POPC   C2B 3203   7.551   2.917   6.041 -0.2101  0.2551  0.2088
  231POPC   C3B 3204   7.749   2.867   6.367  0.3635  0.0774 -0.2894
  231POPC   C4B 3205   7.929   2.648   6.674 -0.1785 -0.1387 -0.3972
  232POPC   NC3 3206   2.510   2.522   2.943 -0.2181  0.0453  0.3391
  232POPC   PO4 3207   2.097   2.367   3.053 -0.3137 -0.0398 -0.0414
  232POPC   GL1 3208   2.208   2.510   3.416  0.1803  0.1041 -0.1506
  232POPC   GL2 3209   2.509   2.644   3.439  0.2376  0.0342  0.1032
  232POPC   C1A 3210   2.067   2.401   3.859  0.1413  0.2150  0.3471
  232POPC   D2A 3211   2.239   2.252   4.076 -0.1662  0.0289 -0.1529
  232POPC   C3A 3212   2.452   2.383   4.460 -0.2093 -0.3713 -0.0833
  232POPC   C4A 3213   2.872   2.319   4.577 -0.0154 -0.2793  0.0786
  232POPC   C1B 3214   2.599   2.418   3.818 -0.0417 -0.0408 -0.3595
  232POPC   C2B 3215   2.756   2.147   4.106  0.1505  0.1186  0.1839
  232POPC   C3B 3216   2.699   1.845   4.456 -0.1244 -0.1764 -0.1645
  232POPC   C4B 3217   3.124   1.909   4.482  0.1113  0.0407 -0.0186
  233POPC   NC3 3218   1.397   1.472   4.141  0.2868  0.2517 -0.1312
  233POPC   PO4 3219   1.018   1.483   4.333 -0.1832  0.4186 -0.0677
  233POPC   GL1 3220   0.838   1.839   4.652 -0.0554 -0.0512 -0.0777
  233POPC   GL2 3221   0.946   2.039   4.485 -0.0310  0.0440  0.2386
  233POPC   C1A 3222   1.055   1.882   4.975  0.2252  0.0730 -0.0986
  233POPC   D2A 3223   1.103   1.791   5.479 -0.1241  0.1617  0.2532
  233POPC   C3A 3224   0.828   1.893   5.741 -0.0639  0.1176 -0.0755
  233POPC   C4A 3225   0.512   1.768   6.082  0.2402  0.1701 -0.1906
  233POPC   C1B 3226   1.150   2.372   4.799 -0.0316  0.0645 -0.4230
  233POPC   C2B 3227   1.104   2.392   5.256  0.1715  0.2099  0.0584
  233POPC   C3B 3228   1.258   2.635   5.550  0.0066 -0.1700  0.0778
  233POPC   C4B 3229   1.366   2.959   5.559 -0.2807 -0.1830 -0.0991
  234POPC   NC3 3230   8.179   4.805   4.868 -0.1611 -0.1642 -0.1092
  234POPC   PO4 3231   8.389   4.342   4.976  0.1750 -0.1675  0.1516
  234POPC   GL1 3232   8.574   4.320   5.314  0.0801  0.0473  0.0693
  234POPC   GL2 3233   8.526   4.570   5.450 -0.2780  0.0456 -0.3305
  234POPC   C1A 3234   8.285   4.202   5.697  0.2383 -0.2520  0.1694
  234POPC   D2A 3235   8.055   4.138   5.928 -0.0133  0.1677  0.0226
  234POPC   C3A 3236   7.677   3.991   5.709 -0.1169 -0.0821 -0.0523
  234POPC   C4A 3237   7.313   4.030   5.885  0.1981 -0.2518  0.2243
  234POPC   C1B 3238   8.706   4.321   5.906 -0.0487 -0.1014  0.0630
  234POPC   C2B 3239   8.747   4.165   6.211 -0.2726  0.1589  0.0340
  234POPC   C3B 3240   9.193   4.133   6.408  0.2356  0.0004  0.3328
  234POPC   C4B 3241   9.541   4.044   6.153  0.2254 -0.0241 -0.4159
  235POPC   NC3 3242   9.668   1.026   4.269 -0.0247  0.0943  0.2127
  235POPC   PO4 3243  10.041   1.103   4.533 -0.2047  0.1339  0.0415
  235POPC   GL1 3244  10.219   1.166   4.884  0.1021  0.0517  0.2831
  235POPC   GL2 3245  10.575   1.242   4.854  0.1701 -0.0783 -0.0737
  235POPC   C1A 3246  10.513   0.949   5.290 -0.1796 -0.2342  0.2849
  235POPC   D2A 3247  10.754   0.939   5.655 -0.0099  0.0912  0.1026
  235POPC   C3A 3248  10.694   0.889   6.020  0.2287 -0.0885 -0.3044
  235POPC   C4A 3249  10.395   1.116   6.308 -0.1624 -0.0355 -0.3024
  235POPC   C1B 3250  10.650   1.493   5.198  0.2433 -0.1190  0.1687
  235POPC   C2B 3251  10.551   1.826   5.338 -0.2809  0.1531 -0.0797
  235POPC   C3B 3252  10.538   2.290   5.217 -0.0493  0.2666  0.0053
  235POPC   C4B 3253  10.422   2.574   5.472 -0.2662  0.0063  0.2483
  236POPC   NC3 3254   4.281   6.221   3.964 -0.0981 -0.0762 -0.1341
  236POPC   PO4 3255   4.413   5.982   4.244  0.0263 -0.0556  0.0191
  236POPC   GL1 3256   4.209   5.750   4.652 -0.4937 -0.2997  0.5154
  236POPC   GL2 3257   4.507   5.675   4.846  0.4221  0.0367  0.1251
  236POPC   C1A 3258   4.038   5.507   4.952  0.1271  0.1023  0.0422
  236POPC   D2A 3259   4.049   5.025   4.932  0.0546 -0.0423 -0.1936
  236POPC   C3A 3260   3.784   4.807   4.726  0.0851  0.2905  0.0247
  236POPC   C4A 3261   3.468   4.515   4.924  0.0580  0.2110 -0.2481
  236POPC   C1B 3262   4.461   5.888   5.086  0.1154  0.0751  0.2489
  236POPC   C2B 3263   4.407   5.897   5.429 -0.3180 -0.3335 -0.0670
  236POPC   C3B 3264   4.264   5.976   5.753  0.1414  0.1212  0.0152
  236POPC   C4B 3265   4.023   5.641   6.082  0.0333 -0.1715 -0.0547
  237POPC   NC3 3266   5.329   0.297   4.480 -0.0671 -0.0169  0.1588
  237POPC   PO4 3267   4.965   0.473   4.693  0.2674 -0.0781 -0.0130
  237POPC   GL1 3268   4.858   0.560   5.116  0.1841 -0.1446 -0.4204
  237POPC   GL2 3269   5.087   0.511   5.465  0.1386 -0.2502 -0.0389
  237POPC   C1A 3270   4.597   0.586   5.519 -0.1609 -0.0332 -0.1255
  237POPC   D2A 3271   4.397   0.338   5.759  0.4790  0.0714  0.0194
  237POPC   C3A 3272   4.328   0.385   6.150  0.1367  0.0677  0.2099
  237POPC   C4A 3273   4.189   0.422   6.577 -0.3203  0.1530  0.0414
  237POPC   C1B 3274   4.997   0.382   5.816  0.0398 -0.0999 -0.1710
  237POPC   C2B 3275   5.200   0.497   6.201 -0.0773  0.2302  0.0323
  237POPC   C3B 3276   5.111   0.621   6.624  0.1680 -0.2900 -0.2756
  237POPC   C4B 3277   5.261   0.404   7.066 -0.1334  0.1092 -0.3657
  238POPC   NC3 3278   5.326   2.080   3.965  0.2900 -0.0283  0.1145
  238POPC   PO4 3279   5.055   2.495   4.094 -0.2189 -0.0545  0.1875
  238POPC   GL1 3280   4.745   2.861   4.313  0.0178 -0.2895 -0.1041
  238POPC   GL2 3281   4.752   3.166   4.058 -0.0941  0.1008 -0.0699
  238POPC   C1A 3282   4.730   3.165   4.735 -0.1966  0.0556  0.0244
  238POPC   D2A 3283   4.584   3.299   4.973 -0.0875  0.1057 -0.0570
  238POPC   C3A 3284   4.235   3.338   4.970  0.0297 -0.2895  0.0014
  238POPC   C4A 3285   3.850   3.325   4.758  0.2338  0.2885 -0.0115
  238POPC   C1B 3286   4.656   3.500   4.314  0.2159 -0.4616  0.0596
  238POPC   C2B 3287   4.493   3.716   4.704  0.0780  0.1360  0.1432
  238POPC   C3B 3288   4.176   3.834   4.972  0.1812 -0.0550  0.0802
  238POPC   C4B 3289   3.858   3.852   4.836 -0.1482  0.0473  0.3924
  239POPC   NC3 3290   5.912   7.609   4.935 -0.0101  0.0253  0.2094
  239POPC   PO4 3291   5.460   7.806   4.829 -0.1005  0.4343 -0.2072
  239POPC   GL1 3292   5.468   7.895   5.226  0.0466 -0.0095 -0.1304
  239POPC   GL2 3293   5.595   7.624   5.356 -0.1118  0.1187 -0.1516
  239POPC   C1A 3294   5.531   8.004   5.671 -0.1036  0.2436  0.0221
  239POPC   D2A 3295   5.624   7.646   5.965 -0.2117  0.1304  0.1247
  239POPC   C3A 3296   5.709   7.738   6.421 -0.0738  0.2710 -0.0610
  239POPC   C4A 3297   5.895   7.551   6.859 -0.0292 -0.0052  0.0646
  239POPC   C1B 3298   5.675   7.240   5.693  0.0918  0.0050 -0.1281
  239POPC   C2B 3299   5.507   7.181   5.972  0.2202 -0.1363  0.0421
  239POPC   C3B 3300   5.292   6.967   6.242 -0.3342  0.2052 -0.3181
  239POPC   C4B 3301   5.040   6.769   6.330 -0.1977  0.1421  0.2785
  240POPC   NC3 3302   8.493   3.578   4.239  0.1363  0.0542  0.0212
  240POPC   PO4 3303   8.997   3.601   4.276  0.2993  0.1358  0.1208
  240POPC   GL1 3304   9.156   3.840   4.521 -0.0289  0.3235 -0.2011
  240POPC   GL2 3305   9.196   3.598   4.820 -0.1385 -0.0841  0.0557
  240POPC   C1A 3306   9.500   3.971   4.807  0.1848  0.0557  0.0217
  240POPC   D2A 3307   9.250   4.232   5.142  0.1511 -0.1587 -0.2209
  240POPC   C3A 3308   8.998   4.219   5.514 -0.2796  0.0312 -0.3066
  240POPC   C4A 3309   9.059   3.932   5.886 -0.0061  0.2954 -0.0234
  240POPC   C1B 3310   9.354   3.428   5.172 -0.2457  0.3403 -0.0836
  240POPC   C2B 3311   9.700   3.344   5.423 -0.0875 -0.1090 -0.1901
  240POPC   C3B 3312   9.810   2.982   5.715  0.0779  0.1618 -0.0381
  240POPC   C4B 3313  10.187   2.807   5.949 -0.0908 -0.1870  0.2599
  241POPC   NC3 3314   9.439   4.318   3.714 -0.1651 -0.0527  0.0240
  241POPC   PO4 3315   9.708   4.750   3.783 -0.1616 -0.1137 -0.0030
  241POPC   GL1 3316   9.847   4.621   4.161  0.1672 -0.0399 -0.0125
  241POPC   GL2 3317  10.084   4.279   4.010  0.0843 -0.0071 -0.0524
  241POPC   C1A 3318   9.934   4.395   4.501 -0.4748  0.2729 -0.1440
  241POPC   D2A 3319  10.056   4.399   4.925 -0.0402  0.2590  0.3605
  241POPC   C3A 3320  10.468   4.357   5.084  0.0395 -0.0331 -0.3440
  241POPC   C4A 3321  10.745   4.089   5.141 -0.0864  0.0069 -0.1027
  241POPC   C1B 3322  10.336   4.686   4.260  0.1987 -0.0263  0.1575
  241POPC   C2B 3323  10.413   4.717   4.656 -0.2312  0.1082 -0.0033
  241POPC   C3B 3324  10.374   5.003   4.976  0.1337 -0.3761  0.0032
  241POPC   C4B 3325  10.510   5.480   5.203  0.0271 -0.0693  0.2854
  242POPC   NC3 3326   7.867   8.431   4.622 -0.1792  0.0459 -0.3707
  242POPC   PO4 3327   8.184   8.782   4.638  0.0903 -0.3060 -0.1178
  242POPC   GL1 3328   8.219   8.716   5.081 -0.1693 -0.4672  0.0204
  242POPC   GL2 3329   8.461   8.884   5.186 -0.2702  0.2124  0.0594
  242POPC   C1A 3330   8.315   8.528   5.474  0.0963  0.1751 -0.2826
  242POPC   D2A 3331   8.439   8.460   5.863 -0.0388 -0.1651 -0.0877
  242POPC   C3A 3332   8.245   8.333   6.272 -0.1058  0.0439 -0.2931
  242POPC   C4A 3333   8.007   8.200   6.582  0.0293  0.0426 -0.0333
  242POPC   C1B 3334   8.204   9.079   5.538  0.0553 -0.1656  0.2156
  242POPC   C2B 3335   8.105   8.827   5.812  0.0052  0.0013 -0.2207
  242POPC   C3B 3336   7.951   8.374   5.870 -0.0527  0.2889 -0.0597
  242POPC   C4B 3337   8.016   7.958   5.991 -0.0959  0.2389 -0.0922
  243POPC   NC3 3338   5.452   4.190   4.209  0.2471  0.0045 -0.1508
  243POPC   PO4 3339   5.821   4.094   4.338 -0.2851 -0.2774 -0.1468
  243POPC   GL1 3340   5.485   3.879   4.624 -0.1990 -0.2167 -0.2714
  243POPC   GL2 3341   5.479   3.601   4.646  0.1575  0.1224 -0.0292
  243POPC   C1A 3342   5.218   4.015   4.802  0.1574  0.3459  0.0556
  243POPC   D2A 3343   5.167   4.188   5.223 -0.1571  0.1141 -0.0940
  243POPC   C3A 3344   5.304   4.197   5.616 -0.3030  0.0477  0.0313
  243POPC   C4A 3345   5.479   3.814   5.967 -0.2012  0.1121  0.0671
  243POPC   C1B 3346   5.509   3.562   5.135 -0.0276  0.2009  0.0293
  243POPC   C2B 3347   5.274   3.688   5.459  0.4498  0.2331 -0.0471
  243POPC   C3B 3348   4.986   3.719   5.682 -0.0479 -0.1202 -0.0041
  243POPC   C4B 3349   4.655   3.974   5.633  0.0160 -0.2929  0.0421
  244POPC   NC3 3350   8.846   1.691   4.559  0.2214 -0.0319  0.0252
  244POPC   PO4 3351   8.538   2.038   4.706  0.2303  0.0737  0.2881
  244POPC   GL1 3352   8.349   2.392   5.001 -0.0337 -0.1236 -0.1254
  244POPC   GL2 3353   8.005   2.515   5.049  0.1412 -0.0141  0.1324
  244POPC   C1A 3354   8.421   2.535   5.338 -0.0170  0.4405 -0.3049
  244POPC   D2A 3355   8.447   2.869   5.732  0.1059 -0.2423  0.4142
  244POPC   C3A 3356   8.808   2.835   6.043 -0.0788 -0.0642  0.0146
  244POPC   C4A 3357   9.017   3.113   6.281  0.3754 -0.1380  0.0646
  244POPC   C1B 3358   7.929   2.671   5.454 -0.3934 -0.1241 -0.0488
  244POPC   C2B 3359   8.059   2.658   5.876 -0.0446  0.1228 -0.1925
  244POPC   C3B 3360   8.194   2.715   6.220  0.0350 -0.1557  0.2524
  244POPC   C4B 3361   8.479   2.739   6.617 -0.0584  0.0233 -0.2352
  245POPC   NC3 3362   1.872   8.859   4.532 -0.0453 -0.0832  0.1249
  245POPC   PO4 3363   2.073   9.313   4.550 -0.4565 -0.2798 -0.3891
  245POPC   GL1 3364   1.987   9.421   4.955  0.1477 -0.0328 -0.1391
  245POPC   GL2 3365   2.094   9.728   4.903 -0.1516  0.1415  0.0026
  245POPC   C1A 3366   1.776   9.219   5.361  0.0488 -0.1345 -0.0277
  245POPC   D2A 3367   1.628   9.199   5.841 -0.2008 -0.3238  0.1705
  245POPC   C3A 3368   1.580   9.466   6.259  0.1542 -0.0360 -0.5210
  245POPC   C4A 3369   1.709   9.452   6.738  0.0601  0.1874 -0.0843
  245POPC   C1B 3370   2.325   9.990   5.298 -0.2006  0.3162 -0.0003
  245POPC   C2B 3371   2.546  10.371   5.576 -0.1492  0.0297 -0.2386
  245POPC   C3B 3372   2.976  10.528   5.773 -0.2194  0.1455 -0.1263
  245POPC   C4B 3373   3.276  10.290   5.992 -0.1374  0.0766 -0.1048
  246POPC   NC3 3374   6.426   5.863   4.955  0.2092  0.1179 -0.1950
  246POPC   PO4 3375   6.673   5.594   5.179  0.2226  0.0178 -0.2058
  246POPC   GL1 3376   6.653   5.582   5.646  0.0096 -0.2905 -0.0143
  246POPC   GL2 3377   6.561   5.234   5.635  0.2384 -0.2524 -0.1482
  246POPC   C1A 3378   6.714   5.551   6.099  0.0320 -0.2059 -0.2699
  246POPC   D2A 3379   6.213   5.557   6.375 -0.0102  0.1610  0.3561
  246POPC   C3A 3380   6.184   5.759   6.798 -0.1163 -0.2839  0.2724
  246POPC   C4A 3381   6.294   5.745   7.235 -0.4950 -0.1331 -0.1469
  246POPC   C1B 3382   6.938   5.126   5.811 -0.3922  0.2586 -0.1154
  246POPC   C2B 3383   7.236   5.251   6.039  0.0908  0.2765 -0.0179
  246POPC   C3B 3384   7.498   5.561   6.370 -0.1958  0.0548  0.0260
  246POPC   C4B 3385   8.043   5.629   6.367  0.0479 -0.1734 -0.2247
  247POPC   NC3 3386   8.881   7.502   4.473 -0.5164 -0.0459  0.0490
  247POPC   PO4 3387   9.216   7.495   4.786 -0.3753  0.1863 -0.1041
  247POPC   GL1 3388   9.164   7.099   5.168  0.1309  0.0062  0.1278
  247POPC   GL2 3389   8.927   7.095   5.365 -0.0819  0.0627  0.2673
  247POPC   C1A 3390   9.462   6.855   5.410  0.0780 -0.1134  0.2636
  247POPC   D2A 3391   9.666   6.596   5.819 -0.0598  0.1846 -0.0460
  247POPC   C3A 3392   9.419   6.245   5.943 -0.1332 -0.1894 -0.2934
  247POPC   C4A 3393   9.231   6.103   6.326  0.3096  0.1192  0.0451
  247POPC   C1B 3394   8.686   7.375   5.506  0.1734 -0.1740 -0.1106
  247POPC   C2B 3395   8.425   7.349   5.883 -0.0274 -0.1076  0.0926
  247POPC   C3B 3396   8.169   7.558   6.280  0.2565  0.0549  0.1442
  247POPC   C4B 3397   8.172   7.596   6.617  0.2628 -0.0090  0.1575
  248POPC   NC3 3398   7.961   9.235   4.478 -0.2769 -0.1012 -0.0829
  248POPC   PO4 3399   8.241   9.317   4.834 -0.2467 -0.1641  0.2171
  248POPC   GL1 3400   8.484   9.370   5.188  0.0278  0.0172 -0.0361
  248POPC   GL2 3401   8.524   9.633   5.273  0.1236 -0.1741 -0.2739
  248POPC   C1A 3402   8.848   9.212   5.406  0.0068  0.0093  0.0357
  248POPC   D2A 3403   9.099   9.153   5.691  0.2780  0.1217  0.1338
  248POPC   C3A 3404   9.245   9.229   6.128 -0.0925  0.1216  0.4459
  248POPC   C4A 3405   9.321   9.620   6.482 -0.0327 -0.1521  0.0033
  248POPC   C1B 3406   8.222   9.596   5.695  0.4419  0.0649  0.1794
  248POPC   C2B 3407   8.224   9.251   6.064 -0.0058  0.1131  0.0565
  248POPC   C3B 3408   8.259   9.059   6.450 -0.0311 -0.1699  0.0490
  248POPC   C4B 3409   8.387   8.891   6.701  0.1134 -0.1143 -0.1366
  249POPC   NC3 3410   5.040   8.313   4.192  0.1837  0.3088 -0.3194
  249POPC   PO4 3411   4.834   8.503   4.588  0.0159  0.1117 -0.2115
  249POPC   GL1 3412   5.127   8.438   4.936 -0.1472  0.2169 -0.0244
  249POPC   GL2 3413   5.100   8.192   4.980 -0.4855 -0.1104  0.4808
  249POPC   C1A 3414   5.180   8.592   5.380  0.1088  0.0284  0.0107
  249POPC   D2A 3415   4.943   8.531   5.706 -0.1817 -0.1873 -0.1157
  249POPC   C3A 3416   4.987   8.183   5.902 -0.0900 -0.0081  0.0594
  249POPC   C4A 3417   5.113   7.825   5.989 -0.0644  0.4106  0.1079
  249POPC   C1B 3418   4.747   8.378   5.207  0.2224 -0.1013 -0.0217
  249POPC   C2B 3419   4.525   8.592   5.492 -0.0890  0.0971  0.1609
  249POPC   C3B 3420   4.357   8.739   5.890  0.0811 -0.0786  0.3787
  249POPC   C4B 3421   4.064   8.950   6.077  0.2481 -0.2528  0.2100
  250POPC   NC3 3422   7.279   7.373   4.741  0.2310 -0.0603  0.1955
  250POPC   PO4 3423   7.167   7.828   4.710  0.0591 -0.3626  0.2841
  250POPC   GL1 3424   6.951   7.534   5.082 -0.0612  0.2061  0.0507
  250POPC   GL2 3425   6.825   7.215   4.979 -0.4531  0.1846 -0.0422
  250POPC   C1A 3426   6.765   7.636   5.486  0.0276  0.1123  0.1324
  250POPC   D2A 3427   6.686   7.756   5.980 -0.2038 -0.2441  0.2269
  250POPC   C3A 3428   6.348   7.673   6.217  0.1062  0.1110 -0.0454
  250POPC   C4A 3429   6.030   7.320   6.142  0.3834  0.0803 -0.4078
  250POPC   C1B 3430   6.912   7.068   5.411  0.0154 -0.2458  0.0812
  250POPC   C2B 3431   7.266   6.945   5.612  0.0848  0.3342 -0.0359
  250POPC   C3B 3432   7.348   6.978   6.035 -0.2893  0.1501 -0.4135
  250POPC   C4B 3433   7.635   6.954   6.303  0.2628 -0.1016  0.3961
  251POPC   NC3 3434   8.145   3.901   4.777  0.0808 -0.4752  0.0244
  251POPC   PO4 3435   7.749   3.612   4.905 -0.0702 -0.0509  0.0697
  251POPC   GL1 3436   7.961   3.823   5.273  0.0315 -0.0352 -0.2549
  251POPC   GL2 3437   8.218   3.960   5.256 -0.1236 -0.1648  0.2518
  251POPC   C1A 3438   8.123   3.669   5.757  0.0557 -0.0457  0.3298
  251POPC   D2A 3439   8.475   3.833   5.953 -0.1056 -0.3846  0.2112
  251POPC   C3A 3440   8.377   3.808   6.331  0.1034 -0.0221  0.4873
  251POPC   C4A 3441   8.168   4.192   6.450 -0.1550  0.1265  0.0230
  251POPC   C1B 3442   8.520   3.809   5.449  0.0446 -0.0835 -0.1087
  251POPC   C2B 3443   8.896   3.468   5.515  0.0441 -0.0077  0.1862
  251POPC   C3B 3444   9.190   3.403   5.868  0.1799  0.3396 -0.2467
  251POPC   C4B 3445   9.632   3.591   6.005 -0.0726  0.3239  0.0850
  252POPC   NC3 3446   1.967   6.671   3.760 -0.1941 -0.2524 -0.1064
  252POPC   PO4 3447   2.039   6.154   3.803  0.2183  0.1592  0.1091
  252POPC   GL1 3448   2.192   5.952   4.265 -0.1603  0.0595  0.0806
  252POPC   GL2 3449   2.289   6.124   4.489  0.1885  0.0498  0.0157
  252POPC   C1A 3450   2.209   5.533   4.233 -0.0178 -0.1296  0.3869
  252POPC   D2A 3451   2.558   5.161   4.129 -0.2217 -0.3114 -0.0931
  252POPC   C3A 3452   2.472   4.894   3.873  0.2147  0.1930  0.0174
  252POPC   C4A 3453   2.338   4.493   3.736 -0.1738 -0.1497 -0.0013
  252POPC   C1B 3454   2.491   6.335   4.748 -0.0690 -0.2667  0.3626
  252POPC   C2B 3455   2.399   6.155   5.170 -0.2352 -0.1687 -0.1334
  252POPC   C3B 3456   2.308   6.184   5.585 -0.1662  0.2866  0.2588
  252POPC   C4B 3457   2.218   6.327   6.052 -0.1183  0.2580 -0.2364
  253POPC   NC3 3458   8.782   4.657   4.983 -0.1879  0.1925 -0.0233
  253POPC   PO4 3459   8.627   5.043   4.761  0.1835 -0.1268 -0.0005
  253POPC   GL1 3460   8.621   5.086   5.176 -0.2535 -0.1140  0.1706
  253POPC   GL2 3461   8.388   5.261   5.156 -0.0495 -0.0237 -0.2336
  253POPC   C1A 3462   8.915   5.175   5.491 -0.1773  0.4456 -0.3978
  253POPC   D2A 3463   9.183   5.396   5.816 -0.0551 -0.1552  0.2253
  253POPC   C3A 3464   9.000   5.721   5.928  0.1124  0.1378 -0.1762
  253POPC   C4A 3465   8.882   5.917   5.481 -0.4007 -0.1711 -0.3414
  253POPC   C1B 3466   8.426   5.070   5.599  0.0921 -0.0328  0.1743
  253POPC   C2B 3467   8.630   4.820   5.876  0.1907  0.0596 -0.3615
  253POPC   C3B 3468   8.911   4.645   6.272  0.0459 -0.0151  0.2309
  253POPC   C4B 3469   9.142   4.596   6.662 -0.2041 -0.0070 -0.0881
  254POPC   NC3 3470   8.232   6.311   4.103  0.2683  0.0158 -0.1396
  254POPC   PO4 3471   8.345   6.108   4.502 -0.0673  0.0054  0.0525
  254POPC   GL1 3472   8.478   6.329   4.908 -0.1820 -0.3335 -0.5109
  254POPC   GL2 3473   8.674   6.189   5.060  0.0161 -0.2937 -0.1801
  254POPC   C1A 3474   8.335   6.583   5.135 -0.1530 -0.0476  0.1213
  254POPC   D2A 3475   7.962   6.864   5.275 -0.1749 -0.0674  0.2795
  254POPC   C3A 3476   8.010   7.088   5.702  0.0798 -0.2832 -0.0229
  254POPC   C4A 3477   8.125   6.937   6.193  0.0511  0.0177 -0.2886
  254POPC   C1B 3478   8.511   6.321   5.483  0.1439 -0.3092 -0.0020
  254POPC   C2B 3479   8.184   6.604   5.730 -0.1080  0.2999 -0.1487
  254POPC   C3B 3480   7.737   6.671   5.799 -0.1568 -0.1811  0.1232
  254POPC   C4B 3481   7.411   6.448   6.069 -0.1556 -0.2459  0.0515
  255POPC   NC3 3482   2.457   4.199   2.762  0.2615  0.2358  0.0180
  255POPC   PO4 3483   2.048   4.083   2.886  0.2260 -0.2036  0.0031
  255POPC   GL1 3484   2.178   4.037   3.241 -0.0372  0.1013 -0.1975
  255POPC   GL2 3485   1.978   4.243   3.442  0.3999 -0.0873 -0.1274
  255POPC   C1A 3486   2.291   3.649   3.587 -0.0226 -0.2512 -0.2145
  255POPC   D2A 3487   2.490   3.407   3.775 -0.3772 -0.0509  0.0268
  255POPC   C3A 3488   2.289   3.160   4.037 -0.1634  0.1583  0.1295
  255POPC   C4A 3489   2.266   2.832   3.894  0.0296 -0.1654  0.0730
  255POPC   C1B 3490   2.115   4.065   3.855  0.0309 -0.0332 -0.0318
  255POPC   C2B 3491   2.048   3.939   4.342 -0.2884 -0.1825 -0.2729
  255POPC   C3B 3492   1.955   3.763   4.788 -0.3138 -0.2839  0.1700
  255POPC   C4B 3493   2.049   3.422   5.011 -0.1337  0.1845  0.2534
  256POPC   NC3 3494   2.575   9.208   4.432 -0.0956 -0.0527 -0.0592
  256POPC   PO4 3495   2.755   8.715   4.413  0.0050  0.2116  0.0030
  256POPC   GL1 3496   3.027   8.593   4.749  0.2178 -0.3982  0.0991
  256POPC   GL2 3497   2.790   8.564   4.896 -0.0602 -0.1431 -0.1343
  256POPC   C1A 3498   3.117   8.497   5.237  0.1445 -0.3474 -0.0154
  256POPC   D2A 3499   3.380   8.638   5.625  0.1302  0.1001 -0.1341
  256POPC   C3A 3500   3.429   8.341   5.964 -0.1000  0.1000  0.0483
  256POPC   C4A 3501   3.380   7.949   6.193  0.0257  0.4854 -0.1388
  256POPC   C1B 3502   2.619   8.791   5.207 -0.0109 -0.0707  0.0476
  256POPC   C2B 3503   2.214   8.873   5.419  0.0615 -0.0079  0.2816
  256POPC   C3B 3504   2.013   8.566   5.708  0.2737 -0.0635  0.1383
  256POPC   C4B 3505   1.971   8.596   6.076 -0.0942  0.0590  0.3285
  257POPC   NC3 3506   6.625   2.311   4.366 -0.0812  0.0856  0.1733
  257POPC   PO4 3507   6.530   2.269   4.843  0.5407 -0.1642 -0.1113
  257POPC   GL1 3508   6.731   2.475   5.138 -0.3548  0.1334 -0.1276
  257POPC   GL2 3509   6.596   2.476   5.398 -0.0214 -0.1200 -0.2283
  257POPC   C1A 3510   7.045   2.328   5.439  0.0113 -0.0876  0.2939
  257POPC   D2A 3511   7.285   2.484   5.686  0.1126  0.3592  0.1010
  257POPC   C3A 3512   7.240   2.423   6.150 -0.1185  0.0279 -0.2718
  257POPC   C4A 3513   7.422   2.437   6.574  0.1965 -0.1020  0.3477
  257POPC   C1B 3514   6.524   2.167   5.652  0.1652  0.0011  0.2395
  257POPC   C2B 3515   6.425   1.975   6.077 -0.3214  0.4128  0.0783
  257POPC   C3B 3516   6.645   1.907   6.440 -0.1381 -0.3287 -0.2117
  257POPC   C4B 3517   7.092   1.886   6.593  0.0490  0.1693  0.0200
  258POPC   NC3 3518   7.143   4.835   4.974  0.0769 -0.3864  0.4245
  258POPC   PO4 3519   7.501   4.603   4.796  0.0915  0.0422  0.1568
  258POPC   GL1 3520   7.523   4.640   5.304  0.0150 -0.2678 -0.1854
  258POPC   GL2 3521   7.248   4.327   5.375 -0.1144  0.0645 -0.0666
  258POPC   C1A 3522   7.631   4.456   5.720  0.0332  0.0311 -0.0078
  258POPC   D2A 3523   7.595   4.408   6.175 -0.0755 -0.0839 -0.3165
  258POPC   C3A 3524   7.690   3.993   6.382  0.2573  0.1691 -0.1224
  258POPC   C4A 3525   7.787   3.609   6.103  0.1394  0.0617 -0.0560
  258POPC   C1B 3526   7.154   4.643   5.689 -0.4687  0.1785  0.3567
  258POPC   C2B 3527   7.133   4.728   6.035 -0.0381 -0.0236  0.1045
  258POPC   C3B 3528   7.170   4.790   6.419  0.1625  0.1412  0.2130
  258POPC   C4B 3529   7.377   4.442   6.646 -0.2380 -0.1255  0.1527
  259POPC   NC3 3530   8.422   3.996   3.922 -0.1338 -0.1245  0.0940
  259POPC   PO4 3531   8.490   4.053   4.360  0.2611  0.0603 -0.2027
  259POPC   GL1 3532   8.674   3.751   4.683 -0.4892 -0.2525  0.1733
  259POPC   GL2 3533   8.631   3.875   4.925 -0.5058 -0.0276  0.0775
  259POPC   C1A 3534   8.772   3.376   5.031 -0.0325  0.3270 -0.3063
  259POPC   D2A 3535   8.721   3.053   5.358  0.1550 -0.0873 -0.2830
  259POPC   C3A 3536   8.873   2.709   5.517  0.0936  0.1484  0.1767
  259POPC   C4A 3537   9.049   2.512   5.210  0.3900  0.0988  0.0143
  259POPC   C1B 3538   8.919   3.836   5.142 -0.1327  0.0085 -0.3046
  259POPC   C2B 3539   9.330   3.786   5.476 -0.1763 -0.1688  0.0975
  259POPC   C3B 3540   9.460   4.137   5.686  0.0643  0.2170 -0.1222
  259POPC   C4B 3541   9.266   4.403   6.001 -0.1502 -0.3698 -0.0218
  260POPC   NC3 3542   6.314   6.170   4.433  0.3060 -0.1169 -0.1496
  260POPC   PO4 3543   6.277   6.714   4.391 -0.0655  0.1266 -0.2123
  260POPC   GL1 3544   6.430   6.657   4.753 -0.1608  0.1279  0.1697
  260POPC   GL2 3545   6.226   6.408   4.983  0.2594 -0.2275  0.0090
  260POPC   C1A 3546   6.556   6.722   5.209 -0.1608 -0.1188 -0.0016
  260POPC   D2A 3547   6.561   6.724   5.651 -0.1026 -0.0885 -0.1670
  260POPC   C3A 3548   6.409   6.632   6.115  0.3837 -0.1158 -0.0542
  260POPC   C4A 3549   6.164   6.698   6.545 -0.3209 -0.0828  0.4403
  260POPC   C1B 3550   6.354   6.253   5.427 -0.0190 -0.1064 -0.0389
  260POPC   C2B 3551   6.613   6.094   5.606 -0.0560 -0.1896  0.1035
  260POPC   C3B 3552   6.600   6.172   6.011  0.0511  0.2897 -0.0439
  260POPC   C4B 3553   6.959   6.333   6.257  0.0791 -0.2020 -0.3011
  261POPC   NC3 3554   5.765   3.369   3.753 -0.0278  0.0249  0.3689
  261POPC   PO4 3555   5.823   3.212   4.239  0.2590  0.0877 -0.0509
  261POPC   GL1 3556   5.638   3.166   4.733 -0.1853 -0.1594  0.0059
  261POPC   GL2 3557   5.636   2.974   5.041  0.2874 -0.3644 -0.0411
  261POPC   C1A 3558   5.178   3.198   4.998 -0.3205 -0.3164  0.1048
  261POPC   D2A 3559   4.908   3.176   5.339 -0.3848 -0.0842 -0.0269
  261POPC   C3A 3560   4.816   3.197   5.769 -0.0676  0.2550  0.0338
  261POPC   C4A 3561   4.872   3.348   6.173 -0.3996  0.1253 -0.0350
  261POPC   C1B 3562   5.347   2.898   5.330  0.1598  0.0967 -0.2104
  261POPC   C2B 3563   5.318   3.075   5.727 -0.0098  0.0809  0.3640
  261POPC   C3B 3564   5.323   3.152   6.057  0.0634 -0.1348 -0.0386
  261POPC   C4B 3565   5.504   2.962   6.411 -0.0065  0.3252  0.2145
  262POPC   NC3 3566   5.837   7.932   4.459  0.3211 -0.1500 -0.0432
  262POPC   PO4 3567   6.098   8.061   4.900  0.0178 -0.0395 -0.2442
  262POPC   GL1 3568   5.948   8.161   5.319 -0.1603  0.2831  0.0063
  262POPC   GL2 3569   5.653   8.442   5.437 -0.1666 -0.4226  0.1320
  262POPC   C1A 3570   5.972   8.303   5.735  0.1021 -0.2339  0.2969
  262POPC   D2A 3571   5.822   8.109   6.108  0.2570 -0.2645 -0.2225
  262POPC   C3A 3572   5.415   8.163   6.192  0.1351  0.3411  0.1523
  262POPC   C4A 3573   5.064   8.338   6.454 -0.1807 -0.1565 -0.1161
  262POPC   C1B 3574   5.439   8.491   5.827  0.0940  0.2711 -0.0591
  262POPC   C2B 3575   5.380   8.729   6.172  0.1833 -0.0797 -0.0244
  262POPC   C3B 3576   5.137   8.991   6.536  0.1854 -0.1287  0.1738
  262POPC   C4B 3577   4.954   9.191   6.972 -0.1661  0.0294  0.1475
  263POPC   NC3 3578   2.105   7.581   4.203 -0.0139  0.1444 -0.2259
  263POPC   PO4 3579   2.089   7.932   4.422  0.0546 -0.0875 -0.1783
  263POPC   GL1 3580   2.023   7.950   4.888  0.0819 -0.1005 -0.1290
  263POPC   GL2 3581   1.689   8.102   4.965 -0.0411 -0.0659  0.1737
  263POPC   C1A 3582   2.339   7.745   5.219 -0.1331  0.0283  0.1271
  263POPC   D2A 3583   1.985   7.433   5.429  0.0607 -0.0493 -0.2538
  263POPC   C3A 3584   2.138   7.214   5.817 -0.1700 -0.1394  0.2288
  263POPC   C4A 3585   2.280   6.845   6.092 -0.3713 -0.0792  0.0036
  263POPC   C1B 3586   1.867   8.156   5.406  0.0316  0.1391 -0.1457
  263POPC   C2B 3587   2.114   7.949   5.706 -0.2116 -0.0471 -0.5675
  263POPC   C3B 3588   2.482   8.109   5.938 -0.1770 -0.1325  0.0656
  263POPC   C4B 3589   2.961   8.310   5.861  0.2188  0.0251  0.1564
  264POPC   NC3 3590   4.245   6.940   4.729 -0.2345 -0.0941  0.2204
  264POPC   PO4 3591   4.726   6.760   4.610  0.4195  0.0232 -0.0253
  264POPC   GL1 3592   4.461   6.441   4.899 -0.1119  0.0315  0.0553
  264POPC   GL2 3593   4.730   6.377   5.124  0.1937 -0.3690  0.1540
  264POPC   C1A 3594   4.182   6.273   5.199 -0.1154  0.0949  0.0123
  264POPC   D2A 3595   3.786   5.913   5.188  0.0504 -0.1096 -0.1040
  264POPC   C3A 3596   3.764   5.854   5.606 -0.1431  0.0943 -0.0801
  264POPC   C4A 3597   3.694   6.088   6.080 -0.2409 -0.0923 -0.1667
  264POPC   C1B 3598   4.520   6.403   5.524 -0.2198 -0.0496 -0.2342
  264POPC   C2B 3599   4.390   6.399   6.018  0.0315 -0.0198  0.0001
  264POPC   C3B 3600   4.322   6.072   6.287 -0.2056  0.0150  0.1822
  264POPC   C4B 3601   4.475   6.034   6.633  0.1133 -0.1637  0.1391
  265POPC   NC3 3602   5.034   0.837   4.376 -0.0563  0.0931 -0.0039
  265POPC   PO4 3603   5.109   0.928   4.792 -0.2474  0.1339 -0.1854
  265POPC   GL1 3604   5.141   0.963   5.237  0.0819  0.0871 -0.1067
  265POPC   GL2 3605   5.389   0.968   5.414 -0.1765  0.2194 -0.0941
  265POPC   C1A 3606   4.940   1.009   5.607 -0.1162  0.0173 -0.2469
  265POPC   D2A 3607   4.791   0.790   6.062  0.2072 -0.4580 -0.1486
  265POPC   C3A 3608   4.773   1.018   6.562 -0.3039  0.1300  0.1546
  265POPC   C4A 3609   4.879   1.056   7.032 -0.0908  0.5158  0.2174
  265POPC   C1B 3610   5.396   0.887   5.879 -0.2784  0.0064  0.0902
  265POPC   C2B 3611   5.601   0.819   6.308  0.0303  0.3243 -0.2918
  265POPC   C3B 3612   6.007   0.608   6.465 -0.1368  0.0053  0.1906
  265POPC   C4B 3613   6.489   0.539   6.529  0.0138  0.0611 -0.3027
  266POPC   NC3 3614   8.400   7.287   4.499 -0.0497  0.2533 -0.2809
  266POPC   PO4 3615   8.488   7.754   4.648  0.3459  0.2372  0.4713
  266POPC   GL1 3616   8.202   7.486   4.987  0.0451  0.1710 -0.0323
  266POPC   GL2 3617   8.166   7.705   5.246  0.5816 -0.1383 -0.2043
  266POPC   C1A 3618   8.363   7.141   5.193 -0.0883  0.0056 -0.0381
  266POPC   D2A 3619   8.518   6.887   5.493  0.2582  0.1949  0.2272
  266POPC   C3A 3620   8.593   6.877   5.961 -0.1771 -0.4013 -0.2496
  266POPC   C4A 3621   8.765   6.794   6.293  0.0173 -0.0549  0.2916
  266POPC   C1B 3622   7.984   7.600   5.580  0.1445 -0.0071  0.0096
  266POPC   C2B 3623   7.766   7.389   6.014 -0.0037 -0.3399  0.0107
  266POPC   C3B 3624   7.518   7.409   6.392  0.0003 -0.1072 -0.0645
  266POPC   C4B 3625   7.276   7.262   6.785 -0.2183 -0.2847  0.5873
  267POPC   NC3 3626   7.362   8.375   4.368  0.1313 -0.2216 -0.1206
  267POPC   PO4 3627   7.394   8.615   4.743 -0.0967  0.0350 -0.4267
  267POPC   GL1 3628   7.654   8.683   4.980 -0.3787  0.0091  0.1657
  267POPC   GL2 3629   7.807   8.997   4.893 -0.3097  0.0609 -0.3249
  267POPC   C1A 3630   7.815   8.477   5.399  0.2715  0.1655  0.3126
  267POPC   D2A 3631   7.815   8.088   5.434 -0.1242  0.1407  0.0524
  267POPC   C3A 3632   7.544   7.791   5.748  0.1798 -0.1372  0.3406
  267POPC   C4A 3633   7.278   7.784   5.960 -0.0615 -0.1624 -0.0416
  267POPC   C1B 3634   7.718   8.947   5.414  0.1447  0.2025 -0.1309
  267POPC   C2B 3635   7.761   9.167   5.827 -0.2770  0.0944  0.0268
  267POPC   C3B 3636   7.651   9.535   5.945 -0.1795 -0.2611 -0.0503
  267POPC   C4B 3637   7.528   9.909   6.180 -0.3194  0.0301 -0.0094
  268POPC   NC3 3638   3.442   6.214   3.583 -0.0025  0.3508 -0.0552
  268POPC   PO4 3639   3.749   5.923   3.855  0.1302 -0.2679 -0.0469
  268POPC   GL1 3640   3.689   5.638   4.284 -0.0656  0.1751  0.1176
  268POPC   GL2 3641   3.482   5.691   4.368 -0.2756  0.2042 -0.1444
  268POPC   C1A 3642   3.425   5.187   4.400 -0.0236  0.0914  0.1506
  268POPC   D2A 3643   3.257   5.065   4.882 -0.1925  0.0960  0.0763
  268POPC   C3A 3644   2.917   5.350   5.014  0.2533 -0.1675  0.0660
  268POPC   C4A 3645   2.639   5.259   5.406  0.0170  0.0101 -0.1689
  268POPC   C1B 3646   3.511   5.945   4.645 -0.0193 -0.3250 -0.0782
  268POPC   C2B 3647   3.247   6.030   5.013  0.1021 -0.2895 -0.3979
  268POPC   C3B 3648   3.276   5.806   5.461 -0.3102  0.1153 -0.1824
  268POPC   C4B 3649   3.304   5.820   5.874 -0.0050  0.0397 -0.1832
  269POPC   NC3 3650   7.920   2.561   4.565  0.1418 -0.1922  0.1037
  269POPC   PO4 3651   7.981   2.150   4.745 -0.0817 -0.0015  0.3726
  269POPC   GL1 3652   7.969   2.006   5.050 -0.0458 -0.0855  0.1404
  269POPC   GL2 3653   8.233   1.969   5.173 -0.3642 -0.0495  0.2759
  269POPC   C1A 3654   7.862   1.776   5.448  0.0644  0.0467 -0.1924
  269POPC   D2A 3655   7.659   1.627   5.770 -0.1143  0.1294 -0.6145
  269POPC   C3A 3656   7.925   1.534   6.183 -0.1459 -0.1407  0.1089
  269POPC   C4A 3657   8.105   1.750   6.576  0.2354  0.0799 -0.1320
  269POPC   C1B 3658   8.181   2.118   5.643 -0.0134  0.1312  0.0927
  269POPC   C2B 3659   8.097   1.982   6.153 -0.0602  0.1616 -0.1746
  269POPC   C3B 3660   8.206   2.264   6.543  0.1899  0.0995 -0.1723
  269POPC   C4B 3661   8.507   2.003   6.743  0.2102 -0.0279 -0.0697
  270POPC   NC3 3662   1.025   8.611   4.910 -0.0466 -0.1465  0.1626
  270POPC   PO4 3663   0.598   8.613   4.965  0.1366  0.2682  0.0634
  270POPC   GL1 3664   0.640   8.673   5.421 -0.0565 -0.1141 -0.0743
  270POPC   GL2 3665   0.972   8.657   5.593  0.0040 -0.0024  0.3437
  270POPC   C1A 3666   0.558   8.976   5.733  0.0609 -0.1346  0.1311
  270POPC   D2A 3667   0.226   9.066   5.924  0.1346  0.1769  0.2034
  270POPC   C3A 3668   0.416   9.116   6.311  0.0546  0.0492 -0.0430
  270POPC   C4A 3669   0.777   9.250   6.479 -0.0472  0.1776 -0.2613
  270POPC   C1B 3670   1.416   8.430   5.470  0.1910  0.0836  0.1250
  270POPC   C2B 3671   1.657   8.221   5.839  0.1432  0.1662  0.0029
  270POPC   C3B 3672   1.950   8.123   6.196  0.0587 -0.1997 -0.5331
  270POPC   C4B 3673   2.330   8.412   6.344 -0.1360 -0.0930 -0.1457
  271POPC   NC3 3674   6.931   1.496   4.959 -0.4480  0.2128 -0.0715
  271POPC   PO4 3675   6.851   1.019   5.125 -0.1846  0.0219  0.0521
  271POPC   GL1 3676   7.131   0.856   5.438  0.0627  0.1299  0.2166
  271POPC   GL2 3677   7.478   0.914   5.359  0.2066 -0.0613 -0.2607
  271POPC   C1A 3678   6.954   0.691   5.856 -0.2030 -0.2115  0.0745
  271POPC   D2A 3679   6.685   0.817   6.117 -0.1451 -0.0792 -0.0901
  271POPC   C3A 3680   6.935   0.692   6.373 -0.0618  0.0423 -0.1174
  271POPC   C4A 3681   7.144   0.542   6.659 -0.0251 -0.0465 -0.2299
  271POPC   C1B 3682   7.472   1.032   5.760  0.0253 -0.2342  0.2514
  271POPC   C2B 3683   7.231   1.044   6.177  0.0516  0.0338 -0.1352
  271POPC   C3B 3684   7.079   1.123   6.613  0.0341 -0.2393  0.3686
  271POPC   C4B 3685   7.021   1.098   7.067  0.1319  0.1022 -0.1470
  272POPC   NC3 3686   0.230   8.318   4.761  0.3228  0.0427 -0.0389
  272POPC   PO4 3687   0.254   7.819   4.666 -0.0934  0.2434  0.2551
  272POPC   GL1 3688   0.181   7.773   5.113  0.0904  0.1501 -0.0244
  272POPC   GL2 3689   0.240   7.573   5.358  0.0295  0.2244 -0.1872
  272POPC   C1A 3690   0.409   8.056   5.328 -0.0545  0.0224 -0.1384
  272POPC   D2A 3691   0.680   8.164   5.565 -0.0411  0.2351 -0.1948
  272POPC   C3A 3692   0.602   8.457   5.922 -0.2257 -0.0652  0.2360
  272POPC   C4A 3693   0.693   8.692   6.298  0.0230 -0.0965  0.0427
  272POPC   C1B 3694  -0.118   7.340   5.615  0.4773  0.0226 -0.3056
  272POPC   C2B 3695  -0.334   7.099   5.961 -0.0733 -0.2477 -0.0426
  272POPC   C3B 3696  -0.676   6.861   5.920 -0.2032  0.1315  0.2668
  272POPC   C4B 3697  -0.972   6.780   5.697  0.5778  0.1117 -0.0658
  273POPC   NC3 3698   1.370   8.959   4.243 -0.1698 -0.0280  0.0820
  273POPC   PO4 3699   1.238   8.966   4.614  0.1668  0.1123 -0.1991
  273POPC   GL1 3700   1.345   8.968   5.083 -0.3442 -0.0544 -0.1745
  273POPC   GL2 3701   1.066   9.078   5.158 -0.0573 -0.0665 -0.2362
  273POPC   C1A 3702   1.357   8.943   5.513  0.1523 -0.1083 -0.2529
  273POPC   D2A 3703   1.545   8.701   5.873 -0.0219 -0.0676 -0.2288
  273POPC   C3A 3704   1.254   8.485   5.952 -0.0345 -0.2081 -0.2060
  273POPC   C4A 3705   1.010   8.285   6.333  0.0490  0.0928  0.1155
  273POPC   C1B 3706   1.017   9.230   5.657 -0.0232  0.0237 -0.0455
  273POPC   C2B 3707   1.149   9.481   6.013 -0.1610  0.1423  0.3219
  273POPC   C3B 3708   1.083   9.616   6.397 -0.0164 -0.2262  0.0626
  273POPC   C4B 3709   0.922   9.654   6.853  0.4735  0.1510  0.2172
  274POPC   NC3 3710   4.962   4.963   4.316 -0.0163  0.1777  0.0135
  274POPC   PO4 3711   5.371   4.814   4.587  0.2763  0.1916 -0.3410
  274POPC   GL1 3712   5.478   4.838   5.052  0.0304 -0.0175  0.0747
  274POPC   GL2 3713   5.324   4.962   5.289 -0.1650 -0.1209  0.1629
  274POPC   C1A 3714   5.588   4.453   5.229 -0.1019  0.0209 -0.2006
  274POPC   D2A 3715   5.650   3.990   5.267 -0.0886  0.2167 -0.3780
  274POPC   C3A 3716   5.842   3.838   5.622  0.0103 -0.1563  0.3534
  274POPC   C4A 3717   5.971   3.800   6.019  0.1048 -0.1117 -0.0143
  274POPC   C1B 3718   5.130   4.655   5.420  0.1499 -0.0266  0.3095
  274POPC   C2B 3719   4.662   4.540   5.494  0.1283 -0.0774  0.1739
  274POPC   C3B 3720   4.382   4.557   6.011 -0.2917  0.1692 -0.0380
  274POPC   C4B 3721   4.134   4.459   6.329 -0.2641 -0.0253  0.2428
  275POPC   NC3 3722   0.386   2.545   3.635 -0.0705  0.0565  0.0029
  275POPC   PO4 3723   0.178   2.950   3.732  0.0033 -0.0139  0.1366
  275POPC   GL1 3724   0.328   3.091   4.022  0.1969 -0.1683 -0.1100
  275POPC   GL2 3725   0.210   3.049   4.262 -0.1175 -0.0662 -0.2929
  275POPC   C1A 3726   0.695   3.202   4.363  0.2182  0.2839  0.3843
  275POPC   D2A 3727   1.044   3.057   4.660 -0.1925 -0.1731  0.0084
  275POPC   C3A 3728   1.444   3.241   4.492 -0.1314 -0.2817 -0.0693
  275POPC   C4A 3729   1.847   3.449   4.431 -0.0611  0.0739  0.0727
  275POPC   C1B 3730   0.220   3.034   4.662  0.1677  0.0060  0.1185
  275POPC   C2B 3731   0.618   3.107   4.911 -0.0338 -0.1774 -0.3076
  275POPC   C3B 3732   0.803   3.054   5.224  0.1148  0.5080  0.0350
  275POPC   C4B 3733   0.689   3.086   5.647 -0.1201 -0.0675 -0.4121
  276POPC   NC3 3734   3.464   8.453   4.109 -0.3402  0.2975 -0.2240
  276POPC   PO4 3735   3.719   8.753   4.431  0.2422  0.0219  0.0566
  276POPC   GL1 3736   3.510   8.706   4.717  0.0673  0.1791  0.1154
  276POPC   GL2 3737   3.507   8.353   4.740  0.2745 -0.4089  0.1469
  276POPC   C1A 3738   3.645   8.637   5.182 -0.1255 -0.1686  0.0914
  276POPC   D2A 3739   3.657   8.259   5.233 -0.0348  0.0539  0.1501
  276POPC   C3A 3740   3.383   8.094   5.515 -0.1048 -0.0624 -0.1117
  276POPC   C4A 3741   3.210   7.706   5.787  0.1997  0.2496  0.1015
  276POPC   C1B 3742   3.329   8.093   4.931  0.0690 -0.1353 -0.0968
  276POPC   C2B 3743   3.006   7.926   5.116 -0.1754 -0.1486 -0.2400
  276POPC   C3B 3744   2.896   7.490   5.255  0.2262 -0.0573  0.1780
  276POPC   C4B 3745   2.572   7.338   5.521  0.1475 -0.0560  0.0828
  277POPC   NC3 3746   0.473   6.999   4.441 -0.1855  0.0061 -0.0959
  277POPC   PO4 3747   0.355   6.581   4.622 -0.1450  0.1223 -0.1187
  277POPC   GL1 3748   0.636   6.298   4.837 -0.0387  0.3312  0.0348
  277POPC   GL2 3749   0.963   6.456   4.812  0.0593 -0.2510  0.1921
  277POPC   C1A 3750   0.773   5.982   5.177 -0.1708 -0.0440  0.1239
  277POPC   D2A 3751   0.878   5.674   5.548 -0.1144  0.0665 -0.3654
  277POPC   C3A 3752   0.562   5.448   5.780 -0.2129  0.2210 -0.1774
  277POPC   C4A 3753   0.170   5.381   5.929  0.0171 -0.0046 -0.0323
  277POPC   C1B 3754   0.906   6.559   5.116 -0.3003 -0.0559  0.2330
  277POPC   C2B 3755   0.958   6.400   5.535 -0.2231 -0.0484 -0.0391
  277POPC   C3B 3756   0.752   6.474   5.914 -0.0409 -0.1054  0.3627
  277POPC   C4B 3757   0.856   6.673   6.255 -0.1034  0.1166  0.0185
  278POPC   NC3 3758   3.302   1.011   4.166  0.1822 -0.0850 -0.0454
  278POPC   PO4 3759   3.051   1.285   3.916 -0.3256 -0.2954 -0.0119
  278POPC   GL1 3760   3.058   1.384   4.380 -0.0975  0.2666 -0.0814
  278POPC   GL2 3761   3.330   1.466   4.481  0.0452  0.2720 -0.0808
  278POPC   C1A 3762   2.825   1.351   4.826  0.3761  0.2811 -0.1141
  278POPC   D2A 3763   2.534   1.174   5.009 -0.1969  0.1289  0.1352
  278POPC   C3A 3764   2.395   0.779   4.892 -0.4871 -0.0770  0.0528
  278POPC   C4A 3765   2.599   0.428   5.067  0.4165 -0.2866  0.0224
  278POPC   C1B 3766   3.363   1.707   4.911  0.6488  0.1290  0.0603
  278POPC   C2B 3767   3.596   1.852   5.263 -0.0173 -0.3091 -0.0065
  278POPC   C3B 3768   3.453   1.777   5.703 -0.1075  0.2163 -0.2466
  278POPC   C4B 3769   3.171   1.700   5.845 -0.0924 -0.3055 -0.0879
  279POPC   NC3 3770   6.029   1.998   4.636  0.2788 -0.2291 -0.2089
  279POPC   PO4 3771   6.144   2.359   4.551  0.0345  0.0136 -0.1333
  279POPC   GL1 3772   5.988   2.344   4.944  0.0270 -0.0951 -0.1594
  279POPC   GL2 3773   6.197   2.173   5.267 -0.3176 -0.0608 -0.2518
  279POPC   C1A 3774   5.861   2.514   5.328  0.1363  0.0993 -0.0508
  279POPC   D2A 3775   5.706   2.614   5.682 -0.0581  0.0516 -0.0766
  279POPC   C3A 3776   5.754   2.949   5.950 -0.1465 -0.1441 -0.3599
  279POPC   C4A 3777   5.766   3.353   6.237 -0.0187  0.1152 -0.2070
  279POPC   C1B 3778   5.958   2.169   5.763 -0.1123  0.3341  0.3636
  279POPC   C2B 3779   5.895   2.373   6.076 -0.0388 -0.0463 -0.0862
  279POPC   C3B 3780   5.982   2.817   6.335 -0.0972  0.0266 -0.2142
  279POPC   C4B 3781   5.897   2.871   6.747 -0.1517  0.1820  0.3321
  280POPC   NC3 3782   5.677   2.293   4.306  0.1523 -0.3598  0.2297
  280POPC   PO4 3783   5.563   2.082   4.693  0.0434  0.0561 -0.1423
  280POPC   GL1 3784   5.344   2.266   5.059  0.4659 -0.0458  0.0432
  280POPC   GL2 3785   4.983   2.297   5.019 -0.2992  0.0168 -0.0254
  280POPC   C1A 3786   5.117   1.963   5.324  0.1090 -0.4804  0.0342
  280POPC   D2A 3787   5.064   1.612   5.581  0.2201  0.0628 -0.0477
  280POPC   C3A 3788   5.431   1.394   5.677  0.1599 -0.1645 -0.3668
  280POPC   C4A 3789   5.751   1.224   5.942  0.0791 -0.0960  0.0869
  280POPC   C1B 3790   5.125   2.477   5.443  0.1099  0.3027 -0.0979
  280POPC   C2B 3791   5.037   2.675   5.823  0.0428 -0.2966  0.2013
  280POPC   C3B 3792   5.385   2.552   6.110  0.3542  0.0956 -0.1626
  280POPC   C4B 3793   5.669   2.462   6.566  0.0223  0.2051 -0.6293
  281POPC   NC3 3794   0.117   2.485   4.011  0.0415  0.0606  0.1853
  281POPC   PO4 3795   0.123   2.173   4.323  0.1550 -0.0315  0.3043
  281POPC   GL1 3796   0.232   1.901   4.547  0.0811  0.0003  0.1021
  281POPC   GL2 3797   0.259   2.135   4.861 -0.1652 -0.1904 -0.2441
  281POPC   C1A 3798   0.348   1.654   4.884 -0.1038  0.0562 -0.3040
  281POPC   D2A 3799   0.175   1.517   5.264  0.2033 -0.0681 -0.0236
  281POPC   C3A 3800   0.205   1.656   5.665  0.1227  0.0568  0.0320
  281POPC   C4A 3801  -0.030   1.783   5.976 -0.3493  0.0162  0.0677
  281POPC   C1B 3802   0.137   2.180   5.199  0.0594  0.2848 -0.0972
  281POPC   C2B 3803   0.247   2.127   5.624  0.1519 -0.2092 -0.0630
  281POPC   C3B 3804   0.600   2.270   5.986  0.1402  0.1503 -0.1081
  281POPC   C4B 3805   0.944   2.447   5.923  0.3158 -0.4151  0.1995
  282POPC   NC3 3806   0.233   5.990   3.592 -0.2736  0.0646  0.0754
  282POPC   PO4 3807   0.355   5.743   3.875  0.3762  0.1021  0.1945
  282POPC   GL1 3808   0.516   5.529   4.300 -0.1762  0.0381 -0.0751
  282POPC   GL2 3809   0.518   5.175   4.356  0.1545 -0.1513  0.1005
  282POPC   C1A 3810   0.766   5.445   4.751 -0.1226 -0.0294 -0.0247
  282POPC   D2A 3811   0.889   5.186   4.917 -0.3301  0.1585 -0.2409
  282POPC   C3A 3812   0.859   4.737   4.981  0.0590 -0.0648 -0.1508
  282POPC   C4A 3813   0.757   4.678   5.442  0.0962  0.0729  0.0077
  282POPC   C1B 3814   0.884   5.053   4.351  0.2183 -0.2584  0.1086
  282POPC   C2B 3815   1.192   4.860   4.647  0.0145  0.1128 -0.0563
  282POPC   C3B 3816   1.626   4.691   4.695 -0.0364  0.2064  0.1210
  282POPC   C4B 3817   1.999   4.758   4.910 -0.2203  0.0481 -0.0215
  283POPC   NC3 3818   9.190   8.827   4.258  0.0434  0.0949  0.0155
  283POPC   PO4 3819   9.156   8.603   4.659  0.2313  0.3078 -0.0936
  283POPC   GL1 3820   9.166   8.345   5.073 -0.2585  0.2662  0.1144
  283POPC   GL2 3821   8.909   8.394   5.313 -0.0268 -0.0217  0.2617
  283POPC   C1A 3822   9.297   8.097   5.523 -0.2257  0.0419 -0.0993
  283POPC   D2A 3823   9.036   7.744   5.798  0.1300  0.0428  0.3608
  283POPC   C3A 3824   9.053   7.659   6.269  0.2035 -0.1338  0.0576
  283POPC   C4A 3825   8.790   7.551   6.726 -0.0660  0.1134 -0.2304
  283POPC   C1B 3826   8.828   8.702   5.512 -0.1284 -0.0172 -0.2043
  283POPC   C2B 3827   8.626   8.940   5.849 -0.2622  0.1533 -0.1093
  283POPC   C3B 3828   8.593   8.760   6.261  0.5719  0.1245  0.0006
  283POPC   C4B 3829   8.838   8.371   6.319 -0.3230  0.1482  0.2000
  284POPC   NC3 3830   0.951   9.902   4.238 -0.2074  0.3271 -0.0648
  284POPC   PO4 3831   1.178   9.919   4.578 -0.1364 -0.0298  0.0254
  284POPC   GL1 3832   1.492  10.029   5.028  0.3852  0.0260 -0.0856
  284POPC   GL2 3833   1.832  10.062   5.154  0.2798  0.1635 -0.3053
  284POPC   C1A 3834   1.519  10.444   5.264  0.1376  0.0814  0.2485
  284POPC   D2A 3835   1.697  10.756   5.467  0.0487 -0.0542 -0.2777
  284POPC   C3A 3836   1.568  11.117   5.081 -0.2019  0.2832  0.1576
  284POPC   C4A 3837   1.432  11.509   4.940  0.2548  0.0941 -0.2644
  284POPC   C1B 3838   1.932  10.156   5.599 -0.3369  0.0811  0.1119
  284POPC   C2B 3839   2.245  10.011   5.871 -0.1514 -0.2114  0.2321
  284POPC   C3B 3840   2.410   9.562   5.977  0.3561 -0.1812  0.0852
  284POPC   C4B 3841   2.696   9.243   5.796 -0.0688 -0.0421 -0.2013
  285POPC   NC3 3842   3.747   6.984   4.024 -0.1910 -0.0852  0.0946
  285POPC   PO4 3843   3.371   6.797   4.237 -0.1339 -0.2753 -0.0045
  285POPC   GL1 3844   3.250   6.817   4.684  0.2306 -0.0841 -0.0936
  285POPC   GL2 3845   3.267   6.962   4.923 -0.1652 -0.1367  0.1455
  285POPC   C1A 3846   2.988   6.510   4.920 -0.2593 -0.0273 -0.0663
  285POPC   D2A 3847   2.953   6.226   5.321  0.1633 -0.0820 -0.1511
  285POPC   C3A 3848   3.090   6.249   5.741 -0.0888  0.1753 -0.0951
  285POPC   C4A 3849   3.240   6.384   6.121  0.0172  0.0796 -0.2325
  285POPC   C1B 3850   3.197   6.689   5.306 -0.0809 -0.1084  0.3181
  285POPC   C2B 3851   2.992   6.782   5.702 -0.0668  0.2958 -0.0772
  285POPC   C3B 3852   2.858   7.095   5.930 -0.0030 -0.0154  0.1240
  285POPC   C4B 3853   2.796   7.651   6.153 -0.1307 -0.0791  0.2696
  286POPC   NC3 3854   2.013   1.361   3.462  0.1007  0.3305 -0.1064
  286POPC   PO4 3855   2.228   1.764   3.715 -0.0268 -0.0466 -0.2361
  286POPC   GL1 3856   2.175   1.678   4.130  0.1077  0.2022  0.1766
  286POPC   GL2 3857   1.912   1.488   4.248  0.3230 -0.2787 -0.2763
  286POPC   C1A 3858   2.238   1.911   4.543  0.0782 -0.2446 -0.0001
  286POPC   D2A 3859   2.395   2.094   4.939  0.3297 -0.0250 -0.2022
  286POPC   C3A 3860   2.411   1.902   5.291  0.0354  0.0308  0.1018
  286POPC   C4A 3861   2.182   1.645   5.677 -0.1808 -0.2005  0.0286
  286POPC   C1B 3862   1.854   1.545   4.685 -0.1542 -0.4099 -0.0679
  286POPC   C2B 3863   1.912   1.979   4.905  0.1905  0.0944  0.2091
  286POPC   C3B 3864   1.963   2.071   5.346 -0.3829  0.1050  0.0112
  286POPC   C4B 3865   1.865   1.923   5.820  0.2239  0.0201 -0.2073
  287POPC   NC3 3866   4.486   9.561   3.922  0.1007 -0.1042  0.2213
  287POPC   PO4 3867   4.430   9.483   4.416 -0.1048  0.0405 -0.0268
  287POPC   GL1 3868   4.144   9.329   4.786 -0.0250 -0.0917 -0.1530
  287POPC   GL2 3869   4.143   8.997   4.816 -0.2125 -0.3753  0.0093
  287POPC   C1A 3870   4.158   9.554   5.127 -0.1005  0.1087  0.2769
  287POPC   D2A 3871   4.261  10.048   5.316 -0.0978 -0.1173 -0.2014
  287POPC   C3A 3872   4.773  10.071   5.420  0.0957 -0.0555  0.0250
  287POPC   C4A 3873   5.096   9.886   5.512  0.2368 -0.2495 -0.0775
  287POPC   C1B 3874   4.091   8.768   5.097  0.3043  0.0256 -0.1698
  287POPC   C2B 3875   4.012   8.686   5.497  0.3599  0.1800 -0.2283
  287POPC   C3B 3876   3.832   8.504   5.754 -0.2414  0.1868 -0.0751
  287POPC   C4B 3877   3.988   8.366   6.251  0.6356 -0.2220 -0.2294
  288POPC   NC3 3878   8.777   0.071   4.575 -0.3070  0.0100 -0.0746
  288POPC   PO4 3879   8.628   0.149   4.951  0.0717  0.0907  0.1285
  288POPC   GL1 3880   8.754   0.178   5.292  0.3283 -0.0937  0.2147
  288POPC   GL2 3881   9.013   0.549   5.364 -0.1679  0.0375  0.2416
  288POPC   C1A 3882   8.602   0.020   5.655  0.2597 -0.0817  0.1170
  288POPC   D2A 3883   8.429   0.018   6.014  0.2378 -0.0820 -0.0367
  288POPC   C3A 3884   8.608  -0.146   6.354 -0.1239 -0.3616  0.3175
  288POPC   C4A 3885   8.412  -0.368   6.762  0.1175  0.0579  0.1526
  288POPC   C1B 3886   9.311   0.483   5.626 -0.1707  0.3009  0.1057
  288POPC   C2B 3887   9.528   0.261   5.829 -0.1921  0.0976 -0.0553
  288POPC   C3B 3888   9.661  -0.077   6.095  0.0640 -0.3599  0.2609
  288POPC   C4B 3889   9.995  -0.193   6.380  0.2104  0.0034  0.1801
  289POPC   NC3 3890   4.217   8.626   4.453 -0.0013 -0.2715 -0.0937
  289POPC   PO4 3891   3.895   8.239   4.446  0.2792  0.0951  0.4735
  289POPC   GL1 3892   4.025   8.172   4.800 -0.0052 -0.2768  0.0510
  289POPC   GL2 3893   4.298   8.240   4.855  0.2693  0.1429  0.3022
  289POPC   C1A 3894   3.874   7.828   5.116 -0.0909  0.1769 -0.0868
  289POPC   D2A 3895   3.415   7.585   5.120  0.1365 -0.2862 -0.2120
  289POPC   C3A 3896   3.314   7.190   5.392  0.1914 -0.0753  0.1844
  289POPC   C4A 3897   3.312   7.215   5.799 -0.2670  0.1352 -0.1699
  289POPC   C1B 3898   4.123   8.229   5.348  0.0391 -0.0313  0.1688
  289POPC   C2B 3899   4.277   8.219   5.906 -0.0287  0.1258  0.1854
  289POPC   C3B 3900   4.552   8.387   6.115  0.0019 -0.1834 -0.0510
  289POPC   C4B 3901   4.867   8.727   6.184  0.3436  0.1269 -0.5696
  290POPC   NC3 3902   8.089   5.438   4.368 -0.0601  0.1868 -0.2534
  290POPC   PO4 3903   8.005   5.253   4.775 -0.2144 -0.1394  0.1279
  290POPC   GL1 3904   7.836   5.011   5.218 -0.2365 -0.2037 -0.0815
  290POPC   GL2 3905   7.571   5.161   5.298  0.0478 -0.0992 -0.0086
  290POPC   C1A 3906   8.039   4.732   5.527  0.1052  0.1049  0.0008
  290POPC   D2A 3907   8.101   4.659   5.991  0.1053  0.3302  0.2605
  290POPC   C3A 3908   8.352   4.650   6.340  0.2172 -0.0545 -0.0223
  290POPC   C4A 3909   8.631   4.426   6.631 -0.2027  0.0055 -0.2613
  290POPC   C1B 3910   7.540   5.025   5.714 -0.4103  0.1275 -0.1168
  290POPC   C2B 3911   7.656   4.900   6.153  0.2557  0.1199  0.0157
  290POPC   C3B 3912   7.848   4.675   6.557 -0.1479 -0.0131 -0.1746
  290POPC   C4B 3913   8.138   4.539   6.792  0.1424  0.4887  0.1203
  291POPC   NC3 3914   9.630   1.531   4.153 -0.1485  0.0621  0.0404
  291POPC   PO4 3915   9.322   1.476   4.478 -0.0677  0.1665  0.0541
  291POPC   GL1 3916   9.221   1.565   4.851 -0.1250  0.1276  0.0260
  291POPC   GL2 3917   9.242   1.395   5.130 -0.1490 -0.1801  0.2184
  291POPC   C1A 3918   9.158   1.934   5.218  0.3272 -0.1971  0.2155
  291POPC   D2A 3919   8.781   2.006   5.375  0.0047 -0.1472  0.1032
  291POPC   C3A 3920   8.714   2.262   5.726  0.5299 -0.1298  0.0814
  291POPC   C4A 3921   8.495   2.393   5.930 -0.4181 -0.1414 -0.1183
  291POPC   C1B 3922   8.959   1.452   5.440 -0.2051  0.2363 -0.3168
  291POPC   C2B 3923   8.739   1.348   5.815  0.0330  0.2408 -0.3302
  291POPC   C3B 3924   8.974   1.380   6.249 -0.1060 -0.1953 -0.1973
  291POPC   C4B 3925   8.855   1.643   6.596 -0.0607 -0.1846  0.0725
  292POPC   NC3 3926   3.366   2.671   3.253  0.0880  0.0090 -0.2650
  292POPC   PO4 3927   3.000   2.479   3.186 -0.0964 -0.0679  0.2235
  292POPC   GL1 3928   3.019   2.612   3.581  0.2303  0.0203  0.0942
  292POPC   GL2 3929   3.224   2.970   3.638  0.0397 -0.1755 -0.0604
  292POPC   C1A 3930   2.838   2.888   3.908 -0.0814  0.1741  0.2846
  292POPC   D2A 3931   2.639   2.806   4.287 -0.0402  0.0835 -0.0618
  292POPC   C3A 3932   2.189   2.801   4.453  0.2224  0.0391  0.1172
  292POPC   C4A 3933   1.841   2.863   4.273  0.5355  0.0511  0.0297
  292POPC   C1B 3934   3.004   3.341   3.774 -0.0755 -0.2562 -0.2153
  292POPC   C2B 3935   2.824   3.316   4.202  0.0300  0.1763 -0.2684
  292POPC   C3B 3936   2.872   3.418   4.642 -0.1941 -0.2241  0.0829
  292POPC   C4B 3937   2.661   3.395   5.081  0.2249  0.0378  0.0722
  293POPC   NC3 3938   2.620   6.251   3.977  0.0279  0.1139  0.0851
  293POPC   PO4 3939   2.952   6.017   4.210 -0.1393  0.2360  0.2252
  293POPC   GL1 3940   2.646   5.790   4.491 -0.0707  0.3204  0.1685
  293POPC   GL2 3941   2.746   5.793   4.781  0.2246 -0.0154  0.0557
  293POPC   C1A 3942   2.574   5.357   4.565 -0.3019 -0.1658 -0.3109
  293POPC   D2A 3943   2.218   5.125   4.563 -0.0076  0.2972  0.1029
  293POPC   C3A 3944   1.830   5.092   4.538  0.3715  0.0925  0.0368
  293POPC   C4A 3945   1.589   5.028   4.257 -0.0240 -0.1498  0.2422
  293POPC   C1B 3946   2.697   5.764   5.231 -0.2618 -0.0550  0.0444
  293POPC   C2B 3947   2.767   5.850   5.655 -0.0606 -0.0691 -0.0205
  293POPC   C3B 3948   2.477   5.817   6.011  0.1036 -0.0011 -0.0105
  293POPC   C4B 3949   2.162   5.800   6.130  0.0390  0.0711 -0.0397
  294POPC   NC3 3950   1.710   4.430   3.048  0.1145 -0.0206 -0.1567
  294POPC   PO4 3951   2.263   4.506   3.078  0.4084  0.0336 -0.2394
  294POPC   GL1 3952   1.913   4.803   3.303  0.0364  0.2602 -0.0374
  294POPC   GL2 3953   2.114   4.960   3.500 -0.1785 -0.0473  0.1317
  294POPC   C1A 3954   1.428   4.943   3.550 -0.1443  0.1189 -0.2851
  294POPC   D2A 3955   1.198   5.036   3.879  0.5107  0.0349  0.1562
  294POPC   C3A 3956   1.226   4.630   4.135 -0.1379  0.1124 -0.0501
  294POPC   C4A 3957   0.903   4.522   4.463 -0.1089 -0.1809  0.0577
  294POPC   C1B 3958   1.905   4.690   3.800  0.3195  0.0222 -0.1379
  294POPC   C2B 3959   1.708   4.483   4.189 -0.0930 -0.2882  0.0759
  294POPC   C3B 3960   1.553   4.209   4.609 -0.0021  0.1799 -0.1256
  294POPC   C4B 3961   1.166   4.327   4.905 -0.1046 -0.1013 -0.1357
  295POPC   NC3 3962   4.520   7.366   4.274 -0.0443 -0.2688  0.3101
  295POPC   PO4 3963   4.735   7.401   4.595 -0.2186  0.0627  0.0423
  295POPC   GL1 3964   4.565   7.252   4.980  0.0141 -0.0470  0.0740
  295POPC   GL2 3965   4.716   7.036   5.007  0.1164  0.0097 -0.0013
  295POPC   C1A 3966   4.205   7.241   5.314 -0.3790 -0.0058  0.0507
  295POPC   D2A 3967   3.826   7.387   5.483 -0.1187  0.2043  0.0576
  295POPC   C3A 3968   3.703   7.682   5.634  0.1624 -0.0048  0.0602
  295POPC   C4A 3969   3.798   8.030   5.857  0.1028  0.0181  0.2494
  295POPC   C1B 3970   4.804   6.965   5.444  0.2167 -0.2331  0.4182
  295POPC   C2B 3971   4.908   7.143   5.752 -0.1630  0.0472 -0.1043
  295POPC   C3B 3972   4.892   7.314   6.195 -0.1172 -0.1404  0.2860
  295POPC   C4B 3973   4.651   7.479   6.488 -0.2356 -0.1645  0.3502
  296POPC   NC3 3974   0.884   8.244   4.061  0.1268  0.0551 -0.0910
  296POPC   PO4 3975   1.172   8.474   4.372 -0.2769 -0.1969 -0.1089
  296POPC   GL1 3976   1.179   8.149   4.712  0.0126 -0.0785  0.1714
  296POPC   GL2 3977   1.240   7.860   4.796 -0.2343 -0.1095 -0.0206
  296POPC   C1A 3978   1.130   8.091   5.235  0.1943  0.0342 -0.1581
  296POPC   D2A 3979   1.238   7.848   5.669 -0.1525  0.1669  0.1091
  296POPC   C3A 3980   0.994   7.962   5.955 -0.2282  0.1541 -0.2491
  296POPC   C4A 3981   0.633   8.027   6.246  0.0350  0.1431 -0.1837
  296POPC   C1B 3982   0.898   7.683   5.050 -0.2039 -0.2373  0.1163
  296POPC   C2B 3983   0.788   7.644   5.452  0.2319 -0.0811 -0.1304
  296POPC   C3B 3984   0.705   7.566   5.880  0.4133 -0.1547  0.4562
  296POPC   C4B 3985   0.450   7.499   6.210 -0.2800 -0.2555 -0.1771
  297POPC   NC3 3986   9.482   3.423   4.266 -0.2065 -0.2043  0.0584
  297POPC   PO4 3987   9.212   3.016   4.219 -0.1037  0.2889 -0.0414
  297POPC   GL1 3988   9.116   3.148   4.618  0.0015 -0.0608  0.2728
  297POPC   GL2 3989   9.382   2.792   4.734  0.0714 -0.1852  0.0469
  297POPC   C1A 3990   9.113   2.981   5.094  0.1196 -0.0348 -0.3230
  297POPC   D2A 3991   9.330   3.039   5.535 -0.0094  0.3015 -0.2393
  297POPC   C3A 3992   9.306   2.824   5.926 -0.0473  0.0514  0.0723
  297POPC   C4A 3993   9.662   2.856   6.208  0.0527 -0.1603  0.1654
  297POPC   C1B 3994   9.768   2.831   4.947 -0.1054 -0.0833  0.0704
  297POPC   C2B 3995   9.862   2.599   5.381 -0.0046  0.0660  0.2171
  297POPC   C3B 3996   9.780   2.498   5.802 -0.0504 -0.1249 -0.1949
  297POPC   C4B 3997  10.053   2.328   6.203  0.1508 -0.1073 -0.1039
  298POPC   NC3 3998   0.410   9.072   5.098 -0.2018  0.0527  0.1927
  298POPC   PO4 3999   0.479   9.375   4.741 -0.0648  0.0486 -0.0808
  298POPC   GL1 4000   0.468   9.568   5.175  0.0237  0.1608 -0.2150
  298POPC   GL2 4001   0.760   9.690   5.142 -0.0722  0.0675  0.0794
  298POPC   C1A 4002   0.350   9.471   5.606  0.3755 -0.1251 -0.0523
  298POPC   D2A 4003   0.638   9.448   5.969  0.1445  0.0989 -0.1234
  298POPC   C3A 4004   0.815   9.897   6.040  0.0650 -0.0591 -0.3452
  298POPC   C4A 4005   0.881  10.338   5.859 -0.0788  0.2047  0.0820
  298POPC   C1B 4006   1.195   9.584   5.270  0.0139 -0.0585  0.1188
  298POPC   C2B 4007   1.421   9.613   5.578 -0.3276  0.1300  0.1897
  298POPC   C3B 4008   1.677   9.854   5.927 -0.1240 -0.0349 -0.0344
  298POPC   C4B 4009   1.820  10.049   6.252 -0.1787  0.0580 -0.0405
  299POPC   NC3 4010   4.836   5.717   4.486 -0.1446  0.1340 -0.0074
  299POPC   PO4 4011   4.621   5.410   4.267  0.3147  0.1393  0.1989
  299POPC   GL1 4012   4.685   5.191   4.612  0.0868 -0.1416 -0.0731
  299POPC   GL2 4013   4.989   5.011   4.805 -0.0695 -0.0041  0.2506
  299POPC   C1A 4014   4.470   4.896   4.765  0.1654  0.2876 -0.2084
  299POPC   D2A 4015   4.308   4.715   5.172 -0.1710  0.1654  0.1352
  299POPC   C3A 4016   4.342   4.896   5.568 -0.3542  0.0612 -0.3230
  299POPC   C4A 4017   4.132   5.134   5.913 -0.1478 -0.5515  0.0669
  299POPC   C1B 4018   4.709   5.061   5.131 -0.0606  0.0913  0.4719
  299POPC   C2B 4019   4.552   5.437   5.338 -0.1957  0.2028 -0.2589
  299POPC   C3B 4020   4.557   5.511   5.758 -0.0231 -0.3950 -0.0226
  299POPC   C4B 4021   4.618   5.530   6.168  0.0723  0.2790  0.1547
  300POPC   NC3 4022   3.416   9.609   4.364  0.1042 -0.0233 -0.3174
  300POPC   PO4 4023   3.343  10.091   4.405 -0.1222  0.1675 -0.1131
  300POPC   GL1 4024   3.477  10.452   4.623 -0.1670 -0.0183 -0.2724
  300POPC   GL2 4025   3.889  10.453   4.870  0.0221  0.4080 -0.2461
  300POPC   C1A 4026   3.430  10.634   5.076 -0.1337  0.3560 -0.3751
  300POPC   D2A 4027   3.316  10.708   5.513  0.1453 -0.0377  0.2197
  300POPC   C3A 4028   3.609  10.700   5.822 -0.2135 -0.1213 -0.1248
  300POPC   C4A 4029   4.088  10.740   5.891  0.1377 -0.0756 -0.2306
  300POPC   C1B 4030   3.792  10.443   5.345  0.0891  0.2016  0.2440
  300POPC   C2B 4031   3.871  10.294   5.740 -0.4442  0.2965 -0.2516
  300POPC   C3B 4032   3.815  10.410   6.185 -0.2172  0.2145 -0.1132
  300POPC   C4B 4033   3.697  10.646   6.474  0.2581  0.1168 -0.0953
  301POPC   NC3 4034   4.176   1.610   3.600 -0.1860  0.0744  0.3518
  301POPC   PO4 4035   3.952   1.427   3.859 -0.0934 -0.1767  0.2097
  301POPC   GL1 4036   3.931   1.676   4.271  0.1200  0.0572 -0.0903
  301POPC   GL2 4037   3.648   1.949   4.338 -0.3070  0.1965  0.0150
  301POPC   C1A 4038   4.181   1.676   4.576  0.0169 -0.0522  0.0839
  301POPC   D2A 4039   4.199   1.813   5.019 -0.3142 -0.1770  0.0435
  301POPC   C3A 4040   3.939   2.088   5.048 -0.0639 -0.3148  0.0640
  301POPC   C4A 4041   3.558   2.413   5.232 -0.1011  0.0336  0.0161
  301POPC   C1B 4042   3.515   2.153   4.678  0.1589 -0.0093  0.0109
  301POPC   C2B 4043   3.216   2.190   4.980  0.1901 -0.0877 -0.0476
  301POPC   C3B 4044   2.817   2.318   5.090  0.2083  0.1989 -0.0385
  301POPC   C4B 4045   2.570   2.623   4.895  0.0628  0.1888  0.0440
  302W        W 4046   5.975   0.807  11.550 -0.0357 -0.0350 -0.2253
  303W        W 4047   8.880   7.808   0.793 -0.0632 -0.1244 -0.1131
  304W        W 4048   0.806   7.091  12.845 -0.1340 -0.3979  0.0705
  305W        W 4049   0.425   4.665   1.967 -0.2188  0.3531  0.0199
  306W        W 4050   6.476   7.803   3.391 -0.5334  0.1078 -0.0378
  307W        W 4051   2.303   7.136   2.312 -0.0941  0.4184 -0.1716
  308W        W 4052   3.986   3.740   2.650 -0.2128 -0.2913 -0.1892
  309W        W 4053   8.137   4.551   1.456 -0.3514 -0.2844  0.2059
  310W        W 4054   6.018   3.824  11.793 -0.3181 -0.2435  0.0701
  311W        W 4055   6.963   1.386   1.333  0.0948 -0.0072 -0.1378
  312W        W 4056   6.358   2.958   1.671  0.2902 -0.1422 -0.1518
  313W        W 4057   6.086   4.091  12.813  0.1958 -0.1558  0.0093
  314W        W 4058   4.195   7.180  10.781  0.1452 -0.0779 -0.2082
  315W        W 4059   0.121   7.686  11.536 -0.0200 -0.0714  0.3355
  316W        W 4060   1.262   3.818  11.721 -0.1768 -0.0905 -0.0337
  317W        W 4061   2.260   7.228   2.865  0.1744 -0.2246  0.0336
  318W        W 4062   2.285   0.751   1.735 -0.1085  0.1519 -0.2463
  319W        W 4063   5.388   8.129  10.717  0.2418 -0.1075  0.2442
  320W        W 4064   5.748   5.436   0.230  0.3620  0.0829  0.2545
  321W        W 4065   4.265   0.201  10.926  0.0777 -0.1578 -0.0702
  322W        W 4066   2.527   7.963   0.080  0.0623 -0.0239 -0.2343
  323W        W 4067   8.093   2.142   0.259  0.0599  0.0003 -0.0873
  324W        W 4068   8.154   7.229   1.544 -0.0138  0.1148 -0.1096
  325W        W 4069   7.200   6.266  11.121  0.0919  0.0230 -0.0698
  326W        W 4070   7.779   5.829   4.163 -0.0641 -0.0224  0.0363
  327W        W 4071   0.536   9.079  11.468  0.0370  0.0417 -0.0353
  328W        W 4072   6.705   6.719   0.903  0.3100  0.1739  0.0995
  329W        W 4073   1.951   6.469  10.548  0.0031 -0.0163  0.0711
  330W        W 4074   6.870   1.062   1.767 -0.2732 -0.2026  0.0513
  331W        W 4075   0.840   6.493   1.935  0.0585  0.1308 -0.0661
  332W        W 4076   4.990   5.980   2.375 -0.1740  0.0431 -0.1595
  333W        W 4077   5.969   1.688   2.265 -0.2168 -0.0828 -0.0649
  334W        W 4078   9.426   2.790   3.242 -0.0447 -0.3265 -0.0564
  335W        W 4079   1.631   8.246   4.442 -0.1019  0.0848  0.3043
  336W        W 4080   0.400   5.253   2.183 -0.0241 -0.0628  0.0513
  337W        W 4081   8.378   4.855  12.809  0.1842  0.2907  0.0624
  338W        W 4082   1.488   6.735   3.521  0.2273 -0.0617  0.2864
  339W        W 4083   1.722   1.317  10.040  0.5249  0.2957  0.0017
  340W        W 4084   1.107   1.407   0.637 -0.0689 -0.1556  0.2743
  341W        W 4085   7.006   7.412   1.652 -0.1276  0.0217 -0.0892
  342W        W 4086   8.912   0.058   2.894  0.0142 -0.1198 -0.0670
  343W        W 4087   8.081   3.892  10.547 -0.0210  0.0236  0.2632
  344W        W 4088   1.251   1.493  11.074 -0.2478  0.1123 -0.1405
  345W        W 4089   2.979   7.493   2.897 -0.2099 -0.1107 -0.1390
  346W        W 4090   3.350   7.779  10.599  0.0577  0.2401  0.0436
  347W        W 4091   6.019   8.265  10.124  0.0640 -0.0754  0.2552
  348W        W 4092   4.873   9.768  10.596 -0.3861  0.3774  0.2474
  349W        W 4093   7.132   1.074   2.495 -0.0592 -0.2759  0.0452
  350W        W 4094   9.029   3.929   9.680  0.2880 -0.3258  0.1628
  351W        W 4095   3.579   6.916  11.451 -0.2244  0.0946  0.0315
  352W        W 4096   6.702   9.619   0.386  0.0954  0.0466  0.0954
  353W        W 4097   2.538   7.896   0.582 -0.0392  0.0051 -0.0669
  354W        W 4098   4.904   6.017   9.919 -0.0774 -0.2300  0.1745
  355W        W 4099   7.178   6.987  11.795  0.0903  0.1124 -0.1346
  356W        W 4100   3.306   7.417   9.252  0.0528  0.2728 -0.1586
  357W        W 4101   6.780   0.239   4.182 -0.0475 -0.1078 -0.0651
  358W        W 4102   7.221   2.065   0.323  0.0362 -0.0663  0.0970
  359W        W 4103   7.823   7.695  12.428  0.1361 -0.0449  0.0768
  360W        W 4104   1.603   1.913   2.745 -0.2080  0.0858  0.2490
  361W        W 4105   1.625   1.554   9.268 -0.0634  0.2503 -0.0134
  362W        W 4106   9.864   4.823  10.375  0.2339 -0.1328  0.2224
  363W        W 4107   0.777   2.212   3.552 -0.0146  0.1338  0.0276
  364W        W 4108   4.492   8.259   4.321 -0.1826 -0.0112 -0.2020
  365W        W 4109   3.137   7.468  10.031 -0.0918 -0.1593  0.0309
  366W        W 4110   1.473   0.448   0.715  0.1422 -0.0856 -0.2800
  367W        W 4111   3.691   0.932   2.161 -0.3800 -0.1968  0.1439
  368W        W 4112   5.510   5.010  11.118  0.0751 -0.0112  0.0720
  369W        W 4113   2.943   1.251   3.412  0.1506  0.0517  0.1746
  370W        W 4114   5.790   3.616   2.158  0.2849 -0.3286  0.1201
  371W        W 4115   7.926   6.588  11.895 -0.0142 -0.2913  0.0832
  372W        W 4116   7.908   6.801  11.336  0.1436 -0.1597 -0.1660
  373W        W 4117   9.369   3.862   2.548  0.2918 -0.3116  0.0985
  374W        W 4118   4.952   2.986  11.812  0.4675 -0.1562  0.1039
  375W        W 4119   3.005   9.444  11.320  0.0118 -0.0016 -0.1104
  376W        W 4120   4.003   3.994  12.045  0.0562  0.0425 -0.3174
  377W        W 4121   5.862   1.304  12.165 -0.0112 -0.1778 -0.0459
  378W        W 4122   4.134   1.559   1.638 -0.1098  0.3017 -0.0863
  379W        W 4123   0.240   8.990   0.994  0.2181  0.2821 -0.1144
  380W        W 4124   6.970   4.015   1.337 -0.0354 -0.2472 -0.0605
  381W        W 4125   3.403   3.095  12.747 -0.3247  0.0013  0.1583
  382W        W 4126   8.081   8.069   1.866 -0.0679 -0.0809 -0.0912
  383W        W 4127   5.128   4.229   1.178  0.4575 -0.0272 -0.0513
  384W        W 4128   8.265   4.863   2.860  0.0679  0.0671  0.1152
  385W        W 4129   0.273   4.690   9.635  0.1238  0.1511  0.0681
  386W        W 4130   5.638   7.389   1.787  0.1503  0.0034  0.0377
  387W        W 4131   3.790   3.402   1.596 -0.1822 -0.0067 -0.2179
  388W        W 4132   7.551   3.282   0.754 -0.3430 -0.1140  0.1043
  389W        W 4133   0.913   5.105  12.140  0.4006  0.1419 -0.3680
  390W        W 4134   8.239   7.541   8.996  0.1273  0.2538 -0.0019
  391W        W 4135   5.122   4.249  12.254 -0.2892  0.2847 -0.2061
  392W        W 4136   9.716   5.930  10.216  0.1123  0.2010  0.2041
  393W        W 4137   2.786   0.452   3.443 -0.3039 -0.0205  0.2445
  394W        W 4138   4.252   1.756   1.187 -0.3723  0.1951 -0.2511
  395W        W 4139   2.533   3.791  10.603 -0.1694 -0.1626  0.1749
  396W        W 4140   8.809   8.435   9.920 -0.0472 -0.0127  0.0600
  397W        W 4141   0.025   0.996  12.825 -0.1739 -0.1524  0.0801
  398W        W 4142   8.181   6.754  12.426 -0.4239  0.1973 -0.0647
  399W        W 4143   3.346   8.003   4.376  0.3524  0.2236  0.1644
  400W        W 4144   5.649   4.227   9.433 -0.0363  0.0540  0.0653
  401W        W 4145   4.539   2.352   0.309 -0.1121  0.3279  0.1025
  402W        W 4146   1.889   8.120   8.826 -0.0220  0.0165 -0.0032
  403W        W 4147   6.529   7.219   3.542 -0.0317  0.1169  0.1788
  404W        W 4148   5.058   2.485  12.057 -0.0065  0.0140  0.1522
  405W        W 4149   1.687   6.665  12.841  0.2987 -0.2083  0.0440
  406W        W 4150   0.208   0.206   4.395  0.2282 -0.0711 -0.0358
  407W        W 4151   8.303   5.687  11.476  0.2754 -0.0549 -0.5180
  408W        W 4152   3.365   5.034  10.023  0.0597  0.0767 -0.1849
  409W        W 4153   2.466   5.865   9.617 -0.0281 -0.0721 -0.0364
  410W        W 4154   9.838   6.137  11.785  0.0342  0.0731  0.2504
  411W        W 4155   4.799   3.005   9.823 -0.0951  0.1922 -0.2228
  412W        W 4156   7.821   3.819  10.004 -0.0094 -0.4619  0.0550
  413W        W 4157   5.582   5.302   4.992 -0.4047 -0.2801 -0.3778
  414W        W 4158   7.096   7.562   0.714  0.0904  0.1805  0.2502
  415W        W 4159   1.229   4.177  12.266 -0.0444 -0.0309  0.1523
  416W        W 4160   5.041   5.132   2.496  0.0717 -0.1180 -0.0312
  417W        W 4161   0.184   4.551   1.038 -0.2806  0.3447  0.0474
  418W        W 4162   1.484   1.408   2.630 -0.3058 -0.0131 -0.2163
  419W        W 4163   0.482   9.216   2.868 -0.2365  0.3396  0.2297
  420W        W 4164   3.573   1.299  12.745 -0.0822 -0.0298 -0.0711
  421W        W 4165   7.461   5.769  12.507 -0.0458 -0.1680  0.0817
  422W        W 4166   5.503   0.788  10.834  0.0108 -0.2457  0.1618
  423W        W 4167   9.644   1.285  10.359 -0.2157  0.2178 -0.3216
  424W        W 4168   7.153   3.062   0.487 -0.2330 -0.0448  0.1566
  425W        W 4169   5.087   2.790  11.219 -0.2301 -0.0656  0.0906
  426W        W 4170   5.017   9.453   1.110  0.0765 -0.0938  0.1149
  427W        W 4171   0.434   2.682  11.850 -0.0923  0.1195  0.0423
  428W        W 4172   2.715   1.544   2.685  0.0709 -0.1554 -0.0963
  429W        W 4173   2.306   1.355   0.292  0.1860 -0.0782  0.0418
  430W        W 4174   7.606   1.066  11.132 -0.0813 -0.1105  0.0568
  431W        W 4175   7.081   2.532   3.899  0.4999 -0.1382 -0.2946
  432W        W 4176   2.315   2.364  12.043 -0.0411  0.0810  0.1214
  433W        W 4177   1.694   0.587   9.699 -0.1337  0.0069  0.0568
  434W        W 4178   0.082   5.437   0.747  0.3233 -0.2022 -0.2139
  435W        W 4179   5.626   6.038  11.795 -0.1001  0.1319 -0.1155
  436W        W 4180   9.462   5.505  10.407  0.0058 -0.0463 -0.1383
  437W        W 4181   2.206   7.214  10.076 -0.3044  0.3413 -0.3262
  438W        W 4182   8.166   2.685   9.739  0.2027  0.2086 -0.3698
  439W        W 4183   4.536   6.944  11.788  0.2996  0.0810 -0.0707
  440W        W 4184   7.768   3.483   1.537 -0.2031  0.1188  0.3614
  441W        W 4185   7.341   8.951   3.509  0.1331 -0.1254  0.2434
  442W        W 4186   4.170   5.807   0.493 -0.1064  0.1030 -0.2557
  443W        W 4187   0.220   6.550  10.439  0.3249  0.0199 -0.2616
  444W        W 4188   4.755   3.368   2.167 -0.2467 -0.1527  0.0440
  445W        W 4189   0.233   5.578   9.920 -0.1564 -0.0116 -0.0075
  446W        W 4190   4.054   7.510  10.378 -0.0440 -0.1619 -0.0630
  447W        W 4191   2.876   9.016  10.991  0.1691 -0.0387  0.0976
  448W        W 4192   6.276   4.195  11.979  0.4458 -0.0759 -0.0991
  449W        W 4193   4.330   0.247   9.554  0.0323 -0.0632 -0.3963
  450W        W 4194   8.330   3.609  11.547 -0.0416 -0.0555 -0.1921
  451W        W 4195   1.676   7.119   3.859  0.0538 -0.0245 -0.1091
  452W        W 4196   5.048   7.520   1.064  0.3605  0.1785 -0.1119
  453W        W 4197   7.919   3.742   1.996  0.0715  0.3663 -0.1176
  454W        W 4198   8.720   2.873   9.548  0.0386  0.0239  0.3527
  455W        W 4199   4.246   9.636   9.847 -0.1442 -0.0172 -0.1444
  456W        W 4200   9.435   1.630  12.254  0.0011  0.2696 -0.2641
  457W        W 4201   5.237   4.297   2.348  0.0254 -0.2462 -0.3428
  458W        W 4202   8.700   7.943   9.741 -0.2161 -0.0615  0.1838
  459W        W 4203   4.367   5.880   9.187  0.3622 -0.0768  0.2518
  460W        W 4204   8.292   2.170   9.591  0.1397  0.1441  0.0558
  461W        W 4205   2.871   6.796  10.459 -0.0785 -0.1185 -0.0904
  462W        W 4206   9.020   5.764  12.115  0.2388  0.1893  0.0415
  463W        W 4207   7.049   4.946   0.400 -0.1252 -0.3575  0.2698
  464W        W 4208   4.636   1.492  10.109  0.2148 -0.1789 -0.0021
  465W        W 4209   6.766   0.191   8.824  0.1957 -0.1637  0.3695
  466W        W 4210   4.821   8.889   9.212  0.1354 -0.1744  0.1954
  467W        W 4211   5.718   4.976  12.275 -0.1876  0.2079  0.0077
  468W        W 4212   8.466   4.388   1.041  0.2482 -0.1524  0.0642
  469W        W 4213   9.033   3.202   0.790 -0.0133  0.0610 -0.2335
  470W        W 4214   8.315   9.733   3.654 -0.0238  0.1709 -0.2397
  471W        W 4215   0.345   6.995   3.447 -0.1528  0.3932 -0.1930
  472W        W 4216   9.652   5.491   1.672 -0.1909  0.1068  0.0016
  473W        W 4217   8.657   7.596  12.506 -0.3371  0.1433  0.0353
  474W        W 4218   3.185   6.924   9.117  0.0741  0.0649  0.2452
  475W        W 4219   6.129   7.927  12.830 -0.0764 -0.1523  0.1119
  476W        W 4220   0.444   2.515  11.336  0.1571  0.1135 -0.1037
  477W        W 4221   1.090   7.245   9.244  0.1770 -0.1915 -0.2515
  478W        W 4222   7.915   4.428   2.778  0.4147  0.1212 -0.1835
  479W        W 4223   9.555   1.005   1.188  0.3121  0.1338  0.3702
  480W        W 4224   6.840   1.206   2.895  0.3825  0.2607 -0.1261
  481W        W 4225   6.491   8.188   2.294 -0.2125  0.3267 -0.0441
  482W        W 4226   8.644   2.656  10.283  0.0416 -0.2307  0.0787
  483W        W 4227   7.826   1.649   2.955 -0.0740  0.1245  0.0960
  484W        W 4228   4.229   6.104  10.516 -0.2172 -0.0868 -0.0033
  485W        W 4229   7.196   4.452   1.351  0.0475 -0.1594  0.0211
  486W        W 4230   0.409   9.726   2.755  0.5077  0.0887  0.0225
  487W        W 4231   6.197   6.023  11.543  0.0123 -0.1141  0.3434
  488W        W 4232   8.755   6.749   2.723  0.2289  0.2128  0.0645
  489W        W 4233   2.872   2.666   0.473  0.0762 -0.1259  0.1118
  490W        W 4234   2.737   3.906  12.342 -0.0318  0.2452  0.1738
  491W        W 4235   6.973   8.920  11.434 -0.0873  0.1770  0.2711
  492W        W 4236   6.505   0.080  11.905  0.0168 -0.2038 -0.0256
  493W        W 4237   9.727   4.137  10.498  0.2382 -0.0723  0.1214
  494W        W 4238   6.358   5.907  10.721  0.1710 -0.1088  0.3280
  495W        W 4239   5.993   7.371   9.585 -0.0261 -0.2616 -0.1159
  496W        W 4240   6.248   7.823   2.010  0.0849  0.1007 -0.2438
  497W        W 4241   7.307   6.963   3.196  0.1648 -0.2700  0.0867
  498W        W 4242   9.402   2.322   3.476 -0.2721 -0.3971  0.1029
  499W        W 4243   6.821   8.132   1.549  0.1531 -0.3198 -0.2762
  500W        W 4244   1.632   4.712   0.147 -0.3170  0.4435 -0.0080
  501W        W 4245   9.483   6.997   1.972 -0.2300 -0.3610  0.0389
  502W        W 4246   1.499   3.943   1.584  0.3790 -0.4932  0.1623
  503W        W 4247   7.862   9.913  11.289 -0.1569  0.1300  0.1511
  504W        W 4248   7.755   0.937   9.587  0.1020 -0.0176 -0.0833
  505W        W 4249   4.325   7.559  11.180  0.1343  0.1131  0.0044
  506W        W 4250   0.489   3.368   1.161  0.3181 -0.0625 -0.0355
  507W        W 4251   7.172   0.417   4.440 -0.0565  0.1518 -0.0609
  508W        W 4252   1.537   9.875   8.941  0.1923  0.2927  0.1137
  509W        W 4253   8.243   8.913   4.168 -0.1678  0.0637  0.1215
  510W        W 4254   7.612   1.281   4.232 -0.0353 -0.3138  0.1744
  511W        W 4255   6.260   7.955  11.521  0.0870 -0.0789  0.2114
  512W        W 4256   8.758   4.783   8.969 -0.1712 -0.3696  0.1650
  513W        W 4257   3.403   9.375   9.859  0.1167  0.3388  0.0821
  514W        W 4258   0.262   5.328  12.144  0.1283 -0.1260  0.0846
  515W        W 4259   5.275   5.423   8.592 -0.0660  0.1266  0.0600
  516W        W 4260   7.958   3.290  10.076  0.0847 -0.3265  0.1683
  517W        W 4261   6.857   7.792   3.000 -0.0310  0.1461  0.0720
  518W        W 4262   4.587   4.367   0.463  0.3162  0.1135 -0.2028
  519W        W 4263   8.447   6.934  10.905 -0.0717 -0.2655  0.2685
  520W        W 4264   7.002   0.860  12.879 -0.1889  0.2553  0.4683
  521W        W 4265   8.552   3.002   2.802 -0.0838  0.0090  0.1862
  522W        W 4266   7.503   5.887  11.247 -0.1148 -0.2112 -0.1368
  523W        W 4267   2.080   5.503   1.659 -0.1816 -0.1033 -0.2492
  524W        W 4268   1.042   5.399  10.315  0.1488 -0.1080  0.0653
  525W        W 4269   9.149   7.373   1.647  0.3612 -0.2329  0.0611
  526W        W 4270   6.233   6.851   2.751  0.0709  0.0926  0.5059
  527W        W 4271   3.972   1.066  11.140  0.1032  0.2470  0.0649
  528W        W 4272   7.791   6.472   2.500  0.1054 -0.1785  0.0968
  529W        W 4273   9.521   0.108   1.240 -0.0544 -0.0237 -0.0543
  530W        W 4274   3.541   5.606  11.047 -0.1570  0.1089  0.2100
  531W        W 4275   0.613   0.250   2.776  0.1035  0.2080 -0.0471
  532W        W 4276   5.935   6.799   4.795  0.1234 -0.2725  0.0148
  533W        W 4277   5.024   8.988   2.665  0.2575 -0.1419  0.1780
  534W        W 4278   1.362   0.174  10.616  0.1680  0.0090 -0.1930
  535W        W 4279   8.518   3.775   2.911  0.1978  0.2133  0.0115
  536W        W 4280   7.789   5.495   3.710  0.2644  0.1509  0.0661
  537W        W 4281   9.004   2.584  10.672 -0.2722 -0.1587  0.0441
  538W        W 4282   5.561   8.960  11.836 -0.1162 -0.1123  0.0340
  539W        W 4283   4.039   6.022  12.368 -0.0451  0.0020  0.2375
  540W        W 4284   5.826   9.646   8.222  0.0933  0.2182 -0.2100
  541W        W 4285   8.779   2.530   2.492 -0.3069 -0.2856 -0.1246
  542W        W 4286   8.389   8.545   2.726 -0.1366  0.2332 -0.0162
  543W        W 4287   0.773   8.522   0.644  0.4650 -0.0301 -0.3490
  544W        W 4288   4.191   8.355   3.981 -0.0888  0.1844  0.0356
  545W        W 4289   5.193   2.481  12.834  0.4614  0.4002  0.0351
  546W        W 4290   6.175   8.023   0.817  0.2038 -0.0136  0.1795
  547W        W 4291   4.878   9.748  12.648  0.1220 -0.3112  0.0129
  548W        W 4292   1.444   8.333   1.484  0.0919 -0.1710 -0.2550
  549W        W 4293   8.405   5.964  10.267  0.1738 -0.1953  0.0978
  550W        W 4294   2.245   9.549  10.166 -0.4498  0.4493 -0.1618
  551W        W 4295   8.639   4.240   9.843 -0.1774  0.1129  0.0470
  552W        W 4296   9.244   8.241   0.256  0.1510 -0.0322 -0.0020
  553W        W 4297   6.272   1.954   3.649 -0.0253 -0.1001  0.3195
  554W        W 4298   5.705   0.338   1.785  0.1426  0.2737  0.0174
  555W        W 4299   5.497   9.807   2.536  0.2088  0.0774 -0.0873
  556W        W 4300   8.525   2.377   8.619  0.3322  0.3818 -0.0348
  557W        W 4301   7.059   6.166   8.670  0.4040 -0.0847 -0.1718
  558W        W 4302   5.664   5.818  10.731  0.0859 -0.1535 -0.1951
  559W        W 4303   4.252   4.549   1.225  0.2278 -0.0296 -0.3613
  560W        W 4304   4.405   0.160   1.349  0.0699  0.1393  0.0905
  561W        W 4305   4.160   3.929  10.597 -0.1616 -0.2978 -0.1195
  562W        W 4306   9.607   3.338  11.801  0.4074 -0.0356  0.3363
  563W        W 4307   6.317   0.364   4.285 -0.2663 -0.0323 -0.1469
  564W        W 4308   7.687   7.999   4.322 -0.0271 -0.0442 -0.1283
  565W        W 4309   4.379   5.537   2.798  0.1015 -0.0901 -0.1247
  566W        W 4310   7.393   1.946   9.816 -0.0855 -0.1459  0.1012
  567W        W 4311   8.047   8.270  10.613 -0.1275  0.3083 -0.1558
  568W        W 4312   3.842   2.518   3.131 -0.0901 -0.0189  0.2323
  569W        W 4313   2.890   6.841   3.479  0.0374  0.0927  0.1697
  570W        W 4314   4.499   1.947  10.329 -0.0310  0.0229 -0.1441
  571W        W 4315   0.781   4.352   2.699 -0.2836 -0.1402  0.2637
  572W        W 4316   8.431   9.787   2.028 -0.1529 -0.2909  0.2334
  573W        W 4317   7.928   3.709   2.966  0.0491 -0.1557 -0.4415
  574W        W 4318   7.257   0.493  12.676 -0.2837  0.2351 -0.1227
  575W        W 4319   9.854   1.801   8.744  0.0444 -0.0044 -0.0383
  576W        W 4320   9.823   8.031  10.005  0.0045  0.0629 -0.0263
  577W        W 4321   2.471   0.551   3.935  0.2374 -0.2873  0.1010
  578W        W 4322   2.091   8.445   8.073 -0.2584  0.4372 -0.0542
  579W        W 4323   0.731   0.817   8.960  0.0707 -0.0711 -0.1493
  580W        W 4324   4.744   1.299   2.790 -0.2674  0.3861  0.3306
  581W        W 4325   7.781   3.925   0.176  0.5957  0.0523  0.3412
  582W        W 4326   8.121   0.311   0.074 -0.2923 -0.0330 -0.3243
  583W        W 4327   4.350   1.170  11.461 -0.1098 -0.2581  0.1584
  584W        W 4328   3.749   8.219  11.472 -0.3796 -0.1661  0.1494
  585W        W 4329   9.486   6.100   8.775  0.1646 -0.1239  0.0039
  586W        W 4330   2.757   8.779  10.394  0.1638  0.0726  0.1368
  587W        W 4331   9.870   8.305   2.941  0.0639 -0.0101 -0.0747
  588W        W 4332   4.151   5.935   3.071  0.1440  0.1439  0.1091
  589W        W 4333   5.143   6.963   9.565 -0.2460 -0.0958  0.4635
  590W        W 4334   0.796   2.814  11.133  0.1132  0.3381 -0.1735
  591W        W 4335   2.303   3.587   1.352  0.0881  0.0230  0.0731
  592W        W 4336   2.667   1.808   1.037 -0.2171  0.1940 -0.0880
  593W        W 4337   6.574   0.512   1.953  0.0408 -0.2541  0.0596
  594W        W 4338   9.094   5.307   0.206  0.3549  0.2219  0.0447
  595W        W 4339   1.421   9.820   0.705  0.3894 -0.0102  0.1193
  596W        W 4340   9.750   9.754   0.809  0.2049  0.0751 -0.2572
  597W        W 4341   5.599   1.543   0.751  0.0878 -0.1828  0.1521
  598W        W 4342   9.168   2.972   8.646 -0.1507 -0.1829 -0.0959
  599W        W 4343   4.646   6.992   0.536 -0.0924  0.0222 -0.1069
  600W        W 4344   1.532   8.547  10.939 -0.5271 -0.2384 -0.2454
  601W        W 4345   6.263   0.201   3.789  0.2594  0.3461  0.0329
  602W        W 4346   0.407   3.222  11.776  0.2861  0.0792 -0.0540
  603W        W 4347   5.009   7.935   0.566 -0.1032  0.0251  0.2488
  604W        W 4348   6.391   6.904   9.602 -0.0706 -0.0278  0.1824
  605W        W 4349   1.192   5.826   3.258  0.4201  0.1410 -0.0871
  606W        W 4350   6.208   6.982  11.872  0.1071  0.1219  0.3745
  607W        W 4351   5.194   7.215   3.089 -0.1173  0.0518  0.0199
  608W        W 4352   2.571   8.346   2.069  0.0444 -0.0325 -0.1060
  609W        W 4353   0.935   3.424   9.842  0.1204  0.3451  0.0304
  610W        W 4354   9.054   6.074   9.631  0.0249 -0.2758 -0.2274
  611W        W 4355   8.964   3.031   2.419  0.0504  0.3556  0.0296
  612W        W 4356   9.057   5.578   0.629  0.0371 -0.0360 -0.2844
  613W        W 4357   5.648   4.601  11.463  0.1681 -0.1543 -0.2017
  614W        W 4358   5.145   7.249   1.530  0.0014  0.0102 -0.0005
  615W        W 4359   7.677   6.322   0.654 -0.0605  0.1845  0.0186
  616W        W 4360   9.854   5.677  12.033 -0.2594 -0.1903  0.1194
  617W        W 4361   8.415   9.375  12.486  0.0385  0.0045  0.0696
  618W        W 4362   2.268   3.349   2.273  0.0072 -0.1987 -0.5303
  619W        W 4363   5.353   3.752  12.398  0.1984 -0.3246  0.1385
  620W        W 4364   0.401   7.808   0.439 -0.0632 -0.0415  0.1960
  621W        W 4365   6.057   5.227   4.563  0.1501  0.1243  0.2623
  622W        W 4366   1.192   2.187   2.976  0.0382  0.0752 -0.0661
  623W        W 4367   4.545   4.971   0.931 -0.2268 -0.2872 -0.0691
  624W        W 4368   2.775   2.413  12.614  0.1023  0.0530 -0.2540
  625W        W 4369   1.474   8.630   9.652  0.3737 -0.0528  0.1578
  626W        W 4370   6.464   1.234   1.095  0.0422 -0.0061  0.1998
  627W        W 4371   8.071   2.080   2.902 -0.1864  0.1343 -0.2024
  628W        W 4372   7.572   7.462  10.307  0.1955 -0.2203  0.0316
  629W        W 4373   2.130   9.138   3.709  0.0800 -0.0113 -0.0587
  630W        W 4374   2.219   7.394  12.161  0.0675 -0.0227 -0.2911
  631W        W 4375   2.787   4.434  12.620 -0.1389  0.0543 -0.3537
  632W        W 4376   0.135   5.269  10.744 -0.1752  0.0253 -0.3745
  633W        W 4377   6.946   5.392  11.946 -0.2589  0.0030 -0.0685
  634W        W 4378   2.070   7.793   0.342 -0.2157  0.1293  0.1813
  635W        W 4379   4.236   1.119   3.018 -0.0337  0.0398 -0.1396
  636W        W 4380   1.524   5.246   9.435 -0.2605  0.0049 -0.0081
  637W        W 4381   6.898   5.998  11.532 -0.0670 -0.0512 -0.0866
  638W        W 4382   5.554   6.450   2.972  0.4254 -0.0587 -0.1287
  639W        W 4383   9.741   0.959  11.202  0.1340  0.0248  0.1898
  640W        W 4384   8.011   8.406   0.699  0.2067  0.1113 -0.1643
  641W        W 4385   2.348   9.120   9.601  0.0898  0.1441 -0.2297
  642W        W 4386   3.866   6.177  11.802  0.0193 -0.1674  0.2656
  643W        W 4387   2.206   6.495   4.193  0.1590  0.0115  0.2123
  644W        W 4388   3.125   8.265  11.759  0.1567 -0.0170  0.0105
  645W        W 4389   2.684   0.787   0.926 -0.1195 -0.0669  0.1324
  646W        W 4390   8.847   9.605   4.181  0.0320 -0.0837 -0.0198
  647W        W 4391   2.244   8.309  12.250  0.0426  0.2113 -0.3129
  648W        W 4392   7.596   3.402   9.672 -0.1425  0.1868  0.0948
  649W        W 4393   5.297   8.226   3.782 -0.0959  0.2550 -0.1106
  650W        W 4394   3.927   9.753   0.554  0.0688  0.1650  0.1509
  651W        W 4395   5.866   2.570  12.471 -0.3624  0.2739 -0.0117
  652W        W 4396   5.933   5.783   1.286  0.2215 -0.2022 -0.1175
  653W        W 4397   3.441   8.551  12.746 -0.3628 -0.1497 -0.0370
  654W        W 4398   2.505   8.272   9.796  0.1216  0.1674 -0.3030
  655W        W 4399   4.526   8.278  10.890 -0.0952 -0.2388  0.0858
  656W        W 4400   8.898   4.024   0.962 -0.2123  0.0203 -0.1632
  657W        W 4401   2.623   4.315  10.604  0.0217 -0.0616 -0.0319
  658W        W 4402   3.077   5.009  10.563  0.1959  0.0692  0.1487
  659W        W 4403   7.870   1.470   9.861  0.0215  0.0967  0.0040
  660W        W 4404   0.890   7.132  11.729 -0.1650  0.1667  0.1231
  661W        W 4405   9.163   3.199  10.457  0.1658 -0.2802 -0.1740
  662W        W 4406   6.779   5.371   0.736 -0.2446  0.0013 -0.0327
  663W        W 4407   4.830   9.391   9.118  0.3104 -0.0555  0.1550
  664W        W 4408   9.709   2.414  12.400 -0.0606 -0.0489 -0.0612
  665W        W 4409   5.971   6.558   1.760 -0.3972 -0.3087 -0.1316
  666W        W 4410   0.685   4.782   2.369  0.1690  0.0239  0.0197
  667W        W 4411   5.152   9.446   1.607 -0.6835 -0.1899  0.0765
  668W        W 4412   6.923   9.034   3.183 -0.2459 -0.1950 -0.1611
  669W        W 4413   7.807   8.645   2.828  0.0728 -0.1283  0.0867
  670W        W 4414   7.174   7.795  11.545  0.1500  0.1788 -0.0366
  671W        W 4415   9.710   7.137   2.618  0.0422  0.0321  0.0010
  672W        W 4416   1.060   3.830  11.285  0.1441 -0.2327 -0.0346
  673W        W 4417   0.685   9.752   1.205  0.0481 -0.3290  0.1789
  674W        W 4418   6.719   3.008   2.944 -0.0373  0.2604 -0.0304
  675W        W 4419   5.812   5.888  11.237  0.0372 -0.2689  0.1994
  676W        W 4420   3.399   1.132  11.574  0.0071  0.3157 -0.0288
  677W        W 4421   1.151   7.608   0.069  0.0466 -0.1443  0.0329
  678W        W 4422   6.147   1.142   8.335 -0.1423  0.5183 -0.1233
  679W        W 4423   7.271   5.822   4.316 -0.2402 -0.0339  0.2667
  680W        W 4424   1.751   0.323  12.799  0.1568 -0.1782 -0.0381
  681W        W 4425   1.962   7.566   3.120 -0.2060  0.1670 -0.0261
  682W        W 4426   6.609   7.275   9.065 -0.3422 -0.3051 -0.0565
  683W        W 4427   5.889   7.277  10.435  0.0210  0.0298 -0.2786
  684W        W 4428   5.282   4.639   4.069  0.2584  0.3466  0.3279
  685W        W 4429   9.571   3.629   8.984 -0.1032 -0.5733  0.0384
  686W        W 4430   7.588   7.039   0.734 -0.1672  0.1316 -0.0870
  687W        W 4431   1.737   5.526  12.179  0.1823  0.2028  0.0460
  688W        W 4432   6.580   6.667  12.071  0.0801 -0.1573  0.1877
  689W        W 4433   2.429   0.542   4.457  0.1377  0.3335  0.2540
  690W        W 4434   7.819   8.745   0.224 -0.2151 -0.0266  0.0459
  691W        W 4435   7.239   1.647  10.605  0.1313  0.1590  0.3307
  692W        W 4436   6.274   6.667  12.884  0.1142  0.0152  0.3559
  693W        W 4437   9.116   0.561  10.150 -0.1168  0.0336  0.1653
  694W        W 4438   2.526   4.941   1.275 -0.1044  0.1564  0.2945
  695W        W 4439   9.396   7.924   5.004  0.1147  0.2469 -0.0957
  696W        W 4440   1.795   1.831  12.149  0.0465  0.1662  0.0540
  697W        W 4441   6.081   6.560   3.953  0.0858 -0.1058 -0.2873
  698W        W 4442   1.446   1.212   3.645  0.1105  0.0614 -0.0361
  699W        W 4443   0.318   3.915  11.651 -0.1135  0.1315  0.0651
  700W        W 4444   3.493   7.578   4.137 -0.0195 -0.2020  0.0058
  701W        W 4445   2.954   0.556  11.194  0.4381 -0.2511  0.0362
  702W        W 4446   9.463   7.497  12.784 -0.0192  0.0963  0.0398
  703W        W 4447   4.343   5.253   0.591  0.0317  0.2249 -0.0472
  704W        W 4448   2.761   3.671   1.674 -0.0333  0.2570 -0.1207
  705W        W 4449   7.661   2.082   1.314 -0.4014  0.0425  0.0330
  706W        W 4450   4.292   2.223   9.634 -0.1384  0.0000  0.2491
  707W        W 4451   6.101   2.818  10.924  0.2563  0.1089  0.1730
  708W        W 4452   5.147   1.368  10.094  0.0261 -0.0152 -0.4418
  709W        W 4453   1.610   1.997  11.080 -0.0032  0.1719  0.2749
  710W        W 4454   8.750   3.171   4.115 -0.0130  0.1244  0.1118
  711W        W 4455   2.097   8.080  10.476 -0.1866 -0.0708  0.1069
  712W        W 4456   3.112   8.744   2.440  0.0504 -0.1039 -0.0618
  713W        W 4457   2.006   5.990  10.409  0.1227  0.0678  0.1546
  714W        W 4458   9.318   2.647   9.357 -0.1099 -0.1121 -0.0307
  715W        W 4459   4.160   7.663   1.997  0.1451 -0.0427 -0.0684
  716W        W 4460   7.120   2.979  12.808  0.0821  0.0435 -0.0503
  717W        W 4461   8.566   4.604   4.489  0.0348 -0.2632  0.0533
  718W        W 4462   0.762   9.167   3.320 -0.2837  0.0720  0.2174
  719W        W 4463   5.422   5.136   0.826 -0.1780  0.3262  0.3386
  720W        W 4464   8.108   9.193  10.015  0.3580  0.1356 -0.0915
  721W        W 4465   0.053   3.760  12.036 -0.3327 -0.1591  0.0640
  722W        W 4466   6.295   7.669   4.453  0.1384  0.0526  0.0301
  723W        W 4467   2.989   6.787   1.529  0.1291 -0.0156  0.2361
  724W        W 4468   2.649   8.934   3.034 -0.0588  0.1407 -0.0076
  725W        W 4469   8.235   4.186   3.086  0.1033 -0.0663 -0.0765
  726W        W 4470   5.465   3.708   0.714  0.0669  0.1646  0.2056
  727W        W 4471   1.682   0.728  12.368  0.0784 -0.0430  0.0367
  728W        W 4472   4.171   5.308  11.567  0.0314 -0.1020 -0.1094
  729W        W 4473   0.936   2.756  12.029 -0.0047 -0.2759 -0.0390
  730W        W 4474   8.655   9.625  12.102 -0.2069  0.1051 -0.3823
  731W        W 4475   6.403   9.550   0.901 -0.2490  0.1222  0.2979
  732W        W 4476   0.785   5.045  12.710 -0.1116  0.0114  0.0815
  733W        W 4477   1.798   9.899   2.323  0.0900  0.0953  0.0593
  734W        W 4478   8.736   0.434  12.460  0.0081 -0.0339 -0.0500
  735W        W 4479   3.676   9.555  11.982  0.1625  0.0198  0.0863
  736W        W 4480   1.407   7.297   2.048  0.2579 -0.0401  0.1434
  737W        W 4481   5.906   7.682   9.968  0.0597  0.0089 -0.1734
  738W        W 4482   7.607   4.031   2.851 -0.0427  0.0990  0.0182
  739W        W 4483   2.990   3.815   3.306 -0.1788 -0.0534 -0.0413
  740W        W 4484   9.586   6.276  12.632 -0.1205 -0.0159  0.0584
  741W        W 4485   8.219   7.716   9.809 -0.1375 -0.3947  0.3421
  742W        W 4486   6.366   7.230   4.157 -0.0432  0.0958  0.3247
  743W        W 4487   9.822   2.490  11.903 -0.3124 -0.0592  0.1034
  744W        W 4488   2.598   7.810   4.782  0.2606  0.2913 -0.0516
  745W        W 4489   9.456   9.890   1.848  0.4842  0.1368  0.0138
  746W        W 4490   1.521   4.423   1.434  0.4639 -0.1871  0.1497
  747W        W 4491   5.761   2.609   3.400 -0.0464 -0.2301 -0.1615
  748W        W 4492   7.367   9.084   8.742 -0.1598 -0.0620  0.3599
  749W        W 4493   7.574   8.760   2.371 -0.1097 -0.1545  0.2569
  750W        W 4494   8.599   2.851   8.845 -0.2007 -0.1381  0.2029
  751W        W 4495   3.113   6.928   2.862  0.1846  0.1097  0.1525
  752W        W 4496   1.091   0.992   4.111  0.4781 -0.0154 -0.0120
  753W        W 4497   0.618   5.242   1.119 -0.2929 -0.1220 -0.2834
  754W        W 4498   0.996   9.826   9.147  0.4887  0.2536  0.2794
  755W        W 4499   2.955   6.014  10.160  0.0103 -0.1704  0.3298
  756W        W 4500   6.695   8.774   9.161 -0.0316 -0.1372  0.0992
  757W        W 4501   5.979   4.241  10.218  0.1169 -0.2883  0.2186
  758W        W 4502   0.706   6.159   3.299  0.3014 -0.2784  0.0913
  759W        W 4503   4.899   3.268   0.411 -0.0997  0.2598  0.1110
  760W        W 4504   1.833   8.786  12.822  0.1896 -0.3429 -0.2009
  761W        W 4505   9.356   8.212  11.072 -0.0880 -0.1759  0.1003
  762W        W 4506   4.756   8.604  11.818 -0.2146  0.1377 -0.2201
  763W        W 4507   4.524   1.987  12.229 -0.1481 -0.1449 -0.0033
  764W        W 4508   8.615   3.296   9.311 -0.2966 -0.0532  0.3973
  765W        W 4509   5.370   7.032   2.658 -0.1686  0.3724 -0.1180
  766W        W 4510   2.137   0.475  12.452  0.2050  0.1648  0.0332
  767W        W 4511   7.569   0.955   8.601 -0.0197  0.0195  0.1289
  768W        W 4512   3.959   5.677   1.351  0.2867 -0.3581 -0.0787
  769W        W 4513   7.649   3.720   3.906 -0.0679 -0.2251 -0.2198
  770W        W 4514   5.913   9.889   9.173 -0.0406  0.2195 -0.1874
  771W        W 4515   1.099   1.805  11.964  0.0988  0.2248  0.0151
  772W        W 4516   7.542   6.036  10.391 -0.0273 -0.1439  0.0346
  773W        W 4517   2.322   2.376  12.708  0.6307  0.3401  0.1989
  774W        W 4518   7.447   2.221   3.878  0.0713  0.0685  0.0365
  775W        W 4519   8.802   6.090   9.212 -0.2793  0.0635 -0.1069
  776W        W 4520   4.448   9.303  11.113  0.2427 -0.0063  0.2287
  777W        W 4521   4.670   5.119   3.779 -0.0483  0.0366  0.3483
  778W        W 4522   2.074   6.396   2.871 -0.2905 -0.0829  0.0743
  779W        W 4523   0.978   1.726   3.321 -0.3605 -0.2260 -0.0288
  780W        W 4524   1.358   9.126  11.859 -0.1131  0.3380 -0.0084
  781W        W 4525   1.573   9.320   4.698 -0.3916  0.1752  0.2443
  782W        W 4526   5.109   9.486  10.886 -0.0002  0.0351  0.1599
  783W        W 4527   6.730   3.176   4.147 -0.3635  0.4343  0.0247
  784W        W 4528   2.578   6.959   1.889 -0.1084  0.1867 -0.0096
  785W        W 4529   6.970   7.191   3.884 -0.2331 -0.1676  0.0113
  786W        W 4530   7.219   2.900   9.650  0.2962  0.0006  0.0652
  787W        W 4531   6.758   6.803   9.290 -0.2651 -0.1322 -0.2719
  788W        W 4532   9.499   4.723   3.302 -0.2892  0.0899 -0.0144
  789W        W 4533   5.565   9.217   1.680 -0.3374  0.1353 -0.3795
  790W        W 4534   2.171   2.218   0.383 -0.0516 -0.2497 -0.0047
  791W        W 4535   1.510   6.472  11.729 -0.3571  0.0749  0.1393
  792W        W 4536   1.635   8.871  10.234  0.4687  0.0651  0.2156
  793W        W 4537   4.141   1.266   2.083  0.2055  0.1546 -0.1030
  794W        W 4538   4.096   1.074  12.669 -0.2352  0.3848 -0.0906
  795W        W 4539   1.699   7.490   0.028  0.1593  0.2462 -0.2323
  796W        W 4540   8.896   0.719   1.550 -0.0512  0.0382 -0.2041
  797W        W 4541   7.220   7.881   2.565 -0.0489 -0.0815 -0.1110
  798W        W 4542   1.768   2.373  11.817 -0.0875 -0.2405  0.0545
  799W        W 4543   6.011   9.323   9.706 -0.2502 -0.0686  0.3763
  800W        W 4544   5.067   3.253   1.337  0.1240 -0.2109 -0.1418
  801W        W 4545   1.682   6.346   8.651  0.1576  0.1380  0.3208
  802W        W 4546   3.251   6.017   0.529  0.0352  0.0869 -0.0485
  803W        W 4547   3.042   0.359   2.425  0.0804 -0.0499  0.2062
  804W        W 4548   2.527   1.803  10.898  0.1895  0.3797 -0.1233
  805W        W 4549   5.803   2.983   1.392 -0.0214  0.0481 -0.1539
  806W        W 4550   8.907   7.008   1.915  0.0829 -0.1341  0.1169
  807W        W 4551   8.007   9.352  11.514  0.0144  0.1298  0.0457
  808W        W 4552   4.157   4.460   2.100 -0.0362 -0.1416 -0.0438
  809W        W 4553   0.455   4.327  12.093 -0.0888 -0.1642 -0.0980
  810W        W 4554   0.613   1.100   2.122 -0.1052  0.1081 -0.0120
  811W        W 4555   1.778   3.347   0.178 -0.0844 -0.1154 -0.1038
  812W        W 4556   6.799   4.984   8.954 -0.0053  0.1775  0.0809
  813W        W 4557   9.204   0.763   4.391  0.2106  0.1432 -0.2446
  814W        W 4558   0.973   4.947   2.749 -0.4591  0.2126 -0.0325
  815W        W 4559   0.633   8.389   1.145  0.0861 -0.1564 -0.1924
  816W        W 4560   4.164   7.166   2.178 -0.0059  0.1581  0.0669
  817W        W 4561   4.431   8.440   0.015 -0.2665  0.0641  0.3875
  818W        W 4562   4.076   4.873   0.215  0.0140  0.1854  0.2527
  819W        W 4563   8.709   8.621   4.378 -0.0611 -0.1426 -0.0915
  820W        W 4564   1.191   9.512   8.772  0.1826  0.0178  0.3079
  821W        W 4565   7.682   4.229   0.817 -0.3280 -0.0807 -0.0456
  822W        W 4566   6.125   4.763   3.539  0.1299 -0.1237  0.0609
  823W        W 4567   6.462   7.405   9.721 -0.0522 -0.1715  0.5337
  824W        W 4568   2.857   0.117  11.531 -0.1070  0.1708  0.0188
  825W        W 4569   2.820   4.031   0.741 -0.0521 -0.3070 -0.0864
  826W        W 4570   0.907   8.040  12.411 -0.0058 -0.1887  0.4404
  827W        W 4571   5.103   9.698   8.817  0.1327 -0.1730 -0.1905
  828W        W 4572   1.782   4.823  10.404  0.1068 -0.1572  0.3021
  829W        W 4573   8.049   7.281  10.130 -0.0210  0.1656  0.2779
  830W        W 4574   0.062   5.279  11.597  0.0998 -0.1654 -0.1001
  831W        W 4575   7.065   1.530   1.938  0.0456 -0.0425 -0.1714
  832W        W 4576   4.508   3.082  11.634 -0.1365 -0.1274  0.0126
  833W        W 4577   9.035   1.910  12.029  0.0500  0.1661 -0.1967
  834W        W 4578   2.907   3.754  10.120 -0.1128 -0.0543 -0.1049
  835W        W 4579   9.051   0.089  12.002  0.2379 -0.1131 -0.1261
  836W        W 4580   2.150   2.152   0.952  0.0082  0.3817  0.2253
  837W        W 4581   4.386   1.832   1.982  0.1586  0.0909 -0.4106
  838W        W 4582   3.531   8.678  10.000  0.1117 -0.1689  0.4030
  839W        W 4583   7.335   4.481   3.529  0.1169  0.2108  0.2427
  840W        W 4584   8.119   8.459  12.781  0.1120 -0.0476  0.0495
  841W        W 4585   1.156   3.326   2.685  0.1785  0.1568  0.2201
  842W        W 4586   2.958   6.340   3.525 -0.0532 -0.5563  0.0733
  843W        W 4587   0.478   1.903   2.015 -0.4137  0.0493  0.3475
  844W        W 4588   5.806   7.610   9.100 -0.1221 -0.0577 -0.0819
  845W        W 4589   7.007   1.870   3.862  0.1829  0.3375 -0.1532
  846W        W 4590   8.920   2.804   3.252  0.1633 -0.1444  0.1811
  847W        W 4591   4.724   6.490   2.679 -0.0630  0.1931  0.0195
  848W        W 4592   3.461   3.283  12.296  0.1784 -0.2309 -0.0985
  849W        W 4593   2.830   9.036   4.827  0.1765  0.1393  0.2085
  850W        W 4594   7.057   5.733  12.830  0.0035  0.1820  0.0246
  851W        W 4595   0.794   1.660   9.768 -0.1567 -0.1283 -0.1271
  852W        W 4596   1.101   9.138  12.753  0.0182 -0.4837  0.3651
  853W        W 4597   2.218   5.458   2.770  0.0121 -0.0588 -0.3902
  854W        W 4598   1.780   3.439  10.903 -0.0464 -0.1387 -0.2056
  855W        W 4599   9.792   4.748  11.562  0.0645 -0.0163 -0.1025
  856W        W 4600   6.076   5.006  11.104  0.0671  0.2448  0.1724
  857W        W 4601   4.725   0.960   8.298 -0.0563  0.1119 -0.2796
  858W        W 4602   9.171   0.566  12.112  0.0520  0.3116 -0.1302
  859W        W 4603   2.144   0.113   2.689  0.2375  0.0019 -0.0258
  860W        W 4604   3.593   5.464   2.564 -0.3231 -0.1834 -0.1118
  861W        W 4605   7.124   9.818   4.371 -0.0867 -0.3454 -0.1383
  862W        W 4606   2.723   0.906  10.873 -0.2289 -0.1228 -0.0720
  863W        W 4607   6.543   1.543   3.695  0.0588  0.0752  0.0529
  864W        W 4608   8.556   4.927   3.354  0.1291  0.1251 -0.0972
  865W        W 4609   3.221   0.293   1.356 -0.0059  0.1014 -0.1016
  866W        W 4610   3.474   9.349   2.305 -0.1526  0.0537 -0.0598
  867W        W 4611   3.086   7.563  10.921  0.1812 -0.1481  0.0470
  868W        W 4612   5.191   1.516   2.606  0.2798 -0.1026 -0.0265
  869W        W 4613   8.090   6.166   2.826  0.0022 -0.1351 -0.0365
  870W        W 4614   6.812   5.760  12.344  0.1797 -0.0398  0.1873
  871W        W 4615   8.876   9.916   0.936 -0.1916  0.1299 -0.0287
  872W        W 4616   8.330   8.045  10.156  0.0685  0.0331  0.2229
  873W        W 4617   3.735   5.188   4.017  0.0265  0.2119  0.2051
  874W        W 4618   3.506   3.679   3.064 -0.0800 -0.2398  0.1330
  875W        W 4619   6.928   6.728   4.917  0.0673 -0.0632 -0.1069
  876W        W 4620   5.554   2.509   9.620 -0.1117  0.1134 -0.0756
  877W        W 4621   5.239   7.308  11.359 -0.0078 -0.0031  0.1580
  878W        W 4622   3.640   0.643  11.134 -0.0002 -0.4277  0.0773
  879W        W 4623   9.870   1.672   2.225 -0.0411 -0.5686 -0.1761
  880W        W 4624   8.028   7.777   7.595  0.1003  0.1484  0.0922
  881W        W 4625   0.013   3.257  12.110 -0.2518  0.0909 -0.2175
  882W        W 4626   8.347   4.856   3.824 -0.3087  0.1902  0.0067
  883W        W 4627   6.333   8.200   1.679  0.0937 -0.0778  0.1775
  884W        W 4628   3.307   4.615   2.167 -0.1607  0.0057 -0.0821
  885W        W 4629   0.788   4.831   9.791  0.0848 -0.0662  0.1133
  886W        W 4630   2.879   3.569   0.594  0.1314  0.1545 -0.2895
  887W        W 4631   9.625   4.620   1.067 -0.0110  0.2394 -0.0661
  888W        W 4632   0.454   0.644   1.189  0.3766  0.0261  0.0756
  889W        W 4633   4.248   1.510  12.480  0.0065 -0.0774 -0.3565
  890W        W 4634   9.292   3.887  10.944  0.1709  0.1793 -0.0124
  891W        W 4635   2.189   6.642  12.605 -0.1217 -0.3057 -0.1795
  892W        W 4636   4.384   3.312   3.743 -0.0165 -0.2379  0.0727
  893W        W 4637   2.596   5.461   9.326 -0.1549 -0.0167  0.1300
  894W        W 4638   7.167   0.966   3.191  0.0333 -0.0000 -0.0531
  895W        W 4639   5.400   9.910   9.822 -0.0382  0.0303 -0.1768
  896W        W 4640   3.798   9.062  11.642  0.1899 -0.3616  0.0971
  897W        W 4641   6.791   1.881   3.343 -0.1237 -0.2194 -0.5474
  898W        W 4642   9.773   7.826   3.697  0.1187  0.0984  0.0017
  899W        W 4643   0.862   8.661  11.539  0.0705 -0.0787  0.2827
  900W        W 4644   4.869   9.415  11.340  0.0289 -0.1070  0.0819
  901W        W 4645   1.750   1.882   2.214 -0.2938  0.1293 -0.0438
  902W        W 4646   5.612   8.345   1.349  0.2663  0.0327 -0.1375
  903W        W 4647   6.211   0.181   0.981 -0.0548  0.0412  0.1678
  904W        W 4648   4.112   7.422   4.806  0.4108  0.0261  0.1543
  905W        W 4649   4.279   4.774  10.059 -0.0326 -0.2389 -0.1598
  906W        W 4650   2.659   7.432   2.189  0.2880 -0.0399  0.0115
  907W        W 4651   9.205   9.290   2.319 -0.2080  0.2145 -0.0232
  908W        W 4652   4.391   2.824   1.216  0.2690 -0.2205 -0.2369
  909W        W 4653   9.473   2.339   0.009 -0.1443 -0.1456  0.1012
  910W        W 4654   9.621   1.368  12.639 -0.2655  0.1321  0.1799
  911W        W 4655   3.594   8.100  12.458 -0.3503 -0.4425  0.3178
  912W        W 4656   0.311   4.809   2.693  0.2612 -0.0434  0.3161
  913W        W 4657   3.074   3.991  12.669  0.0571 -0.1602 -0.0325
  914W        W 4658   6.813   6.020   2.947  0.0844 -0.3257 -0.0900
  915W        W 4659   6.015   0.694   1.855 -0.1451 -0.0997 -0.3753
  916W        W 4660   4.012   8.761   0.073  0.5460 -0.0680 -0.1366
  917W        W 4661   9.740   3.790  12.857 -0.3348  0.0908  0.0128
  918W        W 4662   8.339   8.333   9.719  0.0524 -0.0991  0.0664
  919W        W 4663   9.078   1.042  10.157 -0.2258 -0.1712 -0.1526
  920W        W 4664   7.098   2.690   1.063  0.2081  0.0884 -0.2680
  921W        W 4665   4.231   1.387   8.454  0.3375  0.2102  0.1397
  922W        W 4666   4.202   4.596   0.716  0.2389 -0.2267  0.1733
  923W        W 4667   4.363   1.500   0.797 -0.0403  0.1653  0.1006
  924W        W 4668   4.127   2.151   4.351  0.3880  0.2827 -0.1180
  925W        W 4669   3.850   4.474  12.233  0.1144  0.2913 -0.2821
  926W        W 4670   9.513   7.973  11.680  0.0548  0.4720  0.1175
  927W        W 4671   0.476   4.809  12.296 -0.0710 -0.2487  0.0815
  928W        W 4672   3.104   3.961   9.634 -0.0379  0.1305  0.3176
  929W        W 4673   7.011   2.682  12.432  0.0478  0.1101 -0.0051
  930W        W 4674   6.958   4.020   4.490  0.1009  0.0954 -0.0875
  931W        W 4675   9.577   4.593  12.013 -0.0855 -0.1258  0.0025
  932W        W 4676   8.407   2.860   3.367  0.0813  0.3338  0.0382
  933W        W 4677   2.163   5.696  12.840 -0.3460  0.0543 -0.2392
  934W        W 4678   4.587   8.089  12.506  0.1412  0.1096 -0.2024
  935W        W 4679   3.209   8.626  10.400 -0.0229  0.1636  0.2967
  936W        W 4680   1.856   9.189   1.772 -0.2429  0.1331 -0.0254
  937W        W 4681   2.077   7.424   1.327 -0.0777 -0.0430  0.0299
  938W        W 4682   1.235   4.206   2.319 -0.0652  0.1002  0.0844
  939W        W 4683   7.510   4.552  11.757  0.2083  0.0391  0.0586
  940W        W 4684   9.730   0.432   3.220 -0.2531 -0.0369 -0.1859
  941W        W 4685   7.054   6.157  12.477  0.1591  0.0116  0.2652
  942W        W 4686   9.288   0.459   9.121 -0.0220  0.2054 -0.0300
  943W        W 4687   2.571   0.920   3.189  0.1222  0.4106  0.1060
  944W        W 4688   4.237   9.286   0.622 -0.1025  0.1589  0.1500
  945W        W 4689   7.497   6.503   1.535  0.2564  0.1565 -0.2160
  946W        W 4690   5.170   6.117   2.828  0.3457 -0.0905 -0.1891
  947W        W 4691   0.989   4.629   3.142 -0.0191 -0.0088  0.2919
  948W        W 4692   0.379   1.100   1.653  0.2056 -0.3384  0.0759
  949W        W 4693   3.417   3.197   3.194 -0.0067  0.1721  0.0119
  950W        W 4694   8.980   8.005   1.550 -0.0730 -0.1240  0.1732
  951W        W 4695   1.318   2.339  12.030 -0.0769 -0.1689  0.0169
  952W        W 4696   6.964   8.800   3.787  0.1183  0.2174 -0.2566
  953W        W 4697   8.290   6.831  10.443 -0.0639  0.3784 -0.2201
  954W        W 4698   9.073   9.846   3.804  0.0457  0.1446  0.1632
  955W        W 4699   7.397   7.940   0.332  0.0420  0.2113 -0.1390
  956W        W 4700   7.520   0.722   2.408  0.0427 -0.1075  0.1460
  957W        W 4701   6.138   0.968   0.335  0.2419  0.3265  0.0647
  958W        W 4702   0.212   6.586  12.087  0.1969 -0.0234  0.2460
  959W        W 4703   8.728   6.155   3.254  0.1089  0.1522 -0.0159
  960W        W 4704   2.639   1.402   0.725 -0.1130 -0.0998 -0.0975
  961W        W 4705   0.115   3.725   0.895 -0.0192 -0.0448  0.3841
  962W        W 4706   0.420   5.209   9.597 -0.2234  0.0423 -0.0333
  963W        W 4707   3.843   9.258   9.384 -0.3372 -0.0103  0.3456
  964W        W 4708   4.553   0.151   3.835 -0.0116  0.1744  0.0690
  965W        W 4709   9.493   4.342  11.519 -0.0108 -0.1056  0.0243
  966W        W 4710   2.881   8.530   8.374  0.0699 -0.2122  0.0846
  967W        W 4711   8.396   2.430   2.137  0.2069 -0.1585  0.0002
  968W        W 4712   4.620   4.849   0.457 -0.0177 -0.0040  0.0052
  969W        W 4713   3.065   9.481  10.843 -0.3113  0.1025 -0.2353
  970W        W 4714   8.283   4.995   4.357 -0.4533  0.4496 -0.1070
  971W        W 4715   0.440   0.277  12.757  0.1609  0.0323  0.1890
  972W        W 4716   1.973   6.841  12.235  0.0121 -0.1491  0.2771
  973W        W 4717   0.967   7.704  11.095  0.2016  0.0353 -0.0754
  974W        W 4718   0.981   2.775   2.383  0.2629 -0.1040  0.1661
  975W        W 4719   3.152   8.325   8.951 -0.4797  0.2116 -0.0220
  976W        W 4720   4.809   6.272   3.146  0.0426  0.0347  0.2548
  977W        W 4721   6.461   4.340   2.532 -0.1197 -0.1389 -0.1772
  978W        W 4722   1.869   7.307   0.860 -0.3421  0.3074 -0.1117
  979W        W 4723   9.560   8.985   2.179 -0.1609  0.1186 -0.2632
  980W        W 4724   9.017   3.754   0.577 -0.0595  0.0410  0.2693
  981W        W 4725   3.336   2.026  11.099 -0.0497  0.1694  0.4797
  982W        W 4726   1.171   8.351   8.387 -0.0081  0.0665 -0.0544
  983W        W 4727   0.334   7.978  11.049 -0.0586 -0.0373 -0.0413
  984W        W 4728   0.503   0.186   9.446  0.1737  0.1239 -0.4052
  985W        W 4729   0.492   8.054  12.733  0.1448 -0.1652  0.1227
  986W        W 4730   5.169   5.626   9.346  0.2025  0.3285  0.2330
  987W        W 4731   1.272   3.252  12.100 -0.2524  0.2031 -0.1047
  988W        W 4732   9.236   6.110   4.192  0.2290  0.1053 -0.0183
  989W        W 4733   9.340   7.553   3.747 -0.4645  0.0500 -0.1845
  990W        W 4734   6.161   2.828   9.348 -0.2288  0.1862  0.1036
  991W        W 4735   9.007   0.089   9.975 -0.1821  0.0178  0.1382
  992W        W 4736   9.076   4.342   1.567  0.0452 -0.1525  0.1725
  993W        W 4737   4.576   2.662  12.079  0.3046  0.2121 -0.0142
  994W        W 4738   3.059   8.974   9.987  0.0253  0.3097  0.0990
  995W        W 4739   8.556   6.652  12.082  0.0693 -0.0995 -0.1147
  996W        W 4740   2.382   6.363   3.454 -0.1211 -0.3129 -0.3629
  997W        W 4741   6.037   2.625   2.944  0.1323 -0.1860 -0.1479
  998W        W 4742   4.226   8.175   3.496 -0.3112  0.0692  0.1203
  999W        W 4743   6.592   7.806  10.476  0.0550 -0.2539  0.1881
 1000W        W 4744   0.792   5.543   1.980  0.0095 -0.0484 -0.1276
 1001W        W 4745   6.272   9.436   8.215  0.1090  0.1569  0.0834
 1002W        W 4746   4.585   1.135  12.596 -0.0883  0.0105  0.0593
 1003W        W 4747   4.362   2.283  11.866  0.3277 -0.2729  0.0437
 1004W        W 4748   4.853   9.350   2.932 -0.2873 -0.3406  0.0235
 1005W        W 4749   3.809   8.810   3.919 -0.2401  0.0562 -0.0893
 1006W        W 4750   9.786   8.800   8.752 -0.0285  0.0388  0.0776
 1007W        W 4751   5.007   7.495   0.024  0.0734 -0.0000 -0.2176
 1008W        W 4752   5.969   2.782   1.977  0.1202 -0.1162 -0.1689
 1009W        W 4753   2.050   3.029   1.530 -0.1294  0.0473  0.2385
 1010W        W 4754   1.325   4.934  11.205 -0.1030  0.1600 -0.0923
 1011W        W 4755   8.152   6.765   2.133  0.2304 -0.3813  0.4098
 1012W        W 4756   0.565   6.623   3.229 -0.0106 -0.0237  0.0528
 1013W        W 4757   3.717   8.680  11.202 -0.2056  0.0182  0.1516
 1014W        W 4758   2.254   1.010   0.838 -0.0728 -0.3399  0.2674
 1015W        W 4759   9.063   5.307   2.723  0.0009  0.2248 -0.0093
 1016W        W 4760   6.528   0.642   3.843 -0.1612  0.0900  0.0461
 1017W        W 4761   0.898   0.680   9.877  0.3572  0.1504 -0.3627
 1018W        W 4762   7.708   2.995   1.117 -0.2031 -0.2402 -0.0930
 1019W        W 4763   8.908   8.234   1.124  0.1547  0.1800 -0.3108
 1020W        W 4764   8.141   7.665   0.248  0.0673 -0.0893 -0.1217
 1021W        W 4765   9.145   6.089   1.845 -0.2313 -0.0036  0.0076
 1022W        W 4766   3.044   0.810   3.187  0.2068 -0.4382  0.1649
 1023W        W 4767   6.843   1.140  10.435 -0.0972 -0.0648  0.0374
 1024W        W 4768   9.182   4.414   0.205  0.1634 -0.2742  0.2825
 1025W        W 4769   5.191   6.696  12.413  0.1078 -0.1709  0.1228
 1026W        W 4770   2.758   8.381   0.729  0.2946  0.1100 -0.1211
 1027W        W 4771   5.376   3.751   9.574  0.1517 -0.0273 -0.3846
 1028W        W 4772   6.612   9.145  12.533 -0.0733  0.1103 -0.0755
 1029W        W 4773   9.450   5.430  11.846  0.0115  0.0442  0.1859
 1030W        W 4774   7.820   0.342   2.102  0.1035 -0.2239 -0.0808
 1031W        W 4775   9.873   2.650   1.518 -0.0808  0.1837 -0.0086
 1032W        W 4776   8.561   6.690   1.804 -0.2725  0.1718  0.2130
 1033W        W 4777   4.247   6.314   2.509  0.4827  0.0431 -0.1111
 1034W        W 4778   6.655   4.344  11.673 -0.1499 -0.3468 -0.2659
 1035W        W 4779   4.266   8.351  10.114  0.4430 -0.3917 -0.2131
 1036W        W 4780   7.583   4.922   0.030 -0.1127  0.2280  0.1318
 1037W        W 4781   3.168   5.125   0.288 -0.1409 -0.0427 -0.1381
 1038W        W 4782   0.681   4.825   1.377  0.1702  0.1901  0.0306
 1039W        W 4783   3.595   7.528   1.302  0.1497  0.1484 -0.2739
 1040W        W 4784   3.631   3.823  10.744  0.1061 -0.1358 -0.2279
 1041W        W 4785   2.054   1.755   0.569  0.0063 -0.0051 -0.0160
 1042W        W 4786   1.589   5.957   2.400  0.0906  0.3429  0.1471
 1043W        W 4787   3.836   8.434   8.466 -0.1311  0.0698  0.0704
 1044W        W 4788   0.171   9.590  11.996 -0.1792 -0.1169 -0.2843
 1045W        W 4789   7.653   3.532   4.373 -0.1949  0.0988  0.0203
 1046W        W 4790   8.269   0.602   0.851 -0.1123 -0.1340  0.1913
 1047W        W 4791   5.277   4.719  12.492  0.0989 -0.0014  0.0873
 1048W        W 4792   8.148   7.944  12.730 -0.0127  0.1140 -0.0376
 1049W        W 4793   9.394   6.649   4.982 -0.1070 -0.2681  0.2389
 1050W        W 4794   0.944   0.709   1.186  0.1615 -0.1306  0.1470
 1051W        W 4795   4.340   5.120  10.993  0.3502 -0.1130  0.0060
 1052W        W 4796   7.900   7.510   9.422  0.2533 -0.0574 -0.0201
 1053W        W 4797   0.953   4.700  11.479  0.0174 -0.3898 -0.0744
 1054W        W 4798   5.135   4.326  11.702  0.0613  0.1257 -0.3128
 1055W        W 4799   8.928   1.543  10.987 -0.2747 -0.0644  0.2946
 1056W        W 4800   6.064   7.206   9.154 -0.3319 -0.3634 -0.0331
 1057W        W 4801   5.295   2.814   1.741 -0.0610 -0.2429  0.0150
 1058W        W 4802   2.192   1.760   0.099 -0.0587 -0.4718  0.0723
 1059W        W 4803   0.674   5.275  10.932 -0.2203 -0.1520  0.1721
 1060W        W 4804   6.526   6.664   1.484  0.2676  0.0485 -0.1985
 1061W        W 4805   7.066   9.030   8.217  0.0171 -0.0359 -0.1541
 1062W        W 4806   6.093   2.323  12.849  0.0182  0.1673 -0.1211
 1063W        W 4807   6.366   6.791   8.979 -0.2635  0.2821 -0.0568
 1064W        W 4808   3.721   6.024  10.273 -0.2841  0.2932  0.0600
 1065W        W 4809   9.638   8.487   0.447 -0.1001  0.0057 -0.0273
 1066W        W 4810   4.539   1.655  11.764 -0.0566  0.1575  0.0152
 1067W        W 4811   3.249   1.541  11.124 -0.0291 -0.4301 -0.2817
 1068W        W 4812   3.991   9.909   0.060  0.2679 -0.2370 -0.0029
 1069W        W 4813   0.782   5.513  11.889  0.0782  0.1767 -0.1284
 1070W        W 4814   7.735   0.196   1.584 -0.1247 -0.1542  0.1127
 1071W        W 4815   6.568   5.252  11.204 -0.2894  0.1466 -0.3243
 1072W        W 4816   1.787   6.784   4.204  0.2235  0.0862 -0.2003
 1073W        W 4817   4.047   6.394   1.579 -0.0955  0.5255  0.1412
 1074W        W 4818   4.575   5.414   1.157  0.3902 -0.1867 -0.0707
 1075W        W 4819   5.253   0.822   9.157  0.0385 -0.0867 -0.3784
 1076W        W 4820   0.251   9.518   8.529 -0.0771  0.0710  0.1556
 1077W        W 4821   6.312   8.885   0.071 -0.0207 -0.0153 -0.2501
 1078W        W 4822   6.334   7.108  11.249  0.1616 -0.0341  0.0432
 1079W        W 4823   9.345   9.621  10.715 -0.2270 -0.0909 -0.3133
 1080W        W 4824   5.078   5.709   1.973  0.1191 -0.2727 -0.2732
 1081W        W 4825   3.821   8.191   1.253 -0.3890  0.1249  0.2437
 1082W        W 4826   6.957   8.302   4.674  0.3171  0.1532 -0.1242
 1083W        W 4827   3.223   2.349   9.698  0.3324  0.3447 -0.2938
 1084W        W 4828   0.027   0.820  10.168 -0.2115  0.1024  0.0157
 1085W        W 4829   0.296   7.658   3.899 -0.4751  0.3208  0.1925
 1086W        W 4830   3.598   2.166  10.153 -0.1671  0.3595  0.1126
 1087W        W 4831   1.998   8.074   2.220  0.0545 -0.1774 -0.1783
 1088W        W 4832   5.166   7.854   2.539 -0.0036  0.1020 -0.0413
 1089W        W 4833   4.691   9.042   2.218  0.0235  0.0716 -0.0351
 1090W        W 4834   4.303   5.069   2.970  0.1788 -0.1134  0.0796
 1091W        W 4835   2.815   6.906  12.702 -0.1546  0.0489 -0.3356
 1092W        W 4836   7.477   3.159  10.149  0.2940 -0.0886  0.0580
 1093W        W 4837   8.813   1.341   9.597 -0.1103  0.3026  0.0080
 1094W        W 4838   4.844   2.192   0.661 -0.4967 -0.3708 -0.3996
 1095W        W 4839   7.874   6.180   1.547 -0.3525 -0.2445  0.1343
 1096W        W 4840   8.318   3.321   3.698  0.0389  0.2290 -0.0901
 1097W        W 4841   1.462   4.699   9.362  0.1210 -0.1657 -0.2920
 1098W        W 4842   7.807   8.650   3.520  0.0092 -0.1348 -0.1824
 1099W        W 4843   3.526   1.917   9.219  0.0889  0.0645  0.0205
 1100W        W 4844   1.196   6.298   0.968 -0.2248  0.0056 -0.2032
 1101W        W 4845   0.746   5.994   0.212  0.1974  0.2940 -0.2041
 1102W        W 4846   5.507   5.944  10.230  0.3870  0.1477  0.3419
 1103W        W 4847   9.627   5.289   0.069  0.3027  0.4766 -0.0776
 1104W        W 4848   1.185   5.726   1.777  0.0834 -0.0391  0.4291
 1105W        W 4849   6.634   9.415   2.382 -0.2172  0.0592 -0.1291
 1106W        W 4850   4.533   4.281   3.741 -0.0265  0.0314  0.4432
 1107W        W 4851   0.842   4.518   0.516  0.2804  0.1143  0.1878
 1108W        W 4852   4.919   1.288   3.541 -0.2610  0.3271 -0.0925
 1109W        W 4853   7.961   1.185   3.526 -0.0323 -0.1505 -0.1209
 1110W        W 4854   9.625   3.488   3.441  0.0891  0.1281 -0.3063
 1111W        W 4855   9.143   0.344  11.564  0.4301  0.0885 -0.3149
 1112W        W 4856   8.607   4.847   0.842  0.0535 -0.2772 -0.0526
 1113W        W 4857   3.065   7.381  12.356 -0.1633  0.0034  0.2300
 1114W        W 4858   0.930   6.646   2.404 -0.0218 -0.0325 -0.1854
 1115W        W 4859   6.506   5.781   2.653 -0.0221  0.1484 -0.1544
 1116W        W 4860   5.325   8.080   9.384  0.1042 -0.1983 -0.1328
 1117W        W 4861   8.134   6.174  12.682 -0.1118 -0.1300 -0.2546
 1118W        W 4862   1.196   5.500  12.336 -0.0494 -0.1756 -0.1723
 1119W        W 4863   8.948   7.097   9.787 -0.2164 -0.0689 -0.4257
 1120W        W 4864   0.446   8.825   1.426 -0.0115  0.1497  0.1382
 1121W        W 4865   1.897   5.981   1.253  0.0313  0.1785 -0.1118
 1122W        W 4866   9.860   8.092   2.489 -0.4245  0.0580  0.1831
 1123W        W 4867   2.439   7.060   0.005  0.1200  0.0911 -0.1556
 1124W        W 4868   6.095   3.978   2.439 -0.4321  0.0542  0.3893
 1125W        W 4869   3.235   0.456  12.479 -0.1933 -0.0075 -0.0737
 1126W        W 4870   5.289   5.206  11.638 -0.1288 -0.2512 -0.2445
 1127W        W 4871   8.153   2.706  11.115  0.0075  0.3506  0.0241
 1128W        W 4872   5.715   0.824  12.889  0.0545  0.0913 -0.1767
 1129W        W 4873   4.789   6.293  10.798 -0.1034 -0.0870 -0.0033
 1130W        W 4874   6.619   1.889  12.379  0.2107  0.0429  0.5209
 1131W        W 4875   2.914   7.691   0.270 -0.0560 -0.1585  0.1193
 1132W        W 4876   1.923   3.211   9.434  0.0703  0.2636 -0.0558
 1133W        W 4877   7.574   4.294  11.306  0.4215 -0.0621  0.3532
 1134W        W 4878   2.141   9.850   9.820  0.0478  0.0721  0.2760
 1135W        W 4879   6.985   1.323   9.492 -0.2493 -0.0443 -0.0009
 1136W        W 4880   0.215   9.138   8.917  0.2253  0.1306  0.1111
 1137W        W 4881   0.368   4.344   2.406 -0.0753  0.0720  0.2212
 1138W        W 4882   5.002   5.193  11.220 -0.1406 -0.2762  0.3338
 1139W        W 4883   5.460   4.078  10.916  0.2562  0.0497  0.1968
 1140W        W 4884   8.660   3.445   0.448  0.0563  0.1675  0.0784
 1141W        W 4885   9.205   7.999   4.429  0.0548 -0.0202 -0.0949
 1142W        W 4886   6.104   4.325  11.520  0.1067  0.0389 -0.0582
 1143W        W 4887   7.967   4.063   3.733  0.1577 -0.0264 -0.0858
 1144W        W 4888   9.668   0.654   2.655 -0.0483 -0.0985  0.1389
 1145W        W 4889   9.760   9.724  10.268 -0.2785 -0.3350  0.1608
 1146W        W 4890   9.812   4.228   0.805  0.0335  0.1451 -0.2585
 1147W        W 4891   1.818   6.037   8.280 -0.1967  0.1414 -0.0338
 1148W        W 4892   1.962   2.241   2.564  0.1873  0.3110 -0.1420
 1149W        W 4893   1.461   1.179   4.523  0.0458  0.0294  0.1129
 1150W        W 4894   3.416   4.294   9.442  0.3531 -0.2225  0.0832
 1151W        W 4895   6.772   8.138  10.813  0.0714 -0.0608  0.0889
 1152W        W 4896   0.068   6.555  11.499  0.0856  0.1981 -0.1277
 1153W        W 4897   7.691   5.708   1.194 -0.1305  0.1345  0.3251
 1154W        W 4898   2.729   7.191   2.604 -0.0848 -0.1529  0.0526
 1155W        W 4899   7.495   1.570  11.576 -0.1241  0.0707 -0.0978
 1156W        W 4900   2.406   6.122   2.128  0.1483  0.0079 -0.0436
 1157W        W 4901   4.662   8.902   8.397  0.0802  0.3386  0.1656
 1158W        W 4902   0.182   4.945   1.411  0.1143  0.1275 -0.1116
 1159W        W 4903   6.763   0.741   3.383  0.3229 -0.0677 -0.0438
 1160W        W 4904   0.556   2.787   9.370 -0.2133  0.0757 -0.3160
 1161W        W 4905   2.947   1.100   2.726  0.0690  0.1011 -0.1053
 1162W        W 4906   0.803   8.113   2.333  0.2983  0.1149  0.0973
 1163W        W 4907   6.562   9.016  10.408  0.2194  0.1267 -0.4092
 1164W        W 4908   5.151   9.311  10.425 -0.2717 -0.1337  0.1573
 1165W        W 4909   6.730   3.126  11.399  0.0416 -0.0654 -0.1175
 1166W        W 4910   9.629   6.702  10.671  0.1006  0.1336 -0.0723
 1167W        W 4911   2.825   5.825  10.621 -0.0421  0.0638  0.2937
 1168W        W 4912   0.590   7.418   9.366  0.0854 -0.1027 -0.0413
 1169W        W 4913   2.746   2.058  10.460  0.2077  0.1454  0.0360
 1170W        W 4914   7.592   9.302   2.206  0.1047 -0.1174  0.2617
 1171W        W 4915   8.984   8.641  12.151  0.0481 -0.4411  0.0498
 1172W        W 4916   1.383   6.991   2.538 -0.0488 -0.3839  0.0399
 1173W        W 4917   8.192   8.161   0.327  0.2450 -0.0455 -0.0468
 1174W        W 4918   6.318   0.735   3.021 -0.0434  0.0533  0.0958
 1175W        W 4919   9.379   9.610   4.110  0.0275 -0.1197 -0.3190
 1176W        W 4920   2.962   1.050  11.881  0.0122  0.1912  0.0925
 1177W        W 4921   2.143   0.630   2.643 -0.1169 -0.3760 -0.0112
 1178W        W 4922   0.832   0.264   3.699  0.2245 -0.0859  0.2797
 1179W        W 4923   1.535   3.800  10.436  0.0983 -0.3631  0.2183
 1180W        W 4924   3.535   3.693   1.061  0.0416  0.1671  0.2141
 1181W        W 4925   8.119   5.437  11.925 -0.0322  0.3019  0.0596
 1182W        W 4926   0.017   2.857   8.811 -0.0422  0.0828  0.1683
 1183W        W 4927   0.785   5.897   2.454 -0.0847  0.0716  0.3703
 1184W        W 4928   1.110   1.671   2.780 -0.0361 -0.0586 -0.0498
 1185W        W 4929   4.537   6.612   8.805 -0.2945  0.0608  0.0792
 1186W        W 4930   5.425   2.238  12.418 -0.0322 -0.2073  0.0238
 1187W        W 4931   7.424   1.190   9.841  0.2499 -0.0244  0.1122
 1188W        W 4932   6.431   4.033   3.846  0.2438  0.1485  0.0898
 1189W        W 4933   0.958   9.673   3.749  0.1497 -0.1814  0.3214
 1190W        W 4934   6.819   0.727  10.716 -0.1005 -0.0955 -0.0341
 1191W        W 4935   4.430   9.174   1.136  0.3614  0.2393 -0.0186
 1192W        W 4936   7.347   7.120  12.676  0.3303 -0.0482 -0.0282
 1193W        W 4937   3.427   8.068   7.994  0.1607 -0.0529  0.2038
 1194W        W 4938   2.357   0.245   3.585 -0.1836 -0.2247  0.0694
 1195W        W 4939   0.072   8.409   1.625 -0.0375  0.0986 -0.1239
 1196W        W 4940   1.008   6.838   2.858 -0.1443  0.2654 -0.2867
 1197W        W 4941   7.171   4.173  11.934  0.3055 -0.4110 -0.0736
 1198W        W 4942   9.589   8.893   9.675  0.2608 -0.2321  0.0938
 1199W        W 4943   4.690   1.687  12.658 -0.0628  0.2364  0.1795
 1200W        W 4944   8.459   2.806  12.016 -0.2167 -0.2203  0.1229
 1201W        W 4945   1.709   8.371   9.240 -0.0375 -0.0498 -0.2234
 1202W        W 4946   1.862   8.110   3.567  0.0762 -0.0286  0.0315
 1203W        W 4947   3.862   2.037  11.028 -0.3430 -0.0223  0.1123
 1204W        W 4948   4.207   5.095  12.544 -0.5190  0.4676  0.1251
 1205W        W 4949   4.079   2.185   0.237  0.0074  0.1177 -0.0454
 1206W        W 4950   6.531   6.342  12.449  0.3020 -0.1809 -0.1500
 1207W        W 4951   3.286   9.374   2.746 -0.0397  0.2727  0.0562
 1208W        W 4952   1.985   0.515   2.064 -0.4108  0.1153 -0.0060
 1209W        W 4953   6.704   4.265   9.118  0.1181  0.0393  0.1167
 1210W        W 4954   9.359   5.046   1.020 -0.3487 -0.1976 -0.0980
 1211W        W 4955   9.569   3.773   0.636 -0.3670 -0.0265 -0.0342
 1212W        W 4956   2.227   1.577   0.997 -0.0121 -0.2160  0.5220
 1213W        W 4957   8.862   6.549   8.993 -0.1561 -0.2483 -0.0757
 1214W        W 4958   9.382   7.422   2.284  0.3158  0.3086  0.1696
 1215W        W 4959   6.523   8.043   4.646 -0.0937  0.0273  0.1250
 1216W        W 4960   3.812   9.032   1.090 -0.2110 -0.1280 -0.0030
 1217W        W 4961   9.439   4.257   4.303 -0.2137  0.2663 -0.3175
 1218W        W 4962   2.117   5.286  12.444 -0.5469 -0.2521 -0.0490
 1219W        W 4963   0.467   4.562  11.085  0.0348 -0.0080  0.1087
 1220W        W 4964   2.300   4.523  10.295  0.1396  0.1712  0.0931
 1221W        W 4965   6.906   0.750  12.426 -0.1450  0.1000  0.1919
 1222W        W 4966   6.522   2.046   2.971  0.4374  0.3089  0.1798
 1223W        W 4967   6.713   4.234  12.207 -0.4423  0.2228 -0.0229
 1224W        W 4968   1.008   5.376   3.397  0.0164 -0.0156  0.0329
 1225W        W 4969   5.739   3.417   9.644 -0.4949 -0.1467 -0.1067
 1226W        W 4970   9.769   5.711  11.521  0.2157 -0.1716  0.0783
 1227W        W 4971   7.949   9.082   2.518  0.0867 -0.1309 -0.0976
 1228W        W 4972   9.127   1.303  10.545 -0.0086 -0.1122  0.0577
 1229W        W 4973   8.119   4.518   9.476  0.2222 -0.0253  0.0636
 1230W        W 4974   8.861   6.596   0.523  0.2777  0.3367  0.2018
 1231W        W 4975   5.395   8.685   1.786  0.2312  0.2721  0.1699
 1232W        W 4976   1.181   8.581   3.826 -0.2073 -0.0937  0.4683
 1233W        W 4977   0.164   1.196   4.043 -0.2883 -0.0406 -0.2484
 1234W        W 4978   1.074   1.120  11.635 -0.1968  0.0761 -0.1498
 1235W        W 4979   9.439   7.393   9.992  0.1723  0.2439 -0.1965
 1236W        W 4980   6.024   5.645   2.595  0.1665 -0.1841  0.0617
 1237W        W 4981   2.509   6.100   1.051 -0.2263 -0.0876  0.0066
 1238W        W 4982   2.248   9.026   8.660 -0.0001 -0.0037 -0.4904
 1239W        W 4983   3.682   6.768  12.870  0.1282  0.1060  0.0048
 1240W        W 4984   6.170   9.211  12.162 -0.0487 -0.0159 -0.0311
 1241W        W 4985   3.356   3.894   0.645  0.2122  0.3261 -0.0650
 1242W        W 4986   6.551   6.230   2.449 -0.0249  0.1910 -0.0050
 1243W        W 4987   0.275   0.332   7.994 -0.0652  0.3684 -0.2444
 1244W        W 4988   1.015   6.650   3.377  0.1114  0.2657  0.4087
 1245W        W 4989   5.696   9.185   8.736 -0.0318  0.1123 -0.1079
 1246W        W 4990   3.415   3.719   9.952 -0.3624  0.1216 -0.2172
 1247W        W 4991   5.893   8.438   4.579 -0.3179  0.1763 -0.0539
 1248W        W 4992   5.672   0.246  10.226 -0.0322 -0.0159 -0.0093
 1249W        W 4993   7.996   0.748   2.652  0.1693  0.0431 -0.0220
 1250W        W 4994   4.250   9.360  11.630 -0.1945  0.0699 -0.0858
 1251W        W 4995   5.961   7.932   8.048 -0.3214  0.4341  0.0737
 1252W        W 4996   4.873   3.457  11.068 -0.1020  0.0103  0.0532
 1253W        W 4997   8.429   3.884   8.205 -0.0724 -0.1706  0.2594
 1254W        W 4998   5.427   0.288   3.141 -0.1478 -0.0688 -0.0177
 1255W        W 4999   7.338   9.518   8.231  0.2344  0.0993 -0.2209
 1256W        W 5000   1.428   3.535   1.941  0.1805 -0.0522 -0.1466
 1257W        W 5001   3.000   4.137   1.351 -0.0734  0.3977  0.1971
 1258W        W 5002   5.544   7.236   4.952  0.1533  0.0280  0.2359
 1259W        W 5003   7.598   8.954  10.275 -0.1767 -0.0083 -0.0400
 1260W        W 5004   2.224   3.164   1.112 -0.3280 -0.0036  0.1604
 1261W        W 5005   6.937   8.964   1.605 -0.0489  0.1852  0.0730
 1262W        W 5006   6.980   7.436   3.389  0.0680  0.2314  0.0841
 1263W        W 5007   0.181   1.592   1.798 -0.0206  0.1410  0.0783
 1264W        W 5008   5.701   5.692   9.449 -0.1349  0.0470 -0.0879
 1265W        W 5009   0.862   8.312   2.815 -0.0495 -0.3761 -0.4967
 1266W        W 5010   7.948   3.491   1.085  0.0245 -0.0260  0.0335
 1267W        W 5011   2.533   9.289  10.588 -0.2984  0.0059 -0.0024
 1268W        W 5012   9.032   8.962   9.956  0.2040  0.0872 -0.0658
 1269W        W 5013   5.387   3.756  11.713  0.0095 -0.0373 -0.0918
 1270W        W 5014   7.533   3.553  12.674  0.0787  0.0290  0.1994
 1271W        W 5015   6.155   3.437   2.952  0.2189 -0.2005 -0.1509
 1272W        W 5016   9.507   3.033   3.687  0.1153 -0.1004  0.3159
 1273W        W 5017   2.505   9.569   2.378  0.0066  0.1203  0.2364
 1274W        W 5018   1.576   5.782  10.241  0.1602  0.1739 -0.0500
 1275W        W 5019   9.471   0.799   0.190 -0.2673 -0.1934 -0.2043
 1276W        W 5020   6.453   4.233   0.241 -0.2343  0.2259  0.1433
 1277W        W 5021   9.636   8.277   1.085  0.2645 -0.0376  0.2893
 1278W        W 5022   3.822   1.414   1.182  0.0486  0.1629  0.1125
 1279W        W 5023   6.787   5.790   0.436  0.1019  0.0654  0.0452
 1280W        W 5024   3.375   1.757   2.758  0.2321 -0.0310  0.2921
 1281W        W 5025   5.263   3.461   2.292 -0.1440 -0.0645 -0.1237
 1282W        W 5026   2.551   7.552   9.064  0.1464  0.0370 -0.0365
 1283W        W 5027   0.626   6.376  12.217 -0.0276  0.2029 -0.0132
 1284W        W 5028   0.071   1.253   9.938  0.0508 -0.3126  0.0982
 1285W        W 5029   8.207   8.924   3.691  0.0110 -0.0355 -0.1213
 1286W        W 5030   2.951   8.129   4.690  0.1104 -0.1122 -0.1687
 1287W        W 5031   6.723   7.796  11.807  0.0555  0.1562  0.0187
 1288W        W 5032   7.691   2.792   9.831 -0.0572  0.0448 -0.2107
 1289W        W 5033   0.735   3.311  10.303  0.1539 -0.1968  0.1139
 1290W        W 5034   8.466   6.141  11.277 -0.0469  0.3271 -0.2980
 1291W        W 5035   4.554   3.903  12.404 -0.2050  0.0133 -0.2104
 1292W        W 5036   3.398   5.113  10.951  0.3285 -0.1152  0.1764
 1293W        W 5037   7.793   9.103   4.023  0.0278  0.2230 -0.1173
 1294W        W 5038   9.800   5.855   8.091  0.0196  0.0047  0.1463
 1295W        W 5039   1.047   5.473   2.925 -0.1314 -0.0852 -0.2643
 1296W        W 5040   4.953   6.624   9.071  0.0772  0.0692 -0.0910
 1297W        W 5041   5.538   7.004  12.234  0.2356 -0.3471  0.0020
 1298W        W 5042   4.106   8.209  12.443  0.3372  0.1029  0.1330
 1299W        W 5043   4.324   6.431   2.965  0.0375 -0.0781  0.1481
 1300W        W 5044   0.210   7.000   2.919 -0.5197 -0.2231  0.0944
 1301W        W 5045   5.083   4.805   2.939  0.3211 -0.0318 -0.0523
 1302W        W 5046   0.145   7.187   1.653  0.1073 -0.1147 -0.2364
 1303W        W 5047   1.073   8.118   3.315  0.0795  0.0101 -0.2409
 1304W        W 5048   8.449   5.812   2.945  0.2009 -0.2815 -0.0887
 1305W        W 5049   3.914   6.052  10.933  0.2832  0.1611  0.0511
 1306W        W 5050   2.661   0.566  12.632 -0.2217 -0.2717  0.0716
 1307W        W 5051   9.224   8.977   3.388 -0.0094 -0.4230  0.2801
 1308W        W 5052   1.740   1.639   3.804  0.1065 -0.0274  0.1763
 1309W        W 5053   8.050   0.206   4.111  0.2063  0.0760 -0.5815
 1310W        W 5054   2.778   2.812   2.611 -0.0993 -0.2472  0.0799
 1311W        W 5055   5.250   0.111   4.015  0.3224  0.0560 -0.1520
 1312W        W 5056   0.986   4.630  12.481 -0.1354  0.0703 -0.0333
 1313W        W 5057   8.141   0.475  10.548  0.2248  0.1695 -0.2495
 1314W        W 5058   8.618   0.940  10.419 -0.0309 -0.0567  0.0108
 1315W        W 5059   7.993   7.780   1.201  0.0985  0.0086 -0.2607
 1316W        W 5060   7.267   0.425   0.259  0.0860 -0.0896 -0.1552
 1317W        W 5061   0.349   1.107   2.564 -0.1341  0.1693  0.0787
 1318W        W 5062   0.746   7.953   3.678 -0.2247 -0.3222 -0.0335
 1319W        W 5063   0.849   4.834  11.009  0.1313 -0.1425 -0.2425
 1320W        W 5064   4.245   9.583   1.522 -0.0958  0.0633  0.0534
 1321W        W 5065   1.962   9.546  12.447 -0.2549  0.5025 -0.0650
 1322W        W 5066   8.496   5.347   4.107 -0.0918  0.1066  0.1684
 1323W        W 5067   6.040   9.282   1.887  0.0107  0.1956  0.1086
 1324W        W 5068   8.348   6.427  10.091  0.3022 -0.0734 -0.0157
 1325W        W 5069   0.001   0.411   9.512 -0.3085 -0.3980  0.2089
 1326W        W 5070   3.647   7.226   3.586 -0.3083  0.0968  0.2385
 1327W        W 5071   8.755   5.129   9.491 -0.0993  0.0090  0.4035
 1328W        W 5072   4.533   9.467   2.481  0.3104 -0.1695 -0.0904
 1329W        W 5073   6.365   0.474   8.925  0.1488  0.2170  0.1901
 1330W        W 5074   1.814   5.518   2.420 -0.2290  0.2340  0.0726
 1331W        W 5075   8.925   6.210   8.114  0.2099 -0.1052 -0.2728
 1332W        W 5076   0.716   0.544   3.224 -0.1580  0.1810 -0.0645
 1333W        W 5077   2.550   0.922  11.342 -0.0432  0.1422  0.1279
 1334W        W 5078   8.450   0.150  12.009 -0.0059  0.0270  0.1149
 1335W        W 5079   2.068   9.509   8.843  0.0185 -0.0221  0.3885
 1336W        W 5080   0.063   9.894   9.855  0.1359  0.1634  0.1594
 1337W        W 5081   1.956   3.014  10.738 -0.2201 -0.1917  0.1547
 1338W        W 5082   7.247   7.594  12.423  0.1355  0.2596  0.1048
 1339W        W 5083   2.318   7.838  10.110  0.3598  0.4061 -0.0193
 1340W        W 5084   0.668   7.387   3.705  0.0141  0.0125  0.0501
 1341W        W 5085   5.149   9.117  11.575 -0.1535  0.5028 -0.1060
 1342W        W 5086   4.024   0.902   3.453  0.2038 -0.1187 -0.3460
 1343W        W 5087   5.450   3.541  10.136 -0.0165 -0.0403  0.3214
 1344W        W 5088   9.517   8.288   9.570 -0.2839  0.1140 -0.2267
 1345W        W 5089   0.552   3.538  10.817  0.3659  0.0303  0.1384
 1346W        W 5090   5.071   1.589  11.916 -0.1790  0.3849 -0.0722
 1347W        W 5091   7.048   1.506  10.045  0.0112  0.0550  0.1029
 1348W        W 5092   1.901   9.020   9.845  0.0978 -0.0859  0.0094
 1349W        W 5093   8.645   5.704   2.489  0.1874  0.4798 -0.0248
 1350W        W 5094   4.639   5.681   3.755  0.1039 -0.3491  0.1445
 1351W        W 5095   9.771   1.265   8.954 -0.0521  0.3176 -0.2959
 1352W        W 5096   0.520   8.548   9.330  0.2092  0.2884 -0.0567
 1353W        W 5097   1.875   0.043   8.573  0.1691 -0.2801 -0.3640
 1354W        W 5098   3.544   8.499   2.249  0.1803  0.2130  0.3284
 1355W        W 5099   5.426   6.076   9.705 -0.0304  0.1852  0.1936
 1356W        W 5100   9.803   3.322   1.051 -0.5615  0.1727 -0.2449
 1357W        W 5101   3.352   1.681   0.091  0.0623  0.3259 -0.2500
 1358W        W 5102   1.104   0.870   0.716  0.0081 -0.0420  0.0629
 1359W        W 5103   2.475   3.646   0.926  0.1276  0.0216  0.2586
 1360W        W 5104   5.596   0.867  12.413  0.2785 -0.0255  0.0038
 1361W        W 5105   2.630   2.027  12.313  0.0458 -0.1729  0.0263
 1362W        W 5106   8.819   2.053  10.974 -0.0780  0.0841  0.1673
 1363W        W 5107   1.348   6.738  10.413 -0.0149 -0.1517  0.1606
 1364W        W 5108   1.228   5.850  10.677 -0.1362 -0.0363  0.3815
 1365W        W 5109   8.661   7.689   9.295 -0.0246  0.1260  0.0887
 1366W        W 5110   6.727   3.561   0.499  0.3544 -0.0908  0.2338
 1367W        W 5111   4.775   1.026  10.375  0.1214 -0.2358  0.2583
 1368W        W 5112   5.626   4.390   3.789 -0.2802  0.2573  0.1056
 1369W        W 5113   9.721   0.057  10.740  0.1186 -0.0906 -0.0940
 1370W        W 5114   1.551   9.801   3.367  0.0428  0.0805 -0.2144
 1371W        W 5115   0.287   9.615  10.453 -0.0089 -0.1472 -0.1786
 1372W        W 5116   2.176   0.422   9.710  0.1062  0.0533  0.0507
 1373W        W 5117   9.339   1.309   9.154 -0.1145  0.0511 -0.0764
 1374W        W 5118   2.478   5.779   0.608  0.0681 -0.2925  0.3396
 1375W        W 5119   7.624   6.186   2.901  0.0885  0.1648 -0.0175
 1376W        W 5120   9.804   7.907  10.585  0.3927 -0.2304  0.1308
 1377W        W 5121   7.522   5.009   3.526 -0.1492  0.1363  0.1801
 1378W        W 5122   9.127   4.222  12.564  0.1997  0.2570  0.3846
 1379W        W 5123   3.124   6.591   9.787  0.1157 -0.1078  0.1204
 1380W        W 5124   2.987   7.235   1.764 -0.0041 -0.2341 -0.1296
 1381W        W 5125   5.575   5.931   0.830  0.4101  0.0480 -0.0239
 1382W        W 5126   9.248   5.115  12.672  0.0054  0.1727  0.0337
 1383W        W 5127   3.946   0.152   9.033 -0.0528  0.0389 -0.1797
 1384W        W 5128   7.623   4.686   2.280 -0.1653 -0.1387 -0.2196
 1385W        W 5129   5.738   9.401   4.033  0.1790  0.0420  0.0001
 1386W        W 5130   6.344   6.014   3.101  0.0104 -0.0872 -0.1847
 1387W        W 5131   9.444   8.527   8.977  0.0738  0.1845  0.0108
 1388W        W 5132   2.965   7.066   8.399  0.2660 -0.1993 -0.2165
 1389W        W 5133   3.545   4.168   0.181  0.1592  0.2151  0.1401
 1390W        W 5134   4.020   6.551   0.945  0.0705  0.0488 -0.0088
 1391W        W 5135   4.543   9.585   3.386 -0.2290 -0.2295  0.2221
 1392W        W 5136   1.350   6.764   0.585  0.2181 -0.1326 -0.0275
 1393W        W 5137   7.183   4.828  10.597  0.2955  0.1686  0.3742
 1394W        W 5138   7.557   2.371  11.967  0.2795  0.1850 -0.1745
 1395W        W 5139   9.459   6.290   9.744 -0.3995 -0.0637  0.1444
 1396W        W 5140   1.152   9.112   3.733  0.1880  0.1098 -0.2728
 1397W        W 5141   9.339   4.030   8.602 -0.0277 -0.3648 -0.2317
 1398W        W 5142   8.537   2.068   0.122  0.2898 -0.0321  0.0635
 1399W        W 5143   9.074   2.837   1.559  0.2559 -0.2229 -0.2739
 1400W        W 5144   1.719   8.351  12.713  0.1045  0.1369  0.3121
 1401W        W 5145   9.711   6.911   1.563  0.1284 -0.1856 -0.0671
 1402W        W 5146   5.614   2.817  10.716 -0.1302 -0.3157 -0.4758
 1403W        W 5147   7.548   0.749   1.928  0.0199  0.1350 -0.0551
 1404W        W 5148   3.513   5.288  10.477  0.0074  0.2892 -0.1334
 1405W        W 5149   3.892   3.083   3.070 -0.3093 -0.1031 -0.1298
 1406W        W 5150   6.502   4.267  10.174  0.0982 -0.2279 -0.0738
 1407W        W 5151   3.894   5.829   9.711 -0.1773  0.0222  0.0071
 1408W        W 5152   4.386   7.156   1.685 -0.0666 -0.0918  0.1363
 1409W        W 5153   6.786   4.244  12.768 -0.0006  0.2075 -0.1640
 1410W        W 5154   4.828   8.467  11.302  0.2755 -0.5352 -0.1958
 1411W        W 5155   2.122   7.000   4.625  0.3308 -0.0414  0.1377
 1412W        W 5156   7.586   3.988   3.379  0.0633 -0.0274  0.2654
 1413W        W 5157   7.993   6.002  10.518 -0.0898  0.1683  0.2357
 1414W        W 5158   5.663   0.968   3.748 -0.1923  0.2575  0.0495
 1415W        W 5159   5.735   0.293   2.653  0.2411 -0.1545  0.2165
 1416W        W 5160   1.855   5.392   0.178 -0.0430  0.1942 -0.0888
 1417W        W 5161   7.820   1.654   2.084 -0.2058  0.5007 -0.0918
 1418W        W 5162   2.167   2.631  11.017  0.4549 -0.0475 -0.1732
 1419W        W 5163   5.106   5.559  10.382  0.1433  0.1637  0.0658
 1420W        W 5164   3.657   7.069   2.007 -0.0507  0.1077 -0.0721
 1421W        W 5165   4.405   8.288  12.051  0.0563  0.3946 -0.0116
 1422W        W 5166   1.496   9.496   3.785  0.2284  0.0098  0.0031
 1423W        W 5167   8.429   0.547   4.001  0.4040  0.1732 -0.2495
 1424W        W 5168   0.299   1.675  10.024 -0.2574 -0.1443 -0.2713
 1425W        W 5169   0.844   8.863   1.011  0.1055  0.2507 -0.2064
 1426W        W 5170   2.843   4.464   2.799  0.1290  0.0176 -0.0144
 1427W        W 5171   8.094   5.243  10.596 -0.0069 -0.0933  0.0045
 1428W        W 5172   7.731   5.607  10.819 -0.0076  0.0086 -0.1488
 1429W        W 5173   2.781   2.899  10.316  0.0678 -0.0310  0.1446
 1430W        W 5174   7.070   3.538   9.476  0.1678  0.3446  0.2656
 1431W        W 5175   3.317   2.836  10.481 -0.1532  0.4721  0.0577
 1432W        W 5176   7.645   6.374   9.960 -0.1151 -0.1194 -0.0673
 1433W        W 5177   5.237   7.510   3.559 -0.4095 -0.1361 -0.3181
 1434W        W 5178   5.241   2.496   0.517  0.0991 -0.2514 -0.0929
 1435W        W 5179   5.668   7.017   3.553  0.2243 -0.1631 -0.1160
 1436W        W 5180   5.131   8.853   9.573  0.1486 -0.1377 -0.0223
 1437W        W 5181   5.221   0.508  12.115  0.1660  0.1722  0.1161
 1438W        W 5182   1.790   0.615  11.477  0.2112  0.4063 -0.3362
 1439W        W 5183   1.738   3.667   9.498  0.0671  0.2337  0.0341
 1440W        W 5184   7.448   0.576   1.443 -0.3833  0.0225  0.1941
 1441W        W 5185   9.897   5.006   0.904 -0.2540 -0.1067 -0.2103
 1442W        W 5186   5.826   2.036   0.884 -0.0759 -0.0440 -0.2476
 1443W        W 5187   6.538   1.143  12.526 -0.0629  0.2349 -0.1493
 1444W        W 5188   5.206   4.599  10.245  0.0316 -0.1147 -0.1683
 1445W        W 5189   6.567   1.343   4.476  0.0977  0.1326  0.2567
 1446W        W 5190   3.691   7.032   8.919 -0.0030  0.0366  0.2091
 1447W        W 5191   7.185   3.283  12.373 -0.2489 -0.2652  0.2107
 1448W        W 5192   6.636   9.788   4.469 -0.1216 -0.0562  0.1103
 1449W        W 5193   3.948   5.731  11.947 -0.2822  0.3391 -0.0660
 1450W        W 5194   7.418   7.943  12.099 -0.0326 -0.0603 -0.0258
 1451W        W 5195   9.905   6.009   1.882 -0.2112 -0.2920  0.1565
 1452W        W 5196   7.958   8.988   1.557  0.4527 -0.0082  0.1181
 1453W        W 5197   8.694   4.297  12.259 -0.2953 -0.1473  0.3468
 1454W        W 5198   0.534   6.025  12.606  0.1041 -0.4270 -0.0518
 1455W        W 5199   8.687   7.122   3.639  0.0502 -0.0309 -0.1530
 1456W        W 5200   6.178   9.551   0.466 -0.1467  0.4803 -0.0356
 1457W        W 5201   0.172   7.913  12.042  0.2945 -0.2895 -0.1418
 1458W        W 5202   5.106   9.006  11.124  0.1819  0.1545 -0.0761
 1459W        W 5203   9.677   2.536  11.423  0.0151 -0.1178 -0.2014
 1460W        W 5204   5.286   3.677  11.217  0.0506 -0.0419 -0.0698
 1461W        W 5205   9.496   5.514   1.023  0.1480  0.0474  0.2306
 1462W        W 5206   0.184   4.661  12.802 -0.0876 -0.0079  0.2951
 1463W        W 5207   7.454   3.745  12.183 -0.0483 -0.1475 -0.0758
 1464W        W 5208   9.509   0.961   3.076 -0.0945 -0.2482 -0.2284
 1465W        W 5209   4.462   0.718  11.698 -0.1427  0.2965 -0.1634
 1466W        W 5210   6.666   7.782   0.785 -0.0763 -0.2871  0.3299
 1467W        W 5211   6.337   8.246  10.585  0.3364  0.1198  0.3015
 1468W        W 5212   4.135   8.299   8.870  0.5602 -0.2548  0.3499
 1469W        W 5213   3.206   8.172   3.759 -0.2595  0.2727 -0.2537
 1470W        W 5214   3.886   1.940   2.651  0.0549  0.1230 -0.0809
 1471W        W 5215   2.209   7.123  11.746  0.0872 -0.2352  0.0213
 1472W        W 5216   1.523   6.183   1.888 -0.1062  0.2493 -0.0088
 1473W        W 5217   3.261   0.012  11.263  0.0126  0.0719  0.0308
 1474W        W 5218   3.653   6.071   1.698 -0.1552 -0.1689 -0.1344
 1475W        W 5219   6.759   6.560   9.734  0.2001  0.1708  0.1021
 1476W        W 5220   7.060   3.517   2.555 -0.0250 -0.0975  0.1531
 1477W        W 5221   9.760   2.608   9.987 -0.2001  0.3234  0.0832
 1478W        W 5222   4.891   0.343   0.542 -0.1470  0.3430  0.1000
 1479W        W 5223   8.552   2.313   1.680  0.1182 -0.0601  0.0001
 1480W        W 5224   6.533   8.678   1.386 -0.2846  0.0274 -0.2404
 1481W        W 5225   5.981   4.610   9.082  0.2945 -0.1748 -0.1266
 1482W        W 5226   9.393   8.302   2.837  0.0942  0.2701  0.1463
 1483W        W 5227   9.812   2.493   2.474  0.3293  0.0474  0.1357
 1484W        W 5228   7.294   9.128   0.767  0.1060  0.1077 -0.0530
 1485W        W 5229   4.147   7.375   1.132  0.0429  0.1498  0.1880
 1486W        W 5230   4.468   8.730   9.648  0.0014  0.1384  0.1519
 1487W        W 5231   7.890   5.703   2.904  0.1436  0.2474 -0.0945
 1488W        W 5232   2.036   7.989  12.648  0.0607 -0.0868  0.1199
 1489W        W 5233   7.076   6.761   1.381  0.0416  0.0034  0.1534
 1490W        W 5234   9.104   5.290   9.208  0.1873  0.1944 -0.0412
 1491W        W 5235   2.993   2.794  10.891  0.0012 -0.2711 -0.1251
 1492W        W 5236   7.519   5.187   4.826 -0.3286  0.1502  0.2050
 1493W        W 5237   2.664   4.897   0.163  0.0050  0.1084  0.1911
 1494W        W 5238   3.388   4.214   1.062 -0.0679  0.0760  0.0102
 1495W        W 5239   4.082   0.290  12.533  0.1294 -0.1958 -0.0666
 1496W        W 5240   1.737   5.169  10.877 -0.0760 -0.3137 -0.5108
 1497W        W 5241   8.019   4.110   1.581 -0.2194  0.0530 -0.2689
 1498W        W 5242   9.265   6.365   0.198  0.1193 -0.1460 -0.3796
 1499W        W 5243   5.113   5.891   3.699  0.1526  0.1621 -0.2310
 1500W        W 5244   0.926   0.209   1.957  0.2212  0.0208  0.1272
 1501W        W 5245   9.101   6.543   1.983 -0.0848 -0.2293 -0.2391
 1502W        W 5246   3.451   5.007   1.705 -0.1047  0.2404  0.0292
 1503W        W 5247   1.505   6.365  11.044 -0.2182 -0.3524 -0.1245
 1504W        W 5248   8.839   6.202   1.441  0.0087 -0.3004  0.1255
 1505W        W 5249   0.866   0.280   1.451  0.1127 -0.2123  0.0062
 1506W        W 5250   1.709   0.115  10.153 -0.1632 -0.2473  0.0464
 1507W        W 5251   7.725   0.808  10.682  0.2834  0.1119  0.2753
 1508W        W 5252   3.193   7.331   3.364 -0.3641  0.0773 -0.0630
 1509W        W 5253   9.308   1.314  11.265  0.1398 -0.2001  0.2338
 1510W        W 5254   9.514   4.821   0.110 -0.1704  0.0437  0.0518
 1511W        W 5255   5.575   9.236   0.314 -0.0505  0.0454  0.0052
 1512W        W 5256   0.881   3.118   0.398 -0.1239  0.0801 -0.1097
 1513W        W 5257   8.659   7.669   3.478  0.1487  0.2372 -0.1960
 1514W        W 5258   9.474   9.882   3.221  0.0210 -0.1094  0.0636
 1515W        W 5259   0.160   5.688  12.536 -0.1022  0.0412 -0.1233
 1516W        W 5260   8.019   0.892   2.120 -0.1226  0.0914 -0.1932
 1517W        W 5261   3.640   6.932   0.988 -0.2280 -0.5252 -0.1661
 1518W        W 5262   3.776   1.553   9.534 -0.1727  0.0187 -0.0446
 1519W        W 5263   5.789   0.138  10.898 -0.0248 -0.3026  0.0808
 1520W        W 5264   2.131   5.958   2.565 -0.0456  0.0635  0.0777
 1521W        W 5265   0.485   8.320   0.287  0.3148  0.2440  0.1911
 1522W        W 5266   6.623   2.216   0.903 -0.1309 -0.1401  0.1417
 1523W        W 5267   0.939   3.149   1.253 -0.0065 -0.0348  0.4760
 1524W        W 5268   9.255   5.655   9.607 -0.0651 -0.3756 -0.1366
 1525W        W 5269   0.457   2.085  10.330 -0.2882 -0.1325  0.0353
 1526W        W 5270   4.341   1.981   2.458 -0.1168  0.0704 -0.4432
 1527W        W 5271   8.167   6.786   4.106  0.3504  0.1230 -0.0091
 1528W        W 5272   9.884   4.208   1.793  0.0543 -0.2109 -0.0563
 1529W        W 5273   7.770   9.530   9.401 -0.2025 -0.4353 -0.1474
 1530W        W 5274   7.599   1.990   1.814 -0.0475  0.0073 -0.0320
 1531W        W 5275   4.651   2.868   2.466  0.1490  0.1499  0.0402
 1532W        W 5276   7.233   4.159  10.251 -0.1955  0.2160 -0.0205
 1533W        W 5277   3.614   5.759  11.523  0.0813 -0.2852  0.1128
 1534W        W 5278   8.019   7.123   2.474  0.3054  0.0846  0.3230
 1535W        W 5279   9.054   8.454   3.390 -0.2307 -0.0641  0.0594
 1536W        W 5280   7.582   6.214  12.736 -0.1565  0.1241  0.0456
 1537W        W 5281   3.141   7.811   9.015  0.0494  0.1455  0.0921
 1538W        W 5282   7.843   6.761  10.814 -0.0824  0.2469 -0.2526
 1539W        W 5283   3.149   3.198   2.454  0.0893 -0.2285  0.1088
 1540W        W 5284   1.754   2.351   1.206  0.0107 -0.1452 -0.1519
 1541W        W 5285   7.479   6.107  11.747  0.1302 -0.1333 -0.0551
 1542W        W 5286   4.029   5.875  12.843  0.1231 -0.1093 -0.1499
 1543W        W 5287   3.627   5.544   8.589  0.2020  0.1116 -0.0872
 1544W        W 5288   8.085   8.547   1.746 -0.0839  0.1683 -0.2373
 1545W        W 5289   9.902   0.482   0.153 -0.2073 -0.1829 -0.2790
 1546W        W 5290   3.432   1.998   2.319 -0.1170 -0.2281  0.0201
 1547W        W 5291   3.818   4.167  11.481 -0.1314  0.1984  0.0633
 1548W        W 5292   7.144   8.269   2.078 -0.2022 -0.0512  0.1071
 1549W        W 5293   1.727   7.682   2.611 -0.2332 -0.3866 -0.1506
 1550W        W 5294   3.125   6.084  11.544  0.4299 -0.2603  0.2738
 1551W        W 5295   5.478   6.944  10.652 -0.0177  0.0693  0.0801
 1552W        W 5296   6.042   1.839  11.168  0.1433 -0.2731 -0.1163
 1553W        W 5297   0.805   9.098   1.877  0.0940  0.5232 -0.0130
 1554W        W 5298   8.028   4.407  10.737  0.0398  0.1694  0.0619
 1555W        W 5299   5.678   7.820   9.599  0.0085 -0.0918 -0.2205
 1556W        W 5300   4.243   5.117  10.402  0.0867  0.0203 -0.3975
 1557W        W 5301   9.341   1.842   2.938  0.1335  0.2839 -0.2420
 1558W        W 5302   0.901   7.409   1.820 -0.3233 -0.3173  0.0008
 1559W        W 5303   2.624   5.224  10.463  0.0711 -0.2475 -0.1010
 1560W        W 5304   3.400   4.755  11.296 -0.1362 -0.0671  0.1129
 1561W        W 5305   3.906   2.587   1.921 -0.1045 -0.0698  0.1297
 1562W        W 5306   3.170   0.783   1.057  0.1025  0.1172 -0.1563
 1563W        W 5307   2.792   2.523   9.936 -0.3617  0.0238  0.0004
 1564W        W 5308   4.486   0.225   3.286 -0.1077 -0.0058  0.1597
 1565W        W 5309   2.347   6.046   1.532 -0.0392 -0.2371 -0.2319
 1566W        W 5310   0.690   2.854  12.495  0.0879 -0.0878 -0.1083
 1567W        W 5311   7.490   9.188  10.676 -0.3672  0.2098 -0.0627
 1568W        W 5312   2.468   6.757   2.728 -0.1858 -0.0132 -0.0378
 1569W        W 5313   9.368   4.989   2.522  0.0274  0.1813 -0.0749
 1570W        W 5314   0.354   2.331   1.312  0.1562  0.1043  0.0796
 1571W        W 5315   5.265   2.529   3.582 -0.2534 -0.0346 -0.1152
 1572W        W 5316   2.152   0.631  11.072  0.1109 -0.0190  0.0487
 1573W        W 5317   7.297   2.667  10.150  0.0648  0.1300 -0.0649
 1574W        W 5318   7.531   1.455  10.244 -0.3658 -0.2292 -0.2601
 1575W        W 5319   0.286   0.125   8.456  0.0814  0.0012 -0.1270
 1576W        W 5320   1.672   7.282   8.513 -0.1055 -0.1065  0.0629
 1577W        W 5321   1.769   4.703  10.974 -0.0072  0.0090  0.0410
 1578W        W 5322   5.156   6.244  12.031  0.1630  0.2778 -0.1095
 1579W        W 5323   1.298   2.666  11.637 -0.1229 -0.2251 -0.0848
 1580W        W 5324   0.942   7.198   2.407  0.0320  0.0416 -0.2147
 1581W        W 5325   0.667   7.373  10.842  0.0079 -0.3341 -0.1220
 1582W        W 5326   4.511   8.615   3.556 -0.1891 -0.1563 -0.3042
 1583W        W 5327   1.021   1.266   3.035 -0.5257 -0.1048  0.3351
 1584W        W 5328   5.179   5.673  11.825 -0.1354 -0.2188  0.0475
 1585W        W 5329   5.573   2.772   4.299  0.2740 -0.0029 -0.2792
 1586W        W 5330   3.388   2.570   0.453  0.2475 -0.0748 -0.0983
 1587W        W 5331   7.806   4.213  12.584  0.2193  0.2596  0.1906
 1588W        W 5332   1.498   5.754   0.132 -0.1656  0.1157  0.0811
 1589W        W 5333   2.898   4.939   1.601 -0.0903  0.4263  0.0474
 1590W        W 5334   6.932   8.226  12.712 -0.1303 -0.4459 -0.1049
 1591W        W 5335   9.859   2.096   3.070 -0.0349  0.1039 -0.0561
 1592W        W 5336   0.087   4.839   3.191  0.0710  0.1085  0.0093
 1593W        W 5337   0.044   1.451  12.298 -0.0773  0.1413 -0.1178
 1594W        W 5338   7.334   4.859  11.096  0.2863  0.0179  0.0608
 1595W        W 5339   8.110   6.315   1.987 -0.0067 -0.2155  0.1302
 1596W        W 5340   5.552   2.785  12.780 -0.2889 -0.2343 -0.3915
 1597W        W 5341   8.964   6.028   0.641  0.2767 -0.2270 -0.2311
 1598W        W 5342   4.907   3.449  12.541  0.1284  0.3476  0.0812
 1599W        W 5343   8.021   4.101  11.464  0.0376  0.4566 -0.2595
 1600W        W 5344   2.092   4.549   9.836 -0.1407  0.1004 -0.0982
 1601W        W 5345   0.119   3.961  10.091 -0.0497 -0.0587 -0.0928
 1602W        W 5346   8.911   1.046  10.927  0.0595 -0.3889  0.2283
 1603W        W 5347   3.393   3.870   2.050  0.0920  0.2668 -0.2150
 1604W        W 5348   3.275   0.497  11.552 -0.0697  0.2605 -0.1044
 1605W        W 5349   0.238   2.739   8.383  0.0516  0.1782 -0.0913
 1606W        W 5350   1.893   6.360   2.279  0.1380  0.0629 -0.0519
 1607W        W 5351   5.910   1.115   3.267 -0.0782 -0.1020 -0.0833
 1608W        W 5352   4.697   3.992   2.819 -0.0053 -0.1174 -0.3723
 1609W        W 5353   9.286   1.731   9.401 -0.1762  0.0406 -0.1134
 1610W        W 5354   8.308   9.635   9.845 -0.0421 -0.2479 -0.3708
 1611W        W 5355   9.229   6.845   1.522  0.2298 -0.1595  0.2905
 1612W        W 5356   1.075   3.305   3.514  0.3020  0.1753 -0.1667
 1613W        W 5357   2.544   9.381   3.492 -0.0853 -0.0579  0.0248
 1614W        W 5358   2.408   8.499  10.554  0.0947 -0.1432  0.0898
 1615W        W 5359   0.742   6.861   3.712 -0.0092 -0.0992  0.2255
 1616W        W 5360   0.197   6.703   9.489  0.1311  0.1093 -0.3796
 1617W        W 5361   2.710   4.786  10.804  0.2094  0.4270 -0.1742
 1618W        W 5362   2.861   3.143  12.161  0.1292  0.1315 -0.2825
 1619W        W 5363   1.864   3.322  10.381  0.3037 -0.0349  0.1494
 1620W        W 5364   0.135   4.530   0.498 -0.0081  0.2729 -0.0034
 1621W        W 5365   6.722   8.574   1.904  0.0108 -0.2926 -0.0598
 1622W        W 5366   3.378   9.169  11.145  0.1361 -0.1038 -0.1851
 1623W        W 5367   7.786   7.557   2.359  0.0082 -0.2412  0.0977
 1624W        W 5368   2.985   1.886   2.469 -0.2908  0.1961  0.0608
 1625W        W 5369   4.759   2.721   3.058  0.3038 -0.1501 -0.1636
 1626W        W 5370   4.094   5.863   2.485 -0.0456  0.0477  0.3566
 1627W        W 5371   0.620   4.083   0.321  0.0817  0.1063  0.1105
 1628W        W 5372   3.141   7.714   1.437  0.2166  0.1890  0.0385
 1629W        W 5373   2.883   6.180   9.643  0.1726 -0.0080 -0.1503
 1630W        W 5374   3.398   5.066   0.781  0.1588  0.1558 -0.3995
 1631W        W 5375   4.098   7.246   8.748  0.0267  0.0410 -0.1680
 1632W        W 5376   9.652   6.557  11.120 -0.1765 -0.0691 -0.0983
 1633W        W 5377   8.969   2.162   1.284  0.2314  0.0468  0.1970
 1634W        W 5378   9.003   4.720   8.498 -0.0065 -0.0726  0.4788
 1635W        W 5379   5.514   9.698   5.276  0.0802  0.0041  0.0771
 1636W        W 5380   8.568   5.220  10.350 -0.0297 -0.1082  0.0663
 1637W        W 5381   7.372   2.663   4.335 -0.0247  0.0185  0.0942
 1638W        W 5382   9.189   7.782  11.273 -0.3811 -0.2027 -0.1428
 1639W        W 5383   1.215   0.840   3.176 -0.3100  0.1612  0.3590
 1640W        W 5384   8.858   2.281   0.785  0.2050 -0.0738  0.4137
 1641W        W 5385   0.185   7.490  11.029  0.2014 -0.1819 -0.0067
 1642W        W 5386   3.908   3.302  12.835 -0.2131 -0.1022 -0.1473
 1643W        W 5387   7.063   2.443   4.743  0.5142 -0.3864 -0.0544
 1644W        W 5388   0.117   2.127   9.976 -0.1513  0.3644  0.1311
 1645W        W 5389   3.244   8.138  10.228  0.0059 -0.3135 -0.1838
 1646W        W 5390   5.465   9.015   4.294 -0.0366  0.0345  0.0601
 1647W        W 5391   4.190   4.924   1.810 -0.2397 -0.3179  0.0797
 1648W        W 5392   4.961   8.702   3.761 -0.0335 -0.1666 -0.0292
 1649W        W 5393   5.407   0.202   8.918 -0.1067 -0.0375  0.0453
 1650W        W 5394   0.916   1.148   9.646  0.3247 -0.1331  0.2998
 1651W        W 5395   8.863   0.454   9.323  0.0696 -0.0241  0.1586
 1652W        W 5396   0.624   0.988   4.227  0.1560 -0.0769 -0.0799
 1653W        W 5397   4.294   9.005   3.278 -0.0952  0.1960 -0.1912
 1654W        W 5398   5.598   0.783   8.768  0.1504 -0.3919 -0.1202
 1655W        W 5399   9.461   2.261   1.984  0.0967  0.0649  0.1128
 1656W        W 5400   3.865   9.236  11.125 -0.1641  0.4293 -0.1729
 1657W        W 5401   9.906   8.621   9.245 -0.0793  0.1207  0.0486
 1658W        W 5402   8.662   6.489   2.264  0.0763  0.0257  0.2279
 1659W        W 5403   6.010   7.504   2.899 -0.0538 -0.1490 -0.0361
 1660W        W 5404   1.625   7.385  10.028  0.0000 -0.1683  0.1004
 1661W        W 5405   2.205   7.159  10.750  0.0661 -0.1744  0.1348
 1662W        W 5406   2.265   0.838   0.331 -0.1749 -0.1244  0.0723
 1663W        W 5407   4.636   1.380   1.866  0.1959 -0.1495  0.3021
 1664W        W 5408   4.360   5.923   1.510  0.1866 -0.0273 -0.1005
 1665W        W 5409   8.418   8.648   0.469 -0.1436  0.3013 -0.4105
 1666W        W 5410   2.344   7.879   9.476 -0.0297  0.2489  0.2943
 1667W        W 5411   3.194   7.836  12.141  0.2281 -0.1109 -0.1064
 1668W        W 5412   1.399   9.716   9.421  0.2061 -0.2079  0.1989
 1669W        W 5413   9.285   4.183   0.583  0.1110 -0.1428 -0.0375
 1670W        W 5414   3.740   3.385  11.937 -0.2416 -0.4192 -0.1310
 1671W        W 5415   1.398   7.854   0.813  0.2370 -0.0624  0.2255
 1672W        W 5416   8.452   2.306  11.414  0.0928 -0.1984 -0.2851
 1673W        W 5417   7.169   3.632   0.730  0.0351 -0.0105  0.3305
 1674W        W 5418   6.144   9.225  10.220  0.3565  0.0487 -0.0245
 1675W        W 5419   8.881   3.860  12.154  0.1521 -0.0114 -0.0924
 1676W        W 5420   2.217   9.179   0.576  0.0988  0.1266 -0.2508
 1677W        W 5421   5.589   1.275   2.408  0.0882  0.0046 -0.1168
 1678W        W 5422   0.621   8.435   3.630 -0.1483  0.2833 -0.0602
 1679W        W 5423   5.146   8.404  10.315  0.0566  0.0919  0.1138
 1680W        W 5424   7.818   4.525   9.095  0.1365 -0.1316  0.4028
 1681W        W 5425   1.272   0.916   2.527  0.1522  0.0837 -0.1859
 1682W        W 5426   4.996   5.766  10.798  0.2464  0.0543  0.2878
 1683W        W 5427   9.718   9.561   0.279 -0.1015  0.0108 -0.0462
 1684W        W 5428   4.402   2.098  12.682 -0.2517 -0.1322  0.0281
 1685W        W 5429   9.523   0.181   3.717  0.1181  0.4226 -0.0346
 1686W        W 5430   2.603   2.295   1.277 -0.0630  0.3394  0.0596
 1687W        W 5431   7.013   4.278   4.946 -0.0783  0.1785  0.1134
 1688W        W 5432   4.391   7.347  10.010  0.1220  0.2618  0.0806
 1689W        W 5433   4.673   3.601   1.276  0.0268  0.0116  0.0459
 1690W        W 5434   1.569   1.145  11.537 -0.0077 -0.2762 -0.3472
 1691W        W 5435   2.984   8.335   4.219 -0.1967 -0.1167  0.1498
 1692W        W 5436   0.011   5.104   1.925 -0.1993 -0.2602 -0.0723
 1693W        W 5437   7.658   1.230   0.160  0.6176 -0.0071 -0.0123
 1694W        W 5438   6.282   4.398  12.493  0.1529  0.1670  0.0669
 1695W        W 5439   3.337   5.765  10.532  0.0937 -0.2611 -0.1599
 1696W        W 5440   2.480   4.744   2.583  0.0822 -0.2926 -0.0929
 1697W        W 5441   8.244   7.722   1.598  0.1551  0.1311  0.2452
 1698W        W 5442   7.193   5.501   0.429  0.0653 -0.3608  0.0846
 1699W        W 5443   3.699   6.417   9.688 -0.1339 -0.0469  0.3447
 1700W        W 5444   2.141   5.112   2.374 -0.2606  0.2625 -0.0201
 1701W        W 5445   8.253   6.594   2.591 -0.0094 -0.2091  0.0904
 1702W        W 5446   3.614   0.974   3.780 -0.0594  0.0705  0.1391
 1703W        W 5447   7.357   2.480  11.069  0.1544  0.0765 -0.0618
 1704W        W 5448   5.929   9.907   9.688 -0.0809 -0.4484  0.0171
 1705W        W 5449   1.125   2.161   0.014 -0.1538 -0.0663 -0.3111
 1706W        W 5450   9.277   5.699   3.801 -0.0130 -0.2830 -0.2847
 1707W        W 5451   1.600   6.800   8.876  0.2294 -0.1364  0.1128
 1708W        W 5452   9.413   6.893  12.810 -0.1741 -0.0626  0.2553
 1709W        W 5453   8.752   1.615   0.011  0.0283 -0.1802 -0.0351
 1710W        W 5454   9.688   9.054   9.167 -0.2428  0.3087  0.1597
 1711W        W 5455   5.201   1.153   2.149 -0.0319  0.0063  0.0681
 1712W        W 5456   9.365   7.119   3.578  0.0043  0.3352  0.0797
 1713W        W 5457   0.911   1.484   1.370 -0.2230  0.3368 -0.0997
 1714W        W 5458   4.847   8.133   9.132  0.2291 -0.0445 -0.0955
 1715W        W 5459   4.255   3.142   0.759  0.0132  0.1173  0.0434
 1716W        W 5460   9.002   1.129   1.273  0.0259  0.0669 -0.0673
 1717W        W 5461   5.789   4.164   3.322  0.0772  0.1685 -0.0974
 1718W        W 5462   1.277   4.359  11.810 -0.1044  0.1438  0.0566
 1719W        W 5463   2.635   7.118   3.116  0.1332 -0.3097 -0.1624
 1720W        W 5464   6.406   4.936   0.985 -0.1543  0.3615  0.0856
 1721W        W 5465   0.316   0.787  11.188  0.4547  0.3180 -0.0292
 1722W        W 5466   0.862   7.413   8.832  0.1261  0.0604  0.0379
 1723W        W 5467   9.678   2.933   2.641  0.2529  0.0245 -0.1375
 1724W        W 5468   6.344   2.428  11.376  0.1305  0.0430 -0.2241
 1725W        W 5469   9.104   3.110   0.305  0.1248  0.2388  0.0965
 1726W        W 5470   8.469   0.735  10.865  0.1365 -0.2304  0.1337
 1727W        W 5471   3.621   1.891  11.942  0.3531  0.1662 -0.1669
 1728W        W 5472   8.239   4.590   2.395  0.2972 -0.1826 -0.2206
 1729W        W 5473   0.870   8.600   8.758  0.0249 -0.2330 -0.1038
 1730W        W 5474   0.239   8.149  10.373  0.0029 -0.0475  0.3217
 1731W        W 5475   6.760   4.411   0.991  0.1700  0.0932  0.0190
 1732W        W 5476   8.831   9.536   9.372  0.0359 -0.0209  0.3327
 1733W        W 5477   5.989   5.533   1.914 -0.0913 -0.1466 -0.0817
 1734W        W 5478   0.312   1.716   0.289 -0.1116 -0.0086 -0.0099
 1735W        W 5479   5.410   6.195   4.000 -0.1205  0.1631  0.2194
 1736W        W 5480   1.502   4.720   2.691 -0.1106  0.3855 -0.2076
 1737W        W 5481   5.807   3.146  12.481 -0.1029  0.1702 -0.2819
 1738W        W 5482   0.220   5.487  11.164 -0.0143  0.0351  0.1168
 1739W        W 5483   7.142   5.464   3.419  0.0813 -0.0955  0.3140
 1740W        W 5484   8.724   2.377  12.056  0.0411 -0.2955 -0.2242
 1741W        W 5485   9.300   6.390   1.406  0.0717  0.0799  0.0254
 1742W        W 5486   7.667   8.834   4.413  0.1208 -0.3381 -0.2310
 1743W        W 5487   8.573   0.941   0.613  0.0066  0.2414 -0.0036
 1744W        W 5488   0.549   9.801   9.891 -0.1561  0.1702 -0.3413
 1745W        W 5489   8.270   4.785  10.457  0.3228 -0.1776  0.1919
 1746W        W 5490   5.807   7.783  11.824  0.1481 -0.1640 -0.4394
 1747W        W 5491   1.316   8.886  11.439 -0.2379  0.0598 -0.0205
 1748W        W 5492   7.112   2.592  11.905 -0.1712  0.1203  0.1011
 1749W        W 5493   1.937   4.380   1.767 -0.1507 -0.0051  0.0385
 1750W        W 5494   2.110   1.246   9.334  0.2348 -0.0441  0.2047
 1751W        W 5495   4.755   1.486   9.273  0.1581 -0.1677  0.1596
 1752W        W 5496   2.578   0.006   3.919  0.0146 -0.0680 -0.1365
 1753W        W 5497   2.339   0.459   3.089  0.2887 -0.1079  0.1691
 1754W        W 5498   1.227   6.778  10.916 -0.0265  0.2821  0.0248
 1755W        W 5499   6.626   3.429  10.273 -0.4307  0.1544 -0.1000
 1756W        W 5500   3.322   8.931   9.554 -0.0319  0.1493 -0.1532
 1757W        W 5501   8.053   6.692   1.606 -0.2125 -0.0912 -0.1063
 1758W        W 5502   0.038   9.225   4.739  0.0836 -0.0268  0.0213
 1759W        W 5503   0.298   3.086   0.117  0.0762  0.2021  0.1211
 1760W        W 5504   3.505   3.766  11.751  0.1387 -0.0807 -0.3035
 1761W        W 5505   7.076   0.077   2.780 -0.1124  0.1687  0.0856
 1762W        W 5506   6.570   4.648   9.837 -0.4272  0.2200  0.2268
 1763W        W 5507   9.905   9.884   3.490 -0.3378 -0.3400  0.1610
 1764W        W 5508   3.535   5.367  12.886  0.0361  0.0950  0.1603
 1765W        W 5509   5.991   1.886   3.154 -0.0189  0.2063 -0.1582
 1766W        W 5510   3.642   7.951   0.639 -0.0494  0.0022  0.0408
 1767W        W 5511   8.005   1.666   8.917 -0.1620  0.0902 -0.0575
 1768W        W 5512   9.375   5.055   9.755 -0.1690  0.4258  0.1467
 1769W        W 5513   6.945   7.883   0.260 -0.0366  0.1181  0.0607
 1770W        W 5514   4.488   4.953   9.505  0.3061 -0.1951 -0.0605
 1771W        W 5515   1.522   8.475   3.427  0.1194  0.1398 -0.0311
 1772W        W 5516   1.636   1.742   9.773  0.2993  0.0279 -0.1923
 1773W        W 5517   7.249   2.890   1.541 -0.0611 -0.3665  0.2271
 1774W        W 5518   0.075   8.845  11.281  0.2138 -0.1101  0.2509
 1775W        W 5519   2.982   9.599   0.162 -0.3017 -0.2947 -0.0815
 1776W        W 5520   4.092   9.447   3.357  0.1286  0.1808 -0.0385
 1777W        W 5521   5.853   1.581   8.877 -0.0207 -0.5416 -0.1922
 1778W        W 5522   4.931   8.366   0.870  0.0867 -0.0906  0.2526
 1779W        W 5523   1.554   8.530   0.269  0.0641  0.1072  0.2306
 1780W        W 5524   1.977   0.657   3.993 -0.0627  0.1814  0.0216
 1781W        W 5525   5.480   7.201   0.951 -0.0512 -0.2635  0.0619
 1782W        W 5526   6.266   3.761  10.478 -0.1082 -0.1892 -0.0851
 1783W        W 5527   2.833   6.013   1.511  0.2698  0.0431  0.1128
 1784W        W 5528   0.715   2.220   0.420  0.2938  0.3379  0.2005
 1785W        W 5529   6.919   4.027   2.601 -0.0652  0.0030 -0.0890
 1786W        W 5530   5.351   9.234   3.000  0.0633 -0.0172 -0.1862
 1787W        W 5531   6.058   7.573  11.255 -0.1637  0.0607 -0.3555
 1788W        W 5532   0.388   8.689  10.319 -0.1168 -0.1012  0.2698
 1789W        W 5533   5.772   2.584   0.306 -0.2973 -0.0687  0.0232
 1790W        W 5534   0.027   0.518   3.825  0.2342 -0.0717  0.2005
 1791W        W 5535   9.067   6.790   3.801  0.0349 -0.0341  0.0404
 1792W        W 5536   2.481   0.374  11.336  0.1426  0.1291  0.0077
 1793W        W 5537   3.761   9.109   3.541  0.3109  0.2440  0.1398
 1794W        W 5538   0.832   5.979  11.650  0.0489  0.1921 -0.1732
 1795W        W 5539   1.212   5.309  10.820  0.3203  0.4060 -0.1243
 1796W        W 5540   1.980   5.013  11.288  0.0984  0.1279  0.0483
 1797W        W 5541   0.769   8.360  10.308  0.0993 -0.2083 -0.0782
 1798W        W 5542   9.393   1.757   2.087  0.0592 -0.2812 -0.1004
 1799W        W 5543   3.857   0.226   2.750  0.0040 -0.0988  0.0422
 1800W        W 5544   0.363   6.397   9.128 -0.0806  0.2337  0.0998
 1801W        W 5545   7.030   8.413   9.921 -0.0824  0.0927 -0.0876
 1802W        W 5546   0.505   8.751   3.127  0.2557 -0.1188  0.2340
 1803W        W 5547   8.358   2.080   3.316 -0.2832 -0.1552 -0.1232
 1804W        W 5548   2.422   5.360  12.053  0.1224  0.1597 -0.0201
 1805W        W 5549   4.999   9.910  10.143  0.0022  0.0518  0.4387
 1806W        W 5550   6.232   2.305   3.327 -0.2855 -0.3563 -0.1018
 1807W        W 5551   1.671   6.137   2.866  0.2123  0.1832 -0.4083
 1808W        W 5552   9.292   1.637  12.884 -0.3158  0.1826  0.0930
 1809W        W 5553   9.822   7.162  12.611 -0.0014 -0.0620  0.2008
 1810W        W 5554   2.261   6.670   2.115 -0.0183 -0.0404  0.3587
 1811W        W 5555   3.573   2.240   3.478 -0.1465  0.0010  0.1969
 1812W        W 5556   0.683   9.407  12.706  0.0967 -0.0623 -0.1699
 1813W        W 5557   7.929   1.905  11.344 -0.1478  0.1559 -0.1602
 1814W        W 5558   6.981   8.576  10.950  0.1693  0.0941  0.0710
 1815W        W 5559   0.214   0.865   9.656 -0.1103  0.1023  0.0406
 1816W        W 5560   1.162   7.248   1.430  0.0233 -0.1208  0.1239
 1817W        W 5561   2.706   6.303  11.089 -0.1280 -0.2294 -0.1003
 1818W        W 5562   6.409   4.358   3.428  0.0533  0.1106 -0.2073
 1819W        W 5563   4.253   7.238   9.533 -0.1953 -0.1462 -0.0485
 1820W        W 5564   7.452   6.347   8.932 -0.1060  0.1215  0.1708
 1821W        W 5565   5.756   1.806  10.088 -0.4122  0.3195  0.3274
 1822W        W 5566   3.520   6.989   1.484  0.0974 -0.0287  0.0499
 1823W        W 5567   1.338   9.519   4.317 -0.1583  0.2270 -0.0678
 1824W        W 5568   4.366   1.157   3.659  0.0089  0.3454 -0.1151
 1825W        W 5569   7.576   4.290   9.873 -0.5016  0.0487 -0.1629
 1826W        W 5570   7.329   0.530  10.640 -0.1339  0.0609  0.1434
 1827W        W 5571   8.703   4.498  12.681 -0.4460  0.0763  0.1708
 1828W        W 5572   5.268   1.262   0.484 -0.4300  0.2191  0.1995
 1829W        W 5573   8.273   0.253  11.078 -0.0537  0.3392 -0.1576
 1830W        W 5574   7.855   0.851   0.729 -0.0032  0.0490 -0.0750
 1831W        W 5575   2.743   4.975   9.254 -0.2876 -0.1289  0.1662
 1832W        W 5576   7.032   6.951   0.199  0.0892  0.2662 -0.2329
 1833W        W 5577   5.410   8.727  10.560 -0.2663  0.1281  0.0367
 1834W        W 5578   2.239   7.895   1.292  0.0089  0.1995  0.1265
 1835W        W 5579   6.396   6.446  10.608 -0.1516 -0.4120 -0.1401
 1836W        W 5580   5.624   7.347   3.923  0.0566 -0.1195 -0.1540
 1837W        W 5581   8.227   4.121  12.316  0.0828 -0.1231  0.2919
 1838W        W 5582   1.156   2.642   2.822  0.4970  0.0367 -0.0051
 1839W        W 5583   8.840   6.609   3.404  0.3041  0.0134 -0.0133
 1840W        W 5584   7.100   3.002  11.032 -0.0331 -0.0622  0.0112
 1841W        W 5585   7.382   6.640   0.395 -0.0223  0.1154 -0.1928
 1842W        W 5586   0.607   3.008   9.852  0.2226 -0.3577 -0.1677
 1843W        W 5587   9.042   5.241  10.619 -0.1571 -0.2570  0.0549
 1844W        W 5588   2.654   7.443   3.516  0.3024  0.0100 -0.0257
 1845W        W 5589   3.122   8.953   2.920  0.0183  0.0490  0.0331
 1846W        W 5590   5.831   9.709   1.766  0.0704  0.5491 -0.0706
 1847W        W 5591   9.322   0.018   5.363 -0.3720 -0.1712  0.0120
 1848W        W 5592   4.662   3.356   8.887 -0.1431 -0.0576  0.0737
 1849W        W 5593   1.605   5.423   1.992 -0.0463  0.0996  0.2906
 1850W        W 5594   6.817   2.650   0.661 -0.0282  0.1739 -0.1379
 1851W        W 5595   0.141   3.579   9.435  0.2412  0.2263  0.2077
 1852W        W 5596   2.034   9.041   2.312 -0.1647 -0.2328 -0.0532
 1853W        W 5597   6.320   7.387  10.214 -0.0781 -0.1167 -0.2205
 1854W        W 5598   3.775   2.114   9.674 -0.1027 -0.3519 -0.0662
 1855W        W 5599   9.846   2.530   3.426 -0.0843  0.4139 -0.1337
 1856W        W 5600   4.704   8.207   3.794  0.0304 -0.1434 -0.2096
 1857W        W 5601   7.833   2.359  11.254  0.2061 -0.0948 -0.1389
 1858W        W 5602   0.142   1.157   2.112  0.1499  0.0279  0.4661
 1859W        W 5603   2.392   6.297  11.476  0.1627  0.0603  0.0057
 1860W        W 5604   9.858   7.881   8.315 -0.2570 -0.1098 -0.1653
 1861W        W 5605   0.047   2.840   0.513 -0.3158  0.6472 -0.1695
 1862W        W 5606   1.784   4.930  12.626 -0.1748 -0.2380 -0.1634
 1863W        W 5607   9.670   0.405  11.456 -0.1695  0.0708 -0.0029
 1864W        W 5608   3.918   7.343   1.620 -0.1137  0.2103  0.0552
 1865W        W 5609   1.829   3.260  12.165 -0.3085 -0.0457  0.0985
 1866W        W 5610   2.842   9.117   2.548  0.0603  0.1441  0.0965
 1867W        W 5611   6.589   8.690   2.469 -0.0512 -0.1432 -0.0051
 1868W        W 5612   9.063   7.888   2.836 -0.0943  0.0155 -0.1997
 1869W        W 5613   1.487   6.846   9.399  0.0223  0.2522 -0.1908
 1870W        W 5614   8.076   5.112  11.468  0.1571 -0.0924 -0.2614
 1871W        W 5615   7.352   5.029  12.014 -0.1707 -0.2352  0.0273
 1872W        W 5616   4.585   7.225   2.380 -0.1499 -0.2529  0.3042
 1873W        W 5617   6.327   2.077   0.502 -0.1178  0.1507  0.3070
 1874W        W 5618   0.891   7.670   4.013 -0.2408 -0.0218 -0.3102
 1875W        W 5619   8.537   5.491   2.028  0.2435  0.0339  0.1456
 1876W        W 5620   0.939   3.517   0.789  0.0400 -0.1163 -0.1554
 1877W        W 5621   4.604   7.689   3.632  0.0950 -0.2714 -0.1334
 1878W        W 5622   5.402   0.923  10.106 -0.2508 -0.1310  0.0532
 1879W        W 5623   4.158   1.142  12.107 -0.3373 -0.1012  0.1007
 1880W        W 5624   5.255   6.262  11.550  0.3247  0.1409  0.0363
 1881W        W 5625   0.215   1.221  11.880 -0.1010  0.2147 -0.0981
 1882W        W 5626   2.755   7.177  10.994 -0.1050 -0.3116 -0.0003
 1883W        W 5627   0.702   1.961  11.445 -0.0925 -0.1596  0.0430
 1884W        W 5628   2.152   5.487   9.585 -0.2920 -0.0273 -0.2817
 1885W        W 5629   5.567   0.834   1.520  0.0424  0.1014  0.3451
 1886W        W 5630   4.180   4.059   9.266  0.1588  0.2133  0.1818
 1887W        W 5631   8.267   8.931   0.045  0.0763  0.0528 -0.1183
 1888W        W 5632   3.550   8.438   0.442 -0.0280 -0.1384 -0.1779
 1889W        W 5633   5.131   9.377   3.403 -0.1121 -0.1533 -0.3733
 1890W        W 5634   5.151   4.980   3.635  0.0902 -0.0752 -0.1495
 1891W        W 5635   3.289   8.298   8.461 -0.0638  0.0520  0.0821
 1892W        W 5636   9.788   6.908   3.662  0.1389  0.3696  0.0100
 1893W        W 5637   2.039   3.794  10.546  0.2913 -0.2249 -0.0089
 1894W        W 5638   7.671   8.357   1.042 -0.0160  0.0776 -0.1199
 1895W        W 5639   4.769   2.779   1.899 -0.0664  0.0103  0.3786
 1896W        W 5640   3.890   2.265  12.706  0.2724 -0.0133 -0.1099
 1897W        W 5641   4.030   5.599  10.117 -0.1305 -0.3020  0.0045
 1898W        W 5642   6.929   2.450   2.234 -0.3202 -0.2751  0.2244
 1899W        W 5643   0.599   3.845   1.171 -0.0653 -0.0422 -0.2157
 1900W        W 5644   5.407   6.426   1.483 -0.0770  0.3495 -0.1744
 1901W        W 5645   9.640   4.082  12.288 -0.1481  0.0549 -0.0684
 1902W        W 5646   4.312   0.859   2.557  0.3399 -0.2250  0.0223
 1903W        W 5647   3.331   8.225   3.302 -0.1357 -0.0687  0.0180
 1904W        W 5648   7.941   8.293   3.153 -0.0074  0.0073  0.0316
 1905W        W 5649   8.078   6.262   0.931  0.1452  0.4244 -0.2967
 1906W        W 5650   3.238   4.586  10.240  0.3284 -0.0864  0.2788
 1907W        W 5651   7.474   8.125   4.980  0.0731 -0.0496 -0.1338
 1908W        W 5652   3.777   0.424   1.922  0.0528 -0.0632  0.0903
 1909W        W 5653   5.861   6.707  10.381 -0.0004  0.1742 -0.1960
 1910W        W 5654   0.862   3.935  10.765 -0.3758  0.2794 -0.0381
 1911W        W 5655   5.615   5.471  12.139 -0.0257 -0.0110  0.2345
 1912W        W 5656   0.860   5.927  12.217  0.0628  0.1420  0.0232
 1913W        W 5657   6.201   6.575   1.096  0.4403  0.2900 -0.0538
 1914W        W 5658   8.627   9.090   0.760 -0.1456 -0.0793  0.1445
 1915W        W 5659   0.970   1.944  12.477 -0.1636  0.0159 -0.2527
 1916W        W 5660   5.127   6.570   4.212  0.3259 -0.5087  0.0265
 1917W        W 5661   1.851   7.881  11.659 -0.2760  0.0776 -0.2132
 1918W        W 5662   4.283   1.259   4.290  0.0844  0.2286  0.0083
 1919W        W 5663   8.993   2.660   1.096 -0.3565  0.2448 -0.1761
 1920W        W 5664   8.604   0.007  10.271 -0.1467  0.0608  0.0230
 1921W        W 5665   0.173   2.596   4.517 -0.2244 -0.2354 -0.2184
 1922W        W 5666   4.604   1.876  11.327  0.4331  0.0373 -0.0767
 1923W        W 5667   2.776   3.900   9.209 -0.0913 -0.2448 -0.0743
 1924W        W 5668   3.111   7.693   2.329 -0.1032  0.0730 -0.0422
 1925W        W 5669   4.642   7.583  10.388  0.0981  0.1971  0.2266
 1926W        W 5670   3.391   1.323   2.505 -0.0383  0.2990 -0.1391
 1927W        W 5671   4.490   7.103  11.285  0.3193 -0.0402 -0.2520
 1928W        W 5672   6.533   0.264  10.771 -0.0487  0.1022 -0.3142
 1929W        W 5673   8.920   0.107  12.867  0.1148  0.0736  0.2140
 1930W        W 5674   7.053   6.725  11.246 -0.0084 -0.0774 -0.2696
 1931W        W 5675   0.157   3.122   9.214  0.0983 -0.1755 -0.2463
 1932W        W 5676   6.524   9.823   2.961  0.1039  0.2128 -0.1541
 1933W        W 5677   8.753   3.811   1.795 -0.0515 -0.1147  0.1737
 1934W        W 5678   5.542   8.106  10.227 -0.1997 -0.1950 -0.1757
 1935W        W 5679   8.186   5.399  11.060  0.0446  0.0821  0.0290
 1936W        W 5680   5.817   0.640   0.928 -0.1573  0.2691 -0.1650
 1937W        W 5681   6.920   3.135   0.940 -0.3089 -0.1147  0.1051
 1938W        W 5682   8.837   9.752  11.056 -0.0058 -0.2731 -0.2602
 1939W        W 5683   5.606   4.558   1.345 -0.1120 -0.2270  0.3744
 1940W        W 5684   3.414   2.366   2.029  0.2665 -0.1080 -0.0239
 1941W        W 5685   3.292   9.451   1.533 -0.1849 -0.0211 -0.3090
 1942W        W 5686   5.493   3.518   2.852 -0.5096 -0.1821  0.1899
 1943W        W 5687   1.681   0.502   1.693 -0.0225 -0.2195  0.2795
 1944W        W 5688   8.032   3.558  11.071  0.3584  0.2884 -0.1164
 1945W        W 5689   2.047   3.814  11.896  0.5506 -0.0100  0.0357
 1946W        W 5690   8.904   8.015  10.253  0.1995 -0.6059 -0.1187
 1947W        W 5691   0.263   8.145   8.957  0.0353 -0.1160  0.1182
 1948W        W 5692   2.310   5.532   2.265  0.2462 -0.1098  0.4164
 1949W        W 5693   9.709   4.411   9.543  0.0071  0.1715 -0.1425
 1950W        W 5694   7.466   4.774   1.735 -0.1798  0.2209  0.0169
 1951W        W 5695   7.251   8.889   0.265 -0.1935  0.3812  0.2563
 1952W        W 5696   6.698   0.204  12.523 -0.2985  0.2471  0.2400
 1953W        W 5697   9.459   0.310   0.208  0.2218 -0.1644 -0.1992
 1954W        W 5698   7.915   0.276   3.206  0.0336 -0.1471  0.2392
 1955W        W 5699   7.120   4.345  11.431 -0.0952 -0.1557 -0.3279
 1956W        W 5700   0.334   4.798   3.623 -0.0517 -0.2394 -0.2062
 1957W        W 5701   6.705   4.082  11.250  0.0560 -0.0860 -0.4153
 1958W        W 5702   3.167   5.846   1.885 -0.1669 -0.1059 -0.0973
 1959W        W 5703   2.350   9.161  11.897  0.0113  0.2155 -0.0045
 1960W        W 5704   9.620   7.734   9.540 -0.0537 -0.1902 -0.3207
 1961W        W 5705   7.501   1.951  12.358 -0.4504 -0.0316  0.1196
 1962W        W 5706   4.751   6.970   1.337 -0.0933  0.2343  0.0223
 1963W        W 5707   4.701   9.684  12.133 -0.1156  0.1184  0.0009
 1964W        W 5708   3.656   3.169  10.560  0.3779  0.1109 -0.2260
 1965W        W 5709   0.536   9.610   8.942 -0.5110 -0.4017  0.1609
 1966W        W 5710   6.193   4.960   9.596  0.1135  0.4094 -0.1378
 1967W        W 5711   2.515   1.147  12.798 -0.5073  0.1190 -0.2018
 1968W        W 5712   2.834   7.084   7.683  0.0523 -0.1306  0.1382
 1969W        W 5713   1.348   7.526   8.806 -0.1816 -0.0057  0.0425
 1970W        W 5714   2.620   8.127   3.074  0.1656 -0.0069  0.2478
 1971W        W 5715   4.047   1.062  10.613 -0.1238 -0.1140  0.1072
 1972W        W 5716   2.774   8.517  11.122  0.0260  0.1004  0.0075
 1973W        W 5717   8.762   3.673   3.783  0.4273  0.1254  0.2597
 1974W        W 5718   7.594   0.648   3.106 -0.0623 -0.1713  0.3717
 1975W        W 5719   2.966   9.794   9.206  0.5031 -0.1337 -0.0068
 1976W        W 5720   8.183   6.300  12.205 -0.1484  0.1018  0.3637
 1977W        W 5721   2.621   2.155   3.394  0.1640 -0.3731 -0.3921
 1978W        W 5722   2.836   6.656   9.406 -0.2408 -0.1452  0.1720
 1979W        W 5723   9.642   9.810   8.523 -0.0203  0.2868  0.1147
 1980W        W 5724   3.984   1.999  12.260 -0.2199 -0.1672  0.0551
 1981W        W 5725   6.783   0.724   4.291 -0.0444  0.3599 -0.0883
 1982W        W 5726   9.546   2.870   0.201  0.0730  0.0261 -0.1775
 1983W        W 5727   9.200   0.953   9.478 -0.2099  0.2625  0.0481
 1984W        W 5728   5.072   5.237  12.665  0.1281  0.0839  0.2999
 1985W        W 5729   9.185   1.311   2.202  0.2087 -0.0319 -0.1148
 1986W        W 5730   8.447   8.626   1.387 -0.1451  0.4117  0.1032
 1987W        W 5731   1.832   0.963   2.532 -0.1569 -0.3100 -0.3476
 1988W        W 5732   9.025   6.440   2.971 -0.3407 -0.1138 -0.4591
 1989W        W 5733   1.724   8.211   2.676  0.0973  0.0458 -0.2082
 1990W        W 5734   2.534   3.377  10.229 -0.0554  0.0557 -0.1620
 1991W        W 5735   3.820   4.096   0.641 -0.1735  0.1363 -0.0565
 1992W        W 5736   3.185   2.405  10.242 -0.0663 -0.1106  0.2403
 1993W        W 5737   0.057   9.460   9.308 -0.0020 -0.1662  0.0942
 1994W        W 5738   0.626   9.316   0.865  0.0298 -0.2358  0.2281
 1995W        W 5739   8.352   5.589   4.798  0.1392 -0.0550  0.0188
 1996W        W 5740   8.725   5.696  11.191 -0.1074 -0.0204  0.0193
 1997W        W 5741   8.547   4.470  10.845 -0.2178  0.1116  0.0512
 1998W        W 5742   2.578   5.362   1.575 -0.1419  0.0645 -0.0957
 1999W        W 5743   0.259   1.658  10.635 -0.3525 -0.0742 -0.0692
 2000W        W 5744   8.232   7.987   9.331  0.2797 -0.0595 -0.1208
 2001W        W 5745   0.154   4.066   9.599  0.0908  0.2123 -0.1759
 2002W        W 5746   9.076   8.110   9.334 -0.0986  0.2060  0.1651
 2003W        W 5747   9.413   6.427  10.184  0.1336  0.3893 -0.0503
 2004W        W 5748   0.323   0.598  11.977 -0.3645 -0.2977 -0.2975
 2005W        W 5749   6.590   7.355   1.925 -0.1005 -0.3459 -0.0266
 2006W        W 5750   3.137   2.359   2.580 -0.0555 -0.1390  0.1342
 2007W        W 5751   6.704   3.922   0.816 -0.0656 -0.0688  0.0200
 2008W        W 5752   4.735   0.816   2.765  0.0269 -0.0461  0.4688
 2009W        W 5753   3.588   5.813   2.225  0.0166  0.4260  0.0722
 2010W        W 5754   5.218   8.092   1.089  0.0357  0.0024  0.1697
 2011W        W 5755   5.453   1.233   2.995  0.0618  0.1271  0.1287
 2012W        W 5756   8.805   0.383   1.913 -0.0007 -0.0628 -0.3579
 2013W        W 5757   2.450   9.483  12.289  0.2262  0.0446  0.0445
 2014W        W 5758   3.992   3.704  11.573  0.0399  0.0608 -0.1607
 2015W        W 5759   1.421   3.580   9.968 -0.0045  0.0917 -0.1163
 2016W        W 5760   3.425   6.270   4.088  0.1920 -0.3798 -0.1109
 2017W        W 5761   3.342   6.817  10.649 -0.0481  0.0795 -0.0530
 2018W        W 5762   1.671   9.378  10.305  0.1129 -0.0406 -0.2603
 2019W        W 5763   5.109   8.833   0.420 -0.0744  0.4776  0.3993
 2020W        W 5764   6.326   5.648   0.098 -0.3703 -0.4915 -0.4348
 2021W        W 5765   8.584   4.650   9.519 -0.1312  0.0844  0.1605
 2022W        W 5766   0.525   6.690   2.704  0.0279 -0.2932 -0.2256
 2023W        W 5767   5.667   0.449  11.231 -0.1233 -0.0313  0.0218
 2024W        W 5768   0.374   4.837  10.654 -0.2135  0.0891 -0.0062
 2025W        W 5769   7.146   6.008   9.209  0.1259  0.0736  0.2333
 2026W        W 5770   3.639   5.260   9.568  0.0777 -0.1619  0.1312
 2027W        W 5771   0.396   8.648  11.729 -0.0119 -0.0933 -0.0806
 2028W        W 5772   8.604   5.329  12.129 -0.0360  0.3126  0.2201
 2029W        W 5773   4.258   7.396   3.320 -0.1782 -0.0265 -0.2968
 2030W        W 5774   0.624   7.837  10.189  0.0412  0.0692 -0.1406
 2031W        W 5775   4.890   5.541   2.901  0.3436 -0.0872 -0.2537
 2032W        W 5776   2.380   5.890   3.520  0.1160  0.0874 -0.0970
 2033W        W 5777   2.626   6.205   9.196  0.0071 -0.0935  0.2397
 2034W        W 5778   3.258   0.710  10.785  0.1452 -0.3784  0.2994
 2035W        W 5779   6.064   6.513   3.126  0.1557  0.1903  0.0254
 2036W        W 5780   1.129   1.943  11.121 -0.1264 -0.1441  0.3410
 2037W        W 5781   6.466   1.760   4.731 -0.1571  0.0711 -0.0110
 2038W        W 5782   9.659   5.609   0.396  0.1250 -0.1212  0.1444
 2039W        W 5783   0.294   8.751   4.475 -0.1249  0.0788  0.1082
 2040W        W 5784   3.745   6.323  12.641  0.0662  0.2049 -0.0287
 2041W        W 5785   2.289   0.051   2.176  0.0084 -0.2015 -0.1215
 2042W        W 5786   3.576   2.876  12.022 -0.0505 -0.3163  0.1149
 2043W        W 5787   6.018   7.809  10.394 -0.0575 -0.2922 -0.0618
 2044W        W 5788   5.584   7.704  11.333 -0.0736 -0.0133 -0.0763
 2045W        W 5789   1.623   5.045   2.285 -0.4413  0.1647 -0.0665
 2046W        W 5790   1.086   5.468  12.828 -0.3449 -0.3078  0.1152
 2047W        W 5791   4.024   3.693   0.836  0.0215  0.0316  0.1211
 2048W        W 5792   7.535   1.211   0.865 -0.1012  0.0426  0.3125
 2049W        W 5793   2.224   7.551  12.822  0.0810 -0.1799  0.0664
 2050W        W 5794   4.696   4.218  12.023  0.0401  0.2970 -0.2361
 2051W        W 5795   8.728   7.379   4.926 -0.0184  0.2690  0.0212
 2052W        W 5796   3.494   5.254   1.267  0.0810  0.0258  0.1505
 2053W        W 5797   6.430   2.631  10.614  0.0143 -0.1752  0.1819
 2054W        W 5798   7.927   1.714   0.652  0.1318 -0.0708  0.1479
 2055W        W 5799   8.000   1.388   9.356 -0.2796  0.0149  0.3324
 2056W        W 5800   5.427   0.452   3.637 -0.0183  0.0673 -0.2591
 2057W        W 5801   9.273   3.405   2.500  0.2540  0.0641 -0.2973
 2058W        W 5802   5.733   5.661   8.492  0.4061  0.1636  0.4288
 2059W        W 5803   4.484   6.134  12.665 -0.0621  0.5709 -0.1039
 2060W        W 5804   9.576   0.957   2.243 -0.2419  0.1527  0.1170
 2061W        W 5805   4.864   7.842  12.109 -0.1005  0.2848  0.1301
 2062W        W 5806   8.867   9.004  12.587 -0.0422 -0.1373 -0.0700
 2063W        W 5807   1.116   0.181   1.037  0.0504  0.0157 -0.0069
 2064W        W 5808   5.756   5.447   0.723 -0.1851 -0.0208 -0.2326
 2065W        W 5809   2.185   9.063  12.545 -0.0355 -0.0437  0.3046
 2066W        W 5810   3.379   5.132   2.924  0.2058 -0.0640  0.3817
 2067W        W 5811   6.553   3.953   2.208 -0.3132 -0.0973  0.0218
 2068W        W 5812   3.381   5.693   3.342  0.0741 -0.1832  0.1098
 2069W        W 5813   2.220   3.053   0.265  0.1716  0.1885 -0.0511
 2070W        W 5814   8.018   3.896   4.272  0.1689  0.0044 -0.1981
 2071W        W 5815   7.935   8.516   4.104  0.1384 -0.3649 -0.0237
 2072W        W 5816   5.303   6.209   3.379 -0.0877  0.2100  0.2814
 2073W        W 5817   5.247   9.395   9.808  0.0685  0.1388  0.0516
 2074W        W 5818   8.840   0.448   4.283  0.1693  0.1769  0.1251
 2075W        W 5819   3.722   4.903  11.713 -0.0630 -0.1465  0.1806
 2076W        W 5820   9.876   0.773   8.782  0.1036 -0.0989  0.2773
 2077W        W 5821   5.367   1.687   2.180  0.2111 -0.1803 -0.3850
 2078W        W 5822   5.025   6.808  10.027  0.2684  0.0236 -0.1416
 2079W        W 5823   0.284   2.017   0.705  0.1287  0.1346 -0.2450
 2080W        W 5824   1.384   3.239  10.363  0.0762  0.0420  0.0757
 2081W        W 5825   7.063   3.874   2.074 -0.0962 -0.0161  0.0926
 2082W        W 5826   5.193   9.040   1.324 -0.4005 -0.3039  0.1020
 2083W        W 5827   7.832   5.373   9.763  0.2130 -0.2436 -0.1302
 2084W        W 5828   5.327   7.011   2.144 -0.1758 -0.4596  0.2625
 2085W        W 5829   6.918   8.951   2.158  0.1514 -0.2516  0.0630
 2086W        W 5830   6.635   0.941  11.500  0.0786  0.0279 -0.2368
 2087W        W 5831   8.064   4.002   1.085 -0.0688  0.1345  0.0555
 2088W        W 5832   7.433   1.792   4.197 -0.1859 -0.0281 -0.1099
 2089W        W 5833   3.211   8.885  12.417 -0.0407 -0.1841 -0.0363
 2090W        W 5834   1.408   0.541   1.285 -0.0948 -0.3295  0.2460
 2091W        W 5835   5.235   2.023   0.990  0.2865  0.1234  0.1822
 2092W        W 5836   4.531   4.061   0.075 -0.0568  0.0815  0.3695
 2093W        W 5837   6.016   8.688   9.584 -0.0697  0.0543  0.1512
 2094W        W 5838   2.088   6.742   0.230  0.4068 -0.0547  0.0031
 2095W        W 5839   0.611   3.993  10.217 -0.0395 -0.1265  0.0638
 2096W        W 5840   5.091   6.993   0.764  0.0046  0.3356 -0.1169
 2097W        W 5841   8.830   7.614  10.578  0.1172  0.0171 -0.2138
 2098W        W 5842   2.436   7.656  10.571  0.2968  0.5078 -0.0687
 2099W        W 5843   1.688   5.603  10.683 -0.0046 -0.4333  0.1500
 2100W        W 5844   8.758   5.360  12.726  0.0546 -0.2874 -0.1673
 2101W        W 5845   9.874   1.708  11.906  0.2795  0.1516  0.2843
 2102W        W 5846   6.617   2.878  12.741 -0.2717 -0.1886  0.0684
 2103W        W 5847   8.798   5.001   4.223  0.4021  0.0826  0.0735
 2104W        W 5848   6.041   8.259  11.845 -0.0453 -0.2732 -0.5294
 2105W        W 5849   9.355   9.895   8.940  0.1414  0.0809  0.1284
 2106W        W 5850   8.217   5.115   2.264  0.2416 -0.1162  0.0698
 2107W        W 5851   5.588   9.053   9.786  0.2293 -0.0183  0.1899
 2108W        W 5852   0.790   2.299   2.164  0.0202  0.1170 -0.2370
 2109W        W 5853   0.602   2.765  10.291 -0.0781 -0.0215  0.2675
 2110W        W 5854   8.344   3.848   0.181 -0.1700  0.0067  0.1454
 2111W        W 5855   9.061   8.512  10.321  0.3726  0.3160 -0.3517
 2112W        W 5856   2.798   0.527   2.855  0.0043 -0.0240 -0.3255
 2113W        W 5857   1.784   3.086  11.328  0.1589  0.3089 -0.0813
 2114W        W 5858   0.970   4.485   9.214  0.2785 -0.1273 -0.1046
 2115W        W 5859   4.103   0.662  12.157 -0.0055 -0.0064 -0.2044
 2116W        W 5860   9.714   9.458   9.734 -0.3333 -0.0402  0.1069
 2117W        W 5861   3.817   3.107   0.501 -0.1243 -0.1985 -0.0934
 2118W        W 5862   3.733   6.808   8.439  0.0713  0.1233  0.0845
 2119W        W 5863   0.014   0.009   1.823 -0.0917 -0.1331  0.0336
 2120W        W 5864   4.064   1.027   8.752  0.0477  0.0561  0.3671
 2121W        W 5865   8.975   2.979  11.841 -0.3495  0.2378  0.0440
 2122W        W 5866   5.126   2.932   2.243 -0.2313 -0.2766  0.0759
 2123W        W 5867   2.617   1.402   4.164  0.2390 -0.3202  0.0656
 2124W        W 5868   6.534   1.381   1.566 -0.2376  0.0779 -0.2542
 2125W        W 5869   7.832   7.110   3.830  0.1170  0.1063 -0.0423
 2126W        W 5870   5.719   6.492   3.510  0.0455 -0.0565  0.0042
 2127W        W 5871   3.755   1.459   2.896  0.0871  0.3336 -0.0433
 2128W        W 5872   8.911   1.563   9.062 -0.0376  0.0036  0.1528
 2129W        W 5873   5.264   5.090  12.204 -0.0793  0.2964  0.1100
 2130W        W 5874   9.555   8.354   3.402 -0.0146 -0.1930 -0.1240
 2131W        W 5875   2.724   8.052   9.093 -0.0401 -0.2625  0.2568
 2132W        W 5876   2.087   0.503   8.733  0.0659  0.1503  0.0678
 2133W        W 5877   8.309   9.416   2.421 -0.1452  0.0404  0.0371
 2134W        W 5878   7.464   2.482  12.448 -0.1003  0.1130  0.1293
 2135W        W 5879   8.029   8.740   1.126  0.3584 -0.3945  0.1656
 2136W        W 5880   6.586   8.278   0.586 -0.0716 -0.0607  0.1568
 2137W        W 5881   7.433   0.395   9.436 -0.2333 -0.2736 -0.1719
 2138W        W 5882   5.800   7.895   1.137  0.0609 -0.1830 -0.1936
 2139W        W 5883   4.875   7.157   1.935 -0.1601  0.0625  0.0800
 2140W        W 5884   9.421   4.953  10.281 -0.1063 -0.1530  0.0897
 2141W        W 5885   0.736   5.358   9.948 -0.4264  0.1086 -0.2738
 2142W        W 5886   6.607   1.854   5.225 -0.1441  0.1241 -0.1007
 2143W        W 5887   3.400   7.283   8.458 -0.0725 -0.3348 -0.0593
 2144W        W 5888   3.072   6.367   8.889  0.3044  0.1889 -0.3206
 2145W        W 5889   5.618   2.254   0.007  0.1055 -0.1967  0.1010
 2146W        W 5890   4.675   9.196   8.042 -0.2024  0.5646  0.1138
 2147W        W 5891   8.515   6.994  12.716 -0.2566  0.2216  0.0031
 2148W        W 5892   2.496   4.579  11.703 -0.1313 -0.2224 -0.2091
 2149W        W 5893   0.436   8.064  11.635  0.2045  0.0053 -0.1576
 2150W        W 5894   8.481   4.467   0.266  0.3033 -0.1369 -0.1478
 2151W        W 5895   1.705   3.006   1.998 -0.2688 -0.0487  0.2291
 2152W        W 5896   6.699   1.813  11.867  0.0467  0.3544  0.0612
 2153W        W 5897   4.150   7.017   0.806 -0.0211 -0.3110 -0.2270
 2154W        W 5898   9.416   7.194  11.879 -0.0182 -0.0500  0.2981
 2155W        W 5899   3.899   4.432   9.460  0.2337 -0.2690 -0.1215
 2156W        W 5900   1.063   0.519   4.161 -0.0042  0.2684  0.0431
 2157W        W 5901   9.606   7.265   0.262 -0.1566  0.1933  0.0115
 2158W        W 5902   9.888   9.278   5.214 -0.2405  0.1088  0.1136
 2159W        W 5903   6.221   7.048   0.962 -0.3766 -0.1145 -0.0598
 2160W        W 5904   1.822   2.044   1.647  0.1469 -0.1014  0.2866
 2161W        W 5905   3.916   3.173   2.052  0.1354 -0.0607 -0.3813
 2162W        W 5906   7.144   0.671   2.810 -0.2247  0.0382 -0.0549
 2163W        W 5907   1.011   7.735   2.128 -0.0184  0.0872  0.0620
 2164W        W 5908   8.510   7.238  11.341 -0.2155  0.1737  0.1349
 2165W        W 5909   9.382   4.131   1.087  0.1485 -0.0213 -0.2239
 2166W        W 5910   1.000   3.056   3.093 -0.0117  0.2211  0.0684
 2167W        W 5911   7.778   6.770   8.933 -0.3139  0.1032  0.2107
 2168W        W 5912   8.923   5.736  10.475  0.0492 -0.1550  0.5298
 2169W        W 5913   8.725   6.997   0.850 -0.0995  0.0971 -0.0437
 2170W        W 5914   7.913   2.602  12.769  0.2739 -0.2517 -0.1415
 2171W        W 5915   9.226   2.098  10.668 -0.0260 -0.0610  0.1362
 2172W        W 5916   6.894   9.321   4.422  0.0173  0.0243  0.0346
 2173W        W 5917   4.967   2.817  10.260  0.1458  0.1699 -0.0125
 2174W        W 5918   8.351   5.321   3.633  0.4048 -0.1872  0.0892
 2175W        W 5919   1.753   6.380  12.344  0.0430 -0.0305  0.2084
 2176W        W 5920   3.279   6.825   8.655  0.2073 -0.0775  0.0200
 2177W        W 5921   6.987   0.350  11.010 -0.0891  0.1332  0.2073
 2178W        W 5922   9.723   3.070  11.164 -0.4039 -0.0537 -0.0182
 2179W        W 5923   9.522   8.830   0.834  0.1083  0.2894  0.1868
 2180W        W 5924   5.671   7.868   1.926 -0.1811 -0.1898  0.1916
 2181W        W 5925   3.792   6.778  10.988 -0.0441  0.1822 -0.0453
 2182W        W 5926   0.720   3.789   3.441 -0.3922 -0.0103  0.0913
 2183W        W 5927   6.441   4.663   9.311  0.0479 -0.2847  0.0897
 2184W        W 5928   3.182   9.898   3.991 -0.0109 -0.0128  0.1977
 2185W        W 5929   8.728   2.296   4.180  0.1438  0.0690 -0.0367
 2186W        W 5930   6.410   1.272   0.620  0.3589 -0.0595  0.4520
 2187W        W 5931   5.012   1.809  10.353 -0.0808  0.0682  0.2082
 2188W        W 5932   0.284   7.883   2.846 -0.2498  0.3678  0.1298
 2189W        W 5933   5.202   2.733   9.339 -0.2489 -0.3296 -0.1571
 2190W        W 5934   7.921   9.800  10.793 -0.5401  0.1973  0.1538
 2191W        W 5935   4.862   5.467   9.811 -0.0953  0.2853  0.1383
 2192W        W 5936   6.671   6.775   2.485  0.1810 -0.2824  0.2979
 2193W        W 5937   2.316   6.429   0.732  0.1580 -0.2429  0.0222
 2194W        W 5938   0.998   8.975   9.668  0.2247  0.1357 -0.0578
 2195W        W 5939   8.746   0.468   2.610 -0.1987 -0.2087  0.2998
 2196W        W 5940   1.083   6.249   8.022  0.0606  0.2774 -0.2397
 2197W        W 5941   9.779   5.654  10.891  0.4471  0.2158  0.1371
 2198W        W 5942   5.629   4.121  11.906 -0.0444 -0.0980 -0.0599
 2199W        W 5943   7.421   2.395   2.998  0.1609 -0.1193  0.4115
 2200W        W 5944   3.137   6.049   3.091 -0.1191 -0.1993  0.3434
 2201W        W 5945   4.724   1.098   2.321 -0.0547  0.0019 -0.0474
 2202W        W 5946   3.156   4.505   1.672 -0.0788  0.1925  0.1455
 2203W        W 5947   9.117   4.839   1.470  0.2005 -0.3070  0.0405
 2204W        W 5948   9.536   7.544   3.284 -0.0204 -0.2435  0.3926
 2205W        W 5949   1.931   3.922   1.259  0.2836  0.2560 -0.0830
 2206W        W 5950   7.967   6.231   0.236  0.5249 -0.1676  0.2834
 2207W        W 5951   2.376   5.665  10.530  0.2443 -0.1216 -0.2279
 2208W        W 5952   0.449   1.465   4.412 -0.0638  0.1895  0.3784
 2209W        W 5953   4.338   5.979   0.967  0.0939  0.3525  0.1926
 2210W        W 5954   7.288   7.868   8.952 -0.1699 -0.2311 -0.0038
 2211W        W 5955   4.245   2.521   2.466  0.1207  0.0923  0.1436
 2212W        W 5956   6.258   7.572   1.161  0.3523  0.3733  0.1656
 2213W        W 5957   9.669   1.946   0.231 -0.0863  0.1820 -0.0277
 2214W        W 5958   8.572   3.419   8.843  0.1352  0.0965  0.1079
 2215W        W 5959   9.893   6.588   3.252  0.3211 -0.1482 -0.4830
 2216W        W 5960   1.234   6.793   1.066  0.2179  0.2896 -0.1055
 2217W        W 5961   8.971   7.494  10.101 -0.0814  0.1023 -0.1691
 2218W        W 5962   6.076   4.718  10.062 -0.2420 -0.2099  0.1543
 2219W        W 5963   1.965   7.083  12.725  0.3511  0.1531  0.0535
 2220W        W 5964   7.050   9.371   3.537  0.0264 -0.3809  0.2704
 2221W        W 5965   1.560   8.994   2.141 -0.1028  0.2110 -0.2080
 2222W        W 5966   5.442   4.162  12.672  0.0876  0.0718 -0.1010
 2223W        W 5967   8.718   2.525  11.071  0.2806  0.1341  0.1965
 2224W        W 5968   1.681   2.078   0.709 -0.0473 -0.2567  0.0361
 2225W        W 5969   4.194   9.681  11.977 -0.1898  0.0626  0.0827
 2226W        W 5970   7.162   4.388   4.258  0.3621 -0.0129  0.1471
 2227W        W 5971   2.954   1.574   9.825 -0.1309  0.2732  0.2327
 2228W        W 5972   5.768   4.632   4.251  0.1324 -0.2054 -0.0226
 2229W        W 5973   8.872   9.637  10.523 -0.0641 -0.0767 -0.1601
 2230W        W 5974   1.330   8.485   8.874  0.1598  0.2756  0.1158
 2231W        W 5975   2.185   2.624   1.178 -0.1553  0.1616 -0.0207
 2232W        W 5976   5.810   2.010  12.520  0.0282  0.2720 -0.1396
 2233W        W 5977   8.171   5.003   0.636  0.0055  0.0349 -0.0355
 2234W        W 5978   7.335   2.839   2.049  0.0452  0.2337  0.1364
 2235W        W 5979   1.222   8.151   0.448 -0.0871  0.2370 -0.2479
 2236W        W 5980   1.722   2.841  10.276 -0.1046  0.2319  0.0494
 2237W        W 5981   4.547   5.082   0.002  0.2844 -0.1176 -0.1017
 2238W        W 5982   5.005   8.854   4.321 -0.2217 -0.0019  0.1546
 2239W        W 5983   8.713   2.716   4.890  0.1302 -0.1827  0.1231
 2240W        W 5984   9.658   4.028   3.345 -0.0354  0.0869 -0.0598
 2241W        W 5985   9.746   8.248   8.679  0.2499 -0.0060 -0.0384
 2242W        W 5986   5.072   7.912  10.432 -0.3360 -0.0929  0.0347
 2243W        W 5987   1.520   3.796   0.323  0.0722  0.1806  0.3179
 2244W        W 5988   3.913   8.873   0.535 -0.0293  0.1906 -0.0655
 2245W        W 5989   6.250   3.091  10.366  0.0226 -0.0835 -0.1098
 2246W        W 5990   8.354   1.642   2.994  0.0422  0.0255 -0.1448
 2247W        W 5991   4.805   5.179  10.742 -0.1425 -0.0176 -0.2691
 2248W        W 5992   7.531   3.652   2.440 -0.0830  0.2062  0.0610
 2249W        W 5993   0.428   9.177  10.304 -0.0904  0.1448 -0.3029
 2250W        W 5994   7.680   0.088  10.445  0.1440  0.3465 -0.0591
 2251W        W 5995   0.135   2.625  10.995 -0.1011  0.0086 -0.0716
 2252W        W 5996   6.256   0.249   1.702  0.2580 -0.0419  0.1851
 2253W        W 5997   8.679   9.343   1.983  0.3308  0.0305  0.1095
 2254W        W 5998   0.460   1.218  10.894 -0.1276  0.2116  0.1110
 2255W        W 5999   0.455   8.535   4.080 -0.2296 -0.1788 -0.0985
 2256W        W 6000   5.970   8.415   8.754 -0.1689 -0.2546  0.1622
 2257W        W 6001   2.298   0.158  10.225 -0.0894  0.3924  0.2775
 2258W        W 6002   0.596   6.919   2.170  0.0924  0.1955  0.2085
 2259W        W 6003   6.628   0.613   0.271 -0.2207 -0.0759  0.2443
 2260W        W 6004   4.145   2.684   9.713  0.0454 -0.0597 -0.0848
 2261W        W 6005   8.912   2.214   9.353  0.0977  0.0875 -0.0044
 2262W        W 6006   5.854   5.913   0.379  0.0215 -0.0587 -0.2038
 2263W        W 6007   2.740   8.117  12.050 -0.0761 -0.2378 -0.0833
 2264W        W 6008   2.825   2.090   2.887  0.0221 -0.1439 -0.1151
 2265W        W 6009   2.899   4.703  12.224 -0.4448 -0.0432 -0.1850
 2266W        W 6010   3.372   1.199   9.677 -0.1089  0.0246 -0.4397
 2267W        W 6011   6.670   6.873  11.565 -0.3685  0.0218 -0.3234
 2268W        W 6012   1.290   1.555  12.337  0.2655 -0.1005 -0.1087
 2269W        W 6013   1.069   8.924  11.000 -0.1582 -0.2007  0.4662
 2270W        W 6014   9.302   0.507   1.942 -0.2061  0.0751 -0.0442
 2271W        W 6015   5.977   8.443   0.016  0.0330  0.0780 -0.0657
 2272W        W 6016   7.844   9.380  11.086 -0.0673  0.1851  0.0942
 2273W        W 6017   8.954   3.366   2.909  0.0664  0.1375 -0.0385
 2274W        W 6018   3.558   8.968   2.570  0.0160 -0.4116 -0.2769
 2275W        W 6019   5.149   4.029  10.497 -0.3885  0.4766  0.2521
 2276W        W 6020   8.754   5.838  11.716 -0.0620  0.1930 -0.0901
 2277W        W 6021   8.569   9.234   9.646 -0.2503  0.1459 -0.1307
 2278W        W 6022   3.790   7.220   9.413  0.2890 -0.0465  0.1238
 2279W        W 6023   5.307   3.140   2.662 -0.0226 -0.1587  0.0016
 2280W        W 6024   3.403   3.402   0.717  0.0314  0.0906 -0.0569
 2281W        W 6025   6.646   1.095   0.207 -0.0078  0.1199  0.0829
 2282W        W 6026   7.303   9.235   3.917 -0.0117  0.1457 -0.1560
 2283W        W 6027   8.135   1.042  10.476 -0.0986  0.2233  0.1250
 2284W        W 6028   9.854   7.095   9.823 -0.0351 -0.0183  0.1458
 2285W        W 6029   4.820   8.127   9.965  0.0181  0.1714 -0.0797
 2286W        W 6030   1.132   8.060  10.381  0.0188  0.1373 -0.0851
 2287W        W 6031   7.529   0.599  11.214  0.0506 -0.3487 -0.3927
 2288W        W 6032   5.196   8.923  10.094  0.4252 -0.4612  0.2771
 2289W        W 6033   5.461   2.849  12.197  0.1166 -0.1769  0.1509
 2290W        W 6034   6.624   2.157   9.176 -0.2682 -0.0128  0.0613
 2291W        W 6035   7.617   8.258   3.747  0.0341  0.1883 -0.1992
 2292W        W 6036   7.418   8.781   1.140  0.4487  0.0846  0.1389
 2293W        W 6037   4.160   8.330   1.658 -0.1002  0.1720 -0.1867
 2294W        W 6038   3.593   8.220  11.968 -0.0542  0.1768  0.0170
 2295W        W 6039   9.022   7.048   4.631  0.0037  0.5178  0.1568
 2296W        W 6040   2.877   5.109  11.121  0.0297 -0.0567 -0.0159
 2297W        W 6041   2.322   1.980   2.824  0.1184  0.3723  0.2780
 2298W        W 6042   7.158   1.162  10.825  0.4286  0.0910  0.0384
 2299W        W 6043   7.451   1.781   8.270  0.1117 -0.0004  0.0448
 2300W        W 6044   7.284   1.848   3.086 -0.1014  0.2406  0.0675
 2301W        W 6045   1.609   7.222   9.111  0.1961 -0.0628 -0.0072
 2302W        W 6046   5.189   7.631   1.921 -0.0512 -0.2715 -0.1972
 2303W        W 6047   6.417   0.538  12.695  0.0021  0.0082  0.0265
 2304W        W 6048   9.196   1.940   9.850 -0.0561  0.0463  0.3533
 2305W        W 6049   4.250   8.239   0.931 -0.0324  0.2675 -0.0565
 2306W        W 6050   5.853   4.304   0.359 -0.0730  0.1430  0.0896
 2307W        W 6051   2.886   6.061   2.267 -0.4436 -0.0429 -0.0033
 2308W        W 6052   8.418   6.050   3.626  0.1002  0.2314 -0.0507
 2309W        W 6053   8.253   4.017  10.983 -0.1849  0.0369 -0.0067
 2310W        W 6054   3.940   8.700   9.213  0.0761 -0.1342 -0.1510
 2311W        W 6055   8.479   8.159  11.097 -0.2532 -0.2066  0.0251
 2312W        W 6056   3.762   5.212  11.278 -0.0294  0.2878 -0.4780
 2313W        W 6057   7.451   0.153   3.057 -0.2114 -0.0580  0.2465
 2314W        W 6058   2.536   7.347   8.596  0.1873  0.0322 -0.1400
 2315W        W 6059   4.734   5.058   3.227  0.2300  0.1136 -0.0290
 2316W        W 6060   8.065   2.885   3.879 -0.3703  0.2981 -0.4003
 2317W        W 6061   4.189   5.307   2.102 -0.4300 -0.0362  0.2547
 2318W        W 6062   5.686   1.064   9.717  0.1025 -0.3287  0.0291
 2319W        W 6063   8.797   9.099   4.234  0.2257 -0.3882  0.2362
 2320W        W 6064   2.814   0.478  10.644  0.0607 -0.3009  0.1249
 2321W        W 6065   1.666   4.182   2.586  0.2639  0.0262  0.0449
 2322W        W 6066   1.766   9.413   0.493  0.1061 -0.2654  0.2648
 2323W        W 6067   1.366   1.075  12.212  0.2178 -0.0331  0.3942
 2324W        W 6068   3.406   6.755   3.680 -0.1175  0.3049 -0.4606
 2325W        W 6069   4.614   9.284  12.786 -0.2045  0.1399  0.1179
 2326W        W 6070   2.533   3.639  11.513  0.0740  0.0139 -0.4910
 2327W        W 6071   3.798   7.771  12.066 -0.1402 -0.0664  0.1958
 2328W        W 6072   8.211   2.934   9.308  0.1825  0.0992  0.0108
 2329W        W 6073   0.617   5.646   8.072  0.0625  0.1526 -0.0202
 2330W        W 6074   1.308   1.619  12.884  0.1964  0.1896  0.4100
 2331W        W 6075   3.334   4.451  12.559  0.0009 -0.3887 -0.0464
 2332W        W 6076   8.485   8.440   8.732  0.2815 -0.2299 -0.2190
 2333W        W 6077   0.220   9.305   0.087  0.1603 -0.4234  0.3192
 2334W        W 6078   2.898   7.897   1.926 -0.2570 -0.1409 -0.2538
 2335W        W 6079   9.161   8.732   0.153 -0.1003  0.0239  0.1387
 2336W        W 6080   5.060   9.225  12.547  0.0242  0.0711 -0.0206
 2337W        W 6081   9.864   8.052   0.618  0.0394 -0.2073 -0.4616
 2338W        W 6082   5.692   2.404  12.019  0.0557  0.2668 -0.1128
 2339W        W 6083   1.734   2.039   9.280 -0.1040 -0.1010  0.0577
 2340W        W 6084   4.472   0.658  10.592  0.2466  0.0274 -0.3175
 2341W        W 6085   0.724   5.822   2.924  0.0651  0.0421 -0.0103
 2342W        W 6086   7.748   3.046   9.403  0.0206 -0.1700  0.2795
 2343W        W 6087   1.254   0.372   3.347  0.2886  0.0911 -0.1048
 2344W        W 6088   2.749   5.563  11.740  0.2990  0.0577  0.1278
 2345W        W 6089   6.229   0.570   2.503 -0.2493 -0.1591  0.0198
 2346W        W 6090   2.350   6.155  12.812  0.3063 -0.0226  0.1758
 2347W        W 6091   4.324   1.141   1.169 -0.0439 -0.3908 -0.0874
 2348W        W 6092   4.116   8.599  10.899  0.0446  0.0364  0.3267
 2349W        W 6093   7.226   8.180  11.233  0.0076 -0.0166  0.1076
 2350W        W 6094   0.871   1.039   1.576 -0.3571 -0.0790  0.2863
 2351W        W 6095   7.862   1.161   1.732  0.1712 -0.1095  0.0122
 2352W        W 6096   6.540   2.613   1.206 -0.1198 -0.2760  0.2330
 2353W        W 6097   5.781   9.316   2.285  0.1732  0.2023 -0.2794
 2354W        W 6098   6.640   4.321   4.231  0.0775  0.0893 -0.3243
 2355W        W 6099   8.062   3.141   0.719  0.4719  0.0860 -0.0609
 2356W        W 6100   5.595   1.251   9.184  0.2370 -0.1685  0.0715
 2357W        W 6101   4.696   6.680   3.427  0.1497  0.1939  0.0559
 2358W        W 6102   9.640   1.961  11.508 -0.4358 -0.2060 -0.0084
 2359W        W 6103   3.416   2.005  10.584 -0.2470  0.4063 -0.0063
 2360W        W 6104   7.495   1.522  12.091  0.1624  0.1159 -0.0436
 2361W        W 6105   0.229   6.554  10.957  0.0172 -0.0976 -0.1275
 2362W        W 6106   1.528   3.683  11.231 -0.3130 -0.0102  0.0742
 2363W        W 6107   9.158   4.807  10.830  0.2341  0.0328  0.0024
 2364W        W 6108   8.876   6.535  10.512 -0.0057  0.1725  0.3180
 2365W        W 6109   6.073   8.859   9.047 -0.2628  0.0283  0.1664
 2366W        W 6110   9.653   0.170   2.783  0.1757  0.3047  0.1657
 2367W        W 6111   2.745   3.307   1.244 -0.1106 -0.3032  0.3336
 2368W        W 6112   7.834   4.781   9.810 -0.2032 -0.1536  0.0127
 2369W        W 6113   9.247   1.020   3.546 -0.0525  0.1420  0.0078
 2370W        W 6114   1.385   5.044   3.064  0.2193 -0.4428 -0.1552
 2371W        W 6115   5.412   8.882   3.387  0.0748  0.1456  0.2253
 2372W        W 6116   6.651   4.888   2.231  0.1145  0.1293  0.0226
 2373W        W 6117   9.864   5.020   9.848  0.1712  0.2565 -0.0843
 2374W        W 6118   3.609   0.314  12.785  0.0939  0.0821  0.0451
 2375W        W 6119   0.267   6.444  12.655 -0.0053 -0.3092  0.3684
 2376W        W 6120   7.423   0.262  11.589 -0.0133 -0.0116 -0.1684
 2377W        W 6121   8.418   1.756   9.268 -0.2143  0.2244  0.2512
 2378W        W 6122   6.981   9.774  12.327  0.0666  0.4208  0.2927
 2379W        W 6123   3.274   7.139   2.317 -0.0183 -0.2114 -0.1087
 2380W        W 6124   7.709   7.691  11.317 -0.1819 -0.1605  0.2424
 2381W        W 6125   9.638   1.343   1.910  0.3175 -0.1711 -0.2031
 2382W        W 6126   8.469   4.171  11.419  0.0066 -0.1720  0.1999
 2383W        W 6127   3.981   7.185  11.231  0.1594 -0.0930  0.1063
 2384W        W 6128   5.655   9.374   3.408 -0.1911  0.2383  0.0659
 2385W        W 6129   1.253   6.390  12.451 -0.1363  0.4844  0.3170
 2386W        W 6130   3.518   7.024   3.129 -0.1564  0.0538 -0.0330
 2387W        W 6131   1.508   8.593   4.826 -0.3128 -0.0309  0.2328
 2388W        W 6132   6.097   2.708   4.182  0.1538 -0.2445  0.3548
 2389W        W 6133   4.993   0.156   3.447 -0.1553  0.0015 -0.6537
 2390W        W 6134   7.417   8.711  11.611 -0.1593 -0.3130 -0.4049
 2391W        W 6135   2.263   4.968  10.083  0.0222  0.1537  0.1667
 2392W        W 6136   1.966   2.538   9.275 -0.1525 -0.1776  0.3938
 2393W        W 6137   6.948   6.482  11.662 -0.2322  0.1221 -0.0592
 2394W        W 6138   5.585   6.190  12.676  0.0831 -0.1112  0.1657
 2395W        W 6139   5.654   1.817   3.569  0.3216 -0.1043 -0.1010
 2396W        W 6140   7.660   1.283  10.687  0.3669  0.0399  0.3136
 2397W        W 6141   2.693   3.075   2.210 -0.0060 -0.0470  0.0435
 2398W        W 6142   8.399   4.081   8.637 -0.2078 -0.1693 -0.0483
 2399W        W 6143   5.285   9.105   2.115 -0.1043 -0.0827 -0.3072
 2400W        W 6144   4.323   1.861  10.868 -0.1486 -0.0759  0.0264
 2401W        W 6145   9.073   3.795   1.365  0.0468  0.1516  0.0147
 2402W        W 6146   7.781   6.574   1.144 -0.1849 -0.2397  0.0570
 2403W        W 6147   8.485   9.287  10.286 -0.1484  0.2417 -0.5737
 2404W        W 6148   2.517   1.227   3.680  0.1934  0.2918  0.3516
 2405W        W 6149   7.006   7.318  11.396  0.2775  0.1014  0.2309
 2406W        W 6150   5.852   0.131   2.192  0.0025  0.1346 -0.0689
 2407W        W 6151   3.544   2.967   2.245  0.1972 -0.1461  0.1788
 2408W        W 6152   6.829   1.514  12.705  0.1658  0.3295 -0.0014
 2409W        W 6153   6.591   3.710  10.831 -0.1847  0.2173  0.0763
 2410W        W 6154   0.888   4.126  11.657  0.1756  0.1779 -0.2200
 2411W        W 6155   4.718   5.594   2.442  0.0518  0.1919  0.3060
 2412W        W 6156   7.182   0.345   3.920 -0.1507  0.0932 -0.1624
 2413W        W 6157   1.221   2.957   0.812 -0.0531 -0.2369 -0.0136
 2414W        W 6158   4.377   3.391  12.543  0.1465 -0.1160 -0.1234
 2415W        W 6159   1.650   7.044   0.312  0.1833  0.0172  0.1802
 2416W        W 6160   0.853   2.868   1.734  0.2294  0.0843  0.0581
 2417W        W 6161   7.314   1.144   2.045 -0.2704 -0.0225 -0.1467
 2418W        W 6162   1.801   1.848   1.170 -0.1287  0.1509 -0.0287
 2419W        W 6163   2.957   8.135  10.841  0.1763  0.1058  0.1957
 2420W        W 6164   1.692   0.484   2.487  0.0666  0.0820  0.1111
 2421W        W 6165   5.029   0.892   8.683  0.2160 -0.2050 -0.2695
 2422W        W 6166   3.835   6.414  11.368 -0.1819 -0.1241 -0.0952
 2423W        W 6167   3.808   8.929   8.437  0.1310 -0.3704  0.0950
 2424W        W 6168   7.699   6.158  10.871  0.3404 -0.0108  0.1685
 2425W        W 6169   9.104   2.028   1.739  0.1277 -0.0252  0.1524
 2426W        W 6170   1.306   8.666   0.683  0.2040 -0.2187 -0.0208
 2427W        W 6171   9.771   1.222   2.585 -0.0910  0.0015  0.1943
 2428W        W 6172   8.567   7.034   2.361  0.0932 -0.1913 -0.1167
 2429W        W 6173   6.571   1.965  10.191  0.0233 -0.0435 -0.0725
 2430W        W 6174   1.477   9.634  10.745 -0.0768 -0.0128  0.0169
 2431W        W 6175   7.170   3.031   3.902  0.0556 -0.0735  0.0815
 2432W        W 6176   0.392   1.421   1.224  0.1304 -0.2275  0.4149
 2433W        W 6177   1.332   4.741   0.591  0.2289 -0.2049 -0.2186
 2434W        W 6178   9.894   2.950  11.708 -0.1685 -0.2281  0.0803
 2435W        W 6179   2.161   5.400   0.570 -0.2634  0.0135 -0.0026
 2436W        W 6180   0.013   2.646  12.884 -0.2764 -0.1289  0.2038
 2437W        W 6181   3.678   0.750  10.588  0.0257  0.0135  0.1797
 2438W        W 6182   7.896   7.080   4.371  0.1823  0.0398  0.4481
 2439W        W 6183   1.414   5.135  11.997 -0.2691 -0.0006  0.3344
 2440W        W 6184   6.133   4.677   0.005 -0.0879 -0.0493 -0.1458
 2441W        W 6185   9.055   9.393   1.456 -0.0094  0.0141  0.0919
 2442W        W 6186   9.725   9.001   3.517 -0.1147 -0.0611 -0.0195
 2443W        W 6187   3.508   8.622  11.709 -0.3797  0.3510  0.1417
 2444W        W 6188   4.315   3.888   0.552 -0.3409 -0.2105  0.2173
 2445W        W 6189   9.572   5.042   1.551  0.2523 -0.0769  0.1947
 2446W        W 6190   5.503   2.658   2.290  0.0777  0.2463  0.1416
 2447W        W 6191   0.062   3.045   9.743 -0.0366  0.1959  0.1077
 2448W        W 6192   4.121   1.406   9.912  0.2430 -0.3432 -0.1693
 2449W        W 6193   3.816   0.877   1.141 -0.1018  0.1757 -0.0959
 2450W        W 6194   8.248   3.373   3.147 -0.0301 -0.0035  0.1531
 2451W        W 6195   5.882   0.438   8.960  0.0769 -0.1573 -0.0103
 2452W        W 6196   8.823   2.413  12.596 -0.2166  0.0024  0.0880
 2453W        W 6197   8.305   5.900   0.160  0.0679 -0.2760  0.0140
 2454W        W 6198   4.917   6.063  11.227 -0.1847  0.2316  0.4473
 2455W        W 6199   0.096   9.447   3.879 -0.1421 -0.1194  0.0404
 2456W        W 6200   2.777   7.043   0.877 -0.1201  0.1370  0.0465
 2457W        W 6201   6.337   6.486   9.411 -0.0753  0.1266 -0.0195
 2458W        W 6202   5.769   8.803   2.075 -0.2315  0.2394 -0.1306
 2459W        W 6203   5.515   8.490  12.002  0.0015  0.1596 -0.0370
 2460W        W 6204   9.059   4.428  11.192  0.1662 -0.2249  0.1964
 2461W        W 6205   6.545   0.847  12.052 -0.0418  0.3030  0.2539
 2462W        W 6206   8.724   4.907  12.460 -0.0085 -0.2066 -0.0349
 2463W        W 6207   8.782   6.258  12.254 -0.0289 -0.2016  0.0865
 2464W        W 6208   9.637   9.504   2.327  0.2236 -0.0970 -0.0512
 2465W        W 6209   3.995   7.676  12.579 -0.0045 -0.0180  0.3189
 2466W        W 6210   0.931   1.880   1.859  0.2316 -0.2345  0.2002
 2467W        W 6211   6.580   6.174  11.251 -0.0716  0.0821  0.1949
 2468W        W 6212   6.867   4.606   4.600  0.1543 -0.3181 -0.2321
 2469W        W 6213   3.029   8.480   9.965 -0.1587 -0.1444 -0.1507
 2470W        W 6214   9.726   3.728   1.344  0.3038  0.3036 -0.4055
 2471W        W 6215   0.488   6.184  10.735  0.1475 -0.0942  0.2605
 2472W        W 6216   9.845   4.714   2.305  0.1427 -0.0921  0.1198
 2473W        W 6217   9.320   2.353  11.686  0.1150 -0.1582 -0.1106
 2474W        W 6218   5.226   0.730   9.623  0.0494  0.1844 -0.0585
 2475W        W 6219   2.990   8.674   3.822  0.2351  0.1438 -0.0437
 2476W        W 6220   0.627   8.164   8.577 -0.0126 -0.3352 -0.2232
 2477W        W 6221   7.145   5.558   1.211  0.0605  0.1506 -0.1057
 2478W        W 6222   8.725   5.522   8.403  0.2612 -0.1063  0.2790
 2479W        W 6223   7.190   9.265  11.722  0.0579 -0.1020  0.2572
 2480W        W 6224   3.249   7.344   0.015  0.0311  0.2795  0.1446
 2481W        W 6225   4.969   5.156   0.647 -0.1890 -0.1809  0.1450
 2482W        W 6226   8.278   4.591   9.928 -0.0259 -0.1484 -0.0821
 2483W        W 6227   8.349   0.363   4.574 -0.0135  0.2060  0.0970
 2484W        W 6228   6.189   8.115   9.482  0.0340  0.1314  0.3963
 2485W        W 6229   3.782   0.316  10.714  0.1404  0.1306  0.1265
 2486W        W 6230   1.092   6.070  11.105 -0.1549 -0.2696  0.1206
 2487W        W 6231   0.385   9.169   4.263 -0.0620  0.0781 -0.0303
 2488W        W 6232   9.364   0.917   8.867  0.3067  0.1223  0.1553
 2489W        W 6233   0.835   4.823   0.905 -0.0389 -0.2945 -0.1047
 2490W        W 6234   7.344   3.237   8.640  0.2035 -0.0952  0.1516
 2491W        W 6235   3.392   9.881   2.625 -0.0636 -0.0942 -0.0469
 2492W        W 6236   9.917   8.183   0.064  0.0854 -0.1404 -0.1400
 2493W        W 6237   1.380   3.737   2.433  0.2974  0.0749  0.0300
 2494W        W 6238   1.224   7.460  11.474 -0.0997 -0.1307  0.2270
 2495W        W 6239   4.685   2.212   4.263 -0.0611  0.0996 -0.0799
 2496W        W 6240   4.341   3.186   9.726  0.2195 -0.1734  0.0070
 2497W        W 6241   9.505   0.850   9.853 -0.1103 -0.0643  0.0074
 2498W        W 6242   5.731   9.577   9.980 -0.0444  0.0910  0.2343
 2499W        W 6243   9.178   7.680   9.147  0.2666 -0.0574  0.0834
 2500W        W 6244   3.750   3.572   2.254 -0.2872 -0.3001  0.0467
 2501W        W 6245   2.759   0.423  10.149 -0.1473 -0.2321  0.0965
 2502W        W 6246   8.275   1.350   2.075 -0.0795 -0.2197 -0.1384
 2503W        W 6247   1.264   5.066   9.848 -0.4404  0.1891  0.1546
 2504W        W 6248   8.786   5.643   5.006 -0.1843  0.0378 -0.0425
 2505W        W 6249   6.027   1.081   4.748 -0.1231  0.4783  0.2031
 2506W        W 6250   5.548   4.069  10.064 -0.0134  0.0589  0.0188
 2507W        W 6251   7.854   6.568   3.802  0.0803  0.2052 -0.0739
 2508W        W 6252   1.444   7.810  12.019  0.1285 -0.1366  0.0922
 2509W        W 6253   6.480   0.940   8.704 -0.0129 -0.2396 -0.1880
 2510W        W 6254   6.156   7.682   2.473  0.3883 -0.0567  0.1706
 2511W        W 6255   7.318   0.300   2.439  0.2308  0.1041  0.0166
 2512W        W 6256   4.533   8.118   0.522 -0.0658 -0.0571  0.0180
 2513W        W 6257   8.557   7.371   9.669 -0.0294  0.2594  0.1739
 2514W        W 6258   4.688   2.565  12.784 -0.0500 -0.0557  0.0119
 2515W        W 6259   0.229   2.328   0.297 -0.1606 -0.0564 -0.3051
 2516W        W 6260   9.270   8.686   3.792 -0.0467 -0.0519  0.2075
 2517W        W 6261   6.127   2.115   2.697  0.1465  0.2349  0.1619
 2518W        W 6262   5.749   1.421  12.641 -0.1234 -0.2087  0.1122
 2519W        W 6263   8.202   6.700   0.084 -0.1781 -0.0519  0.0865
 2520W        W 6264   6.672   2.179   2.564 -0.1432 -0.1819  0.0598
 2521W        W 6265   9.068   7.657   5.289 -0.2179  0.2930 -0.1005
 2522W        W 6266   9.107   9.790  11.579 -0.4702 -0.0075 -0.0590
 2523W        W 6267   2.521   8.729   2.408 -0.0541  0.1843  0.0842
 2524W        W 6268   7.611   6.704   9.492  0.0269 -0.0179  0.0015
 2525W        W 6269   5.565   1.743   1.291  0.0299 -0.0476  0.1677
 2526W        W 6270   0.342   3.993  10.755 -0.1389  0.0497 -0.0176
 2527W        W 6271   5.910   1.131   0.781 -0.1019 -0.0837 -0.0034
 2528W        W 6272   6.695   0.001   1.078  0.0224  0.0485 -0.1946
 2529W        W 6273   2.954   9.648   2.499  0.0226  0.2263 -0.0412
 2530W        W 6274   9.916   8.257  12.440 -0.0963 -0.2327  0.1994
 2531W        W 6275   3.082   2.801  11.839 -0.0967  0.1227 -0.1117
 2532W        W 6276   4.368   8.896  11.810 -0.0911 -0.0847 -0.0401
 2533W        W 6277   7.432   5.756   0.772 -0.0520  0.2550 -0.1440
 2534W        W 6278   9.390   7.247  11.042 -0.2309  0.1215 -0.0058
 2535W        W 6279   5.224   6.140   9.276 -0.1040  0.0351 -0.0120
 2536W        W 6280   7.288   8.146   1.289  0.2094 -0.0607  0.2135
 2537W        W 6281   0.222   3.536   2.029  0.0603  0.0466  0.2438
 2538W        W 6282   6.222   3.395   0.295 -0.0153  0.1104 -0.1814
 2539W        W 6283   6.664   5.556   4.674 -0.2070  0.2763 -0.2661
 2540W        W 6284   9.641   0.535  10.887 -0.0452 -0.1254 -0.0147
 2541W        W 6285   0.340   6.123   2.731 -0.1083 -0.0054 -0.0256
 2542W        W 6286   7.060   1.721  12.289  0.0626  0.0055  0.3186
 2543W        W 6287   4.999   0.403   9.242  0.0486 -0.1731  0.3696
 2544W        W 6288   2.774   6.212   0.550  0.0352  0.1755  0.1137
 2545W        W 6289   5.005   4.498   4.422  0.1045  0.0287 -0.2152
 2546W        W 6290   7.429   5.247   3.936 -0.1551 -0.1168 -0.1048
 2547W        W 6291   7.215   7.203   1.178 -0.0995 -0.0819 -0.1581
 2548W        W 6292   7.158   6.204   0.089 -0.0689 -0.0189 -0.0817
 2549W        W 6293   7.842   2.988   4.345  0.3167 -0.2027 -0.0109
 2550W        W 6294   3.020   5.227   3.293 -0.3039  0.2015 -0.0283
 2551W        W 6295   9.323   2.145   9.101  0.1544  0.4428 -0.1555
 2552W        W 6296   8.245   9.795   4.424 -0.1080 -0.1626 -0.0629
 2553W        W 6297   9.203   3.992   9.173 -0.0048 -0.1308 -0.1998
 2554W        W 6298   9.674   4.209   0.269  0.3560 -0.3158  0.2072
 2555W        W 6299   9.749   0.291   8.961  0.3607  0.0807 -0.1269
 2556W        W 6300   5.809   0.344   4.430 -0.2149 -0.2602 -0.0237
 2557W        W 6301   4.965   0.673  11.688  0.0840  0.0091  0.1082
 2558W        W 6302   5.486   7.096  12.729 -0.2481  0.3748  0.0120
 2559W        W 6303   6.679   0.144   0.099  0.0978 -0.0023 -0.0322
 2560W        W 6304   7.977   4.547  11.716  0.1985  0.0324  0.0563
 2561W        W 6305   0.877   4.031   0.758 -0.2569 -0.1674  0.2896
 2562W        W 6306   1.390   3.902   0.804 -0.2799  0.0556 -0.1467
 2563W        W 6307   2.146   1.879   3.258  0.0663  0.2764  0.1769
 2564W        W 6308   3.836   4.950   9.187  0.2849  0.2913  0.1126
 2565W        W 6309   1.068   9.886  12.108 -0.3313 -0.0534  0.0685
 2566W        W 6310   7.347   0.148  10.054  0.0795  0.3823 -0.2246
 2567W        W 6311   0.210   9.295   2.416  0.2626 -0.1514  0.2568
 2568W        W 6312   5.830   7.945   2.773 -0.0592  0.2976 -0.4916
 2569W        W 6313   9.666   6.229   1.092 -0.1319  0.2150 -0.1356
 2570W        W 6314   6.731   0.387   2.996 -0.3977 -0.2755  0.1100
 2571W        W 6315   9.489   5.324   8.854 -0.1030  0.0318 -0.2048
 2572W        W 6316   2.011   7.895  12.172 -0.1420  0.2479 -0.0004
 2573W        W 6317   5.828   0.535   3.077 -0.2311  0.2910 -0.0124
 2574W        W 6318   2.775   4.180  11.601  0.1943  0.2765  0.2332
 2575W        W 6319   9.100   3.499   8.847  0.2829  0.0873 -0.2392
 2576W        W 6320   8.644   8.766  11.143  0.2015 -0.1583  0.2719
 2577W        W 6321   9.536   2.239  10.227 -0.0007  0.2482  0.0786
 2578W        W 6322   0.504   3.497  11.391  0.0384  0.1959 -0.1003
 2579W        W 6323   4.443   9.661   9.339 -0.0446  0.0056 -0.1190
 2580W        W 6324   3.007   7.180   1.275 -0.0043  0.0258  0.0797
 2581W        W 6325   5.813   3.143  11.754  0.1950  0.0155 -0.1238
 2582W        W 6326   6.384   5.706  11.186  0.0249 -0.1236  0.0791
 2583W        W 6327   0.062   7.312   4.426  0.0522 -0.1640 -0.0373
 2584W        W 6328   1.155   9.883  11.099 -0.2258  0.2286 -0.1070
 2585W        W 6329   4.409   0.690  11.186  0.0938 -0.0593  0.1301
 2586W        W 6330   8.507   5.822   0.643  0.0131  0.0735  0.2255
 2587W        W 6331   7.397   7.414   2.604 -0.2244  0.2802 -0.3252
 2588W        W 6332   6.404   5.551   2.258  0.1373 -0.3209  0.1174
 2589W        W 6333   1.606   0.641  10.972  0.2582 -0.0134 -0.2065
 2590W        W 6334   8.072   3.390   4.100  0.0768  0.0790 -0.2472
 2591W        W 6335   1.247   2.056   0.498  0.0333  0.4021  0.1730
 2592W        W 6336   1.256   7.967   2.824 -0.0145 -0.0782  0.4692
 2593W        W 6337   4.269   3.816   9.713  0.0867 -0.1222  0.0225
 2594W        W 6338   4.795   9.774   4.255  0.1760 -0.0318  0.4911
 2595W        W 6339   8.588   3.383   1.660 -0.0994  0.2492  0.3212
 2596W        W 6340   5.011   1.539   0.085 -0.0430  0.2309 -0.1453
 2597W        W 6341   5.848   8.378   1.802 -0.2666  0.0645  0.1548
 2598W        W 6342   2.079   1.689  10.037 -0.1289  0.1916  0.0069
 2599W        W 6343   4.348   0.823   2.056  0.0262  0.2010  0.4467
 2600W        W 6344   7.355   6.676  10.837 -0.1446 -0.0222 -0.1055
 2601W        W 6345   5.326   7.781   4.021  0.3489  0.1259  0.0346
 2602W        W 6346   4.221   2.306   1.129 -0.0936  0.0081 -0.0449
 2603W        W 6347   9.823   1.404   0.174 -0.0130 -0.1590 -0.3335
 2604W        W 6348   9.090   6.274  12.630  0.2059 -0.1766  0.1850
 2605W        W 6349   0.995   9.418   4.802  0.2083 -0.0140  0.0491
 2606W        W 6350   0.316   9.098  11.927  0.2828 -0.1923  0.3092
 2607W        W 6351   7.469   7.029   8.637  0.1503  0.1103  0.0968
 2608W        W 6352   5.059   2.078   0.189 -0.1786 -0.1330 -0.2047
 2609W        W 6353   1.602   2.354   0.320 -0.0252 -0.3468  0.1782
 2610W        W 6354   9.371   1.734   8.787  0.1366  0.0915 -0.1911
 2611W        W 6355   2.980   9.080   0.171  0.1348  0.2382 -0.0801
 2612W        W 6356   0.752   1.294   3.824  0.0034  0.2241  0.0301
 2613W        W 6357   5.804   6.043   3.230 -0.1017 -0.1490  0.2314
 2614W        W 6358   3.206   2.612  11.351  0.1658  0.2408  0.2664
 2615W        W 6359   8.759   0.085   2.322 -0.0239  0.1793  0.0784
 2616W        W 6360   7.094   6.691   2.180  0.0502  0.0115 -0.0126
 2617W        W 6361   3.103   8.637   0.440  0.5022 -0.3321 -0.0893
 2618W        W 6362   1.965   6.844   0.686 -0.0360 -0.2160 -0.0082
 2619W        W 6363   3.106   1.263  10.693  0.1526  0.2962 -0.2218
 2620W        W 6364   2.260   2.530  10.048 -0.2906 -0.2918  0.3391
 2621W        W 6365   8.235   2.215  10.999 -0.0236  0.2085 -0.2323
 2622W        W 6366   0.205   4.765  11.910 -0.1042  0.2188 -0.1333
 2623W        W 6367   8.953   6.576   5.251 -0.0468  0.0287 -0.3340
 2624W        W 6368   0.675   1.706  11.045  0.2542  0.1475 -0.0591
 2625W        W 6369   4.485   2.614   0.767 -0.0816  0.2266 -0.1209
 2626W        W 6370   4.490   0.194  12.869 -0.0441 -0.1476 -0.0104
 2627W        W 6371   6.776   8.536   8.352 -0.2378 -0.0639  0.0647
 2628W        W 6372   1.502   6.262  10.545 -0.1272  0.0330  0.0465
 2629W        W 6373   8.885   4.493   0.577  0.0190 -0.0307 -0.1030
 2630W        W 6374   7.675   2.134   2.626 -0.1918 -0.2501 -0.1914
 2631W        W 6375   9.195   6.390  10.900  0.2450  0.1274  0.3675
 2632W        W 6376   9.410   6.976   4.138  0.0097  0.0972  0.1103
 2633W        W 6377   7.276   3.818  11.390  0.0893 -0.0476 -0.0022
 2634W        W 6378   4.064   5.161   2.531 -0.2384 -0.1829 -0.2406
 2635W        W 6379   5.049   5.986   0.687 -0.0699 -0.0910 -0.0415
 2636W        W 6380   0.695   5.494  12.399 -0.1321  0.0649 -0.3584
 2637W        W 6381   6.857   3.585  11.254 -0.1774 -0.0806 -0.1729
 2638W        W 6382   1.719   8.726  11.804 -0.1055  0.1371  0.1747
 2639W        W 6383   9.289   3.935   0.150 -0.4037 -0.0752  0.1137
 2640W        W 6384   7.451   8.739   3.958  0.1207  0.0396 -0.0487
 2641W        W 6385   1.105   5.203  11.657  0.0790  0.0771 -0.0067
 2642W        W 6386   2.070   9.370  10.714  0.2502  0.3450 -0.2219
 2643W        W 6387   6.476   2.771   4.596  0.1142  0.0251  0.1369
 2644W        W 6388   4.564   3.208   3.208  0.0397  0.0314 -0.0292
 2645W        W 6389   2.435   3.447  12.140  0.0674 -0.1194 -0.0287
 2646W        W 6390   3.981   6.291   4.770  0.0621  0.1193  0.2231
 2647W        W 6391   3.048   0.330   0.895  0.2197 -0.0696 -0.3944
 2648W        W 6392   5.047   1.843   1.404  0.2712  0.1779 -0.2853
 2649W        W 6393   6.317   6.115  10.192 -0.1288 -0.4613 -0.0415
 2650W        W 6394   8.920   9.417   8.914  0.3337 -0.2588 -0.0502
 2651W        W 6395   2.599   8.857   0.615  0.1199  0.0538 -0.2067
 2652W        W 6396   3.737   9.601  12.664  0.3096  0.1615  0.0628
 2653W        W 6397   2.572   9.565  11.703 -0.2151 -0.1962  0.0016
 2654W        W 6398   4.822   1.090   0.123 -0.1860 -0.0966 -0.1035
 2655W        W 6399   4.652   8.276   3.241  0.0138 -0.0558 -0.3264
 2656W        W 6400   9.738   8.807   8.235 -0.1757 -0.0818 -0.0904
 2657W        W 6401   5.617   6.379  12.219  0.1113  0.4260  0.0633
 2658W        W 6402   0.784   3.527  11.783 -0.0936 -0.0833  0.4023
 2659W        W 6403   1.188   5.673   2.274 -0.1299  0.2813 -0.0621
 2660W        W 6404   7.895   5.914  10.005  0.1265  0.1210 -0.1550
 2661W        W 6405   7.331   7.327   8.213  0.0504  0.1931 -0.1722
 2662W        W 6406   2.733   6.364   1.879  0.1891  0.3592  0.0588
 2663W        W 6407   5.366   8.819   0.027 -0.3201 -0.0059  0.5129
 2664W        W 6408   1.641   9.357   8.956  0.1296 -0.0239 -0.0928
 2665W        W 6409   7.076   1.899   0.766 -0.0763 -0.0868  0.0609
 2666W        W 6410   3.320   8.939   2.003 -0.1805 -0.0380  0.2549
 2667W        W 6411   7.710   6.600   1.976  0.4138  0.1565  0.3354
 2668W        W 6412   9.266   9.762   0.391 -0.3188  0.0753  0.0333
 2669W        W 6413   8.736   8.901   3.792  0.1337 -0.0502 -0.0505
 2670W        W 6414   9.433   8.042   3.961  0.0377 -0.1537  0.1344
 2671W        W 6415   8.971   1.397   0.829 -0.2959  0.0106  0.0945
 2672W        W 6416   5.194   0.940   3.878 -0.1922 -0.2265  0.0984
 2673W        W 6417   1.125   4.261  10.386  0.3726 -0.0192 -0.1190
 2674W        W 6418   5.862   0.319   8.155  0.0786 -0.0250  0.3743
 2675W        W 6419   6.556   8.165   8.794 -0.1201 -0.1579 -0.2507
 2676W        W 6420   1.169   1.405   1.795 -0.0882 -0.0408  0.2375
 2677W        W 6421   1.165   4.706   0.053  0.4624 -0.2858  0.0935
 2678W        W 6422   9.623   2.995  12.521  0.2907  0.0402 -0.1225
 2679W        W 6423   4.638   1.811   0.248 -0.0898  0.1777 -0.0800
 2680W        W 6424   2.858   4.477   9.240 -0.1635  0.2114  0.1824
 2681W        W 6425   4.662   6.486  11.761  0.3637  0.1437 -0.0001
 2682W        W 6426   3.833   0.029   2.164 -0.1724  0.2132 -0.3124
 2683W        W 6427   5.285   5.829  12.325  0.4721  0.0746  0.1180
 2684W        W 6428   1.739   0.141   9.548  0.3400 -0.1219  0.0541
 2685W        W 6429   9.526   3.113   9.007 -0.3108  0.0996 -0.1720
 2686W        W 6430   6.392   1.915  12.864 -0.0526 -0.3069  0.0208
 2687W        W 6431   8.487   9.456   1.552  0.0653  0.1059 -0.0804
 2688W        W 6432   8.097   2.520   1.376 -0.0992  0.2901 -0.0882
 2689W        W 6433   6.277   5.217  10.351 -0.3768  0.3006 -0.0353
 2690W        W 6434   5.140   5.084  10.283  0.2639  0.2191  0.0489
 2691W        W 6435   2.990   3.261  10.102 -0.2353 -0.0449  0.2229
 2692W        W 6436   7.199   6.927   2.596 -0.1570 -0.2395  0.1643
 2693W        W 6437   8.833   2.564  11.579  0.0956 -0.0142 -0.4305
 2694W        W 6438   7.879   3.980   8.995 -0.2359  0.2068  0.0282
 2695W        W 6439   4.138   4.176  12.548  0.1046  0.1031 -0.3288
 2696W        W 6440   8.289   5.812   4.087 -0.0132  0.2319 -0.0368
 2697W        W 6441   7.996   5.057  10.152 -0.3380 -0.3291  0.1259
 2698W        W 6442   4.493   4.117   1.884 -0.2497  0.2230 -0.2242
 2699W        W 6443   2.337   7.854   3.474  0.1881 -0.0044 -0.0222
 2700W        W 6444   9.202   2.400  11.148 -0.3345  0.0684 -0.0617
 2701W        W 6445   6.070   7.510   3.458  0.0586  0.0021  0.0694
 2702W        W 6446   9.016   7.794   4.005  0.1864 -0.1213  0.2482
 2703W        W 6447   3.495   0.249   9.197 -0.0506  0.0255  0.0232
 2704W        W 6448   1.462   3.328   8.992 -0.1349  0.0710 -0.2625
 2705W        W 6449   7.241   6.791   9.003  0.0716  0.2952  0.1119
 2706W        W 6450   4.723   6.592   0.882 -0.1595  0.0689 -0.4220
 2707W        W 6451   0.531   6.849   4.951  0.0592 -0.3522 -0.3534
 2708W        W 6452   5.254   7.629  10.908 -0.0517  0.3713  0.1439
 2709W        W 6453   9.570   2.624  10.823 -0.3017 -0.1370  0.1652
 2710W        W 6454   5.522   8.123   3.177 -0.3897 -0.0489  0.2377
 2711W        W 6455   8.485   4.088   0.668  0.2612 -0.0115  0.3030
 2712W        W 6456   6.887   5.362   2.285 -0.0037  0.3450 -0.2876
 2713W        W 6457   7.901   6.024   2.325  0.0107  0.3215 -0.2760
 2714W        W 6458   4.397   5.624   8.682  0.1621  0.0556 -0.0742
 2715W        W 6459   9.544   5.148  10.741 -0.1169 -0.2541 -0.1091
 2716W        W 6460   1.993   5.373  11.770  0.0250 -0.0385 -0.2914
 2717W        W 6461   5.350   2.831   1.208  0.2488 -0.2768 -0.2401
 2718W        W 6462   3.928   6.665   2.334  0.0744 -0.2723 -0.1254
 2719W        W 6463   6.009   4.434   2.374 -0.0341 -0.1481 -0.4395
 2720W        W 6464   3.669   1.554  12.343  0.2761  0.0550  0.1098
 2721W        W 6465   2.146   6.173   8.809  0.1714 -0.3153  0.1514
 2722W        W 6466   8.159   2.442   4.108 -0.0390  0.0274 -0.1026
 2723W        W 6467   9.301   7.438   2.762 -0.3844 -0.1056  0.0644
 2724W        W 6468   6.977   5.490  10.033  0.1674  0.0732 -0.2344
 2725W        W 6469   6.984   5.198  10.848  0.2634  0.1161  0.2200
 2726W        W 6470   1.308   4.885  10.342 -0.0281  0.1149  0.0178
 2727W        W 6471   9.106   7.152   0.401  0.2056 -0.0844 -0.1373
 2728W        W 6472   3.710   0.598   9.951  0.1827  0.3342 -0.2444
 2729W        W 6473   5.990   3.529  10.121  0.1675  0.0568  0.0687
 2730W        W 6474   2.479   3.952  11.946  0.1344 -0.0584  0.4554
 2731W        W 6475   3.232   4.203  11.443  0.0867  0.0926  0.0224
 2732W        W 6476   5.126   6.642   2.882 -0.1568 -0.1359  0.1901
 2733W        W 6477   2.149   8.332   0.666 -0.1411 -0.3748  0.1548
 2734W        W 6478   9.789   7.604   2.487  0.1331 -0.3900 -0.0357
 2735W        W 6479   9.257   6.129   3.255 -0.1133 -0.2298 -0.1213
 2736W        W 6480   2.019   1.452   2.231  0.1310  0.0827  0.0266
 2737W        W 6481   5.547   8.752   9.380 -0.2365  0.1657  0.2718
 2738W        W 6482   4.028   0.117   0.926  0.0654  0.4571  0.0692
 2739W        W 6483   2.667   9.021  12.541 -0.1503  0.1903 -0.1921
 2740W        W 6484   0.094   9.827   2.327 -0.1555 -0.1327 -0.0302
 2741W        W 6485   4.734   9.281   0.467  0.0538 -0.3487 -0.2511
 2742W        W 6486   7.685   4.844  10.554 -0.1158  0.2111  0.1016
 2743W        W 6487   2.200   5.746   8.534 -0.1046  0.0153 -0.0210
 2744W        W 6488   1.441   6.609   2.209  0.0921  0.1560 -0.4029
 2745W        W 6489   8.761   0.337  11.072  0.0169  0.4338 -0.0293
 2746W        W 6490   8.379   5.915   9.741  0.1521 -0.1958 -0.2831
 2747W        W 6491   8.761   2.027   3.006 -0.1231  0.3312  0.0861
 2748W        W 6492   1.248   2.397  11.038  0.1304  0.0016 -0.0228
 2749W        W 6493   0.014   8.523   9.799 -0.0034 -0.0427 -0.1571
 2750W        W 6494   4.319   8.756   0.888  0.2576  0.0842  0.0468
 2751W        W 6495   7.724   3.496   8.918 -0.1913  0.0035  0.1355
 2752W        W 6496   3.585   0.537   2.448  0.0695 -0.1529 -0.2058
 2753W        W 6497   7.263   5.295   2.680  0.1275  0.0517  0.4597
 2754W        W 6498   1.836   5.077   2.792 -0.1157 -0.0928 -0.1974
 2755W        W 6499   8.230   5.051   1.117 -0.1092 -0.1220 -0.2230
 2756W        W 6500   7.469   3.771   9.245 -0.3801  0.1792  0.0348
 2757W        W 6501   6.070   1.512   3.569 -0.0162  0.0567  0.0591
 2758W        W 6502   7.695   7.105  11.731  0.4686 -0.1233 -0.0232
 2759W        W 6503   2.572   4.073   9.679  0.1331  0.1369  0.0737
 2760W        W 6504   3.525   1.653   1.470  0.1674 -0.0505  0.1693
 2761W        W 6505   6.298   0.894   4.302  0.0617 -0.2417 -0.3872
 2762W        W 6506   6.087   4.405   5.121  0.1125 -0.3272  0.3537
 2763W        W 6507   9.071   9.456   3.314  0.1436 -0.2458 -0.0438
 2764W        W 6508   6.564   0.124  10.282 -0.1688  0.0212  0.0013
 2765W        W 6509   1.321   2.154   1.929 -0.0358 -0.1850  0.0292
 2766W        W 6510   4.938   1.813   4.111  0.2473  0.1456 -0.2056
 2767W        W 6511   1.653   9.653   9.858 -0.1084  0.5235  0.1504
 2768W        W 6512   6.659   1.630   0.387 -0.4248  0.1238  0.2398
 2769W        W 6513   7.632   8.476  12.044 -0.1877  0.1193 -0.1355
 2770W        W 6514   1.362   6.997  12.601 -0.0719 -0.0461  0.1302
 2771W        W 6515   4.125   5.213   4.429  0.1065 -0.1483  0.0769
 2772W        W 6516   5.313   6.591   0.047 -0.0863 -0.0419 -0.2471
 2773W        W 6517   0.392   9.654   4.268  0.2496 -0.1534 -0.3845
 2774W        W 6518   1.159   7.595  12.436 -0.2003 -0.2059 -0.0930
 2775W        W 6519   9.294   1.012  12.302 -0.1787  0.0214  0.2081
 2776W        W 6520   0.593   9.876   7.953  0.1044  0.2611 -0.0342
 2777W        W 6521   4.053   0.541   0.065  0.1525 -0.0874 -0.0417
 2778W        W 6522   9.324   0.236  11.070 -0.1256  0.1086  0.0654
 2779W        W 6523   3.812   9.482   2.841  0.2637  0.2538  0.2121
 2780W        W 6524   5.519   6.799   0.500  0.0286  0.0729 -0.1796
 2781W        W 6525   9.023   3.501  10.819 -0.0752  0.1466  0.1521
 2782W        W 6526   6.529   4.284   1.481 -0.4615 -0.0689 -0.1701
 2783W        W 6527   1.622   8.410   3.994 -0.2984 -0.1644 -0.2927
 2784W        W 6528   0.825   6.305   2.783  0.1198 -0.0136  0.2208
 2785W        W 6529   5.553   5.504   1.146 -0.1708  0.1545 -0.3185
 2786W        W 6530   5.866   6.905   2.094  0.2988  0.0106  0.1881
 2787W        W 6531   6.773   3.599  12.182  0.0223  0.0053 -0.0043
 2788W        W 6532   2.262   3.445   0.524 -0.3132  0.0228  0.1968
 2789W        W 6533   1.338   9.341  11.178  0.2357 -0.3483  0.1889
 2790W        W 6534   3.195   6.700   1.059 -0.1758  0.2176  0.0059
 2791W        W 6535   1.192   4.712   2.319 -0.1558 -0.6219  0.0866
 2792W        W 6536   9.098   6.872  10.813  0.1079 -0.4010 -0.1314
 2793W        W 6537   3.340   7.113   9.720 -0.0061  0.0368 -0.0499
 2794W        W 6538   2.064   8.445   4.263  0.0242  0.0335 -0.0645
 2795W        W 6539   7.197   2.824   3.353  0.1047  0.1514 -0.0076
 2796W        W 6540   6.433   4.713   4.898  0.1525 -0.3185  0.0411
 2797W        W 6541   2.617   0.808   2.504  0.0458  0.0521  0.2297
 2798W        W 6542   1.919   7.736   1.638  0.2007 -0.0776  0.1917
 2799W        W 6543   2.012   5.942  12.439  0.3254  0.2526 -0.4407
 2800W        W 6544   8.521   2.493   9.239  0.1455  0.1324  0.1257
 2801W        W 6545   9.284   6.352   0.824  0.0333  0.2051 -0.3887
 2802W        W 6546   6.260   1.854   9.096 -0.3443 -0.2225 -0.1279
 2803W        W 6547   6.490   7.233   2.495 -0.2553 -0.0534 -0.0348
 2804W        W 6548   5.463   5.412   3.675 -0.1655 -0.0155 -0.1435
 2805W        W 6549   0.147   9.716   4.718  0.1075  0.1725 -0.0597
 2806W        W 6550   7.118   2.184   4.245  0.0988  0.0361 -0.0267
 2807W        W 6551   1.958   9.827   0.211  0.0086  0.1164 -0.1536
 2808W        W 6552   5.683   8.356   9.720  0.1790  0.1968  0.1604
 2809W        W 6553   3.440   9.119   9.066 -0.2691  0.0646 -0.0306
 2810W        W 6554   9.655   6.506   1.940 -0.0667  0.0573 -0.0654
 2811W        W 6555   1.378   5.963   8.542  0.2650 -0.1181  0.0660
 2812W        W 6556   6.261   5.389   1.005  0.0551 -0.3792  0.1245
 2813W        W 6557   0.010   5.331  10.291  0.0378 -0.1189 -0.2633
 2814W        W 6558   5.223   1.053  12.008 -0.2508  0.0976  0.0162
 2815W        W 6559   1.173   2.097   1.327  0.1064  0.1731 -0.0163
 2816W        W 6560   7.619   7.040   0.236  0.2814 -0.1075 -0.1070
 2817W        W 6561   8.683   8.555   2.034  0.0445 -0.1270  0.0480
 2818W        W 6562   6.224   2.307   8.927 -0.1753  0.1991  0.1500
 2819W        W 6563   6.623   5.673   3.402 -0.2329  0.0818  0.1777
 2820W        W 6564   4.413   4.555   0.034 -0.2726 -0.1509  0.3598
 2821W        W 6565   6.886   4.629  12.534 -0.1408  0.1755 -0.1457
 2822W        W 6566   6.251   3.575   3.597 -0.0600  0.0588 -0.2078
 2823W        W 6567   7.756   7.854   2.826 -0.0788  0.0449 -0.1105
 2824W        W 6568   0.115   5.585   9.447 -0.1054 -0.0157  0.1525
 2825W        W 6569   6.085   6.692   0.627 -0.0484 -0.0069  0.0165
 2826W        W 6570   4.386   7.281   2.834 -0.0717  0.0035  0.1315
 2827W        W 6571   4.915   6.432   1.374  0.1423  0.2825 -0.1330
 2828W        W 6572   4.902   0.657   3.483 -0.1511 -0.0160  0.0531
 2829W        W 6573   9.624   9.804  11.436  0.0465  0.0182  0.3108
 2830W        W 6574   0.929   7.105  11.186 -0.0262  0.0829 -0.1664
 2831W        W 6575   6.524   6.267   0.736  0.1916  0.0821 -0.2227
 2832W        W 6576   5.843   1.851  12.068 -0.1318 -0.0585  0.0730
 2833W        W 6577   1.850   4.253   0.049 -0.0242  0.3077 -0.0767
 2834W        W 6578   5.787   3.667  10.971  0.2668 -0.0650 -0.1368
 2835W        W 6579   8.728   3.900  12.660 -0.0476  0.1785  0.2797
 2836W        W 6580   4.534   1.940   1.525 -0.1030  0.0696  0.0516
 2837W        W 6581   1.700   4.567   2.220 -0.3109  0.0004  0.0622
 2838W        W 6582   4.492   2.291   2.027  0.2473  0.0686  0.0285
 2839W        W 6583   2.949   3.388   2.928 -0.1040  0.0960 -0.0677
 2840W        W 6584   0.326   9.248  11.049  0.1090  0.3527  0.1071
 2841W        W 6585   7.830   0.479   9.812  0.0866 -0.0963  0.0081
 2842W        W 6586   6.284   4.937  12.379  0.0797 -0.0812 -0.4277
 2843W        W 6587   3.024   6.276   0.136 -0.0622 -0.1375  0.3247
 2844W        W 6588   8.354   0.097   1.092 -0.1084  0.1824 -0.0952
 2845W        W 6589   6.181   9.262  10.756  0.1239  0.0242  0.3863
 2846W        W 6590   9.701   7.165   0.768 -0.1037  0.6443  0.0008
 2847W        W 6591   2.428   9.840   9.108 -0.0357 -0.0753  0.2411
 2848W        W 6592   7.000   3.514   1.595  0.4767 -0.2717  0.2244
 2849W        W 6593   7.153   9.427   1.959  0.0232  0.2204 -0.1163
 2850W        W 6594   8.821   3.137   3.622  0.2024 -0.2269 -0.0678
 2851W        W 6595   0.154   6.838   2.379  0.0145  0.0121  0.0128
 2852W        W 6596   4.641   8.127  10.437  0.2983 -0.0078  0.1509
 2853W        W 6597   0.239   6.905   1.212  0.2999 -0.0394 -0.2910
 2854W        W 6598   7.352   3.909   9.727 -0.0953 -0.0588 -0.2104
 2855W        W 6599   5.589   8.789   4.948 -0.1247  0.2153 -0.1648
 2856W        W 6600   9.400   4.774  11.276  0.0185  0.0523 -0.0630
 2857W        W 6601   1.579   8.825   2.618 -0.2013 -0.1580  0.0174
 2858W        W 6602   7.321   5.718   3.818 -0.2740  0.1487  0.2479
 2859W        W 6603   8.275   5.524  12.698  0.0867 -0.2624 -0.1649
 2860W        W 6604   3.257   1.063   1.855  0.0073 -0.1179  0.1490
 2861W        W 6605   7.370   7.971   9.869 -0.1787 -0.0953 -0.0259
 2862W        W 6606   6.702   9.561   8.953 -0.0715  0.1056 -0.2251
 2863W        W 6607   0.684   4.396  10.675  0.4238  0.1063 -0.0397
 2864W        W 6608   0.096   5.040   0.330 -0.1844  0.1024  0.0225
 2865W        W 6609   1.364   0.703  12.881 -0.2489 -0.0939  0.1463
 2866W        W 6610   1.577   3.283   2.373 -0.0032 -0.3697  0.0727
 2867W        W 6611   3.291   8.588   8.056 -0.0256  0.3264 -0.0822
 2868W        W 6612   4.043   0.877   4.012  0.2166 -0.0102  0.0689
 2869W        W 6613   6.905   0.927   0.608  0.0590  0.0529 -0.0612
 2870W        W 6614   1.937   8.211   9.713 -0.0641  0.4822  0.1484
 2871W        W 6615   4.482   4.763   4.263  0.3003  0.0712  0.0039
 2872W        W 6616   9.802   7.022  10.999 -0.0247 -0.0047 -0.0768
 2873W        W 6617   8.245   4.451   4.118  0.1278  0.1277  0.2747
 2874W        W 6618   7.196   7.089  10.423  0.0207  0.0769  0.1632
 2875W        W 6619   7.052   2.725  11.436  0.0285  0.0190  0.1526
 2876W        W 6620   3.476   8.945   0.222 -0.1869 -0.0048 -0.1841
 2877W        W 6621   0.019   3.478  11.476  0.0643  0.1830 -0.0423
 2878W        W 6622   0.139   8.741   2.256  0.0946 -0.1452  0.1047
 2879W        W 6623   7.783   7.748   8.928  0.1129 -0.1030 -0.0086
 2880W        W 6624   4.174   0.592   1.033  0.1181  0.2713  0.2329
 2881W        W 6625   1.799   7.193   2.735 -0.3444  0.0747 -0.2385
 2882W        W 6626   7.694   7.504  12.870 -0.1608 -0.2111  0.4038
 2883W        W 6627   6.330   7.856  10.881 -0.0947  0.3087 -0.1034
 2884W        W 6628   2.515   0.466   2.156 -0.1576 -0.2016  0.1762
 2885W        W 6629   1.944   0.095   9.127  0.2911  0.2296  0.0399
 2886W        W 6630   0.243   6.552   8.606  0.1147  0.2940  0.0578
 2887W        W 6631   8.866   4.834  11.512  0.1465  0.3400 -0.2402
 2888W        W 6632   2.905   1.374   1.188  0.2564 -0.0755 -0.1252
 2889W        W 6633   4.892   5.727  12.660 -0.0457 -0.1801 -0.0674
 2890W        W 6634   3.364   3.568  10.423 -0.0498 -0.0850  0.0070
 2891W        W 6635   8.841   5.167   3.774  0.0328  0.2885 -0.0373
 2892W        W 6636   3.528   9.873   0.952  0.0894  0.2408 -0.0752
 2893W        W 6637   2.127   3.875   1.704  0.1219  0.2992 -0.2181
 2894W        W 6638   4.357   9.712  12.590 -0.1241  0.2009 -0.0733
 2895W        W 6639   9.536   6.518   2.878  0.1209 -0.1081  0.0613
 2896W        W 6640   5.052   0.587  10.459 -0.1863 -0.1153  0.4224
 2897W        W 6641   8.485   6.034   8.400  0.0199 -0.3871  0.2342
 2898W        W 6642   5.491   8.571  11.022 -0.2646 -0.0373  0.0774
 2899W        W 6643   1.656   7.922  10.132 -0.1204 -0.0277  0.0565
 2900W        W 6644   5.464   7.040  10.153 -0.1683  0.2870  0.2079
 2901W        W 6645   6.904   0.365  11.568  0.1040  0.0790  0.0102
 2902W        W 6646   4.662   2.349  10.552  0.0586  0.1239  0.2402
 2903W        W 6647   3.702   6.176   2.577  0.0178 -0.1098  0.0117
 2904W        W 6648   4.269   6.646   0.489  0.0800  0.0937  0.0870
 2905W        W 6649   9.673   5.762   3.403 -0.1585 -0.0963 -0.1167
 2906W        W 6650   4.982   4.821  12.891  0.1951  0.0704  0.4612
 2907W        W 6651   6.086   9.750   4.245  0.0816 -0.2486 -0.0558
 2908W        W 6652   4.904   4.667   1.413 -0.0368 -0.1145  0.3779
 2909W        W 6653   2.357   0.397   9.174 -0.2810 -0.2314  0.0130
 2910W        W 6654   8.191   9.494   0.944  0.2086 -0.0996  0.2817
 2911W        W 6655   4.124   0.401   2.347 -0.0672  0.1577  0.0666
 2912W        W 6656   7.843   6.298  11.474  0.2024 -0.1086  0.0127
 2913W        W 6657   6.267   5.162  12.865  0.0982 -0.1425  0.4535
 2914W        W 6658   6.522   6.880   8.143 -0.1362  0.0912  0.0923
 2915W        W 6659   5.849   6.203   9.433  0.2586  0.0022  0.1976
 2916W        W 6660   9.363   2.944  11.524 -0.2088 -0.0456 -0.2193
 2917W        W 6661   8.324   9.787   9.265  0.0237 -0.0693 -0.2266
 2918W        W 6662   6.729   7.267   0.963  0.2195 -0.2577 -0.1471
 2919W        W 6663   2.684   8.227  12.558  0.1906 -0.1575  0.1359
 2920W        W 6664   5.915   7.178  12.549 -0.2572  0.2174 -0.0149
 2921W        W 6665   6.075   1.671   0.536  0.3572  0.2322 -0.0671
 2922W        W 6666   6.248   6.126   0.243 -0.3110  0.2927  0.0847
 2923W        W 6667   8.716   3.450  11.211 -0.1227  0.1198 -0.0728
 2924W        W 6668   3.214   6.310   1.607 -0.0430 -0.3068  0.0492
 2925W        W 6669   0.086   0.863   3.439 -0.1561 -0.1861 -0.0522
 2926W        W 6670   3.244   3.780  12.200 -0.1564  0.1060  0.0381
 2927W        W 6671   5.165   8.502   9.180  0.2313  0.0492  0.3558
 2928W        W 6672   7.957   7.264  12.165 -0.1279  0.1357 -0.0577
 2929W        W 6673   3.368   0.867   2.766  0.0529  0.1240  0.1155
 2930W        W 6674   4.116   5.597  11.066 -0.2012 -0.0476 -0.2407
 2931W        W 6675   1.652   0.145  12.368  0.1222  0.2128  0.0131
 2932W        W 6676   6.560   8.241  10.130 -0.0716 -0.1446  0.2244
 2933W        W 6677   6.739   0.247   3.641  0.1989 -0.1562  0.2413
 2934W        W 6678   9.247   8.716  11.739  0.1250  0.0682  0.1544
 2935W        W 6679   5.399   7.981  12.105  0.0401 -0.0063 -0.1128
 2936W        W 6680   6.355   4.755   4.338 -0.0301  0.0760  0.1076
 2937W        W 6681   2.826   0.059   2.088 -0.0984 -0.0257  0.1476
 2938W        W 6682   6.709   2.297  11.812  0.4511  0.0699  0.1427
 2939W        W 6683   8.053   5.906  11.132 -0.0840  0.1122  0.0240
 2940W        W 6684   2.612   5.124  12.507 -0.2994 -0.3594  0.1012
 2941W        W 6685   4.315   8.931  10.097 -0.1514  0.1994 -0.0151
 2942W        W 6686   1.166   2.652   1.416  0.1638  0.0573  0.0342
 2943W        W 6687   3.268   4.054  10.324 -0.1337 -0.1467 -0.3049
 2944W        W 6688   9.484   2.923   1.061 -0.1413 -0.0569 -0.1365
 2945W        W 6689   0.284   0.025   0.842 -0.0662 -0.2688 -0.3138
 2946W        W 6690   0.246   7.642   9.743 -0.3024  0.0354 -0.1449
 2947W        W 6691   9.538   5.998   0.629 -0.2158 -0.0008 -0.0835
 2948W        W 6692   1.139   5.209   0.751 -0.2502  0.0477 -0.1576
 2949W        W 6693   4.592   5.994   2.755 -0.1553  0.2104  0.1885
 2950W        W 6694   8.072   1.668   3.415  0.1802  0.0658 -0.2110
 2951W        W 6695   3.454   7.852  11.649  0.1645  0.0374 -0.0808
 2952W        W 6696   3.870   6.189   2.111 -0.0859 -0.1713 -0.0142
 2953W        W 6697   8.481   0.932   9.450 -0.0914  0.2466 -0.2566
 2954W        W 6698   4.050   3.199  11.519 -0.0879 -0.1883  0.2363
 2955W        W 6699   8.046   7.907  11.594 -0.1488 -0.0820  0.1121
 2956W        W 6700   3.851   5.476  12.453  0.1966  0.4384 -0.2258
 2957W        W 6701   8.486   7.194  12.309  0.1146 -0.1683  0.0719
 2958W        W 6702   1.702   4.004  11.591  0.1083 -0.2497 -0.1867
 2959W        W 6703   6.711   4.824   0.056 -0.1330 -0.0398  0.2088
 2960W        W 6704   6.465   3.796   2.775  0.0968 -0.0902 -0.3251
 2961W        W 6705   3.055   7.846  12.664 -0.2107 -0.1345 -0.0594
 2962W        W 6706   4.811   0.939  11.341 -0.0573 -0.1186 -0.2016
 2963W        W 6707   5.553   7.482   2.761 -0.0257  0.1864 -0.0544
 2964W        W 6708   0.168   5.109   3.991 -0.1430 -0.0310  0.0122
 2965W        W 6709   4.943   0.480   3.977  0.3110 -0.3607 -0.0036
 2966W        W 6710   7.312   7.444   2.093  0.2887  0.1571 -0.0530
 2967W        W 6711   1.261   4.289   2.858  0.2255 -0.0959  0.1366
 2968W        W 6712   4.215   1.672   2.941  0.0656 -0.1118 -0.1447
 2969W        W 6713   8.739   7.457   8.877  0.0172 -0.1344  0.1120
 2970W        W 6714   3.075   5.554  11.350 -0.0382  0.0011 -0.1022
 2971W        W 6715   2.385   4.194  12.799  0.3809 -0.3607  0.0637
 2972W        W 6716   2.786   7.137   3.903  0.1429 -0.0738 -0.2435
 2973W        W 6717   1.084   3.468   1.609  0.3123 -0.1883 -0.1328
 2974W        W 6718   9.204   5.800   9.098 -0.4584 -0.2061  0.1236
 2975W        W 6719   7.206   2.029   2.592  0.0654  0.1507 -0.1889
 2976W        W 6720   7.759   2.398  10.206 -0.0556  0.1596  0.0315
 2977W        W 6721   5.389   1.373   3.460 -0.2728  0.3564  0.1276
 2978W        W 6722   8.873   2.407   0.302 -0.4440 -0.1088 -0.0410
 2979W        W 6723   2.314   3.808  11.057 -0.1169  0.2373  0.0810
 2980W        W 6724   5.430   9.768   0.434 -0.1031  0.2659 -0.1184
 2981W        W 6725   4.386   6.099   8.723 -0.0796  0.1915 -0.0370
 2982W        W 6726   7.400   4.173   3.862 -0.0989 -0.1215  0.0963
 2983W        W 6727   4.896   6.906  12.092 -0.1002 -0.5161  0.4089
 2984W        W 6728   0.913   9.859  10.652 -0.1904 -0.4930 -0.0133
 2985W        W 6729   5.711   8.553  11.520  0.0238  0.2921 -0.0609
 2986W        W 6730   6.536   3.733   0.064  0.1955  0.3361  0.1656
 2987W        W 6731   7.036   5.041   1.937 -0.1114 -0.1591 -0.1128
 2988W        W 6732   6.454   3.465   1.548  0.1128  0.0929 -0.1297
 2989W        W 6733   6.498   2.174  10.845 -0.1342 -0.3995 -0.2584
 2990W        W 6734   2.845   9.227  12.046 -0.0703  0.0724 -0.0685
 2991W        W 6735   5.351   2.758   3.047  0.0613  0.1423 -0.0203
 2992W        W 6736   7.356   8.505   3.306 -0.1590  0.4059 -0.0293
 2993W        W 6737   5.561   9.582   8.987  0.3735 -0.4356 -0.2784
 2994W        W 6738   0.944   4.297  11.139  0.0474  0.0535  0.0842
 2995W        W 6739   9.547   9.485   3.639 -0.3941  0.0087 -0.2733
 2996W        W 6740   5.136   1.388   1.081  0.3318 -0.1743  0.2799
 2997W        W 6741   5.083   0.202   2.587  0.2731 -0.1607  0.1669
 2998W        W 6742   9.414   2.422   1.492 -0.4003 -0.2641 -0.2103
 2999W        W 6743   1.135   6.307   1.560  0.0507 -0.3717 -0.1294
 3000W        W 6744   9.667   7.024   3.177  0.0118 -0.1867  0.0665
 3001W        W 6745   3.667   2.417   3.955 -0.2608  0.0340 -0.1981
 3002W        W 6746   0.345   2.124   8.533 -0.1037  0.0802 -0.1107
 3003W        W 6747   8.277   8.847   2.264  0.1979  0.0175  0.0047
 3004W        W 6748   9.773   6.677  12.402  0.0984 -0.1885  0.1308
 3005W        W 6749   8.020   2.804  10.252  0.1705 -0.1088 -0.0878
 3006W        W 6750   0.659   0.664   1.773 -0.1611 -0.0544 -0.0664
 3007W        W 6751   6.210   8.575   3.480  0.1262 -0.0378 -0.0321
 3008W        W 6752   8.035   4.542   0.931  0.0982 -0.0163  0.1344
 3009W        W 6753   0.808   7.833   2.986  0.0705  0.2207  0.1209
 3010W        W 6754   6.872   3.894   9.986  0.0893 -0.4293 -0.1203
 3011W        W 6755   0.639   3.739   9.539  0.0134  0.2431  0.1256
 3012W        W 6756   2.469   7.776  12.437  0.1255  0.2694  0.1016
 3013W        W 6757   6.419   9.143   1.482  0.0577 -0.1560 -0.1123
 3014W        W 6758   9.065   0.654  12.812  0.0714  0.1977  0.2319
 3015W        W 6759   4.953   9.739   0.682  0.2175  0.3154  0.2802
 3016W        W 6760   4.396   4.635  12.272  0.0378 -0.0540 -0.0494
 3017W        W 6761   7.555   2.721   3.891 -0.1873  0.2832 -0.0988
 3018W        W 6762   0.013   0.880  12.306  0.1262 -0.2795  0.2412
 3019W        W 6763   8.012   1.588  10.431  0.1765 -0.1238 -0.0479
 3020W        W 6764   1.221   1.641  10.557  0.1057  0.0412 -0.0544
 3021W        W 6765   8.653   6.876   4.945  0.0766  0.0386  0.2691
 3022W        W 6766   9.847   9.476   1.873  0.3316 -0.0772 -0.0369
 3023W        W 6767   9.741   5.504   3.805 -0.1018  0.0143 -0.0657
 3024W        W 6768   9.255   9.603  12.154 -0.2300 -0.0658  0.1830
 3025W        W 6769   3.683   2.731   0.010 -0.2553  0.1361  0.0773
 3026W        W 6770   5.387   7.697   1.335 -0.3006  0.0067 -0.1639
 3027W        W 6771   3.797   9.653  10.049  0.1733  0.2714 -0.0418
 3028W        W 6772   4.713   1.853   2.826 -0.0271  0.2359 -0.2574
 3029W        W 6773   6.598   5.605   9.512  0.1417  0.0869 -0.3602
 3030W        W 6774   3.764   7.820   4.596  0.1513  0.0024  0.0901
 3031W        W 6775   9.760   1.807   9.226  0.0560  0.1958 -0.2262
 3032W        W 6776   7.898   8.036  12.061 -0.1992 -0.0850 -0.1753
 3033W        W 6777   0.179   5.491   8.863 -0.1741 -0.1850 -0.1904
 3034W        W 6778   9.338   9.736  12.764 -0.0340 -0.2395  0.3212
 3035W        W 6779   3.586   0.049   3.222  0.1520  0.3043  0.1925
 3036W        W 6780   7.921   9.904   0.836 -0.1790  0.1353 -0.2366
 3037W        W 6781   1.461   2.137  12.546 -0.2594 -0.1509  0.1931
 3038W        W 6782   6.057   0.546   1.386 -0.2113 -0.0491 -0.2501
 3039W        W 6783   9.540   4.569   1.561  0.0839  0.0571 -0.2354
 3040W        W 6784   6.676   7.259  11.851  0.4873 -0.2170  0.1338
 3041W        W 6785   0.533   2.296  12.389 -0.2033 -0.1326  0.0814
 3042W        W 6786   0.415   2.273   3.197  0.0998  0.1087  0.0895
 3043W        W 6787   7.517   1.746   4.943  0.0466 -0.1206  0.0187
 3044W        W 6788   6.692   6.833  12.710 -0.1394 -0.0653  0.0283
 3045W        W 6789   6.363   2.408  10.084 -0.1255  0.0194  0.1859
 3046W        W 6790   8.084   2.488   2.608 -0.0326  0.1585  0.0198
 3047W        W 6791   6.443   5.931   1.134 -0.0599 -0.2741 -0.1025
 3048W        W 6792   3.940   8.785  10.444 -0.1695 -0.0210  0.1569
 3049W        W 6793   5.636   8.559   0.403  0.1641  0.2598 -0.0566
 3050W        W 6794   2.762   9.054   8.642  0.1491 -0.2022 -0.0707
 3051W        W 6795   2.618   7.594   1.197  0.1312 -0.0081  0.2746
 3052W        W 6796   4.946   3.823   0.436  0.0517 -0.2169 -0.0662
 3053W        W 6797   5.831   8.513  12.410  0.3848  0.2865 -0.1508
 3054W        W 6798   1.566   8.908   3.730  0.0034  0.2773  0.1765
 3055W        W 6799   8.994   4.072   4.027  0.1666 -0.1300  0.0175
 3056W        W 6800   5.254   1.694   9.300  0.0394 -0.0720  0.2235
 3057W        W 6801   4.544   6.502  10.256  0.2362 -0.2818 -0.0201
 3058W        W 6802   8.891   2.848  12.322  0.0628  0.0749 -0.1935
 3059W        W 6803   2.710   0.326   8.243 -0.1185  0.2723 -0.2589
 3060W        W 6804   0.021   1.455   0.668 -0.0821 -0.2169  0.2229
 3061W        W 6805   5.447   6.592   9.802 -0.0042 -0.1995 -0.0534
 3062W        W 6806   0.471   2.931   2.690  0.1662 -0.0476  0.0052
 3063W        W 6807   5.402   3.920   3.652 -0.1665  0.1010  0.0855
 3064W        W 6808   2.138   6.529  10.072  0.0570  0.3035 -0.4481
 3065W        W 6809   3.082   5.544   2.354  0.3006  0.3202 -0.1533
 3066W        W 6810   1.279   0.938  11.234  0.0267 -0.0126  0.1108
 3067W        W 6811   9.778   5.764   9.040 -0.0850 -0.4590 -0.0659
 3068W        W 6812   3.228   9.163  11.645 -0.1859 -0.0410  0.3685
 3069W        W 6813   5.787   3.087  11.241 -0.1692 -0.0564  0.0464
 3070W        W 6814   7.514   6.705   4.237 -0.0012  0.3077  0.1247
 3071W        W 6815   3.107   6.180   1.025 -0.1981  0.1431 -0.3294
 3072W        W 6816   4.214   3.317  11.963  0.0920  0.4109 -0.1669
 3073W        W 6817   8.153   8.948  11.050 -0.0550 -0.1626  0.2366
 3074W        W 6818   4.120   6.736   9.554 -0.0263  0.1180 -0.1091
 3075W        W 6819   1.571   6.986  11.705 -0.0265 -0.0220  0.2334
 3076W        W 6820   0.328   6.361   0.339 -0.3775 -0.0378  0.2236
 3077W        W 6821   8.298   5.397   9.525  0.0953  0.0793  0.0518
 3078W        W 6822   9.347   8.581   8.462 -0.1758 -0.1367  0.0519
 3079W        W 6823   1.625   7.518   0.500  0.0476 -0.3141 -0.1356
 3080W        W 6824   3.067   2.364   1.657  0.1080  0.1958  0.4536
 3081W        W 6825   8.316   2.074  12.098  0.0106 -0.1787  0.3536
 3082W        W 6826   1.864   6.050  10.875  0.0812  0.2827  0.0477
 3083W        W 6827   3.222   2.580  12.832 -0.1015 -0.3675  0.1383
 3084W        W 6828   6.049   9.663   3.738  0.0078 -0.1457 -0.0724
 3085W        W 6829   7.781   5.117   1.914 -0.1620  0.1747  0.0423
 3086W        W 6830   2.600   5.565   3.045  0.3867  0.0636  0.1670
 3087W        W 6831   7.299   8.819   9.847 -0.0050 -0.1815  0.2547
 3088W        W 6832   4.562   6.850  10.855 -0.2711  0.0878 -0.0164
 3089W        W 6833   9.044   4.984   0.663 -0.2469  0.0605  0.3068
 3090W        W 6834   4.408   1.402   0.071 -0.0393 -0.0832 -0.0312
 3091W        W 6835   1.279   0.481  12.429  0.0511  0.1423 -0.0648
 3092W        W 6836   5.492   4.984   2.699 -0.0327 -0.0805 -0.1291
 3093W        W 6837   4.267   2.276   8.631  0.2840 -0.1494 -0.1023
 3094W        W 6838   7.730   0.993   1.266  0.1338 -0.3022 -0.3054
 3095W        W 6839   3.961   8.861   2.876 -0.3719  0.1855  0.3185
 3096W        W 6840   6.937   1.338   3.432 -0.0415 -0.0342  0.0001
 3097W        W 6841   8.226   4.904  10.948 -0.0710  0.1034 -0.0178
 3098W        W 6842   1.481   0.067   1.583  0.1459  0.4790 -0.2515
 3099W        W 6843   7.024   2.037  12.745 -0.2808 -0.1819 -0.0924
 3100W        W 6844   3.063   1.865   3.932 -0.1811  0.1233  0.1161
 3101W        W 6845   1.188   5.571  11.329 -0.1593  0.0175  0.1192
 3102W        W 6846   5.224   0.067  12.293 -0.0455  0.0212 -0.1381
 3103W        W 6847   1.327   2.388   0.934 -0.2594  0.0540  0.2374
 3104W        W 6848   4.708   3.323  12.119  0.0609 -0.2316  0.2628
 3105W        W 6849   5.738   2.857   3.832 -0.2310 -0.0885 -0.0651
 3106W        W 6850   5.064   6.657  10.563 -0.0015 -0.1435 -0.0528
 3107W        W 6851   3.721   6.712   0.556 -0.2257  0.1553 -0.2340
 3108W        W 6852   1.197   3.489  10.739  0.4308 -0.0361 -0.3122
 3109W        W 6853   5.198   7.585   4.474  0.0399 -0.0688 -0.0800
 3110W        W 6854   3.949   9.852   9.501  0.1331  0.0847  0.0847
 3111W        W 6855   2.098   5.637  10.077  0.0751 -0.0228  0.2006
 3112W        W 6856   6.606   7.161   1.471 -0.1754 -0.2213  0.1427
 3113W        W 6857   7.951   8.552   9.951 -0.2743 -0.1587  0.0042
 3114W        W 6858   0.214   8.106   1.203  0.2584  0.0501  0.0476
 3115W        W 6859   9.919   7.819  12.568 -0.2169 -0.0224 -0.1145
 3116W        W 6860   6.818   5.454   2.984 -0.0531 -0.0031 -0.0963
 3117W        W 6861   7.132   4.123   9.271  0.0788 -0.4630  0.0904
 3118W        W 6862   4.787   4.571   9.590 -0.0441 -0.1361  0.1399
 3119W        W 6863   0.023   7.514   3.021 -0.1124 -0.1010  0.2644
 3120W        W 6864   6.660   5.858   4.273 -0.1107 -0.1094 -0.0621
 3121W        W 6865   3.417   2.448  10.795  0.1711  0.1815  0.1291
 3122W        W 6866   2.623   4.718   3.376  0.0564  0.0510  0.0769
 3123W        W 6867   3.699   0.791  12.510  0.2445 -0.4268 -0.4478
 3124W        W 6868   4.855   8.813  10.464 -0.1179 -0.1392 -0.0050
 3125W        W 6869   5.924   6.371   9.941 -0.0115 -0.2751 -0.3084
 3126W        W 6870   9.552   0.618   0.736 -0.0660  0.0855 -0.2901
 3127W        W 6871   6.939   3.924   0.296  0.2409  0.3395 -0.3825
 3128W        W 6872   1.614   8.004   3.175  0.3843  0.2345 -0.1953
 3129W        W 6873   5.887   0.005   1.334 -0.2045 -0.0522  0.0419
 3130W        W 6874   1.813   3.253   9.904 -0.2681 -0.0388  0.1066
 3131W        W 6875   4.538   0.790   4.106  0.1109 -0.2547  0.0113
 3132W        W 6876   2.146   6.839   3.126 -0.0642 -0.1372  0.0461
 3133W        W 6877   1.490   7.890   9.666  0.1354  0.0492  0.0048
 3134W        W 6878   1.617   6.399  10.059  0.1121 -0.2247 -0.0667
 3135W        W 6879   1.331   6.273   8.996  0.0064  0.0416  0.0161
 3136W        W 6880   8.461   0.325   9.011  0.0437 -0.1005  0.0109
 3137W        W 6881   5.355   2.092  11.841  0.2261  0.1776  0.0917
 3138W        W 6882   6.279   3.079   8.478  0.1027 -0.0003 -0.1143
 3139W        W 6883   5.785   5.195   9.820 -0.2185  0.1481  0.0284
 3140W        W 6884   5.979   2.563   2.483  0.2695 -0.1400  0.2496
 3141W        W 6885   4.436   3.847  10.987  0.1944  0.0578  0.1321
 3142W        W 6886   8.131   2.656   8.780  0.3219  0.0733 -0.0155
 3143W        W 6887   6.989   9.254  12.205  0.1749  0.1623  0.1172
 3144W        W 6888   4.863   7.454   2.828 -0.3055  0.0957 -0.1572
 3145W        W 6889   1.000   7.368   2.861 -0.0442 -0.0532 -0.1640
 3146W        W 6890   1.347   9.865   2.533 -0.1427  0.2983 -0.3489
 3147W        W 6891   8.658   5.741   1.147  0.0296 -0.3647  0.0099
 3148W        W 6892   5.315   5.310   2.074  0.0509 -0.0142 -0.2876
 3149W        W 6893   6.804   8.521  10.454  0.4502 -0.2187  0.0363
 3150W        W 6894   6.628   6.182   3.433 -0.4491 -0.2948  0.0606
 3151W        W 6895   1.680   1.536   1.872  0.0455 -0.0903 -0.2234
 3152W        W 6896   6.442   0.040   2.482  0.0044 -0.1030 -0.1187
 3153W        W 6897   0.670   7.842   1.303  0.0270 -0.0523  0.0616
 3154W        W 6898   9.599   4.413  12.690  0.0110 -0.0223  0.1128
 3155W        W 6899   2.616   1.304   9.332 -0.2193 -0.0207 -0.1262
 3156W        W 6900   4.193   5.140   3.856  0.1723 -0.1749  0.0095
 3157W        W 6901   0.153   5.357   4.834 -0.2522 -0.1025 -0.4730
 3158W        W 6902   2.686   5.914  11.366 -0.0065  0.3060 -0.0257
 3159W        W 6903   5.515   8.735   8.905 -0.0071 -0.0132 -0.2419
 3160W        W 6904   8.480   9.693   0.618 -0.3464 -0.1184 -0.0919
 3161W        W 6905   5.832   7.441   4.467  0.1213  0.2044  0.0837
 3162W        W 6906   8.780   5.625   9.437  0.1021  0.2221  0.0262
 3163W        W 6907   8.871   9.523   9.959 -0.0356  0.2518 -0.2038
 3164W        W 6908   9.392   7.217   9.408  0.0902  0.1944 -0.1986
 3165W        W 6909   8.985   7.312  11.491 -0.1568  0.0963 -0.1652
 3166W        W 6910   3.417   5.788   9.479 -0.2204  0.1201 -0.0120
 3167W        W 6911   4.316   9.263   2.011 -0.0321 -0.0084 -0.1069
 3168W        W 6912   7.575   0.145   8.660 -0.0355 -0.1992  0.0606
 3169W        W 6913   7.840   7.060  12.630  0.0989 -0.0345  0.2042
 3170W        W 6914   6.613   7.595   3.946  0.1065  0.2199 -0.0002
 3171W        W 6915   2.802   9.213   1.704 -0.1655 -0.2241 -0.2844
 3172W        W 6916   4.095   2.181   1.700  0.0479 -0.2052 -0.2041
 3173W        W 6917   2.515   6.300   2.614 -0.3989  0.1666 -0.1391
 3174W        W 6918   9.182   4.720   4.627 -0.0553 -0.1101  0.1368
 3175W        W 6919   6.834   9.788  10.914 -0.0109  0.2179 -0.0492
 3176W        W 6920   2.305   2.662   0.601  0.1673 -0.0452 -0.3326
 3177W        W 6921   9.210   3.494   9.966 -0.1378  0.1859  0.1611
 3178W        W 6922   9.047   0.047   8.567  0.0970 -0.0488  0.0835
 3179W        W 6923   2.138   4.143   2.301  0.2925 -0.1461 -0.1106
 3180W        W 6924   3.520   4.966   2.476  0.1054  0.2844 -0.0363
 3181W        W 6925   1.895   7.545  10.400 -0.0806  0.0559  0.2882
 3182W        W 6926   9.502   8.820  10.482  0.0134  0.1364 -0.4208
 3183W        W 6927   0.801   7.078   3.268 -0.1146 -0.0065  0.0133
 3184W        W 6928   4.120   1.722   0.362  0.1234  0.2463 -0.0715
 3185W        W 6929   7.826   7.926   0.661  0.1906  0.0167  0.2133
 3186W        W 6930   8.763   6.681  10.050 -0.0664  0.0351 -0.1785
 3187W        W 6931   7.272   5.633  11.589  0.1686  0.3042  0.1264
 3188W        W 6932   8.864   2.679   4.428 -0.0489  0.1760  0.3143
 3189W        W 6933   0.754   0.409  12.287 -0.0434  0.2104  0.1399
 3190W        W 6934   3.744   1.842   1.878 -0.1353  0.2036  0.0303
 3191W        W 6935   6.787   2.030   9.749 -0.0092 -0.2514  0.3307
 3192W        W 6936   9.321   3.885  11.941 -0.1962  0.1564 -0.2870
 3193W        W 6937   3.553   1.766   3.218  0.0713 -0.0056 -0.4762
 3194W        W 6938   6.836   2.276  11.305 -0.1842  0.0516 -0.1671
 3195W        W 6939   8.285   5.911   1.417  0.0446 -0.0072 -0.2434
 3196W        W 6940   7.149   2.206   1.171  0.0517 -0.0859  0.3053
 3197W        W 6941   4.838   6.030   1.139  0.3059 -0.2064 -0.0551
 3198W        W 6942   3.590   9.098  10.257 -0.3587  0.0418 -0.4597
 3199W        W 6943   5.368   3.320  12.595 -0.3853  0.0864 -0.0010
 3200W        W 6944   7.829   8.890   1.992  0.1883  0.1408 -0.2306
 3201W        W 6945   1.328   3.571   3.207  0.0835  0.6008 -0.1164
 3202W        W 6946   3.791   6.996   9.842  0.1593  0.0379 -0.2181
 3203W        W 6947   4.419   3.247  10.931  0.0278 -0.2661  0.0535
 3204W        W 6948   8.984   1.581  12.469 -0.4068 -0.0859 -0.3100
 3205W        W 6949   3.074   9.015   3.468  0.0032 -0.0547  0.0395
 3206W        W 6950   4.209   0.946   9.267  0.2491 -0.3955 -0.0266
 3207W        W 6951   6.848   6.679  10.709  0.0655  0.1355 -0.0414
 3208W        W 6952   5.014   1.961  12.212 -0.0469  0.0338  0.1041
 3209W        W 6953   8.377   7.501  10.712  0.2603 -0.0828  0.0130
 3210W        W 6954   0.453   6.656   0.728 -0.2955 -0.1468 -0.3246
 3211W        W 6955   5.425   0.860   3.331 -0.1392  0.1035 -0.1501
 3212W        W 6956   0.469   0.813   0.161 -0.0960 -0.1621 -0.2582
 3213W        W 6957   9.011   7.766   8.567  0.0221  0.3536  0.2993
 3214W        W 6958   1.062   6.671  11.901  0.0614 -0.3220  0.5371
 3215W        W 6959   5.693   8.434   3.557  0.0010  0.0380 -0.0083
 3216W        W 6960   2.039   1.037  11.350  0.0401 -0.1575  0.2320
 3217W        W 6961   5.015   7.476   5.063 -0.0672  0.0812  0.1792
 3218W        W 6962   7.465   8.409   9.674 -0.2087  0.0256 -0.1006
 3219W        W 6963   4.714   5.271   2.074 -0.1679 -0.0046  0.1935
 3220W        W 6964   4.807   3.694   1.729 -0.1011 -0.0431 -0.0773
 3221W        W 6965   0.587   0.003   3.269 -0.0143  0.0712  0.0401
 3222W        W 6966   4.219   0.294  11.440  0.3289  0.1533  0.1084
 3223W        W 6967   5.854   8.905   3.172 -0.1091 -0.0726 -0.0815
 3224W        W 6968   4.287   9.071   9.242  0.1960 -0.0068 -0.4833
 3225W        W 6969   9.799   6.272   9.330  0.0122 -0.1965 -0.1602
 3226W        W 6970   6.002   8.768  11.954  0.1014  0.0906 -0.1060
 3227W        W 6971   8.522   0.918   2.909 -0.2346  0.0856 -0.0534
 3228W        W 6972   1.280   2.614   1.935  0.2415 -0.4027  0.3964
 3229W        W 6973   1.587   1.219   3.070 -0.1444  0.0881 -0.0531
 3230W        W 6974   6.586   8.885  11.873 -0.0724  0.0732 -0.2575
 3231W        W 6975   4.409   6.680  12.764  0.0097 -0.1337  0.2382
 3232W        W 6976   3.087   0.192   9.564 -0.4106 -0.0370  0.4239
 3233W        W 6977   7.934   9.683   2.387  0.0637 -0.0643  0.0123
 3234W        W 6978   6.198   5.402  11.496  0.2445 -0.0458 -0.1388
 3235W        W 6979   1.667   8.475   2.117 -0.2240 -0.3615 -0.1461
 3236W        W 6980   9.544   7.405  12.314  0.0262  0.1314 -0.0921
 3237W        W 6981   0.874   2.651   0.987  0.1107 -0.1309 -0.1838
 3238W        W 6982   5.929   2.249  10.909  0.0872  0.1821  0.5955
 3239W        W 6983   6.631   1.217   9.110 -0.0701  0.0124  0.5077
 3240W        W 6984   2.987   1.776  10.749 -0.2025  0.2329 -0.0651
 3241W        W 6985   6.978   5.895   0.893  0.0640 -0.1893  0.0851
 3242W        W 6986   7.282   3.184   4.382 -0.3617 -0.2590 -0.1772
 3243W        W 6987   9.209   3.969  11.411 -0.2721 -0.3938  0.0913
 3244W        W 6988   0.483   7.345   2.021  0.2547  0.0779 -0.1608
 3245W        W 6989   4.364   7.805  10.746 -0.1666  0.0454 -0.1721
 3246W        W 6990   8.260   9.282   0.445 -0.1180 -0.1127  0.0817
 3247W        W 6991   1.059   3.596  12.355 -0.0516 -0.0525  0.1556
 3248W        W 6992   1.023   9.694   1.604 -0.1051 -0.1380  0.0712
 3249W        W 6993   2.212   5.829  11.966 -0.0501  0.1033 -0.2152
 3250W        W 6994   3.461   9.625   8.915  0.0656 -0.2164 -0.2273
 3251W        W 6995   8.146   1.205   1.010  0.1000 -0.2942  0.2233
 3252W        W 6996   5.572   9.592  10.871  0.0004 -0.3597 -0.2402
 3253W        W 6997   5.697   9.483  12.245 -0.2066  0.1979 -0.0403
 3254W        W 6998   6.398   8.714  10.729 -0.2149  0.0917 -0.3306
 3255W        W 6999   1.482   9.090   0.226  0.1121  0.1264  0.0395
 3256W        W 7000   8.314   3.810   3.391  0.0382 -0.0212 -0.1532
 3257W        W 7001   7.739   6.636   0.009  0.0013  0.1044 -0.0542
 3258W        W 7002   8.672   6.044   1.895 -0.1239 -0.3200 -0.0643
 3259W        W 7003   9.895   8.932  10.061 -0.0263  0.1336 -0.2501
 3260W        W 7004   9.715   9.278   1.048  0.0232  0.1333  0.2890
 3261W        W 7005   3.847   6.460   3.904 -0.4251  0.1391  0.3643
 3262W        W 7006   5.995   9.820   5.218 -0.0296  0.2006  0.3134
 3263W        W 7007   0.060   4.404   3.530  0.2343  0.1240 -0.0780
 3264W        W 7008   0.231   2.697  12.339  0.0337 -0.0305 -0.3539
 3265W        W 7009   0.608   6.904   1.659  0.0780 -0.4460  0.1442
 3266W        W 7010   0.626   4.604   0.120  0.0997  0.2036  0.1381
 3267W        W 7011   0.731   6.019   1.758  0.0453  0.1503 -0.1193
 3268W        W 7012   7.837   9.746   9.886  0.3654 -0.0032 -0.2777
 3269W        W 7013   7.075   5.780   2.551  0.4799 -0.4419 -0.0549
 3270W        W 7014   3.003   3.456  12.568 -0.4660 -0.2583  0.1348
 3271W        W 7015   7.494   9.500   4.281  0.0345  0.0799 -0.2296
 3272W        W 7016   1.385   1.191   0.282  0.1496  0.0257  0.1984
 3273W        W 7017   8.117   8.181   3.608 -0.0529 -0.3244 -0.0863
 3274W        W 7018   3.086   4.499   9.765  0.0471  0.3141  0.1546
 3275W        W 7019   3.950   3.456   9.715  0.1975  0.0922  0.0240
 3276W        W 7020   4.707   9.227  10.667  0.0659  0.2147 -0.0246
 3277W        W 7021   4.772   5.929   9.419  0.0991  0.1779  0.1201
 3278W        W 7022   9.810   8.838  11.768 -0.1757  0.4392  0.0257
 3279W        W 7023   5.863   7.138   8.748 -0.0761 -0.4506  0.0730
 3280W        W 7024   7.649   5.913   9.052 -0.0113 -0.0946 -0.2806
 3281W        W 7025   2.003   8.666   3.737 -0.2129  0.0110 -0.1148
 3282W        W 7026   8.509   0.844   4.422  0.2570  0.2874  0.3137
 3283W        W 7027   0.690   9.518  12.219  0.1784  0.0696  0.1788
 3284W        W 7028   3.841   4.704   1.523 -0.0886  0.1806  0.1386
 3285W        W 7029   8.810   3.379  12.508 -0.1606  0.3803  0.1033
 3286W        W 7030   7.347   1.447   2.747 -0.0695 -0.0145 -0.1580
 3287W        W 7031   0.039   9.162   1.525  0.2195  0.0140  0.0729
 3288W        W 7032   1.890   9.124  12.111 -0.2238 -0.0559 -0.0371
 3289W        W 7033   5.083   6.415   3.730  0.1953 -0.1036 -0.1075
 3290W        W 7034   9.827   3.496   9.926  0.2993 -0.0301 -0.0111
 3291W        W 7035   5.476   0.865  11.409  0.0928  0.2204 -0.2173
 3292W        W 7036   5.378   0.262   2.177  0.0351 -0.0792  0.0776
 3293W        W 7037   2.360   8.171   2.575  0.0079 -0.2043 -0.0114
 3294W        W 7038   6.443   5.475  12.114 -0.0134 -0.2364 -0.3520
 3295W        W 7039   1.960   7.845   0.888 -0.0634  0.2030 -0.1144
 3296W        W 7040   9.479   5.932  12.302  0.0513  0.0620  0.1919
 3297W        W 7041   7.419   0.086  10.979 -0.0114  0.1102 -0.0778
 3298W        W 7042   1.498   6.887   9.929  0.1896  0.3706  0.2703
 3299W        W 7043   7.594   8.257   2.589  0.1822  0.3327 -0.1064
 3300W        W 7044   8.612   5.304   0.743  0.2582  0.2129 -0.0106
 3301W        W 7045   3.107   4.843   3.654  0.0428 -0.2368  0.0287
 3302W        W 7046   3.157   8.503   1.863  0.1475  0.3117  0.2339
 3303W        W 7047   2.016   6.340  11.903 -0.0665 -0.0389  0.0058
 3304W        W 7048   6.437   2.359   9.566  0.0539 -0.0511  0.1791
 3305W        W 7049   6.353   6.902  10.393  0.0749 -0.1865 -0.0866
 3306W        W 7050   0.851   7.801   4.530  0.1394 -0.0866  0.0033
 3307W        W 7051   3.590   9.565  11.454  0.1146  0.1547  0.1996
 3308W        W 7052   8.098   1.807   2.493  0.1544  0.0844 -0.0288
 3309W        W 7053   8.591   3.247   4.622  0.0927 -0.2456 -0.0468
 3310W        W 7054   9.889   6.510   0.677  0.1121 -0.1431 -0.2178
 3311W        W 7055   8.201   4.368  12.790 -0.1985 -0.0472  0.0667
 3312W        W 7056   0.589   1.591   8.592 -0.1020  0.0486 -0.1613
 3313W        W 7057   6.650   6.044   9.350  0.2289 -0.2122  0.1183
 3314W        W 7058   6.156   1.565  10.299 -0.1590 -0.2554  0.0645
 3315W        W 7059   5.390   5.742   3.251 -0.0569 -0.1142 -0.1633
 3316W        W 7060   4.432   0.625   3.679 -0.0740 -0.1140  0.2054
 3317W        W 7061   2.353   8.729  10.025  0.0754  0.1161  0.1926
 3318W        W 7062   3.860   8.241   3.171 -0.0857  0.2968 -0.0041
 3319W        W 7063   3.233   7.468   1.005 -0.3792 -0.2352  0.0868
 3320W        W 7064   8.398   2.580  12.484  0.0097  0.1703  0.1551
 3321W        W 7065   9.309   0.179   0.746  0.1602 -0.0394  0.0346
 3322W        W 7066   6.285   5.256   3.659 -0.0813 -0.1760  0.2250
 3323W        W 7067   2.196   4.627   2.137 -0.1210 -0.2489  0.0766
 3324W        W 7068   0.552   5.552  12.871  0.0818  0.1797  0.0834
 3325W        W 7069   6.917   3.976   3.904 -0.0644  0.2294 -0.0611
 3326W        W 7070   7.962   2.212   2.158 -0.0249 -0.0781 -0.1673
 3327W        W 7071   6.745   8.610   2.961 -0.0811 -0.2764  0.1522
 3328W        W 7072   1.249   5.702  11.865 -0.0719 -0.0829 -0.0391
 3329W        W 7073   9.116   5.067   3.274 -0.1351 -0.0291  0.1959
 3330W        W 7074   0.829   8.528   9.791  0.2720 -0.1403  0.3599
 3331W        W 7075   8.835   1.791  10.488 -0.5192  0.1489 -0.2213
 3332W        W 7076   4.272   6.930   4.209  0.2310 -0.2607 -0.1460
 3333W        W 7077   3.914   7.787   3.308  0.0361  0.0499 -0.0226
 3334W        W 7078   1.795   2.393   2.091  0.2160  0.0201 -0.1799
 3335W        W 7079   5.285   6.339   8.856 -0.3892  0.2791  0.2844
 3336W        W 7080   8.183   8.088   4.120 -0.2808 -0.1969  0.2680
 3337W        W 7081   3.146   0.807   9.914 -0.0132  0.0805 -0.0059
 3338W        W 7082   3.840   0.787   2.898 -0.0439  0.0253  0.0218
 3339W        W 7083   3.585   5.258  12.086 -0.1197  0.2117  0.1742
 3340W        W 7084   7.447   2.125   4.616  0.1498  0.0900  0.3104
 3341W        W 7085   0.213   6.247   4.022 -0.0310  0.2265  0.0961
 3342W        W 7086   3.709   1.093  12.014 -0.0388  0.3066  0.1602
 3343W        W 7087   1.473   0.433   9.152 -0.1165  0.0454 -0.0857
 3344W        W 7088   4.693   5.316  10.289 -0.1385  0.0407 -0.1566
 3345W        W 7089   1.538   2.769  12.268 -0.1042 -0.1559 -0.3065
 3346W        W 7090   5.573   6.656   3.957 -0.0418  0.2659 -0.1895
 3347W        W 7091   8.986   5.168   8.233 -0.1382  0.2093  0.0122
 3348W        W 7092   6.556   1.656   9.459 -0.2468  0.1631  0.1461
 3349W        W 7093   6.102   4.052   0.829 -0.1073  0.5686  0.2007
 3350W        W 7094   4.939   5.074   9.457  0.1512 -0.1115  0.1725
 3351W        W 7095   7.423   2.671   9.292  0.1199 -0.0687 -0.1173
 3352W        W 7096   3.969   6.764  12.425  0.4438 -0.0342  0.0500
 3353W        W 7097   1.443   5.414   8.976  0.1201  0.1449  0.2898
 3354W        W 7098   3.140   7.461   4.744  0.0609 -0.1653 -0.0152
 3355W        W 7099   1.902   8.445  10.157  0.1598 -0.2155  0.1748
 3356W        W 7100   7.814   1.017  10.109  0.1162 -0.0062 -0.1542
 3357W        W 7101   2.273   9.846   1.108  0.0229  0.1712 -0.0577
 3358W        W 7102   8.931   8.107  11.725 -0.1553 -0.1657 -0.2604
 3359W        W 7103   4.480   1.046  10.894 -0.3083 -0.0665  0.2470
 3360W        W 7104   0.093   4.451  10.785  0.1012 -0.0537  0.0321
 3361W        W 7105   4.057   5.411   9.428  0.2818  0.1544 -0.1508
 3362W        W 7106   6.752   7.548  12.327 -0.1360 -0.1181 -0.0615
 3363W        W 7107   2.943   8.507   1.322  0.0011 -0.2647  0.2660
 3364W        W 7108   2.109   6.446   1.261  0.2027  0.0227  0.3204
 3365W        W 7109   6.152   7.039   3.780  0.3295  0.3235 -0.1172
 3366W        W 7110   8.996   2.462   1.912  0.3604 -0.2136 -0.1925
 3367W        W 7111   5.736   4.735   9.455 -0.0615  0.2380  0.2063
 3368W        W 7112   0.400   1.307   0.042 -0.0460 -0.0599  0.1064
 3369W        W 7113   2.247   0.918   2.203  0.0566 -0.1223  0.2041
 3370W        W 7114   3.031   8.768  11.927 -0.0918  0.2153 -0.1651
 3371W        W 7115   6.448   9.028   2.088  0.0157  0.1583  0.1098
 3372W        W 7116   5.621   7.118   9.305  0.1284  0.3425  0.2391
 3373W        W 7117   2.730   8.754   9.673  0.1397 -0.2693  0.3496
 3374W        W 7118   8.651   9.034   3.278  0.0127  0.0242  0.0595
 3375W        W 7119   8.130   4.141   9.787  0.3697  0.1283 -0.2059
 3376W        W 7120   3.203   2.858  10.010 -0.1827  0.0595  0.1848
 3377W        W 7121   0.933   7.623   0.606  0.2136 -0.1618 -0.1066
 3378W        W 7122   6.093   3.111   3.415 -0.0631  0.1389 -0.0500
 3379W        W 7123   9.765   2.687   2.004  0.0631 -0.0192  0.0437
 3380W        W 7124   2.004   8.029   8.328 -0.1724 -0.0889 -0.1554
 3381W        W 7125   2.170   8.661   2.054  0.2399 -0.1407 -0.1479
 3382W        W 7126   9.233   2.879   2.798  0.1506  0.2960 -0.0954
 3383W        W 7127   1.534   9.093  10.701 -0.1641  0.3366 -0.0207
 3384W        W 7128   0.479   2.928  10.763 -0.1099  0.4098  0.1249
 3385W        W 7129   9.864   5.947   9.738  0.3088  0.0206  0.2326
 3386W        W 7130   8.317   3.526   5.025 -0.3481 -0.0599  0.1330
 3387W        W 7131   0.939   2.387  11.524  0.3661 -0.2238  0.1992
 3388W        W 7132   8.046   3.850   2.481  0.0628 -0.1970  0.1885
 3389W        W 7133   8.381   4.944  11.851  0.1635  0.0106 -0.2264
 3390W        W 7134   0.380   5.846   2.172 -0.4335  0.1647 -0.0945
 3391W        W 7135   8.053   7.728  10.347  0.1596  0.2125 -0.1962
 3392W        W 7136   0.019   7.678   0.137  0.1544  0.1403  0.1783
 3393W        W 7137   9.051   0.179  10.573  0.2033 -0.0905 -0.0460
 3394W        W 7138   1.927   0.348  10.659  0.3770  0.0470 -0.1349
 3395W        W 7139   2.675   6.473  10.118 -0.1690  0.1146  0.0304
 3396W        W 7140   8.347   9.380   4.173 -0.0038 -0.1830 -0.2229
 3397W        W 7141   6.276   2.227   2.212 -0.1690  0.0587 -0.0629
 3398W        W 7142   5.541   6.511   2.031 -0.0980 -0.1650 -0.3810
 3399W        W 7143   7.190   5.695   2.058  0.0750 -0.2355  0.1483
 3400W        W 7144   9.719   7.984   1.516 -0.1538 -0.2262  0.0012
 3401W        W 7145   1.138   8.340   1.027 -0.2361 -0.3260 -0.0452
 3402W        W 7146   0.356   1.537   2.346 -0.0703 -0.2471 -0.0395
 3403W        W 7147   4.446   8.120   2.118  0.4471 -0.2366 -0.0265
 3404W        W 7148   1.992   8.787   0.383 -0.0133  0.2451 -0.0138
 3405W        W 7149   9.437   9.170  10.921  0.2942 -0.3247  0.3216
 3406W        W 7150   5.402   4.926  10.613  0.0847  0.2081 -0.2382
 3407W        W 7151   8.025   8.505   9.335 -0.0174  0.0036 -0.4671
 3408W        W 7152   8.366   7.417   1.138 -0.3816  0.3430 -0.0100
 3409W        W 7153   8.761   1.815   9.597 -0.1264 -0.1024  0.0653
 3410W        W 7154   6.166   4.152   9.170 -0.0897  0.0604 -0.2855
 3411W        W 7155   8.742   5.608   9.947 -0.3073  0.1761  0.0740
 3412W        W 7156   5.904   3.984  12.335 -0.1062  0.4444 -0.2330
 3413W        W 7157   2.887   4.547  11.200  0.2027 -0.0942 -0.1564
 3414W        W 7158   1.623   9.615  12.121 -0.4879  0.2097 -0.1001
 3415W        W 7159   1.564   7.811  11.197  0.1077 -0.0186 -0.2746
 3416W        W 7160   8.551   8.888  10.644 -0.1457 -0.1566  0.0794
 3417W        W 7161   8.803   1.264   4.274 -0.1026 -0.1963 -0.0497
 3418W        W 7162   7.441   0.941  11.579 -0.0523  0.3926  0.0463
 3419W        W 7163   4.891   6.062   0.134 -0.1616  0.0131  0.0304
 3420W        W 7164   2.038   4.625   2.615  0.1546 -0.2320 -0.0226
 3421W        W 7165   2.703   5.269   2.496  0.1322 -0.2514 -0.1389
 3422W        W 7166   4.544   4.993   1.434 -0.3382 -0.3256  0.0149
 3423W        W 7167   6.921   2.038  10.589 -0.0833 -0.2753  0.1384
 3424W        W 7168   5.591   5.465  10.325 -0.0427  0.2797 -0.4169
 3425W        W 7169   2.271   2.614   2.379 -0.1092  0.0630  0.3121
 3426W        W 7170   9.803   2.614   9.247 -0.1164  0.2107  0.2357
 3427W        W 7171   7.395   9.914   3.495  0.0119 -0.1090 -0.0855
 3428W        W 7172   8.923   1.031  11.492  0.0414 -0.2180 -0.1586
 3429W        W 7173   3.064   5.148   2.032  0.2176  0.3156  0.2072
 3430W        W 7174   3.006   3.716   1.093  0.0234  0.3304 -0.0513
 3431W        W 7175   1.542   1.182   2.174  0.0184  0.0044  0.1088
 3432W        W 7176   8.099   7.187   0.200  0.1143 -0.2428  0.0953
 3433W        W 7177   1.613   4.277   0.486  0.2576 -0.1450  0.0118
 3434W        W 7178   2.405   5.103   9.632  0.1040 -0.2150 -0.1598
 3435W        W 7179   9.163   7.961   3.411  0.0157  0.3767 -0.1510
 3436W        W 7180   1.905   1.061   1.872  0.1651  0.0128 -0.0348
 3437W        W 7181   4.320   5.336   3.411 -0.0089  0.1491  0.0035
 3438W        W 7182   2.783   1.102   9.822  0.1191 -0.3434 -0.1352
 3439W        W 7183   4.954   2.618   0.924 -0.2466  0.0466 -0.1270
 3440W        W 7184   1.691   5.604   9.781  0.0100 -0.0938 -0.2791
 3441W        W 7185   2.820   4.275  10.086  0.1317  0.2189  0.1909
 3442W        W 7186   4.255   9.050   2.511 -0.2191 -0.1735 -0.0796
 3443W        W 7187   6.779   8.543  12.345 -0.3478  0.0930  0.0844
 3444W        W 7188   9.285   6.361  12.072  0.3432 -0.0846 -0.0060
 3445W        W 7189   1.408   7.387   9.616  0.3063  0.0418  0.1201
 3446W        W 7190   7.058   3.085  11.819 -0.0764 -0.1586 -0.0099
 3447W        W 7191   5.054   2.578   9.819 -0.3058  0.0665  0.0362
 3448W        W 7192   5.110   6.480   0.518  0.2370  0.1460  0.0556
 3449W        W 7193   3.392   2.871   2.736 -0.1459  0.0379  0.0888
 3450W        W 7194   3.635   4.975  12.508  0.1990  0.3399 -0.2803
 3451W        W 7195   0.241   7.165  10.194 -0.0100 -0.0346  0.2568
 3452W        W 7196   8.224   4.962   9.205  0.0874  0.0850  0.2050
 3453W        W 7197   7.854   5.045   8.895 -0.0862  0.2058 -0.1979
 3454W        W 7198   4.123   8.426   0.442  0.3386  0.2637 -0.0998
 3455W        W 7199   0.431   9.861   3.839 -0.2147 -0.4627  0.3191
 3456W        W 7200   4.992   2.851  12.402  0.3094  0.0856 -0.2829
 3457W        W 7201   3.360   6.975  12.481  0.1866 -0.2165 -0.1578
 3458W        W 7202   9.532   2.038  11.998  0.0387 -0.1241 -0.1743
 3459W        W 7203   0.376   8.314   2.634 -0.2908  0.1748 -0.0526
 3460W        W 7204   0.045   1.855   1.171 -0.2244  0.2993  0.2516
 3461W        W 7205   5.903   5.277   1.445 -0.4314 -0.5106  0.0369
 3462W        W 7206   6.476   2.654   2.322 -0.0373  0.0651  0.1904
 3463W        W 7207   1.146   9.386  12.199  0.2243  0.0250 -0.2755
 3464W        W 7208   7.688   3.308   2.829  0.2396 -0.0097 -0.2911
 3465W        W 7209   8.368   6.659   0.850  0.0694 -0.1786  0.0559
 3466W        W 7210   1.809   3.461   1.417 -0.0846 -0.0258  0.0321
 3467W        W 7211   5.713   6.373  11.389 -0.1102 -0.1147  0.2739
 3468W        W 7212   6.294   5.504   3.061  0.1528  0.0908 -0.0234
 3469W        W 7213   9.218   9.305   9.675 -0.2729  0.0904 -0.1583
 3470W        W 7214   3.610   1.918   3.848  0.1524  0.0976 -0.0943
 3471W        W 7215   4.730   5.013  12.370  0.3106  0.1436  0.1941
 3472W        W 7216   6.886   8.027  12.287  0.0125  0.1052 -0.1295
 3473W        W 7217   7.558   3.157   0.149  0.2634  0.2233  0.3651
 3474W        W 7218   0.649   9.484   0.335 -0.3310 -0.1008 -0.1059
 3475W        W 7219   5.228   6.390   0.955 -0.2063 -0.1082  0.1263
 3476W        W 7220   3.208   3.555   0.257  0.0804 -0.0460 -0.0646
 3477W        W 7221   6.837   7.842   2.000  0.0694 -0.1337 -0.3892
 3478W        W 7222   9.504   0.786  10.401  0.0321  0.0772 -0.0772
 3479W        W 7223   1.575   9.577   0.023  0.1980  0.0373 -0.2376
 3480W        W 7224   0.360   7.715   0.928  0.1997 -0.0438  0.0279
 3481W        W 7225   5.354   9.633   2.069  0.2145  0.1751  0.0488
 3482W        W 7226   7.414   0.716   0.931  0.0039  0.0105 -0.2741
 3483W        W 7227   6.150   9.666  11.667  0.1901 -0.0681  0.1506
 3484W        W 7228   8.675   7.355   0.088  0.0490 -0.1621  0.0190
 3485W        W 7229   4.985   4.074   3.347 -0.0281  0.1956  0.2280
 3486W        W 7230   1.784   8.117  10.892 -0.2654  0.3036 -0.1862
 3487W        W 7231   0.521   7.489   4.338  0.0764  0.0640 -0.1014
 3488W        W 7232   5.052   3.859  10.045 -0.0763 -0.0573  0.2231
 3489W        W 7233   3.479   7.610   9.716  0.1659  0.1055 -0.2665
 3490W        W 7234   9.570   7.849   2.874  0.0810 -0.1263  0.0124
 3491W        W 7235   1.876   6.393   3.327 -0.1961 -0.4785  0.1077
 3492W        W 7236   1.191   2.210   2.494  0.0620  0.0482 -0.1690
 3493W        W 7237   0.153   7.720   9.227 -0.3400 -0.1413 -0.1335
 3494W        W 7238   6.506   4.371  10.675  0.0240  0.2447 -0.0464
 3495W        W 7239   8.323   4.401   3.583  0.0626  0.0615  0.1726
 3496W        W 7240   4.995   8.089   7.812 -0.4869 -0.3195 -0.1900
 3497W        W 7241   7.750   7.382   3.064 -0.1131  0.3032  0.0861
 3498W        W 7242   1.792   4.050   9.068 -0.0384 -0.2217  0.1738
 3499W        W 7243   7.324   5.063   9.667 -0.2464  0.1479 -0.2184
 3500W        W 7244   5.589   8.253   4.898  0.2448 -0.2818  0.4283
 3501W        W 7245   0.047   5.420   4.335 -0.2310  0.0996  0.1220
 3502W        W 7246   7.460   4.232   8.754 -0.0263  0.1037 -0.3745
 3503W        W 7247   6.200   4.441   3.973  0.0435 -0.0043 -0.0721
 3504W        W 7248   1.061   8.917  12.262  0.0933  0.3367  0.0354
 3505W        W 7249   2.222   6.917   1.095 -0.1600 -0.1339 -0.2530
 3506W        W 7250   9.555   6.779   0.395 -0.0046  0.1215  0.2121
 3507W        W 7251   0.166   0.332  11.085  0.2413 -0.0872  0.0800
 3508W        W 7252   9.178   6.438   2.535  0.1704  0.1870  0.0003
 3509W        W 7253   4.610   6.862   9.324 -0.0556  0.0898  0.1358
 3510W        W 7254   6.757   9.161  10.894  0.2109 -0.1481 -0.0090
 3511W        W 7255   9.382   8.371   1.614  0.4020 -0.0056 -0.0244
 3512W        W 7256   3.311   1.479  11.908 -0.0652  0.2387  0.0793
 3513W        W 7257   4.088   9.677  11.272  0.0583 -0.1047  0.1901
 3514W        W 7258   0.088   8.510   3.360 -0.0417 -0.0929  0.1361
 3515W        W 7259   8.381   1.898   0.640 -0.0402  0.0678  0.0486
 3516W        W 7260   2.163   1.938  12.497  0.0596  0.0332  0.2475
 3517W        W 7261   7.693   8.675  10.708 -0.0127 -0.2211  0.1901
 3518W        W 7262   5.375   0.677   2.821 -0.0798 -0.1134 -0.3820
 3519W        W 7263   4.361   2.417   3.336 -0.1374  0.0220  0.1224
 3520W        W 7264   2.685   4.232   3.216  0.0053  0.1231 -0.0854
 3521W        W 7265   3.520   7.609  12.541  0.0973  0.1934 -0.2655
 3522W        W 7266   2.941   9.475   9.773 -0.4806  0.2126  0.0868
 3523W        W 7267   3.940   5.034   3.345  0.4951  0.2084 -0.1634
 3524W        W 7268   1.715   7.329  11.330  0.0515 -0.0838  0.0476
 3525W        W 7269   9.172   5.938   1.115  0.2178  0.0452  0.2696
 3526W        W 7270   1.490   6.793   1.675 -0.0472  0.0027  0.0094
 3527W        W 7271   6.695   7.236  10.507 -0.3516 -0.2529  0.3091
 3528W        W 7272   3.607   7.316  10.871  0.0281 -0.1042 -0.1044
 3529W        W 7273   1.091   5.218   1.602 -0.0782  0.0300 -0.0695
 3530W        W 7274   3.740   7.915   1.713  0.1204 -0.0315 -0.1111
 3531W        W 7275   4.731   2.248   1.190 -0.3408  0.0738 -0.1478
 3532W        W 7276   7.960   0.341   9.302  0.2660  0.1177 -0.0789
 3533W        W 7277   5.866   6.065   4.065 -0.4495 -0.3207  0.0410
 3534W        W 7278   7.571   0.921  12.581 -0.0915  0.0884 -0.3795
 3535W        W 7279   4.235   3.476   1.927 -0.0310 -0.1826  0.3073
 3536W        W 7280   2.132   0.005  12.141 -0.0206  0.0950  0.1217
 3537W        W 7281   0.897   4.893   8.715 -0.1594  0.1368 -0.3083
 3538W        W 7282   1.025   9.454   9.777 -0.1919 -0.2991  0.0093
 3539W        W 7283   0.809   7.977   0.205  0.1557 -0.0885  0.1079
 3540W        W 7284   5.006   3.555   0.892 -0.1869  0.1933  0.4154
 3541W        W 7285   5.952   8.154   2.336 -0.2046  0.5268  0.1485
 3542W        W 7286   2.338   0.726  10.531  0.1270  0.0809  0.0033
 3543W        W 7287   7.075   8.230  11.773 -0.0590  0.1889  0.1868
 3544W        W 7288   5.976   4.832   2.676 -0.0257 -0.0946 -0.2588
 3545W        W 7289   1.614   8.297   0.753 -0.0512 -0.1374 -0.0311
 3546W        W 7290   1.934   6.696  11.475 -0.4498 -0.0285  0.0553
 3547W        W 7291   5.211   2.071   2.859  0.0773 -0.0324 -0.0111
 3548W        W 7292   0.989   0.401   9.218  0.4577  0.0709  0.2666
 3549W        W 7293   3.000   3.524   2.090 -0.0627  0.3232  0.0381
 3550W        W 7294   7.313   0.961   9.118 -0.1793  0.0862 -0.0917
 3551W        W 7295   2.251   8.918   4.177 -0.1215  0.0971 -0.2222
 3552W        W 7296   5.146   1.035   2.616  0.4757  0.3245  0.3247
 3553W        W 7297   6.340   7.226  12.888 -0.1137  0.3455  0.2688
 3554W        W 7298   3.626   7.279  12.193  0.0714  0.1575  0.0900
 3555W        W 7299   6.215   8.599   2.144  0.0232  0.1063  0.0444
 3556W        W 7300   8.068   7.023   9.269 -0.0693  0.0505  0.3750
 3557W        W 7301   0.114   6.888   8.982  0.3605  0.0391 -0.0743
 3558W        W 7302   9.267   5.966  11.731 -0.1679  0.1372  0.1033
 3559W        W 7303   9.610   2.567   3.849  0.2067  0.3214 -0.2073
 3560W        W 7304   9.758   1.384  11.525  0.1242  0.0300  0.0602
 3561W        W 7305   4.830   7.632   9.048  0.2120  0.0934 -0.0877
 3562W        W 7306   2.014   8.275   0.219  0.0567  0.1137 -0.0255
 3563W        W 7307   3.670   0.093  12.351  0.1400  0.0411  0.1807
 3564W        W 7308   5.849   8.630   2.531  0.0477 -0.0374  0.0930
 3565W        W 7309   5.617   8.995  11.326 -0.2173  0.0697 -0.1387
 3566W        W 7310   2.599   7.259   8.113 -0.3089 -0.0037 -0.0399
 3567W        W 7311   8.048   1.894  10.030 -0.1373 -0.2553 -0.0281
 3568W        W 7312   4.594   3.534   0.055 -0.0013 -0.1437 -0.0475
 3569W        W 7313   5.140   2.323  11.299  0.2150 -0.0014 -0.0637
 3570W        W 7314   8.834   4.336   8.842 -0.0961 -0.1340  0.2897
 3571W        W 7315   1.065   9.314   8.218 -0.1948 -0.0675 -0.0021
 3572W        W 7316   5.317   4.852   9.802  0.0664 -0.1033 -0.1784
 3573W        W 7317   6.746   2.999   3.660  0.1841  0.0202  0.0902
 3574W        W 7318   5.792   2.113   8.996 -0.0259  0.0828 -0.2983
 3575W        W 7319   9.246   6.875   0.786  0.2380 -0.2609 -0.2516
 3576W        W 7320   6.562   9.561  10.529  0.0555 -0.1514 -0.1193
 3577W        W 7321   0.441   8.182   9.860  0.0707  0.1682  0.0959
 3578W        W 7322   8.169   9.321   3.263 -0.2274 -0.0530  0.1725
 3579W        W 7323   9.496   2.001   1.202 -0.4151  0.1001  0.0007
 3580W        W 7324   4.614   0.658  10.072  0.0220  0.2980  0.0095
 3581W        W 7325   6.392   7.829   9.988 -0.1405  0.0564 -0.0931
 3582W        W 7326   9.213   8.091   8.853  0.1195  0.1217  0.0740
 3583W        W 7327   6.266   1.964   9.810  0.2481  0.2832  0.4557
 3584W        W 7328   9.495   3.305   2.908 -0.0932  0.4472  0.2027
 3585W        W 7329   1.366   6.508   4.389  0.4294  0.3061  0.0950
 3586W        W 7330   6.437   1.221   2.636  0.0433 -0.0034  0.1373
 3587W        W 7331   5.930   8.991   0.441  0.0526  0.2228 -0.2004
 3588W        W 7332   6.306   2.720   5.068  0.1968  0.0512  0.1216
 3589W        W 7333   8.596   7.908   0.344 -0.0031  0.0123  0.2090
 3590W        W 7334   8.065   4.258   0.474 -0.0873 -0.4699 -0.0928
 3591W        W 7335   4.710   6.002  12.259 -0.1753 -0.4411 -0.2310
 3592W        W 7336   5.561   0.242   9.394 -0.2490 -0.2439  0.0664
 3593W        W 7337   6.314   7.391  10.801 -0.2611  0.0667  0.2334
 3594W        W 7338   0.250   7.749   1.591  0.1423  0.1622  0.0147
 3595W        W 7339   5.623   9.124  10.286 -0.2453 -0.3076 -0.0699
 3596W        W 7340   2.090   2.833  11.982 -0.3940 -0.1244 -0.2242
 3597W        W 7341   0.343   5.560   2.622  0.0071  0.0750  0.0230
 3598W        W 7342   4.744   9.719   0.198 -0.0243  0.0285 -0.2255
 3599W        W 7343   2.544   3.726   2.114 -0.0111  0.0358  0.0423
 3600W        W 7344   2.854   2.416  12.095  0.3003 -0.4087  0.0539
 3601W        W 7345   9.712   0.542  12.020 -0.1130  0.0332 -0.3965
 3602W        W 7346   6.121   1.400   9.750  0.1746 -0.0650 -0.1835
 3603W        W 7347   8.234   1.662   0.212  0.1443  0.0735 -0.1276
 3604W        W 7348   1.331   2.375  10.028 -0.0443 -0.0762 -0.1515
 3605W        W 7349   3.563   9.653  10.979 -0.1302 -0.0153  0.2628
 3606W        W 7350   3.992   4.969  12.124  0.1349 -0.2330  0.1969
 3607W        W 7351   5.791   3.534  11.465 -0.1134  0.2779  0.0635
 3608W        W 7352   0.038   7.180  11.543 -0.0099 -0.3312 -0.1791
 3609W        W 7353   3.499   8.350   7.564 -0.0550 -0.0349 -0.2819
 3610W        W 7354   0.656   9.403  10.732  0.3523  0.1333  0.1124
 3611W        W 7355   8.233   0.828   4.854 -0.4202  0.0886  0.0407
 3612W        W 7356   4.794   5.636   8.977 -0.1441  0.0866  0.2660
 3613W        W 7357   7.798   7.607   1.847  0.0197  0.1366  0.0446
 3614W        W 7358   4.982   0.076   1.161  0.0854 -0.2595  0.0082
 3615W        W 7359   1.079   5.665   9.838  0.1506 -0.0745 -0.0294
 3616W        W 7360   8.734   4.143   3.490 -0.0437 -0.2204  0.0124
 3617W        W 7361   0.590   5.046  11.762  0.2440 -0.0241  0.2841
 3618W        W 7362   8.184   9.321   9.339  0.1056  0.1387 -0.1184
 3619W        W 7363   2.482   6.933   0.514  0.0960  0.1699 -0.0550
 3620W        W 7364   6.762   5.308   3.751 -0.0567 -0.2457 -0.0119
 3621W        W 7365   4.536   5.425   9.387 -0.1402  0.1895  0.0050
 3622W        W 7366   6.113   1.501   4.482  0.0900 -0.1989 -0.0931
 3623W        W 7367   1.697   8.111   1.829  0.3189  0.2343  0.1634
 3624W        W 7368   7.571   9.519  10.296 -0.2103  0.1219  0.0621
 3625W        W 7369   7.420   5.441   0.008 -0.0580 -0.1844  0.2239
 3626W        W 7370   8.458   1.766  11.217 -0.0283 -0.1935 -0.1493
 3627W        W 7371   1.920   0.584  10.176 -0.2582 -0.2754  0.1225
 3628W        W 7372   2.642   1.601  12.569 -0.0183 -0.1653 -0.3490
 3629W        W 7373   1.842   8.986  11.086  0.1261  0.1150 -0.1517
 3630W        W 7374   6.861   4.459  10.380  0.1172  0.2517 -0.1343
 3631W        W 7375   3.857   5.099  10.103 -0.0754  0.0022  0.6022
 3632W        W 7376   8.935   6.609   1.094 -0.0167  0.1418  0.0041
 3633W        W 7377   9.774   4.519  10.008 -0.0173  0.0707 -0.1109
 3634W        W 7378   7.793   8.923   9.475 -0.0387 -0.0765 -0.2868
 3635W        W 7379   7.007   0.602   1.641  0.1403  0.0244  0.1237
 3636W        W 7380   0.063   4.419   2.974  0.0220 -0.2352 -0.1488
 3637W        W 7381   2.468   9.337   4.923  0.1226  0.1026 -0.1129
 3638W        W 7382   2.722   7.604  11.946  0.1459 -0.1141 -0.0017
 3639W        W 7383   2.165   6.495  11.070  0.1613 -0.0580  0.1876
 3640W        W 7384   5.988   3.414   1.237  0.1726  0.0598  0.1842
 3641W        W 7385   7.016   9.865  10.407  0.2039  0.0303  0.3168
 3642W        W 7386   6.031   1.653  11.631  0.0369 -0.0668  0.1502
 3643W        W 7387   3.571   2.297  11.468 -0.0348 -0.2567  0.2061
 3644W        W 7388   7.940   5.242   0.031  0.0857 -0.1820 -0.2346
 3645W        W 7389   2.462   2.730  12.369 -0.0670 -0.1280  0.3282
 3646W        W 7390   7.793   4.733  11.263 -0.0243 -0.0924  0.0717
 3647W        W 7391   0.158   2.589  10.394  0.2240 -0.3232  0.0775
 3648W        W 7392   1.973   6.085   9.836  0.3281  0.2741  0.2040
 3649W        W 7393   3.226   0.181   0.418 -0.0810 -0.0004 -0.0430
 3650W        W 7394   4.479   7.780   3.039  0.0315 -0.3073 -0.3246
 3651W        W 7395   4.926   5.571   1.549 -0.1610 -0.0109  0.0014
 3652W        W 7396   8.908   7.501   2.115  0.0883  0.1803  0.1301
 3653W        W 7397   2.923   8.514   3.214  0.3346  0.3540  0.0230
 3654W        W 7398   5.983   6.725  11.277 -0.2472 -0.2375 -0.2432
 3655W        W 7399   1.202   0.585   1.720  0.1324 -0.0092  0.0473
 3656W        W 7400   2.238   0.784   3.524  0.1515 -0.1338 -0.0335
 3657W        W 7401   7.329   6.667   0.948 -0.1302 -0.1729 -0.0312
 3658W        W 7402   5.800   4.501  12.540 -0.1066 -0.0986 -0.1055
 3659W        W 7403   7.413   5.421  11.144 -0.0117  0.1560  0.4104
 3660W        W 7404   7.734   9.271   0.291  0.1747  0.0639  0.1441
 3661W        W 7405   0.448   1.180  12.400  0.2457  0.0595 -0.2614
 3662W        W 7406   1.865   6.622   9.647 -0.1455 -0.1098 -0.0147
 3663W        W 7407   5.060   7.306  10.520 -0.0137 -0.3463  0.0995
 3664W        W 7408   8.732   8.684   0.966 -0.0178  0.1425 -0.3294
 3665W        W 7409   8.440   3.405  12.877 -0.0598 -0.0088 -0.3010
 3666W        W 7410   1.015   2.756   0.031 -0.0381 -0.0530  0.1566
 3667W        W 7411   5.122   4.294   2.895  0.1814  0.3589  0.0599
 3668W        W 7412   1.480   4.641   8.709  0.0831 -0.2311 -0.1424
 3669W        W 7413   6.822   0.351   2.402  0.2344  0.2215  0.0772
 3670W        W 7414   5.611   8.654  10.137  0.1396  0.0807 -0.1574
 3671W        W 7415   3.511   3.691  12.682 -0.1378 -0.0337 -0.2661
 3672W        W 7416   8.742   3.404  10.344 -0.2046 -0.1142  0.1843
 3673W        W 7417   0.983   7.028  10.597  0.0525  0.0291  0.1189
 3674W        W 7418   2.253   8.283   9.195 -0.4080 -0.1149  0.1070
 3675W        W 7419   2.414   1.678  11.374 -0.1628 -0.1009 -0.2564
 3676W        W 7420   4.230   3.421   0.367 -0.1330  0.1578 -0.1305
 3677W        W 7421   6.093   0.567   4.766 -0.2049  0.0447 -0.0230
 3678W        W 7422   6.769   8.477  11.461 -0.0313 -0.0689  0.0399
 3679W        W 7423   2.358   8.354   3.434 -0.0173 -0.2440  0.0540
 3680W        W 7424   5.964   1.558   1.063  0.4006 -0.0055  0.1545
 3681W        W 7425   8.050   3.333   2.406  0.1578 -0.0094 -0.0701
 3682W        W 7426   5.767   4.726   3.123  0.1417 -0.2158  0.0197
 3683W        W 7427   9.537   7.462  11.441  0.1798 -0.2257  0.2826
 3684W        W 7428   9.163   5.332   4.280 -0.1438 -0.0045 -0.1583
 3685W        W 7429   5.960   8.843  10.524  0.0494 -0.1723 -0.0154
 3686W        W 7430   2.610   8.644   1.688  0.2014  0.1682 -0.1243
 3687W        W 7431   3.047   1.160   8.944  0.2281 -0.1803  0.1230
 3688W        W 7432   8.745   7.690  11.086  0.0643  0.2809 -0.1812
 3689W        W 7433   1.953   9.085   9.340 -0.0907  0.2096 -0.1351
 3690W        W 7434   9.131   8.599   9.624 -0.2815 -0.4250 -0.0518
 3691W        W 7435   5.686   3.532  12.068  0.1113  0.3701 -0.3679
 3692W        W 7436   6.577   7.729   1.568 -0.0914  0.1613 -0.2773
 3693W        W 7437   6.811   2.490   3.442 -0.2863 -0.1824 -0.0061
 3694W        W 7438   5.716   8.853   1.350 -0.0958  0.0040 -0.0447
 3695W        W 7439   4.927   8.023   2.921 -0.0959 -0.2794 -0.1491
 3696W        W 7440   3.339   5.813   1.307 -0.0967  0.1773 -0.2986
 3697W        W 7441   6.554   0.459   8.484 -0.0465 -0.0432 -0.2683
 3698W        W 7442   5.862   5.149   9.155 -0.1878  0.0074 -0.2587
 3699W        W 7443   1.529   2.646  12.842  0.1329 -0.1420  0.1819
 3700W        W 7444   7.807   0.221   2.606  0.2295 -0.1122 -0.1122
 3701W        W 7445   9.137   4.270   3.207  0.1545 -0.0626 -0.1186
 3702W        W 7446   2.359   9.013  11.014  0.1783  0.3025 -0.1498
 3703W        W 7447   5.599   2.473   1.004 -0.3888 -0.0735  0.0129
 3704W        W 7448   0.662   3.852  12.149  0.0658  0.0714  0.1506
 3705W        W 7449   7.393   9.013   1.740 -0.0018 -0.0570 -0.2764
 3706W        W 7450   2.060   2.893  12.679 -0.0426  0.0598 -0.1316
 3707W        W 7451   6.085   4.359   2.938  0.0440 -0.0927  0.0852
 3708W        W 7452   8.172   2.052  12.669  0.1645 -0.0956  0.1336
 3709W        W 7453   9.789   2.234  11.066 -0.1027 -0.2499 -0.0991
 3710W        W 7454   8.462   6.518   3.014  0.2263  0.2228 -0.0728
 3711W        W 7455   0.698   6.643   9.550 -0.1932  0.1630  0.0068
 3712W        W 7456   2.880   8.031   8.589 -0.1448  0.1107 -0.1169
 3713W        W 7457   2.289   1.499  12.127  0.0724  0.0007 -0.2908
 3714W        W 7458   2.771   6.707   2.267  0.0775  0.0583 -0.0854
 3715W        W 7459   5.854   5.004   1.028 -0.2994  0.1995 -0.4114
 3716W        W 7460   1.765   0.148  11.095  0.1533 -0.3403  0.1191
 3717W        W 7461   4.049   2.840  12.006 -0.3348 -0.0235  0.0868
 3718W        W 7462   4.255   3.810   1.546 -0.1436 -0.4853  0.0711
 3719W        W 7463   0.113   7.236   9.362  0.2145  0.0702  0.0084
 3720W        W 7464   5.791   8.376  10.625 -0.2343  0.1844 -0.0058
 3721W        W 7465   6.395   1.051  10.066  0.1372  0.0328  0.0275
 3722W        W 7466   9.068   8.997   1.899  0.0837  0.0968 -0.0147
 3723W        W 7467   1.881   8.717   8.898 -0.2525  0.0990 -0.2178
 3724W        W 7468   8.340   5.832   9.157  0.1223  0.3499  0.3327
 3725W        W 7469   5.324   3.529   0.216  0.1743  0.0241  0.0214
 3726W        W 7470   9.579   1.129   0.642 -0.0182  0.0178 -0.2769
 3727W        W 7471   9.102   2.660   3.782 -0.1017 -0.2353 -0.0873
 3728W        W 7472   9.393   1.022  10.811 -0.0929 -0.1527  0.0788
 3729W        W 7473   6.398   3.469   0.855 -0.5716 -0.1515 -0.0575
 3730W        W 7474   2.893   0.497   9.146  0.0917  0.2205 -0.1377
 3731W        W 7475   7.261   3.585  10.170  0.0458 -0.2861  0.2630
 3732W        W 7476   1.863   7.890   9.338 -0.1761  0.2293  0.2019
 3733W        W 7477   3.417   2.794   1.737 -0.2241  0.1384 -0.0313
 3734W        W 7478   6.417   1.542   2.089  0.1488  0.0768 -0.0981
 3735W        W 7479   0.950   8.073   9.877 -0.4747  0.0012  0.2697
 3736W        W 7480   9.673   9.900   4.439  0.1236  0.1349  0.1664
 3737W        W 7481   5.869   2.287  10.000 -0.1770 -0.5976 -0.3285
 3738W        W 7482   3.370   6.152   9.888 -0.0027 -0.1984 -0.1782
 3739W        W 7483   8.423   1.262  11.220  0.1932 -0.1534  0.2458
 3740W        W 7484   8.809   3.925  11.632  0.2668 -0.0145 -0.1411
 3741W        W 7485   1.885   0.950  11.927  0.1294 -0.1679 -0.1379
 3742W        W 7486   5.797   5.110  11.538  0.0895 -0.0199  0.1779
 3743W        W 7487   8.218   3.086   1.369  0.1624  0.1708  0.0269
 3744W        W 7488   2.339   3.775   2.587  0.1012  0.3427  0.0026
 3745W        W 7489   1.819   4.908  12.173 -0.0817 -0.3328  0.1208
 3746W        W 7490   7.874   1.581   3.997 -0.6147  0.0968 -0.1221
 3747W        W 7491   3.073   2.682   2.175 -0.0510 -0.2678  0.1627
 3748W        W 7492   0.111   8.341  11.383  0.3008  0.0800  0.1542
 3749W        W 7493   3.132   6.247  12.046  0.0175 -0.1021  0.0599
 3750W        W 7494   4.033   5.740   1.894  0.3239 -0.1341  0.0037
 3751W        W 7495   6.817   6.316  10.249  0.1731 -0.0320  0.1019
 3752W        W 7496   3.781   3.189   3.612 -0.2007  0.1647  0.1138
 3753W        W 7497   7.743   7.649   9.897 -0.1610 -0.2026 -0.0260
 3754W        W 7498   9.055   5.275  10.144 -0.4975 -0.1157 -0.1526
 3755W        W 7499   6.953   7.021  12.269  0.1759 -0.2136 -0.1397
 3756W        W 7500   0.647   6.272  10.277 -0.0149 -0.2894 -0.0422
 3757W        W 7501   1.396   8.946   3.104 -0.0908 -0.0236  0.1417
 3758W        W 7502   6.813   5.057  12.266 -0.2043  0.0160 -0.0197
 3759W        W 7503   7.347   9.778   9.566  0.4195 -0.1008  0.0184
 3760W        W 7504   9.541   7.760   8.676  0.0820  0.0858  0.3321
 3761W        W 7505   6.604   9.718   8.493  0.3566 -0.0702  0.0809
 3762W        W 7506   0.276   9.799  11.414  0.2522 -0.1217 -0.0994
 3763W        W 7507   6.086   0.608  10.771  0.0713 -0.0880 -0.1631
 3764W        W 7508   0.068   2.164   2.115  0.1060  0.0114 -0.0466
 3765W        W 7509   6.665   7.711   2.515 -0.1413  0.0421  0.3158
 3766W        W 7510   4.921   0.233   9.677  0.4446 -0.2086 -0.0617
 3767W        W 7511   6.564   9.326  11.680  0.0413 -0.0321  0.1477
 3768W        W 7512   3.507   6.291   0.211 -0.1304  0.1865  0.0509
 3769W        W 7513   5.894   3.849   2.880  0.0619  0.0466  0.0467
 3770W        W 7514   7.886   4.985  11.999  0.0328  0.0647 -0.0139
 3771W        W 7515   4.412   2.790   8.820 -0.3133  0.0458  0.1915
 3772W        W 7516   5.706   6.192   2.340  0.2645  0.1337 -0.2080
 3773W        W 7517   9.731   7.357   3.964 -0.0005  0.2015 -0.2406
 3774W        W 7518   0.885   6.117   9.346  0.2521 -0.2626 -0.2349
 3775W        W 7519   8.954   6.126  11.330  0.0466 -0.1999 -0.1324
 3776W        W 7520   3.705   2.557  10.425 -0.0522 -0.0378 -0.1111
 3777W        W 7521   1.671   3.488  11.740 -0.0786 -0.0506  0.1399
 3778W        W 7522   1.640   2.905   0.392  0.0717  0.1255  0.0823
 3779W        W 7523   3.516   0.189   9.765  0.1134 -0.0811  0.4554
 3780W        W 7524   4.804   6.014  11.746 -0.0046  0.0885  0.1678
 3781W        W 7525   0.289   1.245  11.350  0.2833  0.0115 -0.0098
 3782W        W 7526   5.633   2.595   4.739 -0.1824  0.0143 -0.0486
 3783W        W 7527   6.166   5.980   2.177 -0.1878 -0.1077  0.0531
 3784W        W 7528   0.861   6.178   9.832 -0.2225  0.0244  0.1503
 3785W        W 7529   3.908   9.102   8.899  0.1613 -0.1572  0.2323
 3786W        W 7530   2.752   5.027  11.749 -0.1891  0.1537  0.0900
 3787W        W 7531   4.194   7.585   2.468  0.1971  0.2654  0.0710
 3788W        W 7532   9.702   3.881  11.581  0.0832 -0.1444  0.0582
 3789W        W 7533   6.081   4.575   0.872  0.0715  0.2043 -0.0731
 3790W        W 7534   2.239   2.112  10.367  0.0103  0.0726  0.0748
 3791W        W 7535   2.023   2.536  10.512 -0.1153  0.0696 -0.0663
 3792W        W 7536   7.655   7.502   7.761 -0.1381 -0.0330 -0.2984
 3793W        W 7537   5.756   7.693   8.609  0.0213 -0.1591  0.1258
 3794W        W 7538   5.844   6.956   0.140 -0.1386 -0.1153  0.0072
 3795W        W 7539   5.253   9.539   4.190 -0.0737 -0.0994 -0.1828
 3796W        W 7540   8.652   7.417   0.566 -0.0234  0.0455 -0.1536
 3797W        W 7541   8.537   4.541   8.471  0.0318 -0.1030  0.0589
 3798W        W 7542   6.592   3.064   0.355 -0.2929 -0.0555 -0.3545
 3799W        W 7543   3.083   2.755   1.344 -0.2258 -0.1698  0.0047
 3800W        W 7544   1.242   3.363  11.520  0.0817 -0.2733  0.0525
 3801W        W 7545   5.414   2.901   9.839 -0.2025  0.1421  0.1413
 3802W        W 7546   1.993   6.334   1.798 -0.0831  0.1491 -0.0489
 3803W        W 7547   8.107   8.263   1.302 -0.1313  0.3479  0.3022
 3804W        W 7548   8.425   3.685  12.358 -0.4020 -0.1799 -0.0151
 3805W        W 7549   0.475   8.931   0.525  0.0267 -0.0496  0.2311
 3806W        W 7550   2.809   7.518   0.713 -0.2028  0.0343  0.0947
 3807W        W 7551   8.815   5.183   1.189 -0.1520 -0.3171  0.3936
 3808W        W 7552   9.466   7.530   4.321 -0.0766  0.0321  0.0004
 3809W        W 7553   2.759   0.598  11.676 -0.1827 -0.0889 -0.0710
 3810W        W 7554   4.162   6.895  10.131 -0.0492  0.1610 -0.0373
 3811W        W 7555   6.558   5.128  11.735 -0.0398 -0.0378 -0.1252
 3812W        W 7556   9.866   1.342   1.420  0.1426 -0.0358 -0.3531
 3813W        W 7557   6.006   1.053   1.286 -0.0608 -0.1023 -0.1873
 3814W        W 7558   2.156   9.682   3.626 -0.1423 -0.0381 -0.3289
 3815W        W 7559   0.566   4.346  12.591  0.1346  0.2986 -0.2500
 3816W        W 7560   2.733   4.823  10.260 -0.1691 -0.1055  0.3032
 3817W        W 7561   6.708   7.695   8.790  0.1163 -0.2242 -0.0598
 3818W        W 7562   3.808   4.775  10.508 -0.1674  0.1985 -0.1961
 3819W        W 7563   7.766   7.994   9.472  0.0275  0.1315  0.3025
 3820W        W 7564   6.141   0.354   9.994  0.1573 -0.0687 -0.2300
 3821W        W 7565   7.774   5.142  10.976 -0.2625  0.1751 -0.0930
 3822W        W 7566   9.400   6.061   2.772  0.1888  0.0363  0.1869
 3823W        W 7567   0.721   9.310   2.420  0.0874  0.1981  0.4166
 3824W        W 7568   4.879   6.961  12.648 -0.0993  0.4320  0.2598
 3825W        W 7569   4.266   7.177  12.644  0.0254  0.0953  0.1446
 3826W        W 7570   7.891   0.805  12.242  0.2658 -0.1314  0.0388
 3827W        W 7571   4.083   1.695  11.938 -0.1705 -0.2026  0.1585
 3828W        W 7572   0.205   8.534   0.708 -0.0619  0.3002 -0.0485
 3829W        W 7573   3.369   3.292   1.870  0.3516 -0.3045  0.2509
 3830W        W 7574   4.698   6.932   2.967 -0.3121  0.4850  0.0749
 3831W        W 7575   7.922   3.740   9.528  0.0765  0.0875  0.3428
 3832W        W 7576   7.495   1.743   3.722  0.2580  0.1963 -0.0689
 3833W        W 7577   9.283   9.519   8.585  0.1345 -0.1468  0.1507
 3834W        W 7578   9.419   3.454   0.290 -0.2302 -0.2251  0.3606
 3835W        W 7579   6.597   0.565   9.893 -0.0220 -0.1161  0.1239
 3836W        W 7580   9.152   9.290  11.636 -0.1983 -0.1751  0.0552
 3837W        W 7581   1.174   8.179  12.885 -0.0666  0.1474  0.1388
 3838W        W 7582   8.260   7.694   0.745  0.2537 -0.2635 -0.2847
 3839W        W 7583   8.479   2.104   2.583 -0.1334  0.3224  0.1260
 3840W        W 7584   0.400   3.786   2.886  0.1049  0.3573  0.0330
 3841W        W 7585   5.096   7.988   3.445  0.1483  0.2088 -0.1703
 3842W        W 7586   0.646   3.431   3.115 -0.2450 -0.1256 -0.2148
 3843W        W 7587   1.088   1.613   3.777 -0.0645  0.0214  0.0200
 3844W        W 7588   7.906   0.073   3.633  0.3612  0.3191  0.0689
 3845W        W 7589   5.862   0.932  11.092 -0.4748  0.0787 -0.2319
 3846W        W 7590   2.855   3.629  11.870  0.0922  0.0232  0.1592
 3847W        W 7591   3.498   0.970   3.318  0.0350  0.0527  0.0803
 3848W        W 7592   1.987   6.946   9.241  0.1562 -0.2263  0.3513
 3849W        W 7593   8.533   5.315   9.032 -0.0988  0.1513 -0.0350
 3850W        W 7594   2.337   1.338   9.784 -0.0815  0.0035  0.0591
 3851W        W 7595   4.172   4.650  11.367 -0.2104 -0.1827  0.3518
 3852W        W 7596   5.993   4.220   1.331  0.1011 -0.2010  0.1322
 3853W        W 7597   8.743   7.740  12.074 -0.1093 -0.1861 -0.2791
 3854W        W 7598   0.523   6.792  11.629  0.3683  0.0804  0.0978
 3855W        W 7599   2.965   0.916   9.387 -0.0363 -0.3312 -0.0937
 3856W        W 7600   6.431   9.642  12.233 -0.1020  0.1922 -0.2851
 3857W        W 7601   3.835   5.673  10.597 -0.0498  0.0756 -0.0854
 3858W        W 7602   8.337   4.498   9.037 -0.1819 -0.0499  0.2344
 3859W        W 7603   5.657   7.199  11.085  0.1027 -0.0531 -0.0151
 3860W        W 7604   2.019   1.433  11.657  0.1641  0.2201 -0.1741
 3861W        W 7605   5.987   2.313   9.392 -0.1135 -0.0264  0.1556
 3862W        W 7606   5.410   7.152   4.301 -0.2770 -0.2650  0.2920
 3863W        W 7607   6.667   3.867   1.752 -0.3341  0.0395 -0.2657
 3864W        W 7608   1.616   3.990   2.091 -0.1331 -0.1590  0.2828
 3865W        W 7609   5.125   3.803   2.654 -0.3483 -0.1759 -0.3217
 3866W        W 7610   8.969   4.829   0.036 -0.1123 -0.3670 -0.0605
 3867W        W 7611   6.969   2.428   9.394 -0.1936  0.1301 -0.0847
 3868W        W 7612   6.483   8.893  11.213  0.0970 -0.0370 -0.0853
 3869W        W 7613   7.729   7.899   8.041 -0.0035 -0.1401  0.0963
 3870W        W 7614   7.968   5.842   9.452  0.5311 -0.0922 -0.1672
 3871W        W 7615   5.234   3.337  12.076 -0.1119  0.0233 -0.1443
 3872W        W 7616   6.296   5.124   8.701 -0.2615 -0.0396 -0.0703
 3873W        W 7617   5.302   1.160  11.078  0.0081 -0.0935  0.4019
 3874W        W 7618   6.692   5.388   8.686  0.3567 -0.0459 -0.0263
 3875W        W 7619   4.207   6.504  12.087  0.0655 -0.1968  0.1395
 3876W        W 7620   4.096   7.904   0.426 -0.0483 -0.0193  0.2156
 3877W        W 7621   6.482   8.327   0.061  0.1972 -0.3146  0.2481
 3878W        W 7622   0.428   6.282  11.756  0.2724  0.3335  0.0221
 3879W        W 7623   9.123   0.191   1.459 -0.0008 -0.0551  0.1659
 3880W        W 7624   2.438   0.008   0.241 -0.4754 -0.0074  0.0573
 3881W        W 7625   8.950   6.735   0.046  0.2569  0.0619  0.0326
 3882W        W 7626   6.277   4.018   4.442 -0.1276 -0.1724  0.0806
 3883W        W 7627   3.475   0.715   1.491 -0.3109  0.1068  0.0202
 3884W        W 7628   8.228   5.080  12.397  0.2930 -0.0051  0.1563
 3885W        W 7629   7.792   2.275   9.746  0.2098 -0.1716 -0.0162
 3886W        W 7630   5.628   3.707   4.154 -0.0257 -0.2317  0.1556
 3887W        W 7631   8.420   8.175   2.220 -0.3397  0.2497  0.0568
 3888W        W 7632   0.587   5.286   2.949  0.1775 -0.4123  0.0519
 3889W        W 7633   5.129   2.440   2.071  0.5050 -0.0572 -0.0496
 3890W        W 7634   4.612   7.982   8.715 -0.0988  0.0664  0.1300
 3891W        W 7635   2.914   8.302   9.503  0.2357 -0.1490 -0.0136
 3892W        W 7636   4.165   8.927  11.334  0.2244  0.1409  0.1181
 3893W        W 7637   5.392   3.038   3.482 -0.3699  0.1402  0.4502
 3894W        W 7638   1.142   2.369   9.259 -0.2078  0.3275 -0.1661
 3895W        W 7639   4.453   0.723   3.163  0.0549  0.1610  0.2281
 3896W        W 7640   6.430   1.685   2.552  0.2804 -0.0088 -0.0457
 3897W        W 7641   4.158   9.033   1.601 -0.2137 -0.3200 -0.0727
 3898W        W 7642   2.793   8.447   2.699  0.2675 -0.1349 -0.1350
 3899W        W 7643   1.315   9.190  10.056 -0.2273 -0.0026 -0.1474
 3900W        W 7644   0.293   1.218  10.401  0.1590 -0.3418  0.3434
 3901W        W 7645   9.297   3.516   1.019 -0.0764  0.0612  0.0371
 3902W        W 7646   5.122   2.244   8.593  0.1741  0.1957  0.1756
 3903W        W 7647   9.056   9.097   1.040  0.1010  0.0878  0.3444
 3904W        W 7648   8.833   6.399  11.765 -0.1540  0.5204  0.1043
 3905W        W 7649   0.340   9.051   1.896  0.2872 -0.1006 -0.2624
 3906W        W 7650   8.086   2.489   3.593 -0.0500 -0.0699 -0.0811
 3907W        W 7651   1.038   8.580   0.247  0.1913  0.2774  0.0943
 3908W        W 7652   7.033   4.788  11.637 -0.0647 -0.2873  0.1507
 3909W        W 7653   8.239   8.045   2.702 -0.1313  0.0893 -0.0801
 3910W        W 7654   8.998   2.053  11.447  0.2346  0.1880 -0.4750
 3911W        W 7655   8.554   5.223  11.471 -0.2834 -0.0834 -0.4375
 3912W        W 7656   2.140   1.213  10.282 -0.3484  0.0140 -0.1605
 3913W        W 7657   1.847   0.201   3.742 -0.0295 -0.2037  0.3752
 3914W        W 7658   0.838   6.451   0.470  0.2132 -0.1433  0.0655
 3915W        W 7659   8.506   8.283  12.439  0.2906  0.0105  0.0455
 3916W        W 7660   8.545   9.260  11.275  0.0207 -0.0090  0.4435
 3917W        W 7661   0.165   7.074  12.022  0.2985  0.0439  0.4908
 3918W        W 7662   9.152   3.875   3.532  0.0863 -0.0169  0.0793
 3919W        W 7663   4.105   2.248   3.869  0.1176 -0.3214  0.3143
 3920W        W 7664   5.346   3.757   1.886  0.0529 -0.0996 -0.0267
 3921W        W 7665   6.111   6.205  12.115 -0.0478  0.1047  0.0390
 3922W        W 7666   1.356   4.728  12.161  0.1588  0.1672  0.1063
 3923W        W 7667   2.921   9.760   1.641  0.3043 -0.2335  0.0503
 3924W        W 7668   3.305   8.091   9.766 -0.0166  0.1271 -0.2016
 3925W        W 7669   9.342   6.796   9.810  0.0232 -0.0211  0.1416
 3926W        W 7670   7.796   7.159   4.832 -0.0542  0.1569  0.0605
 3927W        W 7671   9.263   4.409   9.779 -0.0715 -0.1242  0.1613
 3928W        W 7672   0.480   0.246   0.398  0.2250 -0.2302  0.3141
 3929W        W 7673   5.242   9.388  12.069  0.0311 -0.1569  0.0632
 3930W        W 7674   9.828   5.877   2.576 -0.1759  0.0548 -0.2325
 3931W        W 7675   5.692   4.560  10.961  0.3475 -0.0260 -0.0356
 3932W        W 7676   4.682   1.676   3.731 -0.0090  0.1024 -0.2993
 3933W        W 7677   8.441   1.563  10.262  0.1808  0.0186 -0.0602
 3934W        W 7678   7.779   5.538  10.299  0.0213  0.1299  0.1215
 3935W        W 7679   3.309   0.538  10.299 -0.1370 -0.1346 -0.2492
 3936W        W 7680   0.251   1.522   9.066 -0.0536  0.0650  0.2615
 3937W        W 7681   1.500   0.695   2.112  0.0336  0.2601  0.1180
 3938W        W 7682   9.476   2.648   8.853 -0.1288 -0.1438  0.4472
 3939W        W 7683   5.224   8.049   1.622  0.1794  0.1150 -0.0607
 3940W        W 7684   1.364   4.064  10.884 -0.1374  0.1523  0.4150
 3941W        W 7685   0.012   7.515   0.600  0.0471  0.0823  0.0875
 3942W        W 7686   7.451   3.262   3.347 -0.1389  0.1199 -0.0882
 3943W        W 7687   8.404   6.332   0.459 -0.0515 -0.2760 -0.1786
 3944W        W 7688   9.358   0.653   3.921  0.5224  0.0376  0.0776
 3945W        W 7689   1.494   8.939   9.179  0.0342 -0.0322  0.3325
 3946W        W 7690   1.262   6.296   3.112 -0.1066  0.1351  0.0382
 3947W        W 7691   6.211   8.236   4.222  0.0869 -0.0204 -0.0753
 3948W        W 7692   4.710   1.164  11.812 -0.1024  0.2309 -0.0166
 3949W        W 7693   7.097   9.255   9.916 -0.0270 -0.0333  0.0009
 3950W        W 7694   5.763   3.281  10.671  0.1407 -0.3191 -0.0021
 3951W        W 7695   9.246   8.586   2.146  0.0311 -0.0730 -0.1121
 3952W        W 7696   5.794   6.022   1.819 -0.3596 -0.0312  0.1821
 3953W        W 7697   7.116   5.012   1.440  0.3005  0.0068  0.0606
 3954W        W 7698   1.378   6.055   9.777 -0.2522 -0.0094 -0.0331
 3955W        W 7699   5.342   1.844  12.729 -0.0920 -0.0155 -0.0698
 3956W        W 7700   0.404   4.347   1.537 -0.0550 -0.0511 -0.0038
 3957W        W 7701   1.966   2.633   0.177 -0.2853 -0.2369  0.0181
 3958W        W 7702   8.963   8.133  12.243 -0.1583  0.0367 -0.0607
 3959W        W 7703   3.507   8.862   3.191  0.1872  0.0362  0.0741
 3960W        W 7704   9.494   2.924  12.062  0.1816  0.1355  0.0473
 3961W        W 7705   1.371   8.718  12.703  0.1947  0.1940 -0.4181
 3962W        W 7706   6.059   1.703   1.501 -0.2366 -0.1305 -0.0695
 3963W        W 7707   0.601   3.302   1.647  0.1577  0.0594 -0.4741
 3964W        W 7708   5.769   2.264   3.822 -0.0884  0.1408 -0.0903
 3965W        W 7709   6.337   5.737   0.655  0.1507 -0.4634  0.1193
 3966W        W 7710   1.380   6.067  11.485 -0.0516 -0.1782 -0.2459
 3967W        W 7711   7.441   8.423  10.182  0.1033 -0.3977  0.0451
 3968W        W 7712   6.423   9.079   0.605 -0.0602 -0.0974 -0.0912
 3969W        W 7713   9.282   0.590   1.191 -0.1036  0.1394 -0.3897
 3970W        W 7714   1.845   7.186   9.656 -0.1003  0.0292 -0.4593
 3971W        W 7715   1.682   2.911  11.796 -0.1873 -0.0801  0.0017
 3972W        W 7716   5.468   8.650   3.967  0.1045 -0.0259 -0.2764
 3973W        W 7717   4.578   9.167  12.282 -0.0967  0.0485 -0.1541
 3974W        W 7718   7.574   8.176  11.564 -0.0364  0.0056 -0.2725
 3975W        W 7719   6.352   7.638   9.302 -0.2745 -0.0412  0.0225
 3976W        W 7720   9.049   4.347  11.780 -0.5434 -0.1894 -0.2342
 3977W        W 7721   6.232   0.458  12.244 -0.2450  0.3143  0.0111
 3978W        W 7722   8.943   4.244   4.697 -0.1077  0.2994  0.1450
 3979W        W 7723   1.122   6.071  10.242  0.0257  0.0862  0.0006
 3980W        W 7724   6.498   3.367   3.251  0.4531  0.0939 -0.0341
 3981W        W 7725   6.779   7.465  10.077  0.3011  0.2182  0.3107
 3982W        W 7726   0.120   7.006   0.475 -0.1004  0.1903 -0.1309
 3983W        W 7727   8.295   1.376   4.307 -0.1900 -0.0308  0.2469
 3984W        W 7728   7.405   8.518  12.872  0.4303  0.1331  0.2047
 3985W        W 7729   3.907   3.038  12.431 -0.0561 -0.0041 -0.0044
 3986W        W 7730   7.833   7.338   1.086  0.1043  0.1326 -0.0331
 3987W        W 7731   0.873   0.843  12.055 -0.2699  0.1985  0.3328
 3988W        W 7732   2.817   0.030   4.374 -0.0989 -0.6226 -0.1091
 3989W        W 7733   7.640   7.606  11.807 -0.0412  0.1699 -0.0747
 3990W        W 7734   4.781   4.922   9.969 -0.1337 -0.3742  0.0685
 3991W        W 7735   1.635   1.834   0.253 -0.2795  0.0339  0.2789
 3992W        W 7736   7.501   6.166  12.228  0.2017 -0.4872  0.0691
 3993W        W 7737   3.745   0.047   8.174 -0.3644  0.2430  0.2179
 3994W        W 7738   0.374   2.487   0.777 -0.0873  0.3228 -0.1199
 3995W        W 7739   2.457   3.209  12.584 -0.0827  0.0333 -0.1175
 3996W        W 7740   3.482   0.006   1.651  0.1628 -0.0183 -0.1187
 3997W        W 7741   2.285   3.419  10.779  0.0906 -0.0051 -0.0520
 3998W        W 7742   7.974   5.927  11.837  0.1440 -0.1726  0.0292
 3999W        W 7743   1.139   8.425  11.237 -0.2627  0.1559  0.1631
 4000W        W 7744   6.344   5.352   9.123  0.3235  0.2114 -0.0233
 4001W        W 7745   6.791   2.817   1.897 -0.1276  0.0412 -0.0720
 4002W        W 7746   7.725   0.637   0.128 -0.1970 -0.0467  0.1422
 4003W        W 7747   9.309   1.865  11.121 -0.1689 -0.0322 -0.1341
 4004W        W 7748   1.266   0.935  10.725 -0.2783 -0.2420  0.0776
 4005W        W 7749   9.047   6.642   9.462 -0.0480  0.3449 -0.1086
 4006W        W 7750   4.920   8.131  11.708  0.3649  0.0698  0.1721
 4007W        W 7751   6.142   6.255  11.014 -0.4101  0.0143  0.1153
 4008W        W 7752   6.659   5.368  12.599 -0.2548  0.0823 -0.2828
 4009W        W 7753   7.446   3.813  10.566  0.1378 -0.3300  0.0152
 4010W        W 7754   9.385   7.615   0.738  0.1185  0.1335 -0.1057
 4011W        W 7755   9.252   2.997  10.912  0.2087  0.1396 -0.0732
 4012W        W 7756   0.544   8.379   1.674  0.1437 -0.0692 -0.1026
 4013W        W 7757   3.568   6.085  12.220  0.0989  0.1595  0.1176
 4014W        W 7758   6.973   4.633   9.348  0.1854  0.0693  0.1936
 4015W        W 7759   0.601   6.328   2.353  0.1511 -0.0033 -0.1150
 4016W        W 7760   3.694   0.034   4.048 -0.0750  0.0011 -0.1101
 4017W        W 7761   1.943   2.967   2.494  0.0007  0.3828 -0.0948
 4018W        W 7762   8.378   0.253   0.525  0.1453 -0.2111  0.0025
 4019W        W 7763   8.585   0.941   1.095  0.0754 -0.0870 -0.4663
 4020W        W 7764   8.975   3.557   0.065 -0.0321  0.0100 -0.1573
 4021W        W 7765   5.734   5.211   2.341 -0.1026 -0.2623 -0.1742
 4022W        W 7766   1.216   8.315   2.456 -0.1880 -0.1892  0.1433
 4023W        W 7767   8.468   3.596  10.799  0.0477 -0.0803 -0.1840
 4024W        W 7768   8.692   1.639   5.044 -0.4907  0.2343  0.1135
 4025W        W 7769   2.269   8.575  12.697 -0.3167 -0.3242 -0.4203
 4026W        W 7770   0.027   6.122  12.256 -0.2521 -0.0640 -0.2700
 4027W        W 7771   4.376   9.559  10.641 -0.2646  0.0086 -0.3957
 4028W        W 7772   3.820   2.002   1.230 -0.0022 -0.1302 -0.0326
 4029W        W 7773   4.836   1.458  11.197 -0.0915 -0.2117  0.0041
 4030W        W 7774   4.039   6.892   1.357 -0.1791  0.1358 -0.0452
 4031W        W 7775   5.094   3.248   1.848 -0.0565  0.0800  0.1258
 4032W        W 7776   5.908   8.418   3.080  0.0964 -0.0948  0.4420
 4033W        W 7777   6.172   7.296   1.664  0.2667 -0.0806 -0.0989
 4034W        W 7778   9.267   0.187   4.147  0.1071 -0.4510  0.1687
 4035W        W 7779   3.408   6.528  11.692  0.0756  0.1291 -0.1521
 4036W        W 7780   1.009   0.444   0.476  0.1042  0.0456  0.0952
 4037W        W 7781   5.066   4.737   2.189  0.0243  0.2449  0.0898
 4038W        W 7782   8.723   4.874  11.043  0.0653 -0.1838  0.2314
 4039W        W 7783   3.398   4.637  10.706  0.1777  0.2479  0.0913
 4040W        W 7784   2.190   3.969  12.388 -0.0421 -0.0757  0.0422
 4041W        W 7785   0.045   8.325   4.286  0.2286 -0.2855  0.0716
 4042W        W 7786   5.500   2.484  11.042 -0.3134  0.0293 -0.1115
 4043W        W 7787   4.675   7.076  10.339  0.0226 -0.2558  0.0159
 4044W        W 7788   7.651   0.143   0.093 -0.0395  0.0481  0.0881
 4045W        W 7789   4.950   1.935   8.930 -0.0413  0.3257  0.0440
 4046W        W 7790   4.872   6.442   2.147  0.1512  0.4611  0.0147
 4047W        W 7791   4.945   9.793   7.944  0.0958 -0.0983  0.1662
 4048W        W 7792   4.540   9.762  11.612  0.0634 -0.1344  0.0807
 4049W        W 7793   1.998   6.788   2.533  0.3264 -0.0002  0.1405
 4050W        W 7794   9.490   4.431   9.082  0.0763 -0.3310  0.1072
 4051W        W 7795   1.837   1.257   1.021  0.0954  0.3453  0.1877
 4052W        W 7796   2.190   7.338   1.867 -0.1972  0.0792 -0.0727
 4053W        W 7797   8.841   5.642   4.064 -0.0965 -0.0711  0.0694
 4054W        W 7798   2.087   4.862   0.242  0.1415  0.0817 -0.2250
 4055W        W 7799   8.057   8.484  11.063  0.1809  0.1963  0.1051
 4056W        W 7800   9.887   1.411  10.968  0.0521 -0.0289 -0.0654
 4057W        W 7801   1.346   1.774   0.945  0.1986  0.0902  0.1477
 4058W        W 7802   6.389   1.084   3.368 -0.2001  0.0539  0.0149
 4059W        W 7803   9.758   9.249  10.555  0.0835  0.1827  0.0013
 4060W        W 7804   1.980   4.415  12.516 -0.0528 -0.1139 -0.0008
 4061W        W 7805   3.913   7.721  11.382  0.0531 -0.2195  0.2909
 4062W        W 7806   8.940   3.005  11.278  0.3975 -0.0285 -0.1371
 4063W        W 7807   2.941   1.838   1.485 -0.3410  0.1993  0.0575
 4064W        W 7808   0.266   0.513   9.122 -0.1640 -0.0511  0.3101
 4065W        W 7809   5.795   7.827  10.833  0.0423 -0.0021  0.1367
 4066W        W 7810   6.610   6.475   2.988  0.5765  0.1155  0.0730
 4067W        W 7811   5.119   8.545   1.327 -0.1105 -0.1634 -0.0598
 4068W        W 7812   2.092   7.441   3.738 -0.0649 -0.0419 -0.0743
 4069W        W 7813   0.552   5.457   0.478  0.0504 -0.0634 -0.1983
 4070W        W 7814   5.782   1.418   3.930 -0.1335  0.0648  0.0295
 4071W        W 7815   8.462   2.114   3.819 -0.1143 -0.1077  0.2354
 4072W        W 7816   9.262   2.129   0.468  0.2363 -0.1543  0.2039
 4073W        W 7817   8.447   6.999  10.026 -0.3786 -0.0996 -0.2077
 4074W        W 7818   2.478   8.137  10.871  0.3878  0.3150 -0.0274
 4075W        W 7819   5.490   9.319   4.836  0.0292  0.0252 -0.0255
 4076W        W 7820   5.774   9.182   9.315  0.0737  0.0583  0.3228
 4077W        W 7821   4.800   8.803  12.868  0.1045  0.0981  0.1107
 4078W        W 7822   0.249   7.144   3.935 -0.1855  0.2487 -0.0993
 4079W        W 7823   8.201   7.765  11.133 -0.1518  0.1718 -0.3200
 4080W        W 7824   7.348   2.448   9.740 -0.3640  0.2861  0.0575
 4081W        W 7825   5.313   5.566   0.556 -0.1778  0.2211  0.0242
 4082W        W 7826   6.993   3.788  12.608 -0.0724  0.0987 -0.1702
 4083W        W 7827   1.610   3.086  12.670  0.0631 -0.0664 -0.1348
 4084W        W 7828   6.030   6.119   0.844 -0.0497 -0.1970  0.1108
 4085W        W 7829   0.462   1.406   9.514  0.1934 -0.0664 -0.2030
 4086W        W 7830   3.646   8.157   8.907 -0.1611 -0.0768 -0.0451
 4087W        W 7831   6.142   9.246   3.440 -0.1167 -0.0292  0.1974
 4088W        W 7832   0.847   9.897   0.114  0.0652 -0.0222 -0.0875
 4089W        W 7833   5.329   5.206   3.151  0.0913  0.0213  0.0198
 4090W        W 7834   5.483   8.103   8.900 -0.2849  0.0265  0.1010
 4091W        W 7835   9.058   1.157  12.790  0.5271  0.0919  0.1809
 4092W        W 7836   0.208   3.328   2.891 -0.0956  0.0935  0.1239
 4093W        W 7837   2.574   5.480  10.006  0.2248  0.2318  0.2114
 4094W        W 7838   5.805   5.440  11.133  0.4306 -0.0212 -0.0233
 4095W        W 7839   1.279   4.410   1.870  0.1863  0.0481  0.0416
 4096W        W 7840   1.434   7.237  10.524  0.1059  0.1707  0.0978
 4097W        W 7841   8.662   6.959   4.168  0.0051  0.0914  0.1261
 4098W        W 7842   6.092   1.231   1.787 -0.0865  0.1721  0.1779
 4099W        W 7843   0.408   5.701   1.031 -0.0948 -0.5294  0.0290
 4100W        W 7844   7.764   2.945   1.656 -0.0606 -0.1048  0.2690
 4101W        W 7845   6.536   2.571  12.220 -0.2026 -0.1751  0.3091
 4102W        W 7846   4.839   1.861   1.929 -0.0772  0.0156  0.0084
 4103W        W 7847   3.443   9.720   9.421 -0.0736 -0.2122  0.3388
 4104W        W 7848   7.432   1.365   3.267 -0.2862  0.0398  0.1312
 4105W        W 7849   8.231   5.490  10.055 -0.2553 -0.0541  0.2895
 4106W        W 7850   2.129   5.130   0.989 -0.2143 -0.1540 -0.1529
 4107W        W 7851   5.681   2.195   1.391 -0.1405 -0.2666  0.0705
 4108W        W 7852   2.675   9.172   3.917  0.0804  0.1251 -0.1020
 4109W        W 7853   0.305   7.640  10.535  0.0760 -0.1274  0.2428
 4110W        W 7854   2.490   8.469   3.944  0.3224  0.2974 -0.0260
 4111W        W 7855   4.750   0.291  11.441 -0.0384 -0.1437  0.0956
 4112W        W 7856   2.077   4.513  11.370  0.0794 -0.0157  0.0414
 4113W        W 7857   1.582   9.437   2.967  0.1633 -0.0277  0.0432
 4114W        W 7858   2.829   0.020  11.021  0.1474  0.3877  0.0805
 4115W        W 7859   1.407   4.414  11.272 -0.0498  0.0496 -0.0058
 4116W        W 7860   0.919   0.007   9.611 -0.1512 -0.1852  0.0814
 4117W        W 7861   0.645   1.060   3.281 -0.0950  0.0222  0.3376
 4118W        W 7862   4.944   2.275   3.260  0.0320  0.2020  0.1457
 4119W        W 7863   8.660   1.236   1.715 -0.0252  0.0207 -0.2706
 4120W        W 7864   3.529   5.554   0.715  0.3435  0.0587  0.0448
 4121W        W 7865   8.407   8.985   1.761 -0.0500 -0.1725 -0.2558
 4122W        W 7866   4.048   2.061   9.211  0.1762 -0.1646 -0.1847
 4123W        W 7867   0.737   1.708   0.811 -0.0766  0.3546  0.1561
 4124W        W 7868   8.356   9.337  10.765 -0.1033  0.3724  0.0891
 4125W        W 7869   2.977   4.858   2.487 -0.1053 -0.1260 -0.0714
 4126W        W 7870   7.029   4.936   3.659 -0.2468 -0.0730  0.1458
 4127W        W 7871   9.632   9.148   2.675  0.2748  0.3378  0.0173
 4128W        W 7872   0.391   9.778   0.042  0.3208 -0.0210  0.1140
 4129W        W 7873   3.540   4.266  11.845  0.4152  0.3153  0.2015
 4130W        W 7874   3.470   9.001  12.026 -0.3653  0.0091 -0.0865
 4131W        W 7875   7.389   4.724   3.967  0.3358  0.1797 -0.2195
 4132W        W 7876   0.459   9.601   2.098 -0.1770  0.4512  0.0570
 4133W        W 7877   9.328   6.459  11.498 -0.0813  0.0446 -0.0240
 4134W        W 7878   2.221   7.584  11.559  0.0486  0.4789  0.3016
 4135W        W 7879   5.876   7.122   0.599  0.2016  0.2678  0.0981
 4136W        W 7880   7.958   6.699   0.532  0.0675  0.2285  0.0715
 4137W        W 7881   9.111   4.703   9.409  0.1281  0.0849 -0.0460
 4138W        W 7882   4.472   7.480   8.460  0.3226 -0.0731 -0.0449
 4139W        W 7883   9.915   0.336  12.469  0.1162 -0.2351  0.2455
 4140W        W 7884   2.372   6.589   9.224 -0.0462 -0.2615  0.1045
 4141W        W 7885   2.908   8.049   8.116 -0.0153 -0.2817  0.0577
 4142W        W 7886   5.359   0.995   0.932 -0.3561  0.2269  0.1679
 4143W        W 7887   5.767   1.195  11.675  0.1370 -0.1123 -0.0753
 4144W        W 7888   0.531   1.732   3.604  0.0778 -0.0884 -0.0571
 4145W        W 7889   0.359   6.302   1.942 -0.1431  0.1658 -0.1958
 4146W        W 7890   7.121   6.483   9.394  0.0102 -0.0073 -0.0254
 4147W        W 7891   5.308   6.101   1.904  0.4214  0.0767  0.0523
 4148W        W 7892   2.958   0.469   4.100  0.0922 -0.1163 -0.0833
 4149W        W 7893   5.876   7.157   2.533 -0.0113 -0.2610 -0.3337
 4150W        W 7894   6.347   6.515  11.629 -0.2932 -0.2646  0.0798
 4151W        W 7895   2.675   0.501   0.252  0.3232 -0.0573 -0.0307
 4152W        W 7896   2.571   6.260  10.576 -0.1434 -0.2891  0.1942
 4153W        W 7897   3.471   4.236   9.922  0.1898  0.2409 -0.0344
 4154W        W 7898   5.242   0.730   0.170  0.1129  0.1604  0.3905
 4155W        W 7899   8.750   3.552   3.305 -0.0910 -0.0384 -0.1694
 4156W        W 7900   2.392   8.865   9.208  0.0242 -0.0583  0.1542
 4157W        W 7901   0.229   3.523   3.365 -0.2694  0.0501  0.2003
 4158W        W 7902   6.199   3.206   9.835 -0.0844 -0.4211  0.0605
 4159W        W 7903   2.654   8.580  12.202  0.0815 -0.3803  0.0213
 4160W        W 7904   7.920   1.085  11.825  0.0908 -0.0084  0.3586
 4161W        W 7905   7.633   0.594   8.944 -0.1665  0.3413 -0.2148
 4162W        W 7906   3.849   4.447   1.011  0.3815 -0.1822 -0.0950
 4163W        W 7907   9.588   8.533  12.848  0.1536 -0.1127  0.2850
 4164W        W 7908   7.207   8.505   1.629 -0.2222 -0.0258 -0.1152
 4165W        W 7909   7.537   5.104  11.540  0.2030  0.1368 -0.3133
 4166W        W 7910   0.117   3.113  10.264  0.1080 -0.1959  0.1883
 4167W        W 7911   7.999   7.862   4.719  0.2199  0.2635 -0.0190
 4168W        W 7912   3.362   6.306   2.124  0.0663 -0.1448 -0.3258
 4169W        W 7913   9.372   7.781   1.924  0.1019  0.1043 -0.0239
 4170W        W 7914   6.243   8.594  11.505  0.0597 -0.1665 -0.2120
 4171W        W 7915   6.077   8.407   1.252 -0.0053 -0.2317  0.1751
 4172W        W 7916   4.632   1.472  12.207 -0.1175  0.0669 -0.1548
 4173W        W 7917   5.465   5.250   9.405 -0.1163 -0.0004  0.0136
 4174W        W 7918   9.250   7.775   1.223  0.0546 -0.1786 -0.0901
 4175W        W 7919   7.051   1.811  11.477  0.2810 -0.0673 -0.1123
 4176W        W 7920   9.188   2.561   9.829  0.0063 -0.0998 -0.0528
 4177W        W 7921   7.750   8.919   0.730  0.2112 -0.0762  0.0490
 4178W        W 7922   0.823   9.836   0.670  0.0026 -0.4452  0.2351
 4179W        W 7923   0.744   9.264   8.621 -0.0630 -0.1561 -0.2834
 4180W        W 7924   1.902   3.834   0.602 -0.0289 -0.3885  0.0836
 4181W        W 7925   6.574   0.448   1.231  0.1654 -0.0911 -0.0243
 4182W        W 7926   6.521   1.894  11.312  0.2052  0.0202 -0.0290
 4183W        W 7927   2.128   9.393   3.168  0.0699  0.3560  0.1301
 4184W        W 7928   2.721   3.190  11.600 -0.1951 -0.0101  0.1704
 4185W        W 7929   8.719   2.929   1.909 -0.1456 -0.1039  0.0939
 4186W        W 7930   3.484   8.080   2.553  0.0022  0.0862 -0.2904
 4187W        W 7931   0.595   1.524   2.856 -0.1313  0.1637  0.1971
 4188W        W 7932   7.091   5.942  12.000  0.0854  0.1420 -0.1552
 4189W        W 7933   1.525   1.262  10.473 -0.0950 -0.0255 -0.0756
 4190W        W 7934   8.348   0.490   9.567  0.0663 -0.1623  0.0336
 4191W        W 7935   3.138   2.045   3.439 -0.0120  0.0668 -0.1611
 4192W        W 7936   8.574   3.351  11.951 -0.2349 -0.1560 -0.2140
 4193W        W 7937   3.007   4.275  12.057  0.0574  0.2167  0.0883
 4194W        W 7938   6.848   5.064   9.478  0.0035 -0.1831 -0.0382
 4195W        W 7939   5.196   0.049  11.121 -0.0201  0.0609  0.3869
 4196W        W 7940   5.455   6.997   8.475 -0.1615  0.1604  0.0052
 4197W        W 7941   7.858   8.111  10.045  0.2158 -0.0973 -0.1773
 4198W        W 7942   4.355   9.742   2.064  0.1393 -0.0487  0.0861
 4199W        W 7943   0.747   8.608  12.043  0.2064  0.1065  0.1962
 4200W        W 7944   7.196   8.071   9.395  0.3669  0.0160 -0.1902
 4201W        W 7945   1.865   6.985  10.367 -0.0226  0.2067 -0.2203
 4202W        W 7946   5.635   4.976  10.193 -0.1089 -0.3776 -0.2548
 4203W        W 7947   1.095   6.143   2.187 -0.0043 -0.2267 -0.3047
 4204W        W 7948   8.526   3.771   9.608  0.0440 -0.1098 -0.3073
 4205W        W 7949   8.689   1.826   1.018  0.4548 -0.0616  0.0347
 4206W        W 7950   3.111   3.630  11.401 -0.0186  0.1200 -0.1037
 4207W        W 7951   9.717   7.787   1.085 -0.3179  0.3477 -0.2583
 4208W        W 7952   7.817   1.950  10.849  0.1812  0.0846 -0.2643
 4209W        W 7953   2.693   9.017  11.490 -0.0088 -0.0566  0.0787
 4210W        W 7954   5.760   0.785   9.305 -0.0733 -0.0022 -0.0953
 4211W        W 7955   2.651   8.110  11.378  0.0398  0.2679  0.0537
 4212W        W 7956   4.391   0.376   4.869  0.0975 -0.0743 -0.1437
 4213W        W 7957   7.881   0.271  12.087  0.1248 -0.0060 -0.0618
 4214W        W 7958   5.272   7.726   3.103 -0.0603  0.0350 -0.3166
 4215W        W 7959   6.099   2.486   0.824 -0.0549 -0.1175 -0.0880
 4216W        W 7960   0.849   6.916   0.611 -0.2126 -0.1216 -0.0912
 4217W        W 7961   6.522   9.610   3.945  0.0933 -0.1841  0.3154
 4218W        W 7962   2.491   5.782  12.462 -0.0307  0.1060  0.0762
 4219W        W 7963   0.249   6.520   3.649  0.2627 -0.3152  0.0066
 4220W        W 7964   8.127   2.762  11.595 -0.1996  0.0452  0.1034
 4221W        W 7965   3.940   3.703  12.435  0.1754 -0.0327 -0.0701
 4222W        W 7966   9.905   9.009   0.598 -0.0316  0.0524  0.0517
 4223W        W 7967   5.597   3.934   2.521 -0.0160  0.0786 -0.0761
 4224W        W 7968   7.237   7.434   0.214 -0.0067 -0.3759 -0.1111
 4225W        W 7969   3.974   5.076   1.067  0.1211  0.1929  0.5319
 4226W        W 7970   8.802   5.964   4.658  0.0429 -0.1203  0.5176
 4227W        W 7971   5.067   8.355  12.161  0.2431  0.1237  0.0553
 4228W        W 7972   5.577   4.744   2.243  0.0798  0.0097  0.2779
 4229W        W 7973   2.817   1.516   0.189  0.2201  0.2795  0.0838
 4230W        W 7974   8.251   7.700   3.774 -0.3275  0.0626 -0.1370
 4231W        W 7975   4.116   0.621   1.528 -0.3153  0.0735  0.1185
 4232W        W 7976   3.826   4.408   9.002 -0.0645 -0.1402  0.0524
 4233W        W 7977   3.065   9.501   2.041 -0.0449  0.0579  0.0040
 4234W        W 7978   6.601   5.630  11.614 -0.0782 -0.1772  0.2316
 4235W        W 7979   4.065   9.882   3.646 -0.0607  0.1358  0.0385
 4236W        W 7980   1.604   1.531   0.621 -0.3423 -0.0469 -0.3016
 4237W        W 7981   0.387   8.629   8.847  0.0671 -0.5331  0.1023
 4238W        W 7982   0.693   5.414  11.428 -0.0017 -0.1828 -0.1179
 4239W        W 7983   4.582   4.981  11.400 -0.3912 -0.0141 -0.3156
 4240W        W 7984   4.680   4.335   2.374 -0.0819 -0.0829 -0.4588
 4241W        W 7985   2.271   4.946   9.052  0.1177  0.0904 -0.1391
 4242W        W 7986   6.253   1.591  12.043 -0.0032  0.2003 -0.1706
 4243W        W 7987   8.612   1.087  12.511  0.1207 -0.0794  0.1632
 4244W        W 7988   6.855   1.469   2.351  0.1537 -0.2932 -0.3149
 4245W        W 7989   7.751   9.716   3.226  0.0230  0.0827  0.2342
 4246W        W 7990   6.171   0.187   2.886 -0.2642  0.0303  0.0608
 4247W        W 7991   1.337   0.363   9.980  0.1907  0.0485 -0.1002
 4248W        W 7992   2.654   1.942  11.732  0.0879 -0.0457 -0.1094
 4249W        W 7993   7.034   2.667   2.693 -0.0463 -0.0542 -0.2122
 4250W        W 7994   3.742   8.317  10.194  0.1734 -0.1512  0.0900
 4251W        W 7995   8.285   5.031   1.722 -0.1249 -0.1374 -0.0566
 4252W        W 7996   2.070   1.111   3.897  0.0922  0.0291 -0.0821
 4253W        W 7997   3.825   3.259   0.976 -0.2142  0.0706  0.3354
 4254W        W 7998   4.789   4.758  11.017  0.1926  0.2265 -0.0687
 4255W        W 7999   7.324   7.607   3.071 -0.1710 -0.1146 -0.0159
 4256W        W 8000   6.748   8.173   2.723  0.1960 -0.1650  0.1539
 4257W        W 8001   8.936   9.451  12.562 -0.2367 -0.2461 -0.5734
 4258W        W 8002   8.610   6.222   0.956  0.0856 -0.0429 -0.1422
 4259W        W 8003   1.476   0.604  10.409 -0.1385  0.0412  0.2022
 4260W        W 8004   9.629   8.966   0.187 -0.1570 -0.0691 -0.0034
 4261W        W 8005   2.394   1.130   1.303  0.0551 -0.0313 -0.0472
 4262W        W 8006   3.153   4.545   0.149 -0.1883 -0.3546  0.2208
 4263W        W 8007   4.653   0.629   9.541 -0.0966 -0.1135  0.0729
 4264W        W 8008   4.576   8.740   4.068  0.0926  0.0505 -0.0182
 4265W        W 8009   8.958   5.757   2.935  0.1427  0.1230  0.0736
 4266W        W 8010   9.725   8.825   1.772  0.0026 -0.2918  0.0227
 4267W        W 8011   0.788   9.569  10.211  0.1058  0.0737 -0.3419
 4268W        W 8012   2.596   5.628  11.018  0.0225  0.2115  0.0271
 4269W        W 8013   8.644   5.338  10.862  0.1912 -0.0255 -0.2632
 4270W        W 8014   4.212   3.310   2.527  0.1253  0.1050  0.0172
 4271W        W 8015   9.826   1.768  10.283  0.3471  0.1342 -0.1520
 4272W        W 8016   4.154   7.268   3.855 -0.0079 -0.1983 -0.1030
 4273W        W 8017   8.201   6.980  11.818  0.3103 -0.2815  0.0761
 4274W        W 8018   4.455   4.536   1.685  0.0872 -0.0094  0.0428
 4275W        W 8019   0.915   8.203   9.025  0.0159 -0.1019 -0.1787
 4276W        W 8020   3.318   0.086   2.131  0.1195  0.2243  0.0426
 4277W        W 8021   1.446   4.872   1.839 -0.1254 -0.0231  0.0208
 4278W        W 8022   1.356   9.482   1.242 -0.2721  0.0476  0.0786
 4279W        W 8023   0.987   0.800   3.687  0.0481 -0.3086 -0.1072
 4280W        W 8024   5.157   3.307   9.730  0.0366  0.1189 -0.1897
 4281W        W 8025   9.275   1.603   3.768 -0.0152 -0.0244  0.1157
 4282W        W 8026   1.925   4.923   9.479  0.3223 -0.0138 -0.0791
 4283W        W 8027   1.220   0.433  11.380  0.1356  0.0577  0.1973
 4284W        W 8028   0.332   2.868   1.877  0.1193 -0.0862  0.3610
 4285W        W 8029   6.387   8.652   0.936  0.2080  0.3831  0.1826
 4286W        W 8030   3.597   0.548  12.089 -0.1882  0.1138  0.0267
 4287W        W 8031   2.401   7.807   1.981 -0.1647 -0.1417  0.2620
 4288W        W 8032   0.464   2.874   1.391  0.2075  0.0175  0.0918
 4289W        W 8033   7.098   7.336   8.873 -0.1570 -0.0373  0.1663
 4290W        W 8034   6.161   4.765   1.378  0.1411 -0.1469 -0.0527
 4291W        W 8035   7.723   1.241   2.415 -0.3255  0.0834  0.0158
 4292W        W 8036   5.872   9.647   0.107  0.0457 -0.2808 -0.3660
 4293W        W 8037   6.010   3.275   1.790 -0.1423  0.3924  0.1018
 4294W        W 8038   3.061   6.417  10.750 -0.0780  0.1381 -0.1478
 4295W        W 8039   2.969   2.054   9.976  0.0676  0.2400 -0.0010
 4296W        W 8040   0.214   9.519   0.594  0.0188  0.0592 -0.4450
 4297W        W 8041   8.717   4.543   3.917 -0.0888  0.0519 -0.2536
 4298W        W 8042   3.576   0.119  10.263  0.2289  0.0428  0.0544
 4299W        W 8043   5.200   2.141  10.788 -0.3834  0.0613  0.0427
 4300W        W 8044   6.141   4.336   9.685 -0.1787 -0.1937  0.0338
 4301W        W 8045   4.444   8.978   0.264  0.0969  0.0630  0.1315
 4302W        W 8046   3.712   9.321   0.678  0.0976  0.2951 -0.2514
 4303W        W 8047   5.567   9.612   9.482 -0.0479  0.2629  0.1828
 4304W        W 8048   1.421   2.978   9.861  0.3688 -0.2634 -0.1780
 4305W        W 8049   3.967   3.689  11.075 -0.1453  0.0490 -0.1308
 4306W        W 8050   6.830   4.363   2.099  0.4168  0.3346 -0.2545
 4307W        W 8051   6.342   5.596   1.511 -0.0111 -0.1226  0.1029
 4308W        W 8052   9.663   5.524   9.899 -0.1219 -0.3167 -0.0003
 4309W        W 8053   1.555   4.384  10.530 -0.0439 -0.0043  0.1192
 4310W        W 8054   4.768   1.341   0.560  0.0834  0.0091  0.0379
 4311W        W 8055   3.392   5.735  11.931  0.2711 -0.1271 -0.1852
 4312W        W 8056   1.310   7.511   2.536  0.1853  0.0513  0.0626
 4313W        W 8057   3.546   2.094   0.182  0.2742 -0.2080  0.0112
 4314W        W 8058   2.358   4.024  10.150 -0.1340 -0.1860  0.0960
 4315W        W 8059   6.966   1.800   4.541  0.4088  0.1505  0.2919
 4316W        W 8060   7.106   8.108   0.775  0.0921 -0.1612  0.5436
 4317W        W 8061   0.628   5.847  11.079  0.0994 -0.1083 -0.0865
 4318W        W 8062   8.876   8.663   2.997  0.2377 -0.5771 -0.2367
 4319W        W 8063   8.087   8.215   5.047 -0.0641 -0.0978 -0.2320
 4320W        W 8064   6.300   7.594  12.420  0.2916 -0.2859 -0.2148
 4321W        W 8065   7.153   0.036  12.831  0.0746 -0.0943 -0.0851
 4322W        W 8066   7.468   4.613   9.471  0.0693  0.3164  0.1440
 4323W        W 8067   4.217   3.441   1.246 -0.3150  0.2853  0.3217
 4324W        W 8068   2.518   3.626   3.132  0.3218 -0.1337 -0.0147
 4325W        W 8069   7.842   5.769  12.882 -0.0676 -0.1825  0.0314
 4326W        W 8070   8.366   3.167  12.417  0.2744 -0.1886 -0.0273
 4327W        W 8071   8.578   5.046   0.300 -0.0495  0.4960  0.1482
 4328W        W 8072   5.897   5.814   9.948  0.2696  0.1186  0.1769
 4329W        W 8073   6.432   4.571   1.893  0.4489  0.1752 -0.1360
 4330W        W 8074   7.570   2.702  11.565 -0.0549  0.0241 -0.1950
 4331W        W 8075   9.037   8.654  10.851 -0.0416  0.2905  0.1677
 4332W        W 8076   3.480   7.473  11.312  0.7966  0.3301 -0.1719
 4333W        W 8077   1.737   5.070   0.540  0.0137  0.1294 -0.0568
 4334W        W 8078   2.406   0.248   1.693  0.1833 -0.0603  0.0520
 4335W        W 8079   7.466   7.194  12.178  0.0576  0.1414 -0.0021
 4336W        W 8080   4.661   2.556  11.474  0.1080 -0.2401 -0.1781
 4337W        W 8081   6.829   4.429   3.794 -0.0292  0.0377 -0.0387
 4338W        W 8082   0.217   4.180   0.008 -0.0015  0.0196  0.2001
 4339W        W 8083   4.945   8.631   7.873  0.1534  0.0404  0.1572
 4340W        W 8084   3.651   2.412   2.566  0.4223 -0.0634 -0.1438
 4341W        W 8085   1.019   0.923  12.530  0.1980  0.0095 -0.0503
 4342W        W 8086   9.576   9.088  11.375  0.0999  0.3599  0.3042
 4343W        W 8087   4.999   7.458   0.527  0.0733 -0.0924 -0.2046
 4344W        W 8088   4.216   9.823   2.587 -0.0492  0.0914 -0.2728
 4345W        W 8089   3.706   5.840   0.291  0.0612 -0.2650 -0.3275
 4346W        W 8090   6.209   5.451  10.832 -0.0963 -0.1516  0.1909
 4347W        W 8091   9.213   7.691  11.924  0.0731  0.0070  0.3308
 4348W        W 8092   6.462   0.084   9.725 -0.3752  0.1718  0.1617
 4349W        W 8093   5.264   9.249   0.750  0.2725  0.3473 -0.1704
 4350W        W 8094   6.633   4.138   9.586 -0.1200  0.3306  0.0273
 4351W        W 8095   6.232   3.026   1.030  0.0424 -0.2501 -0.0147
 4352W        W 8096   5.878   3.473   0.744 -0.1577 -0.4956 -0.1789
 4353W        W 8097   2.969   5.774   9.092 -0.2597 -0.1344  0.3406
 4354W        W 8098   5.882   0.931   2.797  0.1480 -0.5611 -0.0713
 4355W        W 8099   4.162   0.041  10.443  0.0366 -0.1110 -0.1652
 4356W        W 8100   6.387   5.064   1.810  0.0165 -0.1077  0.1779
 4357W        W 8101   8.605   0.515   0.045  0.1902  0.1389  0.0046
 4358W        W 8102   2.057   5.298  10.459 -0.0768  0.2755 -0.0073
 4359W        W 8103   3.831   1.344   3.351 -0.2687  0.0103 -0.2861
 4360W        W 8104   3.347   0.584   1.971 -0.0246  0.1723  0.1940
 4361W        W 8105   3.192   6.762   1.959  0.2597  0.3598  0.1494
 4362W        W 8106   0.131   8.679   0.225  0.0126 -0.2871  0.1894
 4363W        W 8107   7.380   5.457   8.326 -0.2445 -0.4254  0.0443
 4364W        W 8108   5.600   2.173  10.486 -0.0013 -0.1226  0.2796
 4365W        W 8109   7.042   1.879   9.333 -0.1617 -0.0291 -0.3037
 4366W        W 8110   4.387   5.532  12.636 -0.0809 -0.2605 -0.0132
 4367W        W 8111   8.563   0.058   4.115  0.0375 -0.1961 -0.0148
 4368W        W 8112   8.522   1.889   1.469 -0.0845  0.1758  0.1295
 4369W        W 8113   2.166   8.684   1.453  0.1156 -0.3022  0.1524
 4370W        W 8114   6.457   8.622   8.703  0.2083 -0.0573  0.0761
 4371W        W 8115   5.534   1.739   4.259 -0.0285  0.1853 -0.2499
 4372W        W 8116   5.556   1.301   1.437 -0.1553  0.2903 -0.2788
 4373W        W 8117   5.914   9.283   4.478  0.1061  0.2570 -0.1137
 4374W        W 8118   2.273   1.130  10.876 -0.2069  0.2604  0.2064
 4375W        W 8119   4.091   7.767   8.799 -0.0731 -0.0779  0.2364
 4376W        W 8120   2.629   5.783   2.578 -0.1721 -0.1167  0.4584
 4377W        W 8121   1.529   3.157   3.386  0.1295 -0.1968  0.1738
 4378W        W 8122   4.440   8.521   9.163  0.0841  0.0399 -0.3557
 4379W        W 8123   7.960   2.769  12.262  0.1264 -0.2921 -0.0123
 4380W        W 8124   8.092   7.407  11.580 -0.0376 -0.2146 -0.3397
 4381W        W 8125   7.919   6.526  10.340  0.1036  0.1415 -0.3455
 4382W        W 8126   9.498   0.252  10.359  0.4794  0.0641  0.0330
 4383W        W 8127   1.090   9.846   8.135 -0.0427 -0.0211  0.1603
 4384W        W 8128   4.048   3.930   3.181  0.0381 -0.0458  0.2276
 4385W        W 8129   5.357   3.222  11.018 -0.3406 -0.0862 -0.0427
 4386W        W 8130   2.696   5.684   1.924 -0.2720  0.0066  0.0429
 4387W        W 8131   7.383   1.624  12.679 -0.0779  0.2288 -0.1000
 4388W        W 8132   2.845   5.709   1.111  0.0495  0.0956 -0.1553
 4389W        W 8133   0.573   2.457  12.852  0.1459 -0.2340 -0.1477
 4390W        W 8134   8.870   3.773   2.481  0.0399  0.1390  0.0727
 4391W        W 8135   5.696   4.482   9.852  0.2347  0.0792  0.0891
 4392W        W 8136   4.080   9.864   3.114  0.0269  0.1262 -0.0013
 4393W        W 8137   1.719   2.636   2.777  0.3321 -0.2110  0.2549
 4394W        W 8138   0.401   7.238   0.843 -0.0821 -0.0888  0.0213
 4395W        W 8139   7.076   5.111  12.845  0.2064  0.0717 -0.0546
 4396W        W 8140   2.244   4.024  11.496 -0.0893  0.1272 -0.0148
 4397W        W 8141   8.545   1.383   1.262 -0.0373 -0.2584  0.3013
 4398W        W 8142   7.638   0.506   4.092  0.1292 -0.0425 -0.1775
 4399W        W 8143   2.519   1.419   3.157  0.0256  0.0149 -0.2847
 4400W        W 8144   0.636   7.971   9.419 -0.2868  0.0849  0.2262
 4401W        W 8145   0.623   6.822  10.364 -0.1042 -0.3363 -0.0867
 4402W        W 8146   3.444   4.717  12.135  0.2774 -0.1440  0.0412
 4403W        W 8147   0.600   8.964   0.022 -0.0903 -0.1456  0.1147
 4404W        W 8148   4.198   0.298   0.474  0.1449  0.2187  0.4365
 4405W        W 8149   5.114   9.272   0.152  0.2220 -0.1978  0.1180
 4406W        W 8150   5.325   9.673  12.874  0.0936 -0.3330 -0.3907
 4407W        W 8151   6.674   3.391  12.606  0.2417 -0.0134 -0.0013
 4408W        W 8152   7.750   3.749   0.652 -0.0050 -0.2109  0.0375
 4409W        W 8153   2.275   9.315   1.089  0.2785 -0.0671  0.1038
 4410W        W 8154   3.378   1.444   3.548 -0.2469 -0.1746 -0.3307
 4411W        W 8155   9.193   2.040  12.462 -0.1122 -0.0041 -0.0644
 4412W        W 8156   9.125   2.373   3.096 -0.1092  0.2348  0.0984
 4413W        W 8157   7.814   8.912  11.408  0.0632 -0.1703  0.1215
 4414W        W 8158   0.050   1.734   2.704  0.0693  0.2338 -0.1450
 4415W        W 8159   9.098   1.911   3.379 -0.0205 -0.3771 -0.1891
 4416W        W 8160   9.596   9.160   4.041  0.1024  0.1840  0.0383
 4417W        W 8161   8.319   0.704  12.069 -0.3798  0.1310  0.2034
 4418W        W 8162   6.879   1.679   2.774 -0.0556 -0.1914  0.0901
 4419W        W 8163   7.214   0.520   8.607  0.1355 -0.0571  0.1928
 4420W        W 8164   9.633   6.730   9.413 -0.0104 -0.1723  0.4439
 4421W        W 8165   5.793   3.061  10.132 -0.0437 -0.3515  0.0889
 4422W        W 8166   0.430   7.708   3.401  0.1671  0.2415  0.0253
 4423W        W 8167   8.542   8.435  10.368 -0.1224 -0.1738 -0.2423
 4424W        W 8168   7.625   6.738  12.280 -0.1218 -0.1095 -0.0410
 4425W        W 8169   8.444   6.722  11.363 -0.1402 -0.0381 -0.0800
 4426W        W 8170   5.398   0.379   0.544 -0.2968 -0.2821 -0.0854
 4427W        W 8171   4.398   2.574   1.595  0.0762  0.2121 -0.0485
 4428W        W 8172   1.391   3.494   1.112  0.0230 -0.0878  0.1451
 4429W        W 8173   2.433   6.770  11.384  0.1521 -0.1137  0.2074
 4430W        W 8174   2.364   9.118   2.697 -0.2588  0.2332 -0.0876
 4431W        W 8175   5.321   3.197  10.433 -0.2497  0.1531 -0.2051
 4432W        W 8176   2.988   3.724  10.682 -0.0890  0.1592 -0.0776
 4433W        W 8177   7.034   5.791   9.593 -0.3656 -0.0165 -0.0070
 4434W        W 8178   0.234   1.662  12.680 -0.1435 -0.0980 -0.0819
 4435W        W 8179   5.249   6.833   1.227 -0.1098  0.1391 -0.1326
 4436W        W 8180   1.593   0.994   9.132 -0.0930 -0.1101  0.1159
 4437W        W 8181   6.221   8.301   2.697  0.0129  0.0588  0.0821
 4438W        W 8182   3.563   8.318  10.737 -0.0918  0.1689  0.1436
 4439W        W 8183   8.542   8.538   3.387  0.2521 -0.2678 -0.1037
 4440W        W 8184   0.258   5.808  10.497  0.0701 -0.2686 -0.0617
 4441W        W 8185   7.280   4.931   4.448  0.1804  0.0296  0.2031
 4442W        W 8186   7.302   8.734   2.837 -0.1540 -0.2307 -0.2741
 4443W        W 8187   8.578   9.436   0.072  0.1040  0.2193 -0.1987
 4444W        W 8188   8.444   8.634  12.019 -0.0710  0.1933  0.0586
 4445W        W 8189   2.898   2.341  11.569 -0.0659  0.0672 -0.0619
 4446W        W 8190   6.345   5.724   3.885  0.1624 -0.3282  0.2840
 4447W        W 8191   4.912   7.816   9.582  0.0713 -0.1520  0.1319
 4448W        W 8192   2.833   9.773   0.618 -0.1572 -0.0607 -0.1119
 4449W        W 8193   1.721   4.231   0.962 -0.0403  0.0145  0.0718
 4450W        W 8194   4.816   4.654   3.936 -0.0280  0.5884  0.0457
 4451W        W 8195   5.589   2.048   9.469 -0.0474  0.0573  0.0613
 4452W        W 8196   6.945   7.211   2.279  0.0114 -0.1167  0.0832
 4453W        W 8197   4.730   9.785   1.579  0.0287 -0.1956  0.1959
 4454W        W 8198   8.303   0.468   8.056 -0.2983 -0.0953  0.0382
 4455W        W 8199   4.880   7.935  10.875  0.0795  0.2416  0.1938
 4456W        W 8200   2.686   5.342   0.401  0.2946 -0.2135  0.2182
 4457W        W 8201   4.239   4.691   2.567 -0.0806 -0.0901  0.1249
 4458W        W 8202   1.845   4.119  11.137  0.1497  0.0394  0.0271
 4459W        W 8203   5.441   6.823   8.921  0.1294  0.0691 -0.3077
 4460W        W 8204   4.888   3.338   3.618 -0.3187  0.1587  0.0878
 4461W        W 8205   7.583   8.404   8.927  0.4333  0.0411 -0.1305
 4462W        W 8206   5.820   1.116   4.292 -0.2307  0.1358 -0.0562
 4463W        W 8207   8.571   3.393   2.512  0.0067 -0.2345  0.2332
 4464W        W 8208   8.955   3.497  11.678 -0.0344 -0.0181 -0.1312
 4465W        W 8209   1.609   5.606   2.935 -0.0301  0.1526 -0.2689
 4466W        W 8210   3.847   0.453   9.469  0.1966  0.1669 -0.1232
 4467W        W 8211   9.008   7.275   4.053 -0.1908  0.2812  0.0262
 4468W        W 8212   4.375   1.477  10.535  0.1576 -0.0121  0.2047
 4469W        W 8213   1.862   2.134  12.866 -0.2115  0.0601  0.3760
 4470W        W 8214   4.782   7.813   4.123  0.0698  0.0090  0.1050
 4471W        W 8215   6.774   6.499   0.229 -0.0529  0.3125  0.0762
 4472W        W 8216   4.262   7.934   8.358  0.2776 -0.1418  0.2328
 4473W        W 8217   0.463   1.720  11.810  0.1424 -0.0660 -0.2055
 4474W        W 8218   9.016   4.631   3.529 -0.1533 -0.1847 -0.2791
 4475W        W 8219   0.212   8.671  12.227  0.0757  0.1013  0.5655
 4476W        W 8220   1.072   6.934   2.019  0.1887 -0.0149  0.0640
 4477W        W 8221   9.397   5.175   1.975 -0.3015  0.1062  0.1552
 4478W        W 8222   3.595   3.346  11.399 -0.0821 -0.2491  0.0846
 4479W        W 8223   7.031   9.446  12.767 -0.0784  0.0913  0.0476
 4480W        W 8224   4.876   9.443   1.990 -0.0948 -0.4903  0.0160
 4481W        W 8225   0.678   3.107   2.123 -0.3033  0.1657 -0.0429
 4482W        W 8226   8.889   8.757   8.395 -0.1075  0.1112 -0.1102
 4483W        W 8227   6.208   5.660   4.340  0.0957  0.1886 -0.2402
 4484W        W 8228   4.595   8.795  10.998  0.0747  0.3073 -0.1157
 4485W        W 8229   8.068   1.220   0.498 -0.1770  0.0724  0.0963
 4486W        W 8230   0.405   4.879   0.692 -0.0523 -0.2509 -0.0278
 4487W        W 8231   0.145   0.366   2.518 -0.1117 -0.0570 -0.1198
 4488W        W 8232   2.111   2.914   3.043 -0.0002 -0.0168 -0.2563
 4489W        W 8233   8.439   9.880   0.127 -0.0067  0.1655  0.1404
 4490W        W 8234   5.870   7.883  12.331 -0.0154  0.0684 -0.0348
 4491W        W 8235   5.492   0.390   1.286 -0.0892  0.0500  0.1475
 4492W        W 8236   3.394   1.827   9.778  0.0792  0.1297 -0.1133
 4493W        W 8237   7.819   7.697   3.520 -0.1983  0.0668  0.0448
 4494W        W 8238   2.449   4.254   1.834  0.0093  0.0480  0.2437
 4495W        W 8239   7.968   3.427   0.292 -0.0322  0.0959  0.2889
 4496W        W 8240   8.434   4.574   1.870  0.0541  0.3176  0.1021
 4497W        W 8241   1.144   8.849   8.411 -0.1835 -0.1175  0.1171
 4498W        W 8242   7.840   3.532   3.507 -0.3289 -0.2695 -0.2740
 4499W        W 8243   4.511   6.365   9.215 -0.0134  0.0843  0.0819
 4500W        W 8244   3.132   0.563   0.089 -0.0276 -0.0727  0.3307
 4501W        W 8245   8.990   8.131   2.056 -0.3273  0.2180  0.0263
 4502W        W 8246   9.657   2.081   3.971  0.0092  0.1186 -0.0147
 4503W        W 8247   2.213   1.016  12.328 -0.0289 -0.1054 -0.1823
 4504W        W 8248   8.865   5.147   1.730  0.1916 -0.2361 -0.1162
 4505W        W 8249   8.291   1.038   1.482 -0.0653  0.0041  0.1288
 4506W        W 8250   9.655   6.906  10.227  0.1964 -0.1698 -0.0188
 4507W        W 8251   1.788   7.117   3.302  0.2291 -0.2035 -0.0785
 4508W        W 8252   2.690   4.487   1.396  0.0289  0.1325  0.1349
 4509W        W 8253   6.518   9.625   3.457  0.0440 -0.1112 -0.3577
 4510W        W 8254   6.371   5.648  10.031  0.4699 -0.0702  0.0934
 4511W        W 8255   6.234   1.408   0.110  0.0323 -0.0230  0.3084
 4512W        W 8256   3.860   7.840   2.807  0.2283  0.1352 -0.1035
 4513W        W 8257   5.524   7.399   9.740 -0.2602  0.2330 -0.0560
 4514W        W 8258   3.631   9.061   1.607 -0.0224  0.4039  0.0076
 4515W        W 8259   6.036   6.902   1.437  0.1536 -0.2186 -0.4999
 4516W        W 8260   6.223   3.346  10.926  0.0652  0.0347  0.1119
 4517W        W 8261   6.600   2.372  12.674 -0.1514 -0.1358  0.1763
 4518W        W 8262   3.972   8.541  11.863 -0.0936 -0.0196 -0.1071
 4519W        W 8263   5.501   8.121  11.614  0.1317  0.3632 -0.2372
 4520W        W 8264   5.388   0.444  12.653 -0.2582 -0.3320  0.0326
 4521W        W 8265   2.336   8.008  11.796 -0.2438  0.0441  0.0421
 4522W        W 8266   1.168   7.718   1.274 -0.1377 -0.2168  0.0899
 4523W        W 8267   4.649   9.271   1.560  0.4305  0.0447 -0.0998
 4524W        W 8268   8.228   0.211   1.776 -0.1400 -0.0748  0.0281
 4525W        W 8269   4.969   8.969   1.750 -0.1325  0.1908  0.2338
 4526W        W 8270   6.267   7.523  11.799 -0.1569 -0.1534 -0.2074
 4527W        W 8271   9.620   6.653  11.898 -0.0893  0.0843 -0.3441
 4528W        W 8272   0.263   8.966   8.481 -0.0068 -0.0908  0.3998
 4529W        W 8273   4.197   2.361  10.734 -0.1284  0.1660 -0.1142
 4530W        W 8274   5.003   6.491   9.573  0.4653 -0.1181  0.0847
 4531W        W 8275   0.399   5.844  12.071 -0.2543  0.1072 -0.2191
 4532W        W 8276   3.227   7.114  11.067 -0.5049 -0.0532 -0.1651
 4533W        W 8277   9.474   6.173   2.248 -0.0077 -0.1100  0.0098
 4534W        W 8278   4.331   3.031   0.095  0.0475 -0.0493  0.1497
 4535W        W 8279   5.310   3.501   3.427  0.0362 -0.0947 -0.1060
 4536W        W 8280   6.380   0.316   3.336  0.0676 -0.0497  0.0025
 4537W        W 8281   4.156   6.289  10.054  0.1169  0.3611  0.2291
 4538W        W 8282   6.190   0.102  12.829  0.2704 -0.2183  0.0752
 4539W        W 8283   3.464   2.887  11.035  0.3492 -0.3286 -0.0440
 4540W        W 8284   8.592   2.242  10.577 -0.0676 -0.1760  0.0023
 4541W        W 8285   3.671   7.135   8.004 -0.1703 -0.0970  0.1029
 4542W        W 8286   1.058   7.587  10.598 -0.1530  0.0403  0.1587
 4543W        W 8287   7.573   2.799   0.676 -0.1287  0.2918 -0.1903
 4544W        W 8288   5.689   3.709  12.755  0.0813  0.0884  0.2541
 4545W        W 8289   2.553   7.618  11.085 -0.0051  0.0078  0.2812
 4546W        W 8290   4.608   7.171   0.087  0.0270 -0.1074  0.1492
 4547W        W 8291   4.283   2.726   2.914  0.0848  0.1731  0.0972
 4548W        W 8292   4.093   4.548   3.133 -0.1634  0.1417  0.4009
 4549W        W 8293   5.357   3.624  10.707  0.4167  0.0528  0.0818
 4550W        W 8294   5.454   0.012   0.885 -0.1445 -0.1827 -0.0790
 4551W        W 8295   3.448   9.498   3.326  0.4678 -0.1082 -0.0013
 4552W        W 8296   0.664   0.168  11.873  0.1993  0.1601 -0.0517
 4553W        W 8297   0.285   3.617  10.446 -0.0183 -0.0920  0.2194
 4554W        W 8298   7.544   2.498   4.919 -0.1819 -0.1581 -0.5478
 4555W        W 8299   9.768   4.873   8.856  0.1699 -0.4687  0.0568
 4556W        W 8300   3.304   6.290   9.387 -0.1128 -0.1886  0.2294
 4557W        W 8301   8.152   6.417  11.015 -0.3052  0.0228 -0.1768
 4558W        W 8302   4.552   6.232   0.535 -0.2720  0.2633  0.2158
 4559W        W 8303   8.307   3.983  11.883  0.3002 -0.2278  0.2644
 4560W        W 8304   3.271   0.533   3.658  0.1651 -0.0224  0.0539
 4561W        W 8305   2.014   4.656   0.903  0.0909  0.1029 -0.0573
 4562W        W 8306   9.291   1.316   2.754  0.1908  0.1341 -0.3525
 4563W        W 8307   4.730   4.302  10.621 -0.1441  0.0571 -0.0582
 4564W        W 8308   3.071   9.612  11.790  0.1264  0.1943  0.0060
 4565W        W 8309   0.999   8.626   1.434 -0.0687 -0.0904 -0.0817
 4566W        W 8310   9.154   8.102   9.835 -0.0528 -0.2945 -0.2123
 4567W        W 8311   7.697   4.156   9.402 -0.2414  0.0217 -0.1496
 4568W        W 8312   6.839   7.102   9.685  0.1407  0.3165  0.3026
 4569W        W 8313   0.813   5.348   2.501  0.1392  0.1580 -0.0615
 4570W        W 8314   3.648   2.819  11.526 -0.0803  0.0016 -0.0494
 4571W        W 8315   8.977   8.406  11.309  0.1110  0.0919 -0.2402
 4572W        W 8316   9.297   4.925  11.827  0.0032  0.4315  0.3667
 4573W        W 8317   1.675   7.630   3.575  0.3152  0.1357 -0.0214
 4574W        W 8318   6.669   4.766  11.298 -0.0391 -0.2705  0.1629
 4575W        W 8319   5.961   2.601  10.384 -0.0372  0.3410 -0.2095
 4576W        W 8320   9.318   5.689   2.460 -0.0589  0.3523 -0.0769
 4577W        W 8321   0.840   3.059  11.616 -0.0592  0.1223 -0.3101
 4578W        W 8322   6.456   2.519   2.812 -0.0744 -0.4251  0.1409
 4579W        W 8323   5.108   4.762  11.448  0.0574 -0.0971 -0.1119
 4580W        W 8324   7.910   4.542   1.938  0.0980 -0.1542  0.4134
 4581W        W 8325   2.440   9.637   1.841 -0.2032  0.1583 -0.0981
 4582W        W 8326   8.852   4.787  12.001 -0.1269 -0.3318 -0.0467
 4583W        W 8327   7.529   7.936   2.177 -0.0566 -0.0503 -0.1638
 4584W        W 8328   5.730   2.132   2.246 -0.0933 -0.0349 -0.0671
 4585W        W 8329   0.574   1.290   0.514 -0.2743 -0.0296 -0.0741
 4586W        W 8330   5.328   0.215  10.644  0.0541  0.2065  0.0682
 4587W        W 8331   7.774   7.614  10.791 -0.0547  0.2348 -0.0864
 4588W        W 8332   5.406   3.951   3.075  0.1531 -0.0194  0.0877
 4589W        W 8333   2.047   7.283   0.415 -0.4089 -0.5504  0.1527
 4590W        W 8334   9.783   8.725   1.269  0.0736  0.0325 -0.0193
 4591W        W 8335   0.100   0.157  11.889 -0.0335  0.0643  0.2380
 4592W        W 8336   1.920   2.385  12.310  0.0651  0.0010 -0.2252
 4593W        W 8337   1.646   7.910   1.289 -0.2853  0.2381  0.1906
 4594W        W 8338   2.585   2.146   1.725  0.0506  0.0574 -0.2662
 4595W        W 8339   1.715   7.427  12.403 -0.1297 -0.0738 -0.1795
 4596W        W 8340   4.260   9.543   0.169 -0.3020 -0.3140 -0.0155
 4597W        W 8341   2.299   5.783   9.029 -0.2500  0.3829  0.1355
 4598W        W 8342   1.828   2.203  10.087  0.2163  0.0595 -0.1200
 4599W        W 8343   7.029   6.366   1.723 -0.0449 -0.2800  0.0519
 4600W        W 8344   2.155   2.680  11.512 -0.1542 -0.1214  0.0572
 4601W        W 8345   1.028   1.595  11.501 -0.0672  0.1702  0.3149
 4602W        W 8346   3.567   8.661   8.858  0.1526  0.0010 -0.1016
 4603W        W 8347   0.851   7.274  12.354  0.0342  0.1090 -0.2303
 4604W        W 8348   9.496   6.978  11.489  0.0361 -0.0908 -0.1354
 4605W        W 8349   2.186   2.520   1.683  0.0964 -0.1066  0.2537
 4606W        W 8350   5.544   5.128   4.182  0.0881  0.1454  0.0716
 4607W        W 8351   8.301   3.620  10.062 -0.0424 -0.0540  0.0495
 4608W        W 8352   0.770   3.255  12.172 -0.0956  0.1988 -0.2102
 4609W        W 8353   9.529   0.657  12.587 -0.3127  0.1294 -0.6512
 4610W        W 8354   5.568   0.801   4.612 -0.1522  0.1516 -0.3403
 4611W        W 8355   0.924   5.282   9.479  0.1544  0.0659 -0.1703
 4612W        W 8356   6.003   9.690   2.548  0.0427 -0.2211 -0.4878
 4613W        W 8357   7.126   8.936   4.257  0.2786 -0.2668 -0.4569
 4614W        W 8358   7.271   7.315   9.884 -0.4107  0.1944  0.2518
 4615W        W 8359   4.543   2.621  10.080 -0.1508 -0.1508 -0.0701
 4616W        W 8360   6.238   2.276   4.044 -0.1175  0.0117 -0.2256
 4617W        W 8361   4.676   4.468   0.968  0.1682 -0.0596  0.0613
 4618W        W 8362   2.838   0.153  12.829  0.0912  0.1876  0.0471
 4619W        W 8363   0.305   6.280   1.049  0.0326 -0.0050  0.1097
 4620W        W 8364   3.821   5.070   0.546  0.0985 -0.1916  0.3493
 4621W        W 8365   6.510   8.370   5.113 -0.1148 -0.2492 -0.3955
 4622W        W 8366   7.903   4.757  12.589 -0.0003 -0.0696  0.0076
 4623W        W 8367   4.767   7.308   3.322 -0.1340 -0.0668  0.0217
 4624W        W 8368   8.660   6.904   1.368  0.3620 -0.0062 -0.2161
 4625W        W 8369   7.663   9.464   0.736  0.3039 -0.0783 -0.5430
 4626W        W 8370   1.448   7.566   3.055 -0.2816  0.0115  0.0718
 4627W        W 8371   5.067   9.001   8.772  0.1590 -0.1562  0.1172
 4628W        W 8372   9.081   9.047   9.233 -0.1333  0.2097  0.0806
 4629W        W 8373   1.587   5.006   0.963 -0.1250 -0.0195  0.2821
 4630W        W 8374   9.635   9.354  12.729 -0.0593  0.0285  0.2040
 4631W        W 8375   4.680   5.654   0.689  0.1157  0.0215  0.1270
 4632W        W 8376   2.656   2.794   0.996 -0.1062  0.0437  0.0216
 4633W        W 8377   8.039   0.943  11.052 -0.2150 -0.0438 -0.1175
 4634W        W 8378   2.115   1.385  12.627  0.1169  0.0038 -0.1501
 4635W        W 8379   7.702   4.746   0.654  0.0976 -0.3074  0.3342
 4636W        W 8380   0.627   4.849   9.312 -0.0319 -0.0708 -0.1705
 4637W        W 8381   5.031   0.556   1.472  0.0504 -0.0643 -0.1231
 4638W        W 8382   7.923   2.263  12.300  0.1704 -0.0171 -0.0438
 4639W        W 8383   4.319   7.937   0.015  0.2897  0.0456  0.0428
 4640W        W 8384   9.453   9.279   0.597 -0.0315  0.2255 -0.3199
 4641W        W 8385   7.153   8.875  12.533 -0.4098  0.0426 -0.1853
 4642W        W 8386   2.501   8.478   0.277 -0.2095  0.1557  0.0546
 4643W        W 8387   0.990   1.030  10.257  0.1078 -0.1154  0.1065
 4644W        W 8388   6.759   5.845   1.541  0.3102 -0.2856  0.0927
 4645W        W 8389   5.647   5.903   3.670  0.2324  0.0757  0.1748
 4646W        W 8390   7.958   3.622  11.943  0.0437 -0.0164  0.2835
 4647W        W 8391   9.844   2.385   1.060  0.0119  0.0992 -0.1907
 4648W        W 8392   3.830   2.703   3.576 -0.1758  0.0129  0.4218
 4649W        W 8393   2.402   9.766   4.460  0.0863 -0.0375  0.1811
 4650W        W 8394   0.034   4.393  11.307 -0.3235 -0.0751 -0.1028
 4651W        W 8395   6.414   8.283  11.138  0.1836 -0.2803  0.1805
 4652W        W 8396   0.173   9.867   9.100  0.0087 -0.0081  0.1631
 4653W        W 8397   9.096   7.686   0.180  0.0092 -0.1506 -0.1965
 4654W        W 8398   0.503   8.228   3.202 -0.2696  0.3868 -0.2935
 4655W        W 8399   5.794   7.377   1.302  0.0932  0.0742 -0.2910
 4656W        W 8400   8.776   5.624   3.544 -0.0126  0.1000 -0.1483
 4657W        W 8401   4.549   1.951   3.278 -0.3873  0.1102  0.0681
 4658W        W 8402   7.351   3.283   5.215 -0.1019  0.0288 -0.0804
 4659W        W 8403   7.294   4.303   2.039  0.1357 -0.2985  0.0479
 4660W        W 8404   1.864   0.412   3.311 -0.2689 -0.1008 -0.1745
 4661W        W 8405   2.943   5.825  12.098  0.3027  0.2032  0.0502
 4662W        W 8406   8.197   0.708  10.063  0.0041  0.1763 -0.0036
 4663W        W 8407   2.011   2.120  11.331 -0.0742 -0.2197  0.1311
 4664W        W 8408   2.428   8.975   0.096  0.0817  0.1563  0.2060
 4665W        W 8409   3.186   0.708   0.560  0.0227 -0.2225  0.0361
 4666W        W 8410   7.512   0.022   3.976  0.0984 -0.0361  0.2165
 4667W        W 8411   6.301   8.704  10.138 -0.0632  0.1377  0.1012
 4668W        W 8412   5.972   3.989   8.711 -0.0531  0.3952  0.1261
 4669W        W 8413   4.699   7.932   1.719 -0.1895  0.0790  0.2863
 4670W        W 8414   0.685   8.933  10.672 -0.0966  0.1488 -0.0850
 4671W        W 8415   2.072   8.633   9.534  0.2518 -0.5342 -0.2306
 4672W        W 8416   0.178   6.748   1.879  0.1545 -0.0931  0.1542
 4673W        W 8417   5.577   4.392  10.509  0.2813 -0.1864  0.1517
 4674W        W 8418   1.895   4.817   1.385 -0.0957 -0.1550 -0.1305
 4675W        W 8419   8.028   2.253   0.832  0.3323 -0.0675 -0.3044
 4676W        W 8420   0.621   6.904  12.082 -0.3532 -0.1372  0.1117
 4677W        W 8421   0.933   3.669   0.327 -0.2817  0.0980 -0.2411
 4678W        W 8422   5.516   8.982   2.535  0.1176  0.0728 -0.0662
 4679W        W 8423   7.809   6.680   8.405  0.1735  0.0284  0.1892
 4680W        W 8424   7.423   4.467   3.071  0.0336 -0.2904 -0.0846
 4681W        W 8425   9.455   8.421   4.301 -0.3798  0.0608  0.0110
 4682W        W 8426   3.908   5.183  10.785 -0.2518 -0.0097 -0.2688
 4683W        W 8427   9.061   6.565   4.252 -0.0443  0.0762  0.1949
 4684W        W 8428   1.200   6.173  11.997  0.2448  0.2048 -0.1559
 4685W        W 8429   5.904   9.418  11.241  0.2211 -0.0491 -0.0605
 4686W        W 8430   6.714   2.891   9.543 -0.2214  0.1068 -0.0071
 4687W        W 8431   9.589   8.722   3.073 -0.1884 -0.0195  0.2181
 4688W        W 8432   6.669   0.780   2.624 -0.0418  0.0075 -0.1455
 4689W        W 8433   8.367   2.985   0.319 -0.1871  0.2351 -0.0077
 4690W        W 8434   5.328   0.036   1.586  0.0270  0.0948 -0.0220
 4691W        W 8435   0.689   6.781   8.681  0.1008  0.1452  0.1276
 4692W        W 8436   2.475   6.909  12.320  0.1903 -0.1164 -0.1833
 4693W        W 8437   5.864   1.861   0.142  0.0990  0.1114  0.1748
 4694W        W 8438   5.521   7.577  10.324 -0.0145 -0.0101 -0.1449
 4695W        W 8439   7.846   3.320  12.361 -0.2837  0.1355  0.3072
 4696W        W 8440   7.425   7.628   9.497 -0.0652  0.0540  0.1254
 4697W        W 8441   4.248   2.206   2.930  0.0626  0.2277  0.1087
 4698W        W 8442   2.609   9.165  10.040 -0.0758 -0.0256  0.1461
 4699W        W 8443   7.450   8.647  11.139 -0.1326 -0.4080  0.2669
 4700W        W 8444   7.364   0.980  10.286 -0.0370  0.0467 -0.0698
 4701W        W 8445   3.044   1.117  12.695 -0.2044 -0.2508  0.0887
 4702W        W 8446   2.696   3.214   0.207  0.0774  0.0705 -0.0771
 4703W        W 8447   1.579   8.971   8.644  0.0156  0.0577  0.1057
 4704W        W 8448   7.713   8.129  11.049 -0.4222  0.1860  0.0380
 4705W        W 8449   4.401   8.262   9.616  0.2246  0.0494 -0.0577
 4706W        W 8450   1.715   8.725   1.650 -0.0109 -0.3647  0.1409
 4707W        W 8451   4.277   4.199   2.632  0.2371  0.1427 -0.2041
 4708W        W 8452   0.174   0.722   4.248  0.1780  0.0333  0.1319
 4709W        W 8453   2.658   7.584   1.678 -0.1925  0.1700  0.0463
 4710W        W 8454   7.363   4.802  12.501  0.0093  0.0978 -0.3046
 4711W        W 8455   5.329   1.198   4.296 -0.3022  0.1829  0.1474
 4712W        W 8456   5.720   6.775   1.002 -0.0145  0.2619  0.0734
 4713W        W 8457   3.729   6.584  10.194  0.0730  0.1543 -0.3277
 4714W        W 8458   8.415   2.482   4.504  0.1085  0.2809  0.1968
 4715W        W 8459   4.810   8.457   9.488 -0.0740 -0.1037 -0.0654
 4716W        W 8460   6.049   0.480   0.315 -0.0465 -0.1229 -0.1769
 4717W        W 8461   0.714   7.645   2.497  0.0797 -0.1691  0.3780
 4718W        W 8462   2.432   9.421  12.794 -0.1601  0.1136 -0.1058
 4719W        W 8463   0.100   9.312  11.526  0.0348 -0.1124  0.4704
 4720W        W 8464   7.595   7.980  10.477 -0.2277  0.0457 -0.1059
 4721W        W 8465   8.493   0.564   5.207  0.2098 -0.2243  0.1654
 4722W        W 8466   5.707   2.931   0.848  0.0558  0.1138 -0.2459
 4723W        W 8467   0.647   5.016   3.333 -0.1939  0.0787 -0.2094
 4724W        W 8468   4.792   8.607   9.997 -0.0098 -0.1624 -0.1409
 4725W        W 8469   9.264   9.588   2.797 -0.2114  0.0543  0.0092
 4726W        W 8470   6.284   1.206  11.751 -0.0712  0.0134  0.1748
 4727W        W 8471   3.940   2.912   2.572 -0.0017  0.0493  0.0050
 4728W        W 8472   9.034   7.184  12.717  0.0087 -0.0475 -0.2603
 4729W        W 8473   1.263   8.085  10.912  0.2573  0.2151 -0.0012
 4730W        W 8474   2.700   7.776   2.598 -0.0361 -0.0906  0.1298
 4731W        W 8475   5.907   6.218  10.469  0.0896 -0.4099 -0.0666
 4732W        W 8476   1.034   8.389   7.882 -0.0705  0.1799  0.0178
 4733W        W 8477   2.824   0.924   1.449  0.3027 -0.0585  0.1999
 4734W        W 8478   3.028   6.412   2.654 -0.0097  0.0155 -0.1922
 4735W        W 8479   9.810   0.007  12.832 -0.3048 -0.1998 -0.1387
 4736W        W 8480   3.943   7.696   9.318 -0.0855  0.1306  0.0126
 4737W        W 8481   0.943   3.052  10.687  0.1516  0.0547  0.2034
 4738W        W 8482   5.940   7.356  12.088 -0.2121  0.1982 -0.3359
 4739W        W 8483   8.000   8.436   2.341 -0.0827 -0.2738  0.2803
 4740W        W 8484   9.597   5.057   4.192 -0.1479 -0.1146 -0.2421
 4741W        W 8485   3.120   3.128  11.327  0.0491 -0.2529 -0.3124
 4742W        W 8486   0.228   0.689   2.025  0.0857 -0.1092 -0.1497
 4743W        W 8487   6.063   7.631   4.003  0.4034  0.1550  0.1047
 4744W        W 8488   5.554   8.210  12.791 -0.3853  0.2108 -0.2195
 4745W        W 8489   2.852   1.509  12.028  0.1759  0.1220 -0.2552
 4746W        W 8490   6.645   8.130   3.839  0.1512  0.0828 -0.0145
 4747W        W 8491   6.748   2.307   1.508 -0.1826 -0.3363  0.0712
 4748W        W 8492   3.547   1.565   0.512  0.1153  0.0303  0.0605
 4749W        W 8493   7.308   3.315  11.404  0.3460  0.1785 -0.1744
 4750W        W 8494   0.889   8.532  12.597  0.2330 -0.0600  0.3515
 4751W        W 8495   4.578   4.796   2.134  0.3361  0.0973  0.1706
 4752W        W 8496   5.340   6.704   3.350  0.0547 -0.0040 -0.0807
 4753W        W 8497   3.623   0.543   4.088  0.0611 -0.0267  0.2580
 4754W        W 8498   5.869   5.845  12.796 -0.0279  0.1966  0.0905
 4755W        W 8499   6.504   5.241   4.213 -0.1230  0.2914  0.0837
 4756W        W 8500   2.378   0.294  10.745  0.0484  0.1498 -0.0686
 4757W        W 8501   6.412   0.607  10.381 -0.1664  0.1387  0.2461
 4758W        W 8502   8.102   9.502  12.894 -0.0296  0.1125 -0.2910
 4759W        W 8503   5.957   4.505   1.779 -0.0314 -0.0868 -0.1455
 4760W        W 8504   5.234   2.382   1.365 -0.2042  0.2169  0.1232
 4761W        W 8505   1.118   0.463   2.351  0.0306 -0.0375  0.0388
 4762W        W 8506   9.339   1.390   9.860  0.0111 -0.0459  0.0735
 4763W        W 8507   8.720   9.008   0.254 -0.0325  0.2576 -0.1659
 4764W        W 8508   8.523   8.223   1.634  0.1164 -0.1632  0.1702
 4765W        W 8509   2.317   6.059  10.914 -0.0451  0.2764  0.1872
 4766W        W 8510   2.903   1.443  11.512  0.1235 -0.0664 -0.3014
 4767W        W 8511   3.374   7.985   0.188  0.0459 -0.2395  0.2038
 4768W        W 8512   2.870   9.897  10.514 -0.0847 -0.2491 -0.0540
 4769W        W 8513   5.471   8.164   7.709  0.1505  0.2654 -0.1549
 4770W        W 8514   6.390   9.372   4.334 -0.3267  0.1330  0.2281
 4771W        W 8515   8.761   9.840   3.404  0.3752 -0.2207  0.0258
 4772W        W 8516   3.019   5.379  10.198 -0.1726 -0.0418 -0.1070
 4773W        W 8517   5.474   5.023   1.343 -0.1193  0.1118  0.3938
 4774W        W 8518   0.714   9.078   9.128 -0.0043 -0.0384  0.1836
 4775W        W 8519   3.718   0.203  11.368  0.2292 -0.0694 -0.2718
 4776W        W 8520   8.649   8.536   4.862  0.0552 -0.0100 -0.4056
 4777W        W 8521   7.783   2.156   4.268  0.1572  0.2069  0.0276
 4778W        W 8522   5.462   6.573   9.322  0.0734 -0.0451 -0.2314
 4779W        W 8523   6.188   9.762  10.838 -0.1891  0.1523 -0.1560
 4780W        W 8524   8.528   2.533   2.969 -0.1797  0.3554  0.0413
 4781W        W 8525   4.676   2.954   9.338  0.0286 -0.0344 -0.1609
 4782W        W 8526   6.609   3.666   4.240  0.2500  0.0152 -0.1185
 4783W        W 8527   4.426   0.974   1.614 -0.0172  0.0831 -0.0430
 4784W        W 8528   2.430   0.586   1.310 -0.1868  0.0526 -0.1663
 4785W        W 8529   6.352   8.455   9.160 -0.0667 -0.0389  0.0330
 4786W        W 8530   5.655   3.787   1.222 -0.2647 -0.0343 -0.0331
 4787W        W 8531   3.955   7.791   1.018 -0.2959 -0.1002 -0.3069
 4788W        W 8532   4.670   4.286  11.166  0.2355  0.0412  0.0880
 4789W        W 8533   5.271   5.624   2.574  0.1851  0.0978  0.2351
 4790W        W 8534   9.025   2.244   4.692 -0.0628 -0.0895  0.1317
 4791W        W 8535   2.495   0.262   0.673  0.0351 -0.6994 -0.1798
 4792W        W 8536   4.226   9.052   3.797 -0.0900  0.1751 -0.0921
 4793W        W 8537   0.296   2.547   2.285  0.1674 -0.1451 -0.1357
 4794W        W 8538   1.728   8.228  12.017 -0.0025  0.0444  0.5294
 4795W        W 8539   1.184   2.530   3.358  0.0939  0.3390 -0.2867
 4796W        W 8540   0.189   9.480  12.511 -0.2817 -0.3206  0.1166
 4797W        W 8541   6.474   1.495   3.102 -0.1090 -0.3081 -0.0745
 4798W        W 8542   7.429   1.037  12.071 -0.0458  0.1448 -0.2892
 4799W        W 8543   5.110   6.716   1.759 -0.0243  0.3162 -0.3007
 4800W        W 8544   2.980   9.443   8.842 -0.0535 -0.0873 -0.1963
 4801W        W 8545   2.816   5.501  12.756  0.1121  0.2941 -0.0307
 4802W        W 8546   0.296   7.030  10.684  0.0934 -0.3131  0.2299
 4803W        W 8547   8.744   6.531   8.498 -0.3845 -0.0250 -0.1108
 4804W        W 8548   2.609   8.017   4.262 -0.1184 -0.0477  0.0781
 4805W        W 8549   1.744   7.961   4.029 -0.0032 -0.0193 -0.0472
 4806W        W 8550   9.053   6.180   3.696 -0.1262  0.0373  0.0168
 4807W        W 8551   4.572   9.138   8.796  0.0944 -0.0971 -0.2827
 4808W        W 8552   0.288   0.630   2.916 -0.1788  0.0446  0.0159
 4809W        W 8553   8.234   3.578   9.142  0.1117  0.1912 -0.2621
 4810W        W 8554   0.027   7.182   8.540 -0.2750  0.1165 -0.2388
 4811W        W 8555   6.536   2.900   9.985 -0.0094 -0.0832 -0.0685
 4812W        W 8556   2.221   7.211  11.222 -0.3776 -0.1648  0.1155
 4813W        W 8557   5.867   0.452  12.657  0.0993 -0.2654  0.0739
 4814W        W 8558   0.404   6.236   9.596  0.0059 -0.1461  0.0859
 4815W        W 8559   5.705   1.348   0.261 -0.1395 -0.2176 -0.1141
 4816W        W 8560   8.542   2.649   3.893 -0.1661 -0.2672  0.1573
 4817W        W 8561   6.691   1.465  11.530  0.4705  0.3117 -0.0570
 4818W        W 8562   3.916   1.058   1.594  0.0047  0.0185  0.0950
 4819W        W 8563   4.773   7.435  10.884  0.2239  0.4973 -0.5218
 4820W        W 8564   3.812   6.943  11.906  0.1613 -0.1738  0.1429
 4821W        W 8565   6.741   3.759   9.120 -0.0081 -0.0372 -0.0531
 4822W        W 8566   8.545   3.006  11.553  0.1506 -0.3765 -0.1138
 4823W        W 8567   5.707   6.547  10.842 -0.2121  0.4579 -0.2084
 4824W        W 8568   4.735   4.066   9.684 -0.0816  0.0626 -0.0854
 4825W        W 8569   1.617   6.736   2.989  0.0375 -0.2275 -0.0557
 4826W        W 8570   9.602   7.974   9.114 -0.1902 -0.0569  0.4488
 4827W        W 8571   6.847   7.983   5.083 -0.3228  0.0347  0.0369
 4828W        W 8572   6.950   4.542   2.743 -0.2612  0.0823  0.1131
 4829W        W 8573   5.890   1.491   2.835  0.0934 -0.1818  0.0128
 4830W        W 8574   7.416   2.697   0.178  0.0507  0.4614  0.2119
 4831W        W 8575   5.432   1.621  10.432 -0.2217 -0.0015 -0.4314
 4832W        W 8576   6.422   3.861  12.447 -0.1983 -0.3481  0.1200
 4833W        W 8577   7.630   6.945  10.173  0.0075 -0.0244 -0.0623
 4834W        W 8578   3.924   9.157   9.850 -0.4076 -0.0547  0.0219
 4835W        W 8579   5.154   7.631  11.781 -0.1035  0.0902  0.0116
 4836W        W 8580   7.946   7.257  11.089  0.3791  0.0762  0.1546
 4837W        W 8581   2.626   6.157  11.870  0.0964 -0.2743  0.2949
 4838W        W 8582   0.223   3.962  12.436  0.1926  0.0478 -0.0766
 4839W        W 8583   5.524   8.271   2.642 -0.0041  0.1505 -0.0488
 4840W        W 8584   5.224   4.104   0.704  0.1501  0.5118  0.1990
 4841W        W 8585   4.233   9.084  10.710  0.2216  0.1357 -0.1029
 4842W        W 8586   3.206   8.888   4.357  0.2696 -0.2148  0.0552
 4843W        W 8587   7.192   5.375  12.421 -0.0301 -0.0751 -0.4010
 4844W        W 8588   9.208   3.711  12.525  0.0672  0.2816 -0.0014
 4845W        W 8589   0.325   7.781   2.266 -0.0692 -0.2112  0.2300
 4846W        W 8590   3.613   2.552  12.395  0.0602  0.2233 -0.0427
 4847W        W 8591   4.813   9.315  11.869 -0.1803  0.2003  0.1514
 4848W        W 8592   4.247   2.430  12.375  0.2733  0.0570  0.0549
 4849W        W 8593   2.693   8.066   3.756 -0.2271  0.2094  0.0193
 4850W        W 8594   7.004   9.746   3.844  0.2861 -0.0367  0.1415
 4851W        W 8595   2.129   8.241   1.701  0.0998 -0.1009  0.1485
 4852W        W 8596   8.740   8.038   8.928 -0.2035  0.3535  0.2592
 4853W        W 8597   7.162   2.384   1.776 -0.2509 -0.1881 -0.0561
 4854W        W 8598   4.826   0.376  12.430 -0.1137 -0.2261  0.0207
 4855W        W 8599   7.458   7.794   1.034 -0.1645  0.4101  0.0298
 4856W        W 8600   9.040   1.086   0.422  0.2041 -0.3309  0.0234
 4857W        W 8601   8.373   7.480   8.490 -0.3089  0.0966 -0.0213
 4858W        W 8602   5.027   0.659   2.309  0.1759  0.1304 -0.1963
 4859W        W 8603   8.851   3.223   1.255  0.3275 -0.2196 -0.1649
 4860W        W 8604   8.745   3.026  10.738 -0.1720  0.0528  0.1734
 4861W        W 8605   0.759   5.917   4.142 -0.1335  0.0874 -0.1156
 4862W        W 8606   6.390   3.719   9.932 -0.0060 -0.0505  0.0807
 4863W        W 8607   0.940   0.859   4.583  0.1577 -0.1233  0.1930
 4864W        W 8608   0.576   3.123   8.907  0.2179  0.1473 -0.3114
 4865W        W 8609   9.711   4.918  12.509  0.1265  0.1191  0.1337
 4866W        W 8610   0.820   9.525   2.963 -0.1712  0.2078 -0.2230
 4867W        W 8611   6.036   1.044   2.338 -0.0137  0.1287  0.2937
 4868W        W 8612   3.597   6.438   1.297 -0.2541  0.1371  0.0961
 4869W        W 8613   1.655   6.357   0.422 -0.0963 -0.1847  0.1239
 4870W        W 8614   2.219   5.728  11.486  0.0347  0.2011 -0.1570
 4871W        W 8615   1.907   6.175  11.397  0.2962 -0.1595 -0.0888
 4872W        W 8616   5.664   9.889  11.394 -0.3342 -0.2414  0.1935
 4873W        W 8617   0.667   0.647   2.319  0.0228 -0.2823  0.0909
 4874W        W 8618   0.391   0.433  11.510 -0.1788 -0.2325 -0.1302
 4875W        W 8619   4.416   6.953  12.257  0.1573  0.1038  0.0745
 4876W        W 8620   8.250   1.219  12.166 -0.0149 -0.3139  0.0853
 4877W        W 8621   0.994   8.681   3.354  0.0615 -0.2326 -0.3737
 4878W        W 8622   4.893   2.137  12.634 -0.0021 -0.0274  0.3701
 4879W        W 8623   9.234   3.238  12.685 -0.1579  0.3230  0.0115
 4880W        W 8624   4.687   4.536  11.578 -0.2455 -0.1265  0.0780
 4881W        W 8625   6.059   3.013   0.521 -0.1891  0.1285 -0.3604
 4882W        W 8626   0.602   9.496   9.417  0.2671  0.0383  0.0385
 4883W        W 8627   7.825   9.200   8.477 -0.2508 -0.0050  0.0362
 4884W        W 8628   3.286   7.196   3.889 -0.0859  0.2209  0.2233
 4885W        W 8629   5.233   4.644   9.308  0.0018 -0.0956  0.1511
 4886W        W 8630   9.558   9.029   4.907  0.4457  0.1326 -0.1818
 4887W        W 8631   5.902   3.922   3.750 -0.3143 -0.1777 -0.0676
 4888W        W 8632   3.498   6.346   0.790 -0.1300 -0.0560  0.2460
 4889W        W 8633   1.753   9.234  11.590  0.1975  0.0995  0.1334
 4890W        W 8634   9.063   6.869  11.856  0.2819  0.3919 -0.2719
 4891W        W 8635   6.383   3.499  11.370 -0.2225 -0.0584  0.1918
 4892W        W 8636   4.632   0.594   1.194 -0.1197 -0.0089  0.0801
 4893W        W 8637   9.131   0.008   9.467 -0.0115  0.1262  0.0147
 4894W        W 8638   1.020   3.909   9.816 -0.1707 -0.2572  0.0740
 4895W        W 8639   8.052   1.488  10.911  0.0286 -0.0216 -0.1424
 4896W        W 8640   0.473   5.278   8.498  0.0396  0.0615  0.0097
 4897W        W 8641   7.994   1.733  12.257 -0.0312 -0.0324  0.2822
 4898W        W 8642   5.755   3.820  10.500  0.0006  0.1676 -0.2691
 4899W        W 8643   6.713   7.018   4.449 -0.1172 -0.0319 -0.1010
 4900W        W 8644   0.376   5.891   9.190 -0.0917  0.2414 -0.0339
 4901W        W 8645   4.215   7.501   0.671 -0.0014  0.0790  0.0554
 4902W        W 8646   2.061   8.499  11.113  0.0742  0.0634 -0.2553
 4903W        W 8647   8.504   3.222   0.877  0.1413 -0.0309 -0.1750
 4904W        W 8648   9.271   5.886  10.091 -0.3534 -0.1148  0.0240
 4905W        W 8649   5.104   2.612  10.764 -0.4916  0.2717  0.1887
 4906W        W 8650   1.710   2.441  10.834  0.0987 -0.0553  0.0476
 4907W        W 8651   9.490   9.212  10.112  0.0826 -0.1186 -0.2302
 4908W        W 8652   3.646   2.631   9.882  0.0969  0.2119  0.0466
 4909W        W 8653   8.026   6.828   9.824  0.0442  0.4915  0.1704
 4910W        W 8654   0.351   6.972  12.502  0.3775  0.0736 -0.0294
 4911W        W 8655   5.252   7.159  11.862 -0.0374  0.0893  0.0010
 4912W        W 8656   8.337   4.634  12.236 -0.2238 -0.2803 -0.2412
 4913W        W 8657   3.519   2.092  12.395  0.1541  0.0611  0.0631
 4914W        W 8658   2.482   2.234  11.359  0.0557 -0.0886 -0.0692
 4915W        W 8659   6.313   0.082   0.470  0.0180  0.1872 -0.2576
 4916W        W 8660   0.525   0.108  10.391  0.1291  0.0511 -0.0173
 4917W        W 8661   0.101   8.863   4.000 -0.2265  0.3043  0.0701
 4918W        W 8662   1.015   4.251  12.788  0.2132  0.0920 -0.1371
 4919W        W 8663   1.682   2.566  11.368 -0.2241  0.3492 -0.3419
 4920W        W 8664   6.919   0.952   9.992  0.3369 -0.1998  0.0912
 4921W        W 8665   9.559   8.669  10.989  0.0343 -0.2819  0.1821
 4922W        W 8666   5.726   6.975   3.009  0.1621 -0.0217 -0.1321
 4923W        W 8667   7.417   3.644   3.067 -0.0825  0.1099 -0.0618
 4924W        W 8668   6.692   3.114  10.760 -0.1548 -0.0675  0.0953
 4925W        W 8669   4.056   6.417   0.134 -0.2951 -0.0070  0.0801
 4926W        W 8670   5.199   4.336  11.218 -0.2647  0.1808  0.0592
 4927W        W 8671   5.901   9.356   2.889 -0.0506 -0.0621  0.1975
 4928W        W 8672   7.776   3.973  10.986  0.0269 -0.0059 -0.0382
 4929W        W 8673   5.561   1.594   9.723  0.2787 -0.0000  0.1442
 4930W        W 8674   7.638   2.674   2.557 -0.4804  0.1939 -0.1102
 4931W        W 8675   5.968   0.293  11.720 -0.1489 -0.3386 -0.3836
 4932W        W 8676   0.481   8.877   9.828 -0.1939 -0.0573  0.0473
 4933W        W 8677   6.684   1.350  12.122 -0.2551  0.0101 -0.1143
 4934W        W 8678   1.298   9.214   1.651  0.2197  0.1203  0.0426
 4935W        W 8679   6.212   1.328  11.232  0.3633 -0.1474 -0.0419
 4936W        W 8680   7.466   2.864  10.675  0.1950 -0.1610  0.1329
 4937W        W 8681   7.582   9.652   1.234  0.2879  0.0389  0.5167
 4938W        W 8682   4.287   0.409   2.832 -0.2270  0.1222 -0.1157
 4939W        W 8683   4.519   5.781   1.998  0.0466 -0.0411  0.1023
 4940W        W 8684   6.059   5.697   3.494  0.2501  0.0082  0.0698
 4941W        W 8685   3.757   8.682   8.026 -0.0969  0.2723 -0.1349
 4942W        W 8686   2.922   7.728   9.481 -0.1285 -0.0205  0.2405
 4943W        W 8687   3.892   1.729   0.828 -0.2425 -0.0150  0.3638
 4944W        W 8688   1.942   3.438   1.873  0.2431  0.2765 -0.0669
 4945W        W 8689   8.100   9.701  10.337 -0.3832  0.0420  0.1094
 4946W        W 8690   5.265   1.658  10.928  0.0437 -0.0339 -0.2319
 4947W        W 8691   7.269   0.222   1.799  0.0801 -0.1549 -0.0146
 4948W        W 8692   7.813   5.534  11.555  0.0550  0.2851 -0.0153
 4949W        W 8693   7.835   2.750   2.153 -0.1207 -0.3566  0.0233
 4950W        W 8694   2.998   7.666   4.293  0.1629  0.1483  0.3198
 4951W        W 8695   4.285   7.756   1.462 -0.0045  0.0474 -0.0102
 4952W        W 8696   7.427   0.147   0.984 -0.1568  0.0702 -0.2571
 4953W        W 8697   8.363   3.133  11.034 -0.0035  0.0735 -0.1923
 4954W        W 8698   5.658   9.448  11.686  0.0850  0.0495  0.1532
 4955W        W 8699   9.835   7.864   2.012 -0.0523 -0.0999  0.3442
 4956W        W 8700   8.841   8.083  12.714 -0.1364  0.0130 -0.0679
 4957W        W 8701   4.210   6.427  11.030  0.1592  0.0139 -0.2284
 4958W        W 8702   6.885   2.558   9.847  0.1232  0.0625  0.3987
 4959W        W 8703   4.376   1.317   4.818  0.1606 -0.4332  0.2497
 4960W        W 8704   0.237   1.685   3.186  0.0740 -0.0102 -0.1761
 4961W        W 8705   1.816   5.074   9.916  0.2571 -0.0270 -0.0095
 4962W        W 8706   6.237   0.651   8.104 -0.1428  0.0878 -0.1238
 4963W        W 8707   7.515   9.458  12.352  0.0028  0.1047 -0.0945
 4964W        W 8708   5.338   5.917   1.382 -0.1345  0.2474  0.0278
 4965W        W 8709   6.507   8.527   9.623  0.4942  0.1286 -0.1521
 4966W        W 8710   2.911   7.667  10.397 -0.1029  0.1416 -0.2961
 4967W        W 8711   8.379   1.790  10.709 -0.0856 -0.5128 -0.1616
 4968W        W 8712   5.842   6.405   0.203 -0.0096  0.1773  0.1158
 4969W        W 8713   3.113   4.212  10.797  0.3636 -0.2704  0.0520
 4970W        W 8714   2.586   3.130   0.677 -0.4230  0.0937 -0.2747
 4971W        W 8715   1.064   9.351   9.298  0.2358  0.0354 -0.4265
 4972W        W 8716   8.381   1.572   3.770 -0.2250  0.4236 -0.1027
 4973W        W 8717   2.841   8.873   2.058 -0.1204  0.1081  0.1534
 4974W        W 8718   7.321   2.307  10.528  0.1482 -0.0963 -0.2332
 4975W        W 8719   6.872   8.897   1.076 -0.1627  0.1051 -0.1593
 4976W        W 8720   4.576   7.102   8.781  0.1085  0.3176  0.1029
 4977W        W 8721   0.808   9.879  12.532  0.3136  0.0413  0.0559
 4978W        W 8722   3.344   8.490   2.854  0.3360  0.1281 -0.0212
 4979W        W 8723   5.034   7.399   4.012 -0.0166  0.0630  0.0375
 4980W        W 8724   3.498   2.396   1.089  0.2529  0.2716  0.3000
 4981W        W 8725   8.024   3.699  12.681 -0.2042 -0.1567  0.1008
 4982W        W 8726   3.460   5.460   9.061  0.1737 -0.3205  0.2393
 4983W        W 8727   8.826   9.163  12.116 -0.2750 -0.3506  0.3936
 4984W        W 8728   0.082   4.519   9.134  0.1716  0.2196  0.1495
 4985W        W 8729   7.409   5.165   2.212 -0.3989 -0.2417  0.1852
 4986W        W 8730   9.903   0.105   0.450 -0.0382 -0.0549 -0.1641
 4987W        W 8731   8.206   5.849   1.960  0.1706  0.1766 -0.2727
 4988W        W 8732   9.857   5.552   2.124  0.0286  0.2458  0.0731
 4989W        W 8733   2.766   7.413  12.781 -0.1970 -0.0416 -0.0892
 4990W        W 8734   4.826   1.028   1.008  0.2051 -0.1928 -0.1149
 4991W        W 8735   2.609   2.235   2.489  0.2614 -0.0715 -0.0091
 4992W        W 8736   5.049   7.384  12.425 -0.2403 -0.3287 -0.0006
 4993W        W 8737   1.884   0.431  11.997 -0.2071 -0.2295 -0.0715
 4994W        W 8738   9.531   9.352   3.174 -0.3187  0.2410  0.1691
 4995W        W 8739   5.785   5.915  12.304 -0.0440  0.0909  0.1846
 4996W        W 8740   0.780   2.184   1.032  0.3733 -0.0638  0.3361
 4997W        W 8741   7.394   3.102   2.475 -0.0886  0.0290 -0.1184
 4998W        W 8742   0.929   6.766  12.495  0.0200  0.0280  0.0953
 4999W        W 8743   6.500   6.632  11.061  0.1179 -0.1017 -0.1994
 5000W        W 8744   0.512   7.082   9.718  0.1894 -0.3325  0.0604
 5001W        W 8745   6.797   7.587  10.882 -0.2251 -0.0531 -0.0929
 5002W        W 8746   5.866   6.561  11.819 -0.3398  0.0337  0.1919
 5003W        W 8747   6.042   8.561   5.044 -0.1556 -0.0576 -0.1166
 5004W        W 8748   4.523   0.682   0.677 -0.2974  0.3142  0.2616
 5005W        W 8749   7.280   6.603  12.671  0.0138  0.1837  0.0221
 5006W        W 8750   3.325   5.555  12.413  0.1705 -0.2390  0.1240
 5007W        W 8751   2.431   3.357   1.803 -0.0310 -0.0756 -0.1332
 5008W        W 8752   4.368   1.017   0.330 -0.0857 -0.2025 -0.3929
 5009W        W 8753   7.578   9.415   4.798 -0.1778  0.1649  0.1123
 5010W        W 8754   2.881   2.965   3.183 -0.1099 -0.1388 -0.3928
 5011W        W 8755   1.959   3.050   0.735  0.3193  0.1029 -0.1218
 5012W        W 8756   2.582   7.587   3.976 -0.2350  0.1099  0.0380
 5013W        W 8757   8.566   4.445  11.809  0.0746  0.0341  0.0451
 5014W        W 8758   1.816   2.034  10.612 -0.2158 -0.0550  0.1244
 5015W        W 8759   2.558   2.953   1.530 -0.1258 -0.1794  0.0966
 5016W        W 8760   3.789   4.851   2.084  0.1008 -0.1585 -0.3768
 5017W        W 8761   6.851   6.950   1.837  0.0936  0.2133  0.2343
 5018W        W 8762   8.544   1.337  10.696 -0.1775  0.0179 -0.0090
 5019W        W 8763   4.799   8.026   0.058  0.2588 -0.1000 -0.2093
 5020W        W 8764   3.609   1.671  11.431  0.0039 -0.1436  0.0160
 5021W        W 8765   1.828   9.213   4.133 -0.4091  0.1976 -0.2265
 5022W        W 8766   8.888   4.795   9.899 -0.2228 -0.3208  0.3794
 5023W        W 8767   0.263   7.218   0.063  0.3096 -0.0194  0.3122
 5024W        W 8768   1.522   9.635  11.594  0.2145 -0.0872 -0.3150
 5025W        W 8769   2.148   7.482   4.699  0.1635  0.0679 -0.0386
 5026W        W 8770   5.219   4.325   9.697 -0.0993  0.1250 -0.1982
 5027W        W 8771   6.905   6.884   3.487 -0.1719 -0.0347  0.1522
 5028W        W 8772   5.496   9.429   1.183 -0.0028 -0.2928 -0.2283
 5029W        W 8773   8.166   0.760   3.222 -0.0695 -0.2318 -0.1394
 5030W        W 8774   4.879   6.066   4.094  0.1070  0.0581 -0.1934
 5031W        W 8775   0.333   5.773  11.572 -0.0327  0.2118 -0.0609
 5032W        W 8776   1.056   7.725   9.365 -0.0425  0.1193 -0.0087
 5033W        W 8777   8.293   2.407  10.076  0.2652 -0.0208  0.1487
 5034W        W 8778   5.143   0.586  11.205  0.1162  0.5256 -0.0706
 5035W        W 8779   3.987   1.892  10.465 -0.1662 -0.0377 -0.4950
 5036W        W 8780   7.907   6.613   3.035  0.2201  0.1285  0.0363
 5037W        W 8781   4.970   3.799  12.043  0.1385  0.4559 -0.4546
 5038W        W 8782   2.767   7.002  11.936  0.1191  0.2445  0.5153
 5039W        W 8783   7.956   7.198   8.683 -0.0466 -0.0044 -0.1303
 5040W        W 8784   8.313   2.611  10.697 -0.1535 -0.0983  0.2486
 5041W        W 8785   8.498   8.440   8.207 -0.0630  0.0641  0.2182
 5042W        W 8786   1.589   2.867   1.167 -0.0048 -0.0456  0.2597
 5043W        W 8787   1.135   5.218   2.131 -0.0506 -0.1915  0.1088
 5044W        W 8788   6.172   8.533   0.465 -0.0052  0.3564  0.1940
 5045W        W 8789   6.999   0.744   2.168  0.0034 -0.2714  0.1013
 5046W        W 8790   4.336   7.773  12.205  0.1905 -0.0148  0.2201
 5047W        W 8791   3.211   1.713  10.260 -0.0286 -0.0412  0.1475
 5048W        W 8792   7.820   2.467  10.759 -0.1176  0.2538  0.0880
 5049W        W 8793   9.669   0.808   9.254  0.0218 -0.0744 -0.4007
 5050W        W 8794   7.086   4.409   9.839 -0.0615 -0.2873 -0.1818
 5051W        W 8795   0.103   9.031   9.563 -0.1184  0.0625  0.2537
 5052W        W 8796   2.665   2.684  11.262  0.0445  0.0249  0.0118
 5053W        W 8797   3.493   2.171   1.558 -0.0398 -0.2388  0.1471
 5054W        W 8798   6.780   4.514   0.517  0.2715  0.0302  0.2483
 5055W        W 8799   2.741   4.689   2.086  0.3071 -0.2334  0.2296
 5056W        W 8800   2.318   9.804  11.140 -0.3121 -0.1041 -0.4319
 5057W        W 8801   2.341   5.216   0.027 -0.0930 -0.0873 -0.0214
 5058W        W 8802   4.161   4.410  11.874  0.1363  0.2278  0.1309
 5059W        W 8803   1.503   7.950  12.536 -0.4116  0.3027 -0.1317
 5060W        W 8804   0.914   5.986   8.446 -0.1868 -0.1038 -0.3810
 5061W        W 8805   3.144   1.501  12.424 -0.2257  0.0933  0.3213
 5062W        W 8806   8.874   0.008   9.073 -0.0868  0.2191 -0.1641
 5063W        W 8807   1.232   1.193   1.094 -0.2719  0.1832  0.0110
 5064W        W 8808   2.220   4.739  10.758 -0.2306  0.1985  0.1749
 5065W        W 8809   9.420   0.943  11.611  0.0951  0.1253  0.0814
 5066W        W 8810   4.600   7.261   0.975 -0.1806 -0.4040 -0.2708
 5067W        W 8811   1.347   7.251  12.105  0.1274 -0.0834  0.0971
 5068W        W 8812   0.068   3.365   0.480 -0.0560  0.0159  0.1099
 5069W        W 8813   3.481   7.658   3.600  0.1206 -0.1248 -0.1261
 5070W        W 8814   3.256   3.269   9.659 -0.0211 -0.4167 -0.0564
 5071W        W 8815   0.948   4.334   8.607 -0.0695 -0.1413 -0.2095
 5072W        W 8816   0.273   2.124   2.570 -0.1099  0.0542  0.1635
 5073W        W 8817   4.761   1.715   0.941 -0.1988 -0.2523 -0.3283
 5074W        W 8818   6.302   9.760   2.050  0.0224 -0.1005  0.0403
 5075W        W 8819   9.542   2.471   2.874 -0.1463 -0.0523 -0.3959
 5076W        W 8820   4.519   0.205   0.843 -0.2442 -0.1102 -0.0295
 5077W        W 8821   9.878   4.852  11.052  0.3087 -0.0269  0.2947
 5078W        W 8822   4.731   1.231   3.999 -0.4303 -0.2469  0.0992
 5079W        W 8823   8.267   8.066   7.983  0.1100 -0.1320 -0.2571
 5080W        W 8824   8.440   0.852   2.348 -0.1454 -0.2210  0.1420
 5081W        W 8825   7.507   3.905   1.751  0.4976 -0.2811 -0.2836
 5082W        W 8826   8.792   5.705   8.854 -0.0853  0.0691 -0.1916
 5083W        W 8827   3.994   4.265   1.650 -0.0354 -0.3854  0.0028
 5084W        W 8828   9.565   2.226   9.628  0.0481  0.0692 -0.3356
 5085W        W 8829   6.643   2.181   3.789 -0.2415 -0.2255  0.0043
 5086W        W 8830   3.279   5.792   3.836  0.1272  0.4238  0.1877
 5087W        W 8831   2.560   6.594   0.208 -0.0809 -0.1842 -0.1337
 5088W        W 8832   7.477   6.603  11.617 -0.3366  0.2091  0.0310
 5089W        W 8833   5.195   8.369   9.789  0.2002  0.0347 -0.0784
 5090W        W 8834   5.569   4.424   2.732 -0.0647  0.0680 -0.0600
 5091W        W 8835   7.756   0.585  11.716  0.1284 -0.1871 -0.2499
 5092W        W 8836   8.641   7.666   2.980 -0.2547 -0.0898 -0.3043
 5093W        W 8837   6.372   9.050   9.574 -0.1230  0.0287  0.1259
 5094W        W 8838   3.376   7.487   1.907  0.0182  0.3517  0.0845
 5095W        W 8839   2.700   4.805   8.806  0.3343 -0.0272 -0.0646
 5096W        W 8840   3.782   4.819   2.902 -0.1779 -0.2762  0.0078
 5097W        W 8841   6.907   0.802   1.061 -0.1090 -0.1553  0.0105
 5098W        W 8842   3.649   6.484   8.809 -0.1038 -0.1375  0.0659
 5099W        W 8843   2.018   1.447   1.432 -0.0736 -0.1370 -0.0250
 5100W        W 8844   1.623   9.328   2.457 -0.0385  0.0720 -0.0791
 5101W        W 8845   6.114   3.459   2.483  0.1281 -0.2182 -0.2442
 5102W        W 8846   5.649   6.815   7.964  0.1929 -0.0320  0.1677
 5103W        W 8847   6.393   0.796  11.086 -0.2063  0.1880 -0.2004
 5104W        W 8848   8.700   2.419   9.795 -0.1736  0.4339 -0.2021
 5105W        W 8849   3.937   6.120   4.286 -0.0899  0.3087 -0.0163
 5106W        W 8850   6.082   0.958  12.559  0.1448 -0.1359  0.0147
 5107W        W 8851   9.183   0.678  11.182 -0.0399  0.0951  0.0203
 5108W        W 8852   4.217   2.891   3.386 -0.1872 -0.0762 -0.1974
 5109W        W 8853   7.254   1.038   1.470  0.5408 -0.1657 -0.1176
 5110W        W 8854   2.391   5.249  11.414  0.2735 -0.3013  0.2342
 5111W        W 8855   1.893   9.785  10.574  0.1351 -0.3783  0.1691
 5112W        W 8856   0.666   7.327   0.367  0.1661  0.1072 -0.3929
 5113W        W 8857   6.527   5.215   9.899  0.2254  0.0091  0.1218
 5114W        W 8858   4.832   6.590   0.117  0.0005 -0.1916  0.0471
 5115W        W 8859   5.362   0.374  11.627  0.4684  0.1042 -0.0072
 5116W        W 8860   3.640   4.072  12.392  0.1654 -0.1098 -0.1719
 5117W        W 8861   3.526   1.028   0.721  0.0220 -0.0984 -0.1447
 5118W        W 8862   7.459   1.564   9.455 -0.0634  0.2478 -0.0217
 5119W        W 8863   0.647   3.829  12.670 -0.1165 -0.0084  0.2090
 5120W        W 8864   9.156   7.644   9.636  0.2025 -0.0537  0.2277
 5121W        W 8865   3.401   3.413  10.885 -0.2444  0.2357 -0.1315
 5122W        W 8866   9.168   6.921  10.279  0.0979 -0.0240 -0.2324
 5123W        W 8867   3.728   6.232   3.170 -0.4673 -0.0346 -0.2436
 5124W        W 8868   2.620   9.355   0.393 -0.2996 -0.2129  0.0638
 5125W        W 8869   7.567   2.497   1.099  0.1632 -0.0056 -0.0944
 5126W        W 8870   8.239   8.884   9.629  0.2833  0.0271  0.2658
 5127W        W 8871   3.821   6.723   3.457 -0.0860  0.2018 -0.0654
 5128W        W 8872   3.802   1.048  10.166 -0.0428 -0.0135  0.0523
 5129W        W 8873   1.780   7.403  11.915  0.2392 -0.1133  0.0908
 5130W        W 8874   0.671   3.453   2.633 -0.1238 -0.3451 -0.0370
 5131W        W 8875   4.352   6.069  11.953 -0.5103 -0.0992  0.2573
 5132W        W 8876   3.729   8.238   3.694  0.1372 -0.0518  0.2246
 5133W        W 8877   2.120   7.246   8.820 -0.0546  0.2865 -0.0980
 5134W        W 8878   8.740   3.354   9.800 -0.0025  0.0066 -0.1306
 5135W        W 8879   3.583   6.597  12.154 -0.1627  0.0870 -0.0656
 5136W        W 8880   0.613   7.549  12.770 -0.3144  0.1817 -0.2342
 5137W        W 8881   3.628   7.172   0.319 -0.1553 -0.1625  0.0753
 5138W        W 8882   9.304   3.423  11.321  0.1248  0.0739  0.1345
 5139W        W 8883   6.410   0.009   9.185 -0.0569  0.0230 -0.0109
 5140W        W 8884   7.564   8.418   0.500  0.1313  0.0257 -0.2318
 5141W        W 8885   8.623   7.815   1.870 -0.2738  0.2580  0.1382
 5142W        W 8886   0.017   4.301  11.891  0.0501  0.1547  0.1152
 5143W        W 8887   7.497   1.533   1.580  0.0191  0.0494 -0.3952
 5144W        W 8888   8.996   6.020   2.322 -0.1046  0.1482  0.1137
 5145W        W 8889   3.990   7.997   9.743 -0.1055  0.0231 -0.0151
 5146W        W 8890   6.183   6.225   3.592 -0.2390  0.1527 -0.0768
 5147W        W 8891   4.864   6.050   1.666 -0.0871  0.1207  0.3099
 5148W        W 8892   6.569   9.642  12.750  0.3423  0.1102  0.0046
 5149W        W 8893   0.590   5.449   9.190 -0.0102 -0.4772  0.1424
 5150W        W 8894   6.875   9.407  11.317 -0.1697  0.2078  0.1228
 5151W        W 8895   8.383   5.714  10.673 -0.2008  0.3389 -0.0620
 5152W        W 8896   7.112   7.519  10.488 -0.0794 -0.0658  0.3767
 5153W        W 8897   3.027   1.048  11.262  0.2108 -0.2492  0.0819
 5154W        W 8898   2.191   2.161  10.863  0.0555  0.3074  0.3652
 5155W        W 8899   8.441   3.009   9.982 -0.0336 -0.2561  0.1101
 5156W        W 8900   8.184   5.311   3.000 -0.5712  0.0540  0.0988
 5157W        W 8901   2.269   9.483   4.057  0.1024 -0.1664 -0.2412
 5158W        W 8902   8.679   0.004   1.631 -0.0175 -0.1559 -0.0925
 5159W        W 8903   0.648   1.487   1.821  0.1364 -0.0983 -0.4852
 5160W        W 8904   0.819   2.299   1.620 -0.2205 -0.2897 -0.0601
 5161W        W 8905   2.517   7.343   4.392  0.0423 -0.0198 -0.2096
 5162W        W 8906   4.919   6.905   2.485  0.1465 -0.0273 -0.0824
 5163W        W 8907   5.872   8.608   0.830  0.0241 -0.0527  0.1317
 5164W        W 8908   8.251   1.986   4.290 -0.0826 -0.0728 -0.0450
 5165W        W 8909   4.560   9.667   1.095  0.1946 -0.3893  0.1249
 5166W        W 8910   0.985   3.723  10.315 -0.2032 -0.2584 -0.1138
 5167W        W 8911   3.016   0.050   2.959  0.1564 -0.1089  0.4200
 5168W        W 8912   7.393   3.609   0.277  0.3812  0.1166  0.0959
 5169W        W 8913   0.636   0.764   0.650  0.2479 -0.0009 -0.2681
 5170W        W 8914   3.330   3.731   1.511  0.1390  0.0256 -0.1727
 5171W        W 8915   0.592   9.559  11.737  0.0132  0.2008  0.2243
 5172W        W 8916   3.539   4.840   0.137 -0.2472 -0.4372 -0.0932
 5173W        W 8917   9.374   3.108   2.078 -0.3718 -0.1536 -0.1066
 5174W        W 8918   0.088   8.817  10.686 -0.0706 -0.0824  0.1617
 5175W        W 8919   9.155   2.253   2.623  0.1064  0.1617 -0.0256
 5176W        W 8920   6.192   2.144  12.259 -0.0758  0.1275 -0.0182
 5177W        W 8921   9.884   8.310  10.913  0.1327  0.0279 -0.1182
 5178W        W 8922   5.009   3.892  12.818 -0.0054 -0.1955  0.2452
 5179W        W 8923   6.926   4.074   8.634  0.0595 -0.1159 -0.1492
 5180W        W 8924   0.716   9.555  11.211 -0.1311 -0.0435 -0.0302
 5181W        W 8925   1.986   5.878   2.047  0.0206 -0.1314  0.1027
 5182W        W 8926   7.968   5.710  12.354  0.2915 -0.1211  0.4257
 5183W        W 8927   1.607   8.360  11.444  0.2884 -0.5088 -0.2239
 5184W        W 8928   1.298   0.033  12.681 -0.0235  0.1626 -0.0210
 5185W        W 8929   8.662   9.481   1.098  0.0424 -0.0620  0.0199
 5186W        W 8930   1.607   1.685  11.472  0.0790 -0.0966 -0.0252
 5187W        W 8931   0.158   1.722   4.034 -0.0001 -0.1001 -0.0662
 5188W        W 8932   9.076   2.142   3.798  0.0371  0.0444 -0.0492
 5189W        W 8933   6.544   6.785   3.893 -0.3589  0.2577  0.2580
 5190W        W 8934   4.712   2.175   9.897 -0.0374 -0.1230 -0.0033
 5191W        W 8935   2.895   2.969  12.721  0.0097 -0.1135  0.1481
 5192W        W 8936   1.380   9.285   0.763  0.0580  0.2004 -0.1490
 5193W        W 8937   3.370   1.507   0.981  0.0228 -0.1558  0.0111
 5194W        W 8938   0.973   7.857   8.649 -0.3690  0.2384  0.0708
 5195W        W 8939   5.202   3.068   0.786  0.0780 -0.0122 -0.0854
 5196W        W 8940   3.938   1.539  10.890 -0.1244  0.1575 -0.0527
 5197W        W 8941   9.603   5.414   9.328  0.1165  0.1137 -0.0353
 5198W        W 8942   1.746   6.843   1.224 -0.3304  0.0521  0.1625
 5199W        W 8943   6.233   1.141   3.885  0.4372 -0.0431  0.3377
 5200W        W 8944   2.900   8.010   1.046 -0.2176 -0.0974 -0.0493
 5201W        W 8945   2.430   6.655  11.865 -0.1953 -0.3144 -0.2268
 5202W        W 8946   4.129   1.883   9.976 -0.0456  0.2097  0.1935
 5203W        W 8947   7.715   3.684  11.444  0.1550  0.1811 -0.2427
 5204W        W 8948   9.680   7.840  11.106  0.1446 -0.0361  0.1675
 5205W        W 8949   9.266   4.862   8.942 -0.0172 -0.0920  0.0455
 5206W        W 8950   6.562   3.353   9.483  0.3003 -0.3349 -0.0087
 5207W        W 8951   8.581   6.547   4.419  0.4327  0.2301  0.4065
 5208W        W 8952   7.688   6.233   4.416 -0.1150 -0.0459  0.1468
 5209W        W 8953   7.559   9.613  12.884 -0.2197  0.2328  0.1575
 5210W        W 8954   5.662   1.870   2.641  0.0311 -0.0550 -0.0407
 5211W        W 8955   1.303   1.946   4.176  0.1802 -0.1295 -0.0808
 5212W        W 8956   2.052   9.525   2.635  0.0015  0.0438 -0.0148
 5213W        W 8957   2.516   7.050   9.120 -0.2500 -0.0222 -0.0788
 5214W        W 8958   9.869   9.885   4.005 -0.3085 -0.0336 -0.4494
 5215W        W 8959   7.619   2.504   3.456  0.2834 -0.1844 -0.0991
 5216W        W 8960   2.780   4.995   2.953 -0.1612  0.3463 -0.2077
 5217W        W 8961   4.230   6.761   3.774  0.0047  0.3093  0.3768
 5218W        W 8962   1.970   5.630   3.772 -0.2988  0.1747 -0.2052
 5219W        W 8963   6.217   3.161   3.907  0.2635  0.1580  0.0777
 5220W        W 8964   8.118   3.159  11.903  0.2213 -0.1616 -0.0384
 5221W        W 8965   6.799   8.850  10.010 -0.2146 -0.0152 -0.1869
 5222W        W 8966   3.757   7.369   0.808 -0.0866 -0.0237 -0.3926
 5223W        W 8967   4.607   5.775   3.275 -0.2955  0.0821  0.4986
 5224W        W 8968   3.255   8.688  10.922  0.1696 -0.0477 -0.0503
 5225W        W 8969   7.056   0.254   1.260 -0.0667 -0.0029  0.1666
 5226W        W 8970   5.119   9.766   2.991  0.1149 -0.1546  0.1879
 5227W        W 8971   0.655   0.705   9.456 -0.1106 -0.0287  0.3130
 5228W        W 8972   7.212   2.002  11.928  0.0657 -0.0370 -0.2423
 5229W        W 8973   7.700   8.572   1.478  0.1254 -0.0735  0.1296
 5230W        W 8974   4.875   4.691  12.027  0.2900 -0.1310 -0.0091
 5231W        W 8975   3.330   7.528   0.488 -0.0424  0.1682  0.1926
 5232W        W 8976   8.617   3.661   1.188 -0.1174 -0.1910  0.1779
 5233W        W 8977   9.868   8.916  12.630 -0.2597 -0.1027  0.1591
 5234W        W 8978   7.529   7.521   8.576  0.0169 -0.0356  0.0861
 5235W        W 8979   8.141   5.675   3.336  0.2950 -0.1687  0.2871
 5236W        W 8980   8.029   2.658   0.453 -0.1748  0.1075 -0.0991
 5237W        W 8981   6.945   5.461   9.172 -0.0625 -0.1743 -0.2397
 5238W        W 8982   3.445   0.091  11.830 -0.1226  0.0555 -0.2208
 5239W        W 8983   1.199   3.101   2.091 -0.0137 -0.2530  0.0473
 5240W        W 8984   7.713   5.419   0.430  0.0867  0.2672  0.1406
 5241W        W 8985   9.555   2.986   1.613 -0.4382 -0.1970 -0.0005
 5242W        W 8986   7.593   1.903  10.305  0.0531 -0.3764 -0.2174
 5243W        W 8987   4.623   6.483  12.318  0.1104  0.1494  0.1396
 5244W        W 8988   3.940   7.470   9.837 -0.0702 -0.0747 -0.0377
 5245W        W 8989   6.892   8.957   9.563 -0.1914  0.0463  0.2206
 5246W        W 8990   5.508   3.358   1.540 -0.0037  0.0128 -0.0686
 5247W        W 8991   7.713   8.008   1.522  0.2546 -0.2641 -0.1194
 5248W        W 8992   8.923   4.285  10.262  0.2270 -0.1795  0.1778
 5249W        W 8993   7.114   3.598   4.142  0.1230 -0.0525  0.2887
 5250W        W 8994   0.211   1.197   3.028 -0.0477 -0.0014 -0.1505
 5251W        W 8995   3.664   3.341   2.676 -0.1539 -0.0581 -0.1037
 5252W        W 8996   1.692   0.077   2.913  0.1817  0.1397 -0.2275
 5253W        W 8997   4.896   8.913   0.932 -0.2097 -0.0195 -0.0962
 5254W        W 8998   6.797   5.614  10.601  0.0190  0.1700 -0.1471
 5255W        W 8999   1.323   2.767  10.586 -0.3562  0.2386  0.0990
 5256W        W 9000   1.534   9.223   9.602  0.0678  0.0973 -0.0311
 5257W        W 9001   3.236   1.885   1.870 -0.2192 -0.2238 -0.0320
 5258W        W 9002   5.925   1.738   9.444 -0.1644 -0.1388  0.0134
 5259W        W 9003   1.611   0.843   0.939  0.0946  0.3955 -0.2273
 5260W        W 9004   1.608   5.230  11.515  0.0380 -0.3246  0.1531
 5261W        W 9005   0.507   7.388  11.852 -0.2310  0.0668 -0.1917
 5262W        W 9006   9.859   8.324  11.892  0.4871  0.0049 -0.0263
 5263W        W 9007   2.997   5.995  12.602 -0.1710  0.0771  0.1338
 5264W        W 9008   3.472   7.770   3.104 -0.4960  0.0179 -0.1459
 5265W        W 9009   0.072   3.879   0.454  0.1086 -0.0433 -0.0030
 5266W        W 9010   8.361   6.089   2.422  0.1077 -0.3236  0.0545
 5267W        W 9011   3.766   7.397  11.722 -0.0585 -0.2133  0.1785
 5268W        W 9012   1.985   3.630  11.335 -0.1003  0.0016 -0.3738
 5269W        W 9013   8.177   0.754   0.353 -0.1517  0.1450  0.1134
 5270W        W 9014   2.358   7.343   0.817  0.1122 -0.0185  0.1780
 5271W        W 9015   1.133   4.970   9.128 -0.1821  0.1207  0.2824
 5272W        W 9016   7.387   6.172   2.498 -0.1791 -0.0639 -0.0499
 5273W        W 9017   8.120   2.152  10.473 -0.0799  0.4087  0.1343
 5274W        W 9018   1.492   7.913   2.265 -0.1135 -0.2347 -0.3263
 5275W        W 9019   1.791   2.559   0.725  0.0433  0.2568 -0.1528
 5276W        W 9020   1.865   9.608   9.385 -0.0273 -0.1367 -0.6316
 5277W        W 9021   7.507   1.563  11.028 -0.0819 -0.1094 -0.2848
 5278W        W 9022   3.931   0.223  11.909  0.0499  0.2738  0.0142
 5279W        W 9023   4.281   5.777  11.506 -0.0905  0.0224 -0.0001
 5280W        W 9024   9.030   0.951   3.072 -0.1689 -0.0578  0.1873
 5281W        W 9025   1.260   1.698   2.212 -0.3564 -0.1119  0.1054
 5282W        W 9026   0.433   2.532   9.888 -0.0733  0.4289 -0.0863
 5283W        W 9027   2.168   4.407   1.357 -0.2195  0.1249 -0.0691
 5284W        W 9028   9.215   2.480  12.156 -0.0514 -0.0524 -0.1000
 5285W        W 9029   4.693   3.670  10.610  0.1397 -0.1234 -0.2976
 5286W        W 9030   8.346   6.577   9.136  0.0971  0.1696 -0.2736
 5287W        W 9031   6.009   4.133  10.746 -0.2334  0.2210 -0.0931
 5288W        W 9032   7.411   2.310   2.221  0.0284  0.0682  0.0421
 5289W        W 9033   8.052   5.495   1.665  0.0109  0.1623 -0.1127
 5290W        W 9034   5.496   9.884  11.912 -0.2010 -0.0780  0.0399
 5291W        W 9035   7.708   2.043   3.290  0.1255  0.1721 -0.0503
 5292W        W 9036   8.664   5.356   3.131 -0.2709 -0.2080  0.0645
 5293W        W 9037   1.118   9.401   2.098 -0.1767 -0.2246 -0.0256
 5294W        W 9038   6.787   6.127  10.786 -0.0649  0.0160 -0.0939
 5295W        W 9039   2.001   0.248   1.375 -0.2162  0.0024 -0.3217
 5296W        W 9040   7.229   4.242  12.436  0.0621 -0.2163  0.2206
 5297W        W 9041   9.000   8.858   5.105 -0.3290 -0.4667 -0.2255
 5298W        W 9042   3.005   0.360   4.776  0.2893  0.3430  0.5725
 5299W        W 9043   6.861   9.338   0.749  0.2883 -0.0247  0.5363
 5300W        W 9044   9.635   1.148  11.980  0.1695 -0.1554  0.2805
 5301W        W 9045   8.420   8.143  11.944  0.1905  0.4230  0.0670
 5302W        W 9046   5.022   6.248  12.554 -0.1145  0.0606  0.0311
 5303W        W 9047   9.687   8.449   3.877 -0.0933  0.0019  0.1568
 5304W        W 9048   0.111   5.916   0.648  0.0515  0.0804 -0.2004
 5305W        W 9049   2.591   3.679  12.848 -0.2294 -0.2686  0.1231
 5306W        W 9050   6.799   6.826   8.682 -0.2335 -0.2482 -0.2636
 5307W        W 9051   8.588   7.570   4.109  0.1669 -0.0857  0.2294
 5308W        W 9052   1.094   8.982   2.292  0.1693  0.0848  0.0840
 5309W        W 9053   4.636   9.752  11.041 -0.3134  0.0812 -0.0608
 5310W        W 9054   4.967   3.910   2.191  0.0362  0.0291  0.2261
 5311W        W 9055   7.660   4.089  11.855 -0.1330  0.0168  0.1733
 5312W        W 9056   8.409   6.405   1.340  0.3425  0.0694  0.1272
 5313W        W 9057   4.392   1.834   8.828 -0.2239  0.0294 -0.1914
 5314W        W 9058   6.591   8.933   4.263 -0.3313 -0.0296 -0.0164
 5315W        W 9059   0.100   2.033   3.574 -0.3214  0.0289  0.0433
 5316W        W 9060   4.117   9.216  12.680  0.3053  0.1078 -0.1979
 5317W        W 9061   7.878   3.233  11.480  0.0300 -0.0053 -0.1525
 5318W        W 9062   0.790   1.623   0.241 -0.0310 -0.0072  0.2567
 5319W        W 9063   6.673   6.035   9.891 -0.0943 -0.0608 -0.4703
 5320W        W 9064   6.639   4.784   1.414 -0.1328  0.0705  0.0397
 5321W        W 9065   5.840   5.543   3.982  0.0879 -0.2197  0.0696
 5322W        W 9066   2.362   3.954   0.444  0.0733  0.0363  0.2048
 5323W        W 9067   8.815   4.118   0.204 -0.0906 -0.1413 -0.1055
 5324W        W 9068   8.318   9.858   2.632 -0.0913  0.1194  0.2784
 5325W        W 9069   9.243   4.642  12.387 -0.1616 -0.2109  0.0513
 5326W        W 9070   6.314   8.741  12.460  0.2585  0.0709 -0.5329
 5327W        W 9071   8.149   3.155   8.896  0.0385 -0.3354  0.0079
 5328W        W 9072   7.560   6.122   2.001  0.2139  0.1715  0.0173
 5329W        W 9073   6.278   3.617   2.016  0.1793  0.0163 -0.2666
 5330W        W 9074   5.576   1.676  11.659 -0.0578 -0.2625 -0.2720
 5331W        W 9075   8.560   1.626   2.471 -0.2656  0.3027  0.2491
 5332W        W 9076   7.619   8.367   1.963  0.2604 -0.1186  0.3457
 5333W        W 9077   6.993   0.817  11.225 -0.0099 -0.0561 -0.0454
 5334W        W 9078   2.469   4.323  11.088  0.0476  0.2217  0.0178
 5335W        W 9079   0.039   9.113   3.121  0.0458 -0.0051 -0.4034
 5336W        W 9080   3.138   5.117  12.630 -0.0981  0.1215  0.0517
 5337W        W 9081   3.511   7.926  11.085 -0.1216 -0.0718  0.1767
 5338W        W 9082   4.790   1.891  10.810  0.0803  0.0686 -0.0915
 5339W        W 9083   9.848   7.587  10.145  0.0153 -0.2179  0.3466
 5340W        W 9084   3.324   9.436  12.282 -0.3542 -0.2923 -0.0755
 5341W        W 9085   5.325   2.995   0.349  0.0294  0.2598 -0.0438
 5342W        W 9086   2.095   0.076  11.564 -0.1084 -0.1650 -0.1121
 5343W        W 9087   5.447   8.707   2.917 -0.2828 -0.0790 -0.1786
 5344W        W 9088   6.284   2.040  11.779 -0.3321 -0.3317 -0.0292
 5345W        W 9089   0.285   3.084  11.206  0.3531 -0.1257 -0.0213
 5346W        W 9090   5.150   1.620   4.566 -0.2505  0.3058 -0.0968
 5347W        W 9091   4.606   6.220   3.636 -0.1301 -0.1423 -0.1871
 5348W        W 9092   3.530   8.433   9.363 -0.1163 -0.2335 -0.0615
 5349W        W 9093   3.258   9.806  12.680  0.0566  0.0015 -0.0732
 5350W        W 9094   8.063   6.355   9.692  0.1224  0.1279  0.3345
 5351W        W 9095   6.749   3.503   3.785  0.0065  0.0182  0.2106
 5352W        W 9096   4.985   7.735  11.352  0.0088 -0.0038  0.0975
 5353W        W 9097   3.652   6.558   1.779  0.0251  0.5493  0.0264
 5354W        W 9098   1.092   0.479   2.873  0.1291  0.0062  0.3544
 5355W        W 9099   6.077   5.164  11.971 -0.0405  0.1705  0.0040
 5356W        W 9100   2.266   9.688   0.636 -0.1509  0.1010 -0.0314
 5357W        W 9101   5.414   7.711   0.778 -0.5332  0.1947  0.3074
 5358W        W 9102   4.411   5.433   1.668  0.0253  0.0301  0.4103
 5359W        W 9103   6.625   6.456   1.990  0.0017  0.0436 -0.0697
 5360W        W 9104   7.382   5.333   1.673 -0.4648  0.0257  0.1491
 5361W        W 9105   0.790   8.585   2.016  0.1185  0.1030 -0.3776
 5362W        W 9106   8.388   8.497   3.891 -0.3179  0.0961 -0.1645
 5363W        W 9107   5.079   7.837   8.677  0.5784 -0.1133  0.2240
 5364W        W 9108   1.729   2.746   3.255  0.2474 -0.2352 -0.0164
 5365W        W 9109   5.833   1.292  10.654  0.1458  0.0649  0.0495
 5366W        W 9110   9.125   6.997   2.910 -0.0999  0.1582 -0.0360
 5367W        W 9111   1.385   0.238   0.259  0.1189 -0.1309  0.2874
 5368W        W 9112   0.936   8.458  10.785 -0.2023  0.1887 -0.0868
 5369W        W 9113   6.167   9.092   1.060  0.2801  0.1122  0.2236
 5370W        W 9114   1.118   4.386   9.668  0.0234  0.2080 -0.1172
 5371W        W 9115   1.203   7.209   0.398  0.2836 -0.0186 -0.0341
 5372W        W 9116   5.679   1.471  11.204  0.1471  0.1949  0.2321
 5373W        W 9117   3.255   1.328   3.044 -0.1919  0.0604  0.1103
 5374W        W 9118   8.219   1.580  11.753 -0.0168 -0.1197 -0.0464
 5375W        W 9119   0.757   5.752  10.620  0.1585  0.0301  0.0694
 5376W        W 9120   0.486   0.007   1.648 -0.2392  0.1712  0.2477
 5377W        W 9121   9.276   5.653  10.848 -0.2227 -0.0937  0.1026
 5378W        W 9122   4.254   8.459   3.004 -0.2582 -0.1324  0.0646
 5379W        W 9123   1.342   8.406  12.325 -0.0755  0.1710 -0.0198
 5380W        W 9124   9.628   2.421   0.541 -0.0684 -0.2705 -0.0777
 5381W        W 9125   2.880   7.203   9.425  0.4127 -0.4043 -0.0612
 5382W        W 9126   8.439   0.915   8.364 -0.0922 -0.2466  0.1287
 5383W        W 9127   2.694   1.099  12.319 -0.2999 -0.1392 -0.0926
 5384W        W 9128   0.972   9.886  11.579 -0.1680 -0.2214  0.1612
 5385W        W 9129   4.657   7.669  11.703 -0.0880 -0.2968  0.1695
 5386W        W 9130   1.053   6.581  10.090 -0.0344 -0.0497  0.2916
 5387W        W 9131   8.250   2.747   0.946  0.0867  0.0033  0.0345
 5388W        W 9132   1.272   2.234  10.550 -0.1849 -0.1135 -0.2672
 5389W        W 9133   6.830   3.967  10.490  0.0446  0.0361  0.1686
 5390W        W 9134   8.767   7.291   2.710 -0.1456  0.3924  0.1641
 5391W        W 9135   5.042   5.595   0.993 -0.1560 -0.0833 -0.0422
 5392W        W 9136   0.034   0.845  11.627  0.1357 -0.0451  0.1669
 5393W        W 9137   7.198   8.214   2.958 -0.0952  0.1205 -0.1914
 5394W        W 9138   1.223   8.648  11.888 -0.1250  0.0299 -0.1157
 5395W        W 9139   9.259   1.413   3.236  0.1523 -0.0887 -0.0786
 5396W        W 9140   2.247   3.588   9.676 -0.0430  0.4875  0.0259
 5397W        W 9141   1.449   7.179   8.065  0.2181  0.1500  0.3073
 5398W        W 9142   5.684   6.387   0.671  0.4169  0.3317  0.0797
 5399W        W 9143   6.268   4.524  11.124  0.0216  0.0744 -0.1905
 5400W        W 9144   4.080   7.313  12.196 -0.0071  0.1990 -0.0920
 5401W        W 9145   4.972   3.009  12.865 -0.0726  0.1065  0.0848
 5402W        W 9146   0.885   3.318  11.108  0.0252 -0.3100  0.1942
 5403W        W 9147   1.594   1.792  10.237 -0.2672 -0.2973  0.0978
 5404W        W 9148   9.049   9.175  10.411  0.0987  0.0519 -0.1186
 5405W        W 9149   5.866   7.214  11.590  0.0074 -0.4595 -0.4266
 5406W        W 9150   4.364   0.324   1.866  0.4111 -0.0919  0.1788
 5407W        W 9151   4.406   0.675  12.552 -0.0026  0.2433  0.1912
 5408W        W 9152   5.859   5.226   3.429  0.0343  0.4510 -0.0576
 5409W        W 9153   1.318   7.122   3.164  0.2969 -0.0405  0.0058
 5410W        W 9154   5.634   2.460   1.826  0.0375 -0.0157  0.2035
 5411W        W 9155   1.713   8.986   0.755 -0.1949  0.1422  0.1661
 5412W        W 9156   7.419   5.678   9.938 -0.0529  0.0464  0.0412
 5413W        W 9157   9.564   4.634  10.666  0.2320  0.0511 -0.1040
 5414W        W 9158   9.780   4.196   2.509  0.3632 -0.0504 -0.0206
 5415W        W 9159   4.879   7.009   4.210 -0.2993  0.0309  0.0695
 5416W        W 9160   2.378   1.750   2.358 -0.1482 -0.2062 -0.2736
 5417W        W 9161   7.545   2.962  12.560 -0.6360  0.0540 -0.1654
 5418W        W 9162   0.287   8.283   2.092 -0.0577  0.2628  0.0694
 5419W        W 9163   3.900   1.350  11.637  0.0719 -0.0374  0.0959
 5420W        W 9164   6.950   7.707   1.213 -0.0601  0.0982 -0.1975
 5421W        W 9165   4.098   6.169   9.466 -0.2536 -0.0425 -0.0157
 5422W        W 9166   6.720   2.172   0.304 -0.0672  0.0118  0.0356
 5423W        W 9167   2.125   1.909  11.793 -0.1664  0.0208  0.1110
 5424W        W 9168   5.621   0.820   0.500  0.0991  0.1297 -0.0869
 5425W        W 9169   2.707   6.532   1.121 -0.0774  0.0189 -0.1856
 5426W        W 9170   6.009   2.700   9.767 -0.1898  0.1065 -0.1365
 5427W        W 9171   1.206   9.863   3.005  0.1703 -0.1552  0.4022
 5428W        W 9172   0.577   4.338   9.812  0.4044  0.1541 -0.0230
 5429W        W 9173   9.253   3.088   9.645  0.0057  0.2026 -0.0347
 5430W        W 9174   7.024   2.051   5.006  0.0183 -0.1934 -0.1121
 5431W        W 9175   8.377   0.551   1.354 -0.1219 -0.0080  0.1125
 5432W        W 9176   7.106   3.635  11.805  0.1407 -0.5040  0.0764
 5433W        W 9177   8.164   5.537   1.105 -0.0927 -0.1740 -0.0681
 5434W        W 9178   8.177   2.159   9.040 -0.1939  0.0574  0.1297
 5435W        W 9179   9.313   9.059   8.785 -0.1435 -0.0572  0.4880
 5436W        W 9180   8.760   2.323   3.460  0.1239 -0.1062  0.1838
 5437W        W 9181   5.459   6.448  10.287  0.0633  0.2615 -0.2066
 5438W        W 9182   4.772   4.007   0.912 -0.3991  0.2583  0.4011
 5439W        W 9183   5.340   3.213  11.527 -0.0990  0.0413  0.1698
 5440W        W 9184   6.236   3.947   3.242  0.2083  0.1865 -0.1895
 5441W        W 9185   1.636   0.095   1.075 -0.0621 -0.4241  0.0603
 5442W        W 9186   1.906   0.138   0.695 -0.1532  0.1666  0.0751
 5443W        W 9187   9.362   0.464   8.550  0.0589  0.1537  0.1793
 5444W        W 9188   2.737   1.661   3.632 -0.2648 -0.3211 -0.3450
 5445W        W 9189   7.310   3.334   1.235  0.1101  0.3960  0.0380
 5446W        W 9190   6.432   2.781   3.252 -0.0278 -0.0419  0.0496
 5447W        W 9191   2.645   4.221   2.312  0.1039 -0.0144  0.2823
 5448W        W 9192   2.569   1.558   1.460  0.1338 -0.2774 -0.1432
 5449W        W 9193   9.298   3.098   8.094 -0.0036  0.2774 -0.1707
 5450W        W 9194   4.710   7.394  12.078  0.0353  0.0567  0.3287
 5451W        W 9195   9.644   5.445  12.410 -0.1439 -0.1343 -0.0937
 5452W        W 9196   7.828   9.233   1.178  0.1552 -0.0894  0.0365
 5453W        W 9197   0.730   3.822   1.634  0.1241  0.0419 -0.1702
 5454W        W 9198   5.379   2.601  11.673 -0.4446 -0.0070 -0.1572
 5455W        W 9199   9.829   1.297   9.489  0.2544 -0.0834  0.0106
 5456W        W 9200   6.312   5.863  12.437  0.1296 -0.1966  0.3308
 5457W        W 9201   8.798   0.455   1.092 -0.2139  0.0687 -0.0136
 5458W        W 9202   3.163   5.685   0.155  0.2583 -0.2624 -0.0837
 5459W        W 9203   7.135   9.690   0.979 -0.0086  0.1708  0.0400
 5460W        W 9204   6.119   0.381   9.403  0.1575 -0.0924  0.0475
 5461W        W 9205   5.138   8.485   3.338 -0.0368 -0.0134  0.2618
 5462W        W 9206   7.971   9.451   2.838 -0.2155 -0.1975 -0.0699
 5463W        W 9207   4.260   7.391  11.667 -0.1068  0.1504  0.0920
 5464W        W 9208   9.269   0.498   2.906  0.0610 -0.3956 -0.1721
 5465W        W 9209   4.660   2.530   9.550 -0.0326 -0.0738 -0.0430
 5466W        W 9210   7.317   5.403  10.567 -0.4201  0.0139  0.2498
 5467W        W 9211   1.942   0.844  12.782 -0.1588  0.3998 -0.0956
 5468W        W 9212   9.443   6.507   3.921 -0.1084  0.2441  0.1276
 5469W        W 9213   0.605   9.340   3.831 -0.3527  0.1684 -0.2134
 5470W        W 9214   5.557   6.893   1.675 -0.2132  0.0244 -0.0661
 5471W        W 9215   1.527   8.292  10.517 -0.0571  0.1201  0.4734
 5472W        W 9216   6.435   6.669   3.422  0.1767 -0.0549  0.1947
 5473W        W 9217   2.099   8.804  11.508  0.2417 -0.2010  0.0160
 5474W        W 9218   0.421   4.017   1.976  0.2233 -0.0094 -0.0459
 5475W        W 9219   0.058   0.910  10.701  0.0786 -0.0072 -0.2845
 5476W        W 9220   5.458   8.305   2.079 -0.2515 -0.2162  0.0540
 5477W        W 9221   6.768   8.696  12.822  0.2900  0.1136 -0.0771
 5478W        W 9222   6.361   7.925  12.063  0.0826 -0.0155  0.0588
 5479W        W 9223   7.850   1.684  12.825 -0.0323 -0.0149 -0.0407
 5480W        W 9224   7.626   0.015   9.159  0.2151 -0.2555  0.3664
 5481W        W 9225   6.490   4.171   4.851 -0.0054  0.0013  0.1509
 5482W        W 9226   4.131   4.350  10.365  0.1310  0.1798 -0.0839
 5483W        W 9227   4.769   4.441  12.553  0.1925 -0.1753 -0.2013
 5484W        W 9228   6.834   7.887   9.741  0.1642  0.1360 -0.1189
 5485W        W 9229   1.037   9.321  11.573  0.6036 -0.5537  0.0166
 5486W        W 9230   5.587   4.329   4.772  0.1814 -0.2618  0.1018
 5487W        W 9231   4.373   7.442   9.121 -0.2519 -0.1667  0.1810
 5488W        W 9232   9.693   1.865   0.732  0.0569 -0.0175  0.0355
 5489W        W 9233   5.585   2.387   2.760 -0.0931  0.2875 -0.0978
 5490W        W 9234   2.539   0.651  12.136  0.0564  0.0618 -0.0572
 5491W        W 9235   7.917   3.061  10.711 -0.2900 -0.1012  0.0185
 5492W        W 9236   7.642   3.234   3.872  0.3224 -0.0570 -0.2564
 5493W        W 9237   0.558   0.762  10.321 -0.2310  0.0010 -0.0663
 5494W        W 9238   1.516   9.143  12.453  0.1331 -0.1647 -0.1282
 5495W        W 9239   2.053   4.057   9.716 -0.2346  0.2270 -0.0930
 5496W        W 9240   8.633   5.951  12.653  0.2027 -0.0639 -0.0552
 5497W        W 9241   4.661   1.811   4.624 -0.1992 -0.2438 -0.3142
 5498W        W 9242   3.440   6.692   2.527 -0.0432  0.2493  0.0252
 5499W        W 9243   7.812   1.526   1.234 -0.1395  0.2926  0.2886
 5500W        W 9244   5.259   0.422  10.023 -0.3284 -0.1622 -0.0550
 5501W        W 9245   7.032   8.052  10.342 -0.2927  0.2176 -0.1139
 5502W        W 9246   6.180   3.485  12.700  0.2008 -0.1954 -0.0428
 5503W        W 9247   3.842   5.362   2.986 -0.1155 -0.0401  0.0349
 5504W        W 9248   1.161   7.130   3.718  0.1777 -0.2013 -0.0522
 5505W        W 9249   1.265   3.318   0.081  0.1230  0.1432 -0.1676
 5506W        W 9250   4.910   2.816   3.508 -0.1135  0.0230  0.0902
 5507W        W 9251   7.849   6.947   3.371 -0.2642  0.1249 -0.0428
 5508W        W 9252   2.792   0.968   0.303 -0.0078 -0.0953 -0.2763
 5509W        W 9253   7.323   9.471   3.156  0.1014 -0.4089  0.1253
 5510W        W 9254   5.579   6.884  11.418 -0.0334 -0.1553 -0.3934
 5511W        W 9255   8.897   6.766  12.380 -0.0118  0.0991  0.3072
 5512W        W 9256   1.822   9.511   0.985  0.2012 -0.0269  0.2137
 5513W        W 9257   0.787   9.110  11.920 -0.1081 -0.0234 -0.2691
 5514W        W 9258   2.390   8.829   4.766 -0.0222 -0.0765  0.0209
 5515W        W 9259   6.599   2.721  11.111 -0.4410 -0.1287  0.1601
 5516W        W 9260   0.941   0.450  10.427  0.1448 -0.0482 -0.0674
 5517W        W 9261   9.687   3.467   1.882 -0.2430 -0.1241 -0.0955
 5518W        W 9262   4.333   4.099  11.484 -0.3837  0.1969 -0.1699
 5519W        W 9263   1.049   8.951   7.891  0.6605 -0.0984 -0.1328
 5520W        W 9264   0.074   6.122   8.735 -0.0777 -0.3276  0.2081
 5521W        W 9265   8.770   8.992  11.672  0.0301  0.1281  0.0700
 5522W        W 9266   7.025   0.422   0.763  0.1718  0.2095 -0.1262
 5523W        W 9267   6.086   2.894  12.814 -0.0919 -0.1038  0.0202
 5524W        W 9268   9.579   8.642  12.273 -0.4680 -0.1534  0.1374
 5525W        W 9269   8.921   7.388   1.128  0.1345  0.2050 -0.0111
 5526W        W 9270   1.719   0.890   3.463 -0.1295  0.0725 -0.0665
 5527W        W 9271   5.388   4.622  12.012 -0.0832 -0.1507  0.0656
 5528W        W 9272   1.827   8.617   2.999 -0.1214  0.0529  0.2252
 5529W        W 9273   2.036   9.529   2.138 -0.0893 -0.0474  0.2794
 5530W        W 9274   2.841   7.912   9.943 -0.1795  0.3022 -0.0483
 5531W        W 9275   0.875   5.025   0.395  0.2298  0.0947  0.4805
 5532W        W 9276   5.500   1.706   3.072  0.0535  0.3998 -0.1789
 5533W        W 9277   5.335   4.448   3.323 -0.3510  0.0617 -0.1254
 5534W        W 9278   2.831   1.718   9.052 -0.0109 -0.0848 -0.0696
 5535W        W 9279   4.711   0.773  12.162  0.0010 -0.1181  0.0599
 5536W        W 9280   2.515   2.750   0.072 -0.2827  0.4376 -0.4467
 5537W        W 9281   7.202   7.116   9.383  0.0275 -0.2498 -0.4207
 5538W        W 9282   0.366   8.578  12.702  0.2196 -0.2144  0.1492
 5539W        W 9283   8.874   1.561   2.933  0.1976  0.2168  0.1369
 5540W        W 9284   3.455   8.644   3.597  0.0797  0.0640 -0.0218
 5541W        W 9285   2.918   1.350   1.700  0.0830  0.0088  0.1077
 5542W        W 9286   8.656   9.556   4.701  0.1371  0.0993 -0.1471
 5543W        W 9287   2.153   4.897  11.717  0.1569 -0.1652  0.2793
 5544W        W 9288   3.718   7.632   0.135  0.3064  0.1670  0.1488
 5545W        W 9289   7.397   7.957  12.746 -0.0540 -0.3667  0.2696
 5546W        W 9290   7.586   4.707   8.530 -0.0222  0.0735  0.2930
 5547W        W 9291   9.675   0.371   1.641 -0.0397  0.1488  0.0834
 5548W        W 9292   0.076   3.068   2.243  0.1742 -0.1033 -0.4083
 5549W        W 9293   8.425   8.247   0.890  0.1296  0.0662  0.1684
 5550W        W 9294   8.277   7.312   3.414  0.0031 -0.2113 -0.0742
 5551W        W 9295   2.716   0.197   1.292 -0.0976  0.0748  0.0543
 5552W        W 9296   5.308   8.539   4.518  0.0066 -0.0037 -0.0415
 5553W        W 9297   7.135   9.701   1.530  0.2564 -0.2842  0.2405
 5554W        W 9298   6.624   6.167  11.944  0.2618  0.0231  0.1855
 5555W        W 9299   5.018   5.141   1.187 -0.1033  0.1418 -0.1746
 5556W        W 9300   7.398   1.659   2.279 -0.0276  0.1147 -0.0900
 5557W        W 9301   0.261   3.835   2.423  0.1366 -0.0827  0.1883
 5558W        W 9302   5.901   4.959   0.348 -0.4056 -0.0062  0.1692
 5559W        W 9303   0.531   0.923  11.642 -0.2411 -0.0284  0.0612
 5560W        W 9304   6.318   3.080   2.152 -0.0539  0.1570  0.0145
 5561W        W 9305   8.701   0.471  10.328 -0.2728  0.1287 -0.3225
 5562W        W 9306   7.543   5.488   9.370 -0.0842  0.1166  0.1052
 5563W        W 9307   7.405   2.591   8.573  0.0772 -0.0644 -0.0086
 5564W        W 9308   5.066   1.347  12.416 -0.0170 -0.3163 -0.4769
 5565W        W 9309   2.124   8.064   3.005 -0.4715 -0.3558 -0.0085
 5566W        W 9310   7.040   8.733  11.961 -0.1634 -0.1640 -0.0339
 5567W        W 9311   4.085   8.633   2.388 -0.0450  0.0830 -0.0181
 5568W        W 9312   6.240   1.580  10.808  0.1629  0.2797  0.1764
 5569W        W 9313   3.827   4.469   2.518 -0.0609 -0.0268 -0.0747
 5570W        W 9314   3.268   6.581   3.179  0.3757 -0.4067 -0.0186
 5571W        W 9315   5.588   4.816   3.593 -0.0537 -0.0793  0.2842
 5572W        W 9316   5.129   8.366   0.213  0.1130  0.0407  0.0584
 5573W        W 9317   7.156   8.672   0.738  0.0104 -0.1952  0.2234
 5574W        W 9318   2.455   9.200   2.068  0.2953  0.0184  0.2355
 5575W        W 9319   0.780   8.018   0.800 -0.0086 -0.0675 -0.2819
 5576W        W 9320   9.080   1.682   2.460  0.0656  0.3469 -0.2044
 5577W        W 9321   8.915   0.970   9.059 -0.0237 -0.4989 -0.1955
 5578W        W 9322   4.524   8.182   2.697 -0.3005 -0.0776  0.1432
 5579W        W 9323   9.126   5.205  11.123 -0.0538  0.1420 -0.0220
 5580W        W 9324   6.787   9.230   3.933  0.0914  0.0022  0.1348
 5581W        W 9325   4.687   0.256  10.463  0.0816  0.2009  0.1317
 5582W        W 9326   1.214   9.284   2.636 -0.0637  0.1829 -0.5053
 5583W        W 9327   5.535   9.270  12.706 -0.1352 -0.1791  0.2936
 5584W        W 9328   9.509   5.178   0.559  0.3961 -0.0140 -0.0491
 5585W        W 9329   8.985   6.540   4.729  0.0803 -0.1144 -0.1406
 5586W        W 9330   3.699   4.278   2.074  0.0055 -0.1172  0.0423
 5587W        W 9331   7.708   5.348   3.189  0.0752 -0.0519  0.2306
 5588W        W 9332   6.141   2.579  11.810  0.0061  0.2368  0.3871
 5589W        W 9333   6.956   1.972   2.111  0.1246  0.0265 -0.3224
 5590W        W 9334   0.597   7.720  12.198 -0.1011 -0.0312 -0.0366
 5591W        W 9335   3.805   1.773  12.703 -0.0539 -0.0041 -0.2070
 5592W        W 9336   9.532   4.310  11.025 -0.0132  0.0600  0.0585
 5593W        W 9337   1.837   7.613   2.105  0.1981 -0.0023 -0.3965
 5594W        W 9338   6.572   9.037   3.493  0.0120 -0.1524 -0.3004
 5595W        W 9339   7.989   9.739   0.382  0.1779  0.0643 -0.1869
 5596W        W 9340   7.653   2.460   1.778  0.0238  0.1508  0.0840
 5597W        W 9341   2.759   2.642   9.208  0.2203  0.2263 -0.2151
 5598W        W 9342   7.150   9.469   0.361  0.0008  0.0775  0.5021
 5599W        W 9343   3.667   6.683   9.277 -0.0837  0.0312 -0.0239
 5600W        W 9344   3.070   4.622  11.690 -0.1241  0.0097 -0.0145
 5601W        W 9345   6.717   5.291   1.267 -0.1476 -0.1362  0.2730
 5602W        W 9346   4.559   7.519  12.594 -0.0972  0.2658 -0.3174
 5603W        W 9347   7.023   9.381  10.460 -0.2402 -0.1171  0.0360
 5604W        W 9348   5.144   1.487   1.734 -0.3436  0.2855 -0.2608
 5605W        W 9349   7.664   2.871  11.147  0.0263  0.1283  0.2781
 5606W        W 9350   1.480   1.176   9.609 -0.2016 -0.0103  0.0005
 5607W        W 9351   3.537   3.202  10.038 -0.2940  0.1598 -0.2675
 5608W        W 9352   5.547   7.590  12.776 -0.0078  0.2708  0.0212
 5609W        W 9353   3.994   0.010   1.704 -0.1155 -0.3036 -0.5702
 5610W        W 9354   8.827   1.322   3.776  0.2921  0.1996  0.0548
 5611W        W 9355   9.562   5.233  11.360 -0.2052 -0.2855  0.0548
 5612W        W 9356   4.503   6.727   2.212  0.2705 -0.1724 -0.1036
 5613W        W 9357   4.315   4.339   9.725 -0.1841  0.0728  0.1841
 5614W        W 9358   7.140   1.181  12.447  0.0073  0.1530  0.1332
 5615W        W 9359   9.680   7.421   9.008 -0.3984  0.2160 -0.3081
 5616W        W 9360   1.225   4.827   1.297 -0.0743  0.0473 -0.2388
 5617W        W 9361   1.810   9.572  11.156 -0.1931  0.0046  0.1258
 5618W        W 9362   6.896   6.309   1.187  0.0761 -0.0023 -0.0695
 5619W        W 9363   8.564   5.210   2.643 -0.0231 -0.0255 -0.1162
 5620W        W 9364   5.879   0.159   3.472 -0.0669 -0.0664  0.1422
 5621W        W 9365   9.197   9.218   0.146  0.1337  0.1404 -0.1133
 5622W        W 9366   3.852   7.756  10.738  0.0317 -0.2941 -0.0098
 5623W        W 9367   3.611   6.367  10.715 -0.2385  0.0501  0.1690
 5624W        W 9368   7.687   4.441   0.180 -0.1005  0.0788 -0.2739
 5625W        W 9369   7.921   9.803   1.935 -0.2150 -0.1701  0.0178
 5626W        W 9370   6.074   2.927   8.888  0.2259  0.0336 -0.1317
 5627W        W 9371   2.280   4.985   3.000 -0.1805  0.0146  0.0099
 5628W        W 9372   6.142   7.354   2.129  0.1041 -0.0074 -0.2072
 5629W        W 9373   5.653   7.814   3.637 -0.2213  0.3505  0.2973
 5630W        W 9374   6.344   3.232   4.430  0.2538  0.0119  0.2680
 5631W        W 9375   9.196   5.667  11.358 -0.3838 -0.0378  0.0581
 5632W        W 9376   8.352   1.581  12.576 -0.1107  0.0299 -0.0693
 5633W        W 9377   4.602   6.942   9.813  0.2107  0.1343 -0.2654
 5634W        W 9378   4.104   3.006   1.568  0.1898  0.0372  0.1124
 5635W        W 9379   7.235   3.351   2.002 -0.0798 -0.2607 -0.0607
 5636W        W 9380   1.607   8.661   1.123 -0.2694  0.2602  0.1265
 5637W        W 9381   8.107   4.378   4.573 -0.0282  0.1286  0.2254
 5638W        W 9382   0.795   3.981   9.005 -0.3215 -0.1846  0.0515
 5639W        W 9383   1.819   5.566   1.041 -0.3799  0.3151  0.0137
 5640W        W 9384   5.196   1.235   9.533 -0.1500 -0.2410  0.0234
 5641W        W 9385   4.540   7.988  11.297  0.0558 -0.3177  0.0113
 5642W        W 9386   1.027   0.445  10.902 -0.2897 -0.2289 -0.1884
 5643W        W 9387   4.675   8.991  11.434 -0.2863  0.0758  0.0186
 5644W        W 9388   8.544   0.724  11.307  0.3079 -0.3167 -0.6589
 5645W        W 9389   5.959   3.903   9.790 -0.2699 -0.0470  0.4985
 5646W        W 9390   3.994   0.188   9.994 -0.2596 -0.1539  0.1898
 5647W        W 9391   2.474   6.619   1.540 -0.1535 -0.2529  0.2965
 5648W        W 9392   8.648   6.989   3.136  0.5274 -0.0649 -0.2636
 5649W        W 9393   0.049   7.345   1.166  0.2142  0.0979  0.1131
 5650W        W 9394   1.674   4.681  11.685 -0.1273 -0.0064  0.1334
 5651W        W 9395   8.208   3.341   9.608 -0.0041 -0.3963 -0.1560
 5652W        W 9396   2.523   9.652   2.860 -0.1278 -0.0750 -0.0113
 5653W        W 9397   7.104   9.875  11.340  0.2426  0.0290 -0.1321
 5654W        W 9398   7.024   8.043   3.390 -0.0961 -0.2418 -0.0541
 5655W        W 9399   8.740   7.101  10.541  0.3626  0.1408 -0.1309
 5656W        W 9400   2.361   8.523   2.925 -0.1714  0.0470  0.0825
 5657W        W 9401   1.335   3.900   9.370 -0.1502 -0.0112 -0.1425
 5658W        W 9402   5.863   7.628   0.670 -0.1495  0.0327 -0.3099
 5659W        W 9403   8.095   6.926   1.129  0.3254 -0.0037 -0.3137
 5660W        W 9404   3.327   1.025  12.272 -0.2821  0.0755 -0.2544
 5661W        W 9405   8.955   6.118   8.660  0.0275  0.0267 -0.0937
 5662W        W 9406   3.812   5.835   9.143 -0.3772  0.0033 -0.0909
 5663W        W 9407   6.075   9.081  11.572 -0.0367 -0.2938  0.0909
 5664W        W 9408   4.574   4.656   2.963  0.1559  0.3632  0.1093
 5665W        W 9409   3.556   4.287  11.048 -0.1112  0.1003 -0.0087
 5666W        W 9410   1.438   0.870   9.980  0.0880  0.0503 -0.1707
 5667W        W 9411   5.974   3.992   4.880  0.0317  0.2756  0.0972
 5668W        W 9412   5.787   2.119  11.636  0.2786  0.0367 -0.1101
 5669W        W 9413   8.698   1.479  12.042 -0.2921  0.2058  0.5723
 5670W        W 9414   5.719   5.479   2.971 -0.0691 -0.0542 -0.3359
 5671W        W 9415   1.965   0.948   9.739 -0.1570 -0.1570  0.0697
 5672W        W 9416   7.477   9.110  12.780  0.1645 -0.0117  0.0435
 5673W        W 9417   7.060   2.175  10.157 -0.2184  0.1621  0.1671
 5674W        W 9418   5.559   9.096  10.828  0.1069 -0.2809  0.1123
 5675W        W 9419   5.863   8.890  12.780  0.1208  0.2083 -0.1735
 5676W        W 9420   7.389   9.182  11.285 -0.0851  0.1041  0.3423
 5677W        W 9421   7.403   4.792   9.031  0.1861 -0.1831 -0.1520
 5678W        W 9422   3.097   5.362   9.429 -0.0642 -0.2815  0.0728
 5679W        W 9423   3.679   9.136  12.466  0.2023 -0.2534 -0.0877
 5680W        W 9424   4.807   5.304  11.749 -0.1698  0.0480  0.0239
 5681W        W 9425   0.263   1.841   9.533  0.2528  0.3167 -0.0537
 5682W        W 9426   4.309   2.265  11.233  0.1351 -0.0971  0.0962
 5683W        W 9427   2.972   5.682   9.732  0.2558 -0.0890 -0.0895
 5684W        W 9428   4.532   5.813  10.240 -0.1514  0.0634 -0.0715
 5685W        W 9429   1.121   7.188  10.124 -0.2053 -0.0047 -0.0121
 5686W        W 9430   8.971   7.355   3.281 -0.1096  0.1354 -0.1083
 5687W        W 9431   6.399   5.231   2.645 -0.2071  0.3899 -0.2372
 5688W        W 9432   0.828   1.221  11.223 -0.1621  0.1323  0.0698
 5689W        W 9433   0.860   2.377  10.161  0.2505  0.1508 -0.0197
 5690W        W 9434   2.070   4.299   7.039 -0.0629  0.3297 -0.0800
 5691W        W 9435   3.333   2.305  11.984 -0.5477  0.0509 -0.2085
 5692W        W 9436   6.659   4.223   2.996 -0.0556 -0.4067 -0.0718
 5693W        W 9437   5.242   6.606   8.292  0.0070  0.1393 -0.1544
 5694W        W 9438   5.971   3.805   0.389  0.2362 -0.2417 -0.0705
 5695W        W 9439   0.495   0.774   3.702  0.0318 -0.1476 -0.1875
 5696W        W 9440   5.636   4.201   0.935 -0.1345  0.0042 -0.0982
 5697W        W 9441   1.555   5.303  10.308  0.1859 -0.0339  0.1883
 5698W        W 9442   8.270   7.708   2.241  0.1880  0.0018 -0.0734
 5699W        W 9443   6.885   4.906   4.128 -0.0509  0.0190 -0.2561
 5700W        W 9444   2.071   3.786   0.041 -0.2153  0.0729  0.0606
 5701W        W 9445   9.038   0.669  10.673  0.2996 -0.2683 -0.1124
 5702W        W 9446   6.106   4.903   2.165 -0.0748 -0.1387  0.2345
 5703W        W 9447   1.362   6.412   2.656  0.1095 -0.1820  0.1882
 5704W        W 9448   6.077   5.765  11.946  0.1633 -0.1306  0.0047
 5705W        W 9449   9.771   3.320  12.880 -0.2702 -0.0005  0.1399
 5706W        W 9450   6.727   5.375   0.219  0.2427  0.0581 -0.0517
 5707W        W 9451   1.551   4.043   9.839  0.2314  0.1784 -0.2210
 5708W        W 9452   2.507   2.964  10.793 -0.2082 -0.4238  0.0994
 5709W        W 9453   5.683   9.004  12.304 -0.1069  0.0983  0.2349
 5710W        W 9454   0.939   8.952   2.898  0.0414 -0.2161 -0.0514
 5711W        W 9455   0.724   2.098  11.983  0.0226 -0.2568 -0.2387
 5712W        W 9456   0.884   9.371   4.297 -0.1944  0.0710  0.0566
 5713W        W 9457   3.684   4.236  10.496  0.1352 -0.2474  0.0995
 5714W        W 9458   0.661   8.053   4.924 -0.2633 -0.0886 -0.1297
 5715W        W 9459   8.648   7.325  11.831 -0.2856  0.0788  0.0541
 5716W        W 9460   5.319   4.678   1.763 -0.0184  0.0288 -0.2149
 5717W        W 9461   2.654   9.787  10.056  0.1316 -0.0607 -0.0480
 5718W        W 9462   9.333   6.665   3.294  0.0679  0.0684 -0.0122
 5719W        W 9463   1.725   5.718  11.621 -0.1437  0.3443 -0.0216
 5720W        W 9464   1.307   5.400   1.177  0.0739  0.2227 -0.0503
 5721W        W 9465   3.023   4.072   1.843 -0.2644  0.0445 -0.0519
 5722W        W 9466   2.547   8.860   3.535 -0.0501  0.1146  0.0938
 5723W        W 9467   9.508   4.264   2.904 -0.1516  0.0361  0.0169
 5724W        W 9468   0.582   5.752   9.647 -0.1821 -0.0750  0.2859
 5725W        W 9469   5.428   0.627   4.137 -0.1293  0.0148  0.0007
 5726W        W 9470   1.311   5.163   0.169 -0.4364  0.0751 -0.0114
 5727W        W 9471   8.312   8.921  11.554 -0.0470  0.2657 -0.0797
 5728W        W 9472   7.314   1.474   4.567  0.1677  0.1840  0.1364
 5729W        W 9473   9.570   9.574   1.427  0.1750  0.0484 -0.3893
 5730W        W 9474   0.497   8.238  12.235  0.2754 -0.1066  0.3641
 5731W        W 9475   8.046   8.505  12.292 -0.3706  0.0930  0.0728
 5732W        W 9476   1.412   3.132   1.571  0.1898  0.1634  0.0967
 5733W        W 9477   8.221   2.770   1.807  0.1844  0.3799  0.0134
 5734W        W 9478   0.571   7.399   1.490  0.2165  0.0490 -0.3387
 5735W        W 9479   9.388   7.900  10.235  0.1138  0.0937 -0.2377
 5736W        W 9480   8.812   4.008  11.088  0.0708  0.2327 -0.1112
 5737W        W 9481   7.535   8.017   8.581 -0.1872  0.0622  0.1914
 5738W        W 9482   4.676   3.580   9.751 -0.1933 -0.1830  0.1745
 5739W        W 9483   2.492   7.486   0.308 -0.2925 -0.0049 -0.3157
 5740W        W 9484   2.152   8.464   8.595 -0.3376 -0.2223  0.2676
 5741W        W 9485   8.159   1.552   1.627 -0.1925  0.0257  0.0640
 5742W        W 9486   2.091   6.113   9.365  0.1316 -0.0110  0.0090
 5743W        W 9487   4.656   8.618   0.486 -0.0386  0.3157 -0.2561
 5744W        W 9488   3.804   7.002  10.526 -0.1563 -0.1735  0.1224
 5745W        W 9489   4.421   1.737   4.189 -0.0217 -0.6029  0.1138
 5746W        W 9490   5.398   2.692  10.285 -0.1166 -0.0726 -0.0726
 5747W        W 9491   6.106   5.513   9.611  0.2175  0.3774 -0.4737
 5748W        W 9492   4.663   9.547  10.168  0.0510  0.0549 -0.1787
 5749W        W 9493   0.549   6.294  11.251 -0.0110 -0.0781 -0.0492
 5750W        W 9494   0.611   7.766   9.009 -0.1057  0.2803  0.1544
 5751W        W 9495   5.655   1.088   1.928  0.1209 -0.0332  0.0172
 5752W        W 9496   0.813   1.472  12.671 -0.2898  0.2690  0.1586
 5753W        W 9497   8.609   6.354   9.663 -0.1178  0.0789 -0.1944
 5754W        W 9498   2.491   9.733   8.112  0.2572  0.0159 -0.2105
 5755W        W 9499   3.072   6.953  11.516 -0.2547  0.0361  0.0763
 5756W        W 9500   0.502   4.445  11.576 -0.0519 -0.0175  0.0896
 5757W        W 9501   9.639   3.071  10.545  0.3015  0.0760  0.1010
 5758W        W 9502   8.662   1.561   7.893  0.4443 -0.1639  0.0901
 5759W        W 9503   3.601   9.009  10.756  0.1547  0.0827 -0.0656
 5760W        W 9504   4.656   6.585   4.069  0.0671  0.1433  0.0469
 5761W        W 9505   2.426   4.845  12.145  0.0198 -0.1001  0.1969
 5762W        W 9506   6.727   7.985  11.284 -0.1623  0.0151 -0.2134
 5763W        W 9507   3.513   5.550   1.694  0.2105 -0.0716 -0.0081
 5764W        W 9508   6.282   6.076   1.649 -0.1529  0.1394  0.0334
 5765W        W 9509   3.183   2.361   4.051 -0.0880  0.0176 -0.1105
 5766W        W 9510   2.968   1.679   3.160 -0.1002  0.1471  0.3779
 5767W        W 9511   1.539   1.702   3.211 -0.0102 -0.2036 -0.0914
 5768W        W 9512   0.771   2.244  11.043  0.0301 -0.1808  0.1010
 5769W        W 9513   5.721   0.401  12.184  0.0084 -0.1928 -0.1071
 5770W        W 9514   0.798   3.618   2.103  0.0279 -0.0239  0.4135
 5771W        W 9515   4.792   7.342   9.467  0.1632  0.1980  0.0208
 5772W        W 9516   3.386   5.992   8.922 -0.2395  0.1293 -0.1600
 5773W        W 9517   8.293   7.653  11.987  0.1509 -0.2222  0.1284
 5774W        W 9518   9.479   4.271   2.076  0.1032  0.0111  0.0931
 5775W        W 9519   0.102   5.279   2.998 -0.0774 -0.0145 -0.2460
 5776W        W 9520   7.464   8.993  12.127 -0.1108 -0.2333  0.2150
 5777W        W 9521   9.149   4.691   2.915 -0.0206  0.4965  0.2277
 5778W        W 9522   8.763   1.615   2.005 -0.0912 -0.2014  0.3385
 5779W        W 9523   4.309   7.852  10.099  0.1671  0.0069 -0.1987
 5780W        W 9524   0.244   8.775   7.996  0.1876  0.2073 -0.3690
 5781W        W 9525   6.035   0.860  12.080  0.0584  0.0142  0.0905
 5782W        W 9526   9.191   9.764   4.580  0.2018 -0.0021 -0.1200
 5783W        W 9527   5.846   9.538   0.813 -0.0988 -0.0583 -0.0467
 5784W        W 9528   0.478   0.709  12.581 -0.1041  0.1367 -0.0353
 5785W        W 9529   5.034   0.192   0.074  0.1274 -0.0773 -0.0439
 5786W        W 9530   5.680   8.189   8.408  0.1102  0.3429 -0.0103
 5787W        W 9531   8.297   2.883   2.325 -0.2148  0.1148  0.0668
 5788W        W 9532   3.925   6.228   0.527 -0.2510 -0.1554 -0.1021
 5789W        W 9533   3.280   1.149   0.287  0.2601 -0.2956  0.1745
 5790W        W 9534   7.900   5.827   0.660 -0.0254 -0.1343 -0.0442
 5791W        W 9535   7.903   9.590   4.065 -0.1682  0.2561  0.1959
 5792W        W 9536   4.052   9.246  12.191  0.0101 -0.2943  0.2013
 5793W        W 9537   4.947   3.915  10.925  0.4631  0.0332 -0.1055
 5794W        W 9538   1.284   8.972   1.207 -0.1312  0.1634 -0.0446
 5795W        W 9539   0.697   1.123   0.977 -0.1701  0.3154  0.0287
 5796W        W 9540   0.593   1.878   1.407  0.0677 -0.1633  0.0763
 5797W        W 9541   3.068   8.029   2.856  0.0512  0.1928  0.1036
 5798W        W 9542   7.747   1.883  11.857 -0.3890 -0.2457  0.0342
 5799W        W 9543   1.577   4.542  10.043 -0.1992  0.1424  0.0098
 5800W        W 9544   4.315   7.592   7.976 -0.2422 -0.2089 -0.2542
 5801W        W 9545   6.549   4.853   3.778  0.2034 -0.1699 -0.0922
 5802W        W 9546   0.020   6.369   2.310 -0.1153  0.0529  0.3392
 5803W        W 9547   8.628   9.058   8.047  0.0877 -0.3885 -0.0210
 5804W        W 9548   3.001   6.712  12.234 -0.0654  0.2875 -0.1228
 5805W        W 9549   2.304   4.688  12.720  0.0508 -0.0169  0.3307
 5806W        W 9550   5.166   6.553  11.037  0.2444  0.2986 -0.0586
 5807W        W 9551   4.652   7.580   2.005  0.0523  0.2346  0.0220
 5808W        W 9552   9.617   2.011   2.531  0.2371  0.0558  0.1946
 5809W        W 9553   6.030   6.911   9.962  0.2270 -0.3955 -0.2045
 5810W        W 9554   3.202   5.982  11.052  0.0514 -0.1464  0.1509
 5811W        W 9555   2.197   0.371   0.034  0.2467 -0.0781  0.1006
 5812W        W 9556   8.035   8.474  11.721 -0.1552  0.0251  0.0848
 5813W        W 9557   0.658   0.320   0.872 -0.3042 -0.1598  0.1616
 5814W        W 9558   4.603   4.097   1.371 -0.0774 -0.0451  0.1333
 5815W        W 9559   6.823   3.585   1.147 -0.0675 -0.0532  0.1477
 5816W        W 9560   5.931   0.641   4.056 -0.1325 -0.0716 -0.2168
 5817W        W 9561   7.436   5.122  10.139 -0.1302 -0.3612 -0.3155
 5818W        W 9562   7.823   1.688   4.507 -0.0154 -0.1787  0.0599
 5819W        W 9563   3.721   3.020   9.558  0.0729  0.0396  0.1014
 5820W        W 9564   1.725   7.273   1.690  0.3080 -0.1503 -0.1917
 5821W        W 9565   7.814   3.469  10.497 -0.0941 -0.0643 -0.1091
 5822W        W 9566   6.153   8.779   1.689  0.1397 -0.2423  0.0066
 5823W        W 9567   3.039   5.214   1.153  0.0202 -0.1473  0.0072
 5824W        W 9568   3.424   5.253   3.564  0.0676  0.2304 -0.2412
 5825W        W 9569   0.149   2.167  12.738  0.0334 -0.1266  0.0063
 5826W        W 9570   5.140   2.529   2.639 -0.0865 -0.3311  0.1772
 5827W        W 9571   7.667   4.296   1.328  0.0329  0.1026  0.1426
 5828W        W 9572   8.053   3.385   4.599 -0.3572  0.0145 -0.1312
 5829W        W 9573   0.730   8.979   4.686 -0.4172  0.0619 -0.0125
 5830W        W 9574   9.807   9.439   4.375  0.1291  0.1951  0.1294
 5831W        W 9575   3.828   4.717  11.013  0.0742  0.0714  0.0139
 5832W        W 9576   9.269   9.650  10.241  0.3049 -0.2547 -0.2425
 5833W        W 9577   8.855   4.784  10.487  0.1454  0.0352  0.2776
 5834W        W 9578   3.242   5.947   2.574  0.1806  0.2513  0.2248
 5835W        W 9579   2.290   7.072   3.501  0.0742 -0.1698 -0.2707
 5836W        W 9580   7.162   0.829   3.671 -0.0168 -0.0513  0.1532
 5837W        W 9581   9.574   6.698   2.377 -0.0171 -0.2166  0.1273
 5838W        W 9582   6.788   5.436   1.791  0.1506  0.2524  0.0685
 5839W        W 9583   9.318   1.699  10.291 -0.2425 -0.0745 -0.1510
 5840W        W 9584   0.637   2.121   9.766 -0.0401  0.0911  0.0781
 5841W        W 9585   0.371   2.535   8.931 -0.0523 -0.1943 -0.0379
 5842W        W 9586   8.278   7.212   3.972 -0.2050 -0.3999  0.2627
 5843W        W 9587   9.513   4.642   0.559 -0.0704 -0.4733  0.3429
 5844W        W 9588   8.841   7.329   8.311 -0.0352  0.1209 -0.0538
 5845W        W 9589   7.952   9.523  12.064 -0.0149  0.0955  0.0875
 5846W        W 9590   4.014   2.052  11.589  0.3949  0.2000  0.0326
 5847W        W 9591   8.319   0.445   2.895 -0.2776  0.1467  0.0340
 5848W        W 9592   1.814   1.407   0.133 -0.0981  0.1120  0.4529
 5849W        W 9593   6.424   0.498  11.593 -0.4996  0.1792  0.1884
 5850W        W 9594   8.711   5.670   0.241  0.0563 -0.2313  0.4312
 5851W        W 9595   3.847   2.288   0.718  0.3675 -0.3549 -0.1341
 5852W        W 9596   7.404   9.730   5.305  0.2345  0.0854  0.0155
 5853W        W 9597   4.165   6.359   3.422 -0.0250 -0.0771  0.0357
 5854W        W 9598   5.352   0.688   1.924  0.3008 -0.2219  0.3178
 5855W        W 9599   6.404   7.115   8.610 -0.1875  0.0722  0.0386
 5856W        W 9600   4.259   9.914   4.264  0.1894  0.4919  0.2067
 5857W        W 9601   7.650   5.881   3.394  0.1206  0.3596  0.0057
 5858W        W 9602   4.390   2.927  12.491 -0.1111  0.2339 -0.1972
 5859W        W 9603   1.794   6.918  10.960  0.0164 -0.3388 -0.0722
 5860W        W 9604   4.400   5.600  10.629  0.0597  0.1467  0.2448
 5861W        W 9605   3.783   7.150   2.568  0.0993  0.1080  0.0768
 5862W        W 9606   1.119   3.896   1.228  0.1440  0.2550 -0.1569
 5863W        W 9607   9.637   6.157   4.443  0.3710  0.1908  0.0131
 5864W        W 9608   5.273   9.175   9.217  0.0376 -0.2798  0.2693
 5865W        W 9609   6.324   5.265   0.485  0.3017 -0.3314  0.0487
 5866W        W 9610   7.162   6.566  12.196  0.2479  0.1987  0.1267
 5867W        W 9611   8.557   9.860  12.562  0.0877  0.0400  0.1924
 5868W        W 9612   3.773   9.563   1.410  0.1660  0.6643  0.1829
 5869W        W 9613   0.260   1.741  11.394 -0.0454  0.0457  0.0049
 5870W        W 9614   0.341   4.477  10.255  0.1646  0.1157  0.0747
 5871W        W 9615   1.891   6.503   9.088 -0.1420 -0.0967 -0.3492
 5872W        W 9616   4.903   0.362   3.028 -0.0199  0.0559 -0.1174
 5873W        W 9617   4.909   0.419   8.720 -0.2372 -0.0259 -0.2594
 5874W        W 9618   5.883   4.561  11.951 -0.0129 -0.1832 -0.0218
 5875W        W 9619   3.264   1.186  10.224  0.2252  0.0052  0.1801
 5876W        W 9620   4.888   1.444  10.669 -0.1680 -0.0082 -0.3485
 5877W        W 9621   0.736   6.716  10.884  0.1057  0.1104 -0.1339
 5878W        W 9622   2.998   6.653   0.622 -0.0228 -0.1409  0.1165
 5879W        W 9623   9.543   3.437  10.884  0.0107  0.1014  0.0038
 5880W        W 9624   1.172   6.497   9.626 -0.0587 -0.1745  0.2463
 5881W        W 9625   8.897   8.562   1.595 -0.1751  0.1284  0.0100
 5882W        W 9626   8.288   9.853   3.139 -0.0211  0.0912  0.0765
 5883W        W 9627   8.180   7.467  12.666  0.1277  0.1825 -0.4597
 5884W        W 9628   8.648   1.956  12.501 -0.0270 -0.3071 -0.3945
 5885W        W 9629   9.134   5.247  12.229 -0.3618  0.0700  0.3724
 5886W        W 9630   7.708   3.219   2.062 -0.0348  0.0985 -0.0150
 5887W        W 9631   8.333   9.691  11.230  0.3823 -0.0963 -0.1218
 5888W        W 9632   2.640   9.511   1.330  0.2226 -0.1311 -0.1405
 5889W        W 9633   8.715   8.141   3.698  0.2717 -0.4194 -0.2441
 5890W        W 9634   7.043   5.359   4.249 -0.0586 -0.1449 -0.1932
 5891W        W 9635   2.677   0.571   9.679 -0.0672 -0.2092 -0.2707
 5892W        W 9636   1.491   2.709   2.364 -0.4235  0.1101  0.0440
 5893W        W 9637   2.812   6.537  11.586 -0.3632 -0.0267  0.0646
 5894W        W 9638   8.327   1.184   9.923 -0.0944 -0.0660 -0.4152
 5895W        W 9639   8.090   2.091   1.653  0.1631 -0.0199 -0.0798
 5896W        W 9640   8.250   3.615   0.687  0.0710 -0.0999 -0.0874
 5897W        W 9641   9.673   1.941  12.557 -0.0059 -0.0694 -0.2045
 5898W        W 9642   0.825   7.563   9.796  0.0399 -0.0501 -0.0448
 5899W        W 9643   5.835   6.476   4.406 -0.3918 -0.3463 -0.2008
 5900W        W 9644   1.006   6.699   9.077 -0.2182 -0.1822  0.1158
 5901W        W 9645   4.741   4.433  10.091  0.0547 -0.0474 -0.1645
 5902W        W 9646   7.245   2.142   3.443  0.1044  0.0934  0.3143
 5903W        W 9647   8.568   1.926  11.726 -0.0101 -0.0291  0.0216
 5904W        W 9648   0.406   4.152   0.727  0.0426  0.0703  0.0903
 5905W        W 9649   6.365   0.251   5.113 -0.1991 -0.2092  0.5399
 5906W        W 9650   7.763   4.881   4.476 -0.3468  0.0937  0.1658
 5907W        W 9651   1.667   4.125  12.047 -0.0156 -0.3408  0.1937
 5908W        W 9652   7.539   5.565  12.039  0.1137 -0.0548 -0.0657
 5909W        W 9653   8.894   7.247  11.034 -0.3355 -0.1462 -0.0636
 5910W        W 9654   9.137   1.336   8.616 -0.2007 -0.0778  0.1724
 5911W        W 9655   2.876   7.196   0.320 -0.3308  0.2576 -0.3758
 5912W        W 9656   0.224   2.174  11.678  0.3491  0.0334 -0.0617
 5913W        W 9657   3.247   3.308  11.836 -0.0284  0.1435  0.1335
 5914W        W 9658   1.726   9.193   3.367  0.0091 -0.2564  0.2503
 5915W        W 9659   4.492   5.714   0.152  0.1676 -0.0847  0.0595
 5916W        W 9660   0.353   4.116   3.282  0.1109  0.1972  0.4243
 5917W        W 9661   9.209   0.546   3.393  0.0596 -0.1939 -0.0412
 5918W        W 9662   4.071   2.393  10.130  0.0191  0.0212 -0.0669
 5919W        W 9663   0.826   4.147   3.120  0.0346  0.3581 -0.0971
 5920W        W 9664   4.630   8.626  12.338 -0.2187  0.0112  0.2050
 5921W        W 9665   0.284   8.961   3.524 -0.2521  0.0658 -0.1099
 5922W        W 9666   8.493   5.405   1.477 -0.3057 -0.0602  0.0693
 5923W        W 9667   8.099   0.329   4.998 -0.2319 -0.0716 -0.1740
 5924W        W 9668   7.521   3.449  10.982  0.0828 -0.2589  0.1112
 5925W        W 9669   8.754   4.718   2.634  0.0787  0.0021 -0.1181
 5926W        W 9670   5.257   6.571   2.427  0.1251 -0.2964 -0.2770
 5927W        W 9671   7.667   0.512  10.259 -0.2802  0.2889 -0.2423
 5928W        W 9672   9.665   8.587   2.534 -0.2874  0.3649  0.1044
 5929W        W 9673   8.925   5.709   1.607 -0.3489 -0.0290  0.1421
 5930W        W 9674   8.937   8.508   8.928 -0.2825  0.1671 -0.0712
 5931W        W 9675   3.411   7.925   1.045  0.0284 -0.0987  0.0941
 5932W        W 9676   6.085   5.373  12.462 -0.0766  0.0620 -0.0597
 5933W        W 9677   9.543   7.881   0.277 -0.2640  0.0492 -0.2250
 5934W        W 9678   6.754   6.379   8.971 -0.0741 -0.2371  0.1802
 5935W        W 9679   9.839   6.569   9.917  0.3374 -0.1919  0.0803
 5936W        W 9680   6.643   6.047  12.846  0.0972 -0.0576 -0.0512
 5937W        W 9681   4.530   0.843   8.783  0.0628  0.3018  0.1400
 5938W        W 9682   0.883   4.570  11.969 -0.2307  0.1663  0.2187
 5939W        W 9683   1.255   7.295   0.870 -0.2330 -0.2023 -0.0164
 5940W        W 9684   6.395   9.368  11.192 -0.3588  0.0428  0.0563
 5941W        W 9685   0.494   5.424  10.355 -0.0138  0.0121 -0.0794
 5942W        W 9686   7.287   4.517   0.701 -0.4017 -0.0681  0.0078
 5943W        W 9687   8.752   0.849   3.482 -0.0986 -0.2321 -0.0634
 5944W        W 9688   0.918   7.714  11.818  0.3493  0.0564 -0.2271
 5945W        W 9689   8.350   2.926   4.351 -0.0752 -0.2833 -0.0365
 5946W        W 9690   0.483   6.676   4.073  0.1445 -0.0996 -0.1522
 5947W        W 9691   1.880   4.210  10.164 -0.1910  0.3651 -0.0263
 5948W        W 9692   3.383   0.410   2.942 -0.1140 -0.0204 -0.1223
 5949W        W 9693   0.330   1.038   9.190  0.0438 -0.0058 -0.1316
 5950W        W 9694   4.032   8.651   1.285  0.0717 -0.2566  0.0932
 5951W        W 9695   6.763   3.040  12.228 -0.1405  0.0610 -0.1794
 5952W        W 9696   7.566   0.494   3.588 -0.0177  0.1519  0.0469
 5953W        W 9697   9.633   6.788   1.080  0.1531  0.0247  0.1236
 5954W        W 9698   1.606   5.759  11.141  0.1596 -0.1323  0.0627
 5955W        W 9699   9.240   1.211   4.046 -0.0942  0.1471 -0.0747
 5956W        W 9700   8.628   9.513   3.037  0.1937  0.2257  0.2301
 5957W        W 9701   9.409   4.035   1.636  0.0095 -0.0629  0.2009
 5958W        W 9702   0.352   7.285   2.506 -0.2344 -0.0718 -0.2261
 5959W        W 9703   6.527   7.385   3.054  0.4633  0.2462 -0.1348
 5960W        W 9704   2.025   9.579  11.799  0.1153 -0.2670 -0.0592
 5961W        W 9705   3.548   1.464  10.582  0.2257  0.0948  0.4192
 5962W        W 9706   9.209   3.232   3.329  0.2391  0.0634 -0.1055
 5963W        W 9707   1.946   8.659  10.626 -0.2140 -0.0162 -0.1424
 5964W        W 9708   6.520   4.730  12.019 -0.0659 -0.1944 -0.1713
 5965W        W 9709   0.729   6.066   1.220 -0.1146  0.0906 -0.0083
 5966W        W 9710   8.423   9.392   8.938  0.0362 -0.0345  0.0753
 5967W        W 9711   5.061   7.338   9.936 -0.2970  0.0171 -0.1545
 5968W        W 9712   9.688   1.168   3.755 -0.1279  0.1859  0.1626
 5969W        W 9713   7.545   4.753   1.129  0.1355 -0.1166 -0.1757
 5970W        W 9714   5.465   1.567  12.264 -0.3477  0.2120 -0.1544
 5971W        W 9715   7.275   7.848   1.685 -0.0420 -0.4463  0.1410
 5972W        W 9716   7.495   3.812   1.273  0.2727  0.1895 -0.1392
 5973W        W 9717   6.905   9.904   9.327  0.0264  0.1062 -0.0299
 5974W        W 9718   1.959   5.024   1.881 -0.1099 -0.1925  0.0358
 5975W        W 9719   5.072   1.468   5.129 -0.0313 -0.1629 -0.0053
 5976W        W 9720   6.630   5.973   2.039  0.1524  0.1664  0.5564
 5977W        W 9721   4.481   3.738  11.892 -0.0141  0.1308 -0.1776
 5978W        W 9722   3.344   6.424  11.187  0.1196  0.0838 -0.2725
 5979W        W 9723   7.956   9.185  12.501  0.3310  0.2181  0.4997
 5980W        W 9724   7.334   5.666   2.982 -0.0656  0.0895 -0.0230
 5981W        W 9725   6.560   1.461   9.926 -0.3592  0.1107 -0.0614
 5982W        W 9726   7.582   6.393   3.396  0.1119 -0.3261  0.0464
 5983W        W 9727   9.691   8.891   4.459 -0.2148  0.1322  0.1061
 5984W        W 9728   9.154   0.397   2.384  0.1387 -0.2037  0.1326
 5985W        W 9729   8.824   6.062  10.825 -0.0547  0.0356 -0.1782
 5986W        W 9730   0.544   8.768   2.567 -0.0417  0.0344  0.3564
 5987W        W 9731   2.049   0.987   3.053  0.0402  0.1019  0.0286
 5988W        W 9732   7.749   5.020   9.360 -0.0928  0.1530  0.1346
 5989W        W 9733   7.020   1.069   4.574 -0.0881 -0.1140  0.3420
 5990W        W 9734   0.873   1.977  10.625 -0.2661  0.2808 -0.1901
 5991W        W 9735   2.973   8.782   9.118  0.0752  0.3047  0.3202
 5992W        W 9736   2.605   5.691   3.905  0.0994  0.2956  0.2621
 5993W        W 9737   0.749   1.531  10.334  0.0455 -0.1161  0.2736
 5994W        W 9738   8.935   5.383  11.732 -0.3534  0.1048  0.3443
 5995W        W 9739   6.122   6.962  10.797 -0.1984 -0.0094 -0.4925
 5996W        W 9740   8.417   7.961  10.627  0.2233 -0.1151 -0.1427
 5997W        W 9741   0.362   9.851  10.930 -0.1319 -0.2921 -0.1272
 5998W        W 9742   0.517   4.546   3.118  0.1675  0.0796  0.2881
 5999W        W 9743   0.629   7.936   1.854  0.0334 -0.2676 -0.1243
 6000W        W 9744   3.133   8.976   1.419 -0.1921 -0.4455  0.0053
 6001W        W 9745   7.223   9.600   9.059 -0.0941 -0.2648  0.0332
 6002W        W 9746   7.241   5.047   3.098  0.1345 -0.1031  0.0299
 6003W        W 9747   0.876   9.860   2.458  0.0995  0.0572 -0.1442
 6004W        W 9748   9.006   8.356   4.082  0.1290 -0.1425  0.1765
 6005W        W 9749   6.945   4.617   1.726 -0.2396 -0.2886  0.0063
 6006W        W 9750   4.396   5.775   9.767  0.1826 -0.1654  0.0107
 6007W        W 9751   5.106   1.872   3.548 -0.3869  0.1796 -0.1354
 6008W        W 9752   4.610   0.398   2.455  0.1378 -0.0770 -0.3151
 6009W        W 9753   7.253   8.337  12.381  0.2558  0.1387  0.1825
 6010W        W 9754   4.210   2.592  12.842  0.3392 -0.1943  0.0726
 6011W        W 9755   4.604   5.563  11.216 -0.0562  0.1387  0.3455
 6012W        W 9756   4.692   1.466   1.353  0.0183 -0.0942  0.0826
 6013W        W 9757   6.227   9.499   9.199  0.0744 -0.1252  0.0882
 6014W        W 9758   5.618   5.915   2.764 -0.2238  0.0660  0.2711
 6015W        W 9759   1.744   1.713  12.654 -0.0895  0.0218 -0.1776
 6016W        W 9760   7.032   6.358   0.651 -0.3246 -0.1305  0.1182
 6017W        W 9761   8.794   0.671   4.807 -0.0807  0.0325  0.1242
 6018W        W 9762   7.036   4.635  12.068  0.0811 -0.0035 -0.0919
 6019W        W 9763   0.021   7.964   3.280 -0.1337  0.3655 -0.1652
 6020W        W 9764   7.867   4.469   3.337 -0.3066  0.1394  0.2453
 6021W        W 9765   6.389   7.790   0.345 -0.1767 -0.3513  0.3845
 6022W        W 9766   5.857   3.835   1.687 -0.1652  0.3004 -0.1098
 6023W        W 9767   3.231   3.216   1.379 -0.1310  0.2004  0.2611
 6024W        W 9768   7.669   6.949   2.796 -0.0054 -0.4443  0.1843
 6025W        W 9769   3.680   8.510   1.685  0.2376 -0.2837 -0.1658
 6026W        W 9770   9.486   8.571  10.020 -0.1711  0.1404 -0.2868
 6027W        W 9771   3.682   5.318   2.128  0.0742 -0.5094  0.2203
 6028W        W 9772   3.847   9.471  10.628 -0.0567  0.1032  0.2985
 6029W        W 9773   9.315   0.959   1.743 -0.1098 -0.1235 -0.0156
 6030W        W 9774   2.680   1.726   1.949 -0.1432  0.0519  0.1661
 6031W        W 9775   4.102   8.092  11.090  0.0283 -0.0433 -0.0525
 6032W        W 9776   6.189   3.494  12.192 -0.1007  0.0207  0.0758
 6033W        W 9777   0.379   2.383   1.806 -0.0275  0.2035 -0.2382
 6034W        W 9778   9.670   5.232   3.385 -0.0352  0.0826  0.2709
 6035W        W 9779   1.054   5.624   0.410  0.0785  0.1140 -0.1274
 6036W        W 9780   9.756   9.228  12.233  0.1003 -0.1022  0.2323
 6037W        W 9781   0.385   7.037  11.183  0.2948  0.1601  0.1156
 6038W        W 9782   0.681   2.434   2.710 -0.0276 -0.0662  0.1733
 6039W        W 9783   9.147   8.441  12.608 -0.1118  0.1698 -0.1170
 6040W        W 9784   6.959   2.253  12.227  0.1416 -0.0986 -0.0278
 6041W        W 9785   7.754   8.226  12.543  0.0865  0.0259 -0.2958
 6042W        W 9786   8.419   5.046   9.877 -0.0272 -0.3769 -0.0866
 6043W        W 9787   6.800   2.552  10.314 -0.0525  0.1106  0.2572
 6044W        W 9788   7.651   8.703  12.480 -0.1131 -0.2736  0.0381
 6045W        W 9789   7.968   9.201  10.507 -0.2209 -0.2682 -0.0283
 6046W        W 9790   4.540   6.448   9.728  0.0351  0.3010  0.3904
 6047W        W 9791   1.056   2.882  10.129 -0.0422 -0.0046 -0.1284
 6048W        W 9792   5.966   7.476   0.183  0.0080  0.0204  0.0637
 6049W        W 9793   3.414   0.642   9.476 -0.0079  0.0582 -0.0340
 6050W        W 9794   9.532   0.067  11.884  0.1756 -0.0099  0.1172
 6051W        W 9795   7.820   5.764   4.705  0.0655  0.1567  0.0585
 6052W        W 9796   1.868   3.532  12.559 -0.0293  0.3697  0.0921
 6053W        W 9797   0.854   8.835   4.249 -0.2505  0.2097 -0.0225
 6054W        W 9798   3.556   5.844  12.754 -0.5337 -0.1580  0.0483
 6055W        W 9799   1.033   2.431   3.936  0.1703 -0.4166  0.5761
 6056W        W 9800   7.966   7.820   8.475 -0.0212 -0.3126 -0.0351
 6057W        W 9801   9.355   6.069  10.576  0.0234 -0.0679  0.2327
 6058W        W 9802   2.957   3.966   0.279 -0.3600 -0.0398  0.0531
 6059W        W 9803   6.139   1.649  12.502 -0.1627  0.0060 -0.2382
 6060W        W 9804   9.875   0.580   1.189 -0.4438  0.0974 -0.0705
 6061W        W 9805   4.589   8.890   2.853 -0.1077  0.1965  0.0689
 6062W        W 9806   0.808   0.879   2.790  0.4567  0.1481 -0.3453
 6063W        W 9807   1.730   6.478   0.933  0.0605 -0.1845  0.2169
 6064W        W 9808   4.537   1.405   3.262 -0.1469 -0.2945 -0.1081
 6065W        W 9809   8.998   2.301  10.209  0.3395 -0.1088 -0.0904
 6066W        W 9810   4.496   3.531  11.382  0.0436  0.1008 -0.2224
 6067W        W 9811   5.049   9.560   2.474 -0.1373  0.3445  0.1950
 6068W        W 9812   1.249   0.770   9.492  0.1849 -0.1611 -0.0852
 6069W        W 9813   1.974   8.320   1.161 -0.0851 -0.3689  0.1158
 6070W        W 9814   3.385   1.174   1.337  0.0897 -0.1173  0.0910
 6071W        W 9815   5.638   4.281   8.967  0.1756  0.0021  0.2753
 6072W        W 9816   4.763   4.771  10.480  0.1211  0.4413 -0.1109
 6073W        W 9817   5.756   6.055   8.992 -0.3136 -0.2468 -0.0177
 6074W        W 9818   5.482   5.579   1.681 -0.1673 -0.1351 -0.1233
 6075W        W 9819   4.415   9.744   0.596  0.0857  0.1348 -0.0763
 6076W        W 9820   6.096   0.189  10.456  0.0264  0.0642  0.0732
 6077W        W 9821   1.954   1.571   2.917 -0.3457  0.1525 -0.0568
 6078W        W 9822   6.445   4.750  10.349  0.0053  0.0935 -0.2092
 6079W        W 9823   0.886   1.157   0.161 -0.1618 -0.1443 -0.2517
 6080W        W 9824   9.603   7.949  12.163  0.1747 -0.0025 -0.1537
 6081W        W 9825   1.049   6.778   1.500  0.0979  0.2813  0.2288
 6082W        W 9826   6.023   5.711  10.385 -0.3105 -0.3454  0.1914
 6083W        W 9827   6.672   8.077   9.281  0.1651  0.2601  0.0308
 6084W        W 9828   7.085   1.452   9.032 -0.0924 -0.1126 -0.1398
 6085W        W 9829   1.363   8.454   2.972 -0.0015  0.1778  0.0935
 6086W        W 9830   8.180   7.208   0.724  0.0781 -0.0858 -0.1648
 6087W        W 9831   4.212   0.712   9.767  0.2324 -0.0501  0.0813
 6088W        W 9832   6.324   8.795   3.027 -0.1616 -0.0218  0.0036
 6089W        W 9833   1.856   1.051   0.514  0.1463 -0.0349 -0.3465
 6090W        W 9834   5.663   7.519   2.281 -0.0986  0.0891  0.0386
 6091W        W 9835   5.023   2.019   2.383  0.0921 -0.2037  0.3293
 6092W        W 9836   6.982   6.197   2.249  0.2884 -0.1114  0.3087
 6093W        W 9837   7.943   1.323  11.395 -0.0781  0.3496 -0.3055
 6094W        W 9838   2.330   6.299  12.281  0.0375  0.2107  0.1603
 6095W        W 9839   4.811   3.974  11.568  0.0169 -0.1637 -0.3351
 6096W        W 9840   7.355   7.154   4.133 -0.1907 -0.1120  0.1245
 6097W        W 9841   8.712   0.563  11.788  0.0372 -0.4141  0.2020
 6098W        W 9842   1.435   0.726  11.848 -0.1552  0.0186  0.0778
 6099W        W 9843   4.986   1.116   1.459  0.0568  0.3961 -0.1365
 6100W        W 9844   4.417   7.701   9.613 -0.0210 -0.0364  0.1327
 6101W        W 9845   1.268   5.027  12.542 -0.1388 -0.0045 -0.0105
 6102W        W 9846   0.094   3.168   1.530 -0.0371  0.1484  0.0043
 6103W        W 9847   9.217   2.725  12.696 -0.0449  0.0950  0.0766
 6104W        W 9848   3.147   7.231  10.521  0.5608 -0.3412 -0.4221
 6105W        W 9849   0.181   1.969  12.275 -0.1806 -0.2991  0.3262
 6106W        W 9850   7.026   0.222  12.032  0.0202 -0.0783  0.5181
 6107W        W 9851   3.197   2.743  12.334 -0.0874  0.0538 -0.2127
 6108W        W 9852   4.471   4.253   3.241 -0.5363  0.1260  0.0326
 6109W        W 9853   3.109   7.960   0.627  0.2671 -0.0867  0.0198
 6110W        W 9854   6.884   9.500   2.925  0.1442 -0.1313  0.1063
 6111W        W 9855   5.874   6.614   8.944 -0.3241 -0.2250  0.1436
 6112W        W 9856   2.424   6.348   9.667 -0.0603 -0.4099  0.1137
 6113W        W 9857   5.670   0.688   2.351 -0.0559 -0.1299  0.0021
 6114W        W 9858   0.766   5.616   1.463  0.4105 -0.0328 -0.1726
 6115W        W 9859   9.326   2.640   2.346  0.2807  0.1195 -0.0588
 6116W        W 9860   4.331   8.482  11.448 -0.0726  0.2022  0.0537
 6117W        W 9861   1.176   9.515   0.335 -0.2132 -0.0376  0.1277
 6118W        W 9862   6.945   5.983   4.692 -0.1069  0.0972 -0.2095
 6119W        W 9863   2.353   4.750   1.675 -0.2260  0.0439  0.0850
 6120W        W 9864   8.994   3.029   9.100 -0.2603 -0.3769 -0.1400
 6121W        W 9865   5.255   8.703  12.476  0.2559  0.2153  0.2389
 6122W        W 9866   0.411   5.801   4.787 -0.0931 -0.0668 -0.0691
 6123W        W 9867   1.347   3.001  11.067  0.1458  0.2774 -0.2101
 6124W        W 9868   3.712   7.218   4.999  0.2620  0.0095  0.1152
 6125W        W 9869   9.252   9.582   1.052 -0.0861 -0.0969  0.0485
 6126W        W 9870   1.340   7.370  10.953 -0.1495 -0.1313 -0.1617
 6127W        W 9871   5.735   3.768   9.190  0.2407  0.0490  0.1736
 6128W        W 9872   6.126   0.692   3.487  0.0840  0.0677 -0.0528
 6129W        W 9873   0.096   4.126   1.255 -0.0426 -0.1150 -0.4317
 6130W        W 9874   6.776   8.505   3.487  0.3214 -0.1721 -0.2764
 6131W        W 9875   8.248   4.140   2.074  0.2762 -0.2978 -0.3257
 6132W        W 9876   4.324   2.065   0.721  0.1385 -0.1994  0.1305
 6133W        W 9877   1.514   7.800  10.625  0.1104 -0.1103  0.0238
 6134W        W 9878   0.089   0.423  10.504 -0.2283  0.2192  0.4246
 6135W        W 9879   8.824   6.172  10.199  0.1621  0.1408  0.0487
 6136W        W 9880   4.636   8.188   1.307 -0.0837  0.1232 -0.1956
 6137W        W 9881   1.532   2.349   9.570  0.0452 -0.0336 -0.0893
 6138W        W 9882   0.722   2.656   3.298 -0.0706 -0.3854 -0.1835
 6139W        W 9883   3.416   9.549  10.371 -0.3013  0.1663 -0.1407
 6140W        W 9884   7.243   9.234   1.294 -0.1046  0.2987 -0.0588
 6141W        W 9885   6.358   2.570   0.358  0.4900 -0.1873 -0.0735
 6142W        W 9886   9.799   7.307  10.593  0.2196  0.0078 -0.1196
 6143W        W 9887   5.028   2.323  10.251 -0.1350  0.1157  0.0745
 6144W        W 9888   9.816   3.347   3.939 -0.1045  0.1928 -0.0463
 6145W        W 9889   9.182   0.857   2.555  0.2165  0.0479  0.0069
 6146W        W 9890   5.883   0.779  10.192  0.0915 -0.0537 -0.2267
 6147W        W 9891   0.018   6.362   1.489 -0.3377 -0.0491  0.0404
 6148W        W 9892   9.555   3.073  10.065 -0.0686 -0.1232 -0.0888
 6149W        W 9893   7.027   6.759   4.142  0.2474 -0.0224 -0.0078
 6150W        W 9894   6.022   7.806   1.575 -0.0236 -0.1589 -0.1106
 6151W        W 9895   4.136   3.763  12.892  0.3391 -0.0704  0.3271
 6152W        W 9896   2.135   7.989  11.248 -0.0579 -0.1104  0.0981
 6153W        W 9897   9.651   6.249   3.516  0.1449  0.0471 -0.2313
 6154W        W 9898   3.317   6.917  10.172  0.2439  0.1590  0.0541
 6155W        W 9899   9.242   5.521   3.286 -0.2724 -0.1554  0.1195
 6156W        W 9900   7.039   5.205  11.377 -0.0018  0.3156  0.1697
 6157W        W 9901   9.575   1.709  10.723 -0.0000  0.1284  0.0371
 6158W        W 9902   4.976   9.646   3.794 -0.0934 -0.1699  0.2164
 6159W        W 9903   8.690   8.120   3.103 -0.0988 -0.1050  0.2269
 6160W        W 9904   8.945   9.224  10.930  0.0825  0.0023 -0.1336
 6161W        W 9905   8.433   2.389   0.532  0.0319  0.2360 -0.0724
 6162W        W 9906   3.094   5.450  10.811 -0.1179  0.1140 -0.2789
 6163W        W 9907   8.616   0.051   9.645 -0.1252 -0.2874  0.0728
 6164W        W 9908   0.652   0.228   8.839  0.1750 -0.3216 -0.0885
 6165W        W 9909   2.314   5.624   1.201  0.1143 -0.0177 -0.0356
 6166W        W 9910   7.059   7.516   4.254 -0.1023 -0.0255  0.0465
 6167W        W 9911   6.813   9.785   2.100 -0.3223 -0.3814 -0.2536
 6168W        W 9912   3.263   7.066   0.737 -0.0754 -0.1805 -0.1877
 6169W        W 9913   9.544   5.967   1.545 -0.3595  0.1647  0.0852
 6170W        W 9914   3.042   9.857  12.224 -0.1912  0.0502 -0.2368
 6171W        W 9915   3.454   1.111  10.997  0.0821 -0.0756  0.0440
 6172W        W 9916   8.059   2.232  11.733 -0.1206  0.1799  0.1601
 6173W        W 9917   1.093   1.927  10.130  0.1611  0.0128  0.2184
 6174W        W 9918   4.226   7.903   4.171  0.0655  0.0979 -0.1103
 6175W        W 9919   7.251   3.677   3.600 -0.0653 -0.0356  0.0751
 6176W        W 9920   9.849   3.818  11.063 -0.2377  0.1037  0.0988
 6177W        W 9921   5.015   7.135   9.105 -0.0311  0.1208  0.4068
 6178W        W 9922   3.986   2.724   0.944  0.0076 -0.1602  0.0803
 6179W        W 9923   6.853   3.618   2.988  0.1617 -0.0764 -0.1105
 6180W        W 9924   2.568   0.115   9.545  0.0997 -0.0028 -0.3519
 6181W        W 9925   0.586   1.956  12.830 -0.1716 -0.0084  0.1200
 6182W        W 9926   1.191   2.016   9.636  0.0487 -0.1705  0.0592
 6183W        W 9927   2.255   1.979   1.437 -0.0905  0.1859  0.1312
 6184W        W 9928   7.344   7.852   3.720 -0.2664 -0.2074 -0.1226
 6185W        W 9929   1.990   7.627   9.822  0.2731  0.2441 -0.3401
 6186W        W 9930   4.345   6.279  11.487 -0.0236  0.0761  0.0377
 6187W        W 9931   7.488   7.470   1.500 -0.1683  0.0530 -0.0869
 6188W        W 9932   6.975   9.175   9.078  0.0626  0.2996  0.2652
 6189W        W 9933   3.144   0.092   3.470 -0.4217 -0.1441  0.0496
 6190W        W 9934   7.618   9.484   1.646  0.0574 -0.1339 -0.1199
 6191W        W 9935   1.906   0.894   1.391 -0.3055  0.0825  0.4249
 6192W        W 9936   8.820   0.082   0.446 -0.0092 -0.3692 -0.4121
 6193W        W 9937   7.251   9.527  10.940 -0.2029  0.2197 -0.2279
 6194W        W 9938   7.343   0.649   9.876 -0.2293 -0.1876 -0.0908
 6195W        W 9939   1.946   3.701  10.050 -0.2299 -0.0001 -0.1735
 6196W        W 9940   9.188   4.283  10.677  0.0809 -0.4456  0.2768
 6197W        W 9941   0.589   1.195   9.982 -0.2903 -0.1013 -0.0254
 6198W        W 9942   5.509   1.949   0.455 -0.2075  0.0309  0.0546
 6199W        W 9943   4.708   0.022   9.051  0.1256  0.0267  0.0641
 6200W        W 9944   5.399   6.663  11.838  0.0528 -0.1701 -0.0424
 6201W        W 9945   7.974   5.123   3.978  0.0617 -0.0912 -0.0511
 6202W        W 9946   9.467   9.874   9.865  0.0848  0.0315  0.1774
 6203W        W 9947   0.477   6.601   9.966  0.0342 -0.1510 -0.0125
 6204W        W 9948   9.849   8.509  10.320 -0.1434 -0.2422  0.1901
 6205W        W 9949   2.178   7.079   4.081  0.0791 -0.0066  0.3763
 6206W        W 9950   7.800   9.181   9.050  0.2102  0.3939  0.1125
 6207W        W 9951   8.675   1.658   3.394 -0.2140  0.0343 -0.0439
 6208W        W 9952   1.862   9.063   1.295  0.0646  0.0952 -0.0696
 6209W        W 9953   0.776   3.922   2.492  0.2176  0.2875  0.0840
 6210W        W 9954   8.713   8.619  12.845  0.1652  0.2111  0.0933
 6211W        W 9955   0.623   2.307   9.295 -0.0177  0.2386 -0.0853
 6212W        W 9956   7.374   4.056   0.486 -0.1341 -0.0544  0.1670
 6213W        W 9957   3.675   2.938   1.301  0.0650  0.3496  0.1373
 6214W        W 9958   5.385   7.408   8.854  0.1440 -0.2106 -0.1066
 6215W        W 9959   1.307   9.678  10.275  0.1174  0.0175  0.1355
 6216W        W 9960   8.434   1.043  11.723 -0.1396 -0.0122  0.2195
 6217W        W 9961   1.124   6.576   3.907  0.1457 -0.1427 -0.0609
 6218W        W 9962   8.312   1.840   2.024  0.0328  0.1197 -0.0200
 6219W        W 9963   8.272   5.448   0.356  0.0355  0.1828  0.2649
 6220W        W 9964   8.156   1.194  12.858  0.0845  0.0791  0.2284
 6221W        W 9965   2.320   6.968   9.681 -0.0491  0.1864 -0.1114
 6222W        W 9966   5.521   2.010  11.226  0.0723 -0.0948  0.0086
 6223W        W 9967   0.095   0.969   0.435  0.0662 -0.0967 -0.2069
 6224W        W 9968   3.544   6.433   4.533 -0.2076  0.1574 -0.2880
 6225W        W 9969   8.326   9.119   1.249  0.0117  0.2317 -0.3672
 6226W        W 9970   8.828   4.257   9.329  0.0886 -0.1530 -0.1094
 6227W        W 9971   5.907   6.738   9.459  0.1162  0.0207  0.0453
 6228W        W 9972   7.045   0.760  11.858 -0.1191 -0.1177 -0.0847
 6229W        W 9973   4.320   5.377  12.116 -0.0640  0.2293 -0.4176
 6230W        W 9974   3.732   7.837  10.212  0.0548 -0.1605  0.0796
 6231W        W 9975   8.960   2.970  10.042  0.3951  0.1696  0.0023
 6232W        W 9976   3.013   3.092   0.900  0.2193  0.2904 -0.0606
 6233W        W 9977   9.556   1.486   1.067  0.2710  0.2077  0.2094
 6234W        W 9978   6.352   6.906   1.924 -0.0364 -0.1206  0.3333
 6235W        W 9979   1.137   9.006   8.879 -0.1530  0.0740  0.1097
 6236W        W 9980   5.101   8.932  12.054  0.0179  0.0194 -0.1607
 6237W        W 9981   0.318   5.155  12.645 -0.0198 -0.2800  0.0448
 6238W        W 9982   8.775   0.834   9.799  0.1238  0.0269  0.1913
 6239W        W 9983   9.057   1.673   1.313  0.0324  0.1357  0.0303
 6240W        W 9984   4.690   0.633   0.131  0.2083  0.3868  0.0688
 6241W        W 9985   5.090   6.311   4.784 -0.3577  0.0958 -0.0526
 6242W        W 9986   2.595   1.332  10.538 -0.1637  0.1060  0.1555
 6243W        W 9987   7.877   2.489   9.320 -0.3007  0.1472  0.2803
 6244W        W 9988   3.843   5.994   1.014 -0.0237  0.1840  0.1524
 6245W        W 9989   9.285   6.875   9.050  0.3142  0.0069 -0.1318
 6246W        W 9990   9.742   3.865   2.175 -0.3046  0.0066 -0.0164
 6247W        W 9991   1.638   0.672   2.945  0.2269  0.0575 -0.2284
 6248W        W 9992   2.211   7.586   2.527 -0.1111 -0.1192 -0.2572
 6249W        W 9993   9.788   9.491  10.992  0.3546  0.0042 -0.1337
 6250W        W 9994   5.427   9.746  10.355  0.0764  0.1909  0.2035
 6251W        W 9995   9.017   4.564   1.080  0.0509  0.1720  0.0196
 6252W        W 9996   1.083   0.995   2.068 -0.1045  0.1239  0.1391
 6253W        W 9997   7.447   4.637  10.188  0.2136 -0.0196  0.0940
 6254W        W 9998   8.726   6.214   2.719  0.0385 -0.1526 -0.0110
 6255W        W 9999   4.737   7.518   1.455 -0.2466  0.4825  0.4276
 6256W        W10000   1.050   8.699   9.276 -0.0380  0.0051  0.1051
 6257W        W10001   2.039   0.580   0.991  0.4319  0.1671  0.0110
 6258W        W10002   2.099   6.489   8.303 -0.1384 -0.0597 -0.0818
 6259W        W10003   8.613   8.651   7.761  0.0675 -0.0409 -0.0931
 6260W        W10004   8.222   7.553   2.737  0.1617  0.2474  0.2396
 6261W        W10005   2.587   1.874   0.478  0.4333 -0.0969  0.1285
 6262W        W10006   7.565   7.045   2.275  0.0990  0.1781 -0.2632
 6263W        W10007   9.188   5.884   0.174  0.0059  0.2218 -0.0766
 6264W        W10008   4.929   8.900   3.221 -0.3005  0.0393  0.2692
 6265W        W10009   2.764   6.537   3.088  0.0593 -0.2947  0.0419
 6266W        W10010   3.867   2.483   1.405  0.5817 -0.1936 -0.0734
 6267W        W10011   7.685   9.319   3.597 -0.0204  0.0365  0.2718
 6268W        W10012   5.312   7.566   9.312 -0.1180 -0.1526  0.1735
 6269W        W10013   2.623   9.441  11.081  0.5300 -0.0015 -0.2344
 6270W        W10014   7.639   7.226   9.092  0.3312  0.0738 -0.0553
 6271W        W10015   9.303   2.714  10.304 -0.2900  0.1459 -0.5892
 6272W        W10016   6.156   0.817   9.730  0.1401  0.4088 -0.0258
 6273W        W10017   3.442   5.562  10.050 -0.2596 -0.0866  0.3148
 6274W        W10018   1.813   8.668  12.301 -0.0807  0.0962 -0.3099
 6275W        W10019   8.410   4.275  10.381  0.3740  0.1226  0.1617
 6276W        W10020   8.784   0.935  12.089  0.0220 -0.1280  0.0253
 6277W        W10021   2.607   6.049   3.034  0.1722 -0.3440 -0.4962
 6278W        W10022   6.644   1.242  11.055  0.0516 -0.0686 -0.0651
 6279W        W10023   8.676   4.957   2.229 -0.1137  0.0275  0.2450
 6280W        W10024   5.739   1.308  10.114 -0.0726 -0.0804 -0.3656
 6281W        W10025   7.390   6.973   1.838  0.1724  0.0230 -0.0008
 6282W        W10026   6.212   7.516   8.808  0.2205 -0.0923 -0.0363
 6283W        W10027   6.090   1.333   9.237  0.0480  0.3446 -0.0288
 6284W        W10028   3.205   9.302   0.541  0.0280 -0.0765  0.2559
 6285W        W10029   5.634   5.051   1.820  0.2841 -0.0535  0.1284
 6286W        W10030   6.893   8.397   1.129  0.0395 -0.1539  0.0934
 6287W        W10031   2.582   2.771  11.863 -0.0650 -0.0361 -0.2723
 6288W        W10032   1.883   7.644   8.890 -0.1121  0.0419  0.2754
 6289W        W10033   6.747   1.335   8.604  0.4079  0.1696 -0.0034
 6290W        W10034   9.909   6.742   4.889  0.3767  0.1632  0.0441
 6291W        W10035   5.631   4.100  11.416 -0.0468 -0.0399  0.1763
 6292W        W10036   2.560   4.000   1.294  0.3636  0.4597  0.0155
 6293W        W10037   4.873   0.224  11.897 -0.0952  0.0641 -0.1533
 6294W        W10038   5.330   1.169  12.822 -0.0698  0.2257 -0.2191
 6295W        W10039   5.053   2.187   9.489 -0.1347  0.1750  0.0390
 6296W        W10040   3.874   5.484   3.656 -0.1616  0.1050  0.1258
 6297W        W10041   7.300   2.001  10.975 -0.2198  0.1806 -0.1763
 6298W        W10042   4.315   6.486   4.400  0.0935 -0.1152  0.0509
 6299W        W10043   1.198   7.689  10.073 -0.1521  0.0152  0.0162
 6300W        W10044   8.173   6.795   4.740  0.1326 -0.3654  0.4228
 6301W        W10045   6.322   7.397   0.570  0.0273  0.0069 -0.2909
 6302W        W10046   8.895   0.932   2.044 -0.0090  0.0565 -0.0315
 6303W        W10047   0.111   3.269  10.769 -0.2214  0.1086 -0.0517
 6304W        W10048   8.047   9.656   1.449  0.2934 -0.1617 -0.1702
 6305W        W10049   7.083   0.038   0.489 -0.1875  0.0818 -0.2270
 6306W        W10050   7.655   2.855   8.880  0.0455  0.1384  0.0748
 6307W        W10051   7.517   5.977   0.265 -0.1132  0.0215 -0.5022
 6308W        W10052   8.342   8.847  12.466  0.1684  0.0000  0.0642
 6309W        W10053   3.698   8.631  12.288  0.1494 -0.0028  0.0677
 6310W        W10054   8.265   1.495   8.374  0.2145 -0.1127  0.1850
 6311W        W10055   4.957   5.077   1.686 -0.3834  0.1125 -0.0991
 6312W        W10056   2.762   0.898   1.957 -0.1494 -0.0274  0.0933
 6313W        W10057   1.934   3.492   0.923 -0.2686 -0.0071 -0.0633
 6314W        W10058   6.086   9.367  12.638  0.1125  0.1401 -0.2177
 6315W        W10059   7.696   9.124   3.118  0.1116 -0.1611  0.3282
 6316W        W10060   1.496   3.357   0.587 -0.0142  0.0926 -0.2023
 6317W        W10061   3.869   4.517  12.824  0.3759  0.2574  0.2054
 6318W        W10062   9.635   5.798  12.849  0.0187  0.0057 -0.1754
 6319W        W10063   6.585   1.046   9.607  0.0752  0.2844  0.0685
 6320W        W10064   2.613   0.120  12.370 -0.1170  0.1264  0.1014
 6321W        W10065   0.567   7.523  11.350  0.1243  0.1475  0.2579
 6322W        W10066   9.803   9.629   2.837 -0.0296  0.0704  0.0305
 6323W        W10067   2.468   4.377  12.245 -0.1078 -0.1181 -0.0921
 6324W        W10068   6.497   4.739   2.804  0.0263 -0.0934 -0.4028
 6325W        W10069   4.495   3.753   2.350 -0.0141 -0.2714 -0.1979
 6326W        W10070   2.243   8.045   3.916  0.0686 -0.0419 -0.3179
 6327W        W10071   2.970   7.415   8.766  0.0007  0.1096 -0.0623
 6328W        W10072   1.626   7.957   0.185  0.1816 -0.2042 -0.2672
 6329W        W10073   1.809   0.595   0.360  0.6744 -0.1776 -0.2461
 6330W        W10074   4.022   9.454   2.348 -0.0613 -0.0860 -0.0718
 6331W        W10075   7.483   9.164   2.687  0.0331 -0.2870  0.1728
 6332W        W10076   4.033   4.904   9.619  0.0516  0.0325 -0.0906
 6333W        W10077   3.724   4.568   0.497 -0.0255  0.0140  0.0936
 6334W        W10078   6.122   9.663   3.184 -0.2150 -0.1824  0.3484
 6335W        W10079   6.930   2.783   4.365  0.1687 -0.3344  0.3201
 6336W        W10080   5.072   7.432   2.382 -0.3013 -0.2002 -0.1882
 6337W        W10081   1.922   0.037   1.839  0.2533 -0.1627 -0.1051
 6338W        W10082   6.413   1.679   0.906 -0.0653  0.0383 -0.0010
 6339W        W10083   9.289   5.647   1.944  0.1251 -0.2086 -0.1140
 6340W        W10084   8.447   4.157   2.556 -0.0847  0.0919 -0.2872
 6341W        W10085   0.592   0.364  10.797  0.2711  0.1215 -0.0065
 6342W        W10086   5.470   9.838   3.550  0.2716  0.0211  0.0250
 6343W        W10087   7.332   1.639   1.125 -0.1390 -0.1640 -0.2529
 6344W        W10088   4.803   0.991   9.229  0.2714 -0.0938  0.4210
 6345W        W10089   8.751   6.091   4.208  0.1421  0.1947  0.0123
 6346W        W10090   4.324   2.850   2.062 -0.1805 -0.0633  0.2515
 6347W        W10091   3.823   8.359   2.716 -0.0401  0.1904  0.0363
 6348W        W10092   9.083   3.515   9.393 -0.1791  0.2451  0.1588
 6349W        W10093   3.842   2.555  11.120  0.2208 -0.0975  0.0821
 6350W        W10094   3.517   2.918   0.842 -0.0421  0.0554  0.2902
 6351W        W10095   8.294   4.634  11.342 -0.0734 -0.1631 -0.1029
 6352W        W10096   6.239   4.111   1.850 -0.1743  0.0894 -0.1259
 6353W        W10097   7.719   0.008   4.443  0.2993 -0.2462  0.0234
 6354W        W10098   8.556   7.760  11.527  0.1326 -0.0189 -0.0915
 6355W        W10099   4.554   2.827  10.723  0.0617  0.2878 -0.1199
 6356W        W10100   0.584   5.170   7.926 -0.0464 -0.0152  0.1186
 6357W        W10101   4.825   2.772   0.438  0.1770  0.0461  0.1006
 6358W        W10102   8.908   4.123   2.800  0.3034 -0.0546 -0.0463
 6359W        W10103   4.926   8.045   2.142 -0.2545  0.1757  0.1475
 6360W        W10104   7.406   0.103  12.424  0.2697  0.1287  0.0752
 6361W        W10105   0.750   1.316  11.923  0.1562 -0.3857  0.2086
 6362W        W10106   2.373   1.226   1.811  0.1077  0.2012 -0.4835
 6363W        W10107   0.950   8.172  11.911  0.3351  0.0501 -0.2276
 6364W        W10108   2.929   9.428  10.301 -0.1402  0.3415 -0.3031
 6365W        W10109   5.142   2.156   4.426  0.0733  0.0213 -0.0296
 6366W        W10110   9.250   9.808   2.354  0.3629  0.1455 -0.2479
 6367W        W10111   4.928   4.314   1.765 -0.1542  0.2611 -0.0297
 6368W        W10112   5.321   8.666   0.890 -0.1813  0.0345  0.0544
 6369W        W10113   6.268   5.984   9.630 -0.0132 -0.1334 -0.2184
 6370W        W10114   2.976   6.653   3.961  0.2399  0.1595  0.0588
 6371W        W10115   9.708   0.364   9.974 -0.1073 -0.4191 -0.1403
 6372W        W10116   3.963   1.217   0.722  0.0427  0.0054  0.3824
 6373W        W10117   7.829   1.314  12.441 -0.4045  0.0012  0.2073
 6374W        W10118   2.981   9.220   9.318 -0.1557 -0.2564  0.1173
 6375W        W10119   7.277   5.863   1.577 -0.1001 -0.0560 -0.4402
 6376W        W10120   5.853   0.101   0.571  0.1054 -0.0441  0.1157
 6377W        W10121   1.567   5.388  12.650 -0.0849 -0.1575 -0.2258
 6378W        W10122   3.082   2.513   0.865  0.0647 -0.4434 -0.1335
 6379W        W10123   8.985   5.373   2.194 -0.0400 -0.0884  0.1267
 6380W        W10124   4.447   8.609  10.507  0.1307  0.0037  0.2783
 6381W        W10125   1.578   7.438   1.256  0.0381 -0.0513  0.0839
 6382W        W10126   4.740   9.136   3.669 -0.2518  0.2733 -0.0575
 6383W        W10127   5.254   7.845   9.928  0.1096 -0.1343  0.1878
 6384W        W10128   8.363   9.224  11.943 -0.0352  0.2647 -0.0230
 6385W        W10129   4.027   9.516   1.004 -0.0256 -0.0260 -0.0388
 6386W        W10130   2.998   8.818   0.947 -0.2282  0.0763  0.0442
 6387W        W10131   6.892   7.122  10.930 -0.2594 -0.0402 -0.0436
 6388W        W10132   2.160   0.014   3.218  0.0401  0.0937  0.1981
 6389W        W10133   4.100   2.664   0.448  0.0619  0.3422  0.2037
 6390W        W10134   5.490   3.358   1.069 -0.2103  0.1819  0.3661
 6391W        W10135   9.223   5.357   1.386  0.1617 -0.0484  0.2496
 6392W        W10136   9.482   8.316  10.592  0.0712 -0.1540 -0.1989
 6393W        W10137   4.372   5.245   9.894  0.0663 -0.0630  0.1803
 6394W        W10138   3.467   7.516   2.686  0.1718  0.0030  0.2807
 6395W        W10139   0.993   6.451  11.462 -0.1676  0.2319 -0.3521
 6396W        W10140   3.039   2.148   0.404  0.1132 -0.2263  0.0139
 6397W        W10141   3.258   3.650   2.498  0.0555 -0.1341  0.1017
 6398W        W10142   3.051   1.690   0.613  0.0314 -0.0627 -0.4747
 6399W        W10143   4.612   7.808   0.918 -0.3264  0.0975  0.2107
 6400W        W10144   7.859   0.481   4.586 -0.0712  0.1861 -0.1269
 6401W        W10145   8.542   1.445   0.560 -0.0212 -0.2487  0.0751
 6402W        W10146   6.241   9.728  10.061  0.2603 -0.1818  0.0241
 6403W        W10147   2.673   8.130  10.349 -0.1605  0.2220  0.1898
 6404W        W10148   8.603   6.849   9.578  0.2052 -0.0438 -0.0893
 6405W        W10149   6.770   9.459   9.459  0.4305  0.0629  0.1437
 6406W        W10150   8.375   0.324   3.549 -0.0212 -0.2933 -0.0069
 6407W        W10151   6.702   9.802   4.941 -0.0187 -0.0988 -0.2228
 6408W        W10152   9.803   3.717   2.966  0.3066  0.1589  0.3767
 6409W        W10153   8.195   7.885   3.235  0.0962  0.1363 -0.6273
 6410W        W10154   6.559   4.959  10.837 -0.0483  0.1997  0.0703
 6411W        W10155   0.535   9.088  12.360 -0.1598  0.3115 -0.3109
 6412W        W10156   7.524   3.350  11.869  0.2324  0.0645 -0.1882
 6413W        W10157   6.892   5.031   2.688  0.2254  0.2648  0.3057
 6414W        W10158   5.393   5.728   4.095 -0.2157  0.3308  0.2979
 6415W        W10159   7.945   2.033   3.747  0.0398  0.0305 -0.2038
 6416W        W10160   5.378   4.193   1.638 -0.0508  0.1730  0.0264
 6417W        W10161   7.311   7.789  10.991 -0.0625 -0.0616  0.3583
 6418W        W10162   3.072   9.764   1.172 -0.2483  0.3560  0.0587
 6419W        W10163   3.003   6.440   4.439  0.0858 -0.4864 -0.0372
 6420W        W10164   0.451   9.424   1.645  0.3145  0.0910 -0.1296
 6421W        W10165   7.748   4.217   2.266 -0.2092 -0.1737  0.2863
 6422W        W10166   4.118   2.965   9.248  0.1002  0.1476 -0.0604
 6423W        W10167   3.803   0.834  11.583 -0.1367 -0.1348 -0.0752
 6424W        W10168   6.932   1.750   8.408 -0.3763  0.3219 -0.1044
 6425W        W10169   5.205   8.605  11.640 -0.0470  0.0408  0.3256
 6426W        W10170   6.109   9.461   8.700  0.0296  0.3369 -0.1685
 6427W        W10171   4.845   2.319   1.702 -0.2171 -0.0970  0.0105
 6428W        W10172   4.188   1.610  11.300 -0.1068 -0.1767 -0.0049
 6429W        W10173   0.564   3.258   9.452 -0.0728 -0.0839  0.0935
 6430W        W10174   9.241   8.786   2.661  0.0731 -0.2225  0.0232
 6431W        W10175   5.155   9.868   9.361  0.0131  0.0696 -0.0741
 6432W        W10176   0.644   5.844  10.102 -0.1908  0.1063 -0.2957
 6433W        W10177   1.105   9.308  10.531 -0.1071 -0.0847 -0.1459
 6434W        W10178   5.839   6.223   1.335 -0.1352 -0.2872 -0.0566
 6435W        W10179   4.704   8.557   8.703 -0.1011 -0.0700 -0.4878
 6436W        W10180   3.525   4.770   1.183 -0.3161 -0.3289  0.0998
 6437W        W10181   4.106   3.332  10.581 -0.2542  0.0069  0.1369
 6438W        W10182   8.300   6.729   3.503 -0.0421  0.1459 -0.3595
 6439W        W10183   0.136   8.766   2.801  0.1744 -0.0743 -0.0031
 6440W        W10184   3.067   5.565   2.870 -0.0288  0.0105  0.0256
 6441W        W10185   9.244   3.756  10.480 -0.0827  0.2519  0.1373
 6442W        W10186   8.342   4.088   9.322  0.3045 -0.2450  0.2665
 6443W        W10187   7.880   9.812  12.530  0.1217 -0.2984 -0.1094
 6444W        W10188   6.788   5.122  10.414  0.0545  0.0140  0.1363
 6445W        W10189   2.186   3.306  11.702  0.0590  0.0819  0.1593
 6446W        W10190   0.205   1.054   0.915 -0.2150 -0.0301  0.2668
 6447W        W10191   8.507   4.141   1.521  0.0095  0.1360 -0.0303
 6448W        W10192   0.263   3.682   1.548 -0.0807 -0.2008 -0.1526
 6449W        W10193   5.094   5.227   9.004  0.3993 -0.1425  0.3412
 6450W        W10194   2.071   5.540  11.074 -0.0798 -0.1264  0.0819
 6451W        W10195   0.249   9.489   1.179 -0.1442 -0.2419 -0.1413
 6452W        W10196   4.631   7.061   3.792  0.0940 -0.0418  0.2037
 6453W        W10197   7.028   8.533   2.523 -0.0702 -0.0621  0.3387
 6454W        W10198   6.923   9.086   2.635 -0.3013 -0.0115 -0.1305
 6455W        W10199   3.560   7.310  10.167  0.0105 -0.0877 -0.1635
 6456W        W10200   8.537   6.936   0.381  0.1471  0.4030 -0.1118
 6457W        W10201   6.961   3.396   0.139 -0.1134  0.0773  0.0323
 6458W        W10202   0.839   2.544  10.645  0.0976  0.1813 -0.2856
 6459W        W10203   0.956   0.079  10.097  0.2582  0.2133 -0.1397
 6460W        W10204   1.220   6.097   4.145 -0.0156  0.1919  0.0962
 6461W        W10205   7.273   5.894  10.792  0.4182 -0.2878  0.2117
 6462W        W10206   7.278   8.290  10.688  0.2139 -0.1869 -0.0535
 6463W        W10207   8.167   3.248   1.828 -0.2584 -0.2460 -0.1870
 6464W        W10208   2.770   7.123  10.009  0.2197 -0.0136 -0.1898
 6465W        W10209   7.031   0.335   9.726 -0.0275  0.2331  0.1930
 6466W        W10210   2.216   9.344  11.422  0.1109 -0.0457 -0.2228
 6467W        W10211   6.573   7.523  11.373  0.1871 -0.1570 -0.1604
 6468W        W10212   1.880   8.857   5.026  0.4375 -0.0348  0.0078
 6469W        W10213   6.809   6.819  10.196  0.1985  0.0744  0.0853
 6470W        W10214   6.864   9.764   9.882 -0.1997 -0.0054  0.0195
 6471W        W10215   7.498   0.819   4.560 -0.0866 -0.2393  0.4048
 6472W        W10216   8.682   8.784   9.520 -0.1954 -0.0552 -0.0059
 6473W        W10217   7.505   2.050   0.856 -0.1851  0.1058 -0.2656
 6474W        W10218   7.082   7.036   0.687 -0.0203 -0.0072  0.1833
 6475W        W10219   9.304   8.112   0.755 -0.2032  0.1019 -0.1466
 6476W        W10220   3.346   9.333  12.780  0.0791  0.2339 -0.1419
 6477W        W10221   1.284   8.498  10.111  0.0420 -0.0713  0.0427
 6478W        W10222   6.560   1.838   4.251  0.0697 -0.0998  0.1399
 6479W        W10223   6.468   8.274   3.191 -0.1453  0.0306  0.0937
 6480W        W10224   8.129   8.811   3.157 -0.0218  0.4078  0.0771
 6481W        W10225   3.180   3.009   0.290 -0.1958 -0.1588 -0.1370
 6482W        W10226   1.381   5.306   2.582  0.0168 -0.4250 -0.2236
 6483W        W10227   5.452   4.583   0.236  0.2402  0.1932  0.2715
 6484W        W10228   7.941   7.198  10.573 -0.2746  0.3767 -0.4286
 6485W        W10229   5.971   8.574   3.965  0.0123 -0.0266  0.2313
 6486W        W10230   1.360   2.151  11.526  0.1129 -0.1688 -0.1771
 6487W        W10231   3.770   8.514   0.869 -0.1158  0.2328  0.1768
 6488W        W10232   1.819   2.699   9.763  0.0073  0.1411  0.0420
 6489W        W10233   9.036   0.850   0.867  0.0929 -0.4504  0.2983
 6490W        W10234   9.329   0.220  12.478 -0.1687  0.1458 -0.3647
 6491W        W10235   4.023   5.528   0.889  0.2406 -0.0398 -0.2072
 6492W        W10236   0.585   2.710   0.398 -0.0310  0.3983  0.1016
 6493W        W10237   4.177   9.880   4.699 -0.2848  0.2515 -0.2364
 6494W        W10238   6.128   2.094  10.410  0.3318 -0.1487 -0.3049
 6495W        W10239   0.810   0.703  11.310 -0.0807  0.2095  0.2472
 6496W        W10240   0.292   9.486   3.360  0.1604 -0.0398 -0.1018
 6497W        W10241   3.300   8.193   1.419  0.3900  0.2995  0.0050
 6498W        W10242   8.694   9.539  11.622  0.0714 -0.3786  0.2348
 6499W        W10243   8.120   6.220   3.304 -0.2049  0.0625  0.2437
 6500W        W10244   1.218   5.910   2.762  0.0377 -0.1143  0.1064
 6501W        W10245   9.650   9.916   9.407  0.1389  0.2216 -0.1337
 6502W        W10246   0.389   3.482   9.962 -0.1653  0.1201  0.0636
 6503W        W10247   4.897   0.322   1.858  0.1956 -0.0037 -0.1026
 6504W        W10248   6.135   6.506   2.269  0.1139  0.0813 -0.2606
 6505W        W10249   7.918   1.902   9.374  0.0131 -0.0682  0.2647
 6506W        W10250   8.980   7.278  12.205 -0.0779  0.0935 -0.2253
 6507W        W10251   1.601   6.140   9.346  0.1766  0.0517 -0.1345
 6508W        W10252   1.928   9.626   1.473  0.1828  0.3770  0.1503
 6509W        W10253   2.646   1.281   2.303  0.0691  0.1639  0.0030
 6510W        W10254   2.094   5.446   3.244 -0.0054  0.0611  0.0470
 6511W        W10255   2.348   7.909   8.721 -0.2532 -0.2108  0.1261
 6512W        W10256   4.142   5.896   3.581 -0.1559 -0.1926  0.0087
 6513W        W10257   7.356   8.772   9.248  0.2428 -0.1223  0.2561
 6514W        W10258   5.438   4.003   0.261  0.1863 -0.1443  0.0448
 6515W        W10259   9.156   1.862   0.862  0.1707 -0.0168 -0.0122
 6516W        W10260   6.943   9.651  11.804 -0.0873 -0.2734 -0.0792
 6517W        W10261   5.101   6.972   3.721 -0.2636 -0.0695 -0.1808
 6518W        W10262   2.620   7.246  10.447 -0.1445  0.0216 -0.0387
 6519W        W10263   2.299   9.126   1.595  0.2792  0.1536  0.1826
 6520W        W10264   5.514   7.514  12.278  0.1995  0.2069  0.0726
 6521W        W10265   6.690   3.925   3.442 -0.2607 -0.1544  0.0678
 6522W        W10266   4.174   8.758  12.410  0.2064 -0.1918  0.2682
 6523W        W10267   2.536   8.881   1.172  0.1763 -0.2944 -0.1221
 6524W        W10268   0.008   7.307   2.139  0.2922  0.0557 -0.0845
 6525W        W10269   5.310   5.711  11.231 -0.1875  0.0257 -0.1061
 6526W        W10270   2.079   6.038   0.783  0.1163  0.0597  0.0442
 6527W        W10271   9.299   7.365  10.488  0.3384  0.0496 -0.2771
 6528W        W10272   5.777   6.691   2.578  0.1046 -0.2197 -0.2719
 6529W        W10273   9.670   3.534  10.356  0.3902 -0.0031  0.4178
 6530W        W10274   4.157   1.839   8.344 -0.1498 -0.1342  0.1215
 6531W        W10275   8.002   5.437   9.089 -0.1304 -0.0265  0.0641
 6532W        W10276   6.234   4.791  11.540  0.0607 -0.1462  0.1252
 6533W        W10277   2.214   8.704  11.991 -0.1945 -0.2585  0.0385
 6534W        W10278   4.004   8.607   3.434  0.0145  0.1488 -0.5561
 6535W        W10279   0.821   5.052  10.534 -0.1099  0.0222  0.0598
 6536W        W10280   8.314   3.187  10.416  0.2589  0.0535 -0.2192
 6537W        W10281   7.670   0.361   0.575 -0.1073 -0.1653  0.1598
 6538W        W10282   2.518   6.748  10.834  0.0141 -0.0546  0.1631
 6539W        W10283   2.942   5.332  12.186 -0.2937 -0.2946  0.1256
 6540W        W10284   2.394   0.827  10.020  0.0117  0.0956 -0.1723
 6541W        W10285   4.073   2.837  10.695 -0.2638  0.0985  0.1234
 6542W        W10286   2.634   7.289  11.505 -0.2240 -0.2692  0.1434
 6543W        W10287   5.440   2.180   3.304 -0.2333  0.1753 -0.1704
 6544W        W10288   5.286   7.838   0.213 -0.2009 -0.1462  0.2954
 6545W        W10289   4.077   6.978   0.169  0.1603 -0.0706  0.1046
 6546W        W10290   6.925   2.540  10.789  0.0820 -0.1548 -0.2035
 6547W        W10291   2.686   5.906   0.114  0.0691  0.0906  0.0712
 6548W        W10292   0.600   1.668  12.324  0.0036 -0.1572  0.0267
 6549W        W10293   0.753   6.245   8.853  0.1474 -0.0626  0.1504
 6550W        W10294   7.445   2.095  11.505  0.0942  0.1150  0.1632
 6551W        W10295   1.702   1.564  10.752  0.3314 -0.2903 -0.2640
 6552W        W10296   6.572   8.895   5.163 -0.3110  0.0173 -0.1761
 6553W        W10297   9.174   7.709  12.462 -0.2693 -0.1075 -0.1404
 6554W        W10298   8.147   9.820  11.684 -0.1286 -0.0850 -0.1778
 6555W        W10299   7.108   1.387   0.330 -0.0813 -0.1907  0.3296
 6556W        W10300   9.626   4.977   2.927  0.1590  0.2284 -0.1656
 6557W        W10301   4.074   0.557  10.298  0.3663 -0.5341 -0.0189
 6558W        W10302   1.043   6.791   8.146 -0.1629 -0.2559 -0.3614
 6559W        W10303   7.927   6.073   3.737  0.3687  0.1568 -0.4323
 6560W        W10304   2.412   5.207  10.936  0.0763  0.5725 -0.0120
 6561W        W10305   5.098   1.811  11.441  0.0249  0.1401 -0.3022
 6562W        W10306   4.528   3.978  10.142  0.1005 -0.1163 -0.0497
 6563W        W10307   9.105   9.204   3.846 -0.6378 -0.1248  0.0412
 6564W        W10308   6.465   8.651   3.870  0.1768 -0.1767  0.0252
 6565W        W10309   7.178   0.287   9.012 -0.2753 -0.0311 -0.3435
 6566W        W10310   5.718   5.597  11.609  0.0851  0.0580  0.1955
 6567W        W10311   4.073   3.998   2.246 -0.2717  0.0004 -0.1743
 6568W        W10312   4.154   6.776  11.454  0.2203  0.0970 -0.0212
 6569W        W10313   6.582   8.352  11.957  0.0279  0.5139  0.2647
 6570W        W10314   6.739   5.091   4.597 -0.1291  0.1786  0.1460
 6571W        W10315   3.861   6.664   2.831 -0.0078  0.0565  0.2618
 6572W        W10316   8.325   1.666   9.715 -0.0873  0.2790 -0.1197
 6573W        W10317   6.906   3.275   9.859  0.3122 -0.0582  0.1211
 6574W        W10318   3.818   2.401  11.932 -0.3766 -0.0078  0.1228
 6575W        W10319   1.483   5.928  12.522  0.2670  0.0189 -0.0644
 6576W        W10320   4.098   5.388   0.132 -0.1249 -0.1677 -0.1249
 6577W        W10321   6.973   3.044  10.375  0.0702 -0.2222 -0.1855
 6578W        W10322   6.463   0.862   1.475  0.0125  0.2403  0.0554
 6579W        W10323   3.685   9.487   1.896 -0.1390  0.1365 -0.0448
 6580W        W10324   8.897   0.503   8.826 -0.0628 -0.0437  0.4920
 6581W        W10325   1.466   1.003   1.564  0.2401  0.1423 -0.1387
 6582W        W10326   5.646   7.408   3.228  0.1749  0.1376  0.2783
 6583W        W10327   0.879   8.929  10.148  0.4589 -0.3611  0.0747
 6584W        W10328   5.065   7.016  10.951 -0.4183  0.0391 -0.0829
 6585W        W10329   4.752   1.585   2.346  0.0839  0.0664  0.6608
 6586W        W10330   4.160   6.862   9.082 -0.1381  0.1742  0.2659
 6587W        W10331   0.068   4.523  12.346 -0.1064 -0.3208 -0.1025
 6588W        W10332   0.090   6.058  11.278 -0.3067 -0.1392  0.0059
 6589W        W10333   9.544   1.730   1.577  0.1520 -0.3814 -0.3001
 6590W        W10334   3.687   1.340   1.907  0.1697  0.1416 -0.3410
 6591W        W10335   8.960   8.355   2.529  0.0044 -0.3165  0.0072
 6592W        W10336   0.855   9.278   1.344  0.1900  0.1430  0.0155
 6593W        W10337   8.047   3.096  12.811 -0.1072  0.0053 -0.0225
 6594W        W10338   4.202   7.965  11.707  0.1056 -0.0724  0.2822
 6595W        W10339   0.759   8.394   4.537  0.4225  0.2936  0.0657
 6596W        W10340   2.600   4.538   0.924 -0.1977  0.0633  0.0095
 6597W        W10341   9.718   1.725   9.801 -0.2510 -0.1825  0.0505
 6598W        W10342   0.669   6.028   0.716 -0.1335  0.1511  0.0794
 6599W        W10343   4.121   9.545   8.952  0.1568 -0.1260 -0.0765
 6600W        W10344   9.827   7.514  11.939  0.0029  0.2220 -0.1755
 6601W        W10345   0.205   6.163  10.079  0.6533  0.1694  0.2852
 6602W        W10346   2.919   8.214   0.240  0.1946  0.1808 -0.0516
 6603W        W10347   0.762   3.300  12.803  0.1313 -0.0498  0.1944
 6604W        W10348   6.599   2.818  11.803 -0.0337  0.0309  0.0377
 6605W        W10349   5.023   0.982   3.129  0.2484 -0.1690 -0.2180
 6606W        W10350   6.153   6.692  12.345 -0.2232 -0.0307  0.1025
 6607W        W10351   0.373   9.886  12.336  0.2229  0.1616 -0.1900
 6608W        W10352   9.760   6.279   0.261 -0.2960 -0.1331  0.0766
 6609W        W10353   1.140   3.068  12.496  0.1018 -0.1323 -0.0844
 6610W        W10354   8.628   1.138   0.142  0.1857 -0.0762  0.1042
 6611W        W10355   4.978   6.136  10.381 -0.1386  0.0035  0.1259
 6612W        W10356   2.451   1.113  11.787 -0.2503  0.3614 -0.2935
 6613W        W10357   4.098   0.361   3.946  0.1289  0.0864  0.2451
 6614W        W10358   5.918   9.360   1.360 -0.3335 -0.3394 -0.0209
 6615W        W10359   5.349   6.180  10.712 -0.0492  0.1382 -0.0996
 6616W        W10360   4.783   0.004   2.221  0.0526  0.0971  0.3541
 6617W        W10361   8.728   8.955   8.855 -0.0619  0.0610 -0.0078
 6618W        W10362   4.194   7.488   0.123 -0.0800  0.1933  0.1833
 6619W        W10363   1.150   8.243   9.472  0.0730 -0.3447 -0.4173
 6620W        W10364   7.748   5.241  12.485 -0.3149  0.2091  0.1653
 6621W        W10365   0.429   4.979  10.157 -0.0165 -0.4364 -0.0199
 6622W        W10366   4.809   9.679   9.689 -0.1878 -0.1520  0.0031
 6623W        W10367   5.695   9.891  12.556  0.2707  0.0473  0.2649
 6624W        W10368   0.558   3.967  11.194 -0.2100  0.2993  0.2128
 6625W        W10369   6.972   3.296   3.339  0.0221  0.1347  0.0153
 6626W        W10370   9.420   9.031   1.451 -0.1216  0.0947 -0.0033
 6627W        W10371   0.460   8.021   4.252 -0.1180  0.0788  0.2441
 6628W        W10372   8.777   6.202   0.172  0.0245 -0.0470 -0.1482
 6629W        W10373   9.364   8.960  12.575 -0.0818  0.1093  0.2982
 6630W        W10374   8.612   4.789   1.417  0.0147  0.0460  0.0485
 6631W        W10375   1.132   7.582   3.482  0.0263 -0.0609 -0.2083
 6632W        W10376   5.777   6.644  12.671 -0.0198  0.1824  0.0930
 6633W        W10377   8.472   7.549  10.178 -0.2228 -0.1534  0.1061
 6634W        W10378   1.011   5.952  12.708 -0.3125 -0.3453 -0.1035
 6635W        W10379   8.964   9.411   0.513 -0.0795 -0.1258 -0.1735
 6636W        W10380   4.597   9.800   2.932 -0.0346  0.0487  0.1510
 6637W        W10381   6.354   8.195  12.469  0.1426  0.1938  0.1039
 6638W        W10382   9.530   6.059  11.184 -0.0129  0.4556  0.1754
 6639W        W10383   4.720   3.113   0.979 -0.1618 -0.1676  0.2996
 6640W        W10384   6.113   6.206   2.669 -0.1539 -0.1725  0.1546
 6641W        W10385   0.871   1.375   2.427 -0.1538 -0.0774 -0.2019
 6642W        W10386   7.410   0.898   0.432  0.1053 -0.3333 -0.2528
 6643W        W10387   4.979   5.453   3.415 -0.2494  0.1758  0.1379
 6644W        W10388   3.276   6.352  10.303  0.0993 -0.1580  0.2839
 6645W        W10389   5.876   8.255  11.176 -0.4154 -0.2883 -0.0648
 6646W        W10390   1.204   1.421  10.046 -0.1231  0.2455 -0.5191
 6647W        W10391   2.977   2.963   1.738 -0.1243 -0.1250 -0.0830
 6648W        W10392   9.007   0.561   0.458 -0.0221  0.2685  0.1267
 6649W        W10393   9.094   5.698  12.603 -0.2563 -0.1047 -0.2187
 6650W        W10394   5.372   5.082   0.319  0.0175  0.0104  0.1905
 6651W        W10395   9.715   3.542  12.431 -0.1474  0.1098 -0.3568
 6652W        W10396   2.662   8.088   1.547  0.2058  0.0329  0.1144
 6653W        W10397   5.828   8.974   3.701 -0.0970  0.2586 -0.4637
 6654W        W10398   7.886   4.469  10.234  0.0565  0.2655  0.0217
 6655W        W10399   9.876   6.198  10.736 -0.1215 -0.1904 -0.2947
 6656W        W10400   6.937   8.812   8.696  0.3212 -0.1660 -0.1031
 6657W        W10401   7.462   4.389  10.783  0.1176 -0.4793  0.0198
 6658W        W10402   5.315   9.143   3.818 -0.0022  0.2387  0.3536
 6659W        W10403   8.269   0.379   2.305  0.0944  0.1354 -0.1327
 6660W        W10404   2.587   1.683  10.139  0.1326  0.1579  0.0065
 6661W        W10405   2.540   5.228   3.544 -0.2061  0.1256 -0.2851
 6662W        W10406   8.769   1.214   2.554 -0.1936  0.4079 -0.1412
 6663W        W10407   2.467   9.357   9.105  0.1407 -0.0853  0.0705
 6664W        W10408   3.425   1.980   0.736 -0.4102  0.0691 -0.3136
 6665W        W10409   8.862   6.944   8.671 -0.2310 -0.3028 -0.1045
 6666W        W10410   2.188   1.647  10.543  0.0065 -0.1377  0.1446
 6667W        W10411   9.381   1.532   0.498  0.0790 -0.2253 -0.1570
 6668W        W10412   2.251   2.159   2.111  0.3221  0.0665  0.0089
 6669W        W10413   6.532   0.448   0.719 -0.1223  0.2252  0.2509
 6670W        W10414   3.390   2.204   2.971  0.1821  0.1986 -0.0169
 6671W        W10415   5.678   9.059   0.899 -0.1500 -0.0612  0.3445
 6672W        W10416   4.254   4.653  10.748  0.2368 -0.1210 -0.1528
 6673W        W10417   9.000   2.029  12.882 -0.0632 -0.1157 -0.1616
 6674W        W10418   7.544   8.043   3.318  0.1176 -0.3515  0.0688
 6675W        W10419   9.362   7.824  10.747  0.1796 -0.1439 -0.0164
 6676W        W10420   6.970   7.591   9.354  0.0468  0.0065  0.0028
 6677W        W10421   9.295   7.890   2.395 -0.1151 -0.2658  0.1028
 6678W        W10422   6.333   4.745   0.461 -0.0780  0.0033  0.1336
 6679W        W10423   2.987   8.220   2.329  0.1993  0.0316 -0.0276
 6680W        W10424   9.841   6.110   3.011 -0.0305  0.0031  0.1655
 6681W        W10425   1.979   4.263  10.690 -0.0868 -0.0661 -0.1699
 6682W        W10426   6.942   7.363   2.783 -0.3143 -0.0403 -0.1536
 6683W        W10427   7.024   4.489  10.989  0.1011 -0.0584  0.3466
 6684W        W10428   1.992   8.588   2.530 -0.0916  0.1977  0.2199
 6685W        W10429   5.388   2.151   9.962  0.1928  0.1628 -0.0174
 6686W        W10430   8.677   4.468   3.094 -0.0296  0.2808 -0.0110
 6687W        W10431   2.469   4.814  11.226  0.0134  0.2082  0.2153
 6688W        W10432   2.323   1.195   2.661  0.0917  0.1801 -0.3206
 6689W        W10433   9.267   3.761   3.063  0.0040  0.0551  0.1624
 6690W        W10434   4.486   6.156   7.829 -0.1826  0.2021 -0.2271
 6691W        W10435   7.171   9.513   2.461  0.1119  0.0092  0.1314
 6692W        W10436   1.091   3.839   2.851 -0.3104  0.1387  0.1153
 6693W        W10437   0.820   4.614  10.270 -0.1410  0.2420 -0.0459
 6694W        W10438   9.675   6.547   8.871 -0.1065  0.0949 -0.2477
 6695W        W10439   6.385   2.487   1.796  0.1393 -0.0843 -0.0316
 6696W        W10440   0.128   2.848   1.025  0.0045 -0.1497 -0.3690
 6697W        W10441   4.427   0.211  12.100 -0.2010 -0.0211  0.2320
 6698W        W10442   7.092   1.327  11.833 -0.3546 -0.1978  0.0050
 6699W        W10443   8.760   3.913  10.601 -0.0228 -0.3567  0.3646
 6700W        W10444   6.351   9.752   1.471  0.1481  0.1720  0.0961
 6701W        W10445   8.231   0.202  10.009 -0.2065 -0.0785 -0.1416
 6702W        W10446   0.494   3.640   0.609 -0.0070 -0.0347  0.2218
 6703W        W10447   8.591   1.944  10.058 -0.0530  0.1131  0.0321
 6704W        W10448   4.647   7.755   2.501  0.0283 -0.2003 -0.1301
 6705W        W10449   6.743   5.068   3.263 -0.1237 -0.1361 -0.1412
 6706W        W10450   8.067   2.979   2.847 -0.0791  0.0872 -0.0684
 6707W        W10451   6.321   9.177   3.909 -0.1264  0.1917  0.0588
 6708W        W10452   6.383   6.575  10.040 -0.1006  0.2256 -0.1556
 6709W        W10453   4.341   3.499  10.126  0.3090  0.0143  0.0481
 6710W        W10454   1.526   9.615   1.892 -0.0467  0.1480 -0.1629
 6711W        W10455   4.422   8.708   1.859 -0.0156 -0.0509 -0.2661
 6712W        W10456   1.504   4.536  12.592  0.0741  0.3369 -0.2590
 6713W        W10457   9.706   8.377   2.062 -0.2617 -0.1802 -0.1492
 6714W        W10458   7.112   8.297   3.929 -0.0119 -0.1627  0.0434
 6715W        W10459   1.553   3.667  12.201  0.0829 -0.5210 -0.3044
 6716W        W10460   6.889   7.269  12.724  0.0200 -0.1862 -0.3116
 6717W        W10461   0.666   4.415   1.062  0.0974  0.3118 -0.3777
 6718W        W10462   9.001   9.173   2.873  0.0206  0.2281 -0.1366
 6719W        W10463   1.151   2.558   0.476 -0.1582  0.1274  0.0269
 6720W        W10464   5.142   3.832   4.238 -0.4195  0.2530  0.0885
 6721W        W10465   8.703   2.960  12.788  0.0573  0.0485  0.2696
 6722W        W10466   2.815   3.963  11.105  0.0189 -0.0423  0.0760
 6723W        W10467   3.958   8.208   9.294 -0.1907 -0.2112  0.0770
 6724W        W10468   4.575   3.234   1.573  0.1329  0.0280  0.3438
 6725W        W10469   6.815   3.087   1.403  0.1505 -0.0181  0.1362
 6726W        W10470   3.355   9.314   1.046  0.2918  0.1582 -0.0153
 6727W        W10471   6.368   2.080   1.302  0.1101 -0.0587 -0.3352
 6728W        W10472   6.622   9.450   1.780  0.3089  0.0183  0.0917
 6729W        W10473   1.833   6.958   2.049  0.0431  0.1352  0.1907
 6730W        W10474   5.996   4.736  10.589 -0.1266 -0.1827 -0.2607
 6731W        W10475   9.896   2.146  10.589 -0.1331  0.0568  0.2933
 6732W        W10476   3.060   5.535   0.677 -0.0341 -0.0734  0.0328
 6733W        W10477   6.967   6.431   3.707 -0.0142  0.2045 -0.0732
 6734W        W10478   1.369   6.244   0.033 -0.2178 -0.1852 -0.2064
 6735W        W10479   2.496   6.734   3.811  0.0331  0.3484 -0.2144
 6736W        W10480   8.563   2.747   1.372  0.0853 -0.1019  0.0188
 6737W        W10481   9.511   3.117   0.635  0.2533 -0.2743 -0.1422
 6738W        W10482   7.893   3.038   3.409  0.2106  0.3896 -0.0269
 6739W        W10483   0.116   9.749   8.125 -0.0757 -0.3941  0.3308
 6740W        W10484   4.105   6.619  10.567 -0.1130  0.1176  0.0833
 6741W        W10485   4.989   0.817   0.579 -0.1544 -0.0252  0.2209
 6742W        W10486   2.639   2.620   1.896 -0.1108 -0.0951 -0.0322
 6743W        W10487   7.856   5.033   1.432 -0.0438 -0.0132 -0.1776
 6744W        W10488   2.285   9.850  12.679 -0.2882 -0.1095 -0.2610
 6745W        W10489   2.244   4.136   0.940  0.1174  0.1267  0.5179
 6746W        W10490   2.858   2.266  10.912  0.0675 -0.0987  0.1119
 6747W        W10491   7.013   8.509   9.446  0.0834  0.1318 -0.2443
 6748W        W10492   4.892   0.993   9.844 -0.1439 -0.0926 -0.2374
 6749W        W10493   5.051   3.158   3.120  0.1541  0.5120 -0.2770
 6750W        W10494   0.398   0.396   9.907 -0.0060  0.0396 -0.1148
 6751W        W10495   3.817   8.957   2.031 -0.0435 -0.0122 -0.1223
 6752W        W10496   8.886   1.835   0.441 -0.2258  0.4884  0.0848
 6753W        W10497   8.506   8.829  10.015 -0.0350 -0.0911 -0.0270
 6754W        W10498   3.055   2.106   1.094 -0.2962 -0.0537  0.2612
 6755W        W10499   0.199   5.892   1.455  0.1085 -0.2205 -0.0031
 6756W        W10500   6.239   6.263   8.952 -0.1762 -0.0596  0.2487
 6757W        W10501   1.675   5.238   1.430 -0.0384  0.2548  0.1255
 6758W        W10502   5.567   5.377  12.654  0.4289 -0.0185  0.0143
 6759W        W10503   2.136   9.035  10.337  0.1339 -0.2094 -0.3967
 6760W        W10504   0.012   6.826   4.329 -0.1769  0.3179 -0.2144
 6761W        W10505   0.345   3.621   0.101  0.1864  0.1142  0.1092
 6762W        W10506   0.988   4.314   1.446  0.0773 -0.2072 -0.3729
 6763W        W10507   5.299   1.143  10.575  0.0397 -0.1915 -0.1347
 6764W        W10508   6.766   9.388   1.251  0.2085 -0.3644 -0.0788
 6765W        W10509   6.247   2.968  11.447  0.2710  0.0217 -0.2371
 6766W        W10510   7.913   4.305   5.071  0.3524  0.2713 -0.0460
 6767W        W10511   4.475   1.171   9.664 -0.2788  0.2216  0.0943
 6768W        W10512   2.948   6.717  11.133  0.1679 -0.0091 -0.2007
 6769W        W10513   0.569   5.197   1.697 -0.1660  0.1804  0.2288
 6770W        W10514   3.051   0.361  11.978 -0.4914 -0.0521 -0.0573
 6771W        W10515   1.104   6.481   8.542  0.3118 -0.3561  0.1028
 6772W        W10516   7.234   6.773   9.863 -0.0186 -0.1522  0.2020
 6773W        W10517   3.839   1.122   2.564 -0.1703  0.1751 -0.2539
 6774W        W10518   3.888   1.231   0.227  0.3338 -0.1137  0.3462
 6775W        W10519   1.598   5.370   3.353 -0.2085 -0.3885 -0.0597
 6776W        W10520   3.214   8.199  11.307 -0.2907 -0.0334  0.1318
 6777W        W10521   5.544   3.175   2.004  0.1297  0.1559  0.1585
 6778W        W10522   4.797   5.488  12.221  0.3545 -0.0900  0.0796
 6779W        W10523   2.941   3.258  10.611  0.1580  0.0505 -0.2281
 6780W        W10524   3.915   2.217   2.193  0.0129 -0.4760  0.1204
 6781W        W10525   3.318   6.949  11.932 -0.3463  0.2232 -0.0271
 6782W        W10526   5.136   7.870  12.535 -0.2594  0.2164  0.2711
 6783W        W10527   9.315   0.414   9.689  0.3893  0.1048 -0.0566
 6784W        W10528   6.769   1.821   1.245  0.0592 -0.1411 -0.1397
 6785W        W10529   9.151   6.938   2.353 -0.1615  0.0712 -0.4500
 6786W        W10530   8.337   8.233   4.572  0.2399 -0.0246  0.0848
 6787W        W10531   9.023   9.723   1.958  0.2134  0.2885 -0.2073
 6788W        W10532   0.324   2.097  10.973 -0.1330  0.1562  0.1356
 6789W        W10533   6.739   8.727   0.453  0.0286 -0.0632 -0.0036
 6790W        W10534   4.277   1.415   2.577 -0.1654 -0.0847 -0.1041
 6791W        W10535   9.079   8.892  11.314  0.1549 -0.0487 -0.0166
 6792W        W10536   5.045   1.722   9.767 -0.0203 -0.0018  0.1727
 6793W        W10537   3.757   0.345   1.302  0.1560 -0.3543  0.0941
 6794W        W10538   6.562   3.335   2.543  0.0087 -0.2529  0.1475
 6795W        W10539   7.084   4.704   2.319 -0.0743  0.2531  0.0248
 6796W        W10540   3.281   1.514   9.341 -0.0218  0.1420 -0.0357
 6797W        W10541   1.975   9.289   0.076 -0.0739 -0.0729  0.1089
 6798W        W10542   7.134   7.498  11.972  0.4840 -0.2939  0.1402
 6799W        W10543   0.398   8.457  10.741 -0.1470  0.3523  0.1591
 6800W        W10544   7.116   5.980   3.394 -0.3677 -0.0586  0.1020
 6801W        W10545   4.428   6.377   1.253 -0.1449 -0.1002  0.1469
 6802W        W10546   5.187   0.126   5.083 -0.1385 -0.0400  0.0541
 6803W        W10547   5.571   0.738  11.855 -0.0103  0.2715 -0.2542
 6804W        W10548   4.577   1.992   9.268  0.1442  0.2399 -0.2383
 6805W        W10549   3.556   0.515   0.861  0.0203  0.0749 -0.1599
 6806W        W10550   9.173   3.403  12.097  0.0203 -0.2888  0.0688
 6807W        W10551   1.492   1.474   1.371  0.0645  0.0512  0.0505
 6808W        W10552   8.541   8.438  11.566  0.0718 -0.1571  0.1248
 6809W        W10553   8.722   7.852   2.451 -0.2118  0.3204  0.0258
 6810W        W10554   7.220   6.937   4.590  0.1921  0.0706  0.4033
 6811W        W10555   3.148   5.665   8.593  0.2691  0.1232 -0.5242
 6812W        W10556   6.516   6.912   0.485 -0.2381 -0.1388  0.0211
 6813W        W10557   5.426   5.574   9.843 -0.0126  0.0150  0.2326
 6814W        W10558   2.674   4.415   0.409  0.2124 -0.3121 -0.2088
 6815W        W10559   1.817   9.731   4.103  0.1895  0.0152 -0.1811
 6816W        W10560   4.295   4.159   0.935 -0.1073  0.3058  0.0600
 6817W        W10561   0.033   7.382   3.505 -0.3208 -0.1712 -0.2001
 6818W        W10562   3.504   9.552   3.853 -0.2349 -0.2513  0.0277
 6819W        W10563   6.347   3.844   1.236  0.1781 -0.0630  0.1468
 6820W        W10564   9.772   3.440   2.494 -0.3807 -0.2479 -0.1301
 6821W        W10565   1.266   7.957   4.291  0.1947  0.3904  0.3950
 6822W        W10566   8.739   0.509   3.125  0.2692  0.2038  0.1457
 6823W        W10567   3.000   1.933   9.480  0.0501 -0.2561  0.0855
 6824W        W10568   9.002   6.832  11.298  0.0357  0.1184 -0.0382
 6825W        W10569   0.806   4.339   2.057 -0.2297 -0.3506 -0.1739
 6826W        W10570   4.413   3.611   2.874  0.2658 -0.1024  0.2745
 6827W        W10571   7.440   6.195   1.116  0.3287 -0.1943 -0.0028
 6828W        W10572   1.655   4.013  12.562 -0.0747  0.0244 -0.1300
 6829W        W10573   0.207   8.172   3.746  0.1814  0.0702 -0.2647
 6830W        W10574   1.248   3.818  12.790  0.1166  0.0219 -0.0516
 6831W        W10575   8.416   3.683   2.155  0.0903  0.2284  0.0080
 6832W        W10576   6.879   2.663   0.187  0.2178 -0.1493  0.0894
 6833W        W10577   9.613   5.569   2.914 -0.3550  0.1028 -0.3473
 6834W        W10578   8.648   7.363   1.558 -0.2772 -0.1292 -0.2026
 6835W        W10579   5.931   1.211   5.295 -0.1402  0.0138 -0.1826
 6836W        W10580   3.139   4.416   0.634  0.1249  0.1998  0.4154
 6837W        W10581   0.144   2.335   9.510  0.0109 -0.0503 -0.1359
 6838W        W10582   2.277   0.634  11.668  0.1510  0.1191 -0.1061
 6839W        W10583   8.728   3.863   9.030  0.2551 -0.2050  0.1990
 6840W        W10584   4.845   9.266   4.128  0.0723 -0.0669 -0.0328
 6841W        W10585   7.006   4.860  10.064  0.1319 -0.0924  0.2795
 6842W        W10586   0.343   0.328   3.498  0.0254  0.0253 -0.0912
 6843W        W10587   4.638   2.186   3.712 -0.2500  0.2133 -0.1729
 6844W        W10588   8.821   9.540   2.490 -0.0053 -0.2384 -0.3234
 6845W        W10589   3.566   9.672   0.232  0.3801  0.2430  0.3749
 6846W        W10590   8.407   1.226   3.296  0.3584 -0.2349 -0.2300
 6847W        W10591   6.649   7.790  12.765 -0.0577  0.4320  0.3558
 6848W        W10592   6.234   2.981   2.675 -0.0653  0.2256 -0.0550
 6849W        W10593   5.590   5.705   2.150 -0.1941 -0.3719 -0.0059
 6850W        W10594   8.427   7.001   8.891  0.4153  0.0966 -0.0059
 6851W        W10595   2.145   8.760   0.912  0.1033 -0.1998  0.0287
 6852W        W10596   7.478   2.148   9.314  0.0206  0.2718  0.0531
 6853W        W10597   5.083   4.644   0.547  0.1425 -0.0264  0.0027
 6854W        W10598   6.906   5.683  11.159  0.3600 -0.1429 -0.0472
 6855W        W10599   7.034   0.731   9.464 -0.4589  0.1812 -0.3397
 6856W        W10600   3.827   1.590   2.316 -0.1180 -0.3790 -0.1286
 6857W        W10601   9.682   2.852   4.276 -0.2235  0.0963 -0.0129
 6858W        W10602   6.301   0.870   9.247 -0.0401 -0.0375  0.0357
 6859W        W10603   7.324   4.076   0.006  0.1039 -0.3505  0.0669
 6860W        W10604   2.061   6.957   1.598  0.0038  0.0061 -0.6025
 6861W        W10605   5.826   1.804  10.731  0.1895  0.4141  0.0376
 6862W        W10606   4.934   4.326   0.089 -0.2433  0.2484  0.0921
 6863W        W10607   3.159   9.862  10.029 -0.2078 -0.3374  0.3545
 6864W        W10608   6.581   2.681   4.001 -0.1058 -0.0556  0.2921
 6865W        W10609   1.791   1.337  12.236 -0.3490 -0.2299 -0.1398
 6866W        W10610   7.782   5.240   0.916  0.1028 -0.2553  0.0032
 6867W        W10611   8.228   1.258   2.671  0.3081 -0.2989  0.1783
 6868W        W10612   9.140   1.448   1.699 -0.1243  0.3494 -0.1912
 6869W        W10613   7.568   9.710   2.744 -0.2902 -0.0806 -0.3243
 6870W        W10614   4.090   4.260   0.266 -0.1084  0.1197  0.0682
 6871W        W10615   2.168   4.360   0.442 -0.0355  0.0339 -0.0221
 6872W        W10616   1.701   2.628   1.588 -0.1614 -0.2162 -0.0430
 6873W        W10617   9.063   8.885   0.608  0.3888 -0.0537  0.1305
 6874W        W10618   1.892   3.687   2.315  0.3237 -0.1279 -0.1643
 6875W        W10619   4.232   8.903   8.161  0.3097  0.2413  0.1001
 6876W        W10620   5.364   8.073   4.432  0.1712  0.1561  0.1028
 6877W        W10621   5.888   9.631  10.475 -0.0296  0.1787  0.0341
 6878W        W10622   4.594   8.584   2.408  0.1591 -0.1255  0.4075
 6879W        W10623   9.219   4.618   4.057  0.1761  0.2764  0.1036
 6880W        W10624   4.935   3.522  11.658 -0.2834  0.1830 -0.0605
 6881W        W10625   8.823   8.907   2.409 -0.1894 -0.1498 -0.3831
 6882W        W10626   3.759   1.596  10.156 -0.3553 -0.0341  0.0111
 6883W        W10627   0.691   1.966   2.976 -0.2704 -0.0062 -0.2294
 6884W        W10628   8.787   9.002   1.433  0.2917 -0.1659 -0.1594
 6885W        W10629   2.139   8.914   3.241  0.5062  0.0621 -0.0594
 6886W        W10630   6.285   2.989  12.370 -0.0301 -0.0586 -0.0301
 6887W        W10631   3.862   0.422   3.393  0.1457  0.1587 -0.0184
 6888W        W10632   5.500   8.141   0.611  0.2020 -0.1698 -0.0621
 6889W        W10633   6.757   1.100   3.823 -0.0660  0.1220 -0.2825
 6890W        W10634   0.767   7.093   1.130  0.1099  0.0925 -0.0032
 6891W        W10635   2.466   5.123   2.017 -0.5108  0.1992 -0.1578
 6892W        W10636   8.679   9.424   3.738 -0.0771 -0.0160  0.0672
 6893W        W10637   7.896   0.465   1.162  0.2853 -0.2738  0.0232
 6894W        W10638   7.563   5.430   4.391  0.1990  0.2436  0.0709
 6895W        W10639   3.612   5.817   2.913  0.4128  0.2496 -0.3115
 6896W        W10640   8.787   0.382   3.761 -0.3198 -0.0183 -0.2701
 6897W        W10641   4.848   2.038  11.769 -0.0276  0.0546  0.1229
 6898W        W10642   2.502   7.650   3.006  0.0440  0.1104 -0.3406
 6899W        W10643   4.395   7.981   9.185 -0.0923 -0.0766 -0.3076
 6900W        W10644   8.828   3.394   2.107  0.1094 -0.1285 -0.0945
 6901W        W10645   4.562   6.665   1.679  0.0974  0.4863 -0.1066
 6902W        W10646   6.523   3.115   9.079  0.1882 -0.0942 -0.0605
 6903W        W10647   1.875   0.902  10.632 -0.0694 -0.3709 -0.2097
 6904W        W10648   5.165   8.466   8.669  0.0267 -0.1860 -0.0490
 6905W        W10649   3.241   5.118  11.635 -0.0622  0.1331 -0.2348
 6906W        W10650   8.816   9.278   8.425 -0.2968  0.2964 -0.0364
 6907W        W10651   4.332   1.038  10.163 -0.0825 -0.2645 -0.0144
 6908W        W10652   9.744   5.093  12.069 -0.1765 -0.1110  0.0543
 6909W        W10653   4.723   0.430  10.930 -0.2049 -0.2523  0.0553
 6910W        W10654   5.094   1.712   0.589 -0.0063 -0.3570 -0.0818
 6911W        W10655   4.626   0.304   4.366  0.0611  0.0511 -0.0091
 6912W        W10656   3.946   8.104   2.112 -0.3677 -0.1916  0.1583
 6913W        W10657   2.607   0.119   2.569  0.0191  0.1473 -0.0054
 6914W        W10658   2.596   5.300   0.897 -0.0051 -0.1773 -0.3226
 6915W        W10659   8.238   3.678   1.551  0.3142  0.0140 -0.2851
 6916W        W10660   7.148   5.487   5.468  0.0330  0.0254 -0.2668
 6917W        W10661   3.268   0.234  10.797 -0.1029  0.1987  0.1567
 6918W        W10662   1.193   9.447   3.289  0.3854 -0.1524 -0.1826
 6919W        W10663   4.593   7.622   0.317 -0.2075  0.0151 -0.0053
 6920W        W10664   5.352   9.448  11.351  0.1460 -0.2058  0.1601
 6921W        W10665   9.363   6.900  12.281 -0.0398 -0.3237 -0.1527
 6922W        W10666   6.323   7.218   7.886 -0.1312 -0.0650  0.0696
 6923W        W10667   8.360   2.556   0.083 -0.3833  0.3490 -0.0495
 6924W        W10668   2.185   0.192   4.190  0.0592 -0.2519  0.0320
 6925W        W10669   1.677   5.746   1.632 -0.0840 -0.0938  0.2401
 6926W        W10670   0.065   4.944   4.503 -0.1200 -0.1260 -0.1134
 6927W        W10671   1.653   3.117   2.871  0.0699 -0.0274  0.2827
 6928W        W10672   6.171   5.039   3.070 -0.0718  0.1062 -0.1727
 6929W        W10673   6.636   3.881  11.787  0.2030  0.2598 -0.0371
 6930W        W10674   1.233   7.957  11.543  0.0073 -0.2037  0.3425
 6931W        W10675   8.433   1.310   9.075 -0.3906 -0.0642  0.3971
 6932W        W10676   7.145   8.892  10.469 -0.0335  0.0427 -0.2876
 6933W        W10677   7.996   0.827   9.198 -0.2896  0.1201  0.2153
 6934W        W10678   0.159   2.548   2.898 -0.2558  0.1649  0.1499
 6935W        W10679   3.748   3.639   0.329 -0.0573 -0.0216  0.1035
 6936W        W10680   1.163   4.575  10.787  0.0545  0.1615 -0.0782
 6937W        W10681   8.454   5.875  12.136 -0.3045 -0.2080  0.1523
 6938W        W10682   0.935   4.803   1.848 -0.0606  0.2407 -0.2934
 6939W        W10683   0.224   5.507   1.713 -0.0075  0.4141 -0.1873
 6940W        W10684   5.955   8.080   0.352  0.3458 -0.1820 -0.1177
 6941W        W10685   5.625   9.763   3.028  0.0522  0.4108 -0.0148
 6942W        W10686   2.363   2.587   9.554  0.0881 -0.1966  0.0589
 6943W        W10687   4.955   3.055  10.755 -0.2250 -0.0621 -0.0813
 6944W        W10688   9.888   5.223   8.492 -0.0494  0.0765  0.2238
 6945W        W10689   7.551   2.859   3.016  0.0029 -0.1632 -0.3304
 6946W        W10690   2.483   0.112  11.847 -0.1827 -0.0894  0.1334
 6947W        W10691   3.380   4.549   2.743 -0.0042 -0.1168  0.0051
 6948W        W10692   1.212   8.253   1.985  0.1221 -0.1598 -0.2851
 6949W        W10693   4.295   9.362   2.908  0.3301 -0.0687  0.0010
 6950W        W10694   4.661   9.209   9.638 -0.0583  0.2851 -0.2068
 6951W        W10695   2.879   0.885  10.367  0.0125 -0.1469 -0.1128
 6952W        W10696   3.614   0.801   0.225  0.1319  0.1180 -0.0064
 6953W        W10697   2.241   2.944   1.975 -0.0922  0.1427  0.3181
 6954W        W10698   6.045   7.965   3.283  0.2201 -0.1596  0.1755
 6955W        W10699   8.822   2.065   2.191 -0.0167  0.1066  0.2988
 6956W        W10700   2.792   9.291   0.864  0.1479 -0.0264  0.2443
 6957W        W10701   2.682   3.428  11.078  0.0601  0.2063  0.0298
 6958W        W10702   2.072   4.334  11.873  0.4409 -0.0084 -0.0426
 6959W        W10703   4.793   3.265   2.691 -0.2213 -0.1835 -0.0006
 6960W        W10704   2.079   8.341  11.588  0.0922 -0.0053  0.3022
 6961W        W10705   0.529   0.427   4.047 -0.1586  0.1649 -0.0987
 6962W        W10706   8.626   8.342   9.337 -0.3269 -0.2016 -0.1487
 6963W        W10707   0.608   3.012   0.802 -0.1159 -0.4024 -0.0473
 6964W        W10708   7.643   2.230   8.852  0.0546  0.0653  0.0049
 6965W        W10709   2.727   6.385  12.607  0.0715  0.0649  0.0104
 6966W        W10710   9.872   2.114   1.596  0.1568 -0.0739 -0.1933
 6967W        W10711   1.061   6.980   9.688  0.1941  0.2412  0.0802
 6968W        W10712   6.538   6.272   3.944  0.0551 -0.0867 -0.1475
 6969W        W10713   2.401   4.957   0.604 -0.3134  0.3191 -0.0407
 6970W        W10714   0.496   6.760   0.130  0.1333 -0.1191  0.1032
 6971W        W10715   8.789   3.819  10.072  0.0351 -0.1087 -0.1464
 6972W        W10716   4.137   3.471   3.314 -0.1622 -0.2343 -0.1613
 6973W        W10717   8.203   7.007   2.904 -0.1240  0.0484 -0.3720
 6974W        W10718   2.298   3.074  11.239 -0.2184 -0.0919  0.0535
 6975W        W10719   6.877   4.557   3.238 -0.1470 -0.1182 -0.0767
 6976W        W10720   7.109   5.899  10.251  0.3041  0.4858 -0.0036
 6977W        W10721   8.046   7.642   4.274 -0.1097 -0.0393  0.4799
 6978W        W10722   3.239   6.815   0.136  0.1262 -0.1266 -0.1463
 6979W        W10723   6.481   8.085   1.181  0.5639  0.0386  0.1542
 6980W        W10724   8.186   1.796   1.099 -0.0411 -0.1318 -0.0436
 6981W        W10725   3.203   1.992  11.648 -0.0489  0.3975 -0.1377
 6982W        W10726   1.086   0.431  11.889  0.0843  0.3543  0.1963
 6983W        W10727   7.470   9.810   2.157 -0.0432  0.1507  0.1856
 6984W        W10728   4.196   9.362  10.236  0.4541 -0.0755 -0.0385
 6985W        W10729   0.943   0.411  12.779  0.1778  0.0136 -0.1197
 6986W        W10730   7.684   1.088   2.882 -0.1823 -0.0453  0.0442
 6987W        W10731   4.891   5.461   0.195 -0.0121  0.5039  0.0704
 6988W        W10732   7.802   0.393  10.853 -0.0449 -0.0215  0.0588
 6989W        W10733   5.764   3.098   2.986  0.0027  0.0565 -0.1876
 6990W        W10734   2.761   3.497   9.657  0.1040 -0.2569  0.1103
 6991W        W10735   2.514   9.563   9.581  0.3379 -0.1125 -0.0590
 6992W        W10736   0.604   8.606  11.126  0.1119  0.2435 -0.0145
 6993W        W10737   7.333   1.273   3.813  0.1787  0.2579  0.1845
 6994W        W10738   8.108   9.365   1.918 -0.1161  0.2820 -0.5132
 6995W        W10739   7.403   6.598   2.882  0.1942  0.0405  0.0315
 6996W        W10740   8.769   4.284   2.136 -0.0384  0.3989  0.1328
 6997W        W10741   9.898   5.196   2.469  0.0637 -0.1036 -0.3832
 6998W        W10742   1.661   5.985  12.034  0.1888  0.0288  0.3645
 6999W        W10743   7.696   1.277   9.025 -0.0724  0.1187  0.1617
 7000W        W10744   3.462   7.931   9.343  0.0071  0.1407 -0.1053
 7001W        W10745   1.897   9.104   2.836 -0.3501 -0.0291 -0.2756
 7002W        W10746   1.157   6.737   0.076  0.3614 -0.0215 -0.0319
 7003W        W10747   4.615   9.035   4.549  0.2359 -0.0410  0.1799
 7004W        W10748   7.458   7.045  11.329  0.0343  0.0036  0.1647
 7005W        W10749   7.241   0.894   4.130 -0.0161  0.1111 -0.1946
 7006W        W10750   0.287   9.393   9.919 -0.0541 -0.0440 -0.1825
 7007W        W10751   2.896   5.051   9.758  0.0308  0.1464 -0.0705
 7008W        W10752   2.912   0.470   1.824 -0.1325  0.1748 -0.4778
 7009W        W10753   8.903   1.558  10.065 -0.0061 -0.0077  0.1140
 7010W        W10754   2.476   7.444   9.692 -0.0623 -0.1008  0.3179
 7011W        W10755   5.286   6.060   4.436 -0.0605  0.1754 -0.2425
 7012W        W10756   0.271   1.319   3.584  0.0796 -0.1994 -0.0388
 7013W        W10757   3.723   7.528   2.244 -0.2303 -0.1204 -0.0483
 7014W        W10758   7.225   6.573  10.359 -0.2187  0.0915 -0.0683
 7015W        W10759   6.765   7.397   0.339 -0.1586  0.0894 -0.0754
 7016W        W10760   4.561   3.079  10.277  0.1041  0.1385  0.3567
 7017W        W10761   5.169   3.766   1.391  0.1760  0.0982  0.5185
 7018W        W10762   6.356   7.874   2.872  0.1597 -0.0897  0.0202
 7019W        W10763   0.827   6.389  12.810 -0.0771 -0.0655  0.1044
 7020W        W10764   7.175   3.180   2.903  0.4005 -0.0038  0.1179
 7021W        W10765   7.080   3.929  10.930 -0.1280 -0.3176  0.0912
 7022W        W10766   1.634   1.166  10.984 -0.2584  0.1457  0.0982
 7023W        W10767   9.820   3.813   8.554 -0.2604 -0.0970 -0.2848
 7024W        W10768   3.751   7.919   8.451 -0.0163 -0.0076 -0.4507
 7025W        W10769   0.218   5.882   0.130  0.4075  0.1518 -0.1050
 7026W        W10770   3.107   1.474   2.113 -0.1557 -0.1759  0.0240
 7027W        W10771   2.876   4.953   0.688  0.2585  0.1638 -0.1157
 7028W        W10772   7.408   7.263  10.868 -0.1643 -0.1669 -0.1597
 7029W        W10773   0.183   0.163   2.994  0.0545 -0.0682 -0.2453
 7030W        W10774   4.868   2.801   1.386 -0.0500  0.1746 -0.3913
 7031W        W10775   3.708   0.332   0.390  0.1335  0.0744 -0.0987
 7032W        W10776   6.584   9.891  11.354  0.4155  0.2176 -0.0554
 7033W        W10777   2.408   6.051  10.127  0.1252 -0.2203  0.1322
 7034W        W10778   7.616   7.494   0.526 -0.3482  0.1136 -0.0109
 7035W        W10779   6.138   7.051   3.259 -0.0602  0.1303  0.1824
 7036W        W10780   3.524   3.812  11.239  0.1100 -0.0453 -0.0275
 7037W        W10781   2.379   6.827  10.367  0.0185  0.0431 -0.0790
 7038W        W10782   8.351   6.220  11.761 -0.2782 -0.3070  0.1217
 7039W        W10783   7.882   9.449   5.281  0.4375  0.0739 -0.0656
 7040W        W10784   7.218   2.417   0.681  0.2496 -0.4376  0.2474
 7041W        W10785   6.188   3.916  11.220 -0.1453 -0.2091  0.0879
 7042W        W10786   9.294   9.534  11.197  0.0858 -0.0648  0.0327
 7043W        W10787   7.992   2.565   3.115  0.0665 -0.3063 -0.1436
 7044W        W10788   3.113   1.906  12.169  0.0809  0.1437  0.0261
 7045W        W10789   8.807   1.526  11.568 -0.0946 -0.0008 -0.1385
 7046W        W10790   7.970   0.660   1.622 -0.2332 -0.2378  0.1643
 7047W        W10791   8.460   0.829   8.889  0.0263 -0.2278 -0.2585
 7048W        W10792   8.714   8.035   4.320  0.0777 -0.0237  0.2059
 7049W        W10793   2.870   9.475  12.576 -0.0041  0.0820  0.1107
 7050W        W10794   0.491   7.444   3.036  0.3290 -0.0227 -0.0705
 7051W        W10795   3.857   9.257   0.237  0.1292  0.0712 -0.1814
 7052W        W10796   1.156   4.181   0.378  0.0658 -0.1060 -0.0620
 7053W        W10797   2.561   7.104   1.411 -0.0797  0.0087 -0.1745
 7054W        W10798   4.959   8.370  12.670 -0.2941 -0.1357 -0.1251
 7055W        W10799   6.934   9.835   3.279  0.2044 -0.3438  0.0235
 7056W        W10800   5.108   0.518   0.965  0.1981 -0.1290 -0.0130
 7057W        W10801   4.703   2.291   2.671 -0.2819 -0.2623 -0.1472
 7058W        W10802   8.444   6.302  10.589  0.0906 -0.3030  0.1772
 7059W        W10803   2.525   2.496  10.518 -0.1920 -0.2206  0.0107
 7060W        W10804   3.367   8.033   1.999 -0.2300 -0.3188 -0.0965
 7061W        W10805   3.043   7.672   3.810 -0.0147 -0.0478 -0.1265
 7062W        W10806   2.907   7.845   3.326 -0.2347 -0.0871 -0.0067
 7063W        W10807   7.573   6.180   9.506  0.0589 -0.3265  0.0766
 7064W        W10808   4.917   3.390  10.189 -0.2492  0.2442 -0.0709
 7065W        W10809   8.525   7.899   1.216  0.2417  0.0138 -0.0882
 7066W        W10810   2.548   8.568   8.863 -0.2792 -0.0848 -0.1129
 7067W        W10811   1.254   8.712   1.852 -0.0587  0.0966  0.0376
 7068W        W10812   0.783   1.825   2.449 -0.0147  0.1687 -0.4153
 7069W        W10813   9.228   8.620   1.191  0.0379  0.2461  0.0050
 7070W        W10814   5.235   8.112  11.192 -0.1408 -0.0115 -0.1155
 7071W        W10815   1.371   7.642   1.671  0.1150  0.1178 -0.0840
 7072W        W10816   3.147   9.086  10.554  0.0304  0.3576 -0.2531
 7073W        W10817   1.127   0.130   8.681 -0.0424 -0.1103 -0.1592
 7074W        W10818   7.781   8.143   0.133 -0.0867 -0.1526  0.1885
 7075W        W10819   2.032   1.623  11.094  0.0097  0.2858 -0.1590
 7076W        W10820   4.894   8.482   1.812  0.0473 -0.0788  0.1143
 7077W        W10821   6.545   3.324  11.818  0.1976 -0.0345 -0.0256
 7078W        W10822   3.859   3.581  10.214 -0.1186 -0.3328  0.1037
 7079W        W10823   3.150   8.757  11.392  0.0463 -0.2120 -0.3818
 7080W        W10824   8.440   9.828  10.768 -0.2640 -0.0887 -0.1968
 7081W        W10825   5.219   4.672   1.018 -0.1608  0.1211 -0.0070
 7082W        W10826   6.764   0.065   1.625  0.2294  0.0248  0.1365
 7083W        W10827   1.031   9.048   0.551 -0.0609  0.1510  0.0360
 7084W        W10828   4.680   8.770   1.359 -0.0181  0.1729 -0.0383
 7085W        W10829   6.842   6.940   3.023 -0.2632  0.0445  0.0376
 7086W        W10830   5.430   6.144   0.302  0.0008  0.0292 -0.2592
 7087W        W10831   9.482   3.933   9.996  0.1365  0.0578  0.0927
 7088W        W10832   3.987   0.743   0.562  0.1818  0.2443 -0.2806
 7089W        W10833   4.542   0.117   9.992  0.0292  0.1622 -0.1178
 7090W        W10834   2.624   2.007   0.039 -0.2170 -0.0512  0.3291
 7091W        W10835   4.414   4.893  11.846 -0.1556  0.1681  0.0311
 7092W        W10836   6.495   0.964   2.135 -0.0390  0.0389 -0.1309
 7093W        W10837   0.013   5.427   1.245  0.2527  0.0060 -0.1063
 7094W        W10838   6.842   1.433   0.840 -0.5061  0.1032 -0.0724
 7095W        W10839   6.273   1.093  10.715  0.2608  0.2763  0.3564
 7096W        W10840   5.133   8.954   8.180  0.0340  0.1299 -0.1196
 7097W        W10841   3.115   0.893   2.290 -0.0506  0.0207 -0.1108
 7098W        W10842   4.855   0.843   1.917  0.1468  0.1905  0.0539
 7099W        W10843   2.552   9.495   8.630  0.0727  0.0213  0.4041
 7100W        W10844   7.116   1.314  11.339 -0.0018  0.1142 -0.1843
 7101W        W10845   4.014   3.098  10.124  0.0778 -0.0431  0.3432
 7102W        W10846   5.795   8.320   9.219  0.1263  0.0417  0.0476
 7103W        W10847   2.618   2.294   0.801  0.1744  0.2160  0.3490
 7104W        W10848   3.933   7.717   3.798  0.0689 -0.2694 -0.2929
 7105W        W10849   2.931   8.548  12.801 -0.1326 -0.0817 -0.0378
 7106W        W10850   0.115   3.908   3.703  0.0113 -0.0398  0.3922
 7107W        W10851   6.033   5.110   4.050  0.1143  0.1924 -0.2006
 7108W        W10852   9.297   4.483   2.480 -0.0748 -0.0918  0.2120
 7109W        W10853   6.113   2.455   1.389 -0.0339  0.1345 -0.1024
 7110W        W10854   6.732   9.185   0.231  0.2679 -0.0012  0.2371
 7111W        W10855   1.731   4.341   9.476 -0.1492  0.1434 -0.1616
 7112W        W10856   6.478   9.291   2.966  0.0545 -0.1518 -0.0472
 7113W        W10857   5.778   3.222   0.151  0.1588 -0.2781  0.2531
 7114W        W10858   0.307   7.399   4.863  0.3364  0.3091  0.0208
 7115W        W10859   2.737   3.488   2.493 -0.2911 -0.1117 -0.3136
 7116W        W10860   4.512   3.528   0.775  0.3957 -0.1062  0.0511
 7117W        W10861   5.674   4.883  12.838  0.3064 -0.2146  0.1856
 7118W        W10862   2.908   2.210   2.104 -0.3625  0.0350 -0.2265
 7119W        W10863   4.695   6.217   4.544  0.0112  0.0908  0.2634
 7120W        W10864   6.881   3.003   2.366 -0.0466  0.0379  0.0314
 7121W        W10865   4.444   5.974  11.033  0.1340 -0.2265  0.2198
 7122W        W10866   6.882   1.641  10.967  0.1330  0.0715  0.0161
 7123W        W10867   9.489   8.035  12.719  0.1465 -0.0507 -0.0465
 7124W        W10868   8.867   0.838   3.978  0.1638  0.1509  0.3576
 7125W        W10869   4.103   6.738   1.871 -0.0058  0.0279 -0.1606
 7126W        W10870   0.453   0.220   2.136  0.2246  0.0800 -0.2316
 7127W        W10871   0.996   6.362  10.649 -0.2453  0.3282 -0.0003
 7128W        W10872   3.852   7.312   3.026 -0.0854 -0.3692  0.3337
 7129W        W10873   5.599   4.701   0.672 -0.1938  0.0241 -0.5766
 7130W        W10874   4.051   4.195  11.043  0.2175 -0.1740  0.0209
 7131W        W10875   5.650   1.615   1.803  0.2096 -0.1548  0.1811
 7132W        W10876   7.645   2.120  12.797 -0.1757 -0.3251  0.2805
 7133W        W10877   1.944   7.584  10.947  0.0620 -0.0612  0.2034
 7134W        W10878   7.918   8.962  12.004 -0.0761  0.1170  0.0944
 7135W        W10879   5.637   0.187   0.106  0.1680 -0.5214 -0.0515
 7136W        W10880   1.075   3.976   1.910 -0.2738 -0.1437  0.1839
 7137W        W10881   9.051   9.694   8.143  0.0115 -0.0039  0.0422
 7138W        W10882   2.679   9.846   3.364  0.3653  0.0511  0.1454
 7139W        W10883   0.242   5.315   3.508 -0.1706  0.3566 -0.1013
 7140W        W10884   9.285   9.097  12.116 -0.0288  0.0796  0.3192
 7141W        W10885   8.049   4.749   0.244  0.1688  0.2132 -0.3604
 7142W        W10886   6.647   1.612  10.520 -0.1334 -0.0130  0.2607
 7143W        W10887   6.992   6.466   2.650 -0.2366  0.2556 -0.0550
 7144W        W10888   3.058   5.465   1.570  0.5364 -0.4490  0.1495
 7145W        W10889   0.764   6.542   1.094 -0.0371 -0.0221 -0.0183
 7146W        W10890   8.169   5.572   2.467 -0.1858 -0.3966  0.1785
 7147W        W10891   8.913   8.175  10.741  0.1203  0.2326  0.0171
 7148W        W10892   1.930   5.889   0.358 -0.0649  0.0048  0.1934
 7149W        W10893   8.258   0.288  12.503  0.0778  0.0525  0.3406
 7150W        W10894   6.033   9.908  12.194  0.0491 -0.2293  0.0650
 7151W        W10895   7.060   3.486  10.699 -0.2198 -0.3799 -0.1807
 7152W        W10896   7.804   5.240   2.677  0.0029 -0.0787 -0.0878
 7153W        W10897   7.479   2.879  12.072 -0.3183  0.3308 -0.0921
 7154W        W10898   6.285   0.848   0.868  0.0678 -0.1955 -0.2253
 7155W        W10899   1.038   2.465  12.473  0.0004 -0.2687 -0.1120
 7156W        W10900   1.514   0.193  11.745 -0.0584 -0.0839 -0.1134
 7157W        W10901   6.165   9.072   2.520 -0.0737  0.0284  0.2356
 7158W        W10902   1.469   6.745  12.132  0.1650  0.4085 -0.1458
 7159W        W10903   6.116   0.262  11.229  0.0126  0.0212 -0.1232
 7160W        W10904   0.663   7.349  10.344 -0.2555  0.0631 -0.1684
 7161W        W10905   6.173   2.639   3.682 -0.0323  0.0663  0.1666
 7162W        W10906   0.523   4.240   9.314  0.0061 -0.5357  0.1300
 7163W        W10907   2.471   8.362   1.167  0.1779 -0.0007 -0.0603
 7164W        W10908   5.831   2.632  11.401  0.1098 -0.1479  0.1612
 7165W        W10909   5.314   5.706   0.077  0.0264  0.2396 -0.1147
 7166W        W10910   0.083   0.014   1.350 -0.0111  0.2403  0.1409
 7167W        W10911   4.067   9.104   4.261 -0.0205 -0.0338  0.1190
 7168W        W10912   9.644   0.419   4.262  0.1729 -0.1392  0.1097
 7169W        W10913   7.064   8.358   0.291 -0.0312 -0.1467  0.1473
 7170W        W10914   5.618   9.835   4.359 -0.2743 -0.0190 -0.1129
 7171W        W10915   2.129   7.433   9.310  0.4471  0.0398 -0.1840
 7172W        W10916   0.071   8.181   9.479 -0.2111  0.1717  0.0474
 7173W        W10917   3.278   8.367   0.889 -0.0147  0.0559 -0.1396
 7174W        W10918   5.058   6.878  11.508  0.1855 -0.0418 -0.1742
 7175W        W10919   0.877   7.133   4.135 -0.1286  0.2702 -0.1054
 7176W        W10920   3.050   4.678   1.105 -0.1745  0.2133  0.2099
 7177W        W10921   6.092   6.262  12.692 -0.2858 -0.0850 -0.2911
 7178W        W10922   5.095   7.044   0.233 -0.3656 -0.1881  0.3509
 7179W        W10923   6.735   3.374   2.047 -0.3205  0.1949  0.1414
 7180W        W10924   1.627   6.411   1.417  0.1784 -0.1460 -0.1419
 7181W        W10925   1.224   4.401   0.967  0.0745 -0.1015 -0.4501
 7182W        W10926   5.729   0.113   3.919 -0.4511  0.1307  0.3355
 7183W        W10927   9.335   8.312  11.992 -0.1696 -0.0252  0.2516
 7184W        W10928   2.913   6.604   8.354  0.1497 -0.3173  0.0154
 7185W        W10929   4.979   0.887  10.829 -0.0407 -0.0902 -0.2168
 7186W        W10930   8.127   0.731  12.720 -0.0062 -0.0382 -0.1159
 7187W        W10931   8.935   0.900   8.554  0.0798 -0.0737  0.2249
 7188W        W10932   2.879   1.884  11.258  0.0620 -0.2652 -0.0976
 7189W        W10933   3.257   6.485  12.614 -0.1547  0.2679  0.2107
 7190W        W10934   9.623   3.823   9.496  0.4547  0.1320  0.0837
 7191W        W10935   4.428   0.451   9.134 -0.2624  0.2588 -0.1632
 7192W        W10936   0.982   8.127   1.562 -0.1344  0.0056  0.2777
 7193W        W10937   9.318   1.550  11.778 -0.1331  0.0615 -0.2125
 7194W        W10938   6.582   9.327  10.003 -0.0352 -0.1426 -0.2900
 7195W        W10939   9.635   9.524  11.848  0.0568 -0.4727 -0.1317
 7196W        W10940   3.050   1.194   0.731 -0.1204 -0.2793 -0.1608
 7197W        W10941   0.170   0.532   0.746 -0.0490 -0.0912 -0.3057
 7198W        W10942   5.741   0.490   9.728 -0.1856 -0.1247 -0.2168
 7199W        W10943   4.648   6.582  11.260 -0.1301 -0.1964  0.0981
 7200W        W10944   3.629   7.617   8.905 -0.0048 -0.0292  0.1220
 7201W        W10945   2.692   1.385  11.096  0.1848 -0.1985  0.4217
 7202W        W10946   7.639   9.282   9.855  0.2938  0.0146 -0.1122
 7203W        W10947   5.180   1.331  11.529 -0.1490 -0.2343  0.0806
 7204W        W10948   3.829   8.199   0.024  0.0233 -0.1859 -0.3312
 7205W        W10949   4.852   3.676   9.292 -0.2550  0.0628  0.1515
 7206W        W10950   8.756   6.545  11.006 -0.3414  0.0299  0.0135
 7207W        W10951   8.891   8.395   0.582 -0.0457 -0.0741  0.0190
 7208W        W10952   3.873   3.195  10.998 -0.1272  0.0938 -0.1396
 7209W        W10953   6.467   7.113  12.342  0.0810 -0.2437 -0.0311
 7210W        W10954   3.796   7.200  12.671  0.1022  0.2038 -0.0940
 7211W        W10955   8.021   8.176   8.898  0.0213 -0.1184  0.2076
 7212W        W10956   7.493   9.717  11.810  0.2438 -0.0262  0.5255
 7213W        W10957   9.841   1.524   4.616 -0.2327 -0.0136 -0.0312
 7214W        W10958   8.401   7.301   1.963  0.1160  0.0271 -0.3225
 7215W        W10959   3.908   5.242   1.583  0.3320  0.0711 -0.2285
 7216W        W10960   7.338   9.303   9.407  0.4137 -0.2961  0.2333
 7217W        W10961   3.903   4.013   1.186 -0.1232  0.1307  0.2715
 7218W        W10962   0.347   4.954  11.319 -0.2573  0.1336 -0.2697
 7219W        W10963   8.482   9.047   2.736 -0.1257 -0.2971 -0.1295
 7220W        W10964   5.375   5.392  10.822 -0.0539 -0.0785 -0.2109
 7221W        W10965   9.726   9.773  12.336 -0.3548  0.0257  0.1827
 7222W        W10966   1.468   1.446  11.900  0.3194  0.0580  0.1174
 7223W        W10967   5.073   9.793  11.562 -0.1484 -0.0157  0.1011
 7224W        W10968   7.696   7.163   9.683  0.3146 -0.2972 -0.0390
 7225W        W10969   2.416   9.748  10.607 -0.2789  0.0774 -0.1969
 7226W        W10970   6.929   2.316   2.991 -0.0515 -0.0203  0.1391
 7227W        W10971   9.233   4.721   2.015  0.1310  0.0825  0.0227
 7228W        W10972   7.167   6.210   9.880 -0.0796  0.0917 -0.0327
 7229W        W10973   8.813   1.815   3.985 -0.0681  0.2698 -0.1591
 7230ION    NA+10974   0.788   0.855  10.793 -0.2252 -0.1976 -0.1833
 7231ION    NA+10975   8.909   3.253   8.351 -0.0772  0.4872  0.2075
 7232ION    NA+10976   6.164   1.919   8.571  0.3783  0.0901 -0.1716
 7233ION    NA+10977   5.041   1.524   3.122 -0.1643  0.1902 -0.1262
 7234ION    NA+10978   5.812   3.061   2.410 -0.0741  0.0642 -0.0351
 7235ION    NA+10979   6.318   0.794   5.169  0.4297  0.0023 -0.1237
 7236ION    NA+10980   4.400   6.268   1.993 -0.0060  0.0745  0.1573
 7237ION    NA+10981   7.197   9.076   4.777  0.0130  0.4308  0.0798
 7238ION    NA+10982   3.494   8.669   1.280 -0.0344  0.1770  0.3108
 7239ION    NA+10983   0.226   0.448   1.571  0.2102 -0.1174  0.0034
 7240ION    NA+10984   8.407   0.709   1.865  0.0182  0.1443  0.2699
 7241ION    NA+10985   9.129   3.345   1.633 -0.1897 -0.2804  0.2060
 7242ION    NA+10986   5.382   2.017   1.746 -0.1367  0.1705 -0.1392
 7243ION    NA+10987   9.241   2.720   0.647  0.2613  0.0802 -0.5069
 7244ION    NA+10988   3.548   4.162   1.532 -0.1213  0.4225 -0.0992
 7245ION    NA+10989   9.345   5.178   3.736  0.0677  0.0158 -0.0857
 7246ION    NA+10990   8.123   8.742  10.382 -0.1844  0.1806  0.1406
 7247ION    NA+10991   0.166   5.927   4.407 -0.0436  0.0283  0.0508
 7248ION    NA+10992   3.992   7.384   8.277 -0.0872 -0.2314  0.0243
 7249ION    NA+10993   7.844   4.689   3.782  0.0866 -0.0872  0.0161
 7250ION    NA+10994   9.724   7.561   4.751  0.2661 -0.1362  0.1704
 7251ION    NA+10995   9.694   1.465   3.032  0.1905 -0.0498 -0.2332
 7252ION    NA+10996   7.654   2.300   0.452 -0.1208  0.1015 -0.3997
 7253ION    NA+10997   3.083   1.967  12.669  0.4600  0.1618 -0.2079
 7254ION    NA+10998   1.632   7.750   4.520  0.2023  0.0830 -0.0121
 7255ION    NA+10999   8.243   1.693   4.778 -0.1077  0.2807 -0.1992
 7256ION    NA+11000   1.976   5.383   8.869 -0.0375  0.0087  0.2232
 7257ION    NA+11001   1.814   6.126  12.844 -0.1807 -0.1348 -0.3239
 7258ION    NA+11002   9.391   9.352   1.837 -0.0665  0.2065  0.1883
 7259ION    NA+11003   7.447   0.554  12.124  0.1680  0.0695 -0.1155
 7260ION    NA+11004   7.871   7.129   1.917 -0.1903  0.0822 -0.0546
 7261ION    NA+11005   4.975   8.444  10.820 -0.2454 -0.1757  0.1236
 7262ION    NA+11006   7.148   0.444   3.278  0.0632 -0.2046  0.0734
 7263ION    NA+11007   6.952   9.335   8.568  0.2108 -0.1149  0.1371
 7264ION    NA+11008   6.597   1.893   1.782  0.3451  0.1200 -0.0394
 7265ION    NA+11009   8.244   0.414  11.610 -0.0630 -0.1461 -0.0732
 7266ION    NA+11010   0.012   6.768   0.014 -0.2100  0.2507  0.1895
 7267ION    NA+11011   7.356   4.322   2.540 -0.0374 -0.0656  0.0840
 7268ION    NA+11012   2.659   8.514  11.684 -0.4275 -0.2213  0.0404
 7269ION    NA+11013   9.416   7.256   1.188  0.0108 -0.1719 -0.1392
 7270ION    NA+11014   7.744   4.883   3.042  0.2354 -0.0911  0.2026
 7271ION    NA+11015   8.517   2.314   1.128  0.0564 -0.0440 -0.2729
 7272ION    NA+11016   7.562   5.724   2.541  0.0841 -0.0295 -0.0515
 7273ION    NA+11017   8.285   5.625   8.644 -0.0685  0.0386 -0.1960
 7274ION    NA+11018   1.420   0.687   4.531 -0.0315 -0.0928 -0.3315
 7275ION    NA+11019   1.545   1.151  12.668  0.1296 -0.1386 -0.1336
 7276ION    NA+11020   7.384   6.769   3.743 -0.2876 -0.1309 -0.1115
 7277ION    NA+11021   6.661   9.297   4.870 -0.0748 -0.0034  0.0931
 7278ION    NA+11022   6.144   8.121   3.743 -0.2211 -0.3709  0.1006
 7279ION    NA+11023   5.465   7.362   0.306 -0.2143 -0.0758 -0.3359
 7280ION    NA+11024   7.271   5.219   0.848 -0.3294  0.0162  0.3008
 7281ION    NA+11025   6.033   2.872   4.668  0.2455  0.1157 -0.0551
 7282ION    NA+11026   1.430   0.202   2.069 -0.1898 -0.2914 -0.3326
 7283ION    NA+11027   5.145   4.523  10.722  0.0199 -0.1132  0.0447
 7284ION    NA+11028   7.150   4.515   0.160  0.1411 -0.0043 -0.0579
 7285ION    NA+11029   4.163   5.596   4.090  0.2875 -0.0396  0.1342
 7286ION    NA+11030   6.985   0.452  10.224 -0.0252 -0.2061  0.2424
 7287ION    NA+11031   8.024   0.582   3.693  0.0239  0.0466 -0.2142
 7288ION    NA+11032   3.489   1.474   4.048  0.0817  0.2345  0.1143
 7289ION    NA+11033   6.017   8.723  11.054  0.0359  0.0352  0.1006
 7290ION    NA+11034   3.901   9.566   4.420  0.3197  0.1630 -0.1978
 7291ION    NA+11035   3.200   4.139   2.960  0.1045  0.1829 -0.0532
 7292ION    NA+11036   0.975   5.733   0.924  0.2128  0.0322  0.2634
 7293ION    NA+11037   7.039   7.637   8.458 -0.4081  0.0314  0.2781
 7294ION    NA+11038   1.549   5.929   0.880 -0.1979  0.1990  0.2524
 7295ION    NA+11039   5.306   8.004   8.187  0.1583  0.0396  0.0112
 7296ION    NA+11040   9.666   3.288   9.442  0.0128  0.1020 -0.0928
 7297ION    NA+11041   5.108   8.608   2.251 -0.0822  0.0875  0.0673
 7298ION    NA+11042   4.329   6.831   2.651  0.0514  0.0344  0.2431
 7299ION    NA+11043   3.238   7.441  11.803  0.1284  0.0310 -0.1345
 7300ION    NA+11044   9.612   8.543  11.466  0.2080  0.2039 -0.1228
 7301ION    NA+11045   0.506   6.465   1.517 -0.1170 -0.3401  0.1442
 7302ION    NA+11046   0.736   8.001  10.745  0.1589 -0.2291 -0.0699
 7303ION    NA+11047   0.942   5.864   3.699 -0.0176  0.0349 -0.2592
 7304ION    NA+11048   6.849   7.958   4.314 -0.4677 -0.1481  0.0031
 7305ION    NA+11049   4.280   2.805  11.162  0.0428 -0.0749  0.0035
 7306ION    CL-11050   9.665   7.467   1.600  0.1629 -0.1655 -0.2870
 7307ION    CL-11051   6.008   1.835   4.141  0.0593 -0.0729 -0.0599
 7308ION    CL-11052   0.337   3.434  12.460 -0.1386 -0.0228  0.0035
 7309ION    CL-11053   7.109   1.895   1.607 -0.1372 -0.1294 -0.0235
 7310ION    CL-11054   7.703   5.634   1.971 -0.5040 -0.0674 -0.1653
 7311ION    CL-11055   9.870   4.029   9.112  0.1416  0.1246  0.2119
 7312ION    CL-11056   1.311   8.021   3.771 -0.1623  0.0281  0.2008
 7313ION    CL-11057   6.680   8.427   4.267  0.1028  0.2132  0.3021
 7314ION    CL-11058   4.980   8.506   2.767 -0.1342  0.1439  0.0502
 7315ION    CL-11059   1.324   0.140   3.804  0.0904 -0.0961  0.1177
 7316ION    CL-11060   7.402   4.812   2.708  0.1310 -0.0241  0.3854
 7317ION    CL-11061   9.819   0.901   1.615 -0.2023  0.0801 -0.0164
 7318ION    CL-11062   3.825   3.862   1.861  0.0012 -0.0450 -0.2643
 7319ION    CL-11063   1.162   8.787  10.510 -0.0367 -0.0964 -0.0278
 7320ION    CL-11064   9.726   1.599   3.498 -0.2203 -0.1983 -0.4233
 7321ION    CL-11065   7.652   6.989   1.410  0.2173 -0.0481 -0.0999
 7322ION    CL-11066   3.847   1.030   9.619 -0.1801 -0.2144 -0.1533
 7323ION    CL-11067   0.690   0.176  11.234 -0.0488 -0.0150 -0.1079
 7324ION    CL-11068   5.664   4.187   2.065  0.3401  0.2831 -0.1141
 7325ION    CL-11069   3.165   8.383  12.297  0.0768 -0.2196 -0.2156
 7326ION    CL-11070   6.963   1.454   4.180 -0.0289  0.3556  0.4287
 7327ION    CL-11071   4.706   2.445  11.015 -0.6141  0.1372  0.2629
 7328ION    CL-11072   6.617   0.473   9.424  0.0602 -0.2308 -0.0145
 7329ION    CL-11073   6.847   5.866   3.825  0.0735  0.2969  0.2076
 7330ION    CL-11074   0.949   1.323  10.738  0.1026  0.1067  0.0883
 7331ION    CL-11075   9.692   0.231   2.196 -0.0325  0.2300  0.2730
 7332ION    CL-11076   2.384   3.147   2.696 -0.0511  0.2607  0.2109
 7333ION    CL-11077   7.766   0.444  12.579 -0.0693  0.0494  0.1082
 7334ION    CL-11078   4.032   7.373   4.343 -0.0836  0.3083  0.1843
 7335ION    CL-11079   3.153   4.185   2.391  0.0539 -0.0954  0.2942
 7336ION    CL-11080   8.662   6.545   3.881  0.1454  0.2695  0.1420
 7337ION    CL-11081   3.961   8.641   9.712 -0.1977 -0.2174 -0.2472
 7338ION    CL-11082   7.754   4.347   4.168  0.3132  0.0447 -0.0833
 7339ION    CL-11083   6.009   2.119   1.766 -0.2395 -0.1740  0.2470
 7340ION    CL-11084   0.735   6.314   3.752 -0.1844  0.1733  0.2017
 7341ION    CL-11085   2.797   3.886   2.831  0.1225 -0.3917  0.3357
 7342ION    CL-11086   9.272   3.710   2.068 -0.1136  0.0494 -0.1289
 7343ION    CL-11087   9.394   9.469   9.217  0.1008 -0.1444 -0.0674
 7344ION    CL-11088   1.555   5.529   0.565  0.2549  0.1513 -0.0584
 7345ION    CL-11089   6.943   4.907   0.981  0.0780 -0.0725 -0.1324
 7346ION    CL-11090   4.148   2.629  11.584  0.1611  0.4356  0.0349
 7347ION    CL-11091   0.206   7.451  12.352 -0.0302  0.0365 -0.0258
 7348ION    CL-11092   2.200   1.691   1.852  0.0861  0.0260  0.0813
 7349ION    CL-11093   4.183   6.923   3.149  0.1361  0.3601  0.1877
 7350ION    CL-11094   5.790   3.538   3.292 -0.0988 -0.0367  0.3767
 7351ION    CL-11095   9.601   4.839   9.378 -0.1192 -0.0297 -0.1184
 7352ION    CL-11096   7.449   7.343   3.611  0.1026 -0.4451 -0.1368
 7353ION    CL-11097   0.779   8.137  11.277 -0.3263  0.3140  0.1485
 7354ION    CL-11098   7.067   6.456   3.214  0.1089 -0.0407 -0.2364
 7355ION    CL-11099   5.259   1.470   3.884  0.0293  0.0645  0.1696
 7356ION    CL-11100   1.255   6.101   0.522 -0.0052  0.0169  0.0874
 7357ION    CL-11101   8.720   2.810   0.697  0.0403  0.0922  0.1031
 7358ION    CL-11102   3.992   9.495   3.942  0.3049  0.0279 -0.2667
 7359ION    CL-11103   1.281   5.896   1.318 -0.1742  0.1447  0.2007
 7360ION    CL-11104   7.107   4.023   3.058  0.1747 -0.4597  0.0223
 7361ION    CL-11105   4.572   5.108   2.577 -0.0381 -0.0318 -0.3596
 7362ION    CL-11106   3.002   7.729  11.479 -0.0292  0.1618  0.1058
 7363ION    CL-11107   3.855   4.528   9.969  0.0693 -0.0859  0.0372
 7364ION    CL-11108   8.366   1.022   3.850 -0.2058 -0.1391 -0.1710
 7365ION    CL-11109   9.721   6.011   3.935 -0.1051 -0.3052 -0.1542
 7366ION    CL-11110   0.557   6.914   9.128  0.0324  0.0388 -0.0813
 7367ION    CL-11111   7.451   6.282   3.912 -0.1562  0.2438 -0.0164
 7368ION    CL-11112   5.729   8.106   4.043 -0.0486 -0.1463  0.0272
 7369ION    CL-11113   7.563   1.708   0.364 -0.0606 -0.1382 -0.0010
 7370ION    CL-11114   7.701   0.916   3.879  0.2126  0.0270  0.0376
 7371ION    CL-11115   8.893   7.148   9.266 -0.2308  0.1098 -0.0013
 7372ION    CL-11116   8.561   6.473  12.666 -0.4406 -0.0615 -0.1368
 7373ION    CL-11117   2.969   9.445   3.108 -0.1863  0.1280 -0.2420
 7374ION    CL-11118   9.325   2.366   0.938 -0.1252 -0.0603 -0.2305
 7375ION    CL-11119   5.824   5.166  10.692  0.1885 -0.1725 -0.0850
 7376ION    CL-11120   8.059   4.992   3.379  0.2899  0.2635 -0.1135
 7377ION    CL-11121   5.018   0.804  12.564  0.1469 -0.1964 -0.0240
 7378ION    CL-11122   3.998   1.959   3.311 -0.0020  0.1062  0.0524
 7379ION    CL-11123   3.475   8.873   0.790 -0.2261  0.3576 -0.1734
 7380ION    CL-11124   4.044   8.171  10.540  0.1681 -0.0076  0.1044
 7381ION    CL-11125   8.630   0.093  11.523 -0.0607 -0.1188  0.2147
   9.91947   9.91947  12.89712
