Protein in INSANE! Membrane UpperLeaflet>POPC=1.0 LowerLeaflet>POPC=1.0
12914
    1AU     AUC    1   5.590   9.003   6.848  0.0242  0.0070 -0.0749
    1AU     AUC    2   5.446   8.979   6.762 -0.0255 -0.0039 -0.0709
    1AU     AUC    3   5.587   8.918   6.717 -0.0016 -0.0495 -0.1105
    1AU     AUC    4   5.587   9.119   6.978  0.0878  0.0254  0.0110
    1AU     AUC    5   5.736   9.042   6.951  0.0472  0.0071  0.0435
    1AU     AUC    6   5.676   9.162   6.829  0.0155 -0.0381  0.0601
    1AU     AUC    7   5.595   9.102   6.696  0.1022  0.0110 -0.0348
    1AU     AUC    8   5.602   8.969   7.013  0.0582 -0.0401 -0.1084
    1AU     AUC    9   5.498   8.876   6.853 -0.0202  0.0386  0.0855
    1AU     AUC   10   5.702   8.884   6.888  0.0733  0.0205  0.0728
    1AU     AUC   11   5.744   9.012   6.773  0.0370 -0.0013  0.1021
    1AU     AUC   12   5.452   9.018   6.941 -0.0202 -0.0032  0.0363
    1AU     AUC   13   5.504   9.155   6.820 -0.0210 -0.0968  0.0006
    1AU     AUC   14   5.320   8.991   6.666  0.0054  0.0495 -0.0248
    1AU     AUC   15   5.447   8.894   6.571  0.0618  0.0515  0.0402
    1AU     AUC   16   5.602   8.834   6.599 -0.0415  0.0337 -0.0854
    1AU     AUC   17   5.578   9.234   7.089 -0.0393  0.1628  0.0540
    1AU     AUC   18   5.764   9.168   7.110  0.1070 -0.0041 -0.0143
    1AU     AUC   19   5.868   9.073   7.023  0.0174 -0.0643  0.0143
    1AU     AUC   20   5.781   9.294   6.840  0.0548  0.0052 -0.0592
    1AU     AUC   21   5.724   9.259   6.668 -0.0848 -0.0233  0.0744
    1AU     AUC   22   5.596   9.160   6.557  0.0050 -0.0022 -0.0042
    1AU     AUC   23   5.576   8.888   7.136 -0.0756  0.0354 -0.0548
    1AU     AUC   24   5.510   8.756   7.026  0.0297 -0.0709 -0.0437
    1AU     AUC   25   5.445   8.728   6.901  0.0463 -0.0281 -0.0455
    1AU     AUC   26   5.769   8.766   6.892  0.1081  0.0314  0.0370
    1AU     AUC   27   5.855   8.857   6.785 -0.0101  0.0029  0.0594
    1AU     AUC   28   5.845   8.994   6.663 -0.0872  0.0739  0.0227
    1AU     AUC   29   5.313   9.028   7.008  0.0357 -0.0636 -0.0115
    1AU     AUC   30   5.318   9.161   6.911  0.0546 -0.0998 -0.0770
    1AU     AUC   31   5.376   9.251   6.799  0.0166 -0.0250  0.0430
    1AU     AUC   32   5.699   8.743   6.702  0.0555 -0.0193  0.0747
    1AU     AUC   33   5.736   8.877   6.615 -0.0929  0.0578 -0.0178
    1AU     AUC   34   5.246   8.992   6.831  0.0727 -0.1137 -0.0122
    1AU     AUC   35   5.319   9.107   6.685  0.0101 -0.0549  0.0726
    1AU     AUC   36   5.848   8.863   7.061  0.0066  0.0962 -0.0536
    1AU     AUC   37   5.934   9.010   6.841 -0.0494  0.0151  0.0330
    1AU     AUC   38   5.387   9.125   7.066  0.0737 -0.0050 -0.0776
    1AU     AUC   39   5.463   9.290   6.990  0.1301 -0.0475  0.1781
    1AU     AUC   40   5.464   9.128   6.533  0.0728 -0.0336  0.0260
    1AU     AUC   41   5.595   9.034   6.526 -0.0612  0.0631  0.0184
    1AU     AUC   42   5.637   9.295   7.022 -0.0320 -0.0596 -0.0391
    1AU     AUC   43   5.871   9.156   6.965 -0.0019 -0.0398 -0.0503
    1AU     AUC   44   5.329   8.836   6.777  0.0796  0.0623 -0.0170
    1AU     AUC   45   5.529   8.706   6.738 -0.0694 -0.0146  0.0142
    1AU     AUC   46   5.503   8.991   7.212 -0.0458  0.0774  0.0683
    1AU     AUC   47   5.703   8.986   7.182  0.0166 -0.0083 -0.0138
    1AU     AUC   48   5.867   9.142   6.726 -0.0455 -0.0577 -0.0294
    1AU     AUC   49   5.770   9.080   6.568  0.0150 -0.0548 -0.0990
    1AU     AUC   50   5.667   8.798   7.067  0.0298  0.0852 -0.0603
    1AU     AUC   51   5.642   8.718   6.889  0.0151  0.0228 -0.1738
    1AU     AUC   52   5.544   9.352   6.827 -0.0349  0.0054  0.0138
    1AU     AUC   53   5.452   9.242   6.654  0.0183  0.1051 -0.0112
    1AU     AUC   54   5.399   8.943   7.093 -0.0448 -0.0453  0.0375
    1AU     AUC   55   5.354   8.827   6.974  0.0253  0.0348 -0.0149
    1AU    AUSL   56   5.743   8.761   6.538 -0.1261  0.0023  0.0004
    1AU    AUSL   57   5.741   8.478   6.669 -0.0730  0.0449 -0.1157
    1AU     AUL   58   5.854   8.670   6.447 -0.0690 -0.0245  0.0008
    1AU       S   59   5.723   7.994   6.558  0.2440 -0.0456  0.1667
    1AU     LIG   60   6.179   7.832   6.625 -0.2384  0.1563 -0.1856
    1AU     LIG   61   6.408   7.509   6.465 -0.0928 -0.1489 -0.2072
    1AU     LIG   62   6.740   7.285   6.431 -0.0611 -0.0479  0.1164
    1AU     LIG   63   7.104   7.314   6.472  0.0025 -0.2708  0.5229
    1AU     LIG   64   7.417   7.574   6.280 -0.0224  0.0187  0.0257
    1AU       S   65   6.061   8.286   6.200 -0.6590 -0.2471  0.0381
    1AU     LIG   66   6.066   7.849   6.142 -0.3606 -0.0486  0.0164
    1AU     LIG   67   6.007   7.451   5.967  0.2217  0.1829  0.1080
    1AU     LIG   68   6.284   7.143   6.138  0.1067 -0.2153  0.0103
    1AU     LIG   69   6.567   6.774   6.312 -0.0045  0.1142  0.3195
    1AU     LIG   70   6.717   6.423   6.235  0.4465  0.2958 -0.4011
    1AU    AUSL   71   5.904   8.694   6.752 -0.0130  0.0743 -0.0028
    1AU    AUSL   72   6.021   8.909   6.857  0.1511  0.0258  0.0439
    1AU     AUL   73   5.984   8.612   6.704 -0.0780  0.0151  0.0260
    1AU       S   74   6.296   8.369   6.425 -0.2182 -0.2692 -0.3053
    1AU     LIG   75   6.514   8.061   6.303  0.0647 -0.5130 -0.0347
    1AU     LIG   76   6.839   7.783   6.411  0.6115 -0.1036  0.1270
    1AU     LIG   77   7.161   7.700   6.766 -0.0575 -0.0098 -0.0472
    1AU     LIG   78   7.476   7.459   6.756 -0.2851  0.0064 -0.1542
    1AU     LIG   79   7.764   7.185   6.430  0.2617  0.0062 -0.0087
    1AU       S   80   6.606   8.581   6.815  0.3237  0.1449 -0.1210
    1AU     LIG   81   6.884   8.323   6.620 -0.2413  0.0824  0.0211
    1AU     LIG   82   7.428   8.200   6.619  0.4822 -0.0046 -0.0922
    1AU     LIG   83   7.731   7.916   6.719  0.0545  0.0981 -0.3082
    1AU     LIG   84   7.975   7.569   6.602  0.1190 -0.2102 -0.4212
    1AU     LIG   85   8.255   7.461   6.329 -0.1939  0.0010 -0.0659
    1AU    AUSL   86   5.976   8.908   6.576 -0.0284  0.0171 -0.0040
    1AU    AUSL   87   5.665   8.815   6.268 -0.0871 -0.0368 -0.0147
    1AU     AUL   88   6.071   8.822   6.531  0.1539 -0.0294 -0.0682
    1AU       S   89   6.494   8.964   6.235  0.5261  0.2110  0.1674
    1AU     LIG   90   6.880   8.962   6.418 -0.0016 -0.3818  0.1722
    1AU     LIG   91   7.225   8.975   6.720 -0.2361  0.1342 -0.3289
    1AU     LIG   92   7.456   9.305   6.881  0.1464 -0.1267 -0.3018
    1AU     LIG   93   7.468   9.696   6.993  0.1597  0.1207  0.1034
    1AU     LIG   94   7.569   9.961   7.215 -0.1526 -0.1324 -0.0456
    1AU       S   95   5.890   8.638   5.908  0.3140  0.1213  0.1423
    1AU     LIG   96   5.603   8.166   5.943 -0.4205  0.2808 -0.1371
    1AU     LIG   97   5.765   7.785   5.760 -0.3028 -0.1008  0.0602
    1AU     LIG   98   5.514   7.399   5.852  0.1242  0.4663 -0.1511
    1AU     LIG   99   5.303   7.043   5.893 -0.1854 -0.2297 -0.1067
    1AU     LIG  100   5.038   6.679   5.708  0.1669  0.1431 -0.1641
    1AU    AUSL  101   5.209   9.066   6.620  0.0225  0.0007 -0.1121
    1AU    AUSL  102   5.178   9.344   6.588 -0.1062 -0.0264  0.0960
    1AU     AUL  103   5.062   9.072   6.244  0.0485  0.0345  0.0501
    1AU       S  104   4.553   9.120   6.543  0.1803 -0.0656 -0.4688
    1AU     LIG  105   4.187   8.838   6.311 -0.0187 -0.0318  0.2111
    1AU     LIG  106   4.001   8.392   6.158  0.0408 -0.2997  0.3272
    1AU     LIG  107   3.615   8.161   6.253 -0.2283 -0.0862  0.0255
    1AU     LIG  108   3.175   7.879   6.358 -0.0832 -0.1498  0.0993
    1AU     LIG  109   2.953   7.868   6.801  0.0519 -0.1803  0.0125
    1AU       S  110   4.938   9.590   6.334  0.0230 -0.5035  0.1016
    1AU     LIG  111   4.586   9.711   6.208  0.2257 -0.2889 -0.0104
    1AU     LIG  112   4.195   9.847   6.252  0.1142  0.3704 -0.3759
    1AU     LIG  113   4.098  10.239   6.281  0.3709 -0.3102  0.1000
    1AU     LIG  114   4.124  10.645   6.325 -0.0888 -0.2454  0.3521
    1AU     LIG  115   4.587  10.940   6.355  0.1577  0.2013 -0.1257
    1AU    AUSL  116   5.173   9.046   6.908 -0.0308 -0.1082  0.0039
    1AU    AUSL  117   5.002   8.902   6.740 -0.0316 -0.0624 -0.0178
    1AU     AUL  118   5.063   9.074   6.537 -0.0524 -0.0391 -0.0119
    1AU       S  119   4.577   8.658   6.677 -0.0735  0.6117 -0.1756
    1AU     LIG  120   4.212   8.501   6.625 -0.0448  0.0866  0.0249
    1AU     LIG  121   3.774   8.520   6.616  0.0121 -0.1270  0.0349
    1AU     LIG  122   3.504   8.847   6.721 -0.2287 -0.0037  0.3954
    1AU     LIG  123   3.034   8.862   6.766  0.2663  0.0591  0.1849
    1AU     LIG  124   2.794   9.212   6.881 -0.0698 -0.6477  0.0948
    1AU       S  125   4.529   9.195   6.851 -0.0199 -0.0207  0.1441
    1AU     LIG  126   4.186   8.953   6.883 -0.3086  0.0150  0.0891
    1AU     LIG  127   3.919   9.079   6.676  0.1098  0.1117 -0.0692
    1AU     LIG  128   3.477   9.343   6.806 -0.2000 -0.0016  0.2798
    1AU     LIG  129   3.252   9.588   7.092 -0.4234  0.0049 -0.1291
    1AU     LIG  130   3.003   9.846   7.285 -0.1876  0.0184  0.0741
    1AU    AUSL  131   5.011   9.219   6.779  0.0475  0.0215 -0.0070
    1AU    AUSL  132   5.047   9.258   7.052 -0.0092 -0.1081  0.0282
    1AU     AUL  133   4.961   9.051   7.249 -0.0186  0.0064 -0.0149
    1AU       S  134   4.725   9.535   7.175 -0.1100  0.2400  0.0733
    1AU     LIG  135   4.416   9.925   7.112 -0.3426  0.0095 -0.1517
    1AU     LIG  136   4.228  10.091   6.807  0.0600 -0.2631  0.0197
    1AU     LIG  137   3.855  10.380   6.780 -0.2096  0.2064 -0.0188
    1AU     LIG  138   3.529  10.334   6.433 -0.1649  0.2369 -0.3176
    1AU     LIG  139   3.174  10.201   6.159  0.1835  0.2542  0.0787
    1AU       S  140   4.645   9.405   6.700 -0.1028  0.0967 -0.0707
    1AU     LIG  141   4.268   9.613   6.694  0.1514 -0.1436 -0.3779
    1AU     LIG  142   3.865   9.653   6.692 -0.1500  0.2017 -0.0405
    1AU     LIG  143   3.698   9.853   6.702 -0.1126  0.3204  0.0755
    1AU     LIG  144   3.296   9.966   6.682  0.0787 -0.2139 -0.1809
    1AU     LIG  145   3.126  10.432   6.667  0.0780  0.2939  0.1727
    1AU    AUSL  146   6.172   8.862   7.098 -0.0947 -0.0120  0.0712
    1AU    AUSL  147   6.010   9.156   6.726  0.0294  0.0943  0.0448
    1AU     AUL  148   6.169   8.828   6.793 -0.0546 -0.0782  0.0521
    1AU       S  149   6.575   8.698   7.203 -0.1076 -0.0464  0.0117
    1AU     LIG  150   6.997   8.582   7.214  0.1268 -0.4112 -0.0424
    1AU     LIG  151   7.389   8.689   7.165 -0.2516  0.0623  0.1403
    1AU     LIG  152   7.743   8.956   7.099  0.1574  0.2583  0.0133
    1AU     LIG  153   8.101   9.205   7.013  0.0702  0.0435  0.0017
    1AU     LIG  154   8.430   9.130   7.209 -0.0682 -0.0041  0.1075
    1AU       S  155   6.619   9.366   6.669  0.1470 -0.5060 -0.2417
    1AU     LIG  156   7.020   9.519   6.770 -0.0006 -0.3270  0.4055
    1AU     LIG  157   7.474   9.758   6.489 -0.3006  0.1165 -0.0477
    1AU     LIG  158   7.801   9.555   6.694 -0.3683 -0.0544  0.4362
    1AU     LIG  159   7.978   9.727   6.954 -0.0272 -0.0744 -0.1147
    1AU     LIG  160   8.390   9.647   7.161  0.0588 -0.1898 -0.2433
    1AU    AUSL  161   6.077   8.628   6.972  0.0176 -0.0383 -0.0948
    1AU    AUSL  162   6.012   8.943   7.305 -0.0607 -0.0002 -0.0668
    1AU     AUL  163   5.833   8.572   7.210 -0.0380  0.1103  0.0228
    1AU       S  164   6.273   8.786   7.647 -0.0375  0.1802 -0.1574
    1AU     LIG  165   6.771   8.857   7.721 -0.3710 -0.0571 -0.4181
    1AU     LIG  166   7.243   8.945   7.584 -0.3045  0.2646  0.1574
    1AU     LIG  167   7.572   8.837   7.609  0.3300  0.0188 -0.1450
    1AU     LIG  168   7.766   8.528   7.443  0.0042 -0.0977  0.0097
    1AU     LIG  169   8.131   8.634   7.162 -0.1525 -0.0380 -0.0804
    1AU       S  170   6.478   8.424   6.994  0.4040  0.2101 -0.0828
    1AU     LIG  171   6.672   8.158   7.117  0.1823  0.1691  0.2071
    1AU     LIG  172   7.162   8.122   7.073  0.5155  0.0279 -0.1225
    1AU     LIG  173   7.635   8.228   7.069  0.4986  0.2175 -0.4687
    1AU     LIG  174   7.756   8.550   6.800  0.3218  0.2260  0.0545
    1AU     LIG  175   8.105   8.801   6.712  0.1903  0.1313 -0.1719
    1AU    AUSL  176   5.293   9.366   7.141 -0.0250  0.0915 -0.0913
    1AU    AUSL  177   5.240   9.094   7.174  0.0147 -0.1650 -0.0301
    1AU     AUL  178   5.231   9.095   7.320 -0.0526 -0.1014 -0.0686
    1AU       S  179   4.969   9.665   7.327  0.2715  0.0260 -0.3763
    1AU     LIG  180   4.796  10.058   7.484  0.2655 -0.2576  0.0116
    1AU     LIG  181   4.423  10.078   7.598  0.0790 -0.0276  0.6011
    1AU     LIG  182   3.990  10.183   7.343  0.0862 -0.1135  0.0873
    1AU     LIG  183   3.569  10.187   7.204 -0.0814 -0.1344 -0.2055
    1AU     LIG  184   3.171  10.301   7.589  0.0364  0.3110 -0.1127
    1AU       S  185   4.958   9.332   7.708 -0.3152  0.1893 -0.0361
    1AU     LIG  186   4.549   9.570   7.653  0.1527 -0.1309  0.0857
    1AU     LIG  187   4.003   9.651   7.677 -0.2580 -0.1148 -0.1768
    1AU     LIG  188   3.966  10.113   7.817  0.0917  0.1992 -0.1009
    1AU     LIG  189   4.106  10.492   7.715  0.1487  0.4305 -0.1010
    1AU     LIG  190   4.343  10.862   7.687  0.1457  0.0332  0.2555
    1AU    AUSL  191   5.263   9.307   6.862 -0.0290  0.0133 -0.0255
    1AU    AUSL  192   5.527   9.509   7.213 -0.0138 -0.0586 -0.0890
    1AU     AUL  193   5.169   9.431   6.868 -0.0073 -0.0523 -0.0438
    1AU       S  194   5.386   9.844   7.504  0.3085 -0.1796 -0.0319
    1AU     LIG  195   5.667  10.173   7.696  0.0383 -0.1087  0.2459
    1AU     LIG  196   6.051  10.213   7.649 -0.0922 -0.1469  0.1400
    1AU     LIG  197   6.489  10.406   7.489 -0.0150 -0.0417  0.3736
    1AU     LIG  198   6.659  10.664   7.511 -0.2672 -0.0052  0.1713
    1AU     LIG  199   7.113  10.883   7.421 -0.2352 -0.1263  0.0823
    1AU       S  200   4.914   9.787   7.065  0.3043  0.0411 -0.1069
    1AU     LIG  201   4.827  10.167   7.014 -0.0919 -0.0216  0.1569
    1AU     LIG  202   4.814  10.609   7.020 -0.0668 -0.1840  0.2829
    1AU     LIG  203   4.674  11.017   7.184 -0.3526  0.0781 -0.0889
    1AU     LIG  204   4.540  11.374   7.563  0.3697  0.1724 -0.2395
    1AU     LIG  205   4.612  11.810   7.921 -0.0111 -0.0141  0.2365
    1AU    AUSL  206   5.468   9.033   6.253 -0.0490 -0.1156 -0.0082
    1AU    AUSL  207   5.275   9.184   6.383 -0.0416  0.0583  0.0484
    1AU     AUL  208   5.598   9.316   6.078  0.0786  0.0064 -0.0645
    1AU       S  209   5.105   9.558   6.103 -0.2787  0.1978 -0.2944
    1AU     LIG  210   4.891   9.937   5.817  0.0346  0.5403  0.3387
    1AU     LIG  211   4.430  10.196   5.817 -0.3013  0.0911 -0.1909
    1AU     LIG  212   4.034   9.960   5.834 -0.1311  0.4515  0.6516
    1AU     LIG  213   3.717   9.932   6.139  0.0292 -0.2586 -0.3407
    1AU     LIG  214   3.536   9.543   6.367  0.1774 -0.0025  0.3859
    1AU       S  215   5.344   8.848   5.752  0.2779 -0.1712  0.5069
    1AU     LIG  216   5.552   9.126   5.507  0.2872 -0.0831  0.2699
    1AU     LIG  217   5.508   9.384   5.181 -0.1400  0.0201 -0.0877
    1AU     LIG  218   5.387   9.733   4.951 -0.0235  0.2911  0.1915
    1AU     LIG  219   5.165  10.072   4.720  0.4356  0.5639 -0.0479
    1AU     LIG  220   4.993  10.196   4.326 -0.2150 -0.1525 -0.0255
    1AU    AUSL  221   5.250   8.907   6.380 -0.0995 -0.0340  0.0474
    1AU    AUSL  222   5.325   8.635   6.440  0.0739 -0.0807 -0.0837
    1AU     AUL  223   4.923   8.862   6.398 -0.0273 -0.0541 -0.0850
    1AU       S  224   5.183   8.750   5.892 -0.4477 -0.2407  0.1144
    1AU     LIG  225   4.848   8.375   5.803 -0.1815 -0.3491 -0.2789
    1AU     LIG  226   4.546   8.678   5.935  0.0557 -0.0652  0.0997
    1AU     LIG  227   4.509   9.174   6.052 -0.0978  0.0242 -0.0350
    1AU     LIG  228   4.381   9.494   5.710 -0.3401  0.1899 -0.2627
    1AU     LIG  229   4.454   9.753   5.530 -0.1841  0.1436  0.3760
    1AU       S  230   5.113   8.261   6.266  0.0927  0.0038  0.0787
    1AU     LIG  231   5.055   7.910   6.044  0.0058 -0.1139 -0.0802
    1AU     LIG  232   5.111   7.547   6.049  0.1805  0.3353  0.2061
    1AU     LIG  233   5.114   7.184   6.339  0.1837  0.0092  0.1404
    1AU     LIG  234   5.306   6.770   6.436 -0.0290  0.0276 -0.0801
    1AU     LIG  235   5.179   6.574   6.790 -0.1168 -0.1714  0.0699
    1AU    AUSL  236   5.498   8.857   6.474 -0.0697  0.0028  0.0364
    1AU    AUSL  237   5.701   9.060   6.419 -0.0259  0.0269 -0.0385
    1AU     AUL  238   5.729   9.146   6.290  0.0499  0.0044  0.0274
    1AU       S  239   5.830   8.837   5.787  0.6491  0.2396  0.2466
    1AU     LIG  240   6.096   9.063   5.448  0.2012  0.0865 -0.3518
    1AU     LIG  241   6.594   9.105   5.596 -0.3339  0.0765 -0.1518
    1AU     LIG  242   6.932   9.055   5.939  0.0996  0.2153  0.1381
    1AU     LIG  243   7.369   9.254   6.163  0.0455 -0.4393 -0.0722
    1AU     LIG  244   7.683   8.985   6.556  0.4586 -0.1080  0.1751
    1AU       S  245   5.373   8.597   5.917 -0.0932  0.1735 -0.0803
    1AU     LIG  246   5.605   8.542   5.456 -0.0078  0.2423  0.1164
    1AU     LIG  247   5.851   8.680   5.049 -0.1243  0.1412 -0.0764
    1AU     LIG  248   6.229   8.823   4.907 -0.0931  0.0034  0.3401
    1AU     LIG  249   6.484   9.008   4.572  0.1805 -0.1229  0.2854
    1AU     LIG  250   6.807   9.363   4.507  0.3991  0.0005  0.1626
    1AU    AUSL  251   5.856   9.352   6.905 -0.0359 -0.0585 -0.0844
    1AU    AUSL  252   6.228   9.077   6.926 -0.0252  0.0083  0.0419
    1AU     AUL  253   6.102   9.378   7.146  0.0011 -0.0675  0.0234
    1AU       S  254   6.630   9.120   6.855  0.0248  0.5558 -0.2336
    1AU     LIG  255   6.937   9.147   7.161  0.1764  0.2800  0.0751
    1AU     LIG  256   7.273   9.410   7.395 -0.0739 -0.0266 -0.0111
    1AU     LIG  257   7.343   9.723   7.589 -0.1370 -0.1287  0.0059
    1AU     LIG  258   7.280   9.983   7.907 -0.0780 -0.0523  0.3469
    1AU     LIG  259   6.922   9.968   8.160  0.0419  0.4813 -0.1440
    1AU       S  260   6.126   9.922   6.871 -0.1846 -0.1400  0.0389
    1AU     LIG  261   6.385  10.323   6.988 -0.0580  0.1830 -0.0594
    1AU     LIG  262   6.813  10.341   6.946 -0.0950 -0.0064 -0.3634
    1AU     LIG  263   7.278  10.483   6.997  0.2370 -0.0767  0.2291
    1AU     LIG  264   7.718  10.356   7.046  0.1753  0.0172  0.0202
    1AU     LIG  265   7.855  10.168   6.688  0.0555 -0.0615 -0.0544
    1AU    AUSL  266   5.721   9.318   7.135  0.0882  0.0578 -0.0848
    1AU    AUSL  267   5.689   9.589   7.007  0.1137  0.0769 -0.0273
    1AU     AUL  268   5.930   9.511   6.940  0.0624  0.0479  0.0860
    1AU       S  269   5.866   9.735   7.581 -0.1538  0.3041  0.2631
    1AU     LIG  270   5.553   9.759   7.918  0.1849 -0.3592 -0.1153
    1AU     LIG  271   5.355  10.113   8.190  0.1098 -0.0581  0.1741
    1AU     LIG  272   5.266  10.570   8.290  0.3715  0.2448 -0.1453
    1AU     LIG  273   5.031  10.898   8.210 -0.2811 -0.1547 -0.2692
    1AU     LIG  274   4.908  11.280   8.173  0.3227  0.1773  0.1392
    1AU       S  275   5.669  10.051   7.156 -0.0911 -0.1042 -0.0139
    1AU     LIG  276   5.713  10.498   7.284 -0.1631 -0.1252  0.0633
    1AU     LIG  277   5.742  11.024   7.326 -0.0676 -0.0210 -0.0121
    1AU     LIG  278   5.494  11.320   7.175 -0.1293  0.2424 -0.2383
    1AU     LIG  279   5.369  11.787   7.027 -0.2459 -0.0904 -0.3478
    1AU     LIG  280   5.382  12.159   6.799  0.4733  0.2597 -0.2114
    1AU    AUSL  281   6.014   9.125   7.093  0.0181 -0.0035  0.0061
    1AU    AUSL  282   5.688   9.252   7.431  0.0464  0.0089  0.1121
    1AU     AUL  283   5.841   9.445   7.189  0.0056  0.0725 -0.0416
    1AU       S  284   5.733   9.253   7.895  0.1606 -0.0695  0.2147
    1AU     LIG  285   5.453   9.374   8.226  0.1512  0.2394  0.2351
    1AU     LIG  286   5.298   9.759   8.464 -0.0715  0.1346 -0.3147
    1AU     LIG  287   5.183  10.063   8.660  0.2570 -0.0966  0.3722
    1AU     LIG  288   4.831  10.007   8.448  0.1387 -0.0781 -0.3475
    1AU     LIG  289   4.679  10.181   8.073 -0.0854 -0.0773  0.0982
    1AU       S  290   6.454   9.204   7.485 -0.1465 -0.3180  0.1462
    1AU     LIG  291   6.725   9.508   7.419  0.0647  0.0079 -0.2613
    1AU     LIG  292   7.018   9.754   7.181  0.1870 -0.3602 -0.1646
    1AU     LIG  293   7.144   9.995   6.781 -0.0650 -0.3639 -0.2364
    1AU     LIG  294   7.224  10.191   6.516  0.3161 -0.0697  0.0819
    1AU     LIG  295   7.596  10.170   6.196  0.0138  0.2759  0.0949
    1AU    AUSL  296   5.277   8.517   6.699  0.0228 -0.0235  0.0584
    1AU    AUSL  297   5.519   8.637   6.652  0.0708 -0.0339 -0.0694
    1AU     AUL  298   5.586   8.570   6.411 -0.0225 -0.0121 -0.0384
    1AU       S  299   5.052   8.186   6.568  0.2251  0.1013 -0.1806
    1AU     LIG  300   5.053   7.798   6.506 -0.0365  0.0845 -0.3378
    1AU     LIG  301   4.713   7.586   6.376 -0.0240  0.0046  0.3267
    1AU     LIG  302   4.338   7.615   6.159 -0.0155 -0.1363  0.0668
    1AU     LIG  303   3.883   7.732   6.036  0.0686 -0.0536 -0.0079
    1AU     LIG  304   3.396   7.722   5.958  0.2585 -0.0006 -0.4298
    1AU       S  305   5.549   8.028   6.435 -0.1098 -0.0062  0.0538
    1AU     LIG  306   5.539   7.639   6.272  0.1635  0.2223  0.0651
    1AU     LIG  307   5.627   7.152   6.278 -0.0899 -0.2229 -0.0446
    1AU     LIG  308   5.882   6.807   6.338  0.0051  0.1553 -0.0030
    1AU     LIG  309   6.143   6.465   6.394 -0.3573  0.1265  0.1632
    1AU     LIG  310   6.412   6.488   6.787 -0.0950 -0.1267  0.0252
    1AU    AUSL  311   5.272   8.788   6.655  0.0628 -0.1823 -0.0597
    1AU    AUSL  312   5.119   8.664   6.873  0.0440  0.0831  0.0149
    1AU     AUL  313   5.119   8.795   6.584  0.0034  0.0295 -0.0042
    1AU       S  314   4.877   8.340   6.371  0.2012 -0.2597 -0.1375
    1AU     LIG  315   4.436   8.209   6.286  0.0070  0.1063  0.3127
    1AU     LIG  316   4.047   8.019   6.505 -0.1286 -0.2179  0.1899
    1AU     LIG  317   3.750   7.698   6.585 -0.1093  0.0712  0.1468
    1AU     LIG  318   3.451   7.446   6.329  0.2107  0.4012 -0.1537
    1AU     LIG  319   3.208   7.084   6.419 -0.3280  0.0372  0.1111
    1AU       S  320   4.698   8.424   6.879 -0.0221  0.5007  0.2390
    1AU     LIG  321   4.497   7.984   6.775  0.4317  0.1582  0.0068
    1AU     LIG  322   4.236   7.585   6.618  0.0051  0.1390 -0.0726
    1AU     LIG  323   3.999   7.179   7.002  0.0047  0.1156  0.1978
    1AU     LIG  324   4.226   6.796   7.003 -0.0772 -0.0717  0.0376
    1AU     LIG  325   4.529   6.547   6.905  0.1375  0.3511  0.0875
    1AU    AUSL  326   5.612   8.993   7.453  0.0285  0.0023  0.1329
    1AU    AUSL  327   5.501   9.166   7.237  0.0453 -0.0595  0.0202
    1AU     AUL  328   5.465   9.247   7.333  0.0015  0.0662  0.0568
    1AU       S  329   5.238   9.399   7.746 -0.1251 -0.0711  0.2697
    1AU     LIG  330   5.025   9.819   7.892  0.0926  0.2833 -0.4517
    1AU     LIG  331   5.103  10.205   7.798 -0.4504  0.0118  0.0757
    1AU     LIG  332   5.027  10.523   7.757 -0.0756 -0.1632 -0.1940
    1AU     LIG  333   4.724  10.616   7.504  0.3925 -0.0283  0.3215
    1AU     LIG  334   4.370  10.565   7.295 -0.4145  0.0424  0.1073
    1AU       S  335   5.643   8.989   7.870 -0.0781 -0.0705 -0.2441
    1AU     LIG  336   5.289   8.766   8.064 -0.0159 -0.0951 -0.3578
    1AU     LIG  337   5.286   8.481   8.430 -0.1307 -0.1749  0.6022
    1AU     LIG  338   5.246   8.211   8.723  0.0304 -0.0067 -0.0679
    1AU     LIG  339   5.211   7.779   8.769  0.0140  0.0456 -0.1922
    1AU     LIG  340   5.375   7.299   8.828 -0.2705 -0.1630  0.1866
    1AU    AUSL  341   5.773   9.064   7.235 -0.0260 -0.0265  0.0019
    1AU    AUSL  342   5.786   8.809   7.347 -0.0065 -0.0147  0.0182
    1AU     AUL  343   5.939   9.214   7.336 -0.0131 -0.0068  0.0832
    1AU       S  344   6.008   8.582   7.722 -0.0309 -0.0760  0.0193
    1AU     LIG  345   6.145   8.085   7.714 -0.1937  0.4413  0.2709
    1AU     LIG  346   6.043   7.669   7.600  0.2242 -0.3114  0.1760
    1AU     LIG  347   5.739   7.511   7.336  0.2791  0.0212 -0.1022
    1AU     LIG  348   5.730   7.179   7.250  0.0248  0.0595  0.1100
    1AU     LIG  349   5.895   6.752   7.328 -0.1662  0.1898  0.4576
    1AU       S  350   5.899   9.140   7.872 -0.1283  0.0209  0.5792
    1AU     LIG  351   6.272   9.325   7.970 -0.2578 -0.1992  0.0528
    1AU     LIG  352   6.570   9.715   7.861  0.2370  0.0945  0.2477
    1AU     LIG  353   6.541  10.188   7.938 -0.0296 -0.1548  0.4938
    1AU     LIG  354   6.440  10.267   8.297  0.2215  0.6401  0.0647
    1AU     LIG  355   6.117  10.258   8.628 -0.0754  0.0899  0.1466
    1AU    AUSL  356   5.964   9.172   6.449  0.1281 -0.0006 -0.1163
    1AU    AUSL  357   6.129   9.344   6.879 -0.0131 -0.0219 -0.0032
    1AU     AUL  358   6.169   9.092   6.630  0.0045  0.0291  0.0936
    1AU       S  359   6.522   9.584   6.880  0.2624 -0.0497  0.2627
    1AU     LIG  360   6.622   9.990   7.263 -0.0850  0.2425 -0.4149
    1AU     LIG  361   6.898  10.150   7.497  0.1200 -0.1121  0.0015
    1AU     LIG  362   7.345  10.343   7.507  0.1082 -0.0055  0.0435
    1AU     LIG  363   7.651  10.704   7.393 -0.1182  0.1552 -0.2655
    1AU     LIG  364   7.616  11.072   7.468 -0.1164 -0.1283  0.0728
    1AU       S  365   6.328   9.461   6.236 -0.0422 -0.2000  0.0684
    1AU     LIG  366   6.728   9.407   6.197  0.1479 -0.2285  0.0909
    1AU     LIG  367   7.058   9.764   6.233 -0.0682  0.3396 -0.1111
    1AU     LIG  368   7.183  10.100   5.956  0.0534 -0.0106 -0.2059
    1AU     LIG  369   7.365  10.476   5.914 -0.0356 -0.1748  0.1166
    1AU     LIG  370   7.259  10.898   5.942 -0.0485 -0.3266  0.2009
    1AU    AUSL  371   5.978   9.414   6.645 -0.0008  0.0159  0.0652
    1AU    AUSL  372   5.572   9.547   6.503 -0.0032  0.0697 -0.0596
    1AU     AUL  373   5.779   9.433   6.301  0.0543  0.1186 -0.0480
    1AU       S  374   6.267   9.717   6.465 -0.2308  0.0136  0.2442
    1AU     LIG  375   6.591   9.928   6.485 -0.1113  0.2675  0.3900
    1AU     LIG  376   6.763  10.311   6.471  0.1286  0.1193  0.2523
    1AU     LIG  377   7.033  10.671   6.328 -0.1882 -0.3704  0.2251
    1AU     LIG  378   7.376  10.693   6.490 -0.0279  0.1198  0.2196
    1AU     LIG  379   7.688  10.819   6.901 -0.1711  0.2160  0.1981
    1AU       S  380   5.535   9.986   6.487  0.2030  0.2951 -0.1164
    1AU     LIG  381   5.379  10.229   6.077  0.4845 -0.4359  0.0964
    1AU     LIG  382   5.341  10.652   5.929 -0.0375 -0.3379  0.1511
    1AU     LIG  383   5.420  10.764   5.468 -0.1984 -0.0464  0.1151
    1AU     LIG  384   5.310  10.583   5.190 -0.2229 -0.1572  0.2476
    1AU     LIG  385   5.030  10.352   5.098  0.3609 -0.1482 -0.1072
    1AU    AUSL  386   5.737   9.312   6.548 -0.0756 -0.0052 -0.0614
    1AU    AUSL  387   5.917   8.930   6.310 -0.0729 -0.0869  0.0402
    1AU     AUL  388   5.886   9.261   6.103  0.0108 -0.0563  0.1317
    1AU       S  389   6.108   8.829   5.907  0.3067  0.0884 -0.0981
    1AU     LIG  390   6.419   8.555   5.849  0.0007  0.2750 -0.1693
    1AU     LIG  391   6.816   8.524   6.107 -0.0486  0.1714 -0.1543
    1AU     LIG  392   7.044   8.184   6.100  0.0497 -0.0432 -0.0349
    1AU     LIG  393   7.301   8.052   6.166 -0.1107 -0.0497 -0.0658
    1AU     LIG  394   7.767   7.934   6.255 -0.1693  0.3071  0.1210
    1AU       S  395   6.144   9.797   6.344 -0.3385  0.1679  0.0132
    1AU     LIG  396   6.256  10.265   6.391  0.0865 -0.2939 -0.0692
    1AU     LIG  397   6.443  10.662   6.651  0.2144 -0.3219  0.1606
    1AU     LIG  398   6.921  10.783   6.771 -0.2041 -0.0414 -0.1813
    1AU     LIG  399   7.270  11.053   6.908  0.0831  0.0580  0.1728
    1AU     LIG  400   7.314  11.399   7.215 -0.1226 -0.0052  0.3558
    1AU    AUSL  401   5.722   8.594   6.925 -0.0052  0.0715 -0.0233
    1AU    AUSL  402   5.534   8.407   6.828  0.0336 -0.0244 -0.0495
    1AU     AUL  403   5.999   8.358   6.824 -0.0264 -0.0929 -0.0342
    1AU       S  404   5.846   8.036   7.214 -0.2234 -0.2425 -0.2499
    1AU     LIG  405   6.255   7.927   7.161  0.1937  0.2051  0.1647
    1AU     LIG  406   6.515   7.835   7.465 -0.2449 -0.3301  0.0656
    1AU     LIG  407   6.722   7.806   7.910  0.0521 -0.0663  0.3489
    1AU     LIG  408   6.828   7.522   8.233  0.2403  0.0105  0.0561
    1AU     LIG  409   6.675   7.264   8.533  0.3696  0.4377 -0.1193
    1AU       S  410   5.458   8.015   6.767 -0.1627  0.3078 -0.4995
    1AU     LIG  411   5.475   7.604   6.911  0.1446  0.1462  0.1174
    1AU     LIG  412   5.728   7.231   6.807  0.0091 -0.3097 -0.3683
    1AU     LIG  413   6.122   7.113   6.656  0.0198  0.1520 -0.1582
    1AU     LIG  414   6.534   6.981   6.767 -0.1518  0.0408 -0.0223
    1AU     LIG  415   6.951   6.786   6.799  0.1884  0.1114 -0.3540
    1AU    AUSL  416   5.597   8.713   7.161  0.0336  0.0337 -0.0278
    1AU    AUSL  417   5.884   8.803   7.076 -0.0056 -0.0276  0.0385
    1AU     AUL  418   5.795   8.490   6.945 -0.0018  0.0362 -0.0086
    1AU       S  419   5.678   8.164   7.517 -0.3600 -0.3164 -0.2658
    1AU     LIG  420   5.481   8.319   7.920  0.2998  0.1865 -0.1264
    1AU     LIG  421   4.970   8.325   8.084  0.1008  0.0626  0.1057
    1AU     LIG  422   4.536   8.521   8.135 -0.2414  0.2585 -0.2970
    1AU     LIG  423   4.118   8.622   8.030  0.1479  0.0168  0.1015
    1AU     LIG  424   3.803   8.745   7.915 -0.1007  0.0116  0.0341
    1AU       S  425   6.234   8.563   7.560 -0.3562  0.0897  0.3479
    1AU     LIG  426   6.598   8.302   7.604 -0.0160 -0.0100 -0.0698
    1AU     LIG  427   6.982   8.070   7.583 -0.2573 -0.0127 -0.3077
    1AU     LIG  428   7.384   7.882   7.437 -0.0553 -0.1311 -0.0061
    1AU     LIG  429   7.681   7.716   7.187  0.1389 -0.2664 -0.2970
    1AU     LIG  430   8.116   8.009   7.035  0.1016  0.5070 -0.1981
    1AU    AUSL  431   5.557   8.450   7.109  0.0414  0.0454  0.0380
    1AU    AUSL  432   5.344   8.628   7.227 -0.0422 -0.0354  0.0182
    1AU     AUL  433   5.564   8.690   7.444  0.0827 -0.0274 -0.1051
    1AU       S  434   5.140   8.319   7.473  0.2438 -0.0573  0.0474
    1AU     LIG  435   4.680   8.391   7.657 -0.0780 -0.0529 -0.3452
    1AU     LIG  436   4.391   8.703   7.592 -0.2082  0.0566 -0.0580
    1AU     LIG  437   4.365   9.129   7.454 -0.2839  0.3029  0.0659
    1AU     LIG  438   4.123   9.472   7.165  0.2460  0.1093 -0.0654
    1AU     LIG  439   3.821   9.743   7.213  0.0704  0.0558 -0.3517
    1AU       S  440   5.544   8.058   7.279  0.0957 -0.1757 -0.3756
    1AU     LIG  441   5.251   7.780   7.407  0.0347  0.1030  0.3513
    1AU     LIG  442   5.192   7.406   7.244  0.2347 -0.4273 -0.1002
    1AU     LIG  443   5.002   7.164   6.961 -0.2144  0.0587 -0.2544
    1AU     LIG  444   4.770   6.951   6.674 -0.1295  0.1468  0.1943
    1AU     LIG  445   4.488   7.134   6.407  0.0915 -0.0211  0.5026
    1AU    AUSL  446   5.357   9.527   6.690 -0.0135 -0.0203 -0.0149
    1AU    AUSL  447   5.452   9.308   6.544 -0.0368 -0.0075  0.0517
    1AU     AUL  448   5.527   9.326   6.347 -0.0030 -0.0212  0.0589
    1AU       S  449   5.209   9.938   6.618  0.1299 -0.5257  0.1774
    1AU     LIG  450   5.114  10.314   6.677 -0.3376  0.0643  0.1519
    1AU     LIG  451   5.298  10.644   6.843 -0.0764 -0.2118  0.2540
    1AU     LIG  452   5.570  10.976   6.802  0.0780 -0.4614 -0.1018
    1AU     LIG  453   5.821  11.385   6.847  0.0449 -0.2208  0.0037
    1AU     LIG  454   5.965  11.481   7.170  0.3372 -0.0768  0.1159
    1AU       S  455   5.220   9.730   6.165 -0.0553  0.2287 -0.1404
    1AU     LIG  456   4.906  10.086   6.248 -0.0335  0.2593 -0.3062
    1AU     LIG  457   4.608  10.370   6.471  0.1985 -0.3948  0.0445
    1AU     LIG  458   4.361  10.719   6.834 -0.1546  0.0541  0.3105
    1AU     LIG  459   3.956  10.767   7.060 -0.0565  0.0552 -0.0100
    1AU     LIG  460   3.708  11.099   7.125  0.3203 -0.2957  0.0979
    1AU    AUSL  461   5.604   9.432   6.776  0.0180  0.0447  0.0713
    1AU    AUSL  462   5.411   9.536   6.962 -0.1221 -0.0784 -0.0107
    1AU     AUL  463   5.752   9.556   6.718  0.0566  0.0582 -0.0993
    1AU       S  464   5.485  10.047   6.706 -0.2568  0.1028  0.2393
    1AU     LIG  465   5.684  10.399   6.830 -0.2316  0.0064  0.2909
    1AU     LIG  466   6.034  10.758   6.987 -0.1429  0.0988  0.1588
    1AU     LIG  467   6.498  10.827   7.107  0.0906  0.1583 -0.0090
    1AU     LIG  468   6.689  11.122   7.238  0.1094  0.2537 -0.0594
    1AU     LIG  469   6.683  11.546   7.309  0.1916 -0.0680 -0.1828
    1AU       S  470   5.363  10.020   7.181  0.1802  0.0423  0.4192
    1AU     LIG  471   5.243  10.327   7.339 -0.0161 -0.1068  0.1757
    1AU     LIG  472   5.222  10.759   7.316 -0.3310  0.1986  0.2301
    1AU     LIG  473   5.127  11.077   6.965 -0.1013 -0.2358 -0.1037
    1AU     LIG  474   5.066  11.482   6.750 -0.0151  0.0041 -0.4239
    1AU     LIG  475   5.022  11.802   6.441 -0.0152  0.2513 -0.0742
    1AU    AUSL  476   5.242   8.835   7.064 -0.0503  0.0528  0.0809
    1AU    AUSL  477   5.433   8.899   7.263  0.0271  0.0034 -0.0726
    1AU     AUL  478   5.344   8.877   7.455 -0.0036 -0.0079  0.0160
    1AU       S  479   5.189   9.168   7.830  0.2716  0.1031  0.1108
    1AU     LIG  480   4.845   8.828   7.874  0.1769  0.0885  0.3500
    1AU     LIG  481   4.444   9.065   7.961 -0.2816  0.2483 -0.0101
    1AU     LIG  482   4.096   9.093   7.901 -0.0813  0.1432 -0.5298
    1AU     LIG  483   3.845   9.079   7.572 -0.0691 -0.1176 -0.1960
    1AU     LIG  484   3.722   9.135   7.180 -0.2872 -0.3619 -0.1971
    1AU       S  485   4.932   8.321   7.274  0.2736 -0.1216  0.3243
    1AU     LIG  486   4.644   8.017   7.320 -0.1942  0.0452 -0.3964
    1AU     LIG  487   4.264   7.715   7.181 -0.1386 -0.2534  0.0619
    1AU     LIG  488   3.881   7.654   7.037  0.1067 -0.1361  0.1298
    1AU     LIG  489   3.517   7.766   7.184 -0.0028  0.0532  0.0867
    1AU     LIG  490   3.179   8.112   7.259  0.1777 -0.2088  0.1570
    1AU    AUSL  491   5.386   8.613   6.963 -0.0012  0.0144  0.0033
    1AU    AUSL  492   4.969   8.891   7.013 -0.0612 -0.0183 -0.0726
    1AU     AUL  493   5.154   8.836   7.237 -0.0014  0.1290 -0.0049
    1AU       S  494   5.064   8.176   7.117  0.1427  0.1219  0.0963
    1AU     LIG  495   4.992   7.823   6.998  0.2126  0.1384  0.1231
    1AU     LIG  496   4.691   7.544   6.916  0.0288  0.2356  0.3547
    1AU     LIG  497   4.476   7.245   7.099 -0.1734  0.3129  0.4688
    1AU     LIG  498   4.339   7.051   7.467 -0.2847  0.0616 -0.3546
    1AU     LIG  499   4.440   6.997   7.924 -0.2963 -0.3112  0.3201
    1AU       S  500   4.621   8.687   7.048 -0.0243 -0.1019  0.0437
    1AU     LIG  501   4.268   8.419   7.205  0.0316  0.1197  0.0801
    1AU     LIG  502   3.891   8.179   7.060 -0.1405 -0.0362 -0.2172
    1AU     LIG  503   3.459   8.139   6.771 -0.4118 -0.1555  0.1269
    1AU     LIG  504   3.021   8.315   6.829  0.1995  0.2223 -0.0594
    1AU     LIG  505   2.544   8.502   6.582 -0.4177  0.1675 -0.3920
    2POPC   NC3  506   8.092   2.180   9.130 -0.1165 -0.1659  0.0067
    2POPC   PO4  507   8.356   2.136   8.814  0.2414  0.0370  0.1055
    2POPC   GL1  508   8.354   2.293   8.335 -0.2977  0.1484  0.0080
    2POPC   GL2  509   8.086   2.593   8.328 -0.1630 -0.1169 -0.0775
    2POPC   C1A  510   8.355   2.424   7.842  0.1354  0.0140 -0.3831
    2POPC   D2A  511   8.532   2.347   7.481 -0.0448  0.1024 -0.1622
    2POPC   C3A  512   8.327   2.535   7.217 -0.3040 -0.2083  0.0604
    2POPC   C4A  513   7.925   2.503   7.029  0.3224  0.2255  0.0830
    2POPC   C1B  514   7.896   2.239   8.080  0.0908 -0.1371  0.1980
    2POPC   C2B  515   7.785   1.909   7.788 -0.0892  0.0636 -0.2803
    2POPC   C3B  516   7.699   1.851   7.353 -0.0468 -0.1158  0.1647
    2POPC   C4B  517   7.777   1.994   6.875  0.0720  0.3107  0.0658
    3POPC   NC3  518   2.439   1.045   8.656  0.0678  0.1233  0.1179
    3POPC   PO4  519   2.007   1.166   8.537 -0.2373  0.1805 -0.1246
    3POPC   GL1  520   2.043   1.200   8.217 -0.0347  0.2799  0.2223
    3POPC   GL2  521   1.784   1.335   7.986 -0.0572  0.0345 -0.0691
    3POPC   C1A  522   2.209   1.140   7.775 -0.0266 -0.2425  0.0528
    3POPC   D2A  523   2.239   1.147   7.311  0.1424 -0.1305 -0.0251
    3POPC   C3A  524   2.430   1.341   6.980  0.1690  0.1236  0.0938
    3POPC   C4A  525   2.275   1.612   6.749  0.2069 -0.3352 -0.1943
    3POPC   C1B  526   1.761   1.314   7.509 -0.0805 -0.0044 -0.2877
    3POPC   C2B  527   1.657   1.165   7.103 -0.0938 -0.3147 -0.0197
    3POPC   C3B  528   1.990   1.178   6.798  0.0702  0.1992 -0.1919
    3POPC   C4B  529   2.447   1.211   6.542  0.2197  0.3563  0.2599
    4POPC   NC3  530   0.939   7.892   8.698  0.0507 -0.2606  0.1412
    4POPC   PO4  531   0.648   8.067   8.512  0.1710  0.1527  0.2705
    4POPC   GL1  532   0.441   8.074   8.166  0.1929  0.1209  0.0208
    4POPC   GL2  533   0.101   8.038   8.233  0.0219 -0.2477  0.2086
    4POPC   C1A  534   0.384   8.145   7.745  0.1153 -0.2166 -0.0722
    4POPC   D2A  535   0.567   8.134   7.346 -0.1222  0.2782 -0.1081
    4POPC   C3A  536   0.391   8.262   6.916 -0.1213  0.2568  0.0182
    4POPC   C4A  537   0.552   8.044   6.582 -0.1460 -0.0436 -0.0405
    4POPC   C1B  538  -0.161   8.176   7.908  0.0076  0.0456  0.0491
    4POPC   C2B  539  -0.285   8.108   7.444 -0.1983  0.2155  0.1868
    4POPC   C3B  540  -0.604   8.268   7.127  0.1543  0.1257  0.4164
    4POPC   C4B  541  -0.998   8.331   7.047  0.1646 -0.3217  0.1865
    5POPC   NC3  542   7.065   4.013   8.993  0.2634 -0.0754 -0.1447
    5POPC   PO4  543   7.467   4.271   8.759 -0.1969  0.0265  0.2323
    5POPC   GL1  544   7.326   4.332   8.284 -0.0241  0.1422  0.1804
    5POPC   GL2  545   7.103   4.086   8.059 -0.0663  0.1790 -0.1022
    5POPC   C1A  546   7.557   4.285   7.959  0.4438  0.1004  0.0508
    5POPC   D2A  547   7.611   4.208   7.519 -0.1144 -0.2291 -0.0176
    5POPC   C3A  548   7.349   3.985   7.222  0.0717  0.0527 -0.0517
    5POPC   C4A  549   7.036   3.640   7.057 -0.0447  0.3618  0.2941
    5POPC   C1B  550   7.380   3.754   7.932 -0.0650  0.0264 -0.0449
    5POPC   C2B  551   7.551   3.613   7.577 -0.1008  0.1503 -0.2002
    5POPC   C3B  552   7.388   3.311   7.256  0.0018  0.1686  0.1648
    5POPC   C4B  553   7.144   3.147   6.876  0.0308  0.0322 -0.1455
    6POPC   NC3  554   3.836   5.837   8.290  0.0792  0.1214  0.2427
    6POPC   PO4  555   3.658   6.169   8.500  0.0974  0.2751  0.0731
    6POPC   GL1  556   3.954   6.348   8.208  0.2073  0.0065 -0.0118
    6POPC   GL2  557   4.185   6.267   8.084  0.1746  0.2410  0.1416
    6POPC   C1A  558   4.018   6.671   7.804  0.3588  0.0479 -0.0662
    6POPC   D2A  559   3.873   7.005   7.556 -0.1726 -0.0626  0.1403
    6POPC   C3A  560   3.940   7.377   7.478 -0.3374 -0.1463  0.0536
    6POPC   C4A  561   3.886   7.770   7.620  0.0501  0.1069 -0.1541
    6POPC   C1B  562   4.454   6.280   7.796 -0.0514  0.0297  0.1001
    6POPC   C2B  563   4.576   6.534   7.429 -0.0893 -0.2503  0.1383
    6POPC   C3B  564   4.916   6.775   7.237  0.3283  0.1473  0.0724
    6POPC   C4B  565   5.324   6.949   7.402  0.1672  0.2389 -0.2034
    7POPC   NC3  566   6.072   5.458   8.655 -0.1445  0.0967  0.0680
    7POPC   PO4  567   6.169   5.874   8.747 -0.1492  0.0754 -0.0203
    7POPC   GL1  568   5.822   5.990   8.488 -0.0505 -0.3954  0.2462
    7POPC   GL2  569   5.743   5.927   8.215  0.0867 -0.1503  0.3705
    7POPC   C1A  570   5.740   6.412   8.317 -0.2132  0.2823  0.1919
    7POPC   D2A  571   6.086   6.660   8.332 -0.2098 -0.4261 -0.0303
    7POPC   C3A  572   6.216   6.927   7.884 -0.1540  0.0016 -0.2276
    7POPC   C4A  573   6.085   7.129   7.561 -0.0536  0.1260  0.2715
    7POPC   C1B  574   5.434   6.277   7.958 -0.1588 -0.0124 -0.1912
    7POPC   C2B  575   5.365   6.488   7.673  0.1287 -0.1247  0.1168
    7POPC   C3B  576   5.471   6.474   7.216 -0.4399 -0.0378  0.0103
    7POPC   C4B  577   5.803   6.676   6.851 -0.0688  0.1753  0.1019
    8POPC   NC3  578   3.691   6.983   8.988  0.1630 -0.1889 -0.0399
    8POPC   PO4  579   4.137   7.001   9.189 -0.0739 -0.1204  0.1880
    8POPC   GL1  580   4.140   7.224   8.755  0.1281  0.1526 -0.1459
    8POPC   GL2  581   3.755   7.225   8.589  0.3451 -0.0174 -0.0876
    8POPC   C1A  582   4.346   7.410   8.421 -0.1630  0.1529 -0.1388
    8POPC   D2A  583   4.148   7.498   7.968  0.2292 -0.2180 -0.2970
    8POPC   C3A  584   4.433   7.763   7.692  0.0012  0.3676 -0.0682
    8POPC   C4A  585   4.876   7.955   7.745  0.1001  0.1120 -0.1770
    8POPC   C1B  586   3.619   7.411   8.134  0.0124  0.1880  0.4336
    8POPC   C2B  587   3.452   7.440   7.747 -0.0799  0.0365  0.1162
    8POPC   C3B  588   3.108   7.625   7.460 -0.3347 -0.0275 -0.0820
    8POPC   C4B  589   2.956   7.452   7.064  0.2732 -0.3130  0.0295
    9POPC   NC3  590   7.134   7.313   9.321  0.0077 -0.0671 -0.3008
    9POPC   PO4  591   6.958   7.651   9.515  0.1040 -0.2260  0.0659
    9POPC   GL1  592   6.401   7.646   9.305 -0.0274 -0.0118 -0.1383
    9POPC   GL2  593   6.552   7.835   8.951 -0.1665  0.3572 -0.0258
    9POPC   C1A  594   6.068   7.775   9.196 -0.0699 -0.1943  0.0563
    9POPC   D2A  595   5.733   7.756   8.937 -0.2809  0.0197  0.1406
    9POPC   C3A  596   5.670   8.069   8.582 -0.0435 -0.0025 -0.3006
    9POPC   C4A  597   5.869   8.478   8.457 -0.0154  0.0666 -0.0215
    9POPC   C1B  598   6.665   7.910   8.501  0.1045 -0.0239 -0.1501
    9POPC   C2B  599   6.948   8.132   8.252 -0.0237 -0.2750  0.0476
    9POPC   C3B  600   7.025   8.574   8.023 -0.1694  0.2958  0.3565
    9POPC   C4B  601   7.259   9.024   8.063 -0.2586  0.1657  0.2573
   10POPC   NC3  602   9.848   1.457   9.110  0.2127  0.2213  0.2280
   10POPC   PO4  603   9.961   1.870   8.884 -0.3017 -0.0236 -0.0390
   10POPC   GL1  604  10.018   1.909   8.467 -0.2488 -0.1749  0.1126
   10POPC   GL2  605  10.141   1.653   8.240 -0.3413 -0.2735  0.1160
   10POPC   C1A  606  10.061   2.197   8.247  0.0281  0.1669  0.0336
   10POPC   D2A  607  10.263   2.520   8.025  0.3176 -0.0072 -0.1136
   10POPC   C3A  608  10.248   2.842   7.679  0.1634  0.0269 -0.0678
   10POPC   C4A  609  10.268   3.100   7.330 -0.0336 -0.1123 -0.3001
   10POPC   C1B  610   9.968   1.816   7.834 -0.3131 -0.0675  0.0917
   10POPC   C2B  611   9.768   1.780   7.460  0.0024 -0.4655  0.1338
   10POPC   C3B  612   9.730   1.709   7.124  0.1649  0.2120 -0.1364
   10POPC   C4B  613   9.552   1.807   6.818  0.1207  0.1651 -0.1764
   11POPC   NC3  614   2.303   8.984   9.056 -0.1772 -0.0562  0.0059
   11POPC   PO4  615   2.295   9.194   8.632  0.2520  0.0881  0.0472
   11POPC   GL1  616   2.323   9.141   8.284  0.0775  0.1879 -0.0476
   11POPC   GL2  617   2.267   9.537   8.287  0.1973  0.3158 -0.1630
   11POPC   C1A  618   2.235   9.193   7.918  0.0780  0.0783  0.1784
   11POPC   D2A  619   2.320   9.079   7.490  0.0319 -0.2563  0.0804
   11POPC   C3A  620   2.615   8.842   7.364  0.0580  0.3564  0.0712
   11POPC   C4A  621   2.613   8.574   7.060  0.0664  0.0032 -0.2492
   11POPC   C1B  622   2.030   9.694   8.047 -0.0094  0.1269 -0.0462
   11POPC   C2B  623   1.626   9.785   7.826  0.2798  0.1254 -0.3803
   11POPC   C3B  624   1.395   9.830   7.418 -0.0681  0.0040  0.1260
   11POPC   C4B  625   1.134   9.776   7.069 -0.1775 -0.3205 -0.4733
   12POPC   NC3  626  10.375   3.086   9.083  0.3167 -0.0942 -0.0096
   12POPC   PO4  627  10.109   3.167   8.694 -0.4118 -0.0287 -0.0361
   12POPC   GL1  628  10.065   3.260   8.268 -0.1317  0.0575  0.0477
   12POPC   GL2  629  10.301   2.984   8.203  0.2996  0.1266  0.1227
   12POPC   C1A  630   9.879   3.248   7.679  0.1444  0.0994 -0.0377
   12POPC   D2A  631   9.789   3.255   7.243 -0.1742  0.4936  0.1436
   12POPC   C3A  632  10.020   3.513   6.960  0.2079  0.0781 -0.0436
   12POPC   C4A  633   9.873   3.902   6.639 -0.1755 -0.2755  0.1089
   12POPC   C1B  634  10.379   3.329   7.916  0.0949 -0.3282  0.1613
   12POPC   C2B  635  10.651   3.601   7.853  0.0760  0.1606 -0.0116
   12POPC   C3B  636  10.574   4.094   7.683 -0.3363 -0.0675  0.0630
   12POPC   C4B  637  10.287   4.364   7.509 -0.1272 -0.1553  0.1342
   13POPC   NC3  638   6.795   1.495   9.287 -0.2458  0.0466  0.1274
   13POPC   PO4  639   7.131   1.752   9.155 -0.0626  0.0514 -0.0712
   13POPC   GL1  640   7.165   1.554   8.784 -0.1352  0.1115  0.2052
   13POPC   GL2  641   7.129   1.199   8.914 -0.4545 -0.1790  0.1187
   13POPC   C1A  642   7.434   1.543   8.371 -0.0092 -0.1036  0.0221
   13POPC   D2A  643   7.364   1.249   8.117  0.0304 -0.0659  0.2105
   13POPC   C3A  644   7.498   1.509   7.781  0.4675 -0.2232  0.2462
   13POPC   C4A  645   7.454   1.467   7.362 -0.0559  0.1757  0.1696
   13POPC   C1B  646   6.993   1.124   8.521  0.0340  0.1089  0.0268
   13POPC   C2B  647   7.189   0.778   8.187 -0.1097 -0.1362 -0.2773
   13POPC   C3B  648   7.046   0.467   7.964 -0.1053 -0.1535 -0.0614
   13POPC   C4B  649   7.026   0.057   7.918 -0.0489  0.0833  0.1157
   14POPC   NC3  650   5.298   0.991   9.318  0.0187  0.2292  0.4390
   14POPC   PO4  651   5.781   1.212   9.362  0.0151  0.1943 -0.0436
   14POPC   GL1  652   5.811   1.201   8.960  0.1915 -0.1154  0.2047
   14POPC   GL2  653   5.632   0.909   8.913 -0.1885 -0.1250  0.0882
   14POPC   C1A  654   5.703   1.380   8.488  0.3420 -0.1317 -0.2843
   14POPC   D2A  655   5.437   1.353   7.998  0.3676 -0.1426 -0.4171
   14POPC   C3A  656   5.090   1.086   7.791  0.2494 -0.0873  0.0275
   14POPC   C4A  657   4.995   0.894   7.436  0.0707 -0.3226  0.2962
   14POPC   C1B  658   5.390   0.914   8.421 -0.1056 -0.1802  0.0188
   14POPC   C2B  659   5.378   0.826   8.086  0.1034  0.1266  0.1577
   14POPC   C3B  660   5.319   0.630   7.678  0.0521 -0.0206  0.1034
   14POPC   C4B  661   4.911   0.522   7.752  0.2399  0.2112 -0.0279
   15POPC   NC3  662   4.488   3.783   9.150  0.2400  0.1728  0.3105
   15POPC   PO4  663   4.405   3.835   8.775 -0.2373  0.1292  0.4145
   15POPC   GL1  664   4.327   3.771   8.274  0.3084  0.1940  0.1423
   15POPC   GL2  665   4.303   4.145   8.153 -0.0848 -0.0699  0.0552
   15POPC   C1A  666   4.098   3.792   7.908  0.1435  0.0234  0.1324
   15POPC   D2A  667   3.888   3.710   7.599  0.2101  0.0822 -0.1061
   15POPC   C3A  668   4.049   3.893   7.244 -0.0417 -0.1567 -0.4022
   15POPC   C4A  669   4.007   3.677   6.824  0.1839  0.1920 -0.1321
   15POPC   C1B  670   4.103   4.231   7.712 -0.0591 -0.0934 -0.1963
   15POPC   C2B  671   4.289   4.310   7.286  0.1692 -0.2349 -0.0805
   15POPC   C3B  672   4.197   4.243   6.820  0.0538 -0.1935 -0.0406
   15POPC   C4B  673   4.259   4.484   6.527 -0.2234 -0.1407  0.0107
   16POPC   NC3  674  10.033   6.506   9.034 -0.1051 -0.2116  0.1584
   16POPC   PO4  675   9.908   6.373   8.639 -0.1848  0.0790 -0.0275
   16POPC   GL1  676  10.097   6.472   8.180 -0.0551  0.1788 -0.0756
   16POPC   GL2  677  10.319   6.797   8.163  0.0603 -0.2908 -0.3105
   16POPC   C1A  678  10.128   6.154   7.844  0.0543 -0.2070 -0.2603
   16POPC   D2A  679  10.264   6.127   7.353  0.1043 -0.0820  0.0344
   16POPC   C3A  680  10.111   5.726   7.106 -0.1188  0.0554  0.0305
   16POPC   C4A  681   9.792   5.444   7.040  0.0565 -0.0752  0.2923
   16POPC   C1B  682  10.212   6.724   7.739  0.2336 -0.1487  0.0736
   16POPC   C2B  683  10.053   6.822   7.329 -0.0281 -0.0930 -0.1869
   16POPC   C3B  684   9.983   7.013   7.070 -0.1029 -0.1575  0.0368
   16POPC   C4B  685   9.972   6.842   6.631 -0.0147  0.1967 -0.1360
   17POPC   NC3  686   0.499   5.733   8.739 -0.0231 -0.1780 -0.1046
   17POPC   PO4  687   0.212   5.379   8.612  0.0388  0.0689 -0.1374
   17POPC   GL1  688   0.477   5.320   8.314  0.1692  0.1899  0.1052
   17POPC   GL2  689   0.765   5.457   8.475 -0.1389 -0.1898 -0.1786
   17POPC   C1A  690   0.549   5.199   7.824 -0.1310  0.1763 -0.1559
   17POPC   D2A  691   0.633   5.203   7.402  0.1316  0.0036 -0.1137
   17POPC   C3A  692   0.411   5.224   7.049  0.2412 -0.1193  0.0072
   17POPC   C4A  693   0.469   5.574   6.825 -0.1595  0.0613 -0.2878
   17POPC   C1B  694   0.853   5.529   8.046  0.0990 -0.0309 -0.0476
   17POPC   C2B  695   0.992   5.565   7.666 -0.1102 -0.0901 -0.1518
   17POPC   C3B  696   1.086   5.491   7.196  0.3482  0.1082  0.3532
   17POPC   C4B  697   1.453   5.427   6.997 -0.3461  0.1483 -0.2235
   18POPC   NC3  698   3.315   0.787   9.290 -0.0485  0.0428 -0.0061
   18POPC   PO4  699   3.136   0.394   9.190  0.2638  0.1391 -0.1324
   18POPC   GL1  700   3.242   0.523   8.734  0.1215  0.2564  0.0028
   18POPC   GL2  701   3.402   0.805   8.832  0.5201  0.0018 -0.2514
   18POPC   C1A  702   3.206   0.533   8.332 -0.1654 -0.1589  0.0893
   18POPC   D2A  703   3.423   0.477   7.818 -0.2194 -0.1917  0.0625
   18POPC   C3A  704   3.507   0.833   7.499 -0.2587  0.1651 -0.0619
   18POPC   C4A  705   3.533   1.096   7.101 -0.0492 -0.0569  0.1785
   18POPC   C1B  706   3.673   0.643   8.606  0.0887 -0.1623  0.4901
   18POPC   C2B  707   3.814   0.520   8.225 -0.2601  0.1186 -0.2252
   18POPC   C3B  708   3.843   0.222   8.059 -0.1288 -0.0030 -0.0089
   18POPC   C4B  709   3.598  -0.026   7.675 -0.0046  0.0121  0.3367
   19POPC   NC3  710   5.661   3.388   8.886 -0.1178  0.2754 -0.0447
   19POPC   PO4  711   6.065   3.174   8.714  0.2464 -0.0552 -0.0138
   19POPC   GL1  712   6.159   3.074   8.263 -0.1896  0.2401 -0.0585
   19POPC   GL2  713   6.056   2.767   8.060 -0.0245  0.1431 -0.2184
   19POPC   C1A  714   6.151   3.344   7.870  0.0696  0.2325  0.2114
   19POPC   D2A  715   6.196   3.121   7.426 -0.0596  0.2924 -0.3623
   19POPC   C3A  716   5.975   3.205   6.988  0.1681 -0.0449 -0.0842
   19POPC   C4A  717   5.538   3.259   6.828  0.2546 -0.1437  0.0143
   19POPC   C1B  718   6.098   2.611   7.587 -0.2489  0.0831 -0.1227
   19POPC   C2B  719   6.024   2.185   7.351  0.0713  0.2866 -0.0723
   19POPC   C3B  720   5.789   1.926   7.052 -0.0336 -0.3079 -0.2645
   19POPC   C4B  721   5.831   1.508   6.838 -0.2722 -0.0769  0.4605
   20POPC   NC3  722   8.989   7.197   8.782 -0.1690 -0.1153  0.0526
   20POPC   PO4  723   8.758   6.870   8.639  0.0437  0.2369  0.0945
   20POPC   GL1  724   8.874   7.064   8.292  0.0944  0.3516 -0.1465
   20POPC   GL2  725   8.844   7.364   8.319 -0.0512 -0.0081  0.0454
   20POPC   C1A  726   8.986   6.986   7.943  0.1535 -0.0931  0.0169
   20POPC   D2A  727   9.233   6.824   7.639 -0.1460 -0.0821  0.0567
   20POPC   C3A  728   9.035   6.973   7.151 -0.1723 -0.0731 -0.0478
   20POPC   C4A  729   8.977   7.090   6.764 -0.1049  0.1401  0.1813
   20POPC   C1B  730   8.504   7.330   8.041 -0.0050  0.3327 -0.0832
   20POPC   C2B  731   8.348   7.414   7.795 -0.2232 -0.0174  0.1245
   20POPC   C3B  732   7.882   7.342   7.717 -0.2214  0.1647 -0.5567
   20POPC   C4B  733   7.512   7.464   7.732 -0.0582 -0.4299  0.1017
   21POPC   NC3  734   6.946   5.243   8.494 -0.2185 -0.0638  0.0646
   21POPC   PO4  735   7.244   5.601   8.672  0.0648  0.2564 -0.2132
   21POPC   GL1  736   7.300   5.672   8.242  0.3792 -0.1467  0.0332
   21POPC   GL2  737   7.162   5.440   8.092  0.2862 -0.0612  0.0975
   21POPC   C1A  738   7.188   5.954   7.902 -0.1522  0.1911  0.0711
   21POPC   D2A  739   7.087   6.098   7.607  0.1821 -0.2166 -0.1900
   21POPC   C3A  740   6.920   5.835   7.337 -0.0531 -0.0864  0.0111
   21POPC   C4A  741   6.879   5.613   6.966 -0.1101  0.0412 -0.0040
   21POPC   C1B  742   6.978   5.522   7.715  0.1268  0.0935  0.1691
   21POPC   C2B  743   6.600   5.468   7.491  0.0317  0.0637  0.1838
   21POPC   C3B  744   6.275   5.431   7.251  0.0602 -0.2126 -0.0027
   21POPC   C4B  745   5.938   5.305   6.925 -0.0428  0.0358 -0.3580
   22POPC   NC3  746   0.362   0.813   8.432  0.1552  0.0400  0.1523
   22POPC   PO4  747   0.773   0.896   8.770  0.2534  0.1480  0.0138
   22POPC   GL1  748   0.835   1.062   8.326 -0.0113 -0.1845 -0.1132
   22POPC   GL2  749   1.089   1.029   8.157  0.0236 -0.1964  0.2843
   22POPC   C1A  750   0.690   1.217   7.878  0.1074 -0.1299 -0.3975
   22POPC   D2A  751   0.716   1.134   7.509  0.1125 -0.0311 -0.0419
   22POPC   C3A  752   0.563   0.891   7.133 -0.1815  0.2784 -0.0183
   22POPC   C4A  753   0.189   0.711   7.175  0.0591 -0.2093 -0.1673
   22POPC   C1B  754   1.124   0.898   7.801 -0.1556 -0.3285 -0.0633
   22POPC   C2B  755   0.980   0.686   7.431 -0.0181  0.1683 -0.1974
   22POPC   C3B  756   1.009   0.761   6.982 -0.0858 -0.1269 -0.1807
   22POPC   C4B  757   1.361   0.929   6.812 -0.0404  0.4928 -0.1426
   23POPC   NC3  758   4.117   6.274   8.697  0.0317  0.1180  0.0443
   23POPC   PO4  759   4.539   6.258   8.745  0.1282 -0.3100 -0.1753
   23POPC   GL1  760   4.730   6.502   8.557  0.1783  0.0195  0.3802
   23POPC   GL2  761   4.928   6.725   8.639 -0.1683  0.3043 -0.0688
   23POPC   C1A  762   4.713   6.565   8.098  0.0771  0.0311  0.0165
   23POPC   D2A  763   4.913   6.687   7.778  0.3706 -0.1136 -0.2292
   23POPC   C3A  764   4.816   7.079   7.657  0.2003 -0.1372 -0.1984
   23POPC   C4A  765   4.741   7.499   7.464  0.0388 -0.2034 -0.0222
   23POPC   C1B  766   4.811   7.040   8.282  0.2569  0.1430  0.5413
   23POPC   C2B  767   4.673   7.446   7.995 -0.0914  0.0973  0.3834
   23POPC   C3B  768   4.566   7.854   8.177 -0.2635 -0.0074  0.2367
   23POPC   C4B  769   4.189   8.082   8.096  0.1983  0.2927 -0.2662
   24POPC   NC3  770   5.695   4.525   8.572  0.0314  0.1606  0.0212
   24POPC   PO4  771   6.088   4.788   8.416  0.2432 -0.1014  0.1708
   24POPC   GL1  772   6.070   5.106   8.087  0.0111  0.0719  0.0838
   24POPC   GL2  773   5.881   5.337   8.136 -0.2074 -0.0264 -0.0411
   24POPC   C1A  774   6.206   5.073   7.630 -0.0910 -0.2411 -0.0333
   24POPC   D2A  775   6.370   4.915   7.242  0.0165 -0.0267  0.0901
   24POPC   C3A  776   6.214   4.529   7.050  0.2308 -0.1378  0.1776
   24POPC   C4A  777   5.824   4.311   7.075  0.1365 -0.4168 -0.0037
   24POPC   C1B  778   6.051   5.591   7.785  0.0343 -0.0965  0.2175
   24POPC   C2B  779   6.219   5.903   7.569 -0.2930  0.0100 -0.0467
   24POPC   C3B  780   6.448   5.922   7.172 -0.1447 -0.1294 -0.0177
   24POPC   C4B  781   6.642   6.022   6.788 -0.2853 -0.0843 -0.0568
   25POPC   NC3  782   4.073   3.003   8.700  0.0067  0.0665  0.0859
   25POPC   PO4  783   4.517   2.873   8.871 -0.3205  0.1763 -0.1227
   25POPC   GL1  784   4.658   3.128   8.642  0.1143 -0.0639 -0.3590
   25POPC   GL2  785   4.410   3.285   8.468 -0.2762  0.1744 -0.0505
   25POPC   C1A  786   4.836   3.092   8.254  0.1820 -0.1102  0.0665
   25POPC   D2A  787   5.085   2.823   8.103 -0.1326  0.1459  0.3082
   25POPC   C3A  788   5.192   2.837   7.676 -0.0204 -0.1618 -0.1961
   25POPC   C4A  789   5.347   3.058   7.346  0.2441  0.0299 -0.0215
   25POPC   C1B  790   4.309   3.379   8.039 -0.0100 -0.1525  0.1055
   25POPC   C2B  791   4.239   3.359   7.659 -0.1182  0.0479 -0.0605
   25POPC   C3B  792   4.175   3.311   7.212  0.1362  0.2605 -0.0051
   25POPC   C4B  793   4.149   3.183   6.772 -0.1517  0.0423 -0.1991
   26POPC   NC3  794   9.513   9.786   9.652  0.2064 -0.1370  0.3812
   26POPC   PO4  795   9.365   9.520   9.288 -0.0500 -0.0979 -0.2148
   26POPC   GL1  796   9.110   9.438   8.865 -0.0679 -0.2001 -0.1484
   26POPC   GL2  797   8.948   9.265   8.704 -0.0229 -0.0147 -0.3071
   26POPC   C1A  798   8.912   9.598   8.388  0.1252  0.3446  0.0056
   26POPC   D2A  799   8.827   9.573   8.013  0.1661 -0.1872 -0.2266
   26POPC   C3A  800   8.545   9.557   7.794  0.2907 -0.0790 -0.0338
   26POPC   C4A  801   8.209   9.393   7.550  0.3866  0.0642 -0.1598
   26POPC   C1B  802   8.991   9.073   8.254 -0.0600 -0.0342  0.0281
   26POPC   C2B  803   9.063   9.150   7.797 -0.2252  0.1435  0.3372
   26POPC   C3B  804   9.389   9.053   7.517  0.0646  0.0502 -0.0334
   26POPC   C4B  805   9.592   8.815   7.202  0.0321  0.1720  0.2231
   27POPC   NC3  806   6.123   8.668  10.480 -0.1208  0.0602 -0.1766
   27POPC   PO4  807   5.990   8.554  10.000  0.2961 -0.0856 -0.1750
   27POPC   GL1  808   5.893   8.333   9.576  0.0135  0.0517  0.0095
   27POPC   GL2  809   5.694   8.287   9.536  0.2863 -0.1414  0.3162
   27POPC   C1A  810   6.279   8.334   9.298  0.3496 -0.1059 -0.1923
   27POPC   D2A  811   6.212   8.161   8.869 -0.2838 -0.0896 -0.0197
   27POPC   C3A  812   6.328   8.271   8.428  0.3024  0.0297 -0.1873
   27POPC   C4A  813   6.397   8.463   8.079  0.0352 -0.1012  0.3182
   27POPC   C1B  814   5.790   8.743   9.278  0.0415  0.3601 -0.0434
   27POPC   C2B  815   5.507   9.017   9.140 -0.1353  0.2062  0.3200
   27POPC   C3B  816   5.313   9.391   9.221  0.1916 -0.0519  0.2000
   27POPC   C4B  817   5.004   9.723   9.008 -0.0146 -0.1634  0.2471
   28POPC   NC3  818   9.696   4.250   8.229 -0.0887 -0.1408  0.1352
   28POPC   PO4  819  10.097   4.323   8.361  0.1179 -0.1853 -0.0998
   28POPC   GL1  820  10.219   4.438   8.029  0.2048 -0.0896 -0.2434
   28POPC   GL2  821  10.500   4.549   7.958 -0.2887  0.1770  0.1169
   28POPC   C1A  822  10.066   4.693   7.775 -0.0033 -0.3325 -0.0125
   28POPC   D2A  823   9.982   4.787   7.372  0.3789  0.0497  0.0555
   28POPC   C3A  824  10.120   4.565   7.000  0.0681  0.2141 -0.0288
   28POPC   C4A  825  10.276   4.152   6.694 -0.2333 -0.0072 -0.0408
   28POPC   C1B  826  10.593   4.962   7.935  0.0111 -0.2633 -0.0280
   28POPC   C2B  827  10.282   5.178   7.665  0.1593  0.2448 -0.1474
   28POPC   C3B  828   9.923   5.306   7.474  0.2520 -0.0604 -0.0903
   28POPC   C4B  829   9.560   5.504   7.496  0.0711 -0.1745 -0.0556
   29POPC   NC3  830  10.430   2.725   8.623  0.0626 -0.1559 -0.1974
   29POPC   PO4  831  10.709   2.305   8.809  0.2786 -0.1903  0.0953
   29POPC   GL1  832  10.609   2.302   8.374 -0.2294 -0.2064  0.0840
   29POPC   GL2  833  10.947   2.395   8.288  0.1619 -0.0298 -0.0866
   29POPC   C1A  834  10.528   1.986   8.158  0.4469  0.4532 -0.3361
   29POPC   D2A  835  10.419   1.893   7.669 -0.3124  0.2438 -0.0410
   29POPC   C3A  836  10.242   2.072   7.270  0.2503 -0.0014  0.0022
   29POPC   C4A  837  10.083   1.955   6.883 -0.0922  0.0814  0.2237
   29POPC   C1B  838  10.977   2.109   7.975  0.4399  0.0249 -0.2724
   29POPC   C2B  839  11.125   2.090   7.525 -0.2948 -0.1478  0.0302
   29POPC   C3B  840  11.210   2.017   7.037  0.0077 -0.0336 -0.1719
   29POPC   C4B  841  11.526   1.810   6.794  0.1131 -0.1515  0.0814
   30POPC   NC3  842   3.831   1.500   9.190  0.0895  0.4061 -0.1284
   30POPC   PO4  843   3.947   1.975   9.074  0.3234 -0.1348 -0.0559
   30POPC   GL1  844   3.966   1.578   8.693  0.1186 -0.5123 -0.2041
   30POPC   GL2  845   3.880   1.709   8.358 -0.0766  0.2707 -0.1295
   30POPC   C1A  846   4.054   1.248   8.319 -0.1914 -0.0616 -0.2980
   30POPC   D2A  847   3.884   1.091   7.992  0.1568  0.0744  0.1914
   30POPC   C3A  848   3.925   0.764   7.792  0.1873 -0.0113  0.1170
   30POPC   C4A  849   3.847   0.395   7.565  0.0522 -0.2000 -0.1512
   30POPC   C1B  850   4.216   1.611   8.021  0.1217  0.1043 -0.1630
   30POPC   C2B  851   4.312   1.583   7.613  0.2993 -0.2462  0.1828
   30POPC   C3B  852   4.108   1.596   7.169 -0.2692 -0.0014 -0.3057
   30POPC   C4B  853   4.168   2.034   7.124 -0.1847  0.0400 -0.0909
   31POPC   NC3  854  10.053   5.766   8.479  0.4032  0.1633 -0.1305
   31POPC   PO4  855   9.636   5.935   8.410  0.0195 -0.0422  0.1266
   31POPC   GL1  856   9.710   5.905   7.969 -0.2671  0.3270 -0.0625
   31POPC   GL2  857   9.878   5.662   8.002  0.0590 -0.1975 -0.0641
   31POPC   C1A  858   9.758   5.975   7.577  0.0419 -0.0680  0.3912
   31POPC   D2A  859   9.700   6.102   7.046  0.1397  0.3750 -0.4287
   31POPC   C3A  860   9.730   6.393   6.725  0.1384  0.1135  0.0951
   31POPC   C4A  861   9.803   6.474   6.346  0.1235 -0.0332  0.1873
   31POPC   C1B  862  10.230   5.674   7.587  0.1461 -0.1707  0.3198
   31POPC   C2B  863  10.563   5.797   7.158  0.0625  0.0544 -0.0789
   31POPC   C3B  864  10.506   5.623   6.743 -0.2618  0.0405 -0.1609
   31POPC   C4B  865  10.000   5.658   6.632 -0.0751 -0.0297  0.1499
   32POPC   NC3  866   2.496   5.107   9.330 -0.0699  0.0179  0.1387
   32POPC   PO4  867   2.158   5.175   8.969  0.0995 -0.4164 -0.1311
   32POPC   GL1  868   2.325   5.163   8.480 -0.2544  0.0790  0.4011
   32POPC   GL2  869   2.125   4.896   8.336  0.0096  0.0891 -0.1257
   32POPC   C1A  870   2.503   5.167   8.060 -0.2028 -0.2380  0.0201
   32POPC   D2A  871   2.574   5.399   7.675  0.2425 -0.2123  0.2729
   32POPC   C3A  872   3.010   5.477   7.439 -0.1553 -0.0898 -0.0081
   32POPC   C4A  873   3.266   5.739   7.202  0.1876 -0.0666 -0.0128
   32POPC   C1B  874   2.123   4.918   7.911 -0.0086  0.0562 -0.1436
   32POPC   C2B  875   2.084   5.148   7.520 -0.1698 -0.0859 -0.0994
   32POPC   C3B  876   2.038   5.369   7.094 -0.0515  0.2542  0.0605
   32POPC   C4B  877   1.894   5.722   7.016  0.0456  0.0917 -0.3945
   33POPC   NC3  878   3.421   7.697   9.544 -0.0673 -0.0448  0.2150
   33POPC   PO4  879   3.198   7.784   9.164 -0.0351  0.0899 -0.2313
   33POPC   GL1  880   3.291   7.818   8.710  0.1608  0.0196  0.1268
   33POPC   GL2  881   3.257   7.514   8.483  0.1525 -0.0995 -0.0329
   33POPC   C1A  882   3.442   7.940   8.433  0.2814  0.2276 -0.2931
   33POPC   D2A  883   3.692   8.221   8.141  0.1743 -0.0420 -0.1611
   33POPC   C3A  884   3.716   8.584   8.352 -0.2290 -0.4777 -0.2672
   33POPC   C4A  885   3.830   8.957   8.327  0.0405 -0.3016  0.0937
   33POPC   C1B  886   3.093   7.828   8.102 -0.0684  0.2243  0.2243
   33POPC   C2B  887   3.353   8.040   7.774 -0.0921 -0.2430  0.2191
   33POPC   C3B  888   3.659   8.266   7.578  0.0375  0.0390  0.2699
   33POPC   C4B  889   4.128   8.278   7.648 -0.2448 -0.1636  0.1162
   34POPC   NC3  890   3.011   3.519   9.115  0.0939  0.0061 -0.0534
   34POPC   PO4  891   3.380   3.535   8.851 -0.3806  0.2598 -0.0619
   34POPC   GL1  892   3.196   3.436   8.437 -0.0309  0.2161 -0.1188
   34POPC   GL2  893   3.086   3.817   8.334 -0.1375  0.1830  0.1974
   34POPC   C1A  894   3.138   3.340   7.942 -0.0956 -0.2233 -0.2459
   34POPC   D2A  895   3.359   3.512   7.605  0.0661  0.3889 -0.2943
   34POPC   C3A  896   3.642   3.305   7.345  0.3035 -0.0057  0.2533
   34POPC   C4A  897   3.894   2.918   7.059  0.2881 -0.0628  0.0538
   34POPC   C1B  898   2.991   3.846   7.918 -0.0190  0.1812  0.1808
   34POPC   C2B  899   2.972   3.905   7.460 -0.0075  0.1585  0.0385
   34POPC   C3B  900   3.146   3.938   6.981  0.0845  0.2315 -0.0971
   34POPC   C4B  901   3.021   3.648   6.574  0.1199 -0.0978  0.1107
   35POPC   NC3  902   6.240   4.263   8.501  0.1949  0.2307 -0.1785
   35POPC   PO4  903   6.435   3.931   8.731 -0.2046 -0.3723  0.5305
   35POPC   GL1  904   6.554   3.926   8.336 -0.2050 -0.4931  0.0248
   35POPC   GL2  905   6.598   4.223   8.094  0.1194  0.1868 -0.2337
   35POPC   C1A  906   6.614   3.731   7.927  0.4906  0.0235 -0.1504
   35POPC   D2A  907   6.451   3.667   7.620  0.2196 -0.1047  0.0369
   35POPC   C3A  908   6.614   3.409   7.411 -0.1271 -0.0912 -0.0329
   35POPC   C4A  909   6.900   3.063   7.405 -0.1245  0.0312  0.2155
   35POPC   C1B  910   6.442   4.162   7.704 -0.5606 -0.0867 -0.1177
   35POPC   C2B  911   6.644   4.419   7.436  0.0019  0.2970  0.2233
   35POPC   C3B  912   6.658   4.682   6.920 -0.2345  0.0221  0.0229
   35POPC   C4B  913   6.750   4.884   6.536  0.0332  0.2145 -0.2016
   36POPC   NC3  914   1.025  10.045   8.795 -0.3810  0.2167  0.2083
   36POPC   PO4  915   0.849   9.653   8.633  0.0509 -0.0990  0.2228
   36POPC   GL1  916   0.816   9.516   8.247  0.2744  0.1399 -0.3285
   36POPC   GL2  917   1.075   9.171   8.237  0.0406  0.0490 -0.1781
   36POPC   C1A  918   0.727   9.642   7.836  0.0783  0.0866 -0.1985
   36POPC   D2A  919   0.664   9.454   7.480 -0.0401  0.0689 -0.0241
   36POPC   C3A  920   0.234   9.520   7.380  0.1463 -0.2064 -0.2818
   36POPC   C4A  921  -0.006   9.796   7.192  0.0872  0.0210  0.1168
   36POPC   C1B  922   0.802   8.914   8.368  0.0352  0.0856  0.2033
   36POPC   C2B  923   0.445   8.584   8.199  0.0764 -0.0384  0.0733
   36POPC   C3B  924   0.339   8.617   7.861 -0.0746 -0.0554  0.1316
   36POPC   C4B  925   0.655   8.633   7.479 -0.0483  0.0199  0.0421
   37POPC   NC3  926   8.320   8.331   9.878 -0.0227 -0.1845  0.0021
   37POPC   PO4  927   8.740   8.243   9.648  0.0840  0.1559  0.2537
   37POPC   GL1  928   8.442   8.323   9.289  0.0461 -0.1552 -0.1957
   37POPC   GL2  929   8.441   8.478   9.074 -0.1044  0.2287 -0.0261
   37POPC   C1A  930   8.026   8.180   8.951 -0.0505  0.4868  0.1974
   37POPC   D2A  931   7.583   8.144   8.774 -0.2209 -0.1680 -0.2655
   37POPC   C3A  932   7.494   8.126   8.342  0.2065  0.2913  0.3295
   37POPC   C4A  933   7.265   7.773   8.021  0.2650  0.0310 -0.1844
   37POPC   C1B  934   8.396   8.384   8.669  0.0573 -0.0732  0.1865
   37POPC   C2B  935   8.678   8.116   8.373 -0.1064  0.1746  0.0388
   37POPC   C3B  936   8.813   7.884   8.032 -0.0722 -0.1147  0.1899
   37POPC   C4B  937   8.864   7.671   7.573  0.0711 -0.0999 -0.1346
   38POPC   NC3  938   1.094   7.300   9.331 -0.0197  0.2604  0.0067
   38POPC   PO4  939   1.107   7.439   8.901  0.3425  0.1270  0.0049
   38POPC   GL1  940   1.060   7.368   8.508  0.1436 -0.0751  0.2360
   38POPC   GL2  941   0.789   7.605   8.384 -0.0325  0.0761  0.3742
   38POPC   C1A  942   1.258   7.404   8.068 -0.1119  0.2614  0.1081
   38POPC   D2A  943   1.313   7.488   7.618 -0.3423  0.0472  0.2066
   38POPC   C3A  944   1.542   7.174   7.361 -0.1617  0.0977  0.1092
   38POPC   C4A  945   1.751   6.788   7.083  0.0746 -0.2973  0.2994
   38POPC   C1B  946   0.708   7.258   8.014 -0.1970  0.0170 -0.2732
   38POPC   C2B  947   0.494   7.317   7.647 -0.0652 -0.2732  0.5648
   38POPC   C3B  948   0.431   7.325   7.221  0.3374 -0.3696  0.0892
   38POPC   C4B  949   0.628   7.681   6.906 -0.0844 -0.0896 -0.0020
   39POPC   NC3  950   4.167   1.992   9.603 -0.1713  0.0015 -0.0496
   39POPC   PO4  951   4.328   1.634   9.346 -0.2008  0.0480  0.1946
   39POPC   GL1  952   4.325   1.352   8.944  0.0067 -0.0877 -0.0371
   39POPC   GL2  953   4.613   1.286   8.843 -0.0809 -0.4379 -0.2153
   39POPC   C1A  954   4.165   1.017   8.744 -0.1694 -0.1558 -0.2361
   39POPC   D2A  955   4.178   0.629   8.632  0.1057  0.0261  0.0620
   39POPC   C3A  956   4.612   0.560   8.536 -0.2381 -0.0035  0.1051
   39POPC   C4A  957   4.913   0.863   8.698 -0.0840 -0.0307 -0.0721
   39POPC   C1B  958   4.507   1.554   8.453 -0.0444  0.1772 -0.0914
   39POPC   C2B  959   4.702   1.786   8.107 -0.0172 -0.1188 -0.0650
   39POPC   C3B  960   5.001   1.665   7.771 -0.4574  0.0914 -0.2129
   39POPC   C4B  961   5.375   1.408   7.497  0.0687  0.1673 -0.3117
   40POPC   NC3  962   7.666   1.365   8.932 -0.2627 -0.2811 -0.3548
   40POPC   PO4  963   7.748   0.939   9.199  0.2397 -0.3745  0.0302
   40POPC   GL1  964   7.771   0.794   8.736  0.3448 -0.1549  0.0193
   40POPC   GL2  965   8.032   0.746   8.507 -0.0055 -0.0014  0.2232
   40POPC   C1A  966   7.639   0.917   8.327 -0.0851 -0.1707  0.2507
   40POPC   D2A  967   7.708   0.753   7.963 -0.3500 -0.0837 -0.3084
   40POPC   C3A  968   7.398   0.909   7.734  0.3650  0.0563  0.0329
   40POPC   C4A  969   6.999   0.951   7.661  0.1069 -0.2165  0.1306
   40POPC   C1B  970   8.084   0.544   8.123 -0.0859  0.0536 -0.1138
   40POPC   C2B  971   8.090   0.373   7.701  0.1053 -0.4235  0.1138
   40POPC   C3B  972   8.113  -0.054   7.449  0.2591 -0.0449 -0.0584
   40POPC   C4B  973   8.335  -0.317   7.062  0.2624  0.0206 -0.2855
   41POPC   NC3  974   4.818   9.049  10.655 -0.1643  0.1136 -0.2988
   41POPC   PO4  975   4.742   9.218  10.202  0.1293 -0.0498 -0.3921
   41POPC   GL1  976   4.865   9.281   9.921  0.2637  0.2291  0.0071
   41POPC   GL2  977   4.726   9.584   9.807 -0.1919 -0.0943 -0.0138
   41POPC   C1A  978   5.157   9.593   9.620 -0.4457 -0.2502  0.1819
   41POPC   D2A  979   5.335   9.907   9.295 -0.2691 -0.1910 -0.4178
   41POPC   C3A  980   5.528   9.843   8.945  0.3688 -0.0925  0.0296
   41POPC   C4A  981   5.403   9.401   8.759 -0.4030 -0.0340 -0.0996
   41POPC   C1B  982   4.766   9.441   9.421  0.0428 -0.1164  0.3862
   41POPC   C2B  983   4.839   9.181   9.090  0.0392  0.1740 -0.1880
   41POPC   C3B  984   5.121   8.965   8.834  0.1975  0.3486 -0.0304
   41POPC   C4B  985   5.147   9.032   8.454 -0.0147 -0.2500  0.3564
   42POPC   NC3  986   9.756   8.106   8.843  0.2255 -0.0598  0.0973
   42POPC   PO4  987   9.715   7.811   8.574  0.0705  0.1414 -0.3021
   42POPC   GL1  988   9.406   8.036   8.209 -0.0275 -0.2921 -0.1883
   42POPC   GL2  989   9.177   8.142   8.344  0.3059 -0.4855  0.2077
   42POPC   C1A  990   9.286   8.088   7.749 -0.1669  0.1581 -0.2945
   42POPC   D2A  991   8.924   8.203   7.634 -0.1653  0.1721  0.1019
   42POPC   C3A  992   8.792   8.068   7.275  0.2240  0.0530  0.0764
   42POPC   C4A  993   8.628   7.906   6.878 -0.0026  0.2092 -0.0838
   42POPC   C1B  994   9.188   8.625   8.268 -0.1458  0.1478 -0.2190
   42POPC   C2B  995   9.049   8.683   7.910  0.2446  0.1091  0.0580
   42POPC   C3B  996   8.722   8.804   7.655 -0.0262 -0.0356 -0.2195
   42POPC   C4B  997   8.559   8.501   7.311 -0.1220 -0.3577  0.0604
   43POPC   NC3  998   2.950   2.455   8.462  0.0423  0.0191 -0.4050
   43POPC   PO4  999   3.365   2.545   8.576 -0.1891 -0.2383 -0.0432
   43POPC   GL1 1000   3.401   2.464   8.122 -0.0045 -0.2867 -0.0315
   43POPC   GL2 1001   3.475   2.784   7.977  0.2408 -0.2061  0.0058
   43POPC   C1A 1002   3.386   2.377   7.691  0.3529 -0.1411 -0.1236
   43POPC   D2A 1003   3.202   2.329   7.297 -0.3124  0.0377  0.3657
   43POPC   C3A 1004   2.977   2.592   7.083  0.0515 -0.3570 -0.0108
   43POPC   C4A 1005   3.071   2.743   6.688 -0.2372 -0.1414  0.0852
   43POPC   C1B 1006   3.051   2.783   7.844 -0.1709  0.1254  0.2723
   43POPC   C2B 1007   2.764   2.411   7.699  0.1252  0.0120  0.0011
   43POPC   C3B 1008   2.656   2.186   7.299  0.2626 -0.0572 -0.3952
   43POPC   C4B 1009   2.632   1.820   7.052  0.0105  0.0210 -0.0987
   44POPC   NC3 1010   9.686   1.441   8.601  0.3151 -0.2806  0.1229
   44POPC   PO4 1011   9.498   1.813   8.727 -0.1074 -0.0832  0.2225
   44POPC   GL1 1012   9.361   1.565   8.291 -0.1268 -0.1886  0.2194
   44POPC   GL2 1013   9.301   1.235   8.338 -0.3082 -0.1444 -0.2067
   44POPC   C1A 1014   9.442   1.356   7.906 -0.2494  0.0623  0.1840
   44POPC   D2A 1015   9.374   1.433   7.430 -0.0416 -0.0681 -0.0110
   44POPC   C3A 1016   9.132   1.615   7.056 -0.0840  0.1926 -0.1438
   44POPC   C4A 1017   8.935   1.430   6.761  0.3141 -0.1152  0.1047
   44POPC   C1B 1018   8.956   1.216   8.013  0.4038 -0.0280  0.0874
   44POPC   C2B 1019   8.555   1.086   7.666  0.0385 -0.0516 -0.1779
   44POPC   C3B 1020   8.656   0.795   7.325 -0.2710 -0.1140 -0.3231
   44POPC   C4B 1021   8.924   0.506   7.540  0.2142  0.0443 -0.0906
   45POPC   NC3 1022   0.702   0.146   9.252  0.0993  0.3140 -0.3883
   45POPC   PO4 1023   0.687   0.004   8.874 -0.0661  0.0852  0.1329
   45POPC   GL1 1024   0.647   0.059   8.538 -0.0466 -0.0544  0.0760
   45POPC   GL2 1025   0.255  -0.037   8.559 -0.1962 -0.0139  0.0532
   45POPC   C1A 1026   0.853   0.039   8.145 -0.1170  0.0054  0.2071
   45POPC   D2A 1027   0.729  -0.161   7.859  0.1112 -0.0299 -0.3156
   45POPC   C3A 1028   0.509   0.006   7.569 -0.2680  0.2137 -0.0390
   45POPC   C4A 1029   0.632   0.355   7.319  0.1722 -0.1404  0.0317
   45POPC   C1B 1030   0.318   0.119   8.137 -0.2084  0.2758 -0.3044
   45POPC   C2B 1031   0.664   0.362   7.861  0.2879 -0.1687 -0.1399
   45POPC   C3B 1032   0.599   0.711   7.695  0.2249 -0.4219  0.2415
   45POPC   C4B 1033   0.266   1.040   7.610 -0.0858 -0.1813  0.0252
   46POPC   NC3 1034   3.056   8.714   9.372 -0.0711  0.0197 -0.1058
   46POPC   PO4 1035   2.828   8.982   9.039  0.2413  0.2228 -0.5981
   46POPC   GL1 1036   2.981   8.867   8.599  0.0781  0.2041 -0.1647
   46POPC   GL2 1037   2.692   8.823   8.256 -0.3234  0.0297  0.1987
   46POPC   C1A 1038   3.191   8.976   8.206 -0.2152 -0.2050 -0.2019
   46POPC   D2A 1039   3.514   9.260   7.961 -0.2213  0.1574 -0.0912
   46POPC   C3A 1040   3.460   9.547   7.660  0.0301 -0.0037  0.4583
   46POPC   C4A 1041   3.549   9.929   7.624  0.0767 -0.0896  0.1619
   46POPC   C1B 1042   2.775   8.698   7.829 -0.0745 -0.1735  0.2184
   46POPC   C2B 1043   3.018   8.585   7.439 -0.1189  0.1017 -0.0176
   46POPC   C3B 1044   3.411   8.534   7.124  0.1616  0.0619 -0.3726
   46POPC   C4B 1045   3.743   8.631   7.288 -0.2002  0.2144 -0.1033
   47POPC   NC3 1046   8.856   2.495   8.699 -0.3878  0.2521  0.1695
   47POPC   PO4 1047   8.512   2.827   8.563 -0.2838  0.0169  0.0645
   47POPC   GL1 1048   8.260   3.076   8.222 -0.0113 -0.0835  0.1928
   47POPC   GL2 1049   8.056   3.359   8.210 -0.1853  0.0758 -0.1763
   47POPC   C1A 1050   8.197   3.131   7.843  0.2836  0.1237  0.1649
   47POPC   D2A 1051   8.008   3.306   7.503 -0.0612  0.2641  0.0196
   47POPC   C3A 1052   7.985   3.797   7.424  0.0306  0.0776 -0.1022
   47POPC   C4A 1053   7.886   3.883   7.083  0.0705  0.0630 -0.0463
   47POPC   C1B 1054   7.940   3.718   7.954 -0.1377 -0.0975 -0.0068
   47POPC   C2B 1055   7.998   4.081   7.841 -0.2694  0.0900  0.0641
   47POPC   C3B 1056   8.332   4.284   7.601 -0.3816 -0.1114 -0.4542
   47POPC   C4B 1057   8.558   4.667   7.279 -0.0059 -0.1930 -0.4507
   48POPC   NC3 1058   1.300   6.153   9.026 -0.1471  0.2261  0.0443
   48POPC   PO4 1059   0.947   5.942   8.886  0.2738  0.0244  0.1254
   48POPC   GL1 1060   0.983   5.886   8.395 -0.2387  0.2483  0.1858
   48POPC   GL2 1061   0.708   6.145   8.460 -0.1520 -0.0726 -0.0079
   48POPC   C1A 1062   1.142   5.963   7.934 -0.0725 -0.2278  0.2051
   48POPC   D2A 1063   1.403   6.165   7.703  0.0033  0.3296  0.2317
   48POPC   C3A 1064   1.828   6.077   7.490 -0.0303  0.2919  0.2059
   48POPC   C4A 1065   2.248   6.117   7.763  0.0269 -0.1865 -0.1142
   48POPC   C1B 1066   0.943   6.379   8.240 -0.0203 -0.1642 -0.1647
   48POPC   C2B 1067   1.211   6.515   7.876  0.0898 -0.2530  0.0741
   48POPC   C3B 1068   1.556   6.620   7.603 -0.0295  0.0851  0.3546
   48POPC   C4B 1069   1.527   6.413   7.309  0.0596 -0.1145 -0.4058
   49POPC   NC3 1070   5.509   9.467  10.407  0.1296 -0.2146  0.0060
   49POPC   PO4 1071   5.195   9.121  10.408 -0.0160 -0.2639 -0.1306
   49POPC   GL1 1072   5.164   8.889   9.987  0.2180  0.0079 -0.1746
   49POPC   GL2 1073   5.329   8.632   9.862 -0.1252  0.0696  0.0401
   49POPC   C1A 1074   5.058   8.918   9.519 -0.2903  0.1907 -0.4313
   49POPC   D2A 1075   4.821   8.685   9.152  0.3919 -0.0406 -0.2059
   49POPC   C3A 1076   4.780   8.606   8.684 -0.0706 -0.1583  0.2469
   49POPC   C4A 1077   4.670   8.965   8.401 -0.1374  0.1640  0.0338
   49POPC   C1B 1078   5.542   8.946   9.636 -0.1602 -0.0759 -0.1477
   49POPC   C2B 1079   5.964   9.151   9.534 -0.0629  0.0545 -0.1810
   49POPC   C3B 1080   6.094   9.535   9.716 -0.0806  0.0904 -0.1619
   49POPC   C4B 1081   6.049   9.974   9.570 -0.0805 -0.2914  0.0705
   50POPC   NC3 1082   8.218   0.220   9.764  0.2391  0.2564  0.0904
   50POPC   PO4 1083   7.888   0.100   9.544 -0.2377  0.3129  0.0036
   50POPC   GL1 1084   7.881  -0.140   9.144 -0.0108 -0.3167  0.0562
   50POPC   GL2 1085   8.104   0.016   8.947  0.0026  0.1342 -0.2263
   50POPC   C1A 1086   7.592  -0.116   8.779  0.2376  0.1613 -0.1206
   50POPC   D2A 1087   7.328  -0.330   8.482  0.0680 -0.2924 -0.2215
   50POPC   C3A 1088   7.689  -0.533   8.335 -0.0077  0.0277 -0.2432
   50POPC   C4A 1089   7.708  -0.703   7.876  0.1934 -0.2906  0.0141
   50POPC   C1B 1090   7.825   0.310   8.527 -0.0164 -0.0175 -0.3457
   50POPC   C2B 1091   7.409   0.381   8.482 -0.2323  0.0955  0.0550
   50POPC   C3B 1092   7.083   0.117   8.413 -0.4222 -0.0185  0.1455
   50POPC   C4B 1093   6.835  -0.195   8.713  0.0448  0.1843  0.2290
   51POPC   NC3 1094   8.774   3.306   8.645  0.1320 -0.0959 -0.1508
   51POPC   PO4 1095   9.062   2.950   8.739  0.1286  0.1090 -0.1659
   51POPC   GL1 1096   8.978   2.721   8.258  0.0538 -0.0304  0.2417
   51POPC   GL2 1097   8.734   2.859   8.063  0.0097 -0.0381  0.2888
   51POPC   C1A 1098   8.898   2.367   7.978 -0.0200 -0.3267 -0.1973
   51POPC   D2A 1099   9.061   2.186   7.677 -0.1165  0.0106  0.0338
   51POPC   C3A 1100   9.502   2.322   7.558 -0.0000  0.2559 -0.4820
   51POPC   C4A 1101   9.948   2.350   7.704 -0.1838  0.0631 -0.0620
   51POPC   C1B 1102   8.759   2.726   7.686  0.3679  0.0211 -0.2110
   51POPC   C2B 1103   9.092   2.584   7.352 -0.1171  0.0284  0.0932
   51POPC   C3B 1104   9.452   2.527   7.111 -0.0310  0.1046 -0.1673
   51POPC   C4B 1105   9.767   2.277   7.177  0.0959 -0.0754 -0.2428
   52POPC   NC3 1106  10.339   7.166   9.397 -0.3081  0.1974  0.1672
   52POPC   PO4 1107  10.146   7.059   9.049  0.1399 -0.0151  0.1306
   52POPC   GL1 1108  10.159   7.243   8.505 -0.0524 -0.2652  0.0352
   52POPC   GL2 1109   9.954   7.216   8.388  0.2936  0.0981 -0.2971
   52POPC   C1A 1110  10.328   7.512   8.121  0.0932 -0.2394 -0.0339
   52POPC   D2A 1111  10.736   7.653   7.940 -0.0404  0.3042 -0.0512
   52POPC   C3A 1112  10.657   7.750   7.475  0.1883 -0.2447 -0.0137
   52POPC   C4A 1113  10.643   7.838   7.040  0.2392  0.1064 -0.0135
   52POPC   C1B 1114   9.779   7.562   8.060  0.3127  0.1192 -0.0595
   52POPC   C2B 1115   9.581   7.533   7.657 -0.2129 -0.4248  0.0619
   52POPC   C3B 1116   9.799   7.487   7.261  0.1911  0.0676 -0.0740
   52POPC   C4B 1117  10.198   7.472   7.282 -0.1216 -0.1539 -0.0224
   53POPC   NC3 1118  10.042   0.763   9.080 -0.4214  0.0259 -0.0378
   53POPC   PO4 1119   9.853   1.051   8.813 -0.2636 -0.1262  0.0656
   53POPC   GL1 1120  10.036   1.079   8.339 -0.1771 -0.1718  0.0284
   53POPC   GL2 1121  10.053   0.775   8.091 -0.2724 -0.0402 -0.0672
   53POPC   C1A 1122   9.950   1.246   7.945 -0.2905 -0.0877  0.0745
   53POPC   D2A 1123   9.973   1.278   7.448 -0.2424  0.0304 -0.0348
   53POPC   C3A 1124  10.246   1.589   7.178 -0.3100  0.2588 -0.1266
   53POPC   C4A 1125  10.630   1.787   7.045 -0.0956  0.2556 -0.3227
   53POPC   C1B 1126  10.279   0.834   7.681 -0.0774  0.4623  0.2065
   53POPC   C2B 1127  10.190   0.561   7.266  0.1991 -0.2390 -0.0345
   53POPC   C3B 1128  10.236   0.251   6.918 -0.2911  0.1170  0.0600
   53POPC   C4B 1129  10.462   0.347   6.532  0.2425  0.1376  0.2791
   54POPC   NC3 1130   1.129   5.298   8.827  0.0408 -0.0370  0.3739
   54POPC   PO4 1131   1.326   4.909   8.716  0.2085  0.0861 -0.2646
   54POPC   GL1 1132   1.606   4.698   8.422  0.3426  0.3314 -0.0123
   54POPC   GL2 1133   1.375   4.751   8.211 -0.2576  0.2661 -0.2441
   54POPC   C1A 1134   1.802   4.558   7.980  0.0227  0.0312  0.0140
   54POPC   D2A 1135   1.795   4.640   7.524 -0.0891 -0.0948 -0.0646
   54POPC   C3A 1136   1.975   4.845   7.127  0.0530 -0.1966 -0.1358
   54POPC   C4A 1137   2.032   4.877   6.715  0.0347 -0.3360 -0.0370
   54POPC   C1B 1138   1.650   5.085   8.132 -0.5375 -0.1416 -0.3324
   54POPC   C2B 1139   1.882   5.348   8.001  0.2546 -0.0603 -0.0081
   54POPC   C3B 1140   2.028   5.618   7.662 -0.1252  0.0959  0.5402
   54POPC   C4B 1141   2.367   5.725   7.372 -0.3960 -0.1261  0.0362
   55POPC   NC3 1142  10.207   9.355   9.269 -0.0302  0.0437  0.1963
   55POPC   PO4 1143   9.854   9.510   9.191  0.2443  0.2325 -0.2766
   55POPC   GL1 1144   9.711   9.571   8.766  0.2978  0.0443 -0.0063
   55POPC   GL2 1145   9.713   9.866   8.733 -0.0276 -0.1870  0.4961
   55POPC   C1A 1146   9.430   9.602   8.353 -0.1050 -0.1025  0.2870
   55POPC   D2A 1147   9.422   9.495   7.912 -0.1050  0.0426  0.1016
   55POPC   C3A 1148   9.253   9.738   7.696  0.1044  0.1657  0.4306
   55POPC   C4A 1149   8.901   9.580   7.403 -0.2900  0.0795  0.3209
   55POPC   C1B 1150   9.866   9.860   8.290 -0.0013 -0.0143 -0.0034
   55POPC   C2B 1151   9.999   9.637   7.873  0.1582  0.1034 -0.0705
   55POPC   C3B 1152  10.121   9.582   7.436 -0.0575 -0.3553  0.1387
   55POPC   C4B 1153  10.355   9.195   7.201 -0.0591 -0.2143 -0.3174
   56POPC   NC3 1154   8.615   9.788   9.435  0.1103 -0.0751 -0.1486
   56POPC   PO4 1155   8.986   9.896   9.517 -0.3423  0.1514  0.2223
   56POPC   GL1 1156   8.872   9.877   9.049 -0.0758  0.3732  0.0418
   56POPC   GL2 1157   9.224   9.951   8.770  0.2740  0.0279 -0.0483
   56POPC   C1A 1158   8.587   9.851   8.681 -0.0711 -0.1168 -0.1783
   56POPC   D2A 1159   8.414   9.775   8.237  0.1569 -0.0239  0.0424
   56POPC   C3A 1160   8.142  10.027   7.998  0.2183 -0.0427  0.2340
   56POPC   C4A 1161   7.804  10.294   7.784 -0.1193  0.2155 -0.1786
   56POPC   C1B 1162   8.877  10.107   8.303  0.0792 -0.0176 -0.1322
   56POPC   C2B 1163   8.774  10.051   7.932 -0.2558 -0.2850 -0.1144
   56POPC   C3B 1164   8.571   9.967   7.490  0.2802  0.0287 -0.3156
   56POPC   C4B 1165   8.068   9.868   7.480 -0.0201  0.2211 -0.1964
   57POPC   NC3 1166   2.305   2.427   8.470 -0.1640  0.3130  0.1408
   57POPC   PO4 1167   1.881   2.212   8.502  0.0617  0.2593  0.0812
   57POPC   GL1 1168   1.805   2.114   8.050 -0.0737 -0.0875  0.1817
   57POPC   GL2 1169   2.154   2.192   8.034 -0.1516  0.0443  0.0230
   57POPC   C1A 1170   1.797   2.270   7.706  0.1887  0.0687  0.0601
   57POPC   D2A 1171   1.542   2.201   7.385 -0.2119 -0.1555 -0.4134
   57POPC   C3A 1172   1.489   1.962   6.995  0.0347  0.0628 -0.4019
   57POPC   C4A 1173   1.365   2.112   6.581  0.3397 -0.1405  0.0412
   57POPC   C1B 1174   2.313   2.124   7.677 -0.1373 -0.0204  0.1706
   57POPC   C2B 1175   2.186   2.094   7.205 -0.0597 -0.1642 -0.4669
   57POPC   C3B 1176   2.249   2.121   6.780  0.0796  0.3645 -0.1968
   57POPC   C4B 1177   2.174   1.967   6.344 -0.2508  0.0228 -0.3524
   58POPC   NC3 1178   7.689   4.626   8.473 -0.1921  0.0363  0.2096
   58POPC   PO4 1179   7.442   4.993   8.395 -0.1611 -0.1193 -0.1151
   58POPC   GL1 1180   7.402   4.798   8.041  0.1619 -0.0788 -0.2068
   58POPC   GL2 1181   7.283   5.019   7.911 -0.0020  0.0404  0.1257
   58POPC   C1A 1182   7.527   4.681   7.606  0.1795 -0.2750 -0.1960
   58POPC   D2A 1183   7.944   4.608   7.439  0.3326 -0.0948  0.1937
   58POPC   C3A 1184   8.095   4.823   7.078 -0.0928 -0.1560  0.3224
   58POPC   C4A 1185   8.142   5.064   6.768 -0.1164  0.0736  0.0127
   58POPC   C1B 1186   7.276   5.160   7.428  0.2814 -0.1074 -0.0143
   58POPC   C2B 1187   6.943   5.133   7.099  0.2448  0.1575 -0.2237
   58POPC   C3B 1188   6.537   5.228   6.815  0.0023  0.1518  0.1848
   58POPC   C4B 1189   6.368   5.570   6.732  0.0962 -0.2731 -0.0815
   59POPC   NC3 1190   0.390   6.611   8.707  0.2154 -0.2260  0.0332
   59POPC   PO4 1191   0.118   6.832   9.049  0.2904  0.3642 -0.1016
   59POPC   GL1 1192   0.228   7.101   8.650  0.1557  0.1910  0.1797
   59POPC   GL2 1193   0.550   7.137   8.541  0.1220 -0.0016  0.3056
   59POPC   C1A 1194   0.193   7.134   8.159  0.2187 -0.0765 -0.2215
   59POPC   D2A 1195   0.004   7.216   7.781 -0.1230  0.2745  0.0236
   59POPC   C3A 1196   0.035   6.969   7.453  0.2299  0.1528  0.3047
   59POPC   C4A 1197   0.136   6.997   7.013  0.2093  0.2703 -0.1832
   59POPC   C1B 1198   0.630   6.780   8.107  0.2443 -0.0655 -0.0224
   59POPC   C2B 1199   0.814   6.882   7.677 -0.0471  0.0701  0.0925
   59POPC   C3B 1200   0.969   7.164   7.369  0.3118 -0.1571  0.2062
   59POPC   C4B 1201   1.037   7.435   6.915  0.1317  0.1563 -0.0175
   60POPC   NC3 1202   7.601   2.501   8.813 -0.2450 -0.3609 -0.0364
   60POPC   PO4 1203   7.405   2.826   8.673  0.1437 -0.0248 -0.2700
   60POPC   GL1 1204   7.304   2.529   8.484 -0.0087 -0.0488 -0.2531
   60POPC   GL2 1205   7.481   2.270   8.342  0.0997 -0.0483 -0.3573
   60POPC   C1A 1206   7.082   2.428   8.093  0.0116 -0.3374 -0.1487
   60POPC   D2A 1207   7.071   2.819   7.812  0.2019  0.1082  0.1876
   60POPC   C3A 1208   7.442   2.901   7.574 -0.1106  0.1409 -0.0394
   60POPC   C4A 1209   7.652   3.152   7.856 -0.2509 -0.0963  0.0918
   60POPC   C1B 1210   7.361   1.961   8.021 -0.0077  0.1223  0.0159
   60POPC   C2B 1211   7.079   1.973   7.647 -0.3653  0.3405 -0.1495
   60POPC   C3B 1212   6.946   2.095   7.139 -0.1317  0.2166  0.0399
   60POPC   C4B 1213   6.695   2.080   6.759 -0.1655  0.0968 -0.0913
   61POPC   NC3 1214   4.974   6.560   9.122  0.2642  0.0772  0.4047
   61POPC   PO4 1215   5.368   6.298   9.041 -0.2093  0.2848 -0.1042
   61POPC   GL1 1216   5.419   6.500   8.713  0.1268  0.3067  0.0362
   61POPC   GL2 1217   5.647   6.753   8.785  0.3654 -0.3652  0.0905
   61POPC   C1A 1218   5.231   6.655   8.279 -0.4652 -0.0790  0.1123
   61POPC   D2A 1219   5.206   7.012   8.021 -0.1528 -0.1615  0.0511
   61POPC   C3A 1220   5.245   7.244   8.326 -0.2665 -0.2699  0.1416
   61POPC   C4A 1221   5.615   7.513   8.355  0.1325 -0.2290 -0.1796
   61POPC   C1B 1222   5.631   6.952   8.452  0.1976  0.0901 -0.2888
   61POPC   C2B 1223   5.737   6.866   8.019 -0.3119  0.2266 -0.0842
   61POPC   C3B 1224   5.869   6.498   7.842  0.0740  0.0643 -0.2697
   61POPC   C4B 1225   6.152   6.182   7.968 -0.1879 -0.1612  0.3225
   62POPC   NC3 1226   8.213   5.440   8.385  0.2054 -0.0913  0.1607
   62POPC   PO4 1227   8.201   5.838   8.357  0.1923 -0.0099 -0.2333
   62POPC   GL1 1228   7.899   5.727   8.082 -0.0932  0.2179  0.2236
   62POPC   GL2 1229   7.691   5.937   7.968  0.0534 -0.0181  0.1839
   62POPC   C1A 1230   7.925   5.600   7.554  0.2098 -0.0925  0.1264
   62POPC   D2A 1231   7.838   5.769   7.109 -0.0337 -0.2308  0.3186
   62POPC   C3A 1232   7.654   6.031   6.729 -0.1684  0.0668 -0.0802
   62POPC   C4A 1233   7.701   6.392   6.618  0.1564  0.1254 -0.0526
   62POPC   C1B 1234   7.605   6.033   7.612  0.1904 -0.1766  0.2714
   62POPC   C2B 1235   7.546   6.141   7.221  0.1090 -0.2586  0.0774
   62POPC   C3B 1236   7.192   6.282   6.997 -0.2404  0.0729 -0.0318
   62POPC   C4B 1237   7.047   6.313   6.647 -0.1526 -0.3309 -0.0547
   63POPC   NC3 1238  10.164   9.858   9.096 -0.7347 -0.2007 -0.3198
   63POPC   PO4 1239  10.010  10.213   8.919  0.1019 -0.0582 -0.0511
   63POPC   GL1 1240  10.194  10.065   8.608  0.2902  0.1776 -0.0154
   63POPC   GL2 1241  10.248  10.349   8.373 -0.2602  0.0465  0.0016
   63POPC   C1A 1242  10.396   9.721   8.213 -0.1283  0.0970  0.3002
   63POPC   D2A 1243  10.767   9.614   8.114  0.3327 -0.1249 -0.0253
   63POPC   C3A 1244  10.773  10.076   8.084  0.0186 -0.0870 -0.2596
   63POPC   C4A 1245  10.556  10.421   7.760  0.1404  0.0087  0.0523
   63POPC   C1B 1246  10.189  10.150   7.936 -0.3729  0.2798 -0.0896
   63POPC   C2B 1247  10.122  10.127   7.454  0.0442  0.1686  0.0010
   63POPC   C3B 1248   9.891  10.263   7.008  0.1630 -0.2533  0.1007
   63POPC   C4B 1249   9.518  10.292   6.965 -0.0482 -0.1344 -0.2978
   64POPC   NC3 1250   3.955   4.533   9.207 -0.1454  0.2845 -0.0347
   64POPC   PO4 1251   3.943   4.549   8.734  0.0833  0.4956 -0.0716
   64POPC   GL1 1252   3.856   4.481   8.268  0.3302  0.1279  0.0263
   64POPC   GL2 1253   3.593   4.214   8.158  0.2625 -0.1289 -0.1946
   64POPC   C1A 1254   3.791   4.609   7.858 -0.0168 -0.1684 -0.2487
   64POPC   D2A 1255   3.582   4.562   7.545 -0.2992 -0.2081 -0.1622
   64POPC   C3A 1256   3.787   4.324   7.210  0.0212 -0.1964  0.2143
   64POPC   C4A 1257   3.650   4.103   6.755  0.2758 -0.1617 -0.2119
   64POPC   C1B 1258   3.534   3.800   8.040 -0.1399 -0.1037  0.1870
   64POPC   C2B 1259   3.625   3.290   8.042 -0.2740 -0.2226  0.0722
   64POPC   C3B 1260   3.978   2.973   8.084  0.3979  0.1939 -0.0010
   64POPC   C4B 1261   4.039   2.571   7.914 -0.1086  0.1948 -0.0290
   65POPC   NC3 1262   4.899   4.055   8.883  0.2566 -0.4157  0.1675
   65POPC   PO4 1263   4.735   4.429   8.684  0.4042 -0.4469 -0.1615
   65POPC   GL1 1264   4.795   4.268   8.251 -0.1454  0.2808 -0.2607
   65POPC   GL2 1265   4.795   3.903   8.285  0.1409  0.2374 -0.2186
   65POPC   C1A 1266   4.675   4.105   7.781  0.1007  0.0733  0.1679
   65POPC   D2A 1267   4.562   3.731   7.475 -0.3187  0.3828  0.1840
   65POPC   C3A 1268   4.682   3.460   7.157 -0.2014  0.0019 -0.2334
   65POPC   C4A 1269   4.628   3.358   6.745 -0.2864 -0.0390 -0.3529
   65POPC   C1B 1270   4.694   3.590   7.947  0.3976 -0.1958 -0.0304
   65POPC   C2B 1271   4.732   3.205   7.751  0.0076 -0.0796  0.1334
   65POPC   C3B 1272   4.773   3.026   7.339  0.0925  0.1838 -0.2353
   65POPC   C4B 1273   4.575   2.889   7.004  0.0410 -0.0893  0.0373
   66POPC   NC3 1274   8.649   6.234   8.630  0.3144  0.2627  0.4731
   66POPC   PO4 1275   8.672   6.076   8.331 -0.0203 -0.1323  0.1407
   66POPC   GL1 1276   8.439   6.246   8.012 -0.0977 -0.0436 -0.0357
   66POPC   GL2 1277   8.272   5.981   7.822 -0.1777 -0.0539 -0.1503
   66POPC   C1A 1278   8.351   6.447   7.612  0.2155  0.1074  0.1568
   66POPC   D2A 1279   8.341   6.590   7.208 -0.2604 -0.0480  0.0112
   66POPC   C3A 1280   8.488   7.006   6.976 -0.2101 -0.1776 -0.0577
   66POPC   C4A 1281   8.441   7.424   6.782 -0.0065 -0.1975  0.2144
   66POPC   C1B 1282   8.077   6.115   7.340 -0.4950  0.1388 -0.2544
   66POPC   C2B 1283   8.142   6.124   6.901  0.2771 -0.2233  0.0682
   66POPC   C3B 1284   8.171   5.972   6.503 -0.0266 -0.0104 -0.2009
   66POPC   C4B 1285   8.032   5.861   6.038  0.0521  0.1059 -0.0096
   67POPC   NC3 1286   8.402   6.640   8.883 -0.1938  0.0274 -0.1080
   67POPC   PO4 1287   8.152   6.196   8.754 -0.1280 -0.1117  0.0875
   67POPC   GL1 1288   8.310   6.556   8.429 -0.0748 -0.0638 -0.2280
   67POPC   GL2 1289   8.086   6.776   8.369 -0.0286  0.1261 -0.1029
   67POPC   C1A 1290   8.520   6.779   8.041 -0.1794 -0.2783 -0.1187
   67POPC   D2A 1291   8.161   6.854   7.718  0.1157  0.0279  0.2377
   67POPC   C3A 1292   8.185   7.068   7.333  0.1864  0.1685  0.0794
   67POPC   C4A 1293   7.884   7.328   7.024 -0.0934  0.1159  0.1956
   67POPC   C1B 1294   8.122   7.058   8.162 -0.1189 -0.2403 -0.2882
   67POPC   C2B 1295   8.002   7.422   8.207 -0.2150  0.0120  0.0210
   67POPC   C3B 1296   7.782   7.833   8.115 -0.1445  0.0501  0.5004
   67POPC   C4B 1297   7.902   8.243   7.952 -0.1480  0.1761 -0.1679
   68POPC   NC3 1298   7.680  10.046   9.503  0.0596  0.1542  0.2565
   68POPC   PO4 1299   8.022   9.703   9.362 -0.1399 -0.0628  0.0097
   68POPC   GL1 1300   8.005   9.651   8.896 -0.3388  0.0152 -0.2562
   68POPC   GL2 1301   7.747   9.851   8.997 -0.2669 -0.0393 -0.1848
   68POPC   C1A 1302   8.059   9.566   8.454  0.1738 -0.0311  0.1604
   68POPC   D2A 1303   8.039   9.425   8.024 -0.1543 -0.1905  0.1506
   68POPC   C3A 1304   7.744   9.282   7.824 -0.2955 -0.0074  0.0588
   68POPC   C4A 1305   7.760   9.383   7.361  0.0520 -0.1398 -0.1265
   68POPC   C1B 1306   8.061  10.091   8.664 -0.3601  0.3199 -0.3177
   68POPC   C2B 1307   7.996  10.381   8.366 -0.0862  0.1485  0.0388
   68POPC   C3B 1308   7.593  10.446   8.202 -0.2096 -0.1370 -0.0029
   68POPC   C4B 1309   7.509  10.703   7.871  0.1716  0.1388 -0.0433
   69POPC   NC3 1310   1.914   0.673   8.535  0.1240  0.1110  0.2633
   69POPC   PO4 1311   2.304   0.501   8.620 -0.0120  0.1280  0.2066
   69POPC   GL1 1312   2.289   0.581   8.200 -0.3070 -0.0309 -0.1023
   69POPC   GL2 1313   2.487   0.911   8.109 -0.2286 -0.2010 -0.1351
   69POPC   C1A 1314   2.099   0.674   7.817  0.1939  0.1760 -0.3365
   69POPC   D2A 1315   2.026   0.762   7.407  0.0115 -0.2498 -0.2023
   69POPC   C3A 1316   2.218   0.789   6.976 -0.3163 -0.0704 -0.2843
   69POPC   C4A 1317   2.260   0.716   6.556  0.2601  0.2196  0.0600
   69POPC   C1B 1318   2.559   0.777   7.682 -0.2725  0.3067 -0.1390
   69POPC   C2B 1319   2.643   0.704   7.221  0.0838  0.1429  0.1078
   69POPC   C3B 1320   2.710   0.757   6.783 -0.0227 -0.2672 -0.3463
   69POPC   C4B 1321   2.910   0.800   6.372  0.1092 -0.1079 -0.0903
   70POPC   NC3 1322   9.781   7.405   8.907 -0.0746 -0.0958  0.0567
   70POPC   PO4 1323   9.486   7.220   8.863  0.1134 -0.1741  0.2634
   70POPC   GL1 1324   9.420   7.314   8.443  0.2150  0.2100 -0.0226
   70POPC   GL2 1325   9.269   7.586   8.443 -0.1129  0.1614  0.1143
   70POPC   C1A 1326   9.429   7.183   7.966 -0.1644  0.0966 -0.1571
   70POPC   D2A 1327   9.708   7.079   7.713  0.1522  0.0496 -0.4034
   70POPC   C3A 1328  10.008   7.309   7.728  0.2631  0.2471 -0.0566
   70POPC   C4A 1329  10.137   7.732   7.740  0.1317  0.1972 -0.0932
   70POPC   C1B 1330   9.177   7.583   8.003 -0.0618 -0.0761  0.0197
   70POPC   C2B 1331   9.144   7.288   7.574  0.2426  0.0235 -0.0495
   70POPC   C3B 1332   9.500   7.076   7.274 -0.0201 -0.0482  0.1149
   70POPC   C4B 1333   9.492   6.944   6.869  0.1636 -0.0418  0.4097
   71POPC   NC3 1334   8.890   8.617   9.373  0.1745  0.0479 -0.0331
   71POPC   PO4 1335   8.644   8.905   9.196  0.1385 -0.4002 -0.0399
   71POPC   GL1 1336   8.465   8.969   8.857  0.2866  0.0419 -0.0107
   71POPC   GL2 1337   8.638   8.835   8.601 -0.1515  0.3538 -0.3321
   71POPC   C1A 1338   8.174   8.863   8.373 -0.1026 -0.1036 -0.1405
   71POPC   D2A 1339   7.924   8.862   8.127  0.4713  0.0316  0.0861
   71POPC   C3A 1340   7.581   8.581   8.049 -0.0757  0.0346  0.1915
   71POPC   C4A 1341   7.421   8.245   7.823 -0.1161 -0.4059  0.0709
   71POPC   C1B 1342   8.616   8.609   8.206 -0.0379  0.0952  0.1281
   71POPC   C2B 1343   8.391   8.444   7.900  0.4416  0.2054 -0.1518
   71POPC   C3B 1344   8.154   8.215   7.527  0.0831 -0.1146 -0.2988
   71POPC   C4B 1345   7.923   7.806   7.627  0.0665  0.2110  0.0034
   72POPC   NC3 1346   0.230   3.962   8.435  0.0102  0.0652  0.2702
   72POPC   PO4 1347   0.483   4.225   8.117  0.1195  0.1291  0.0015
   72POPC   GL1 1348   0.829   4.110   8.054  0.0493  0.2167 -0.3233
   72POPC   GL2 1349   1.040   4.400   8.087 -0.0508  0.2945  0.1834
   72POPC   C1A 1350   0.940   4.160   7.593 -0.2754  0.3576  0.2209
   72POPC   D2A 1351   0.844   4.230   7.131  0.0930 -0.0530 -0.2527
   72POPC   C3A 1352   0.995   3.973   6.714 -0.2481  0.0602 -0.1739
   72POPC   C4A 1353   1.176   4.230   6.387 -0.0089  0.2699  0.1262
   72POPC   C1B 1354   1.327   4.474   7.835  0.1390  0.0091 -0.2207
   72POPC   C2B 1355   1.327   4.568   7.401 -0.0031 -0.1791  0.0243
   72POPC   C3B 1356   1.542   4.603   7.006 -0.5352  0.0408 -0.0346
   72POPC   C4B 1357   1.531   4.713   6.601  0.1776 -0.0519 -0.1355
   73POPC   NC3 1358   3.147   4.838   8.567  0.0360  0.1416  0.1465
   73POPC   PO4 1359   2.667   4.712   8.712 -0.1876  0.0157 -0.1351
   73POPC   GL1 1360   2.697   4.539   8.245  0.1588  0.2773  0.3746
   73POPC   GL2 1361   2.811   4.808   8.095 -0.3452 -0.1551 -0.1888
   73POPC   C1A 1362   2.760   4.288   7.826  0.2898 -0.3063 -0.0377
   73POPC   D2A 1363   2.637   4.233   7.501  0.4008 -0.0886  0.0186
   73POPC   C3A 1364   2.862   4.443   7.244  0.0434 -0.0042  0.1165
   73POPC   C4A 1365   2.929   4.826   6.963  0.1316 -0.1476  0.3195
   73POPC   C1B 1366   2.611   4.854   7.708  0.0669  0.0903  0.2396
   73POPC   C2B 1367   2.649   5.081   7.343  0.1153 -0.1133  0.3801
   73POPC   C3B 1368   2.465   5.120   6.973  0.0636  0.0346  0.1391
   73POPC   C4B 1369   2.592   5.044   6.635 -0.1476  0.0638 -0.3078
   74POPC   NC3 1370   6.795   5.588   9.080  0.4272 -0.0805 -0.1450
   74POPC   PO4 1371   6.666   5.629   8.649  0.0196  0.3677  0.1988
   74POPC   GL1 1372   6.712   5.635   8.191  0.2090  0.0133 -0.2009
   74POPC   GL2 1373   6.584   5.736   7.927  0.3178  0.0586  0.0641
   74POPC   C1A 1374   6.586   5.228   7.926 -0.0326 -0.0294  0.0952
   74POPC   D2A 1375   6.861   4.969   7.591 -0.0028 -0.0362 -0.0394
   74POPC   C3A 1376   7.028   4.695   7.304 -0.0420  0.1123 -0.3129
   74POPC   C4A 1377   7.061   4.339   6.983 -0.0336 -0.0377 -0.1961
   74POPC   C1B 1378   6.656   6.067   7.855  0.0715 -0.3292 -0.2324
   74POPC   C2B 1379   6.489   6.531   7.881 -0.1473 -0.0324  0.2378
   74POPC   C3B 1380   6.548   6.851   7.581 -0.1013  0.1883 -0.0858
   74POPC   C4B 1381   6.349   6.895   7.212  0.0672 -0.1473  0.4257
   75POPC   NC3 1382   9.110   4.827   8.577  0.0604  0.2349  0.2875
   75POPC   PO4 1383   9.304   4.501   8.367 -0.3292 -0.1701  0.6242
   75POPC   GL1 1384   9.237   4.276   8.076  0.0038  0.0195 -0.0524
   75POPC   GL2 1385   8.918   4.131   8.040 -0.1338 -0.5445 -0.1348
   75POPC   C1A 1386   9.330   4.089   7.680 -0.0669  0.1381  0.2003
   75POPC   D2A 1387   9.426   4.002   7.211  0.2420  0.0055  0.1687
   75POPC   C3A 1388   9.508   3.603   7.021 -0.0627 -0.1274  0.0978
   75POPC   C4A 1389   9.626   3.393   6.713 -0.1697 -0.2771 -0.0805
   75POPC   C1B 1390   8.743   3.997   7.673  0.0786 -0.0643 -0.1697
   75POPC   C2B 1391   8.810   4.164   7.201 -0.2561 -0.1585 -0.1183
   75POPC   C3B 1392   9.107   4.138   6.822  0.0104  0.3615  0.0606
   75POPC   C4B 1393   9.383   4.100   6.493 -0.1316 -0.2453 -0.2097
   76POPC   NC3 1394   8.929   7.315   9.403 -0.3781 -0.2043  0.1423
   76POPC   PO4 1395   8.653   7.414   9.088 -0.0086  0.1142  0.0002
   76POPC   GL1 1396   8.414   7.390   8.768 -0.2617 -0.0244 -0.3289
   76POPC   GL2 1397   8.303   7.122   8.673 -0.0031 -0.0703  0.0690
   76POPC   C1A 1398   8.417   7.684   8.417 -0.5147  0.5809  0.1120
   76POPC   D2A 1399   8.302   7.858   8.068 -0.1800 -0.0110  0.2498
   76POPC   C3A 1400   8.475   7.921   7.687 -0.1921  0.0663 -0.1769
   76POPC   C4A 1401   8.413   7.648   7.341  0.1018  0.1069  0.1514
   76POPC   C1B 1402   7.824   7.239   8.604 -0.1171  0.2954  0.0281
   76POPC   C2B 1403   7.545   7.495   8.370  0.2180 -0.0343 -0.1607
   76POPC   C3B 1404   7.211   7.710   8.530 -0.1892  0.0475 -0.2232
   76POPC   C4B 1405   7.059   8.151   8.763  0.1085  0.1531 -0.1301
   77POPC   NC3 1406   2.742   3.179   8.594  0.0554  0.1249  0.0582
   77POPC   PO4 1407   2.615   2.801   8.573 -0.0301 -0.0499 -0.1125
   77POPC   GL1 1408   2.520   2.733   8.067  0.0190 -0.2313 -0.3443
   77POPC   GL2 1409   2.634   3.176   8.029  0.0015  0.1327  0.1054
   77POPC   C1A 1410   2.561   2.881   7.626  0.1127 -0.1321 -0.0112
   77POPC   D2A 1411   2.886   3.076   7.460 -0.2076  0.3805  0.1723
   77POPC   C3A 1412   3.384   2.880   7.429  0.0765  0.1355  0.5086
   77POPC   C4A 1413   3.720   2.740   7.591 -0.3132  0.0366 -0.1072
   77POPC   C1B 1414   2.669   3.513   7.618  0.2034 -0.0056 -0.0208
   77POPC   C2B 1415   2.800   3.446   7.158 -0.0523 -0.1649 -0.0984
   77POPC   C3B 1416   3.119   3.407   7.187  0.1064  0.0349  0.4484
   77POPC   C4B 1417   3.449   3.202   6.881 -0.0959  0.0305 -0.0498
   78POPC   NC3 1418   2.920   7.362   8.836 -0.1745 -0.0064 -0.1363
   78POPC   PO4 1419   3.282   7.132   8.752 -0.4242  0.1925  0.0293
   78POPC   GL1 1420   3.050   6.982   8.420 -0.2019  0.0009  0.2127
   78POPC   GL2 1421   2.829   7.147   8.429 -0.4070  0.2806  0.3817
   78POPC   C1A 1422   3.036   6.741   8.067  0.0265 -0.0065  0.0450
   78POPC   D2A 1423   2.887   6.598   7.718 -0.0308  0.3608 -0.0886
   78POPC   C3A 1424   3.061   6.644   7.250 -0.1197  0.2234 -0.2641
   78POPC   C4A 1425   3.103   6.870   6.889 -0.2270 -0.2314 -0.0718
   78POPC   C1B 1426   3.024   7.272   8.067  0.3156 -0.0055  0.4867
   78POPC   C2B 1427   3.042   7.166   7.676 -0.2080  0.3354 -0.1261
   78POPC   C3B 1428   3.425   7.203   7.252  0.2356  0.1010  0.2461
   78POPC   C4B 1429   3.467   7.322   6.801  0.0631 -0.3653 -0.3358
   79POPC   NC3 1430   4.566   0.962   9.720 -0.0677 -0.0795  0.0869
   79POPC   PO4 1431   4.510   0.491   9.751  0.1594 -0.0556  0.0044
   79POPC   GL1 1432   4.703   0.486   9.412 -0.1317  0.0334 -0.0515
   79POPC   GL2 1433   4.820   0.791   9.329  0.2358 -0.2400 -0.1455
   79POPC   C1A 1434   4.943   0.429   9.040 -0.0482  0.5673  0.1536
   79POPC   D2A 1435   4.978   0.235   8.669 -0.1730 -0.0848  0.2691
   79POPC   C3A 1436   4.656  -0.019   8.465 -0.1066 -0.0791  0.0720
   79POPC   C4A 1437   4.294  -0.255   8.665  0.0070 -0.1842  0.1510
   79POPC   C1B 1438   4.541   0.755   8.993  0.1657 -0.1603 -0.3842
   79POPC   C2B 1439   4.425   0.266   8.948 -0.3093 -0.3230  0.2049
   79POPC   C3B 1440   4.724  -0.107   8.965 -0.1226  0.0530  0.2306
   79POPC   C4B 1441   5.231  -0.016   9.204 -0.1244  0.0050 -0.0721
   80POPC   NC3 1442   1.981   8.311   8.644  0.2001  0.2558  0.1648
   80POPC   PO4 1443   1.750   8.166   8.360 -0.3200 -0.1106 -0.1873
   80POPC   GL1 1444   1.991   8.304   7.967  0.0496  0.2392 -0.1630
   80POPC   GL2 1445   2.174   8.477   8.153  0.1006 -0.2322  0.1996
   80POPC   C1A 1446   1.831   8.198   7.532 -0.0002  0.1218 -0.1285
   80POPC   D2A 1447   1.581   8.039   7.157  0.1396  0.0064  0.0636
   80POPC   C3A 1448   1.525   7.607   7.136  0.0366 -0.0075 -0.1097
   80POPC   C4A 1449   1.668   7.233   6.813 -0.1175  0.0727 -0.1908
   80POPC   C1B 1450   2.325   8.464   7.643  0.3034 -0.2837  0.0609
   80POPC   C2B 1451   2.155   8.455   7.244 -0.3581 -0.3147 -0.0626
   80POPC   C3B 1452   1.675   8.530   7.064 -0.1113  0.0601 -0.2776
   80POPC   C4B 1453   1.296   8.373   6.979  0.2215 -0.0261  0.1414
   81POPC   NC3 1454   8.066   7.382   9.162 -0.1995  0.1820 -0.1717
   81POPC   PO4 1455   7.624   7.322   9.261  0.2200 -0.0107 -0.1852
   81POPC   GL1 1456   7.661   7.570   8.906 -0.0139 -0.1391 -0.0222
   81POPC   GL2 1457   7.782   7.808   9.149  0.2405 -0.0251  0.0419
   81POPC   C1A 1458   7.970   7.780   8.630 -0.1466  0.2444 -0.1050
   81POPC   D2A 1459   8.048   8.115   8.423  0.2722 -0.3491  0.0255
   81POPC   C3A 1460   7.832   8.475   8.515 -0.1600 -0.0153 -0.2472
   81POPC   C4A 1461   7.816   8.635   8.827  0.0480 -0.1128  0.0256
   81POPC   C1B 1462   7.622   8.286   9.231 -0.1720  0.1759  0.0830
   81POPC   C2B 1463   7.392   8.535   9.042  0.1217  0.0843  0.0834
   81POPC   C3B 1464   7.103   8.674   8.875  0.2816 -0.0679 -0.2823
   81POPC   C4B 1465   6.746   8.932   8.876 -0.0345 -0.0245  0.0216
   82POPC   NC3 1466   6.090   0.825   9.539  0.0601 -0.3389  0.2050
   82POPC   PO4 1467   6.407   1.159   9.331 -0.4288  0.1966 -0.0118
   82POPC   GL1 1468   6.309   1.056   8.904  0.0472 -0.0411 -0.4221
   82POPC   GL2 1469   6.238   1.258   8.598 -0.0046 -0.0245 -0.0096
   82POPC   C1A 1470   6.419   0.792   8.512  0.0095 -0.3377 -0.3443
   82POPC   D2A 1471   6.648   0.767   8.111  0.1285 -0.1956  0.0149
   82POPC   C3A 1472   6.508   0.620   7.771  0.0014 -0.0046 -0.1504
   82POPC   C4A 1473   6.247   0.668   7.479  0.2304 -0.0772 -0.2645
   82POPC   C1B 1474   6.504   1.302   8.323 -0.0163  0.0180  0.1589
   82POPC   C2B 1475   6.451   1.200   7.908  0.1880  0.0712  0.1020
   82POPC   C3B 1476   6.184   1.169   7.587 -0.0277  0.2325 -0.0625
   82POPC   C4B 1477   5.771   1.066   7.639 -0.1163  0.1268 -0.1361
   83POPC   NC3 1478   1.953   3.609   8.497 -0.1287 -0.1410  0.0903
   83POPC   PO4 1479   2.419   3.570   8.428 -0.0897  0.0038  0.1040
   83POPC   GL1 1480   2.197   3.692   8.050 -0.1196 -0.3380  0.1812
   83POPC   GL2 1481   1.914   3.545   7.938  0.1425  0.0606 -0.1725
   83POPC   C1A 1482   2.181   3.799   7.596  0.4669 -0.0483  0.0812
   83POPC   D2A 1483   2.155   4.116   7.406  0.0238  0.0632 -0.0405
   83POPC   C3A 1484   1.738   4.198   7.337  0.1183 -0.0278  0.2428
   83POPC   C4A 1485   1.378   4.150   7.104 -0.1345  0.0536  0.1653
   83POPC   C1B 1486   2.213   3.287   7.681 -0.0600 -0.3846  0.0854
   83POPC   C2B 1487   2.301   3.328   7.132  0.0962 -0.2028  0.1060
   83POPC   C3B 1488   2.397   3.735   7.170 -0.1490 -0.2197 -0.2746
   83POPC   C4B 1489   2.639   3.980   7.027 -0.0474  0.1661  0.0867
   84POPC   NC3 1490   0.947   3.315   8.203  0.1295  0.1422 -0.2271
   84POPC   PO4 1491   0.642   3.264   8.347  0.0103  0.3843  0.3811
   84POPC   GL1 1492   0.522   3.086   8.063 -0.1185  0.0962 -0.0130
   84POPC   GL2 1493   0.283   2.901   8.287 -0.2886 -0.0083 -0.1169
   84POPC   C1A 1494   0.506   3.240   7.622  0.3570  0.2281 -0.3487
   84POPC   D2A 1495   0.407   3.422   7.320 -0.2469 -0.0467 -0.2789
   84POPC   C3A 1496   0.105   3.555   7.333  0.0963 -0.0169 -0.2917
   84POPC   C4A 1497  -0.335   3.583   7.504  0.0143  0.0653  0.0444
   84POPC   C1B 1498   0.246   2.638   7.905 -0.0840  0.0373  0.2732
   84POPC   C2B 1499   0.082   2.361   7.576  0.1881 -0.0996 -0.1388
   84POPC   C3B 1500   0.256   2.244   7.199 -0.0964 -0.1475  0.0527
   84POPC   C4B 1501   0.103   2.172   6.776  0.2349 -0.0849 -0.1537
   85POPC   NC3 1502   1.521  10.124   8.652 -0.2705  0.0373 -0.0495
   85POPC   PO4 1503   1.688  10.543   8.598 -0.0952  0.1114  0.0520
   85POPC   GL1 1504   2.021  10.665   8.322  0.0474 -0.0424  0.2374
   85POPC   GL2 1505   2.362  10.570   8.380  0.1426  0.0714  0.1338
   85POPC   C1A 1506   2.108  10.690   7.964 -0.1755  0.1905  0.0057
   85POPC   D2A 1507   2.322  10.651   7.607 -0.2959  0.4905 -0.1797
   85POPC   C3A 1508   2.377  10.562   7.166 -0.1893 -0.2111 -0.1829
   85POPC   C4A 1509   2.213  10.722   6.753  0.2540  0.0216 -0.1266
   85POPC   C1B 1510   2.695  10.486   8.115  0.0620 -0.0822  0.2553
   85POPC   C2B 1511   2.683  10.245   7.677  0.3425 -0.1126 -0.0064
   85POPC   C3B 1512   2.487  10.034   7.352 -0.0538  0.2377  0.0445
   85POPC   C4B 1513   2.365   9.849   6.939  0.1222  0.0223  0.1628
   86POPC   NC3 1514   6.262   1.533   9.064  0.0376 -0.1164 -0.1346
   86POPC   PO4 1515   6.226   1.988   9.097 -0.4381 -0.0951  0.0556
   86POPC   GL1 1516   6.276   1.812   8.633 -0.0430  0.2230 -0.0827
   86POPC   GL2 1517   6.502   1.821   8.513  0.1990  0.0869 -0.1367
   86POPC   C1A 1518   5.948   1.829   8.351 -0.1455  0.0006  0.0395
   86POPC   D2A 1519   5.493   1.858   8.182 -0.1370 -0.1271  0.0839
   86POPC   C3A 1520   5.442   1.844   7.777  0.1421  0.0518 -0.0881
   86POPC   C4A 1521   5.240   1.796   7.249  0.1819 -0.1892 -0.0212
   86POPC   C1B 1522   6.330   1.709   8.058 -0.0572 -0.3091  0.0346
   86POPC   C2B 1523   5.986   1.447   7.987 -0.0248 -0.1052 -0.3308
   86POPC   C3B 1524   6.008   1.011   8.041 -0.1038 -0.0013  0.1472
   86POPC   C4B 1525   5.892   0.890   8.436  0.0288 -0.0851 -0.0418
   87POPC   NC3 1526   5.802   2.207   9.032  0.0913  0.4730 -0.1877
   87POPC   PO4 1527   5.382   2.007   9.021  0.0197  0.0500 -0.1567
   87POPC   GL1 1528   5.135   1.979   8.628  0.0851 -0.1696 -0.0897
   87POPC   GL2 1529   4.791   1.940   8.541 -0.1037  0.0910 -0.2431
   87POPC   C1A 1530   5.107   1.641   8.312 -0.2345 -0.3525  0.2161
   87POPC   D2A 1531   4.996   1.250   8.318 -0.2360 -0.1608  0.1697
   87POPC   C3A 1532   4.505   1.083   8.384 -0.1134  0.1511  0.0671
   87POPC   C4A 1533   4.353   0.823   8.012 -0.1304 -0.1875 -0.2963
   87POPC   C1B 1534   5.037   2.187   8.210 -0.0284  0.2144  0.0554
   87POPC   C2B 1535   4.983   2.188   7.762  0.1925 -0.0822  0.3046
   87POPC   C3B 1536   5.044   2.426   7.399  0.2501  0.0596 -0.0168
   87POPC   C4B 1537   5.036   2.567   7.039  0.1565  0.2044 -0.3232
   88POPC   NC3 1538   6.338   2.677   8.550  0.1955  0.2642 -0.0546
   88POPC   PO4 1539   6.193   2.303   8.724  0.1834 -0.2174  0.0512
   88POPC   GL1 1540   6.102   2.257   8.344  0.0203 -0.3118  0.0038
   88POPC   GL2 1541   6.305   2.284   8.223 -0.2077  0.1665 -0.1545
   88POPC   C1A 1542   5.719   2.376   8.096 -0.1028  0.0408 -0.4444
   88POPC   D2A 1543   5.450   2.312   7.843  0.2436 -0.1034 -0.1960
   88POPC   C3A 1544   5.522   2.326   7.384  0.1252 -0.2591 -0.4079
   88POPC   C4A 1545   5.618   2.347   6.941 -0.0619  0.0119 -0.1239
   88POPC   C1B 1546   6.115   2.186   7.843  0.0779 -0.2667 -0.2389
   88POPC   C2B 1547   5.901   1.791   7.601  0.2550  0.2024  0.2272
   88POPC   C3B 1548   5.915   1.462   7.335  0.0641  0.0375  0.0367
   88POPC   C4B 1549   6.336   1.254   6.979  0.1151  0.2206  0.0152
   89POPC   NC3 1550   5.965   6.651   9.223 -0.0007 -0.1133 -0.0460
   89POPC   PO4 1551   6.291   6.807   9.500  0.1020  0.0977  0.0069
   89POPC   GL1 1552   6.288   7.173   9.066  0.1428  0.3103  0.1453
   89POPC   GL2 1553   6.116   6.937   8.721 -0.1614 -0.1210  0.1126
   89POPC   C1A 1554   6.162   7.443   8.759 -0.3009 -0.1998 -0.0507
   89POPC   D2A 1555   6.148   7.818   8.447 -0.0792  0.0925 -0.2014
   89POPC   C3A 1556   5.947   8.026   8.136 -0.0698 -0.0898  0.0126
   89POPC   C4A 1557   5.584   7.793   7.904  0.0843 -0.4333 -0.1574
   89POPC   C1B 1558   6.230   7.174   8.346  0.1230 -0.0074  0.4211
   89POPC   C2B 1559   5.992   7.337   8.026  0.1680 -0.0517 -0.2210
   89POPC   C3B 1560   5.581   7.286   7.774  0.1197  0.0057  0.2519
   89POPC   C4B 1561   5.193   7.510   7.845 -0.1447  0.0166 -0.1458
   90POPC   NC3 1562   7.150   4.690   8.663 -0.2587  0.4629 -0.1575
   90POPC   PO4 1563   6.679   4.911   8.753  0.2377 -0.1303  0.1009
   90POPC   GL1 1564   6.645   4.748   8.335 -0.0601 -0.3861 -0.0497
   90POPC   GL2 1565   6.819   4.889   8.146 -0.2081  0.1654  0.0895
   90POPC   C1A 1566   6.462   4.742   7.876 -0.0515 -0.3198  0.4547
   90POPC   D2A 1567   6.114   4.477   7.517  0.1933  0.3459  0.3255
   90POPC   C3A 1568   6.236   4.097   7.280 -0.0300 -0.0302  0.1457
   90POPC   C4A 1569   6.246   3.625   7.169 -0.0259 -0.0425  0.1300
   90POPC   C1B 1570   7.003   4.558   7.855 -0.1878 -0.0043  0.2789
   90POPC   C2B 1571   7.113   4.247   7.567 -0.1085 -0.3120  0.0977
   90POPC   C3B 1572   6.936   3.920   7.442  0.2608  0.0648  0.0337
   90POPC   C4B 1573   7.049   3.531   7.579  0.0209  0.3287 -0.0913
   91POPC   NC3 1574   9.153   8.977   9.104 -0.1354 -0.0873  0.0503
   91POPC   PO4 1575   9.472   8.570   8.993 -0.1517 -0.0358 -0.0588
   91POPC   GL1 1576   9.478   8.850   8.657 -0.2250  0.0701 -0.1610
   91POPC   GL2 1577   9.497   9.152   8.677 -0.0799 -0.3372 -0.2077
   91POPC   C1A 1578   9.504   9.031   8.179 -0.1667 -0.2287 -0.0095
   91POPC   D2A 1579   9.799   9.213   7.793 -0.1476  0.1334  0.0055
   91POPC   C3A 1580   9.995   8.982   7.479 -0.2380 -0.2878 -0.2039
   91POPC   C4A 1581   9.966   8.598   7.473  0.0483 -0.5048  0.2462
   91POPC   C1B 1582   9.901   9.364   8.349 -0.1516 -0.1964 -0.0407
   91POPC   C2B 1583  10.244   9.188   8.119  0.1155 -0.2259  0.0088
   91POPC   C3B 1584  10.431   9.335   7.726 -0.0692 -0.0045  0.0839
   91POPC   C4B 1585  10.808   9.062   7.512 -0.0095 -0.0610  0.1290
   92POPC   NC3 1586   1.961   7.711   8.600 -0.2664 -0.0640  0.1162
   92POPC   PO4 1587   2.363   7.988   8.709 -0.0218 -0.1017  0.0613
   92POPC   GL1 1588   2.358   7.881   8.267  0.0435 -0.1937 -0.1585
   92POPC   GL2 1589   2.113   7.783   8.085  0.3434 -0.0297 -0.0981
   92POPC   C1A 1590   2.677   7.666   7.918 -0.0951  0.1151  0.0562
   92POPC   D2A 1591   2.684   7.459   7.544  0.1774 -0.0233  0.1792
   92POPC   C3A 1592   2.407   7.551   7.270 -0.0487  0.2951  0.2832
   92POPC   C4A 1593   2.409   7.488   6.767 -0.3101  0.0304  0.2806
   92POPC   C1B 1594   2.331   7.893   7.627  0.3490 -0.0486 -0.1884
   92POPC   C2B 1595   2.106   7.902   7.175 -0.0167  0.2805 -0.0120
   92POPC   C3B 1596   1.959   7.633   6.902  0.1401 -0.1717 -0.0807
   92POPC   C4B 1597   2.005   7.350   6.508  0.0437  0.1973  0.2478
   93POPC   NC3 1598   1.577   8.601   8.603 -0.2085 -0.0449 -0.1828
   93POPC   PO4 1599   1.881   8.831   8.783 -0.0400  0.1441 -0.0496
   93POPC   GL1 1600   1.891   8.896   8.326 -0.2417  0.1068  0.2010
   93POPC   GL2 1601   1.563   8.693   8.112  0.1552  0.0842  0.0133
   93POPC   C1A 1602   1.720   9.330   7.935 -0.2880  0.3347 -0.0570
   93POPC   D2A 1603   1.874   9.350   7.557 -0.1903  0.1184  0.2128
   93POPC   C3A 1604   1.592   9.390   7.197  0.3980  0.0700  0.0020
   93POPC   C4A 1605   1.267   9.410   6.791  0.1159 -0.1875  0.2141
   93POPC   C1B 1606   1.907   8.800   7.826 -0.4320 -0.1531  0.2666
   93POPC   C2B 1607   1.841   8.904   7.419 -0.0641  0.3731  0.1269
   93POPC   C3B 1608   1.862   9.037   6.995  0.0274  0.1383 -0.1792
   93POPC   C4B 1609   1.647   9.164   6.627  0.0017 -0.0220  0.0756
   94POPC   NC3 1610   9.701   2.346   9.020 -0.4981  0.0531 -0.1313
   94POPC   PO4 1611   9.896   2.748   8.926  0.1326 -0.1746 -0.1394
   94POPC   GL1 1612   9.822   2.763   8.514 -0.0331 -0.0856  0.0712
   94POPC   GL2 1613   9.481   2.755   8.541  0.0660 -0.2476 -0.0438
   94POPC   C1A 1614   9.791   2.863   7.963  0.1123  0.0571 -0.1296
   94POPC   D2A 1615   9.647   2.805   7.505 -0.2595 -0.1602  0.1827
   94POPC   C3A 1616   9.892   2.785   7.183  0.0740  0.3307  0.2897
   94POPC   C4A 1617  10.251   2.615   7.232  0.0151  0.1253 -0.0891
   94POPC   C1B 1618   9.372   2.517   8.152  0.0959  0.0245 -0.3057
   94POPC   C2B 1619   9.297   2.777   7.836 -0.2032 -0.0522 -0.0937
   94POPC   C3B 1620   9.367   3.237   7.625 -0.4163 -0.0713  0.2181
   94POPC   C4B 1621   9.611   3.646   7.535  0.0016 -0.1774 -0.2671
   95POPC   NC3 1622   6.952   6.456   8.733 -0.0936  0.1447 -0.0148
   95POPC   PO4 1623   7.302   6.322   8.622  0.0331 -0.2651  0.1780
   95POPC   GL1 1624   7.612   6.389   8.225  0.0722  0.1309  0.1415
   95POPC   GL2 1625   7.921   6.293   8.249 -0.0977  0.1707 -0.2059
   95POPC   C1A 1626   7.426   6.419   7.858  0.1904  0.1921  0.2951
   95POPC   D2A 1627   7.241   6.526   7.400  0.0383 -0.5397  0.4427
   95POPC   C3A 1628   7.407   6.853   7.120 -0.0348 -0.0836 -0.0851
   95POPC   C4A 1629   7.434   6.911   6.730 -0.2212 -0.2109  0.0839
   95POPC   C1B 1630   7.946   6.350   7.828  0.4979 -0.1875  0.0101
   95POPC   C2B 1631   7.821   6.602   7.466  0.0166 -0.0550 -0.2120
   95POPC   C3B 1632   7.825   6.553   7.118  0.0143 -0.1317 -0.0215
   95POPC   C4B 1633   7.946   6.794   6.772  0.2062 -0.1252 -0.0552
   96POPC   NC3 1634   2.331   8.687   8.592  0.0355  0.1481  0.0355
   96POPC   PO4 1635   2.623   8.493   8.869 -0.1515  0.0021  0.3048
   96POPC   GL1 1636   2.714   8.339   8.504  0.1393 -0.1495 -0.1374
   96POPC   GL2 1637   3.001   8.209   8.478 -0.1029 -0.1073 -0.5880
   96POPC   C1A 1638   2.672   8.209   8.068  0.1369  0.2433  0.1367
   96POPC   D2A 1639   2.862   8.110   7.653  0.1313 -0.1822 -0.0507
   96POPC   C3A 1640   2.594   8.094   7.229 -0.1066  0.1299  0.1993
   96POPC   C4A 1641   2.449   8.050   6.864  0.0052  0.1685 -0.0772
   96POPC   C1B 1642   3.170   8.468   8.282  0.0800  0.0795  0.1836
   96POPC   C2B 1643   3.244   8.518   7.847 -0.2824  0.0105  0.3251
   96POPC   C3B 1644   3.317   8.847   7.669 -0.1105 -0.2656 -0.0393
   96POPC   C4B 1645   3.190   9.029   7.220 -0.4195  0.1853 -0.2556
   97POPC   NC3 1646   6.953   0.783   9.729 -0.3743  0.2213 -0.2262
   97POPC   PO4 1647   6.892   1.009   9.357 -0.4533 -0.1211 -0.0332
   97POPC   GL1 1648   6.724   0.738   8.971  0.3959 -0.2493  0.4400
   97POPC   GL2 1649   6.416   0.606   8.987  0.3412  0.1960  0.2274
   97POPC   C1A 1650   6.863   0.566   8.559 -0.0685 -0.0454 -0.1143
   97POPC   D2A 1651   6.655   0.277   8.240 -0.1518  0.1226  0.0233
   97POPC   C3A 1652   6.373   0.154   7.945  0.3628  0.2741  0.2554
   97POPC   C4A 1653   6.073   0.206   7.526  0.0553 -0.1504  0.4371
   97POPC   C1B 1654   5.989   0.543   8.804 -0.2883  0.3080  0.0067
   97POPC   C2B 1655   5.615   0.411   8.665  0.0597 -0.0014  0.0522
   97POPC   C3B 1656   5.651   0.423   8.218 -0.1567  0.1561  0.0813
   97POPC   C4B 1657   5.531   0.198   7.889  0.1904  0.3285  0.1246
   98POPC   NC3 1658   9.197   0.664   9.354  0.1425  0.0917 -0.3143
   98POPC   PO4 1659   9.436   0.596   8.945 -0.0300 -0.0783 -0.0875
   98POPC   GL1 1660   9.477   0.710   8.428  0.3488 -0.1534 -0.0593
   98POPC   GL2 1661   9.212   0.582   8.332  0.0116 -0.3853 -0.0189
   98POPC   C1A 1662   9.566   0.917   8.080 -0.2320 -0.0597  0.0177
   98POPC   D2A 1663   9.626   0.949   7.626  0.1147  0.0366  0.3234
   98POPC   C3A 1664   9.632   0.761   7.196  0.0026 -0.2309 -0.1744
   98POPC   C4A 1665   9.481   0.667   6.815  0.2236 -0.5364  0.1338
   98POPC   C1B 1666   9.144   0.784   7.898  0.0229  0.2049 -0.2224
   98POPC   C2B 1667   9.110   0.927   7.518  0.0812 -0.0308  0.0617
   98POPC   C3B 1668   9.161   1.083   7.055 -0.0369 -0.0211 -0.0235
   98POPC   C4B 1669   8.754   0.971   6.878  0.4011 -0.1092 -0.2138
   99POPC   NC3 1670   4.538   9.720  10.222 -0.2197 -0.3289 -0.0559
   99POPC   PO4 1671   4.051   9.835  10.180  0.0744  0.1926  0.1941
   99POPC   GL1 1672   4.220   9.489   9.897  0.0311 -0.0016  0.0108
   99POPC   GL2 1673   4.403   9.239   9.741  0.1983  0.1789  0.3715
   99POPC   C1A 1674   4.322   9.615   9.375 -0.0137  0.1525 -0.1241
   99POPC   D2A 1675   4.524   9.675   8.950  0.1389 -0.3534  0.0890
   99POPC   C3A 1676   4.310   9.678   8.597 -0.0212  0.0756 -0.0146
   99POPC   C4A 1677   4.286   9.876   8.280  0.2102  0.0812 -0.0848
   99POPC   C1B 1678   4.546   8.868   9.562 -0.2251 -0.1285 -0.0573
   99POPC   C2B 1679   4.318   8.613   9.276 -0.1120  0.0286  0.3915
   99POPC   C3B 1680   4.056   8.695   8.895 -0.1028 -0.0359 -0.1519
   99POPC   C4B 1681   3.931   8.961   8.838  0.4478 -0.1356  0.3967
  100POPC   NC3 1682   8.337   4.914   7.942 -0.1733  0.3063  0.0645
  100POPC   PO4 1683   8.675   5.123   7.938  0.1014 -0.2013 -0.3352
  100POPC   GL1 1684   8.542   5.133   7.468  0.2806 -0.0544 -0.0028
  100POPC   GL2 1685   8.253   5.071   7.448 -0.1675  0.0287  0.1546
  100POPC   C1A 1686   8.613   5.137   6.997  0.1796  0.1612  0.3504
  100POPC   D2A 1687   8.583   5.012   6.583  0.0454 -0.2202  0.0265
  100POPC   C3A 1688   8.213   5.200   6.305 -0.0546 -0.1177 -0.2505
  100POPC   C4A 1689   8.078   5.010   5.922 -0.1616 -0.0292  0.4229
  100POPC   C1B 1690   8.222   5.380   7.184 -0.0795 -0.0187 -0.0314
  100POPC   C2B 1691   8.374   5.690   7.437  0.0269 -0.0332 -0.0713
  100POPC   C3B 1692   8.705   5.968   7.493  0.2984 -0.2434  0.1491
  100POPC   C4B 1693   9.051   5.885   7.694 -0.0813 -0.1639 -0.1330
  101POPC   NC3 1694   0.234   7.936   8.884  0.0025  0.2788  0.2239
  101POPC   PO4 1695  -0.180   8.175   8.751  0.0083  0.0103 -0.1880
  101POPC   GL1 1696  -0.411   8.368   8.350 -0.2032  0.0849 -0.0064
  101POPC   GL2 1697  -0.618   8.113   8.217 -0.0400  0.2022  0.0282
  101POPC   C1A 1698  -0.579   8.685   8.203  0.0088  0.1388 -0.0842
  101POPC   D2A 1699  -0.925   8.546   7.951 -0.0857  0.3092  0.4198
  101POPC   C3A 1700  -1.133   8.538   7.528  0.0619 -0.2782  0.3203
  101POPC   C4A 1701  -1.472   8.569   7.237 -0.0840  0.0665  0.3037
  101POPC   C1B 1702  -0.689   8.147   7.777  0.0298 -0.0391  0.0793
  101POPC   C2B 1703  -0.817   7.992   7.424  0.0394 -0.0088 -0.0433
  101POPC   C3B 1704  -1.172   7.710   7.252  0.1055  0.2748 -0.1706
  101POPC   C4B 1705  -1.474   7.451   7.143 -0.0326 -0.0902  0.1766
  102POPC   NC3 1706   7.391   8.264   9.955  0.1493 -0.1030 -0.1472
  102POPC   PO4 1707   7.693   8.549   9.916 -0.5031  0.3299  0.0521
  102POPC   GL1 1708   7.303   8.612   9.519  0.0847 -0.0891 -0.1495
  102POPC   GL2 1709   7.088   8.375   9.505 -0.3045  0.1375 -0.0769
  102POPC   C1A 1710   6.809   8.729   9.317 -0.0281  0.1363 -0.1106
  102POPC   D2A 1711   6.431   8.898   9.323 -0.3027  0.2059 -0.1539
  102POPC   C3A 1712   6.288   9.146   9.138  0.2657 -0.1894  0.1679
  102POPC   C4A 1713   6.314   9.577   9.047 -0.4006 -0.0442 -0.4492
  102POPC   C1B 1714   6.766   8.233   9.161 -0.0294  0.1086  0.1077
  102POPC   C2B 1715   6.617   8.454   8.849  0.1996 -0.4095  0.1934
  102POPC   C3B 1716   6.740   8.559   8.486  0.1526 -0.1709 -0.2954
  102POPC   C4B 1717   6.649   8.907   8.236 -0.0908 -0.2125  0.3682
  103POPC   NC3 1718   7.351   9.216  10.192  0.1382  0.1036  0.0414
  103POPC   PO4 1719   7.140   9.540   9.925 -0.2344  0.3567  0.1026
  103POPC   GL1 1720   7.169   9.371   9.554 -0.3755 -0.0370 -0.1149
  103POPC   GL2 1721   7.287   9.652   9.402 -0.0994  0.1286  0.1920
  103POPC   C1A 1722   7.266   9.031   9.214 -0.1901 -0.1221 -0.2126
  103POPC   D2A 1723   7.323   9.114   8.794  0.1162 -0.1824 -0.0210
  103POPC   C3A 1724   7.033   9.129   8.506  0.0031  0.3226 -0.1107
  103POPC   C4A 1725   6.716   9.506   8.269 -0.0818  0.1207  0.1728
  103POPC   C1B 1726   7.313   9.604   8.969  0.0906  0.0734 -0.1176
  103POPC   C2B 1727   7.377   9.653   8.476 -0.1352  0.0304  0.1133
  103POPC   C3B 1728   7.358   9.512   8.085 -0.0323 -0.2260  0.1706
  103POPC   C4B 1729   6.939   9.363   7.815  0.1514 -0.0179 -0.0955
  104POPC   NC3 1730   2.317   7.607   9.001 -0.0127  0.3923 -0.2142
  104POPC   PO4 1731   2.341   7.387   8.593 -0.1951 -0.2214  0.1946
  104POPC   GL1 1732   2.070   7.254   8.311 -0.0338 -0.1393 -0.0110
  104POPC   GL2 1733   1.696   7.104   8.500 -0.1968  0.1735  0.1360
  104POPC   C1A 1734   1.711   7.375   7.950 -0.0050 -0.0684  0.0734
  104POPC   D2A 1735   1.479   7.820   7.900 -0.1349  0.0472 -0.1708
  104POPC   C3A 1736   1.194   7.907   7.447 -0.3068  0.2622  0.1472
  104POPC   C4A 1737   0.916   8.052   7.013  0.0865  0.0686 -0.1494
  104POPC   C1B 1738   1.786   6.888   8.168  0.1391 -0.0398  0.2455
  104POPC   C2B 1739   1.879   6.945   7.708  0.0812 -0.3346 -0.0082
  104POPC   C3B 1740   2.017   7.188   7.271  0.1950  0.1621 -0.0434
  104POPC   C4B 1741   2.132   7.031   6.865 -0.0484  0.0168 -0.0524
  105POPC   NC3 1742   3.126   8.890  10.250 -0.0998  0.3769  0.0890
  105POPC   PO4 1743   3.310   9.251  10.076  0.1623  0.1566 -0.1499
  105POPC   GL1 1744   3.390   9.489   9.610  0.0494 -0.1112  0.3105
  105POPC   GL2 1745   3.444   9.160   9.408 -0.1205 -0.0803  0.0680
  105POPC   C1A 1746   3.671   9.572   9.262 -0.1788 -0.0019 -0.2385
  105POPC   D2A 1747   3.951   9.451   8.940 -0.0945 -0.1624 -0.2007
  105POPC   C3A 1748   3.828   9.378   8.516 -0.0252 -0.0781 -0.3388
  105POPC   C4A 1749   3.870   9.555   8.136 -0.1320 -0.3762 -0.3033
  105POPC   C1B 1750   3.300   9.455   9.015  0.1391 -0.2310  0.1306
  105POPC   C2B 1751   3.544   9.716   8.786 -0.1110 -0.3002 -0.1479
  105POPC   C3B 1752   3.782   9.899   8.499 -0.3144  0.1226 -0.2753
  105POPC   C4B 1753   3.686  10.224   8.185 -0.0368 -0.1369 -0.3881
  106POPC   NC3 1754   6.474   6.120   8.487 -0.1926 -0.1620 -0.0550
  106POPC   PO4 1755   6.378   6.474   8.735  0.2637  0.1798 -0.0618
  106POPC   GL1 1756   6.730   6.596   8.321  0.0606  0.2578 -0.0538
  106POPC   GL2 1757   7.092   6.578   8.275  0.1875 -0.0228 -0.1550
  106POPC   C1A 1758   6.726   7.031   8.014  0.0541  0.0949  0.0488
  106POPC   D2A 1759   6.484   7.401   7.873  0.0730 -0.0079 -0.1830
  106POPC   C3A 1760   6.558   7.364   7.417  0.0941  0.1504  0.0460
  106POPC   C4A 1761   6.232   7.420   7.157 -0.0444 -0.0574 -0.2765
  106POPC   C1B 1762   7.104   6.781   7.863 -0.0653 -0.1658 -0.2112
  106POPC   C2B 1763   6.995   6.974   7.417  0.0161  0.4115 -0.0104
  106POPC   C3B 1764   6.975   7.255   6.971 -0.0196 -0.1975  0.1596
  106POPC   C4B 1765   6.685   7.580   6.874  0.2627  0.0788  0.1110
  107POPC   NC3 1766   0.429   1.442   9.177  0.2878 -0.2440  0.1757
  107POPC   PO4 1767   0.191   1.418   8.852  0.2150 -0.1680  0.0616
  107POPC   GL1 1768   0.252   1.377   8.328  0.0157  0.3492  0.1443
  107POPC   GL2 1769  -0.029   1.241   8.205 -0.0410  0.0189  0.1044
  107POPC   C1A 1770   0.312   1.613   7.959 -0.2779  0.0746  0.0893
  107POPC   D2A 1771   0.306   1.525   7.447  0.0985 -0.0834 -0.0528
  107POPC   C3A 1772   0.731   1.588   7.257 -0.1362  0.3157 -0.0933
  107POPC   C4A 1773   1.122   1.888   7.281 -0.2438  0.1404 -0.1496
  107POPC   C1B 1774  -0.101   1.400   7.791  0.2112 -0.0164 -0.0325
  107POPC   C2B 1775  -0.071   1.168   7.273 -0.2974  0.1845 -0.1165
  107POPC   C3B 1776  -0.370   1.037   7.041  0.1727 -0.0862  0.0831
  107POPC   C4B 1777  -0.809   1.219   7.029 -0.1438 -0.0548 -0.0988
  108POPC   NC3 1778   3.762   4.918   8.460  0.0926 -0.1578 -0.0263
  108POPC   PO4 1779   3.482   5.232   8.543  0.6076  0.0714 -0.0725
  108POPC   GL1 1780   3.498   5.303   8.070 -0.1966 -0.1925 -0.0008
  108POPC   GL2 1781   3.725   5.487   7.832  0.1159 -0.1217  0.0452
  108POPC   C1A 1782   3.544   5.005   7.702  0.3042 -0.1944  0.0676
  108POPC   D2A 1783   3.651   5.111   7.330 -0.1579 -0.0518 -0.0996
  108POPC   C3A 1784   3.242   5.226   7.082 -0.1195  0.0032 -0.0361
  108POPC   C4A 1785   2.861   5.393   6.950  0.0195  0.0427  0.1736
  108POPC   C1B 1786   3.555   5.629   7.561 -0.1884  0.1214  0.0915
  108POPC   C2B 1787   3.669   6.069   7.249  0.1819 -0.0991  0.0665
  108POPC   C3B 1788   3.973   6.369   6.896 -0.1628 -0.0998  0.1048
  108POPC   C4B 1789   4.148   6.299   6.466  0.1949  0.1477 -0.2387
  109POPC   NC3 1790   1.145   1.307   8.718  0.2195  0.2829 -0.2306
  109POPC   PO4 1791   1.574   1.234   8.807 -0.3128 -0.0554 -0.2287
  109POPC   GL1 1792   1.503   1.243   8.380  0.0217 -0.1073 -0.2663
  109POPC   GL2 1793   1.564   0.960   8.309  0.2376 -0.2282  0.3172
  109POPC   C1A 1794   1.320   1.388   7.991 -0.0573  0.2109  0.0143
  109POPC   D2A 1795   1.464   1.805   7.773 -0.2171 -0.1690  0.0992
  109POPC   C3A 1796   1.827   1.818   7.575  0.2219  0.2375 -0.1223
  109POPC   C4A 1797   2.317   1.663   7.414  0.2243  0.0405 -0.3048
  109POPC   C1B 1798   1.637   0.896   7.916  0.1153 -0.0079  0.2191
  109POPC   C2B 1799   1.579   0.875   7.556  0.4369 -0.3041  0.1483
  109POPC   C3B 1800   1.521   0.681   7.205 -0.0468  0.2058 -0.1174
  109POPC   C4B 1801   1.297   0.307   7.207  0.0136 -0.0449 -0.0225
  110POPC   NC3 1802   3.051   5.577   8.789 -0.0604  0.0678 -0.5261
  110POPC   PO4 1803   3.317   5.761   8.306  0.1102  0.1765 -0.1091
  110POPC   GL1 1804   3.462   6.067   8.053  0.1200  0.3031  0.0754
  110POPC   GL2 1805   3.444   6.401   8.016  0.3179  0.3560 -0.2727
  110POPC   C1A 1806   3.764   6.231   7.728 -0.2438 -0.0224 -0.2255
  110POPC   D2A 1807   4.088   6.392   7.414  0.2018 -0.2350 -0.0740
  110POPC   C3A 1808   4.169   5.966   7.229  0.1516 -0.0611  0.2536
  110POPC   C4A 1809   4.349   5.567   6.995 -0.0536 -0.1245  0.0542
  110POPC   C1B 1810   3.244   6.193   7.626 -0.1704 -0.4460  0.1081
  110POPC   C2B 1811   3.060   6.180   7.166  0.0592  0.1507 -0.2145
  110POPC   C3B 1812   3.168   6.347   6.755 -0.0924 -0.3384 -0.0437
  110POPC   C4B 1813   3.208   6.494   6.372  0.1195  0.2643 -0.0431
  111POPC   NC3 1814   3.056   1.334   8.702 -0.2735  0.0877  0.0925
  111POPC   PO4 1815   3.434   1.269   8.963 -0.2881 -0.1827  0.5342
  111POPC   GL1 1816   3.560   1.308   8.507  0.3118 -0.2071 -0.1473
  111POPC   GL2 1817   3.442   1.066   8.410  0.3256 -0.1646  0.2568
  111POPC   C1A 1818   3.490   1.513   8.025  0.0631 -0.4298  0.0263
  111POPC   D2A 1819   3.724   1.535   7.622  0.0846 -0.1819  0.2921
  111POPC   C3A 1820   4.022   1.156   7.463  0.0008 -0.2769 -0.2359
  111POPC   C4A 1821   4.169   0.728   7.297  0.2127 -0.3008  0.1862
  111POPC   C1B 1822   3.406   0.940   8.026  0.4017 -0.0520  0.2965
  111POPC   C2B 1823   3.069   0.795   7.672  0.3183  0.1865 -0.0048
  111POPC   C3B 1824   3.188   0.577   7.231  0.0572 -0.2518  0.1174
  111POPC   C4B 1825   3.233   0.106   7.099  0.0905  0.1534  0.0366
  112POPC   NC3 1826   2.600   0.542   9.017 -0.2516  0.1998 -0.0695
  112POPC   PO4 1827   2.932   0.923   9.028 -0.1454  0.0884  0.0384
  112POPC   GL1 1828   2.938   0.900   8.579 -0.0614 -0.1110  0.1499
  112POPC   GL2 1829   2.744   0.636   8.445 -0.1311  0.0163 -0.2724
  112POPC   C1A 1830   2.958   1.059   8.113 -0.1334 -0.0898  0.0193
  112POPC   D2A 1831   3.172   1.296   7.774 -0.4321 -0.3408 -0.0323
  112POPC   C3A 1832   3.307   1.402   7.362 -0.1064  0.0665  0.1055
  112POPC   C4A 1833   3.641   1.603   7.047 -0.1302 -0.1223 -0.0669
  112POPC   C1B 1834   2.827   0.485   8.008 -0.0902  0.1048  0.0668
  112POPC   C2B 1835   2.870   0.252   7.563  0.1918 -0.1632  0.0099
  112POPC   C3B 1836   2.861  -0.166   7.189  0.1636 -0.1813 -0.0149
  112POPC   C4B 1837   2.669  -0.285   6.694  0.1225 -0.2288  0.2268
  113POPC   NC3 1838   5.177   8.222  10.116  0.2286 -0.0734 -0.0336
  113POPC   PO4 1839   4.872   8.241  10.003  0.2674 -0.0992  0.0708
  113POPC   GL1 1840   4.876   8.266   9.581  0.3754 -0.1763  0.1356
  113POPC   GL2 1841   5.147   8.393   9.515  0.0838  0.0634  0.1210
  113POPC   C1A 1842   4.867   8.138   9.097 -0.0776  0.1001  0.1430
  113POPC   D2A 1843   4.785   8.109   8.664  0.0654 -0.0608 -0.1274
  113POPC   C3A 1844   4.343   7.907   8.551 -0.1049 -0.2807  0.2079
  113POPC   C4A 1845   3.948   7.628   8.467 -0.1566  0.2863 -0.3083
  113POPC   C1B 1846   5.289   8.554   9.164 -0.2054 -0.1079  0.0048
  113POPC   C2B 1847   5.563   8.681   8.801  0.0855 -0.1164  0.0789
  113POPC   C3B 1848   5.662   9.009   8.449  0.0914  0.3982  0.0691
  113POPC   C4B 1849   5.933   9.372   8.352 -0.3979  0.1678  0.1666
  114POPC   NC3 1850   5.282   7.550   9.887  0.3247 -0.1657 -0.0549
  114POPC   PO4 1851   5.288   7.946   9.640  0.2828  0.1199 -0.0498
  114POPC   GL1 1852   5.332   7.967   9.204  0.0722 -0.0622 -0.6219
  114POPC   GL2 1853   5.333   7.556   9.207  0.0930  0.0203 -0.1494
  114POPC   C1A 1854   5.754   8.278   9.054  0.1431 -0.0098 -0.0905
  114POPC   D2A 1855   6.088   8.635   8.917 -0.2773 -0.1125 -0.2654
  114POPC   C3A 1856   6.255   8.809   8.584 -0.0274 -0.1947 -0.0639
  114POPC   C4A 1857   6.111   8.845   8.180  0.0059  0.1265 -0.2153
  114POPC   C1B 1858   4.940   7.476   9.054 -0.0878  0.0408  0.0751
  114POPC   C2B 1859   4.722   7.148   8.856  0.3038  0.0326 -0.0901
  114POPC   C3B 1860   4.394   6.900   8.493 -0.2098  0.1690  0.0402
  114POPC   C4B 1861   4.044   7.069   8.187  0.0944 -0.0390  0.3495
  115POPC   NC3 1862   7.006   3.073   8.875 -0.0955 -0.1371 -0.0536
  115POPC   PO4 1863   6.856   2.694   8.665  0.1639 -0.2345  0.0089
  115POPC   GL1 1864   6.809   2.259   8.469 -0.2109 -0.0468  0.3357
  115POPC   GL2 1865   7.124   2.007   8.519  0.0143  0.2744 -0.0909
  115POPC   C1A 1866   6.742   2.048   8.020  0.4289  0.0279 -0.0120
  115POPC   D2A 1867   6.502   2.000   7.620  0.4425  0.0501 -0.0602
  115POPC   C3A 1868   6.518   2.409   7.267 -0.0535  0.1207  0.1734
  115POPC   C4A 1869   6.526   2.850   7.112  0.1749  0.0758  0.1551
  115POPC   C1B 1870   6.897   1.603   8.366  0.1122  0.0216 -0.0557
  115POPC   C2B 1871   6.862   1.447   7.982 -0.0958 -0.1566  0.2598
  115POPC   C3B 1872   6.941   1.476   7.553  0.1746  0.1416 -0.1046
  115POPC   C4B 1873   6.805   1.627   7.182 -0.0680 -0.1251 -0.0670
  116POPC   NC3 1874   9.145   4.879   8.103  0.0075  0.2664  0.7131
  116POPC   PO4 1875   8.775   4.684   8.172  0.0390 -0.1583  0.1363
  116POPC   GL1 1876   8.830   4.708   7.698 -0.2339 -0.0271 -0.0316
  116POPC   GL2 1877   9.086   4.484   7.633 -0.1795 -0.0798  0.1598
  116POPC   C1A 1878   8.960   4.936   7.308 -0.1928  0.1080 -0.2691
  116POPC   D2A 1879   9.241   5.243   7.106  0.2552  0.2132 -0.1866
  116POPC   C3A 1880   9.283   5.024   6.680  0.1199  0.0584 -0.1709
  116POPC   C4A 1881   9.321   4.599   6.607  0.1651 -0.0495  0.0488
  116POPC   C1B 1882   9.291   4.460   7.269  0.2871 -0.1227 -0.0296
  116POPC   C2B 1883   9.644   4.319   6.946 -0.1378  0.1672  0.2700
  116POPC   C3B 1884   9.958   4.082   7.148 -0.0172  0.1994 -0.1014
  116POPC   C4B 1885  10.356   3.947   7.168  0.2384 -0.1801 -0.1527
  117POPC   NC3 1886   0.721   2.186   8.700  0.1752 -0.1470 -0.0531
  117POPC   PO4 1887   0.909   1.801   8.749 -0.0670 -0.2414 -0.1327
  117POPC   GL1 1888   1.078   2.056   8.409 -0.2170 -0.1695  0.1156
  117POPC   GL2 1889   1.171   2.382   8.258  0.3196 -0.2266 -0.2070
  117POPC   C1A 1890   0.973   1.922   8.001 -0.1802  0.1163 -0.0314
  117POPC   D2A 1891   0.774   1.675   7.751 -0.0618  0.0768 -0.2301
  117POPC   C3A 1892   1.126   1.484   7.564 -0.3666 -0.3635  0.0221
  117POPC   C4A 1893   1.161   1.137   7.308 -0.1218 -0.0039 -0.2509
  117POPC   C1B 1894   1.252   2.334   7.791 -0.3167  0.1460 -0.2005
  117POPC   C2B 1895   1.100   2.377   7.385  0.0965 -0.1780 -0.0483
  117POPC   C3B 1896   0.828   2.753   7.312 -0.0040 -0.1371 -0.1236
  117POPC   C4B 1897   0.260   2.881   7.192 -0.1662 -0.2803  0.2676
  118POPC   NC3 1898   1.571   4.444   8.819 -0.1272  0.0293  0.0684
  118POPC   PO4 1899   1.822   4.126   8.632 -0.1141 -0.0757 -0.0884
  118POPC   GL1 1900   1.942   4.056   8.250 -0.1269  0.0788 -0.0337
  118POPC   GL2 1901   2.273   4.184   8.133  0.1570  0.0949 -0.0448
  118POPC   C1A 1902   1.772   4.075   7.893  0.2183  0.2624  0.2500
  118POPC   D2A 1903   1.633   3.742   7.559 -0.2785 -0.0412 -0.2504
  118POPC   C3A 1904   1.798   3.691   7.144 -0.0381 -0.1349 -0.0279
  118POPC   C4A 1905   1.649   3.663   6.718  0.0977 -0.2930  0.0367
  118POPC   C1B 1906   2.210   4.465   7.755 -0.0945  0.1747  0.3567
  118POPC   C2B 1907   2.297   4.609   7.399  0.0275  0.1025  0.2124
  118POPC   C3B 1908   2.446   4.532   6.902 -0.1824 -0.0150 -0.2483
  118POPC   C4B 1909   2.285   4.542   6.469 -0.0153 -0.0678  0.0143
  119POPC   NC3 1910   4.837   2.090   9.039  0.0314 -0.0563 -0.0830
  119POPC   PO4 1911   4.789   2.411   8.753  0.3284  0.1719 -0.2718
  119POPC   GL1 1912   4.674   2.536   8.347 -0.1704  0.0447  0.0269
  119POPC   GL2 1913   4.370   2.785   8.349 -0.1673 -0.0478  0.1059
  119POPC   C1A 1914   4.515   2.210   7.956 -0.0630 -0.2614  0.4128
  119POPC   D2A 1915   4.488   2.102   7.553 -0.3074  0.2671  0.0456
  119POPC   C3A 1916   4.716   1.806   7.384 -0.1186 -0.0425 -0.1992
  119POPC   C4A 1917   4.823   1.457   7.233 -0.0713  0.0251 -0.0477
  119POPC   C1B 1918   4.446   2.858   7.997 -0.2682 -0.0724  0.0289
  119POPC   C2B 1919   4.728   2.621   7.732  0.1329  0.0264 -0.2701
  119POPC   C3B 1920   4.588   2.548   7.385 -0.2585 -0.1308 -0.2759
  119POPC   C4B 1921   4.600   2.369   7.079  0.1070 -0.0038  0.1003
  120POPC   NC3 1922   8.959   0.539   8.771 -0.1694 -0.0728  0.1207
  120POPC   PO4 1923   8.599   0.329   8.898  0.2320  0.1248 -0.1003
  120POPC   GL1 1924   8.500   0.379   8.494  0.1237  0.0977  0.0514
  120POPC   GL2 1925   8.358   0.213   8.435  0.1829  0.3451  0.0735
  120POPC   C1A 1926   8.826   0.361   8.115  0.0616 -0.2647  0.0016
  120POPC   D2A 1927   9.215   0.120   7.962  0.0953 -0.0155 -0.0217
  120POPC   C3A 1928   9.184  -0.257   7.716 -0.0620  0.2438  0.1309
  120POPC   C4A 1929   9.149  -0.422   7.301  0.0311  0.0039  0.1442
  120POPC   C1B 1930   8.543  -0.026   8.151  0.3316  0.1456  0.0241
  120POPC   C2B 1931   8.603  -0.019   7.712  0.1270  0.1810  0.0656
  120POPC   C3B 1932   8.715  -0.078   7.303  0.1504  0.1114 -0.0445
  120POPC   C4B 1933   8.735   0.043   6.909  0.0540  0.2873  0.0541
  121POPC   NC3 1934   4.692   5.897   8.356 -0.3493 -0.0962 -0.3936
  121POPC   PO4 1935   4.292   5.751   8.370 -0.0231 -0.1796 -0.2731
  121POPC   GL1 1936   4.319   5.791   7.934  0.0446  0.2319 -0.0610
  121POPC   GL2 1937   4.016   5.814   7.751 -0.1909 -0.1386  0.0156
  121POPC   C1A 1938   4.577   5.894   7.501  0.1981  0.0391  0.1784
  121POPC   D2A 1939   4.871   5.708   7.096  0.1171  0.2135  0.0839
  121POPC   C3A 1940   5.032   5.266   6.896  0.4034 -0.0223  0.1151
  121POPC   C4A 1941   5.134   5.039   6.520  0.4239  0.0683 -0.0901
  121POPC   C1B 1942   3.974   5.565   7.385 -0.1783  0.1499 -0.2130
  121POPC   C2B 1943   3.775   5.628   7.072 -0.0470 -0.0695  0.0269
  121POPC   C3B 1944   3.417   5.563   6.668  0.0729 -0.3393 -0.0105
  121POPC   C4B 1945   3.081   5.756   6.720 -0.0968  0.2716  0.3128
  122POPC   NC3 1946   1.875   5.565   9.087 -0.0181 -0.2533 -0.4101
  122POPC   PO4 1947   1.760   5.927   8.820 -0.0199  0.0510  0.0114
  122POPC   GL1 1948   1.424   6.042   8.520  0.2798  0.0534  0.2860
  122POPC   GL2 1949   1.533   6.112   8.189  0.0511 -0.1874 -0.0514
  122POPC   C1A 1950   1.402   5.622   8.207  0.1977  0.1996  0.2494
  122POPC   D2A 1951   1.517   5.651   7.803 -0.0326 -0.0169 -0.1303
  122POPC   C3A 1952   1.618   5.344   7.533  0.2596 -0.1349  0.1639
  122POPC   C4A 1953   1.546   4.995   7.237  0.1379  0.1609  0.1899
  122POPC   C1B 1954   1.905   5.857   8.164 -0.2360 -0.3039 -0.0568
  122POPC   C2B 1955   2.329   5.688   8.063  0.0963  0.2731  0.1080
  122POPC   C3B 1956   2.763   5.548   8.171  0.1182 -0.1712 -0.1902
  122POPC   C4B 1957   3.044   5.216   7.897  0.0274  0.1373  0.0653
  123POPC   NC3 1958   7.038   6.887   9.102 -0.2911  0.0546 -0.0909
  123POPC   PO4 1959   7.514   6.707   9.168 -0.2265  0.0959 -0.0133
  123POPC   GL1 1960   7.428   6.988   8.804 -0.4066 -0.1807  0.1375
  123POPC   GL2 1961   7.257   7.301   8.827 -0.2184  0.1768  0.0104
  123POPC   C1A 1962   7.548   6.882   8.368  0.1535 -0.0462 -0.3856
  123POPC   D2A 1963   7.681   6.851   7.952 -0.2239 -0.0054 -0.1698
  123POPC   C3A 1964   7.495   6.973   7.613  0.0547 -0.0377 -0.2306
  123POPC   C4A 1965   7.365   7.280   7.300  0.1136 -0.1481 -0.0810
  123POPC   C1B 1966   7.141   7.244   8.507  0.0369 -0.3442 -0.2238
  123POPC   C2B 1967   7.208   7.186   8.139 -0.3030 -0.1143  0.3127
  123POPC   C3B 1968   7.024   7.371   7.774  0.0573 -0.1961 -0.0906
  123POPC   C4B 1969   6.912   7.636   7.325  0.3654  0.0907 -0.1033
  124POPC   NC3 1970   8.602   1.491   8.865 -0.3545 -0.1840 -0.1229
  124POPC   PO4 1971   8.227   1.213   8.745 -0.0463 -0.0216 -0.0478
  124POPC   GL1 1972   8.016   1.327   8.396 -0.2061  0.2480  0.1239
  124POPC   GL2 1973   7.968   1.573   8.258 -0.0787  0.0580 -0.0952
  124POPC   C1A 1974   8.360   1.417   7.992 -0.1640 -0.1738 -0.0227
  124POPC   D2A 1975   8.383   1.598   7.517 -0.4152  0.1545  0.0477
  124POPC   C3A 1976   8.145   1.918   7.413 -0.1331 -0.5763 -0.3650
  124POPC   C4A 1977   7.906   2.357   7.509 -0.0040  0.0084  0.1074
  124POPC   C1B 1978   7.961   1.464   7.743 -0.4127 -0.0130 -0.0643
  124POPC   C2B 1979   7.990   1.356   7.384  0.0430 -0.3031 -0.0635
  124POPC   C3B 1980   7.916   1.463   7.054 -0.1827 -0.2224 -0.0942
  124POPC   C4B 1981   7.619   1.277   6.765  0.2765 -0.0605  0.1379
  125POPC   NC3 1982   2.243   9.758   8.781 -0.0596  0.0281  0.2213
  125POPC   PO4 1983   2.567  10.000   9.075  0.2641  0.0083  0.1598
  125POPC   GL1 1984   2.797  10.187   8.689 -0.0317  0.2384 -0.0775
  125POPC   GL2 1985   2.565  10.165   8.525  0.1349  0.3879 -0.2156
  125POPC   C1A 1986   3.282  10.132   8.506  0.0156  0.2540  0.0244
  125POPC   D2A 1987   3.343   9.700   8.208 -0.0311  0.1978 -0.2636
  125POPC   C3A 1988   3.296   9.374   8.454  0.2043 -0.0442 -0.4335
  125POPC   C4A 1989   3.463   9.087   8.680 -0.1511  0.0496  0.0067
  125POPC   C1B 1990   2.724   9.931   8.228  0.0593 -0.0696  0.0423
  125POPC   C2B 1991   2.514   9.729   7.863  0.1776 -0.2844 -0.1681
  125POPC   C3B 1992   2.367   9.575   7.425 -0.0279  0.0120 -0.0616
  125POPC   C4B 1993   2.458   9.395   7.132 -0.0627 -0.1042 -0.0750
  126POPC   NC3 1994   5.864   5.067   8.771  0.0592  0.4127  0.0127
  126POPC   PO4 1995   5.549   5.023   8.483 -0.1077 -0.0772 -0.2146
  126POPC   GL1 1996   5.557   5.002   8.033 -0.1775  0.1799 -0.0454
  126POPC   GL2 1997   5.586   4.658   8.104 -0.0797  0.1086  0.2059
  126POPC   C1A 1998   5.577   5.203   7.603  0.0513 -0.0392  0.1731
  126POPC   D2A 1999   5.744   5.574   7.310  0.1438 -0.0255 -0.1932
  126POPC   C3A 2000   5.471   5.518   6.992 -0.0152  0.2878 -0.1130
  126POPC   C4A 2001   5.299   5.565   6.536  0.0331 -0.2828  0.0198
  126POPC   C1B 2002   5.687   4.706   7.604  0.1232 -0.2960 -0.0116
  126POPC   C2B 2003   5.840   4.845   7.240 -0.2202  0.1350  0.1182
  126POPC   C3B 2004   5.739   4.741   6.801 -0.1900 -0.0282 -0.0485
  126POPC   C4B 2005   5.821   4.803   6.424 -0.0290  0.0743  0.0735
  127POPC   NC3 2006   8.668   4.315   8.489 -0.0366 -0.3852 -0.0920
  127POPC   PO4 2007   8.291   4.022   8.510 -0.2059 -0.0275 -0.1834
  127POPC   GL1 2008   8.476   3.818   8.196 -0.1458 -0.2352 -0.0919
  127POPC   GL2 2009   8.647   3.412   8.166  0.2471  0.0078  0.1290
  127POPC   C1A 2010   8.435   3.584   7.781 -0.1505  0.3234 -0.2260
  127POPC   D2A 2011   8.527   3.506   7.419 -0.1370  0.3760  0.3871
  127POPC   C3A 2012   8.396   3.790   7.128 -0.0543  0.0294  0.1290
  127POPC   C4A 2013   8.253   3.736   6.704 -0.2121 -0.2534 -0.2120
  127POPC   C1B 2014   8.803   3.241   7.719 -0.1469 -0.2588 -0.0931
  127POPC   C2B 2015   8.942   3.076   7.292  0.0831 -0.0281  0.2717
  127POPC   C3B 2016   9.357   3.061   7.026  0.1102 -0.0627  0.1046
  127POPC   C4B 2017   9.636   2.897   6.733 -0.1628  0.3432  0.0002
  128POPC   NC3 2018   2.585   9.682   9.476 -0.0364  0.0642 -0.0028
  128POPC   PO4 2019   2.998   9.888   9.552  0.0044  0.0703 -0.1760
  128POPC   GL1 2020   3.068   9.976   9.086 -0.1064 -0.1995  0.1105
  128POPC   GL2 2021   3.223  10.382   8.961  0.0133 -0.2403  0.1368
  128POPC   C1A 2022   2.958   9.735   8.653 -0.1886 -0.1180 -0.1493
  128POPC   D2A 2023   2.803   9.341   8.502 -0.0690 -0.1623  0.2231
  128POPC   C3A 2024   2.726   9.257   8.000 -0.0766  0.1076  0.1932
  128POPC   C4A 2025   2.844   9.254   7.560  0.0214  0.0152 -0.1024
  128POPC   C1B 2026   3.602  10.180   8.875 -0.2117 -0.0108  0.0281
  128POPC   C2B 2027   4.007   9.985   9.007  0.1155  0.1542  0.2909
  128POPC   C3B 2028   4.367  10.104   9.194  0.2354 -0.0069 -0.3157
  128POPC   C4B 2029   4.791  10.034   9.396 -0.2495 -0.1289 -0.2589
  129POPC   NC3 2030   5.093   5.175   8.675  0.1948  0.2998  0.2260
  129POPC   PO4 2031   4.742   4.935   8.611 -0.0355  0.4644  0.0675
  129POPC   GL1 2032   4.665   4.917   8.169  0.3621  0.4458 -0.0736
  129POPC   GL2 2033   4.662   5.103   7.821  0.2565 -0.4028 -0.1204
  129POPC   C1A 2034   4.810   4.586   7.828  0.3804  0.2571 -0.0397
  129POPC   D2A 2035   4.768   4.351   7.366 -0.2725 -0.2247  0.0605
  129POPC   C3A 2036   4.885   3.979   7.179  0.0618 -0.0570 -0.2526
  129POPC   C4A 2037   4.905   3.737   6.768 -0.1779 -0.3443 -0.0246
  129POPC   C1B 2038   4.773   5.198   7.389  0.1486 -0.0705  0.3524
  129POPC   C2B 2039   4.974   4.869   7.175 -0.1353 -0.3834 -0.1086
  129POPC   C3B 2040   4.686   4.617   6.814  0.0099 -0.3081 -0.1355
  129POPC   C4B 2041   4.683   4.221   6.718 -0.1459  0.0775 -0.2453
  130POPC   NC3 2042   1.105   3.775   8.277  0.0788  0.1118 -0.1143
  130POPC   PO4 2043   1.444   3.542   8.107  0.0771 -0.3104  0.4742
  130POPC   GL1 2044   1.234   3.848   7.746 -0.2610  0.0723 -0.1367
  130POPC   GL2 2045   0.957   3.568   7.787 -0.2517 -0.0695 -0.1976
  130POPC   C1A 2046   1.110   3.718   7.279  0.0622  0.1268 -0.0278
  130POPC   D2A 2047   0.740   3.673   7.051  0.2431 -0.0617 -0.0492
  130POPC   C3A 2048   0.551   3.743   6.669  0.2462 -0.0442  0.1260
  130POPC   C4A 2049   0.348   4.086   6.682  0.1958  0.3339  0.5157
  130POPC   C1B 2050   0.662   3.713   7.640 -0.0511 -0.2919  0.0915
  130POPC   C2B 2051   0.455   3.963   7.351 -0.2173 -0.1990  0.3035
  130POPC   C3B 2052   0.172   4.316   7.163 -0.1619  0.2236  0.2008
  130POPC   C4B 2053   0.240   4.530   6.797  0.0702  0.1469  0.0745
  131POPC   NC3 2054   1.100   9.155   8.782  0.3738  0.1855 -0.1932
  131POPC   PO4 2055   1.325   9.617   8.715 -0.3171  0.1319  0.1431
  131POPC   GL1 2056   1.338   9.715   8.240 -0.4261 -0.3125  0.1176
  131POPC   GL2 2057   1.301   9.984   8.173  0.1736  0.0308  0.0975
  131POPC   C1A 2058   1.220   9.549   7.864  0.2096  0.0990  0.3949
  131POPC   D2A 2059   1.156   9.347   7.399  0.2758  0.1918  0.1142
  131POPC   C3A 2060   0.832   9.120   7.110  0.0774 -0.2229 -0.2943
  131POPC   C4A 2061   0.388   9.133   7.009  0.0294 -0.1830  0.1336
  131POPC   C1B 2062   1.174  10.089   7.799 -0.1335 -0.0409  0.0683
  131POPC   C2B 2063   0.880   9.928   7.473 -0.2592 -0.1839 -0.0167
  131POPC   C3B 2064   0.443   9.958   7.498 -0.0665  0.1201 -0.1622
  131POPC   C4B 2065   0.019   9.844   7.704  0.0598 -0.0556 -0.0980
  132POPC   NC3 2066   6.761  10.366   9.962 -0.4931  0.0690  0.0991
  132POPC   PO4 2067   6.565  10.702   9.748  0.0572 -0.0534 -0.2466
  132POPC   GL1 2068   6.399  10.651   9.305 -0.1101  0.1160  0.1319
  132POPC   GL2 2069   6.483  10.333   9.102  0.0265 -0.0097 -0.0727
  132POPC   C1A 2070   6.019  10.569   9.120  0.0392 -0.0670  0.1383
  132POPC   D2A 2071   5.664  10.362   8.863 -0.0382  0.1804 -0.0184
  132POPC   C3A 2072   5.710  10.409   8.421  0.0785  0.3159 -0.0492
  132POPC   C4A 2073   5.959  10.406   8.103  0.1394 -0.0378 -0.2936
  132POPC   C1B 2074   6.495  10.619   8.720  0.0422  0.0843  0.1039
  132POPC   C2B 2075   6.206  10.717   8.406 -0.0046 -0.3767  0.0139
  132POPC   C3B 2076   6.126  11.020   8.210 -0.3319 -0.1459  0.2121
  132POPC   C4B 2077   5.906  11.033   7.837 -0.0239  0.1276 -0.1299
  133POPC   NC3 2078   7.775   3.832   8.690  0.3081  0.0295  0.1562
  133POPC   PO4 2079   7.725   3.393   8.628  0.0544 -0.0177 -0.0580
  133POPC   GL1 2080   7.374   3.219   8.354 -0.0950  0.0996  0.1031
  133POPC   GL2 2081   7.096   2.959   8.327 -0.0688 -0.0204 -0.0411
  133POPC   C1A 2082   7.069   3.366   8.051 -0.2814 -0.0030 -0.1354
  133POPC   D2A 2083   6.612   3.245   7.951  0.1774 -0.2939 -0.0640
  133POPC   C3A 2084   6.539   2.890   7.734  0.5661 -0.3089  0.1659
  133POPC   C4A 2085   6.622   2.472   7.811  0.0940 -0.0925 -0.0938
  133POPC   C1B 2086   7.505   2.686   8.051  0.0161 -0.1609 -0.1786
  133POPC   C2B 2087   7.899   2.714   7.853  0.0618  0.0539  0.0186
  133POPC   C3B 2088   7.935   2.848   7.387 -0.2465  0.1253  0.1284
  133POPC   C4B 2089   7.529   2.811   7.116 -0.0287 -0.1145 -0.0020
  134POPC   NC3 2090   2.058   1.694   8.214 -0.3639 -0.0844  0.0003
  134POPC   PO4 2091   2.429   1.472   8.289 -0.0376  0.0812  0.1241
  134POPC   GL1 2092   2.488   1.506   7.841 -0.1640 -0.0989  0.1126
  134POPC   GL2 2093   2.702   1.835   7.800  0.1091  0.1852 -0.3643
  134POPC   C1A 2094   2.650   1.251   7.513  0.0720  0.1310 -0.3273
  134POPC   D2A 2095   2.980   1.050   7.241  0.2712 -0.1634 -0.0524
  134POPC   C3A 2096   3.048   1.109   6.890 -0.0009 -0.0362  0.0521
  134POPC   C4A 2097   3.317   1.309   6.621  0.2366  0.1645 -0.1557
  134POPC   C1B 2098   2.887   1.711   7.449 -0.3714 -0.0220  0.1767
  134POPC   C2B 2099   3.172   1.810   7.070 -0.1429 -0.1604  0.1610
  134POPC   C3B 2100   3.379   1.838   6.703 -0.0453  0.0495  0.1213
  134POPC   C4B 2101   3.361   2.058   6.244 -0.1987  0.1682  0.1368
  135POPC   NC3 2102   3.171   6.288   9.253 -0.1034 -0.0902  0.1567
  135POPC   PO4 2103   2.994   6.393   8.993  0.0824  0.1057 -0.1792
  135POPC   GL1 2104   3.095   6.514   8.540  0.0472  0.1766 -0.0833
  135POPC   GL2 2105   3.528   6.741   8.447  0.2934 -0.0137 -0.0828
  135POPC   C1A 2106   2.882   6.233   8.113 -0.0188 -0.3183  0.1655
  135POPC   D2A 2107   2.710   6.126   7.676  0.3452  0.2078  0.1179
  135POPC   C3A 2108   2.635   6.388   7.347  0.1593  0.5276 -0.1265
  135POPC   C4A 2109   2.681   6.506   6.931 -0.1495  0.1577 -0.1415
  135POPC   C1B 2110   3.482   6.936   8.022 -0.2083 -0.4072 -0.3404
  135POPC   C2B 2111   3.387   6.763   7.638  0.2383 -0.2261  0.1982
  135POPC   C3B 2112   3.576   6.547   7.393 -0.1156  0.2495  0.1339
  135POPC   C4B 2113   3.619   6.718   6.959 -0.2180 -0.0905  0.1834
  136POPC   NC3 2114  10.347   6.211   8.457  0.0273  0.2010 -0.2525
  136POPC   PO4 2115  10.720   6.254   8.417  0.1148  0.0335 -0.2068
  136POPC   GL1 2116  10.625   6.286   8.011  0.3645  0.3693  0.1039
  136POPC   GL2 2117  10.675   6.556   7.940  0.1216 -0.0028 -0.1842
  136POPC   C1A 2118  10.694   5.959   7.620  0.1906 -0.0450 -0.2827
  136POPC   D2A 2119  11.084   5.748   7.482  0.2877 -0.4351  0.2225
  136POPC   C3A 2120  11.506   5.967   7.387 -0.1284  0.3334 -0.0945
  136POPC   C4A 2121  11.866   5.969   7.131  0.2835 -0.2086 -0.1929
  136POPC   C1B 2122  10.594   6.429   7.477 -0.4164  0.1241 -0.1045
  136POPC   C2B 2123  10.769   6.271   7.132 -0.1724  0.1195  0.0613
  136POPC   C3B 2124  11.185   6.084   7.034  0.2245  0.2020  0.2936
  136POPC   C4B 2125  11.555   6.379   7.061 -0.3134 -0.0063  0.1060
  137POPC   NC3 2126   0.313   8.921   9.058 -0.1337  0.0753 -0.2246
  137POPC   PO4 2127   0.016   9.202   8.908 -0.1924  0.0467 -0.3637
  137POPC   GL1 2128  -0.076   9.100   8.548  0.0247 -0.0083 -0.0466
  137POPC   GL2 2129  -0.227   8.840   8.493  0.1924  0.0452 -0.2027
  137POPC   C1A 2130   0.224   9.130   8.137 -0.1125 -0.1294 -0.1386
  137POPC   D2A 2131   0.542   9.063   7.979  0.0104 -0.2338  0.0552
  137POPC   C3A 2132   0.819   9.075   7.732  0.0152  0.0430  0.3192
  137POPC   C4A 2133   1.330   9.020   7.797 -0.0106  0.1064 -0.1832
  137POPC   C1B 2134  -0.047   8.661   8.206  0.2623 -0.3511  0.0356
  137POPC   C2B 2135  -0.226   8.748   7.825 -0.1858 -0.1045 -0.3108
  137POPC   C3B 2136  -0.059   8.676   7.378  0.1463 -0.4536 -0.0130
  137POPC   C4B 2137   0.179   8.450   7.412  0.1213 -0.0283  0.0969
  138POPC   NC3 2138   5.815  10.451  10.159 -0.0805  0.0517  0.4147
  138POPC   PO4 2139   5.537  10.771   9.941 -0.1010  0.1358 -0.3420
  138POPC   GL1 2140   5.524  10.461   9.647  0.2013  0.0572 -0.1549
  138POPC   GL2 2141   5.613  10.033   9.819 -0.0317  0.2279 -0.1226
  138POPC   C1A 2142   5.733  10.190   9.343  0.0048 -0.1793 -0.2192
  138POPC   D2A 2143   6.025  10.058   9.051  0.2267 -0.1326 -0.2349
  138POPC   C3A 2144   5.957   9.720   8.736 -0.2286  0.0398  0.2451
  138POPC   C4A 2145   5.767   9.926   8.354 -0.0634 -0.1450 -0.0297
  138POPC   C1B 2146   5.640   9.633   9.546 -0.4012  0.2764 -0.2676
  138POPC   C2B 2147   5.831   9.509   9.196  0.0360  0.1571 -0.0541
  138POPC   C3B 2148   5.948   9.211   8.842  0.1417 -0.2262 -0.0236
  138POPC   C4B 2149   6.396   9.298   8.616 -0.0977  0.0704  0.1582
  139POPC   NC3 2150   3.643   9.597  10.027 -0.0522 -0.1432  0.1147
  139POPC   PO4 2151   3.772   9.193   9.872  0.1316 -0.1002 -0.6220
  139POPC   GL1 2152   3.938   8.842   9.596 -0.1674 -0.0758 -0.1807
  139POPC   GL2 2153   3.927   9.123   9.366 -0.1863  0.0282 -0.0824
  139POPC   C1A 2154   3.747   8.636   9.238 -0.2063 -0.4101  0.0778
  139POPC   D2A 2155   3.519   8.571   8.842  0.0078 -0.1018  0.1297
  139POPC   C3A 2156   3.722   8.232   8.739  0.2132 -0.0806  0.1972
  139POPC   C4A 2157   3.919   7.827   8.916  0.4561 -0.0088  0.0635
  139POPC   C1B 2158   4.289   9.148   9.140  0.0435  0.0945  0.0790
  139POPC   C2B 2159   4.419   9.092   8.808 -0.1379  0.1281 -0.2952
  139POPC   C3B 2160   4.794   9.354   8.650  0.0882 -0.2591  0.1218
  139POPC   C4B 2161   4.787   9.519   8.236 -0.1749  0.0888 -0.3108
  140POPC   NC3 2162   9.292   6.273   8.625  0.2002  0.4984  0.1870
  140POPC   PO4 2163   9.284   6.802   8.531  0.0788 -0.3729  0.2554
  140POPC   GL1 2164   9.649   6.706   8.203 -0.1906 -0.1704 -0.0810
  140POPC   GL2 2165   9.617   6.372   8.120  0.0285 -0.0371 -0.0927
  140POPC   C1A 2166   9.767   6.550   7.706  0.0950  0.3917  0.1180
  140POPC   D2A 2167   9.620   6.579   7.283 -0.0576  0.0876 -0.0744
  140POPC   C3A 2168   9.190   6.510   7.272 -0.3627  0.0964 -0.3488
  140POPC   C4A 2169   8.844   6.321   7.121  0.1704  0.1791  0.0880
  140POPC   C1B 2170   9.264   6.357   7.789  0.5263 -0.1208  0.2377
  140POPC   C2B 2171   8.844   6.432   7.674  0.0095 -0.0270  0.2081
  140POPC   C3B 2172   8.692   6.824   7.526 -0.0479 -0.1041  0.2796
  140POPC   C4B 2173   8.662   7.156   7.463  0.2695 -0.1856 -0.0083
  141POPC   NC3 2174   7.763   5.441   8.460 -0.1087  0.4260  0.2015
  141POPC   PO4 2175   8.022   5.008   8.284  0.1410  0.2361  0.0443
  141POPC   GL1 2176   7.727   5.221   8.049  0.0899  0.0192  0.2968
  141POPC   GL2 2177   7.784   5.104   7.786  0.3270  0.3605 -0.0481
  141POPC   C1A 2178   7.488   5.465   7.797 -0.0075 -0.2537  0.1687
  141POPC   D2A 2179   7.408   5.648   7.360 -0.1112  0.2061  0.3845
  141POPC   C3A 2180   7.324   5.720   6.882  0.1623 -0.0134  0.0130
  141POPC   C4A 2181   7.064   5.338   6.649  0.0280  0.0971 -0.2148
  141POPC   C1B 2182   7.782   5.162   7.398  0.1981 -0.1452 -0.0846
  141POPC   C2B 2183   7.570   4.788   7.119 -0.1447  0.0826 -0.0189
  141POPC   C3B 2184   7.280   4.818   6.850 -0.1017 -0.2045 -0.1622
  141POPC   C4B 2185   7.288   4.693   6.394  0.0826 -0.1482 -0.0677
  142POPC   NC3 2186   5.974   3.737   8.898 -0.3709 -0.2718 -0.0323
  142POPC   PO4 2187   5.712   4.052   8.738 -0.1855  0.0760  0.1228
  142POPC   GL1 2188   5.909   3.864   8.392 -0.0838  0.0145  0.2141
  142POPC   GL2 2189   6.107   3.577   8.384  0.1835  0.0657 -0.0113
  142POPC   C1A 2190   6.086   3.865   7.960 -0.2270 -0.0065  0.2036
  142POPC   D2A 2191   5.923   3.764   7.670  0.0774 -0.2573  0.1346
  142POPC   C3A 2192   5.755   3.928   7.334  0.1498  0.4501  0.2294
  142POPC   C4A 2193   5.778   3.760   6.921  0.1482  0.1731 -0.0483
  142POPC   C1B 2194   5.687   3.499   8.176 -0.4927 -0.0864  0.2385
  142POPC   C2B 2195   5.489   3.838   7.928  0.2542  0.1253 -0.2075
  142POPC   C3B 2196   5.280   3.971   7.470 -0.1833 -0.2585  0.0710
  142POPC   C4B 2197   5.381   4.398   7.243  0.0278  0.0727 -0.0324
  143POPC   NC3 2198   8.954   2.645   9.215 -0.2369 -0.1309 -0.0162
  143POPC   PO4 2199   9.279   2.529   8.965 -0.1182  0.0992  0.0917
  143POPC   GL1 2200   9.300   2.259   8.583 -0.0408  0.2202 -0.0381
  143POPC   GL2 2201   9.642   2.269   8.469 -0.0105 -0.1344 -0.0337
  143POPC   C1A 2202   9.090   1.996   8.206 -0.2057  0.0736 -0.1733
  143POPC   D2A 2203   8.846   1.755   8.041 -0.1401  0.1645  0.0497
  143POPC   C3A 2204   8.595   1.966   7.848 -0.0154  0.0581  0.2661
  143POPC   C4A 2205   8.224   1.911   8.029  0.2279  0.0892 -0.3677
  143POPC   C1B 2206   9.614   1.998   8.146  0.1936 -0.2311 -0.0005
  143POPC   C2B 2207   9.377   1.850   7.829 -0.2078 -0.1063  0.1140
  143POPC   C3B 2208   8.965   1.679   7.606 -0.1636 -0.0608 -0.0377
  143POPC   C4B 2209   8.778   1.363   7.288 -0.0708 -0.2226 -0.2072
  144POPC   NC3 2210   1.527   2.742   8.511  0.1319  0.1928  0.1426
  144POPC   PO4 2211   1.949   2.740   8.628  0.0813  0.0825 -0.0529
  144POPC   GL1 2212   2.005   2.659   8.204 -0.0795  0.1487 -0.0016
  144POPC   GL2 2213   1.708   2.608   8.068 -0.1550 -0.2597  0.1099
  144POPC   C1A 2214   2.073   2.833   7.783 -0.0466  0.0282  0.2608
  144POPC   D2A 2215   2.158   2.548   7.401 -0.1819  0.0266  0.2258
  144POPC   C3A 2216   2.454   2.763   7.186 -0.0698 -0.0191  0.1866
  144POPC   C4A 2217   2.758   3.014   6.933  0.3248 -0.1440  0.2129
  144POPC   C1B 2218   1.543   2.682   7.639 -0.0570 -0.1492 -0.1892
  144POPC   C2B 2219   1.480   2.717   7.257 -0.0240  0.1635  0.1071
  144POPC   C3B 2220   1.278   3.046   7.031  0.0851  0.1476  0.2369
  144POPC   C4B 2221   1.206   3.466   6.864  0.1518  0.2123 -0.3000
  145POPC   NC3 2222   0.129   5.366   9.102  0.1473  0.0101 -0.2050
  145POPC   PO4 2223   0.007   5.775   8.727  0.0454 -0.1801  0.0097
  145POPC   GL1 2224   0.111   5.792   8.266  0.2158 -0.0770 -0.2105
  145POPC   GL2 2225  -0.098   5.846   8.103  0.1977 -0.3980 -0.0135
  145POPC   C1A 2226   0.503   5.856   8.038 -0.1218 -0.1092  0.3356
  145POPC   D2A 2227   0.622   6.184   7.825 -0.0061  0.3549  0.1989
  145POPC   C3A 2228   0.689   6.479   7.396  0.1283  0.1047 -0.0884
  145POPC   C4A 2229   0.607   6.792   7.122 -0.1471  0.4638 -0.3914
  145POPC   C1B 2230   0.223   5.515   7.879 -0.1618  0.0827  0.3216
  145POPC   C2B 2231   0.175   5.394   7.497 -0.0777  0.0812 -0.1801
  145POPC   C3B 2232  -0.103   5.297   7.192  0.2862 -0.0563 -0.2547
  145POPC   C4B 2233  -0.336   5.099   6.834  0.0897 -0.0220  0.3821
  146POPC   NC3 2234   5.525   5.818   8.889  0.1866  0.2957  0.2117
  146POPC   PO4 2235   5.593   5.532   8.578  0.2009  0.1543  0.2212
  146POPC   GL1 2236   5.250   5.383   8.248 -0.1110 -0.1477 -0.1353
  146POPC   GL2 2237   5.446   5.548   8.034  0.1326  0.0733 -0.0541
  146POPC   C1A 2238   5.124   5.247   7.796  0.2105 -0.1136  0.0874
  146POPC   D2A 2239   5.182   4.736   7.593  0.1318 -0.2405 -0.1568
  146POPC   C3A 2240   5.304   4.395   7.711  0.2028 -0.0096  0.0707
  146POPC   C4A 2241   5.770   4.243   7.746 -0.1025 -0.3426  0.0919
  146POPC   C1B 2242   5.709   5.921   7.716  0.0374  0.2144 -0.2025
  146POPC   C2B 2243   5.849   6.264   7.453 -0.5089  0.1416  0.1423
  146POPC   C3B 2244   6.263   6.403   7.267  0.4399 -0.1192 -0.0661
  146POPC   C4B 2245   6.705   6.411   7.318  0.1558 -0.2431 -0.0254
  147POPC   NC3 2246   4.359   4.554   8.405  0.0112  0.1350  0.1492
  147POPC   PO4 2247   4.231   4.930   8.329 -0.1141  0.1559  0.1365
  147POPC   GL1 2248   4.237   4.878   7.951 -0.1973  0.1016 -0.0512
  147POPC   GL2 2249   4.353   4.672   7.854 -0.0407 -0.2516 -0.1301
  147POPC   C1A 2250   4.001   4.827   7.478 -0.1592 -0.0387 -0.1271
  147POPC   D2A 2251   4.001   4.733   7.012 -0.0430  0.0724  0.1694
  147POPC   C3A 2252   4.074   4.954   6.594 -0.0316  0.0228 -0.4128
  147POPC   C4A 2253   4.305   5.390   6.438  0.4029 -0.1630 -0.4606
  147POPC   C1B 2254   4.532   4.788   7.432  0.1464  0.2677 -0.0836
  147POPC   C2B 2255   4.439   5.009   7.083 -0.1345  0.1741 -0.0748
  147POPC   C3B 2256   4.591   5.043   6.624 -0.3574  0.0297  0.0042
  147POPC   C4B 2257   4.400   4.928   6.228 -0.0383  0.0435  0.1884
  148POPC   NC3 2258   3.108  10.361   9.467 -0.2956 -0.0635  0.0346
  148POPC   PO4 2259   3.412  10.598   9.736 -0.1487  0.2208  0.0168
  148POPC   GL1 2260   3.580  10.546   9.250 -0.0000 -0.0628 -0.5751
  148POPC   GL2 2261   3.607  10.753   8.975  0.1647 -0.1796 -0.0706
  148POPC   C1A 2262   4.018  10.502   9.042 -0.0299  0.1848 -0.0365
  148POPC   D2A 2263   3.944  10.600   8.551 -0.1009 -0.0508 -0.1044
  148POPC   C3A 2264   4.269  10.500   8.207 -0.1472 -0.0119  0.1997
  148POPC   C4A 2265   4.631  10.701   8.056  0.1902 -0.3926  0.1285
  148POPC   C1B 2266   3.469  10.633   8.454  0.0344  0.0393 -0.0460
  148POPC   C2B 2267   3.205  10.540   8.114  0.0386 -0.1372  0.1241
  148POPC   C3B 2268   3.167  10.120   8.033 -0.2758 -0.1039  0.1335
  148POPC   C4B 2269   3.003   9.697   7.840 -0.0522 -0.0047 -0.2206
  149POPC   NC3 2270   1.376   0.851   9.120 -0.3649  0.5217 -0.3745
  149POPC   PO4 2271   1.290   0.836   8.673 -0.0723  0.0693 -0.0576
  149POPC   GL1 2272   1.263   0.525   8.371  0.5713 -0.0192 -0.4837
  149POPC   GL2 2273   1.495   0.452   8.322 -0.1706 -0.5048  0.4899
  149POPC   C1A 2274   1.175   0.429   7.909  0.5567 -0.0195  0.2176
  149POPC   D2A 2275   1.132   0.117   7.717 -0.0983  0.2416  0.1358
  149POPC   C3A 2276   0.955  -0.029   7.342 -0.0550 -0.1425 -0.1475
  149POPC   C4A 2277   0.650  -0.222   7.112  0.1161 -0.1854 -0.1341
  149POPC   C1B 2278   1.671   0.348   7.933 -0.0741 -0.2813  0.1641
  149POPC   C2B 2279   1.720   0.298   7.532  0.0619 -0.1409 -0.4279
  149POPC   C3B 2280   1.888   0.354   7.123 -0.6679 -0.1270 -0.0901
  149POPC   C4B 2281   1.818   0.589   6.754  0.1431  0.3152 -0.2998
  150POPC   NC3 2282   9.568  10.377   8.919  0.2262  0.2833 -0.4477
  150POPC   PO4 2283   9.263  10.552   8.684  0.1435  0.1732  0.2107
  150POPC   GL1 2284   9.652  10.611   8.433 -0.0060 -0.0448  0.2784
  150POPC   GL2 2285   9.733  10.328   8.488 -0.1407  0.1621 -0.1561
  150POPC   C1A 2286   9.791  10.632   8.004 -0.0422 -0.5445 -0.0712
  150POPC   D2A 2287   9.822  10.939   7.682  0.1435 -0.1832  0.1856
  150POPC   C3A 2288   9.426  10.908   7.478 -0.1391 -0.3205 -0.1215
  150POPC   C4A 2289   9.199  10.540   7.353  0.0934  0.2016  0.1743
  150POPC   C1B 2290   9.498  10.158   8.145 -0.2464 -0.0330  0.1076
  150POPC   C2B 2291   9.724  10.100   7.791 -0.2771  0.1184 -0.0243
  150POPC   C3B 2292   9.684   9.925   7.348 -0.1620  0.0868 -0.4183
  150POPC   C4B 2293   9.911   9.761   7.054  0.1331  0.0138 -0.4597
  151POPC   NC3 2294   3.759   8.369   9.788  0.0834  0.0630  0.0233
  151POPC   PO4 2295   3.847   8.010   9.621 -0.1629  0.0437 -0.2049
  151POPC   GL1 2296   4.093   8.182   9.265  0.2277  0.0607  0.0837
  151POPC   GL2 2297   4.284   7.935   9.323  0.0249  0.3377  0.2734
  151POPC   C1A 2298   4.349   8.261   8.894  0.2286 -0.0541  0.1252
  151POPC   D2A 2299   4.178   8.390   8.516 -0.1137 -0.2370  0.5400
  151POPC   C3A 2300   4.259   8.794   8.473 -0.0818 -0.1425 -0.0704
  151POPC   C4A 2301   4.307   9.293   8.326 -0.0735  0.2527 -0.0492
  151POPC   C1B 2302   4.442   7.594   8.962 -0.0502 -0.0962 -0.0117
  151POPC   C2B 2303   4.774   7.532   8.546  0.3648  0.2091 -0.2843
  151POPC   C3B 2304   5.001   7.641   8.315 -0.3235 -0.1452  0.0372
  151POPC   C4B 2305   5.273   7.949   8.313  0.1399  0.1979 -0.2004
  152POPC   NC3 2306   0.611   4.534   8.576 -0.0008  0.0315  0.1692
  152POPC   PO4 2307   0.757   4.904   8.544  0.0318  0.0282  0.1078
  152POPC   GL1 2308   0.909   4.989   8.197  0.0926 -0.0153  0.0849
  152POPC   GL2 2309   1.179   5.209   8.357 -0.0816  0.1968 -0.1662
  152POPC   C1A 2310   0.860   4.737   7.779 -0.2354  0.2690  0.0915
  152POPC   D2A 2311   0.554   4.443   7.572 -0.0341 -0.0183  0.0953
  152POPC   C3A 2312   0.201   4.665   7.511 -0.1013 -0.2235  0.1213
  152POPC   C4A 2313  -0.007   4.812   7.269  0.3275 -0.1662  0.3502
  152POPC   C1B 2314   1.212   5.130   7.915 -0.2438  0.1573  0.0115
  152POPC   C2B 2315   1.157   5.012   7.523 -0.2521  0.1028 -0.1881
  152POPC   C3B 2316   0.918   4.840   7.150  0.0445 -0.1767 -0.3127
  152POPC   C4B 2317   0.551   4.668   7.162  0.0062 -0.1675 -0.0496
  153POPC   NC3 2318   0.452   0.464   8.757  0.0885  0.0294 -0.2109
  153POPC   PO4 2319   0.111   0.527   8.798  0.0587 -0.3365 -0.1413
  153POPC   GL1 2320  -0.065   0.487   8.348 -0.0625  0.1111 -0.0958
  153POPC   GL2 2321   0.128   0.658   8.033  0.1718  0.0026  0.1152
  153POPC   C1A 2322  -0.233   0.212   7.988  0.0852 -0.1897  0.0816
  153POPC   D2A 2323  -0.356   0.092   7.603 -0.1418  0.0955 -0.0136
  153POPC   C3A 2324  -0.743   0.032   7.403  0.0406  0.0390  0.0045
  153POPC   C4A 2325  -0.772   0.264   7.069 -0.1407 -0.1177  0.0838
  153POPC   C1B 2326   0.134   0.474   7.636  0.0367  0.1729 -0.0497
  153POPC   C2B 2327   0.099   0.182   7.274  0.0968 -0.0483 -0.1845
  153POPC   C3B 2328   0.301   0.084   6.812 -0.0124  0.1089  0.1678
  153POPC   C4B 2329   0.208  -0.118   6.405  0.2214 -0.0130 -0.1689
  154POPC   NC3 2330   1.535   3.564   8.699  0.1343  0.3053  0.0408
  154POPC   PO4 2331   1.262   3.154   8.578  0.0773 -0.0693  0.1698
  154POPC   GL1 2332   1.319   3.019   8.045 -0.2451  0.1192 -0.0222
  154POPC   GL2 2333   1.073   2.916   7.873 -0.1005  0.2219 -0.0709
  154POPC   C1A 2334   1.586   3.152   7.630 -0.2218 -0.0106 -0.0541
  154POPC   D2A 2335   1.729   3.198   7.230  0.3703  0.0722 -0.0230
  154POPC   C3A 2336   1.887   2.873   7.092 -0.0164  0.0524  0.0723
  154POPC   C4A 2337   2.148   2.599   6.783 -0.0881  0.0524  0.0043
  154POPC   C1B 2338   1.067   3.187   7.506  0.2128 -0.1966  0.0042
  154POPC   C2B 2339   0.746   3.145   7.086 -0.3445 -0.0216 -0.3446
  154POPC   C3B 2340   0.464   3.234   6.865  0.2160  0.1297 -0.0670
  154POPC   C4B 2341  -0.017   3.219   6.858  0.0656  0.1018 -0.3615
  155POPC   NC3 2342   4.378   5.344   8.681 -0.1774 -0.1816  0.0779
  155POPC   PO4 2343   4.719   5.404   8.354  0.4069 -0.0933  0.0242
  155POPC   GL1 2344   4.943   5.681   7.977  0.0711 -0.0319  0.1171
  155POPC   GL2 2345   5.061   5.977   8.041 -0.1198  0.2364  0.2506
  155POPC   C1A 2346   5.189   5.660   7.577  0.2848  0.1178  0.1000
  155POPC   D2A 2347   5.385   5.937   7.292 -0.2155  0.2376  0.3410
  155POPC   C3A 2348   5.633   6.029   6.990 -0.0869  0.0430  0.3842
  155POPC   C4A 2349   6.055   6.094   6.932 -0.2676 -0.1659 -0.0083
  155POPC   C1B 2350   4.968   6.157   7.723  0.2689  0.2358  0.2983
  155POPC   C2B 2351   5.055   6.260   7.398  0.1898 -0.1837 -0.0945
  155POPC   C3B 2352   4.802   6.179   7.140  0.1346  0.3580  0.1364
  155POPC   C4B 2353   4.603   6.046   6.771 -0.0699 -0.3728 -0.2062
  156POPC   NC3 2354   2.056   6.312   8.961 -0.1426 -0.0813 -0.0211
  156POPC   PO4 2355   1.683   6.680   9.041  0.2038  0.1005 -0.2150
  156POPC   GL1 2356   1.411   6.663   8.727  0.1835  0.1882 -0.0150
  156POPC   GL2 2357   1.227   6.947   8.700  0.2019 -0.1250  0.1153
  156POPC   C1A 2358   1.509   6.567   8.305  0.0508 -0.0226  0.5360
  156POPC   D2A 2359   1.937   6.457   7.953  0.1796  0.1124 -0.1562
  156POPC   C3A 2360   2.042   6.549   7.492 -0.0117 -0.1392  0.1905
  156POPC   C4A 2361   2.244   6.158   7.203  0.3273 -0.2366 -0.0162
  156POPC   C1B 2362   1.168   6.930   8.235 -0.2775 -0.5417  0.2330
  156POPC   C2B 2363   1.269   6.966   7.711  0.1433 -0.1821 -0.3476
  156POPC   C3B 2364   1.124   6.703   7.394 -0.0082 -0.4682  0.1700
  156POPC   C4B 2365   1.240   6.949   7.020  0.0474 -0.4689 -0.3151
  157POPC   NC3 2366   8.013   9.270   9.616  0.1279 -0.2630 -0.0381
  157POPC   PO4 2367   8.396   9.309   9.536 -0.1087 -0.2165  0.1542
  157POPC   GL1 2368   8.184   9.267   9.148 -0.1603  0.0711 -0.1852
  157POPC   GL2 2369   8.500   9.469   9.028 -0.1160 -0.0328 -0.1084
  157POPC   C1A 2370   7.898   9.101   8.915  0.1158  0.0036 -0.0541
  157POPC   D2A 2371   7.759   9.090   8.541 -0.3826  0.3623  0.0664
  157POPC   C3A 2372   7.464   8.798   8.492 -0.0120 -0.1223 -0.3027
  157POPC   C4A 2373   7.211   8.514   8.445  0.1969 -0.0899 -0.0255
  157POPC   C1B 2374   8.385   9.381   8.706 -0.1368  0.0883 -0.0831
  157POPC   C2B 2375   8.528   9.283   8.279  0.0129 -0.2164  0.1194
  157POPC   C3B 2376   8.415   9.030   7.939 -0.1055 -0.2310 -0.1272
  157POPC   C4B 2377   8.085   8.871   7.653  0.0521  0.0689  0.1644
  158POPC   NC3 2378   2.488   6.640   9.153  0.0932 -0.1379  0.1542
  158POPC   PO4 2379   2.537   6.319   8.751 -0.0299 -0.0924 -0.4241
  158POPC   GL1 2380   2.573   6.441   8.427  0.0630 -0.0564  0.1666
  158POPC   GL2 2381   2.325   6.328   8.223  0.2478 -0.2597  0.1909
  158POPC   C1A 2382   2.465   6.828   8.288  0.2805  0.1094 -0.0599
  158POPC   D2A 2383   2.487   7.130   8.011  0.0954 -0.2507 -0.2340
  158POPC   C3A 2384   2.172   7.354   7.743 -0.0690  0.1336 -0.2233
  158POPC   C4A 2385   1.858   7.604   7.522 -0.2607 -0.0165 -0.2134
  158POPC   C1B 2386   2.403   6.622   7.833  0.2859  0.0702 -0.0538
  158POPC   C2B 2387   2.425   6.942   7.538  0.1326 -0.0438 -0.1399
  158POPC   C3B 2388   2.592   7.030   7.127 -0.1550 -0.0727  0.3200
  158POPC   C4B 2389   2.707   6.988   6.666  0.1226  0.2918  0.2908
  159POPC   NC3 2390   6.350   9.896  10.575 -0.1860 -0.2975  0.0992
  159POPC   PO4 2391   6.498  10.207  10.333 -0.2489  0.0008 -0.0074
  159POPC   GL1 2392   6.467   9.919   9.876  0.0521  0.1238 -0.0107
  159POPC   GL2 2393   6.575   9.991   9.529  0.4819 -0.1502 -0.6513
  159POPC   C1A 2394   6.605   9.483   9.551 -0.0904 -0.0666 -0.0084
  159POPC   D2A 2395   6.723   9.258   9.258 -0.0132  0.1506  0.3131
  159POPC   C3A 2396   6.853   9.459   8.851  0.1212 -0.0677  0.1004
  159POPC   C4A 2397   6.985   9.778   8.661  0.1677 -0.2660  0.0356
  159POPC   C1B 2398   6.682   9.901   9.054  0.0715  0.2321 -0.0900
  159POPC   C2B 2399   6.502   9.874   8.628 -0.0868  0.1318  0.0274
  159POPC   C3B 2400   6.279   9.727   8.321  0.1496 -0.2254  0.0705
  159POPC   C4B 2401   6.097   9.830   7.976 -0.0139 -0.1691 -0.0503
  160POPC   NC3 2402   2.949   1.931   9.124 -0.1009 -0.2571 -0.0427
  160POPC   PO4 2403   3.083   2.028   8.679 -0.7418 -0.4466 -0.4182
  160POPC   GL1 2404   3.337   1.983   8.272 -0.0809 -0.1729 -0.0767
  160POPC   GL2 2405   3.095   2.104   8.080  0.0582  0.3574  0.2837
  160POPC   C1A 2406   3.667   2.050   7.989 -0.1950 -0.2338  0.1566
  160POPC   D2A 2407   3.983   2.056   7.670 -0.3281 -0.1078  0.0143
  160POPC   C3A 2408   4.065   2.445   7.418  0.1130  0.1145  0.1349
  160POPC   C4A 2409   4.184   2.852   7.455  0.3478 -0.1915  0.1005
  160POPC   C1B 2410   3.266   1.875   7.764  0.0551 -0.1781 -0.0958
  160POPC   C2B 2411   3.548   1.940   7.427  0.4864  0.1086  0.4006
  160POPC   C3B 2412   3.691   2.202   7.146 -0.0038 -0.0657 -0.1862
  160POPC   C4B 2413   3.536   2.632   6.866 -0.2856 -0.1674 -0.0208
  161POPC   NC3 2414   8.312   0.744   8.966 -0.1860  0.3597  0.2682
  161POPC   PO4 2415   8.759   0.969   8.695 -0.0889 -0.0675 -0.0337
  161POPC   GL1 2416   8.662   0.896   8.212  0.4173 -0.0988 -0.0732
  161POPC   GL2 2417   8.418   1.009   8.271 -0.0614 -0.2494  0.2424
  161POPC   C1A 2418   8.486   0.603   7.834 -0.0442 -0.2399 -0.2278
  161POPC   D2A 2419   8.443   0.361   7.435 -0.0859  0.0482  0.0306
  161POPC   C3A 2420   8.165   0.441   7.084 -0.0421  0.1271 -0.0555
  161POPC   C4A 2421   7.772   0.833   7.012 -0.0900 -0.0628  0.0589
  161POPC   C1B 2422   8.127   1.009   7.892  0.0491 -0.4051  0.0769
  161POPC   C2B 2423   8.050   0.881   7.492  0.1124 -0.0727  0.3245
  161POPC   C3B 2424   8.250   0.887   7.032  0.1145 -0.0037  0.1477
  161POPC   C4B 2425   8.121   1.187   6.679  0.1098 -0.1435 -0.0427
  162POPC   NC3 2426   9.722   5.025   8.729 -0.1081 -0.0432  0.0100
  162POPC   PO4 2427   9.334   5.240   8.726 -0.1238 -0.3339  0.0581
  162POPC   GL1 2428   9.528   5.388   8.393  0.2915  0.1291 -0.1908
  162POPC   GL2 2429   9.785   5.233   8.235  0.1246 -0.0055  0.4627
  162POPC   C1A 2430   9.338   5.556   7.994 -0.0004 -0.0762 -0.0698
  162POPC   D2A 2431   9.101   5.261   7.782 -0.1614  0.0494  0.0634
  162POPC   C3A 2432   8.975   5.452   7.434  0.1981  0.2257  0.2898
  162POPC   C4A 2433   8.724   5.651   7.080  0.2930  0.1205  0.0237
  162POPC   C1B 2434   9.678   5.086   7.878 -0.1101 -0.0747 -0.1741
  162POPC   C2B 2435   9.503   4.944   7.396 -0.3219  0.0246  0.0535
  162POPC   C3B 2436   9.593   4.802   7.018 -0.3062 -0.1607  0.0140
  162POPC   C4B 2437   9.759   4.850   6.660 -0.0200 -0.0229  0.0389
  163POPC   NC3 2438   1.200   8.297   9.333  0.0234 -0.1159 -0.1406
  163POPC   PO4 2439   1.195   8.528   8.936 -0.0233  0.1416  0.2230
  163POPC   GL1 2440   1.095   8.467   8.433  0.1333  0.1538 -0.3302
  163POPC   GL2 2441   1.200   8.170   8.160 -0.0805 -0.3043 -0.0052
  163POPC   C1A 2442   1.088   8.625   8.028  0.0159 -0.3478 -0.0520
  163POPC   D2A 2443   0.831   8.314   7.779  0.0577  0.1780 -0.0648
  163POPC   C3A 2444   0.842   7.877   7.770 -0.2676 -0.1408 -0.0922
  163POPC   C4A 2445   0.771   7.660   7.443 -0.0345  0.0390  0.1542
  163POPC   C1B 2446   1.368   8.302   7.691 -0.2304 -0.2799 -0.2633
  163POPC   C2B 2447   1.339   8.621   7.411  0.1101  0.2386 -0.2855
  163POPC   C3B 2448   1.362   8.910   7.013 -0.0006  0.1568  0.0640
  163POPC   C4B 2449   1.158   8.911   6.671 -0.2610  0.1487 -0.0161
  164POPC   NC3 2450   1.729  10.338   9.075  0.0422 -0.2172  0.1795
  164POPC   PO4 2451   2.021  10.197   8.819 -0.0132 -0.1231 -0.3146
  164POPC   GL1 2452   2.049  10.127   8.436 -0.2673  0.0514  0.1910
  164POPC   GL2 2453   1.786  10.189   8.205  0.4038  0.0683 -0.2001
  164POPC   C1A 2454   2.295  10.096   8.101  0.0562  0.1299 -0.2107
  164POPC   D2A 2455   2.117  10.158   7.635 -0.0858  0.3570 -0.1153
  164POPC   C3A 2456   1.929   9.855   7.435  0.1182 -0.0718  0.2777
  164POPC   C4A 2457   1.792   9.826   7.083 -0.0354 -0.3255  0.0674
  164POPC   C1B 2458   1.600  10.287   7.921 -0.3170  0.1356  0.1165
  164POPC   C2B 2459   1.503  10.287   7.545  0.0506  0.2710 -0.2826
  164POPC   C3B 2460   1.362  10.273   7.096  0.1964  0.0763  0.0572
  164POPC   C4B 2461   1.137  10.214   6.716  0.0034 -0.2258 -0.2183
  165POPC   NC3 2462   3.464   4.016   8.620  0.2766  0.1518 -0.4988
  165POPC   PO4 2463   3.484   4.443   8.557  0.0646 -0.3815 -0.1756
  165POPC   GL1 2464   3.273   4.565   8.154 -0.0053  0.0148 -0.0125
  165POPC   GL2 2465   3.126   4.307   8.099 -0.1121  0.1673  0.0207
  165POPC   C1A 2466   3.067   4.653   7.721  0.1963 -0.0966 -0.1676
  165POPC   D2A 2467   3.149   4.852   7.412 -0.1355 -0.0100 -0.0927
  165POPC   C3A 2468   3.446   4.737   7.083  0.1819 -0.0874  0.3124
  165POPC   C4A 2469   3.371   4.456   6.931 -0.2608  0.1713  0.0661
  165POPC   C1B 2470   3.319   4.195   7.767  0.2428  0.0161 -0.1150
  165POPC   C2B 2471   3.484   4.006   7.482  0.1756  0.0105  0.1512
  165POPC   C3B 2472   3.559   3.810   7.176  0.2200  0.1713 -0.2810
  165POPC   C4B 2473   3.540   3.625   6.707 -0.0697 -0.4976  0.0891
  166POPC   NC3 2474   9.637   3.614   8.807  0.2376 -0.0228  0.1458
  166POPC   PO4 2475   9.202   3.507   8.833  0.0268 -0.2253  0.2860
  166POPC   GL1 2476   9.361   3.285   8.397  0.2422 -0.0490 -0.3298
  166POPC   GL2 2477   9.075   3.240   8.241  0.1103 -0.1624 -0.0027
  166POPC   C1A 2478   9.591   3.413   8.103 -0.2641 -0.0623  0.0170
  166POPC   D2A 2479   9.873   3.665   8.071 -0.2795  0.0842  0.2453
  166POPC   C3A 2480   9.991   3.994   7.709  0.3104  0.2629  0.0444
  166POPC   C4A 2481   9.793   4.348   7.564 -0.0034  0.4708  0.0682
  166POPC   C1B 2482   9.128   3.507   7.988 -0.2304 -0.3136 -0.0119
  166POPC   C2B 2483   9.040   3.615   7.496 -0.0449 -0.0021 -0.1111
  166POPC   C3B 2484   8.976   3.743   7.029 -0.0660  0.1739  0.2444
  166POPC   C4B 2485   8.812   3.776   6.635  0.1239 -0.0101  0.1582
  167POPC   NC3 2486   4.965   2.889   9.088  0.0855 -0.1666 -0.0631
  167POPC   PO4 2487   5.231   3.299   9.041  0.1700  0.1708  0.4115
  167POPC   GL1 2488   5.149   3.226   8.637 -0.0092  0.0558  0.1267
  167POPC   GL2 2489   5.439   3.132   8.392 -0.3671 -0.2033 -0.0945
  167POPC   C1A 2490   5.129   3.518   8.220  0.1138 -0.0591  0.0374
  167POPC   D2A 2491   5.289   3.301   7.845 -0.0021  0.2309 -0.1150
  167POPC   C3A 2492   5.484   3.499   7.587 -0.3289 -0.1991 -0.1927
  167POPC   C4A 2493   5.711   3.449   7.297  0.0299 -0.1293  0.0760
  167POPC   C1B 2494   5.560   2.838   8.035 -0.2992 -0.2466 -0.1039
  167POPC   C2B 2495   5.717   3.047   7.691 -0.1658  0.0542 -0.3066
  167POPC   C3B 2496   5.734   2.798   7.356 -0.3053 -0.0866  0.0189
  167POPC   C4B 2497   5.981   2.647   7.086  0.0113  0.1894  0.0490
  168POPC   NC3 2498   2.403   1.379   4.973  0.1522  0.1592  0.0613
  168POPC   PO4 2499   2.739   1.070   4.958  0.0412 -0.0216 -0.0791
  168POPC   GL1 2500   2.376   1.015   5.317 -0.1755 -0.0441 -0.0474
  168POPC   GL2 2501   2.362   1.384   5.504 -0.0825  0.1825  0.0690
  168POPC   C1A 2502   2.257   0.701   5.631 -0.2759 -0.1738  0.0188
  168POPC   D2A 2503   2.368   0.501   6.046  0.0014 -0.2449 -0.1081
  168POPC   C3A 2504   2.293   0.094   6.256  0.1105 -0.2655  0.0299
  168POPC   C4A 2505   2.170  -0.213   6.560  0.0163 -0.0783  0.2965
  168POPC   C1B 2506   2.560   1.428   5.787  0.2346 -0.0346  0.1961
  168POPC   C2B 2507   2.498   1.548   6.214 -0.1858 -0.3131  0.0734
  168POPC   C3B 2508   2.043   1.358   6.355 -0.0551 -0.1608  0.2578
  168POPC   C4B 2509   1.704   1.369   6.001  0.0072  0.2630  0.0098
  169POPC   NC3 2510   5.660   5.005   3.846 -0.3625  0.0879  0.1510
  169POPC   PO4 2511   5.901   5.147   4.305 -0.2288  0.0311  0.0043
  169POPC   GL1 2512   6.175   5.390   4.691  0.2136  0.5833 -0.0230
  169POPC   GL2 2513   6.431   5.688   4.687  0.0631 -0.0581 -0.0978
  169POPC   C1A 2514   6.163   5.641   5.054  0.0506 -0.3110  0.0207
  169POPC   D2A 2515   6.089   5.829   5.483 -0.2483  0.3655  0.0257
  169POPC   C3A 2516   5.774   6.108   5.467 -0.1114  0.1048  0.0296
  169POPC   C4A 2517   5.497   6.113   5.262  0.0001 -0.2647 -0.2894
  169POPC   C1B 2518   6.631   5.772   5.086 -0.0080  0.1829  0.2419
  169POPC   C2B 2519   6.634   5.723   5.566  0.3314  0.1560  0.1491
  169POPC   C3B 2520   6.371   5.953   5.875 -0.0502  0.0653  0.3228
  169POPC   C4B 2521   6.196   5.993   6.263  0.1943 -0.2593  0.0688
  170POPC   NC3 2522   1.153   0.436   4.528  0.0112  0.2830  0.0527
  170POPC   PO4 2523   1.520   0.290   4.788 -0.0594  0.1150  0.0224
  170POPC   GL1 2524   1.760   0.203   5.132  0.1711  0.1075 -0.1205
  170POPC   GL2 2525   1.472   0.350   5.292  0.0413  0.2573 -0.2701
  170POPC   C1A 2526   2.021   0.182   5.539  0.2538  0.0586 -0.1734
  170POPC   D2A 2527   2.045  -0.057   5.908  0.3703 -0.0084 -0.1274
  170POPC   C3A 2528   2.322  -0.476   5.861  0.1634  0.0103  0.1417
  170POPC   C4A 2529   2.764  -0.483   5.768 -0.2319 -0.1153  0.1773
  170POPC   C1B 2530   1.651   0.554   5.623 -0.0917  0.0377  0.0870
  170POPC   C2B 2531   1.875   0.430   6.028  0.1493 -0.1799  0.0108
  170POPC   C3B 2532   1.824   0.246   6.415 -0.0036 -0.1369 -0.0960
  170POPC   C4B 2533   1.409   0.289   6.704  0.2129 -0.1043  0.4522
  171POPC   NC3 2534   1.972   0.449   4.744  0.2389 -0.1555  0.3957
  171POPC   PO4 2535   2.281   0.142   4.930 -0.1160 -0.0075 -0.1908
  171POPC   GL1 2536   2.498  -0.032   5.228 -0.1605 -0.1195  0.1495
  171POPC   GL2 2537   2.484  -0.340   5.326 -0.0172  0.0359  0.3245
  171POPC   C1A 2538   2.494  -0.048   5.729  0.0024 -0.4713 -0.2132
  171POPC   D2A 2539   2.700  -0.176   6.110  0.2228  0.1322 -0.2079
  171POPC   C3A 2540   2.528  -0.554   6.285  0.0651 -0.4160 -0.1842
  171POPC   C4A 2541   2.565  -1.004   6.414  0.3225 -0.3211  0.0437
  171POPC   C1B 2542   2.543  -0.758   5.388  0.1152  0.0508 -0.1882
  171POPC   C2B 2543   2.551  -1.004   5.727  0.3035 -0.0047  0.0185
  171POPC   C3B 2544   2.714  -1.276   6.062 -0.2663 -0.0798 -0.0651
  171POPC   C4B 2545   2.622  -1.561   6.374 -0.3142  0.0209  0.0953
  172POPC   NC3 2546   1.444   7.631   4.179  0.3773 -0.1351 -0.0357
  172POPC   PO4 2547   1.241   7.494   4.570  0.4772 -0.0333 -0.1278
  172POPC   GL1 2548   1.332   7.535   5.097 -0.2517 -0.1388 -0.0527
  172POPC   GL2 2549   1.238   7.298   5.339 -0.0635 -0.0635 -0.0902
  172POPC   C1A 2550   1.727   7.392   5.471 -0.2290 -0.1211  0.0597
  172POPC   D2A 2551   2.184   7.450   5.658  0.1031 -0.0937 -0.2164
  172POPC   C3A 2552   2.237   7.560   6.052  0.2540 -0.0205  0.3148
  172POPC   C4A 2553   2.065   7.802   6.291 -0.1164  0.0614 -0.0161
  172POPC   C1B 2554   0.882   7.353   5.622  0.0997  0.0704  0.0122
  172POPC   C2B 2555   0.655   7.486   5.957 -0.2146 -0.0920  0.0794
  172POPC   C3B 2556   0.734   7.531   6.428  0.1695 -0.1183  0.0889
  172POPC   C4B 2557   0.641   7.182   6.743 -0.3252 -0.0785  0.0489
  173POPC   NC3 2558   8.554   6.185   4.879  0.0004 -0.2635 -0.0443
  173POPC   PO4 2559   8.950   6.167   4.965 -0.1450  0.2258  0.1405
  173POPC   GL1 2560   8.870   6.342   5.354  0.1286  0.1017 -0.2779
  173POPC   GL2 2561   8.624   6.558   5.374 -0.2528 -0.2196  0.0402
  173POPC   C1A 2562   8.677   6.208   5.751 -0.0055  0.0858 -0.0774
  173POPC   D2A 2563   8.455   6.141   6.122  0.0230 -0.0475 -0.0692
  173POPC   C3A 2564   8.633   5.866   6.373 -0.0202  0.3223  0.1131
  173POPC   C4A 2565   8.418   5.526   6.701 -0.1064 -0.5384  0.2845
  173POPC   C1B 2566   8.865   6.711   5.806  0.0798  0.3234  0.2462
  173POPC   C2B 2567   8.937   6.741   6.198  0.1719  0.5327  0.0790
  173POPC   C3B 2568   8.551   6.932   6.417 -0.2647  0.1493 -0.1709
  173POPC   C4B 2569   8.128   6.918   6.214 -0.2367  0.0008 -0.0776
  174POPC   NC3 2570   4.266   8.933   3.031 -0.1149  0.2162  0.0697
  174POPC   PO4 2571   4.502   8.577   3.042 -0.0797  0.3773 -0.0874
  174POPC   GL1 2572   4.685   8.544   3.526 -0.2231 -0.2621  0.4218
  174POPC   GL2 2573   4.881   8.339   3.609 -0.1934  0.2588 -0.1904
  174POPC   C1A 2574   4.491   8.456   3.950  0.1535 -0.1376  0.0744
  174POPC   D2A 2575   4.555   8.157   4.325  0.0492  0.0543 -0.3013
  174POPC   C3A 2576   4.926   8.123   4.637  0.2595  0.4363  0.1904
  174POPC   C4A 2577   5.066   7.967   5.032  0.0297 -0.3209  0.0818
  174POPC   C1B 2578   4.952   8.002   3.969  0.2491 -0.0489 -0.3453
  174POPC   C2B 2579   4.946   7.688   4.268 -0.0160 -0.0550 -0.0959
  174POPC   C3B 2580   5.100   7.654   4.625  0.1264 -0.2422  0.0440
  174POPC   C4B 2581   5.330   7.310   4.870  0.2962  0.2503  0.2222
  175POPC   NC3 2582   4.053   6.331   4.348  0.1215  0.0861 -0.3371
  175POPC   PO4 2583   4.029   6.373   4.818 -0.1184  0.1154  0.0370
  175POPC   GL1 2584   3.818   6.151   5.174  0.0146 -0.2310 -0.2868
  175POPC   GL2 2585   3.764   5.810   5.102  0.0707 -0.4315 -0.2148
  175POPC   C1A 2586   3.819   6.199   5.684  0.1002  0.2120 -0.0755
  175POPC   D2A 2587   3.724   6.376   6.125  0.0528  0.3190 -0.0503
  175POPC   C3A 2588   3.681   6.518   6.484  0.0863 -0.3396 -0.2914
  175POPC   C4A 2589   3.878   6.925   6.573 -0.0344 -0.1069 -0.3077
  175POPC   C1B 2590   3.919   5.770   5.482 -0.0513  0.3124 -0.0673
  175POPC   C2B 2591   4.208   5.924   5.878  0.2000 -0.0318  0.2550
  175POPC   C3B 2592   4.201   6.434   5.948 -0.2096  0.3190 -0.1433
  175POPC   C4B 2593   4.166   6.740   6.233  0.2892  0.1021  0.0734
  176POPC   NC3 2594   0.551   7.740   4.588 -0.2025 -0.2461  0.0354
  176POPC   PO4 2595   0.629   8.090   4.831  0.0924  0.1665 -0.2977
  176POPC   GL1 2596   0.761   8.399   5.235 -0.0380  0.1486 -0.1248
  176POPC   GL2 2597   0.427   8.549   5.382  0.1882 -0.1187  0.0609
  176POPC   C1A 2598   1.104   8.254   5.510 -0.1295  0.0644 -0.3094
  176POPC   D2A 2599   1.540   8.322   5.677 -0.0381  0.2385 -0.2966
  176POPC   C3A 2600   1.433   8.146   6.046  0.3544  0.0946  0.0256
  176POPC   C4A 2601   1.577   7.897   6.332  0.0074  0.0489  0.0773
  176POPC   C1B 2602   0.508   8.367   5.793 -0.2003  0.1600  0.1141
  176POPC   C2B 2603   0.615   8.490   6.255 -0.2722  0.0342  0.2650
  176POPC   C3B 2604   0.623   8.718   6.616  0.2424 -0.2437 -0.0212
  176POPC   C4B 2605   0.895   8.638   6.990  0.4186  0.0341 -0.3093
  177POPC   NC3 2606   1.762   5.238   4.893 -0.2699  0.0912  0.0137
  177POPC   PO4 2607   2.126   5.534   4.728 -0.0900  0.1395 -0.2427
  177POPC   GL1 2608   2.260   5.370   5.075  0.0854 -0.1403 -0.0155
  177POPC   GL2 2609   2.555   5.100   5.078  0.0321 -0.1294 -0.4141
  177POPC   C1A 2610   2.167   5.546   5.499 -0.0874  0.1819 -0.1712
  177POPC   D2A 2611   2.140   5.514   5.969 -0.0526  0.0875  0.1399
  177POPC   C3A 2612   2.372   5.597   6.359 -0.0556 -0.2476 -0.0143
  177POPC   C4A 2613   2.377   5.505   6.734 -0.3283  0.0716 -0.1265
  177POPC   C1B 2614   2.559   5.193   5.531  0.2870  0.1182 -0.1634
  177POPC   C2B 2615   2.621   5.372   5.993 -0.1231 -0.1212 -0.0611
  177POPC   C3B 2616   2.861   5.409   6.429  0.0817  0.0850 -0.2564
  177POPC   C4B 2617   3.186   5.121   6.609  0.0341  0.2390  0.0763
  178POPC   NC3 2618   7.920   4.602   4.778  0.1015  0.2420  0.2314
  178POPC   PO4 2619   7.565   4.227   4.740  0.2247 -0.0325  0.0345
  178POPC   GL1 2620   7.504   4.482   5.235 -0.3239  0.0298 -0.0054
  178POPC   GL2 2621   7.795   4.350   5.227 -0.1740 -0.1438 -0.1071
  178POPC   C1A 2622   7.324   4.521   5.671  0.2011  0.0332  0.0834
  178POPC   D2A 2623   7.195   4.389   5.982  0.1247 -0.0696 -0.2129
  178POPC   C3A 2624   7.474   4.084   6.054 -0.2510  0.2134  0.3198
  178POPC   C4A 2625   7.783   3.742   5.899 -0.0067  0.5215 -0.1611
  178POPC   C1B 2626   7.784   4.250   5.706 -0.1212  0.2144 -0.0421
  178POPC   C2B 2627   7.899   4.326   6.108 -0.1844  0.1737  0.0815
  178POPC   C3B 2628   7.587   4.306   6.487  0.1392  0.1016 -0.1116
  178POPC   C4B 2629   7.594   4.312   6.896 -0.1061 -0.1306 -0.1007
  179POPC   NC3 2630   3.238   2.363   5.004 -0.1375 -0.0332  0.3845
  179POPC   PO4 2631   3.617   2.145   4.913 -0.2356 -0.0067 -0.2479
  179POPC   GL1 2632   3.557   2.211   5.346 -0.3241  0.0402 -0.1106
  179POPC   GL2 2633   3.875   2.272   5.453 -0.0097 -0.0689  0.0790
  179POPC   C1A 2634   3.524   1.905   5.691 -0.4125 -0.4582 -0.0494
  179POPC   D2A 2635   3.825   1.767   6.089  0.1003 -0.0234  0.1830
  179POPC   C3A 2636   3.657   1.605   6.430 -0.0306 -0.1426  0.0139
  179POPC   C4A 2637   3.824   1.231   6.603 -0.1287  0.1602  0.1111
  179POPC   C1B 2638   4.118   1.949   5.720  0.2821 -0.2050 -0.0984
  179POPC   C2B 2639   4.049   1.462   5.768  0.0090 -0.0786 -0.0285
  179POPC   C3B 2640   4.058   1.127   6.126  0.0996  0.0653  0.0997
  179POPC   C4B 2641   4.287   1.186   6.459  0.0044  0.5541  0.0272
  180POPC   NC3 2642   1.145  10.417   5.027 -0.1177  0.1028  0.0681
  180POPC   PO4 2643   0.765  10.736   5.072 -0.1570  0.3104 -0.3345
  180POPC   GL1 2644   0.967  10.992   5.512 -0.2857  0.2131 -0.0209
  180POPC   GL2 2645   0.809  11.223   5.813  0.1575 -0.0915 -0.3703
  180POPC   C1A 2646   1.263  11.042   5.918 -0.1559  0.0858 -0.1010
  180POPC   D2A 2647   1.273  10.788   6.206  0.1389  0.0757 -0.3541
  180POPC   C3A 2648   1.008  10.986   6.516  0.0327  0.0703  0.1273
  180POPC   C4A 2649   0.650  11.164   6.623  0.1684 -0.0493 -0.2928
  180POPC   C1B 2650   0.848  11.369   6.125  0.0885 -0.2777 -0.2943
  180POPC   C2B 2651   0.564  11.597   6.353 -0.2428  0.0849  0.1562
  180POPC   C3B 2652   0.313  11.542   6.652 -0.2115 -0.0403 -0.3475
  180POPC   C4B 2653   0.109  11.747   6.845 -0.1414 -0.1292 -0.1504
  181POPC   NC3 2654   0.436   7.512   5.067  0.0691  0.1141  0.1875
  181POPC   PO4 2655   0.468   7.100   4.956  0.2704  0.4383 -0.3464
  181POPC   GL1 2656   0.562   6.980   5.311  0.1677 -0.3053  0.2905
  181POPC   GL2 2657   0.917   6.863   5.264  0.2430 -0.1686  0.0245
  181POPC   C1A 2658   0.572   6.943   5.729  0.3168  0.0124  0.1134
  181POPC   D2A 2659   0.474   6.650   6.015  0.0375  0.1466 -0.1902
  181POPC   C3A 2660   0.051   6.563   6.139  0.1951 -0.1896 -0.1813
  181POPC   C4A 2661  -0.349   6.735   6.142  0.2681  0.2021  0.1482
  181POPC   C1B 2662   1.018   6.838   5.685 -0.0782 -0.0174  0.2663
  181POPC   C2B 2663   0.959   7.086   6.101  0.0244  0.1967  0.1502
  181POPC   C3B 2664   1.121   7.032   6.525  0.0622  0.0190 -0.1373
  181POPC   C4B 2665   1.328   6.653   6.682 -0.0433  0.1287 -0.1940
  182POPC   NC3 2666   0.662   8.906   5.126 -0.2653  0.3260  0.0143
  182POPC   PO4 2667   1.069   9.113   4.839 -0.3135  0.1810  0.2148
  182POPC   GL1 2668   1.330   9.165   5.275 -0.1236  0.0034  0.0296
  182POPC   GL2 2669   1.166   9.242   5.562 -0.1672 -0.1929 -0.0949
  182POPC   C1A 2670   1.720   8.957   5.591  0.0010  0.1526 -0.0892
  182POPC   D2A 2671   1.848   8.773   5.952  0.0546 -0.1260  0.1287
  182POPC   C3A 2672   1.661   8.785   6.330 -0.1325  0.0938  0.1799
  182POPC   C4A 2673   1.511   8.370   6.556 -0.0731  0.0801 -0.2475
  182POPC   C1B 2674   0.885   9.094   5.753  0.0050 -0.3443  0.1450
  182POPC   C2B 2675   0.820   8.738   5.772  0.3288 -0.4546 -0.3124
  182POPC   C3B 2676   1.036   8.419   5.971 -0.1002 -0.1153 -0.2129
  182POPC   C4B 2677   1.003   8.382   6.544 -0.0833  0.3005  0.3486
  183POPC   NC3 2678   9.921   4.978   4.471  0.1997 -0.1105 -0.0284
  183POPC   PO4 2679  10.197   4.609   4.371  0.0354 -0.1529 -0.0955
  183POPC   GL1 2680  10.087   4.636   4.848 -0.1024 -0.3976 -0.1209
  183POPC   GL2 2681   9.819   4.349   4.869  0.2130  0.3092 -0.1871
  183POPC   C1A 2682  10.369   4.722   5.208  0.2215 -0.1979  0.2218
  183POPC   D2A 2683  10.323   5.026   5.461  0.1383  0.0824 -0.1299
  183POPC   C3A 2684   9.959   4.993   5.692 -0.0341  0.1316  0.1867
  183POPC   C4A 2685   9.771   5.242   5.902  0.1076  0.0343  0.1644
  183POPC   C1B 2686  10.041   4.156   5.215 -0.1148  0.1851 -0.1606
  183POPC   C2B 2687  10.510   4.049   5.402  0.0665  0.2351  0.2770
  183POPC   C3B 2688  10.473   3.709   5.650  0.1159 -0.2061  0.0406
  183POPC   C4B 2689  10.296   3.532   5.994  0.3181  0.2142 -0.1385
  184POPC   NC3 2690   4.365   4.751   4.896  0.1838  0.0368 -0.1543
  184POPC   PO4 2691   3.913   4.963   4.785 -0.1999 -0.0033  0.1492
  184POPC   GL1 2692   4.005   5.083   5.144  0.0834 -0.2247  0.1125
  184POPC   GL2 2693   4.263   5.007   5.326  0.0428  0.0239 -0.2838
  184POPC   C1A 2694   3.837   5.236   5.507 -0.3977  0.0578 -0.0029
  184POPC   D2A 2695   3.512   5.097   5.832  0.2589 -0.0394 -0.0062
  184POPC   C3A 2696   3.159   5.281   6.031  0.1402  0.1554  0.2366
  184POPC   C4A 2697   3.049   5.698   6.097  0.2325 -0.1559 -0.1605
  184POPC   C1B 2698   4.161   4.948   5.803  0.0229  0.1674 -0.2710
  184POPC   C2B 2699   3.824   4.869   6.134 -0.1968  0.0786 -0.1085
  184POPC   C3B 2700   3.365   4.674   6.171 -0.0735  0.0821  0.0509
  184POPC   C4B 2701   3.345   4.348   6.441 -0.3271  0.0658 -0.0933
  185POPC   NC3 2702   8.568   0.103   4.393 -0.0975  0.1083  0.0105
  185POPC   PO4 2703   8.129   0.329   4.322 -0.1498  0.0056 -0.1748
  185POPC   GL1 2704   7.970   0.438   4.730  0.1601 -0.1258  0.0953
  185POPC   GL2 2705   8.013   0.762   4.859 -0.1516  0.0247  0.1482
  185POPC   C1A 2706   7.798   0.361   5.097 -0.1656 -0.0131  0.3289
  185POPC   D2A 2707   7.640   0.084   5.372 -0.2680 -0.2494 -0.0171
  185POPC   C3A 2708   7.202  -0.135   5.427  0.2054 -0.0493  0.0137
  185POPC   C4A 2709   7.060  -0.394   5.178  0.1131  0.1642 -0.1100
  185POPC   C1B 2710   8.088   0.773   5.319 -0.3414  0.2225 -0.1975
  185POPC   C2B 2711   8.111   0.631   5.735  0.1822 -0.0085  0.2020
  185POPC   C3B 2712   8.208   0.472   6.106  0.1802  0.1679  0.0307
  185POPC   C4B 2713   7.886   0.226   6.390 -0.2896 -0.0468 -0.0986
  186POPC   NC3 2714   8.643  10.254   3.953 -0.0235 -0.0089 -0.2043
  186POPC   PO4 2715   8.437  10.075   4.202 -0.2341 -0.2310  0.2937
  186POPC   GL1 2716   8.279  10.061   4.672  0.2245  0.0068  0.1434
  186POPC   GL2 2717   8.310  10.468   4.799 -0.2360 -0.0014  0.0018
  186POPC   C1A 2718   8.210   9.665   4.840  0.0426  0.2479 -0.1299
  186POPC   D2A 2719   8.470   9.338   5.099  0.0018 -0.1933 -0.0385
  186POPC   C3A 2720   8.417   9.191   5.412 -0.0082  0.1142 -0.1299
  186POPC   C4A 2721   8.409   9.444   5.804  0.0587 -0.0862 -0.1077
  186POPC   C1B 2722   8.022  10.362   5.055  0.1276 -0.1922 -0.3909
  186POPC   C2B 2723   8.049  10.243   5.524 -0.2814  0.2510  0.1646
  186POPC   C3B 2724   7.977   9.851   5.789  0.1354 -0.0449 -0.0582
  186POPC   C4B 2725   8.003   9.800   6.261 -0.0207 -0.1954 -0.1140
  187POPC   NC3 2726   4.099   5.488   4.829  0.0819 -0.2532 -0.1905
  187POPC   PO4 2727   4.236   5.929   4.698  0.2435 -0.1754 -0.2113
  187POPC   GL1 2728   4.342   5.928   5.054  0.2288  0.0683  0.1012
  187POPC   GL2 2729   4.376   5.571   5.196  0.0357 -0.1550 -0.1804
  187POPC   C1A 2730   4.380   6.143   5.453  0.2778  0.1481  0.0757
  187POPC   D2A 2731   4.663   6.202   5.730 -0.1311  0.0802  0.0742
  187POPC   C3A 2732   4.651   6.222   6.095 -0.1697 -0.1916 -0.1341
  187POPC   C4A 2733   4.812   6.430   6.514 -0.1889  0.3898  0.0327
  187POPC   C1B 2734   4.289   5.464   5.628 -0.0532  0.0745  0.0019
  187POPC   C2B 2735   4.136   5.422   5.986 -0.2849 -0.3002 -0.2403
  187POPC   C3B 2736   3.814   5.355   6.388 -0.3303 -0.1416 -0.0323
  187POPC   C4B 2737   3.713   5.163   6.843 -0.0001  0.0698  0.1512
  188POPC   NC3 2738   0.227   8.106   4.511 -0.0906 -0.0799  0.0475
  188POPC   PO4 2739   0.119   7.976   4.902  0.0930  0.0355  0.0119
  188POPC   GL1 2740   0.302   8.103   5.268  0.2040 -0.2028 -0.1603
  188POPC   GL2 2741   0.480   7.915   5.359  0.0425 -0.0977  0.0340
  188POPC   C1A 2742   0.161   8.070   5.639 -0.0613 -0.0634  0.0339
  188POPC   D2A 2743   0.124   7.731   5.924  0.1158 -0.0141 -0.2232
  188POPC   C3A 2744   0.233   8.049   6.204 -0.0312 -0.1400  0.0503
  188POPC   C4A 2745   0.052   8.080   6.570 -0.0627  0.0114 -0.2390
  188POPC   C1B 2746   0.764   7.868   5.622  0.2978 -0.0172 -0.0153
  188POPC   C2B 2747   0.809   7.932   6.094 -0.0644 -0.0712  0.0160
  188POPC   C3B 2748   1.092   7.901   6.393 -0.2883  0.1995 -0.0483
  188POPC   C4B 2749   1.306   7.873   6.740  0.0210 -0.0998 -0.3045
  189POPC   NC3 2750   9.315   5.537   4.378 -0.1469 -0.0887 -0.0130
  189POPC   PO4 2751   8.915   5.737   4.577 -0.0619  0.0996  0.1063
  189POPC   GL1 2752   8.987   5.666   4.990  0.2751 -0.1096 -0.0778
  189POPC   GL2 2753   8.725   5.748   5.193  0.1688  0.0539  0.2061
  189POPC   C1A 2754   9.174   5.472   5.309 -0.0084  0.1077  0.0983
  189POPC   D2A 2755   9.429   5.209   5.519  0.1796  0.0326  0.3714
  189POPC   C3A 2756   9.360   4.716   5.755 -0.1586 -0.1386  0.0988
  189POPC   C4A 2757   9.433   4.785   6.195 -0.1011  0.0521  0.0429
  189POPC   C1B 2758   8.840   5.831   5.552 -0.1348 -0.1534  0.0530
  189POPC   C2B 2759   8.924   5.783   5.947  0.0250 -0.0161  0.0804
  189POPC   C3B 2760   9.144   5.717   6.338  0.1298 -0.0115  0.4178
  189POPC   C4B 2761   9.425   5.586   6.774  0.1565 -0.2114  0.1415
  190POPC   NC3 2762   4.573   6.071   4.307 -0.0853  0.0802  0.1868
  190POPC   PO4 2763   5.019   6.022   4.500  0.2045 -0.1389 -0.0904
  190POPC   GL1 2764   5.106   6.174   4.796  0.0194  0.2235  0.2144
  190POPC   GL2 2765   5.409   6.157   4.748 -0.1676  0.1613 -0.3567
  190POPC   C1A 2766   5.071   6.320   5.301  0.2236 -0.0191 -0.0614
  190POPC   D2A 2767   5.174   6.133   5.729 -0.0855  0.1528 -0.3899
  190POPC   C3A 2768   5.110   6.389   6.136 -0.1869  0.1361  0.0452
  190POPC   C4A 2769   4.837   6.804   6.167  0.0601 -0.1106  0.1704
  190POPC   C1B 2770   5.377   6.572   4.982  0.1965  0.1699  0.1760
  190POPC   C2B 2771   5.175   6.924   5.220 -0.0511  0.0640 -0.1076
  190POPC   C3B 2772   4.970   7.091   5.519 -0.2048 -0.2147 -0.0791
  190POPC   C4B 2773   4.783   7.227   5.940  0.1374 -0.2261  0.2330
  191POPC   NC3 2774   8.142   8.077   4.448  0.0109 -0.0362  0.3203
  191POPC   PO4 2775   8.439   8.265   4.492 -0.0733 -0.0991 -0.3237
  191POPC   GL1 2776   8.523   8.480   4.996  0.1937  0.3524  0.2178
  191POPC   GL2 2777   8.328   8.734   4.993  0.4536 -0.0286  0.1702
  191POPC   C1A 2778   8.599   8.685   5.456 -0.0766  0.0412 -0.0281
  191POPC   D2A 2779   8.425   8.940   5.824 -0.0795 -0.2512 -0.2162
  191POPC   C3A 2780   8.167   8.767   6.195 -0.2313 -0.1463  0.0641
  191POPC   C4A 2781   7.996   8.358   6.411 -0.1197 -0.1466 -0.1254
  191POPC   C1B 2782   7.905   8.959   5.096 -0.1593  0.1206 -0.1106
  191POPC   C2B 2783   7.631   9.151   5.325  0.2420 -0.0851  0.2538
  191POPC   C3B 2784   7.479   9.406   5.657  0.0622  0.0251 -0.0234
  191POPC   C4B 2785   7.522   9.720   5.982 -0.3380  0.1025  0.0835
  192POPC   NC3 2786   4.538   3.679   4.746  0.1805  0.2534  0.0489
  192POPC   PO4 2787   4.375   4.169   4.928  0.1555  0.1102 -0.0575
  192POPC   GL1 2788   4.281   4.085   5.342  0.0816 -0.2032  0.1048
  192POPC   GL2 2789   4.049   3.865   5.149  0.1172 -0.2071 -0.0336
  192POPC   C1A 2790   4.238   3.908   5.803  0.1771 -0.4939  0.0685
  192POPC   D2A 2791   4.067   3.914   6.238 -0.0965 -0.3733  0.0891
  192POPC   C3A 2792   3.982   3.504   6.368  0.2193 -0.0479 -0.1659
  192POPC   C4A 2793   3.750   3.082   6.485 -0.1819 -0.0977  0.0601
  192POPC   C1B 2794   4.093   3.422   5.376 -0.0549  0.0823 -0.0848
  192POPC   C2B 2795   3.909   3.087   5.446  0.1032 -0.3400  0.0544
  192POPC   C3B 2796   3.896   2.722   5.742  0.1869 -0.3121 -0.2343
  192POPC   C4B 2797   3.707   2.399   5.938 -0.1510  0.0298  0.0776
  193POPC   NC3 2798   7.367   9.495   3.635 -0.0604 -0.0820 -0.1110
  193POPC   PO4 2799   7.406   9.104   3.968 -0.2406 -0.0807  0.0144
  193POPC   GL1 2800   7.339   9.105   4.425 -0.5558 -0.0252  0.2850
  193POPC   GL2 2801   7.284   9.447   4.462 -0.4068  0.0744 -0.1759
  193POPC   C1A 2802   7.033   8.899   4.602 -0.1339 -0.0822 -0.1998
  193POPC   D2A 2803   6.780   8.595   4.800 -0.4711 -0.1074 -0.0585
  193POPC   C3A 2804   7.003   8.402   5.178  0.0069  0.1501  0.1000
  193POPC   C4A 2805   7.225   7.983   5.261 -0.2299 -0.2759 -0.0886
  193POPC   C1B 2806   7.270   9.234   4.914  0.1521  0.1363  0.4476
  193POPC   C2B 2807   7.071   9.070   5.349 -0.1162  0.3681 -0.1474
  193POPC   C3B 2808   6.960   8.678   5.593 -0.1823  0.0152 -0.0648
  193POPC   C4B 2809   7.046   8.282   5.638  0.2734 -0.0502 -0.1678
  194POPC   NC3 2810   3.443   2.684   4.224 -0.3009  0.1084 -0.0198
  194POPC   PO4 2811   3.131   2.704   4.585  0.2657 -0.0157 -0.1609
  194POPC   GL1 2812   3.196   2.939   5.031 -0.2317  0.0421  0.0314
  194POPC   GL2 2813   2.938   3.241   5.076 -0.2605 -0.0265  0.0937
  194POPC   C1A 2814   3.315   3.056   5.470  0.5882 -0.1613  0.2204
  194POPC   D2A 2815   3.532   3.149   5.828 -0.1867 -0.0541  0.3634
  194POPC   C3A 2816   3.387   2.887   6.133  0.1619  0.0118  0.0789
  194POPC   C4A 2817   3.591   2.581   6.368 -0.0594  0.0482  0.3332
  194POPC   C1B 2818   2.772   3.196   5.526 -0.0013 -0.0065 -0.0063
  194POPC   C2B 2819   2.569   3.367   5.901  0.1502  0.1068 -0.0218
  194POPC   C3B 2820   2.406   3.544   6.282 -0.0885 -0.2774 -0.0351
  194POPC   C4B 2821   2.487   3.621   6.663 -0.0675  0.0469 -0.0112
  195POPC   NC3 2822   5.758   7.972   3.479 -0.1374  0.0571  0.3141
  195POPC   PO4 2823   5.374   8.141   3.450  0.0992 -0.1759 -0.2454
  195POPC   GL1 2824   5.378   8.280   3.806  0.0534 -0.1664  0.2552
  195POPC   GL2 2825   5.671   8.338   3.856  0.1883 -0.1461  0.2175
  195POPC   C1A 2826   5.103   8.449   4.120 -0.0231 -0.0015  0.1245
  195POPC   D2A 2827   4.762   8.621   4.384 -0.0512  0.2212 -0.1526
  195POPC   C3A 2828   4.798   8.902   4.741 -0.0236 -0.2215 -0.2619
  195POPC   C4A 2829   4.571   8.898   5.096 -0.1036  0.1291 -0.3756
  195POPC   C1B 2830   5.613   8.370   4.287 -0.0641  0.0782 -0.1329
  195POPC   C2B 2831   5.810   8.387   4.590  0.3702 -0.3639 -0.2176
  195POPC   C3B 2832   6.167   8.613   4.448 -0.1379  0.2888  0.0341
  195POPC   C4B 2833   6.604   8.667   4.222  0.1054  0.4652 -0.4074
  196POPC   NC3 2834   0.953   4.913   4.798  0.1051 -0.5560  0.0562
  196POPC   PO4 2835   0.752   5.261   4.818  0.0492 -0.1926 -0.1739
  196POPC   GL1 2836   0.328   5.220   5.060  0.0412  0.0943 -0.0155
  196POPC   GL2 2837   0.099   5.482   5.057 -0.0711 -0.0748  0.0365
  196POPC   C1A 2838   0.299   5.211   5.512  0.2666  0.4804  0.4315
  196POPC   D2A 2839   0.387   5.203   5.882  0.0937 -0.0052  0.1555
  196POPC   C3A 2840   0.066   4.922   6.119 -0.1123 -0.1373  0.2831
  196POPC   C4A 2841  -0.217   4.683   6.371 -0.0499  0.0428 -0.0524
  196POPC   C1B 2842  -0.083   5.505   5.482  0.0627  0.2425  0.1306
  196POPC   C2B 2843  -0.060   5.319   5.873 -0.3551 -0.2483 -0.0606
  196POPC   C3B 2844  -0.392   5.269   6.309  0.1718  0.1008  0.0503
  196POPC   C4B 2845  -0.759   5.287   6.438  0.1633  0.2139  0.1400
  197POPC   NC3 2846   8.068   6.642   3.729 -0.0236 -0.1250  0.1607
  197POPC   PO4 2847   7.832   6.876   3.938 -0.0395 -0.1172  0.0645
  197POPC   GL1 2848   7.609   6.813   4.379 -0.2335  0.3046 -0.0240
  197POPC   GL2 2849   7.612   7.044   4.429  0.2205 -0.0644 -0.2326
  197POPC   C1A 2850   7.442   6.870   4.880  0.2465  0.0218 -0.0645
  197POPC   D2A 2851   7.358   7.160   5.274 -0.2042  0.0334  0.0248
  197POPC   C3A 2852   7.004   7.132   5.567 -0.2206 -0.1390  0.3324
  197POPC   C4A 2853   6.807   7.115   5.975 -0.1858  0.4244  0.0342
  197POPC   C1B 2854   7.611   7.329   4.723 -0.0259 -0.1164  0.0492
  197POPC   C2B 2855   7.344   7.569   4.990  0.2269 -0.2620 -0.1177
  197POPC   C3B 2856   7.005   7.461   5.164 -0.1671 -0.4739 -0.2717
  197POPC   C4B 2857   6.857   7.578   5.518  0.2094  0.3320  0.0240
  198POPC   NC3 2858   0.510   5.733   4.865  0.0297  0.2950 -0.1826
  198POPC   PO4 2859   0.727   6.125   5.025  0.7359 -0.0712  0.2267
  198POPC   GL1 2860   0.827   5.849   5.356 -0.2308  0.2161 -0.0582
  198POPC   GL2 2861   0.765   5.521   5.285  0.3452 -0.2170  0.2448
  198POPC   C1A 2862   1.147   5.841   5.735 -0.1217 -0.0900  0.2614
  198POPC   D2A 2863   1.034   5.855   6.189 -0.1281  0.1635 -0.0324
  198POPC   C3A 2864   0.776   6.212   6.456  0.1454 -0.0709 -0.3114
  198POPC   C4A 2865   0.806   6.641   6.649 -0.1106  0.2177  0.0724
  198POPC   C1B 2866   0.824   5.360   5.574  0.3323 -0.0795 -0.2169
  198POPC   C2B 2867   1.037   5.425   6.001 -0.0276 -0.0590  0.1620
  198POPC   C3B 2868   0.811   5.149   6.351  0.1891  0.1379  0.1352
  198POPC   C4B 2869   0.647   4.810   6.687  0.2477 -0.2195 -0.1433
  199POPC   NC3 2870   5.487  10.161   3.727 -0.1234 -0.0843 -0.0058
  199POPC   PO4 2871   5.451  10.628   3.756 -0.2350 -0.0399 -0.0171
  199POPC   GL1 2872   5.436  10.414   4.144  0.1022  0.0885 -0.2673
  199POPC   GL2 2873   5.682  10.651   4.322 -0.0017 -0.0225  0.2664
  199POPC   C1A 2874   5.596  10.127   4.471  0.0385 -0.4249  0.1298
  199POPC   D2A 2875   5.984   9.975   4.767  0.2560  0.0755  0.1780
  199POPC   C3A 2876   5.933   9.721   5.007  0.1852 -0.0097  0.1458
  199POPC   C4A 2877   5.944   9.589   5.424  0.1690 -0.0402 -0.1874
  199POPC   C1B 2878   5.406  10.660   4.645 -0.0965  0.0598 -0.0359
  199POPC   C2B 2879   5.182  10.991   4.895  0.1279 -0.2032  0.0968
  199POPC   C3B 2880   5.226  11.149   5.280 -0.1481 -0.0852 -0.1270
  199POPC   C4B 2881   5.370  11.165   5.760 -0.1453 -0.0112 -0.0387
  200POPC   NC3 2882   9.483   2.993   4.489 -0.1178  0.0717 -0.3049
  200POPC   PO4 2883   9.164   2.930   4.787 -0.0994  0.0895 -0.0417
  200POPC   GL1 2884   9.176   2.914   5.192 -0.1008 -0.2098  0.0004
  200POPC   GL2 2885   9.023   3.191   5.298 -0.1250 -0.3725  0.3353
  200POPC   C1A 2886   9.194   2.895   5.684  0.1000 -0.0967 -0.0868
  200POPC   D2A 2887   9.483   2.677   6.000 -0.0329 -0.0106  0.0831
  200POPC   C3A 2888   9.415   2.467   6.459 -0.1401  0.0401  0.0652
  200POPC   C4A 2889   9.100   2.649   6.740  0.1777 -0.1076  0.0862
  200POPC   C1B 2890   9.034   3.376   5.732 -0.0195 -0.0639  0.1307
  200POPC   C2B 2891   9.311   3.322   6.006  0.4784  0.3929 -0.0279
  200POPC   C3B 2892   9.269   3.125   6.474  0.2776 -0.1965 -0.3026
  200POPC   C4B 2893   9.004   3.288   6.716  0.0878  0.4063 -0.0989
  201POPC   NC3 2894   1.175   3.872   4.690 -0.0967 -0.2710 -0.0040
  201POPC   PO4 2895   0.739   3.988   4.618  0.1842  0.0183 -0.0813
  201POPC   GL1 2896   0.716   4.159   5.103 -0.2663 -0.1474  0.0792
  201POPC   GL2 2897   0.793   4.461   5.137 -0.0040  0.1398  0.0212
  201POPC   C1A 2898   0.459   4.281   5.546  0.1162  0.2086 -0.3744
  201POPC   D2A 2899   0.256   4.107   5.908  0.0566 -0.0929  0.3235
  201POPC   C3A 2900   0.253   4.351   6.213  0.0287  0.0752 -0.0770
  201POPC   C4A 2901   0.496   4.778   6.210 -0.0810 -0.0511 -0.1258
  201POPC   C1B 2902   1.000   4.501   5.524 -0.3005  0.4012  0.0519
  201POPC   C2B 2903   1.181   4.655   5.877  0.0990  0.1841 -0.2202
  201POPC   C3B 2904   1.029   4.682   6.361 -0.0643  0.1285 -0.0496
  201POPC   C4B 2905   1.083   4.523   6.819  0.0610 -0.1347 -0.3441
  202POPC   NC3 2906   9.534   1.187   5.167 -0.0379 -0.1347  0.2791
  202POPC   PO4 2907   9.871   0.835   5.015  0.3033  0.0159 -0.0384
  202POPC   GL1 2908   9.972   1.115   5.412  0.0305  0.0113 -0.1577
  202POPC   GL2 2909   9.635   1.054   5.620 -0.0232  0.0270  0.2646
  202POPC   C1A 2910  10.147   1.102   5.811 -0.1843 -0.0207 -0.0496
  202POPC   D2A 2911  10.581   1.072   6.082 -0.0741  0.0707 -0.0616
  202POPC   C3A 2912  10.675   1.456   6.309  0.0998 -0.1666  0.0766
  202POPC   C4A 2913  10.480   1.715   6.577  0.1371 -0.0619  0.0379
  202POPC   C1B 2914   9.627   1.073   6.034  0.0010  0.0360 -0.1117
  202POPC   C2B 2915   9.773   0.948   6.435  0.0870  0.0170 -0.4725
  202POPC   C3B 2916   9.956   0.598   6.698 -0.0464  0.2396 -0.0043
  202POPC   C4B 2917   9.881   0.106   6.622  0.0603 -0.1246 -0.0519
  203POPC   NC3 2918   9.845   7.881   4.989  0.1996  0.2835  0.2264
  203POPC   PO4 2919  10.177   7.643   5.048  0.0373 -0.0648  0.1198
  203POPC   GL1 2920   9.968   7.811   5.457 -0.0419 -0.0343  0.1321
  203POPC   GL2 2921  10.117   7.731   5.734  0.5067  0.1384  0.1217
  203POPC   C1A 2922   9.606   7.793   5.842 -0.0950  0.0395  0.0749
  203POPC   D2A 2923   9.550   7.774   6.315 -0.1253 -0.0736  0.0410
  203POPC   C3A 2924   9.302   8.091   6.469 -0.2107  0.0393 -0.1894
  203POPC   C4A 2925   9.138   7.976   6.931  0.0621 -0.2828  0.2606
  203POPC   C1B 2926  10.095   7.601   6.069 -0.0722 -0.0900 -0.0316
  203POPC   C2B 2927  10.224   7.221   6.363  0.3737 -0.2309 -0.0274
  203POPC   C3B 2928  10.501   6.974   6.471 -0.0406  0.0034  0.2168
  203POPC   C4B 2929  10.832   6.736   6.619  0.1835  0.2317  0.1067
  204POPC   NC3 2930   9.564   6.353   4.724  0.0096  0.4367  0.1222
  204POPC   PO4 2931   9.815   6.132   5.018  0.2010 -0.2138  0.0840
  204POPC   GL1 2932   9.970   6.006   5.451  0.0648  0.1931 -0.1661
  204POPC   GL2 2933   9.699   6.075   5.659 -0.1861 -0.0219  0.1950
  204POPC   C1A 2934   9.948   5.649   5.707  0.1265 -0.1811 -0.0241
  204POPC   D2A 2935  10.029   5.718   6.105  0.0233 -0.0687 -0.1927
  204POPC   C3A 2936   9.666   6.007   6.195  0.3499 -0.0565  0.0298
  204POPC   C4A 2937   9.454   6.035   6.489  0.0544 -0.1393 -0.2155
  204POPC   C1B 2938   9.981   6.303   5.864 -0.1281 -0.1887 -0.2727
  204POPC   C2B 2939  10.208   6.209   6.282  0.1856  0.2205 -0.1113
  204POPC   C3B 2940  10.343   6.524   6.601  0.0758 -0.2988 -0.0344
  204POPC   C4B 2941  10.330   6.568   7.045 -0.0236  0.1205  0.0179
  205POPC   NC3 2942   6.550   1.657   4.776 -0.2298 -0.0929  0.1719
  205POPC   PO4 2943   6.521   1.875   5.103 -0.4103  0.3028 -0.2144
  205POPC   GL1 2944   6.439   1.644   5.429 -0.1244 -0.1009  0.2006
  205POPC   GL2 2945   6.119   1.520   5.381 -0.1319  0.2396 -0.0356
  205POPC   C1A 2946   6.397   1.435   5.849  0.2766 -0.1658 -0.1406
  205POPC   D2A 2947   6.253   1.106   6.094  0.0977  0.0464 -0.1791
  205POPC   C3A 2948   6.229   0.982   6.562 -0.0816  0.1491 -0.0599
  205POPC   C4A 2949   6.356   0.776   6.912 -0.1549  0.3219  0.2804
  205POPC   C1B 2950   5.936   1.164   5.693 -0.1551 -0.3087 -0.1213
  205POPC   C2B 2951   5.724   0.922   6.050  0.0286  0.1144  0.0141
  205POPC   C3B 2952   5.633   0.596   6.297  0.0976  0.0963  0.1964
  205POPC   C4B 2953   5.505   0.195   6.398 -0.2544 -0.2615 -0.0907
  206POPC   NC3 2954   2.590   9.441   4.741 -0.0755 -0.2403 -0.1564
  206POPC   PO4 2955   2.959   9.140   4.535  0.1950  0.0399  0.0382
  206POPC   GL1 2956   2.766   8.902   4.980 -0.1275 -0.0558  0.0276
  206POPC   GL2 2957   2.491   9.153   5.084  0.0884 -0.5615 -0.0471
  206POPC   C1A 2958   2.773   8.648   5.428  0.1244 -0.0251  0.2551
  206POPC   D2A 2959   2.945   8.694   5.837 -0.0442 -0.0161 -0.1376
  206POPC   C3A 2960   3.183   8.910   6.136  0.0577 -0.0640 -0.2028
  206POPC   C4A 2961   3.128   9.192   6.408  0.5593  0.0025 -0.1569
  206POPC   C1B 2962   2.823   9.163   5.379 -0.1777  0.1393  0.1087
  206POPC   C2B 2963   3.111   9.227   5.788 -0.1065  0.0255  0.2418
  206POPC   C3B 2964   3.478   9.252   5.889  0.2194  0.3028 -0.1335
  206POPC   C4B 2965   3.689   9.077   6.273  0.0466  0.1537 -0.0113
  207POPC   NC3 2966   7.349   1.246   4.444  0.0052 -0.1055 -0.0964
  207POPC   PO4 2967   6.983   1.463   4.651  0.1243 -0.0623  0.0920
  207POPC   GL1 2968   6.827   1.442   5.072  0.0161 -0.3328  0.0548
  207POPC   GL2 2969   6.663   1.179   5.026 -0.1715 -0.1100  0.2137
  207POPC   C1A 2970   6.825   1.352   5.532  0.1419  0.1022 -0.0545
  207POPC   D2A 2971   6.711   1.064   5.902 -0.1277 -0.0416  0.2591
  207POPC   C3A 2972   6.730   1.046   6.305 -0.1631 -0.1981 -0.0006
  207POPC   C4A 2973   6.852   0.877   6.792  0.1007  0.0447  0.2822
  207POPC   C1B 2974   6.610   0.659   5.151  0.0131 -0.0136  0.2088
  207POPC   C2B 2975   6.302   0.431   5.389  0.0205  0.0574  0.0569
  207POPC   C3B 2976   6.184   0.150   5.647 -0.0098  0.0767  0.0677
  207POPC   C4B 2977   6.201  -0.229   5.930  0.1534 -0.0547  0.2988
  208POPC   NC3 2978   8.809   9.763   4.367 -0.2985  0.2151 -0.1601
  208POPC   PO4 2979   8.924  10.205   4.359 -0.1762  0.0632 -0.2524
  208POPC   GL1 2980   8.732  10.168   4.795 -0.1055  0.1113 -0.1746
  208POPC   GL2 2981   8.726   9.778   4.883 -0.1150  0.3873  0.0061
  208POPC   C1A 2982   8.456  10.135   5.095  0.0673 -0.1055  0.0300
  208POPC   D2A 2983   8.381   9.764   5.421 -0.3139 -0.0177  0.4382
  208POPC   C3A 2984   8.795   9.688   5.684 -0.1165 -0.4387 -0.0970
  208POPC   C4A 2985   9.270   9.641   5.645  0.1038  0.4202 -0.0188
  208POPC   C1B 2986   8.937  10.004   5.258 -0.0586 -0.1281  0.1503
  208POPC   C2B 2987   9.065  10.160   5.702  0.0716  0.0890 -0.2954
  208POPC   C3B 2988   8.925   9.941   6.112 -0.3271 -0.0403  0.1154
  208POPC   C4B 2989   8.817   9.964   6.452 -0.4993 -0.2006 -0.2128
  209POPC   NC3 2990   1.285   6.070   5.130  0.1732 -0.0904 -0.1774
  209POPC   PO4 2991   1.169   5.622   5.016  0.1790  0.3227  0.0725
  209POPC   GL1 2992   1.497   5.540   5.259  0.0351 -0.2296  0.1385
  209POPC   GL2 2993   1.798   5.169   5.386 -0.1253 -0.3411  0.3322
  209POPC   C1A 2994   1.746   5.780   5.567 -0.2373 -0.1541  0.0683
  209POPC   D2A 2995   1.642   6.011   5.911 -0.1262 -0.2158 -0.3166
  209POPC   C3A 2996   1.934   5.913   6.286  0.0646 -0.0566 -0.0490
  209POPC   C4A 2997   2.179   6.009   6.724  0.1488 -0.1582 -0.1269
  209POPC   C1B 2998   1.729   5.296   5.759  0.1617 -0.1566 -0.1242
  209POPC   C2B 2999   1.610   5.516   6.137 -0.2329  0.0985 -0.2041
  209POPC   C3B 3000   1.487   5.751   6.490  0.0555  0.2191 -0.1295
  209POPC   C4B 3001   1.190   6.000   6.682  0.1136 -0.0612  0.0562
  210POPC   NC3 3002  10.362   3.268   4.727  0.0484  0.0976  0.0845
  210POPC   PO4 3003  10.019   3.064   4.638 -0.2177  0.0807 -0.1021
  210POPC   GL1 3004   9.977   3.195   5.040 -0.2426  0.0834 -0.0901
  210POPC   GL2 3005   9.605   3.061   5.050 -0.3802 -0.0161 -0.0842
  210POPC   C1A 3006   9.955   3.634   5.256 -0.3728  0.0128 -0.5271
  210POPC   D2A 3007   9.765   3.583   5.785 -0.1319 -0.1650  0.3196
  210POPC   C3A 3008   9.357   3.800   5.995  0.0739 -0.3847  0.0775
  210POPC   C4A 3009   8.968   3.986   6.223 -0.0577 -0.3491 -0.0694
  210POPC   C1B 3010   9.498   3.302   5.391  0.1116 -0.0688 -0.0483
  210POPC   C2B 3011   9.207   3.764   5.468  0.0151 -0.1239 -0.1800
  210POPC   C3B 3012   9.159   4.161   5.656 -0.0939  0.0885 -0.0400
  210POPC   C4B 3013   9.296   4.338   6.059 -0.0077  0.2086 -0.1811
  211POPC   NC3 3014   1.939   3.315   5.018  0.1310 -0.0858 -0.2738
  211POPC   PO4 3015   1.595   3.121   5.126 -0.0646  0.2580 -0.0278
  211POPC   GL1 3016   1.487   3.137   5.500  0.1021  0.0191  0.1243
  211POPC   GL2 3017   1.405   2.777   5.774  0.0760 -0.1424  0.1070
  211POPC   C1A 3018   1.559   3.317   5.869  0.1790 -0.1254 -0.2367
  211POPC   D2A 3019   1.574   3.035   6.287  0.2134 -0.2825  0.2080
  211POPC   C3A 3020   1.841   3.098   6.663 -0.4333 -0.1027 -0.1580
  211POPC   C4A 3021   2.259   3.160   6.661 -0.2037  0.1957 -0.4032
  211POPC   C1B 3022   1.065   2.950   5.985  0.0772 -0.1955 -0.3172
  211POPC   C2B 3023   0.908   3.166   6.228  0.1572 -0.0974 -0.0696
  211POPC   C3B 3024   0.916   3.413   6.500 -0.1310 -0.2146 -0.0644
  211POPC   C4B 3025   1.276   3.667   6.400 -0.0120  0.2934 -0.1273
  212POPC   NC3 3026   0.680   6.656   4.868 -0.0679 -0.0249  0.4548
  212POPC   PO4 3027   1.163   6.563   4.924  0.1242 -0.0635 -0.0966
  212POPC   GL1 3028   1.466   6.568   5.249 -0.0046 -0.0248 -0.1494
  212POPC   GL2 3029   1.642   6.274   5.481 -0.2142 -0.2911  0.1869
  212POPC   C1A 3030   1.489   6.936   5.502  0.2145 -0.1779 -0.0138
  212POPC   D2A 3031   1.404   7.145   5.900  0.1559  0.2156  0.2741
  212POPC   C3A 3032   1.513   6.915   6.257 -0.0705 -0.1230  0.0890
  212POPC   C4A 3033   1.759   6.729   6.575 -0.2603  0.0300  0.2795
  212POPC   C1B 3034   1.333   6.368   5.780 -0.3499 -0.2043  0.0059
  212POPC   C2B 3035   1.404   6.388   6.243  0.3347 -0.0243  0.1495
  212POPC   C3B 3036   1.637   6.231   6.572  0.0363 -0.2292  0.0681
  212POPC   C4B 3037   1.809   6.322   6.881 -0.0027  0.1815 -0.1292
  213POPC   NC3 3038   5.891   0.414   3.804  0.2161 -0.2731 -0.2964
  213POPC   PO4 3039   5.894  -0.114   3.836  0.1383  0.0198  0.1443
  213POPC   GL1 3040   6.011  -0.222   4.238 -0.0092 -0.0589 -0.2269
  213POPC   GL2 3041   6.390  -0.279   4.284 -0.1503 -0.3419 -0.0369
  213POPC   C1A 3042   5.953  -0.027   4.645 -0.1112  0.2665 -0.2535
  213POPC   D2A 3043   5.611  -0.295   4.983  0.2024 -0.2891 -0.1513
  213POPC   C3A 3044   5.595  -0.552   5.351 -0.2373 -0.0166  0.0367
  213POPC   C4A 3045   5.347  -0.734   5.649 -0.1671 -0.0030  0.1163
  213POPC   C1B 3046   6.500  -0.142   4.671  0.1462  0.4134  0.0984
  213POPC   C2B 3047   6.286  -0.084   5.015  0.0645 -0.2622 -0.4628
  213POPC   C3B 3048   6.138  -0.386   5.361 -0.0335  0.1767  0.1908
  213POPC   C4B 3049   6.423  -0.798   5.488 -0.0209  0.0313  0.0065
  214POPC   NC3 3050   7.669   8.661   4.259  0.1765 -0.0755 -0.2329
  214POPC   PO4 3051   7.820   8.430   4.562 -0.2631  0.1946  0.0237
  214POPC   GL1 3052   7.532   8.217   4.902 -0.1382  0.1208 -0.0751
  214POPC   GL2 3053   7.194   8.022   4.751  0.0533 -0.2267 -0.0545
  214POPC   C1A 3054   7.647   8.185   5.293  0.2473  0.0573 -0.3333
  214POPC   D2A 3055   7.474   8.108   5.635  0.0645 -0.4791 -0.0059
  214POPC   C3A 3056   7.614   7.827   5.814  0.0969 -0.1463  0.2405
  214POPC   C4A 3057   7.824   7.483   6.020 -0.1501  0.0564  0.1823
  214POPC   C1B 3058   6.804   7.915   4.868 -0.2228  0.1373  0.1982
  214POPC   C2B 3059   6.582   8.120   5.285 -0.0685  0.2172 -0.0374
  214POPC   C3B 3060   6.586   8.044   5.827  0.4930  0.2071 -0.1393
  214POPC   C4B 3061   6.576   7.643   5.941  0.0963  0.2444 -0.1388
  215POPC   NC3 3062   9.826   6.526   5.379 -0.0844 -0.3413  0.2722
  215POPC   PO4 3063   9.709   6.898   5.365 -0.0607  0.1281 -0.2029
  215POPC   GL1 3064   9.586   7.245   5.688  0.1971 -0.0107 -0.1959
  215POPC   GL2 3065   9.336   7.460   5.617  0.1869  0.0981 -0.2696
  215POPC   C1A 3066   9.463   7.357   6.055 -0.0417 -0.1094  0.0454
  215POPC   D2A 3067   9.220   7.093   6.288 -0.3950 -0.0089  0.0477
  215POPC   C3A 3068   9.330   6.646   6.503 -0.0061 -0.0012  0.1876
  215POPC   C4A 3069   9.256   6.448   6.813  0.2489 -0.2776  0.3716
  215POPC   C1B 3070   8.987   7.329   5.787 -0.3779 -0.1130 -0.0299
  215POPC   C2B 3071   8.760   7.444   6.103 -0.0164 -0.0094 -0.2364
  215POPC   C3B 3072   8.601   7.771   6.302 -0.2248 -0.0916  0.0043
  215POPC   C4B 3073   8.236   7.957   6.228  0.1145 -0.2266 -0.1386
  216POPC   NC3 3074   9.904   9.689   5.180 -0.0556  0.4163 -0.1879
  216POPC   PO4 3075   9.813   9.279   5.059  0.2632  0.1253  0.0722
  216POPC   GL1 3076   9.643   9.283   5.491  0.0638  0.0020 -0.1761
  216POPC   GL2 3077   9.747   9.450   5.832  0.4250  0.0911 -0.0675
  216POPC   C1A 3078   9.333   9.139   5.859 -0.1156 -0.0415 -0.0381
  216POPC   D2A 3079   9.210   9.121   6.369 -0.1253 -0.0985  0.2589
  216POPC   C3A 3080   8.953   8.949   6.696  0.1065  0.2927  0.1153
  216POPC   C4A 3081   8.653   8.833   6.845 -0.0508  0.0958 -0.2383
  216POPC   C1B 3082   9.508   9.573   6.153  0.0874  0.1235  0.2965
  216POPC   C2B 3083   9.178   9.644   6.531 -0.0317 -0.0412 -0.2237
  216POPC   C3B 3084   8.936   9.472   6.930  0.0974  0.2365 -0.2237
  216POPC   C4B 3085   8.971   9.090   7.217 -0.0704 -0.0767 -0.2743
  217POPC   NC3 3086   9.400   6.128   5.257  0.2879 -0.1524 -0.2094
  217POPC   PO4 3087   9.390   6.545   5.152 -0.0144 -0.1026  0.0269
  217POPC   GL1 3088   9.332   6.441   5.596  0.6518 -0.1617  0.1333
  217POPC   GL2 3089   9.601   6.624   5.843  0.0349 -0.1929 -0.0459
  217POPC   C1A 3090   9.228   6.217   5.993 -0.0331 -0.2734 -0.2053
  217POPC   D2A 3091   8.930   6.299   6.449 -0.0722 -0.3319  0.3103
  217POPC   C3A 3092   9.047   5.993   6.761  0.0831  0.3178  0.0821
  217POPC   C4A 3093   9.171   5.865   7.209  0.0115  0.0930 -0.2297
  217POPC   C1B 3094   9.678   6.949   6.147 -0.0411  0.2283  0.2570
  217POPC   C2B 3095   9.659   7.267   6.500  0.0798 -0.0093  0.2013
  217POPC   C3B 3096   9.937   7.544   6.659  0.0225 -0.0806  0.1083
  217POPC   C4B 3097  10.055   7.846   7.001 -0.3528 -0.0888  0.0049
  218POPC   NC3 3098   8.461   2.266   5.136 -0.0688  0.1190 -0.0257
  218POPC   PO4 3099   8.182   2.505   5.191  0.1402 -0.0284  0.1894
  218POPC   GL1 3100   8.317   2.507   5.634  0.3470 -0.0719 -0.0203
  218POPC   GL2 3101   8.122   2.683   5.822 -0.1297  0.2802 -0.4259
  218POPC   C1A 3102   8.731   2.565   5.875 -0.4576  0.0792  0.2342
  218POPC   D2A 3103   9.004   2.816   6.165 -0.0361 -0.5059  0.0769
  218POPC   C3A 3104   8.771   2.898   6.500 -0.0461  0.0468  0.1086
  218POPC   C4A 3105   8.679   2.802   6.943  0.3156  0.0659  0.1309
  218POPC   C1B 3106   8.382   2.665   6.250 -0.1476 -0.3595  0.3710
  218POPC   C2B 3107   8.371   2.471   6.614  0.1968 -0.4033 -0.2637
  218POPC   C3B 3108   8.293   2.086   6.924 -0.0428 -0.0647  0.0521
  218POPC   C4B 3109   8.347   1.605   6.952 -0.0133  0.0282  0.0426
  219POPC   NC3 3110   2.490   7.643   4.250 -0.0753  0.0742 -0.1379
  219POPC   PO4 3111   2.944   7.616   4.191  0.0030  0.2051  0.4067
  219POPC   GL1 3112   2.954   7.801   4.487 -0.0433 -0.3702  0.0641
  219POPC   GL2 3113   2.669   8.024   4.482  0.5797  0.0232  0.2321
  219POPC   C1A 3114   3.098   8.074   4.789  0.0837 -0.0263  0.0232
  219POPC   D2A 3115   3.155   8.401   5.046  0.1335  0.1131 -0.1026
  219POPC   C3A 3116   3.153   8.381   5.422  0.1206  0.1769  0.2652
  219POPC   C4A 3117   3.216   8.199   5.856  0.0960  0.1134  0.0709
  219POPC   C1B 3118   2.648   7.801   4.880 -0.3604 -0.0301  0.0954
  219POPC   C2B 3119   2.482   7.849   5.374  0.1225 -0.3254  0.1951
  219POPC   C3B 3120   2.315   7.907   5.772 -0.1406 -0.1623 -0.0975
  219POPC   C4B 3121   2.399   8.250   6.112  0.1526 -0.1355 -0.1127
  220POPC   NC3 3122   7.185   7.991   3.465 -0.1847  0.0070 -0.0238
  220POPC   PO4 3123   7.082   8.132   3.845 -0.2404 -0.0273 -0.1342
  220POPC   GL1 3124   6.923   7.970   4.111  0.0938  0.0802  0.0614
  220POPC   GL2 3125   6.883   8.171   4.364  0.1491 -0.1229 -0.0937
  220POPC   C1A 3126   6.954   7.683   4.436  0.0578 -0.0449 -0.0164
  220POPC   D2A 3127   6.671   7.436   4.793 -0.1222  0.1672 -0.0372
  220POPC   C3A 3128   6.394   7.652   5.154  0.0597  0.0184  0.0280
  220POPC   C4A 3129   6.040   7.498   5.386  0.1186 -0.0649  0.1801
  220POPC   C1B 3130   6.502   8.273   4.588 -0.0156 -0.0345  0.3571
  220POPC   C2B 3131   6.365   8.380   4.961 -0.3814 -0.1352  0.1008
  220POPC   C3B 3132   6.120   8.371   5.358  0.0843 -0.2654  0.0597
  220POPC   C4B 3133   6.108   8.146   5.698  0.0613 -0.0440  0.3214
  221POPC   NC3 3134   9.580   4.516   4.461  0.0063  0.0301  0.1012
  221POPC   PO4 3135   9.362   4.949   4.453 -0.0438  0.1219 -0.1357
  221POPC   GL1 3136   9.431   4.755   4.865  0.2769  0.1752  0.2697
  221POPC   GL2 3137   9.652   5.019   4.883 -0.0249 -0.0626 -0.1141
  221POPC   C1A 3138   9.307   4.505   5.185 -0.0684 -0.0744 -0.0005
  221POPC   D2A 3139   9.548   4.254   5.302  0.0838  0.0070  0.0922
  221POPC   C3A 3140   9.664   3.991   5.568  0.2590 -0.2100  0.3011
  221POPC   C4A 3141  10.078   4.050   5.733 -0.0925  0.1985  0.1340
  221POPC   C1B 3142   9.719   4.853   5.245 -0.1472 -0.1252  0.0514
  221POPC   C2B 3143   9.913   4.519   5.551 -0.2597  0.3169  0.1483
  221POPC   C3B 3144   9.919   4.568   6.085  0.3382 -0.0755  0.0835
  221POPC   C4B 3145   9.798   4.433   6.466  0.1637 -0.1330  0.0670
  222POPC   NC3 3146   0.236   0.011   5.172 -0.0553  0.3267  0.0816
  222POPC   PO4 3147  -0.140   0.197   5.302 -0.0579  0.1059 -0.1469
  222POPC   GL1 3148  -0.196   0.030   5.740 -0.4302  0.2081  0.0887
  222POPC   GL2 3149  -0.588   0.146   5.801  0.1488  0.0385  0.0306
  222POPC   C1A 3150  -0.224   0.001   6.224  0.1037 -0.1861  0.2597
  222POPC   D2A 3151  -0.322  -0.270   6.488 -0.0988 -0.1818  0.1715
  222POPC   C3A 3152  -0.280  -0.705   6.698  0.1259  0.0929 -0.0909
  222POPC   C4A 3153  -0.038  -1.057   6.792 -0.4129 -0.0347  0.0703
  222POPC   C1B 3154  -0.824  -0.062   6.170 -0.1422 -0.0262  0.1394
  222POPC   C2B 3155  -1.042   0.091   6.497 -0.0331 -0.0861  0.0899
  222POPC   C3B 3156  -1.224   0.251   6.850  0.1226 -0.0716  0.1474
  222POPC   C4B 3157  -1.369   0.523   7.088 -0.1376  0.1298 -0.2178
  223POPC   NC3 3158   4.829   1.380   4.678  0.1206  0.1417  0.2834
  223POPC   PO4 3159   5.197   1.712   4.762 -0.1466 -0.0417 -0.4007
  223POPC   GL1 3160   4.972   1.663   5.089  0.1373 -0.0838 -0.3603
  223POPC   GL2 3161   4.834   1.967   5.327 -0.0252 -0.2685 -0.1945
  223POPC   C1A 3162   4.902   1.455   5.445 -0.2960 -0.2318 -0.1543
  223POPC   D2A 3163   5.065   1.356   5.947 -0.1708 -0.3674 -0.0814
  223POPC   C3A 3164   5.240   0.970   6.132  0.1267  0.1519 -0.1111
  223POPC   C4A 3165   5.112   0.596   6.432  0.1449  0.2405  0.3530
  223POPC   C1B 3166   4.852   2.250   5.795 -0.1475 -0.1348  0.0245
  223POPC   C2B 3167   4.616   2.100   6.209 -0.1104  0.2099 -0.0822
  223POPC   C3B 3168   4.272   1.859   6.277 -0.2266  0.2096  0.0608
  223POPC   C4B 3169   4.112   1.603   6.566 -0.1908 -0.1624 -0.0400
  224POPC   NC3 3170   6.408   3.439   4.781  0.1157 -0.2172  0.0474
  224POPC   PO4 3171   6.015   3.371   4.941  0.0875  0.3046 -0.1383
  224POPC   GL1 3172   5.831   3.589   5.356 -0.0947 -0.2093  0.2427
  224POPC   GL2 3173   6.069   3.559   5.538  0.2934  0.3673 -0.3711
  224POPC   C1A 3174   5.594   3.749   5.817  0.2379  0.0491  0.2847
  224POPC   D2A 3175   5.563   3.946   6.231 -0.0424 -0.0354  0.1299
  224POPC   C3A 3176   5.376   3.672   6.592 -0.0085 -0.1085 -0.0118
  224POPC   C4A 3177   5.214   3.543   7.124 -0.0162 -0.0142  0.0098
  224POPC   C1B 3178   6.031   3.583   5.952  0.0089 -0.0941 -0.0654
  224POPC   C2B 3179   6.059   3.822   6.311 -0.3151 -0.1509 -0.0389
  224POPC   C3B 3180   6.168   4.038   6.764 -0.0659  0.4795  0.3724
  224POPC   C4B 3181   6.623   4.109   6.925  0.3853  0.2251 -0.1486
  225POPC   NC3 3182   9.966  10.341   5.427  0.0121  0.0625  0.1898
  225POPC   PO4 3183  10.343  10.143   5.306 -0.0729 -0.0913  0.2211
  225POPC   GL1 3184  10.268   9.846   5.709 -0.0393  0.0414  0.3435
  225POPC   GL2 3185  10.075  10.072   5.809  0.0434  0.1078 -0.1237
  225POPC   C1A 3186  10.269   9.465   5.937  0.0728 -0.2567 -0.3229
  225POPC   D2A 3187  10.396   9.342   6.285 -0.1954 -0.0994 -0.1924
  225POPC   C3A 3188  10.161   9.082   6.650  0.2403 -0.0248  0.1233
  225POPC   C4A 3189  10.076   8.794   6.989  0.0770 -0.2418  0.2027
  225POPC   C1B 3190   9.963   9.717   6.250  0.0939 -0.0650 -0.1747
  225POPC   C2B 3191   9.774   9.414   6.559  0.0428  0.1614 -0.0755
  225POPC   C3B 3192   9.858   9.273   7.010 -0.1457 -0.0107  0.2045
  225POPC   C4B 3193   9.645   9.433   7.394  0.2983 -0.0373  0.2415
  226POPC   NC3 3194   9.027   0.429   5.002  0.2628 -0.0042  0.3032
  226POPC   PO4 3195   8.900   0.149   4.797  0.1927  0.2316 -0.1775
  226POPC   GL1 3196   8.761   0.067   5.309  0.0174  0.3558 -0.2030
  226POPC   GL2 3197   8.952   0.202   5.586 -0.1259 -0.0542  0.0339
  226POPC   C1A 3198   8.515  -0.260   5.616 -0.0061 -0.0197 -0.0419
  226POPC   D2A 3199   8.406  -0.459   6.087 -0.2438  0.2073 -0.2890
  226POPC   C3A 3200   8.371  -0.245   6.410 -0.1103  0.0684 -0.1576
  226POPC   C4A 3201   8.512   0.231   6.424  0.1534 -0.2465  0.0064
  226POPC   C1B 3202   9.187   0.099   6.060 -0.4130 -0.1989  0.1186
  226POPC   C2B 3203   8.955   0.005   6.457 -0.2523  0.1608  0.2099
  226POPC   C3B 3204   9.096  -0.298   6.788 -0.1116  0.1147  0.0207
  226POPC   C4B 3205   8.788  -0.527   6.989  0.0677 -0.1251  0.1349
  227POPC   NC3 3206   0.270   4.807   4.250  0.2585  0.2311  0.1025
  227POPC   PO4 3207   0.461   4.769   4.715  0.1470  0.2592  0.2028
  227POPC   GL1 3208   0.454   4.803   5.215  0.2394  0.0930 -0.1464
  227POPC   GL2 3209   0.753   4.990   5.263 -0.1171 -0.0843  0.4147
  227POPC   C1A 3210   0.196   4.731   5.629  0.2571 -0.0785  0.1360
  227POPC   D2A 3211  -0.133   4.541   5.884  0.0829 -0.0447  0.1408
  227POPC   C3A 3212  -0.238   4.157   6.192  0.0765 -0.2993 -0.1051
  227POPC   C4A 3213   0.110   3.826   6.236 -0.3327  0.2049  0.1721
  227POPC   C1B 3214   0.677   4.828   5.695 -0.2271 -0.2926  0.2026
  227POPC   C2B 3215   0.725   4.387   5.951  0.0635  0.1406  0.0651
  227POPC   C3B 3216   0.996   4.104   5.748  0.5615  0.4800  0.3331
  227POPC   C4B 3217   1.015   3.740   5.355  0.0436 -0.0840 -0.1035
  228POPC   NC3 3218   3.540   4.531   4.756  0.4621 -0.0837 -0.0983
  228POPC   PO4 3219   3.693   4.130   4.724  0.0314 -0.1500  0.3876
  228POPC   GL1 3220   3.512   4.026   5.087 -0.2015 -0.2143 -0.0908
  228POPC   GL2 3221   3.441   4.332   5.250  0.1684  0.1932 -0.0682
  228POPC   C1A 3222   3.723   4.037   5.499  0.0930 -0.0395  0.0780
  228POPC   D2A 3223   3.836   4.355   5.873  0.2620  0.0890  0.0612
  228POPC   C3A 3224   3.801   4.377   6.279  0.4055 -0.1240  0.2873
  228POPC   C4A 3225   3.631   4.713   6.591 -0.5097 -0.1214  0.1340
  228POPC   C1B 3226   3.074   4.454   5.382  0.0842  0.0764  0.1867
  228POPC   C2B 3227   2.639   4.682   5.430  0.0491 -0.1075  0.2670
  228POPC   C3B 3228   2.534   4.800   5.860  0.0901  0.0017 -0.2576
  228POPC   C4B 3229   2.518   4.390   6.043 -0.4911  0.1554 -0.0002
  229POPC   NC3 3230   2.888   5.975   4.869  0.2150 -0.2739  0.2408
  229POPC   PO4 3231   2.873   6.351   4.823 -0.2116 -0.1333 -0.0791
  229POPC   GL1 3232   2.756   6.608   5.080 -0.1773 -0.2382 -0.0998
  229POPC   GL2 3233   2.459   6.658   5.175  0.1314 -0.0160  0.1294
  229POPC   C1A 3234   2.856   6.901   5.348  0.0510  0.0589 -0.0527
  229POPC   D2A 3235   3.016   7.021   5.658  0.2485 -0.3636 -0.0725
  229POPC   C3A 3236   3.449   7.185   5.789  0.1860 -0.1053  0.2398
  229POPC   C4A 3237   3.787   7.462   5.642  0.3515 -0.3684  0.0074
  229POPC   C1B 3238   2.536   6.470   5.543  0.0446  0.2119  0.0366
  229POPC   C2B 3239   2.839   6.614   5.964 -0.0158 -0.0598  0.3162
  229POPC   C3B 3240   2.870   6.905   6.127 -0.1049  0.1106 -0.1882
  229POPC   C4B 3241   3.038   7.365   6.058  0.1354 -0.0819 -0.1386
  230POPC   NC3 3242   0.850   1.372   5.163  0.0940 -0.1255  0.0173
  230POPC   PO4 3243   1.095   1.188   4.855  0.0952 -0.1341  0.0568
  230POPC   GL1 3244   1.327   1.095   5.184  0.0241 -0.5659  0.0828
  230POPC   GL2 3245   1.102   0.955   5.370  0.0536  0.1077 -0.1507
  230POPC   C1A 3246   1.582   1.169   5.472 -0.0941  0.3737  0.1742
  230POPC   D2A 3247   1.903   1.048   5.611  0.0401  0.0454 -0.1259
  230POPC   C3A 3248   1.689   0.896   5.976 -0.0490  0.3288 -0.0821
  230POPC   C4A 3249   1.553   0.780   6.371  0.3082 -0.1011  0.1003
  230POPC   C1B 3250   1.151   1.065   5.765 -0.1440  0.2453 -0.1571
  230POPC   C2B 3251   1.301   1.150   6.248  0.0235 -0.0116  0.2287
  230POPC   C3B 3252   1.022   1.241   6.542 -0.0967  0.5129  0.2578
  230POPC   C4B 3253   0.833   1.237   6.919  0.0667 -0.1292  0.3063
  231POPC   NC3 3254   4.485   9.755   3.677 -0.0234 -0.2425  0.2534
  231POPC   PO4 3255   4.131   9.451   3.777 -0.0472  0.1167 -0.0716
  231POPC   GL1 3256   4.344   9.528   4.255 -0.0141 -0.0570  0.0759
  231POPC   GL2 3257   4.638   9.745   4.219  0.2805 -0.3015 -0.0543
  231POPC   C1A 3258   4.206   9.703   4.692  0.1558 -0.0520  0.2213
  231POPC   D2A 3259   4.101   9.653   5.159 -0.0448  0.1993 -0.0562
  231POPC   C3A 3260   3.808   9.942   5.310 -0.2919  0.5916  0.1101
  231POPC   C4A 3261   3.562  10.120   5.594 -0.0268  0.0760 -0.3279
  231POPC   C1B 3262   4.726   9.803   4.574  0.5831  0.0407  0.2084
  231POPC   C2B 3263   4.629   9.762   5.016 -0.2357  0.0567  0.3623
  231POPC   C3B 3264   4.608   9.430   5.194 -0.0501 -0.1049 -0.1370
  231POPC   C4B 3265   4.894   9.412   5.530 -0.0721  0.2017 -0.1349
  232POPC   NC3 3266   8.390   8.999   4.148 -0.3455 -0.0427  0.0756
  232POPC   PO4 3267   7.963   9.058   4.065 -0.4583  0.3726 -0.0737
  232POPC   GL1 3268   7.810   9.232   4.480  0.0028  0.0773 -0.1834
  232POPC   GL2 3269   7.758   8.914   4.671  0.1029 -0.2267 -0.2536
  232POPC   C1A 3270   7.722   9.465   4.904 -0.0821  0.1179  0.0256
  232POPC   D2A 3271   7.354   9.653   5.138  0.2692  0.0011  0.2876
  232POPC   C3A 3272   7.359   9.875   5.493 -0.0666  0.3591 -0.0437
  232POPC   C4A 3273   7.551  10.086   5.658  0.2588  0.0985 -0.0475
  232POPC   C1B 3274   7.417   8.780   5.053 -0.0341 -0.1233 -0.0878
  232POPC   C2B 3275   7.548   8.607   5.491 -0.0835 -0.1382 -0.3778
  232POPC   C3B 3276   7.491   8.841   5.877 -0.2953 -0.2963  0.4036
  232POPC   C4B 3277   7.278   8.765   6.238  0.1089  0.1379  0.0010
  233POPC   NC3 3278   5.474   3.554   4.896  0.0099  0.2656  0.0996
  233POPC   PO4 3279   5.076   3.508   4.890 -0.1573 -0.2089  0.0161
  233POPC   GL1 3280   4.950   3.408   5.290  0.1171  0.0556 -0.1233
  233POPC   GL2 3281   4.581   3.385   5.323 -0.2547  0.2887 -0.0646
  233POPC   C1A 3282   4.815   3.222   5.764 -0.1264 -0.2459  0.1231
  233POPC   D2A 3283   4.821   3.103   6.183 -0.2580 -0.0368 -0.3207
  233POPC   C3A 3284   4.457   3.209   6.327 -0.0416  0.0428  0.2260
  233POPC   C4A 3285   4.085   3.031   6.095 -0.1521  0.2706  0.1213
  233POPC   C1B 3286   4.390   3.440   5.825 -0.1452  0.0250 -0.0370
  233POPC   C2B 3287   4.460   3.653   6.132  0.3990  0.1495  0.0839
  233POPC   C3B 3288   4.419   3.802   6.562  0.1896 -0.2609 -0.1868
  233POPC   C4B 3289   4.464   3.843   6.936  0.3259  0.1526 -0.3352
  234POPC   NC3 3290   8.907   8.232   4.682  0.3064  0.1140  0.0560
  234POPC   PO4 3291   8.854   8.153   5.126  0.0273  0.1356 -0.1742
  234POPC   GL1 3292   9.083   8.209   5.590  0.0864  0.2357  0.3392
  234POPC   GL2 3293   9.195   7.947   5.555  0.0655  0.0135 -0.0396
  234POPC   C1A 3294   9.103   8.229   6.057  0.2838 -0.2823 -0.2416
  234POPC   D2A 3295   8.827   8.245   6.291  0.2838  0.3636 -0.3757
  234POPC   C3A 3296   8.516   8.537   6.508  0.2817 -0.1497  0.3094
  234POPC   C4A 3297   8.324   8.349   6.839 -0.0323 -0.0930  0.0782
  234POPC   C1B 3298   9.100   7.752   5.982  0.0365  0.1411 -0.1404
  234POPC   C2B 3299   9.128   7.562   6.422 -0.2472  0.0228  0.1109
  234POPC   C3B 3300   9.333   7.556   6.754 -0.1184  0.0592  0.0004
  234POPC   C4B 3301   9.580   7.832   6.892  0.1575  0.0155  0.0005
  235POPC   NC3 3302  10.187   2.217   4.756  0.0058  0.1265 -0.2108
  235POPC   PO4 3303  10.045   2.592   4.997 -0.0086  0.0043 -0.0044
  235POPC   GL1 3304   9.928   2.864   5.419  0.0983  0.4842 -0.0914
  235POPC   GL2 3305   9.596   2.785   5.453 -0.1105  0.3070  0.3009
  235POPC   C1A 3306   9.810   2.997   5.857 -0.1304 -0.3443  0.0457
  235POPC   D2A 3307   9.757   3.168   6.291 -0.0051 -0.0194 -0.0185
  235POPC   C3A 3308   9.737   3.560   6.266 -0.0508 -0.0279 -0.3076
  235POPC   C4A 3309   9.803   3.961   6.154  0.0434  0.0354  0.0709
  235POPC   C1B 3310   9.365   2.357   5.664 -0.3463  0.4136 -0.0623
  235POPC   C2B 3311   9.091   2.295   6.072  0.0442  0.1208 -0.2809
  235POPC   C3B 3312   8.803   2.346   6.443 -0.2381  0.1948 -0.0827
  235POPC   C4B 3313   8.714   2.297   6.979  0.2819 -0.0155  0.0747
  236POPC   NC3 3314   1.648   1.960   4.702 -0.2875 -0.1871 -0.0303
  236POPC   PO4 3315   1.417   2.171   4.915 -0.3475 -0.0557  0.2096
  236POPC   GL1 3316   1.733   2.116   5.256 -0.3275  0.2668 -0.0139
  236POPC   GL2 3317   2.087   2.247   5.179  0.0741  0.0792  0.1919
  236POPC   C1A 3318   1.591   2.281   5.670  0.1915 -0.0116 -0.2938
  236POPC   D2A 3319   1.549   2.452   6.165  0.1106  0.1885 -0.0817
  236POPC   C3A 3320   1.177   2.513   6.397 -0.0311 -0.2101  0.4800
  236POPC   C4A 3321   1.138   2.560   6.892  0.0727 -0.2780 -0.1156
  236POPC   C1B 3322   2.105   2.290   5.588 -0.2500 -0.3134 -0.1266
  236POPC   C2B 3323   1.987   2.308   6.006 -0.1223  0.1336  0.2013
  236POPC   C3B 3324   1.847   2.283   6.514 -0.1871  0.4124 -0.1083
  236POPC   C4B 3325   1.809   2.357   7.020  0.0745  0.1158 -0.5134
  237POPC   NC3 3326   2.039   6.461   5.035  0.1143  0.0131  0.0733
  237POPC   PO4 3327   1.773   6.747   4.932 -0.0613 -0.1645  0.2561
  237POPC   GL1 3328   2.076   6.877   5.318 -0.0227  0.0019  0.1182
  237POPC   GL2 3329   2.215   7.151   5.254  0.1290 -0.0207  0.0191
  237POPC   C1A 3330   1.945   6.690   5.703  0.1132  0.0755  0.2182
  237POPC   D2A 3331   1.806   6.486   5.977  0.2886  0.1943 -0.2572
  237POPC   C3A 3332   2.095   6.400   6.409  0.0781 -0.1240  0.0581
  237POPC   C4A 3333   2.232   6.574   6.782 -0.0840  0.0967 -0.1452
  237POPC   C1B 3334   2.461   7.061   5.606  0.0187  0.1840  0.4072
  237POPC   C2B 3335   2.418   7.101   5.985 -0.1072  0.0296 -0.4495
  237POPC   C3B 3336   2.601   7.365   6.267  0.1420 -0.0110 -0.0922
  237POPC   C4B 3337   2.866   7.468   6.512  0.1431  0.2646 -0.2325
  238POPC   NC3 3338   8.530   5.332   4.868 -0.5659  0.1410 -0.1193
  238POPC   PO4 3339   8.320   4.914   4.835  0.1224 -0.0629  0.1036
  238POPC   GL1 3340   8.171   4.784   5.253 -0.0702  0.3786  0.1254
  238POPC   GL2 3341   8.238   5.142   5.406 -0.1556 -0.2346 -0.0084
  238POPC   C1A 3342   7.778   4.752   5.608  0.2582  0.0846  0.2779
  238POPC   D2A 3343   7.606   4.781   5.983 -0.0334 -0.2689  0.0375
  238POPC   C3A 3344   7.795   4.833   6.311  0.1969 -0.0032 -0.0198
  238POPC   C4A 3345   7.755   4.745   6.667 -0.0070  0.2022 -0.1161
  238POPC   C1B 3346   8.593   5.291   5.524 -0.2562 -0.2476  0.0343
  238POPC   C2B 3347   8.974   5.202   5.828  0.3752 -0.3224 -0.2939
  238POPC   C3B 3348   9.286   5.343   5.966  0.2028 -0.0192 -0.0336
  238POPC   C4B 3349   9.414   5.709   5.745  0.1873  0.0794  0.0343
  239POPC   NC3 3350   2.343   4.016   4.312 -0.0863 -0.2360 -0.0555
  239POPC   PO4 3351   2.305   3.534   4.531  0.0454  0.2821 -0.3872
  239POPC   GL1 3352   2.189   3.794   4.950  0.3582  0.2619 -0.1306
  239POPC   GL2 3353   2.135   4.110   4.834 -0.6364 -0.0708  0.3000
  239POPC   C1A 3354   2.279   3.725   5.400  0.0045  0.0667 -0.1747
  239POPC   D2A 3355   2.504   3.874   5.875  0.0081 -0.0053 -0.2202
  239POPC   C3A 3356   2.858   3.715   6.120  0.0337 -0.2469  0.1571
  239POPC   C4A 3357   3.320   3.513   6.153 -0.1006 -0.0065 -0.2723
  239POPC   C1B 3358   2.456   4.193   5.134  0.0796  0.3208  0.1868
  239POPC   C2B 3359   2.688   4.076   5.431 -0.0091 -0.0820 -0.2718
  239POPC   C3B 3360   2.979   4.051   5.772  0.0576 -0.0047  0.2140
  239POPC   C4B 3361   2.958   4.203   6.115 -0.0762 -0.0749 -0.0932
  240POPC   NC3 3362   7.492  10.428   4.108  0.1095 -0.3532  0.0992
  240POPC   PO4 3363   7.329   9.975   4.153 -0.0232 -0.2239  0.2891
  240POPC   GL1 3364   7.074   9.966   4.457  0.1915  0.2543  0.2288
  240POPC   GL2 3365   6.989  10.338   4.465  0.0217  0.0877 -0.0795
  240POPC   C1A 3366   6.999   9.772   4.817  0.1126  0.2801 -0.0576
  240POPC   D2A 3367   6.753   9.394   4.986  0.1073  0.0947 -0.1538
  240POPC   C3A 3368   6.713   9.043   5.025 -0.0477  0.3779 -0.2518
  240POPC   C4A 3369   6.573   8.712   5.312  0.0865  0.0656 -0.2178
  240POPC   C1B 3370   7.317  10.458   4.734 -0.1942  0.2381  0.0494
  240POPC   C2B 3371   7.576  10.145   5.072  0.1275  0.0554  0.2138
  240POPC   C3B 3372   7.858   9.890   5.193  0.3567 -0.2254 -0.0997
  240POPC   C4B 3373   8.005   9.465   5.287  0.0015  0.0565 -0.1970
  241POPC   NC3 3374   5.881   0.708   4.287 -0.0130  0.0436 -0.2050
  241POPC   PO4 3375   5.922   0.994   4.606  0.2176  0.1925  0.1394
  241POPC   GL1 3376   5.865   1.037   4.973 -0.0634  0.2559 -0.0843
  241POPC   GL2 3377   6.205   0.910   5.026  0.0483  0.0142  0.3061
  241POPC   C1A 3378   5.490   1.085   5.256 -0.1439 -0.2106 -0.2956
  241POPC   D2A 3379   5.303   1.157   5.571  0.3114 -0.0258  0.0029
  241POPC   C3A 3380   5.509   1.391   5.909 -0.1877  0.4418 -0.1775
  241POPC   C4A 3381   5.493   1.587   6.308 -0.1034 -0.0032 -0.0250
  241POPC   C1B 3382   6.359   0.980   5.462  0.0314 -0.2345 -0.1708
  241POPC   C2B 3383   6.235   0.644   5.810  0.4291 -0.1818 -0.2181
  241POPC   C3B 3384   6.219   0.602   6.208 -0.1152  0.2148  0.2321
  241POPC   C4B 3385   6.052   0.518   6.582  0.1953 -0.0447 -0.0384
  242POPC   NC3 3386   6.211   6.267   3.634  0.1677  0.2500  0.2910
  242POPC   PO4 3387   5.891   6.132   3.973 -0.0910 -0.0787 -0.3701
  242POPC   GL1 3388   5.819   6.246   4.372  0.0073 -0.1588 -0.2000
  242POPC   GL2 3389   5.893   6.089   4.605 -0.2282  0.0901  0.2002
  242POPC   C1A 3390   5.645   6.612   4.604  0.3409 -0.2160  0.0330
  242POPC   D2A 3391   5.222   6.840   4.569 -0.1009  0.2162  0.3561
  242POPC   C3A 3392   4.834   6.723   4.854 -0.2016 -0.0958 -0.1872
  242POPC   C4A 3393   4.671   6.372   5.105  0.2555 -0.0379  0.0200
  242POPC   C1B 3394   5.905   6.284   4.985 -0.1298 -0.2451  0.2034
  242POPC   C2B 3395   5.825   6.554   5.344 -0.0944  0.2138  0.0443
  242POPC   C3B 3396   5.537   6.596   5.602  0.4170 -0.0782  0.0896
  242POPC   C4B 3397   5.554   6.508   6.033  0.0716 -0.1613  0.1215
  243POPC   NC3 3398   4.028   0.600   3.954  0.3271  0.0059 -0.1410
  243POPC   PO4 3399   4.068   0.363   4.289 -0.0386 -0.1195  0.1814
  243POPC   GL1 3400   4.273   0.241   4.697  0.1280  0.1707  0.1551
  243POPC   GL2 3401   4.498   0.467   4.718 -0.0461 -0.1770 -0.1771
  243POPC   C1A 3402   4.199   0.196   5.165 -0.1776 -0.3819 -0.2814
  243POPC   D2A 3403   4.469   0.103   5.374 -0.4054 -0.0670 -0.3424
  243POPC   C3A 3404   4.714  -0.334   5.403 -0.1047  0.0506  0.0331
  243POPC   C4A 3405   4.997  -0.649   5.329 -0.0385  0.0742 -0.1080
  243POPC   C1B 3406   4.714   0.377   5.056 -0.1175  0.2032  0.0895
  243POPC   C2B 3407   4.882   0.387   5.449 -0.2014  0.0579 -0.1616
  243POPC   C3B 3408   4.908   0.119   5.730  0.2521 -0.1033 -0.0797
  243POPC   C4B 3409   5.217  -0.165   5.591  0.0425 -0.0182  0.3786
  244POPC   NC3 3410   0.570   9.775   5.126  0.2072  0.0560  0.1452
  244POPC   PO4 3411   0.654  10.202   5.053  0.0250 -0.1639  0.0054
  244POPC   GL1 3412   0.855  10.100   5.413  0.1024 -0.0439 -0.0263
  244POPC   GL2 3413   1.162   9.951   5.384  0.0909  0.3435 -0.1549
  244POPC   C1A 3414   0.616  10.177   5.882 -0.2447 -0.1421  0.0048
  244POPC   D2A 3415   0.621  10.033   6.348 -0.1009  0.0758  0.1235
  244POPC   C3A 3416   0.660  10.221   6.668  0.2026  0.2282 -0.0088
  244POPC   C4A 3417   0.856  10.683   6.912 -0.0174 -0.2465 -0.1016
  244POPC   C1B 3418   1.131  10.108   5.908 -0.0505 -0.0807  0.0484
  244POPC   C2B 3419   1.092   9.872   6.307 -0.0049 -0.1673  0.0832
  244POPC   C3B 3420   0.843   9.707   6.678  0.0682  0.0255 -0.0114
  244POPC   C4B 3421   0.597   9.720   7.059  0.2858 -0.0672  0.1530
  245POPC   NC3 3422   1.174   2.765   5.278  0.0884  0.0413 -0.0742
  245POPC   PO4 3423   0.794   2.790   5.100  0.0136  0.0090 -0.1532
  245POPC   GL1 3424   0.787   2.824   5.600 -0.1427 -0.0963 -0.0190
  245POPC   GL2 3425   0.917   2.557   5.686 -0.0506  0.0518  0.1431
  245POPC   C1A 3426   0.565   2.974   5.862 -0.1517  0.1216 -0.3680
  245POPC   D2A 3427   0.310   2.904   6.214  0.3381  0.0946  0.1255
  245POPC   C3A 3428   0.560   2.868   6.543  0.0914  0.1116 -0.0255
  245POPC   C4A 3429   0.589   2.597   6.870 -0.1184 -0.0887  0.4110
  245POPC   C1B 3430   0.642   2.477   6.068  0.0225 -0.1530 -0.0679
  245POPC   C2B 3431   0.243   2.446   6.333  0.1285 -0.0356  0.1542
  245POPC   C3B 3432   0.060   2.661   6.795  0.0078 -0.3365 -0.3307
  245POPC   C4B 3433  -0.331   2.840   6.750  0.2168 -0.0269  0.2438
  246POPC   NC3 3434   7.625   8.198   3.860  0.1732 -0.1081  0.0853
  246POPC   PO4 3435   7.820   7.878   4.066  0.0490 -0.2896  0.1936
  246POPC   GL1 3436   7.689   7.868   4.512 -0.2740  0.0145  0.3500
  246POPC   GL2 3437   7.454   7.556   4.357  0.1602 -0.2263 -0.2278
  246POPC   C1A 3438   7.899   7.806   4.934 -0.0349 -0.1137  0.3155
  246POPC   D2A 3439   7.710   7.684   5.350 -0.0292 -0.0255 -0.2037
  246POPC   C3A 3440   7.360   7.574   5.516  0.1082 -0.2866 -0.2373
  246POPC   C4A 3441   7.142   7.716   5.887  0.1694  0.0936 -0.0462
  246POPC   C1B 3442   7.138   7.262   4.572 -0.0231  0.3310 -0.2391
  246POPC   C2B 3443   6.936   6.994   4.963 -0.0024  0.1965 -0.2172
  246POPC   C3B 3444   6.548   7.155   5.231  0.1616  0.1257  0.1286
  246POPC   C4B 3445   6.376   7.270   5.670 -0.0059 -0.2929  0.0706
  247POPC   NC3 3446   0.079   3.875   4.018  0.2884  0.2493  0.1646
  247POPC   PO4 3447   0.110   3.807   4.506 -0.0417 -0.3508  0.0191
  247POPC   GL1 3448   0.216   3.764   4.904  0.3561 -0.2787 -0.0751
  247POPC   GL2 3449  -0.019   3.507   5.140  0.1488 -0.1571 -0.2343
  247POPC   C1A 3450   0.391   3.654   5.330 -0.0964 -0.4957  0.2207
  247POPC   D2A 3451   0.596   3.775   5.691  0.1166 -0.0579 -0.1798
  247POPC   C3A 3452   0.553   3.510   6.030  0.2588  0.3868 -0.4061
  247POPC   C4A 3453   0.328   3.397   6.339 -0.0541 -0.2640  0.0123
  247POPC   C1B 3454  -0.300   3.260   5.546 -0.0400  0.1515 -0.1187
  247POPC   C2B 3455  -0.222   2.818   5.738  0.0730  0.2122 -0.2735
  247POPC   C3B 3456  -0.559   2.550   5.857  0.0401 -0.0509  0.1134
  247POPC   C4B 3457  -0.608   2.130   5.934 -0.0909  0.0083  0.1039
  248POPC   NC3 3458   6.101   8.315   3.518 -0.0389 -0.0333 -0.1342
  248POPC   PO4 3459   6.209   7.898   3.642 -0.1673  0.1616 -0.2320
  248POPC   GL1 3460   5.997   7.945   3.966 -0.0104  0.2553 -0.3678
  248POPC   GL2 3461   5.729   7.680   3.966 -0.4029 -0.0651 -0.0283
  248POPC   C1A 3462   5.977   8.044   4.323 -0.1615  0.2597  0.2425
  248POPC   D2A 3463   5.963   8.038   4.844 -0.2226 -0.0879 -0.0502
  248POPC   C3A 3464   5.641   8.028   5.284 -0.0868  0.1517 -0.1188
  248POPC   C4A 3465   5.278   8.022   5.527  0.1829  0.1763  0.3327
  248POPC   C1B 3466   5.433   7.922   4.257 -0.3160 -0.0126  0.2445
  248POPC   C2B 3467   5.417   8.052   4.652  0.0591  0.1282  0.4334
  248POPC   C3B 3468   5.524   7.750   4.908 -0.3523  0.0303 -0.1102
  248POPC   C4B 3469   5.507   7.557   5.363 -0.3540 -0.0559  0.2005
  249POPC   NC3 3470   1.652   9.222   4.841 -0.3450 -0.1363  0.0838
  249POPC   PO4 3471   2.075   9.301   4.829 -0.2021  0.1994  0.0204
  249POPC   GL1 3472   2.045   8.984   5.184  0.3196 -0.3560  0.0064
  249POPC   GL2 3473   2.019   9.272   5.407 -0.0121 -0.1112 -0.0250
  249POPC   C1A 3474   2.336   8.904   5.499 -0.1927  0.0379 -0.1629
  249POPC   D2A 3475   2.447   8.689   5.868  0.1728  0.2532  0.2206
  249POPC   C3A 3476   2.251   8.697   6.246  0.2092  0.0190  0.0677
  249POPC   C4A 3477   2.012   8.656   6.634  0.1509  0.2400  0.1324
  249POPC   C1B 3478   1.990   9.596   5.736 -0.2102 -0.2172  0.1030
  249POPC   C2B 3479   2.109   9.584   6.206  0.0347  0.0377  0.0385
  249POPC   C3B 3480   2.102   9.175   6.478  0.2340 -0.1582  0.0479
  249POPC   C4B 3481   2.379   8.992   6.843 -0.1326  0.1736 -0.0506
  250POPC   NC3 3482   7.096   1.871   5.019  0.1073 -0.0654  0.2008
  250POPC   PO4 3483   6.869   2.274   5.108  0.0417 -0.2100 -0.2310
  250POPC   GL1 3484   6.690   2.409   5.507  0.0896  0.5642 -0.5696
  250POPC   GL2 3485   6.428   2.156   5.494  0.2806 -0.0873 -0.1526
  250POPC   C1A 3486   6.636   2.458   5.935 -0.0503 -0.0000  0.3465
  250POPC   D2A 3487   6.586   2.276   6.302 -0.0150 -0.0782 -0.2179
  250POPC   C3A 3488   6.293   2.031   6.340 -0.0330 -0.1817  0.2204
  250POPC   C4A 3489   5.875   1.895   6.502 -0.1302  0.1923  0.4985
  250POPC   C1B 3490   6.132   2.210   5.852  0.1762 -0.1486  0.0149
  250POPC   C2B 3491   5.766   2.269   6.071 -0.1973 -0.1990 -0.1559
  250POPC   C3B 3492   5.421   2.350   6.426  0.3504  0.1476 -0.0225
  250POPC   C4B 3493   5.214   2.185   6.727 -0.1288  0.1435  0.0553
  251POPC   NC3 3494   2.118   2.546   4.462  0.2413 -0.0346  0.2046
  251POPC   PO4 3495   2.342   2.552   4.779 -0.2943  0.2411 -0.0223
  251POPC   GL1 3496   2.496   2.512   5.216 -0.0475  0.3401  0.2826
  251POPC   GL2 3497   2.497   2.869   5.356 -0.1470  0.4422 -0.0949
  251POPC   C1A 3498   2.633   2.480   5.681  0.1107  0.1687  0.1513
  251POPC   D2A 3499   2.483   2.505   6.108  0.0110 -0.0062 -0.3774
  251POPC   C3A 3500   2.597   2.536   6.514  0.1763  0.2700 -0.0145
  251POPC   C4A 3501   2.606   2.447   6.847  0.2546 -0.0315  0.4086
  251POPC   C1B 3502   2.367   2.913   5.778  0.2090  0.1199  0.1240
  251POPC   C2B 3503   2.473   3.011   6.236  0.0554 -0.2127  0.0604
  251POPC   C3B 3504   2.781   3.117   6.433  0.4466 -0.0622 -0.0258
  251POPC   C4B 3505   3.164   3.166   6.472 -0.0556 -0.1094  0.4191
  252POPC   NC3 3506   8.997   6.790   5.060  0.1507 -0.0827 -0.0016
  252POPC   PO4 3507   8.957   7.203   4.733  0.2102 -0.1299 -0.0017
  252POPC   GL1 3508   8.702   7.259   5.148 -0.1055  0.0670  0.0462
  252POPC   GL2 3509   8.734   7.109   5.408  0.2388  0.0913 -0.2562
  252POPC   C1A 3510   8.710   7.631   5.513  0.2672 -0.0279 -0.0796
  252POPC   D2A 3511   8.568   7.845   5.794  0.3544  0.2563  0.1084
  252POPC   C3A 3512   8.532   8.168   5.791 -0.1449 -0.0947  0.1205
  252POPC   C4A 3513   8.292   8.447   5.814 -0.1775 -0.2471 -0.4511
  252POPC   C1B 3514   8.335   7.009   5.465  0.1304  0.2270 -0.0163
  252POPC   C2B 3515   8.008   6.989   5.794 -0.0958 -0.2476  0.0055
  252POPC   C3B 3516   7.562   7.130   5.721  0.0115 -0.0205 -0.0382
  252POPC   C4B 3517   7.384   7.082   6.015 -0.0532  0.1114  0.0385
  253POPC   NC3 3518   3.261   1.233   4.898 -0.0182 -0.0327 -0.0349
  253POPC   PO4 3519   3.567   1.579   4.690  0.0813 -0.0849  0.1886
  253POPC   GL1 3520   3.659   1.553   5.114  0.3847  0.1591  0.2471
  253POPC   GL2 3521   3.908   1.662   5.224 -0.0584  0.2030  0.0223
  253POPC   C1A 3522   3.507   1.410   5.528  0.0771  0.0045 -0.3266
  253POPC   D2A 3523   3.634   1.311   5.937 -0.1449  0.0716 -0.0356
  253POPC   C3A 3524   3.539   1.014   6.202  0.5135 -0.0667  0.0274
  253POPC   C4A 3525   3.435   0.781   6.551 -0.2262 -0.2896 -0.0609
  253POPC   C1B 3526   3.971   1.150   5.366  0.1008 -0.0937 -0.1086
  253POPC   C2B 3527   3.881   0.883   5.734  0.0896 -0.1490  0.1389
  253POPC   C3B 3528   3.726   0.528   6.067 -0.0552 -0.2092 -0.0121
  253POPC   C4B 3529   3.704   0.336   6.556  0.1306 -0.0095 -0.0421
  254POPC   NC3 3530   1.889   8.824   4.480 -0.1321  0.1047 -0.0954
  254POPC   PO4 3531   2.300   8.784   4.808 -0.0528  0.3264  0.0595
  254POPC   GL1 3532   2.366   8.628   5.029  0.0116  0.1176 -0.3850
  254POPC   GL2 3533   2.330   8.184   4.986  0.0889  0.1265 -0.0008
  254POPC   C1A 3534   2.354   8.404   5.393  0.1661  0.6206 -0.0381
  254POPC   D2A 3535   2.717   8.259   5.748 -0.0078  0.0338  0.2292
  254POPC   C3A 3536   2.914   8.323   6.215  0.3414 -0.2098 -0.0171
  254POPC   C4A 3537   3.216   8.486   6.402 -0.2364 -0.1646 -0.2506
  254POPC   C1B 3538   2.753   8.196   5.177 -0.0396 -0.0099 -0.0485
  254POPC   C2B 3539   2.981   7.895   5.505  0.1283  0.1047  0.1407
  254POPC   C3B 3540   3.128   7.512   5.523  0.1321 -0.0280 -0.1590
  254POPC   C4B 3541   3.324   7.158   5.197 -0.2834 -0.0366  0.3516
  255POPC   NC3 3542   3.017   0.027   4.284  0.1517 -0.6912 -0.3087
  255POPC   PO4 3543   2.760   0.016   4.672  0.1888  0.1672 -0.3446
  255POPC   GL1 3544   3.114   0.017   4.927 -0.2462 -0.0420  0.4663
  255POPC   GL2 3545   3.041  -0.086   5.206  0.4268  0.0067 -0.2988
  255POPC   C1A 3546   3.427   0.249   5.099 -0.0866 -0.2209 -0.0762
  255POPC   D2A 3547   3.695   0.316   5.554  0.2404  0.2053 -0.3256
  255POPC   C3A 3548   4.152   0.331   5.756 -0.1082  0.0329 -0.0135
  255POPC   C4A 3549   4.495   0.169   5.946 -0.1191 -0.1853 -0.0382
  255POPC   C1B 3550   3.134  -0.046   5.675  0.0600  0.1453 -0.0404
  255POPC   C2B 3551   3.403   0.154   5.980  0.1094  0.0520  0.1216
  255POPC   C3B 3552   3.765  -0.058   5.928  0.0239  0.2882 -0.0067
  255POPC   C4B 3553   4.013  -0.142   5.517  0.1394  0.3008 -0.0791
  256POPC   NC3 3554   7.471   2.637   5.457 -0.0158 -0.1047  0.1353
  256POPC   PO4 3555   7.763   2.463   5.495 -0.3736  0.0927  0.0776
  256POPC   GL1 3556   7.678   2.270   5.895  0.0479  0.0033  0.0024
  256POPC   GL2 3557   7.569   1.885   5.845  0.1168  0.2734  0.1225
  256POPC   C1A 3558   7.443   2.106   6.324 -0.1429 -0.1042 -0.0310
  256POPC   D2A 3559   7.265   2.194   6.651 -0.0296 -0.1664 -0.0139
  256POPC   C3A 3560   7.418   2.292   7.104 -0.1077 -0.1363  0.1586
  256POPC   C4A 3561   7.435   2.364   7.619  0.1761  0.1972  0.0180
  256POPC   C1B 3562   7.179   1.570   5.821  0.1879 -0.1315  0.1142
  256POPC   C2B 3563   7.054   1.401   6.100  0.0101 -0.2611  0.2635
  256POPC   C3B 3564   7.154   1.195   6.523  0.0288  0.0925 -0.1039
  256POPC   C4B 3565   7.096   1.305   6.957 -0.0476 -0.0246  0.1457
  257POPC   NC3 3566   5.348   5.694   4.639  0.0062  0.0718 -0.0546
  257POPC   PO4 3567   5.612   5.249   4.720  0.1929  0.0900  0.0345
  257POPC   GL1 3568   5.297   5.326   5.118 -0.0866 -0.3167 -0.3189
  257POPC   GL2 3569   5.208   5.096   5.388  0.1137  0.1885 -0.5924
  257POPC   C1A 3570   5.260   5.560   5.499  0.1463 -0.1834  0.2810
  257POPC   D2A 3571   5.169   5.441   5.971  0.1319 -0.2016 -0.3690
  257POPC   C3A 3572   5.124   5.858   6.186  0.0858  0.0968  0.0530
  257POPC   C4A 3573   5.158   6.070   6.612  0.1873  0.1597 -0.0158
  257POPC   C1B 3574   5.482   5.173   5.704  0.0201  0.2823  0.0736
  257POPC   C2B 3575   5.588   5.265   6.137 -0.2621  0.2631 -0.0980
  257POPC   C3B 3576   5.564   5.186   6.574 -0.0492  0.2244 -0.1187
  257POPC   C4B 3577   5.412   5.001   7.004  0.1203  0.0415  0.3666
  258POPC   NC3 3578   0.357   2.597   4.927 -0.1998 -0.4978  0.0884
  258POPC   PO4 3579  -0.013   2.964   5.056  0.0465  0.2223  0.0644
  258POPC   GL1 3580   0.235   3.089   5.410  0.2707 -0.1489  0.0078
  258POPC   GL2 3581   0.583   3.193   5.273  0.0369  0.0814 -0.0929
  258POPC   C1A 3582   0.129   3.154   5.824 -0.0299  0.2563 -0.2005
  258POPC   D2A 3583  -0.183   3.061   6.197  0.4546  0.2108  0.2099
  258POPC   C3A 3584  -0.317   3.296   6.508  0.3507  0.1197 -0.0514
  258POPC   C4A 3585   0.036   3.700   6.795  0.0629  0.0199 -0.2436
  258POPC   C1B 3586   0.839   3.323   5.607  0.3187  0.0943 -0.3761
  258POPC   C2B 3587   1.087   3.524   5.902  0.1036 -0.0229 -0.2904
  258POPC   C3B 3588   0.863   3.881   6.179 -0.0195  0.0268  0.2551
  258POPC   C4B 3589   0.716   4.262   6.477 -0.0617 -0.0396 -0.2420
  259POPC   NC3 3590   6.167   5.733   4.141  0.0996  0.0132 -0.1522
  259POPC   PO4 3591   6.632   5.752   4.217 -0.0398 -0.1772 -0.3845
  259POPC   GL1 3592   6.703   6.046   4.375  0.0957 -0.0295 -0.0362
  259POPC   GL2 3593   6.324   6.180   4.317  0.1221  0.4618  0.3562
  259POPC   C1A 3594   6.834   6.332   4.818 -0.0823  0.1335  0.0213
  259POPC   D2A 3595   6.572   6.645   5.092 -0.0828 -0.2974 -0.0612
  259POPC   C3A 3596   6.750   6.734   5.446  0.1866 -0.0355 -0.3470
  259POPC   C4A 3597   6.571   6.715   5.786 -0.0352  0.2834  0.0525
  259POPC   C1B 3598   6.382   6.229   4.802  0.1037  0.1524  0.2839
  259POPC   C2B 3599   6.402   6.165   5.230  0.4073  0.1232  0.1110
  259POPC   C3B 3600   6.254   6.375   5.575  0.0669 -0.0159  0.3733
  259POPC   C4B 3601   6.006   6.333   5.911 -0.0057  0.1571 -0.2562
  260POPC   NC3 3602   8.770   7.678   4.855  0.0728 -0.1536 -0.0494
  260POPC   PO4 3603   8.514   7.722   4.526  0.1034 -0.0433  0.2433
  260POPC   GL1 3604   8.374   7.974   4.941  0.3249 -0.0646  0.0403
  260POPC   GL2 3605   8.108   8.268   4.962 -0.1134  0.0422 -0.2354
  260POPC   C1A 3606   8.253   7.992   5.393  0.1430 -0.3419  0.0316
  260POPC   D2A 3607   8.065   7.980   5.786 -0.0427 -0.3616  0.1774
  260POPC   C3A 3608   7.818   8.393   5.828 -0.0075  0.3367 -0.0613
  260POPC   C4A 3609   7.589   8.425   6.187 -0.0632 -0.1842 -0.3869
  260POPC   C1B 3610   8.121   8.477   5.360  0.0938 -0.1578 -0.2853
  260POPC   C2B 3611   7.990   8.884   5.615  0.2401 -0.2076 -0.0249
  260POPC   C3B 3612   7.949   9.166   5.938 -0.2255  0.1240  0.1713
  260POPC   C4B 3613   8.063   9.338   6.298  0.1758  0.0234  0.0599
  261POPC   NC3 3614  10.281   8.420   4.663 -0.1832  0.1177  0.1985
  261POPC   PO4 3615   9.895   8.433   4.812  0.0081  0.1191 -0.1135
  261POPC   GL1 3616   9.717   8.341   5.218 -0.2414 -0.2452 -0.2910
  261POPC   GL2 3617   9.413   8.371   5.247 -0.2151 -0.0727 -0.0909
  261POPC   C1A 3618   9.797   8.242   5.622 -0.1602  0.1976  0.2396
  261POPC   D2A 3619  10.209   8.124   5.912  0.1447  0.2586  0.1340
  261POPC   C3A 3620  10.032   8.032   6.405 -0.1779  0.4630 -0.1354
  261POPC   C4A 3621   9.740   8.256   6.622  0.2827  0.2535 -0.1496
  261POPC   C1B 3622   9.498   8.585   5.735 -0.0069 -0.3806  0.0535
  261POPC   C2B 3623   9.409   8.700   6.140  0.0164 -0.0204  0.0356
  261POPC   C3B 3624   9.217   8.549   6.563  0.1396 -0.0707  0.0657
  261POPC   C4B 3625   8.845   8.386   6.821 -0.0012 -0.0003  0.0070
  262POPC   NC3 3626   0.739   1.731   4.650  0.0819  0.2622  0.1384
  262POPC   PO4 3627   0.965   1.887   4.975 -0.1655  0.1259  0.0896
  262POPC   GL1 3628   1.035   1.820   5.456  0.0796  0.3076 -0.2269
  262POPC   GL2 3629   1.168   1.542   5.543 -0.1646  0.2920  0.1425
  262POPC   C1A 3630   0.875   1.916   5.817 -0.1639  0.1159  0.2921
  262POPC   D2A 3631   1.038   2.018   6.190 -0.0650 -0.1245 -0.2170
  262POPC   C3A 3632   1.235   1.692   6.365  0.1382 -0.1952  0.3810
  262POPC   C4A 3633   1.444   1.469   6.733  0.2071  0.0561 -0.1136
  262POPC   C1B 3634   1.487   1.807   5.822 -0.0640  0.2571  0.1624
  262POPC   C2B 3635   1.687   1.876   6.208 -0.1465 -0.1360  0.3097
  262POPC   C3B 3636   1.833   1.781   6.642 -0.0878  0.3279 -0.2986
  262POPC   C4B 3637   1.907   1.593   7.064  0.1495 -0.0315  0.0445
  263POPC   NC3 3638   3.096   5.223   4.872 -0.5587 -0.2066  0.1815
  263POPC   PO4 3639   3.400   4.989   4.655 -0.0656  0.1515 -0.0950
  263POPC   GL1 3640   3.553   4.869   5.163 -0.2351 -0.2123  0.2098
  263POPC   GL2 3641   3.352   4.885   5.375 -0.2841  0.2643  0.1894
  263POPC   C1A 3642   3.807   4.672   5.469  0.1828  0.2517  0.2482
  263POPC   D2A 3643   4.194   4.533   5.511  0.2561 -0.1727 -0.1121
  263POPC   C3A 3644   4.362   4.395   5.916  0.1593 -0.2849  0.2804
  263POPC   C4A 3645   4.592   4.237   6.188  0.1086  0.0795 -0.1992
  263POPC   C1B 3646   2.959   4.894   5.765  0.0422 -0.0569  0.3270
  263POPC   C2B 3647   2.862   4.953   6.214 -0.0857 -0.0106  0.3272
  263POPC   C3B 3648   2.936   4.611   6.453 -0.1087 -0.0158 -0.1226
  263POPC   C4B 3649   2.918   4.354   6.774 -0.1559 -0.1834  0.1153
  264POPC   NC3 3650   5.657   9.515   3.193  0.0773  0.2277 -0.2628
  264POPC   PO4 3651   5.420   9.674   3.596  0.0867 -0.0430  0.0919
  264POPC   GL1 3652   5.520   9.552   3.883 -0.0803  0.2901  0.1198
  264POPC   GL2 3653   5.647   9.789   4.086 -0.2223 -0.1505  0.0322
  264POPC   C1A 3654   5.742   9.288   4.182 -0.0248  0.0029  0.0625
  264POPC   D2A 3655   6.122   9.138   4.249  0.0930 -0.1765 -0.3864
  264POPC   C3A 3656   6.226   9.407   4.608  0.0704 -0.0189 -0.4245
  264POPC   C4A 3657   6.252   9.269   5.002  0.5005 -0.0590 -0.0133
  264POPC   C1B 3658   5.162   9.699   4.333  0.1243 -0.0714 -0.0323
  264POPC   C2B 3659   4.977   9.364   4.404 -0.2857 -0.1019  0.1400
  264POPC   C3B 3660   4.713   9.063   4.255  0.0695 -0.1277  0.2160
  264POPC   C4B 3661   4.306   9.018   4.308 -0.2438  0.2552 -0.2114
  265POPC   NC3 3662   6.357   2.333   5.023 -0.0268 -0.0782  0.0639
  265POPC   PO4 3663   6.038   2.547   5.318  0.2302 -0.0892  0.0522
  265POPC   GL1 3664   6.171   2.700   5.747  0.4727 -0.0472  0.1701
  265POPC   GL2 3665   5.977   2.982   5.882 -0.1468 -0.0910  0.2899
  265POPC   C1A 3666   6.147   2.621   6.153  0.5664  0.3777 -0.3595
  265POPC   D2A 3667   5.976   2.657   6.453  0.3308 -0.3143 -0.1462
  265POPC   C3A 3668   5.826   3.028   6.380  0.2123 -0.0259  0.1283
  265POPC   C4A 3669   5.707   3.441   6.334 -0.0049 -0.0098 -0.0817
  265POPC   C1B 3670   5.651   3.241   5.784  0.3142  0.0675 -0.0160
  265POPC   C2B 3671   5.325   3.269   6.081  0.2079  0.3574  0.1424
  265POPC   C3B 3672   5.097   3.296   6.519 -0.1026  0.1619  0.0719
  265POPC   C4B 3673   5.071   3.059   6.900 -0.0815 -0.0277  0.1035
  266POPC   NC3 3674   7.014   1.093   4.054  0.0060 -0.2067 -0.3563
  266POPC   PO4 3675   6.798   0.850   4.452 -0.1277  0.0805 -0.0593
  266POPC   GL1 3676   7.125   1.014   4.861 -0.0256  0.2662  0.0540
  266POPC   GL2 3677   7.451   0.814   4.793  0.1544 -0.1849  0.0153
  266POPC   C1A 3678   6.985   0.885   5.239  0.0055 -0.1247 -0.2304
  266POPC   D2A 3679   6.733   0.656   5.651 -0.0905 -0.1982  0.1352
  266POPC   C3A 3680   6.744   0.532   6.037  0.0650  0.1933  0.2608
  266POPC   C4A 3681   6.665   0.588   6.405 -0.1710  0.1057 -0.4142
  266POPC   C1B 3682   7.465   0.761   5.265  0.1178 -0.0731 -0.1598
  266POPC   C2B 3683   7.598   0.545   5.605  0.3178  0.3046  0.1195
  266POPC   C3B 3684   7.855   0.163   5.853  0.2940 -0.0478 -0.1540
  266POPC   C4B 3685   8.048  -0.119   6.058 -0.1123 -0.1141 -0.0771
  267POPC   NC3 3686   2.304   5.317   4.233  0.2072  0.0125  0.2720
  267POPC   PO4 3687   2.654   5.387   4.643  0.1115  0.0176 -0.0500
  267POPC   GL1 3688   2.826   5.555   5.070  0.0716  0.3035  0.0070
  267POPC   GL2 3689   2.998   5.295   5.317  0.0570  0.2757 -0.2393
  267POPC   C1A 3690   2.718   5.668   5.487 -0.0157 -0.1913 -0.1557
  267POPC   D2A 3691   2.488   5.842   5.829  0.0050 -0.2487  0.2437
  267POPC   C3A 3692   2.448   6.054   6.186 -0.0442  0.0411 -0.3089
  267POPC   C4A 3693   2.625   6.485   6.453 -0.0858  0.0501  0.0564
  267POPC   C1B 3694   3.250   5.479   5.534  0.0033 -0.1385  0.0959
  267POPC   C2B 3695   3.592   5.605   5.902 -0.4903 -0.0906 -0.1004
  267POPC   C3B 3696   3.807   5.850   6.261  0.0493  0.0788  0.0669
  267POPC   C4B 3697   4.007   5.822   6.630 -0.0085 -0.1054  0.0508
  268POPC   NC3 3698   1.731   7.494   4.541 -0.3723  0.1914  0.0487
  268POPC   PO4 3699   1.653   7.875   4.578 -0.0302 -0.0207  0.0307
  268POPC   GL1 3700   1.692   7.947   4.978  0.0284 -0.6906  0.3297
  268POPC   GL2 3701   1.968   7.752   5.142 -0.0880 -0.0535 -0.2899
  268POPC   C1A 3702   1.552   7.852   5.384  0.2107  0.1242  0.0098
  268POPC   D2A 3703   1.235   7.743   5.627 -0.1658  0.0766 -0.3277
  268POPC   C3A 3704   1.166   7.591   5.993  0.0772  0.0927  0.5375
  268POPC   C4A 3705   1.296   7.466   6.332  0.3032  0.0737  0.0575
  268POPC   C1B 3706   2.013   8.028   5.380 -0.0509 -0.0292  0.1080
  268POPC   C2B 3707   1.824   7.866   5.784  0.2184 -0.0388 -0.0011
  268POPC   C3B 3708   1.669   7.565   5.943  0.4927 -0.0518 -0.0540
  268POPC   C4B 3709   1.883   7.148   5.897  0.3530 -0.0291 -0.2118
  269POPC   NC3 3710   4.566   2.701   4.796 -0.2662 -0.0180 -0.0361
  269POPC   PO4 3711   4.847   2.486   5.068 -0.1226 -0.0696 -0.0036
  269POPC   GL1 3712   5.099   2.444   5.419  0.0718  0.0472  0.0066
  269POPC   GL2 3713   5.140   2.761   5.461  0.3487 -0.0878  0.0520
  269POPC   C1A 3714   5.310   2.377   5.854 -0.0569  0.0296 -0.3402
  269POPC   D2A 3715   5.517   2.772   6.129 -0.3105 -0.0319  0.1198
  269POPC   C3A 3716   5.340   2.819   6.521  0.1060  0.0372  0.2197
  269POPC   C4A 3717   5.504   2.771   6.900  0.0596 -0.0565 -0.1716
  269POPC   C1B 3718   5.030   2.755   5.847  0.1939 -0.0753  0.0547
  269POPC   C2B 3719   4.956   2.612   6.252 -0.2307  0.1475  0.2255
  269POPC   C3B 3720   4.755   2.377   6.610 -0.1677  0.2951  0.0221
  269POPC   C4B 3721   4.368   2.145   6.694 -0.1019  0.2333  0.2949
  270POPC   NC3 3722   2.360   1.993   4.887 -0.4097  0.0039  0.2499
  270POPC   PO4 3723   2.058   1.711   4.873  0.0627 -0.1946  0.0963
  270POPC   GL1 3724   2.106   1.760   5.283  0.2331  0.3116 -0.0000
  270POPC   GL2 3725   1.939   1.690   5.516  0.0570 -0.1262  0.2469
  270POPC   C1A 3726   2.526   1.997   5.464  0.0306 -0.3927 -0.1395
  270POPC   D2A 3727   2.923   2.083   5.611 -0.3237 -0.2875 -0.1756
  270POPC   C3A 3728   2.984   2.297   6.021 -0.2196  0.0043  0.0167
  270POPC   C4A 3729   3.011   2.638   6.231 -0.0411  0.0609  0.1786
  270POPC   C1B 3730   2.147   1.859   5.854 -0.0650 -0.0535 -0.0464
  270POPC   C2B 3731   2.498   2.014   5.978 -0.0530  0.0171  0.3123
  270POPC   C3B 3732   2.681   2.050   6.345  0.1068  0.2086  0.0347
  270POPC   C4B 3733   3.064   2.230   6.566  0.0065  0.2739  0.2687
  271POPC   NC3 3734   3.152   1.792   4.754  0.1863 -0.1199  0.1220
  271POPC   PO4 3735   2.750   1.684   4.932 -0.3447 -0.1015  0.0463
  271POPC   GL1 3736   2.842   1.492   5.283 -0.2073  0.1494 -0.1367
  271POPC   GL2 3737   3.009   1.239   5.356 -0.0748  0.2096 -0.1466
  271POPC   C1A 3738   3.011   1.571   5.728  0.0653 -0.1198  0.4878
  271POPC   D2A 3739   3.042   1.747   5.976  0.1747 -0.0370  0.1562
  271POPC   C3A 3740   3.081   1.680   6.391  0.0899 -0.1559 -0.0407
  271POPC   C4A 3741   2.872   1.553   6.721  0.2859 -0.1352 -0.1899
  271POPC   C1B 3742   2.812   0.954   5.568 -0.0154  0.0419 -0.2349
  271POPC   C2B 3743   2.728   0.786   5.910 -0.1457  0.1187  0.1426
  271POPC   C3B 3744   2.516   0.989   6.109  0.1200 -0.2611  0.0167
  271POPC   C4B 3745   2.136   0.992   6.077  0.0078 -0.0687 -0.1549
  272POPC   NC3 3746   3.028   0.407   4.688  0.1968 -0.1019  0.1746
  272POPC   PO4 3747   3.304   0.796   4.800  0.1368 -0.0948  0.4516
  272POPC   GL1 3748   3.151   0.626   5.167  0.1094 -0.0465 -0.2838
  272POPC   GL2 3749   2.852   0.530   5.113  0.1846  0.0730 -0.2055
  272POPC   C1A 3750   3.222   0.491   5.594  0.1251  0.0737 -0.3413
  272POPC   D2A 3751   3.192   0.610   6.082  0.1203  0.3171 -0.0325
  272POPC   C3A 3752   3.209   0.335   6.362 -0.0761 -0.0202 -0.0173
  272POPC   C4A 3753   3.216   0.433   6.721 -0.0086  0.0284  0.1428
  272POPC   C1B 3754   2.681   0.403   5.516 -0.2850  0.2250  0.0483
  272POPC   C2B 3755   2.874   0.252   6.006 -0.3583 -0.1071 -0.0612
  272POPC   C3B 3756   2.704   0.325   6.413 -0.2543 -0.0350 -0.1269
  272POPC   C4B 3757   2.786   0.263   6.924  0.1720  0.2117 -0.0272
  273POPC   NC3 3758   0.004   5.838   4.704 -0.3158  0.0469  0.0289
  273POPC   PO4 3759   0.207   6.196   4.905 -0.1687  0.1652 -0.1860
  273POPC   GL1 3760   0.236   5.952   5.233  0.1575  0.0832 -0.1357
  273POPC   GL2 3761  -0.009   5.966   5.383  0.1497 -0.3551 -0.2567
  273POPC   C1A 3762   0.376   5.691   5.552 -0.2314 -0.1713  0.0098
  273POPC   D2A 3763   0.635   5.829   5.907  0.2285  0.0652 -0.1504
  273POPC   C3A 3764   0.828   6.230   5.931  0.2359 -0.1605 -0.2072
  273POPC   C4A 3765   0.971   6.571   6.158  0.1942 -0.1619  0.0758
  273POPC   C1B 3766  -0.049   5.877   5.826 -0.0853 -0.0823 -0.1772
  273POPC   C2B 3767  -0.045   5.670   6.267 -0.1443  0.0647 -0.2226
  273POPC   C3B 3768   0.268   5.369   6.357 -0.2122 -0.0538  0.0041
  273POPC   C4B 3769   0.136   4.995   6.602  0.1798  0.0081  0.0320
  274POPC   NC3 3770   5.731   4.086   4.308  0.0414  0.0175 -0.1264
  274POPC   PO4 3771   5.703   3.928   4.707  0.0329  0.1097  0.2330
  274POPC   GL1 3772   5.680   4.019   5.135 -0.0423  0.0296  0.0726
  274POPC   GL2 3773   5.942   4.093   5.428  0.0267 -0.1446  0.2666
  274POPC   C1A 3774   5.311   4.021   5.382 -0.2572 -0.0369  0.0386
  274POPC   D2A 3775   5.187   4.082   5.832 -0.2085  0.2484 -0.2900
  274POPC   C3A 3776   5.178   4.502   5.858  0.0202 -0.1879 -0.2125
  274POPC   C4A 3777   5.169   4.901   6.052  0.1330 -0.2650  0.0149
  274POPC   C1B 3778   5.770   4.226   5.807 -0.1030  0.1442 -0.4013
  274POPC   C2B 3779   5.911   4.309   6.261 -0.0504  0.0537  0.0544
  274POPC   C3B 3780   5.647   4.205   6.644  0.0348 -0.1359 -0.2637
  274POPC   C4B 3781   5.297   4.039   6.927  0.0126 -0.1058  0.0658
  275POPC   NC3 3782   7.983   5.318   4.128 -0.2521  0.0027  0.2669
  275POPC   PO4 3783   7.893   5.582   4.505 -0.2953 -0.1695  0.1366
  275POPC   GL1 3784   7.925   5.818   4.943 -0.4079  0.2133 -0.1112
  275POPC   GL2 3785   8.251   5.766   5.007 -0.1839  0.1382 -0.1813
  275POPC   C1A 3786   7.857   5.822   5.386  0.0289 -0.0305 -0.1618
  275POPC   D2A 3787   7.610   5.828   5.713 -0.0178 -0.0758  0.0646
  275POPC   C3A 3788   7.581   6.150   5.948 -0.3210  0.1722 -0.1105
  275POPC   C4A 3789   7.227   6.290   6.177  0.1899 -0.0607 -0.0269
  275POPC   C1B 3790   8.333   5.736   5.559  0.0266 -0.1825 -0.2273
  275POPC   C2B 3791   8.370   5.456   5.954  0.2500 -0.1609 -0.1908
  275POPC   C3B 3792   8.722   5.388   6.268  0.0628  0.0163  0.1912
  275POPC   C4B 3793   8.964   5.385   6.640  0.0198  0.2698 -0.0666
  276POPC   NC3 3794   8.550   1.395   4.685  0.3251 -0.0700 -0.0858
  276POPC   PO4 3795   8.793   1.040   4.739  0.1809  0.2155  0.0083
  276POPC   GL1 3796   8.511   0.741   4.975 -0.0005  0.2023 -0.1684
  276POPC   GL2 3797   8.694   0.614   5.330  0.1392  0.2552 -0.0169
  276POPC   C1A 3798   8.341   0.360   5.084  0.4602 -0.0809  0.2493
  276POPC   D2A 3799   8.167   0.232   5.449  0.1179  0.0504 -0.1931
  276POPC   C3A 3800   8.437   0.217   5.802 -0.2093 -0.1093  0.1400
  276POPC   C4A 3801   8.691  -0.052   6.036 -0.2678  0.2107  0.0216
  276POPC   C1B 3802   8.672   0.693   5.788 -0.1516 -0.3718  0.0895
  276POPC   C2B 3803   8.864   0.505   6.088 -0.0967 -0.2340 -0.1081
  276POPC   C3B 3804   8.965   0.653   6.592 -0.4008  0.1984  0.3463
  276POPC   C4B 3805   8.635   0.528   6.830  0.0309 -0.2908  0.0189
  277POPC   NC3 3806   2.794  10.070   4.338  0.3318  0.0737 -0.0002
  277POPC   PO4 3807   2.811   9.693   4.371 -0.1257  0.3886 -0.1306
  277POPC   GL1 3808   3.084   9.593   4.669 -0.4023  0.1667 -0.1417
  277POPC   GL2 3809   3.040   9.401   4.975  0.2480 -0.1810  0.2704
  277POPC   C1A 3810   3.269   9.869   5.110  0.2513 -0.2128 -0.1654
  277POPC   D2A 3811   3.590  10.234   4.952  0.2556 -0.1492  0.1740
  277POPC   C3A 3812   3.980  10.203   4.680 -0.1642 -0.4261  0.4185
  277POPC   C4A 3813   4.398  10.241   4.400 -0.0101  0.0172  0.1244
  277POPC   C1B 3814   3.072   9.625   5.475 -0.0997  0.1946 -0.0036
  277POPC   C2B 3815   3.255   9.729   5.867  0.2067 -0.0584  0.1026
  277POPC   C3B 3816   3.052   9.680   6.305  0.2394  0.3154 -0.0011
  277POPC   C4B 3817   2.847   9.704   6.745 -0.0231 -0.0127  0.2842
  278POPC   NC3 3818  10.095   8.903   4.819 -0.1188 -0.2523 -0.0089
  278POPC   PO4 3819  10.449   8.637   5.067  0.3418  0.0279 -0.1432
  278POPC   GL1 3820  10.203   8.733   5.317  0.1613 -0.1926 -0.0900
  278POPC   GL2 3821   9.864   8.826   5.346  0.1136  0.4576 -0.2470
  278POPC   C1A 3822  10.230   8.551   5.720  0.2364  0.1397 -0.0123
  278POPC   D2A 3823  10.653   8.575   6.014  0.1705  0.0654 -0.1079
  278POPC   C3A 3824  10.620   8.523   6.412 -0.4642 -0.3171 -0.1080
  278POPC   C4A 3825  10.188   8.470   6.598  0.0140  0.3006 -0.1839
  278POPC   C1B 3826   9.928   8.973   5.757  0.3553  0.2800  0.0142
  278POPC   C2B 3827   9.679   9.078   6.183 -0.1390 -0.2641 -0.2597
  278POPC   C3B 3828   9.658   8.902   6.686 -0.1356  0.1623  0.0615
  278POPC   C4B 3829   9.339   9.143   6.878 -0.1527 -0.0304 -0.0629
  279POPC   NC3 3830   4.101   1.856   4.779 -0.4054  0.1711 -0.2177
  279POPC   PO4 3831   4.322   1.998   5.151  0.0318  0.1603 -0.0807
  279POPC   GL1 3832   4.360   1.656   5.371 -0.1501  0.2636 -0.5144
  279POPC   GL2 3833   4.396   1.424   5.089 -0.0575  0.1723 -0.1647
  279POPC   C1A 3834   4.637   1.735   5.832 -0.2357 -0.0116 -0.4464
  279POPC   D2A 3835   4.635   1.539   6.277  0.1037 -0.3381  0.0381
  279POPC   C3A 3836   4.637   1.349   6.808 -0.0427 -0.0227  0.0967
  279POPC   C4A 3837   4.347   1.161   7.036 -0.0695  0.0722 -0.0192
  279POPC   C1B 3838   4.429   1.175   5.540 -0.1178  0.1191 -0.2415
  279POPC   C2B 3839   4.564   1.193   5.902 -0.1166  0.3229  0.2280
  279POPC   C3B 3840   4.741   0.956   6.246 -0.1270 -0.2089  0.0523
  279POPC   C4B 3841   4.566   0.831   6.667 -0.0012 -0.1223  0.2026
  280POPC   NC3 3842   9.276   9.206   4.986 -0.1803 -0.2628  0.1921
  280POPC   PO4 3843   8.855   9.121   4.890  0.0826  0.1919 -0.1914
  280POPC   GL1 3844   8.850   9.019   5.239  0.1761  0.1806  0.0326
  280POPC   GL2 3845   9.217   8.877   5.441  0.0385 -0.0631  0.1676
  280POPC   C1A 3846   8.848   9.181   5.689  0.1472 -0.0584  0.0131
  280POPC   D2A 3847   8.939   9.404   6.034 -0.1057  0.1766  0.1009
  280POPC   C3A 3848   8.647   9.549   6.292  0.0138  0.3714 -0.3028
  280POPC   C4A 3849   8.390   9.800   6.627 -0.3453  0.2882 -0.0849
  280POPC   C1B 3850   8.975   8.639   5.781  0.1063  0.3258 -0.0227
  280POPC   C2B 3851   8.908   8.787   6.181  0.0074 -0.2114 -0.0374
  280POPC   C3B 3852   8.604   9.066   6.294  0.5599 -0.0234  0.0291
  280POPC   C4B 3853   8.459   9.271   6.687 -0.1963 -0.0744  0.0292
  281POPC   NC3 3854   0.185   9.530   5.489  0.0907 -0.0880  0.0089
  281POPC   PO4 3855   0.385   9.339   5.339  0.2268 -0.0856  0.0291
  281POPC   GL1 3856   0.420   9.082   5.603 -0.0048 -0.1420  0.0705
  281POPC   GL2 3857   0.338   8.906   5.691 -0.3757 -0.0802 -0.0196
  281POPC   C1A 3858   0.391   9.227   6.075  0.3086 -0.1045  0.1816
  281POPC   D2A 3859   0.180   9.023   6.547 -0.2795 -0.2736 -0.0139
  281POPC   C3A 3860   0.130   8.697   6.897  0.3393 -0.3383 -0.1795
  281POPC   C4A 3861  -0.093   8.333   7.025 -0.2137  0.0918 -0.1788
  281POPC   C1B 3862  -0.043   8.989   5.792 -0.3332 -0.2258 -0.1327
  281POPC   C2B 3863  -0.234   8.851   6.200  0.2313  0.0116  0.1720
  281POPC   C3B 3864  -0.576   8.588   6.144  0.2099  0.0497  0.1594
  281POPC   C4B 3865  -0.762   8.230   6.152  0.1338 -0.1991  0.1577
  282POPC   NC3 3866   7.171   5.705   4.535 -0.3000  0.0868 -0.0420
  282POPC   PO4 3867   7.488   5.453   4.273 -0.1121 -0.1865  0.2587
  282POPC   GL1 3868   7.509   5.481   4.767  0.0365  0.2017  0.1447
  282POPC   GL2 3869   7.251   5.230   4.875  0.0311 -0.4825  0.1409
  282POPC   C1A 3870   7.464   5.399   5.244  0.0014 -0.0976  0.0282
  282POPC   D2A 3871   7.676   5.330   5.678 -0.4361  0.0290 -0.1317
  282POPC   C3A 3872   7.814   5.418   6.112 -0.1540  0.2331 -0.1606
  282POPC   C4A 3873   7.859   5.579   6.521  0.0237  0.2128  0.1959
  282POPC   C1B 3874   6.987   5.356   5.100 -0.0012  0.1688 -0.0380
  282POPC   C2B 3875   6.776   5.212   5.512  0.0683 -0.0390 -0.0175
  282POPC   C3B 3876   6.447   4.964   5.726  0.1374 -0.1037 -0.1040
  282POPC   C4B 3877   6.038   5.053   5.922 -0.0971 -0.0748  0.3172
  283POPC   NC3 3878   6.814   0.558   4.058  0.0298 -0.3966  0.2619
  283POPC   PO4 3879   7.121   0.282   4.139  0.0439  0.1075 -0.1223
  283POPC   GL1 3880   7.045   0.453   4.542 -0.2084  0.2794 -0.2990
  283POPC   GL2 3881   6.696   0.307   4.566  0.1259 -0.1529 -0.0553
  283POPC   C1A 3882   7.129   0.361   4.969 -0.1353 -0.2965 -0.0220
  283POPC   D2A 3883   7.137   0.327   5.477 -0.1985  0.0769 -0.0800
  283POPC   C3A 3884   6.750   0.166   5.678  0.0135 -0.3697  0.1723
  283POPC   C4A 3885   6.559   0.084   6.090 -0.0589  0.1481 -0.1647
  283POPC   C1B 3886   6.672   0.196   5.020 -0.0088 -0.1458 -0.0680
  283POPC   C2B 3887   6.724  -0.051   5.262 -0.1363 -0.3294 -0.3002
  283POPC   C3B 3888   6.623  -0.306   5.583 -0.3450 -0.1185 -0.0752
  283POPC   C4B 3889   6.706  -0.465   6.000  0.1030 -0.0389 -0.2778
  284POPC   NC3 3890   1.294   4.607   3.813 -0.1466  0.1068  0.1301
  284POPC   PO4 3891   1.496   4.373   4.209 -0.0382 -0.1360  0.1122
  284POPC   GL1 3892   1.482   4.287   4.727 -0.2126 -0.3889 -0.0076
  284POPC   GL2 3893   1.729   4.403   4.777  0.0980  0.0117  0.0786
  284POPC   C1A 3894   1.306   4.206   5.218 -0.1656  0.2022  0.0184
  284POPC   D2A 3895   1.548   4.228   5.629 -0.2452 -0.2506  0.1269
  284POPC   C3A 3896   1.462   3.950   6.013  0.0788  0.0360  0.1119
  284POPC   C4A 3897   1.660   3.958   6.341 -0.2317 -0.1672 -0.1921
  284POPC   C1B 3898   2.065   4.599   5.100 -0.1817  0.2638  0.2233
  284POPC   C2B 3899   2.159   4.838   5.473 -0.0666  0.2603  0.0157
  284POPC   C3B 3900   2.164   5.056   5.794  0.2046 -0.0453  0.4573
  284POPC   C4B 3901   2.296   5.061   6.232 -0.0216 -0.1072  0.6062
  285POPC   NC3 3902   5.662   2.800   5.135  0.0577 -0.2879  0.2528
  285POPC   PO4 3903   5.641   2.306   5.235 -0.1069  0.0874  0.0770
  285POPC   GL1 3904   5.647   1.978   5.459 -0.3668  0.0111  0.0541
  285POPC   GL2 3905   5.406   1.680   5.342 -0.1861 -0.2119  0.1974
  285POPC   C1A 3906   5.740   1.782   5.754  0.2264  0.0115 -0.1354
  285POPC   D2A 3907   6.036   1.755   6.058  0.1024  0.4177 -0.3131
  285POPC   C3A 3908   5.924   1.356   6.365 -0.2932  0.1776  0.2783
  285POPC   C4A 3909   5.588   1.102   6.449  0.1139  0.0159 -0.0557
  285POPC   C1B 3910   5.236   1.820   5.709 -0.1824  0.0605 -0.1932
  285POPC   C2B 3911   5.184   1.908   6.076  0.1079 -0.0400 -0.0169
  285POPC   C3B 3912   5.018   1.803   6.471  0.0600 -0.0044  0.3573
  285POPC   C4B 3913   4.790   1.886   6.858 -0.0493  0.1149 -0.2086
  286POPC   NC3 3914   4.552   4.371   4.303 -0.4024 -0.1082 -0.0269
  286POPC   PO4 3915   4.926   4.741   4.462  0.2001 -0.2369  0.1272
  286POPC   GL1 3916   4.911   4.664   4.857 -0.0440 -0.0834 -0.2381
  286POPC   GL2 3917   4.783   4.918   5.070 -0.0540 -0.1406 -0.1680
  286POPC   C1A 3918   4.943   4.427   5.185 -0.0398  0.1943 -0.1913
  286POPC   D2A 3919   4.724   4.258   5.542  0.1451 -0.2346 -0.2580
  286POPC   C3A 3920   4.748   3.785   5.643  0.1144  0.1320 -0.2702
  286POPC   C4A 3921   5.205   3.581   5.673 -0.0288  0.1329 -0.0345
  286POPC   C1B 3922   4.653   4.769   5.504  0.1033 -0.0135  0.3479
  286POPC   C2B 3923   4.744   4.676   6.011  0.1918 -0.2474  0.0283
  286POPC   C3B 3924   4.916   4.620   6.383 -0.2771 -0.1259 -0.3190
  286POPC   C4B 3925   5.179   4.576   6.802 -0.0219 -0.0897  0.1615
  287POPC   NC3 3926   3.298   3.902   4.544 -0.2693  0.1071  0.1766
  287POPC   PO4 3927   3.054   3.626   4.773  0.0799 -0.1416 -0.0684
  287POPC   GL1 3928   3.282   3.583   5.271 -0.0289 -0.1854  0.2799
  287POPC   GL2 3929   3.266   3.865   5.455  0.1045 -0.1654  0.1281
  287POPC   C1A 3930   3.630   3.549   5.443 -0.0602 -0.0720 -0.1784
  287POPC   D2A 3931   3.715   3.625   5.876  0.1198  0.3241 -0.1150
  287POPC   C3A 3932   3.526   4.020   6.099  0.0674 -0.0197  0.0767
  287POPC   C4A 3933   3.353   4.311   5.803 -0.2664  0.0885 -0.0245
  287POPC   C1B 3934   3.074   3.563   5.710 -0.3634 -0.2172 -0.0709
  287POPC   C2B 3935   3.005   3.161   5.969  0.1218 -0.0264 -0.0869
  287POPC   C3B 3936   2.952   2.801   5.782 -0.1890  0.0127  0.2499
  287POPC   C4B 3937   3.371   2.587   5.654 -0.2703 -0.1261  0.2305
  288POPC   NC3 3938   2.275   3.016   4.759 -0.0225 -0.0970  0.0062
  288POPC   PO4 3939   2.099   2.812   5.121 -0.3438 -0.3370  0.1517
  288POPC   GL1 3940   1.984   2.992   5.510 -0.0027  0.0632  0.2575
  288POPC   GL2 3941   1.970   3.291   5.578 -0.1063  0.1002 -0.0411
  288POPC   C1A 3942   1.897   2.797   5.870 -0.2689  0.0551 -0.1731
  288POPC   D2A 3943   1.968   2.735   6.290  0.0402  0.0357 -0.2507
  288POPC   C3A 3944   1.618   2.731   6.669  0.5804  0.0401  0.0155
  288POPC   C4A 3945   1.116   2.966   6.582 -0.2387  0.0913 -0.3300
  288POPC   C1B 3946   2.065   3.238   6.046  0.6609 -0.3139  0.1378
  288POPC   C2B 3947   1.964   3.512   6.417  0.1238  0.1347 -0.0520
  288POPC   C3B 3948   2.079   3.915   6.741  0.0348 -0.2352  0.0606
  288POPC   C4B 3949   1.983   4.317   6.849  0.0263  0.0325 -0.0297
  289POPC   NC3 3950   5.170   8.662   3.419 -0.0767  0.0002 -0.0732
  289POPC   PO4 3951   5.699   8.608   3.441  0.3606  0.0935  0.1009
  289POPC   GL1 3952   5.525   8.779   3.763 -0.0934 -0.2205 -0.1858
  289POPC   GL2 3953   5.783   8.815   4.072  0.1357  0.1984  0.0637
  289POPC   C1A 3954   5.325   8.929   4.103  0.0431 -0.0722  0.1734
  289POPC   D2A 3955   5.283   8.916   4.392 -0.2409 -0.2601  0.3370
  289POPC   C3A 3956   5.228   8.516   4.622 -0.0120  0.0082 -0.0578
  289POPC   C4A 3957   5.405   8.342   5.080 -0.3583 -0.0744 -0.0705
  289POPC   C1B 3958   5.741   8.891   4.628  0.0923 -0.0846  0.1210
  289POPC   C2B 3959   5.393   8.886   4.938 -0.1701 -0.0611  0.0033
  289POPC   C3B 3960   4.998   8.616   5.056  0.0923 -0.0033 -0.2756
  289POPC   C4B 3961   4.748   8.582   5.391  0.2405  0.1126  0.0295
  290POPC   NC3 3962   2.749   6.849   4.607 -0.0887  0.1216 -0.1442
  290POPC   PO4 3963   2.619   7.182   4.453 -0.0281 -0.1366 -0.1200
  290POPC   GL1 3964   2.605   7.239   4.866  0.2808  0.1386 -0.1978
  290POPC   GL2 3965   2.914   7.186   4.878  0.1071 -0.2826 -0.0370
  290POPC   C1A 3966   2.701   7.421   5.213  0.0572  0.1812  0.3291
  290POPC   D2A 3967   2.690   7.491   5.658  0.1254 -0.0934  0.0313
  290POPC   C3A 3968   2.793   7.831   5.991  0.0967 -0.0829  0.0715
  290POPC   C4A 3969   2.622   7.877   6.389 -0.2974 -0.4003 -0.0194
  290POPC   C1B 3970   3.156   7.614   4.948  0.1926 -0.3769  0.1387
  290POPC   C2B 3971   3.426   7.791   5.189  0.0581 -0.5842 -0.1045
  290POPC   C3B 3972   3.591   8.018   5.533  0.0858  0.1573  0.1714
  290POPC   C4B 3973   3.760   8.396   5.659  0.2386  0.0100 -0.1230
  291POPC   NC3 3974   7.876   0.752   4.340  0.0828  0.1203  0.0161
  291POPC   PO4 3975   7.791   1.174   4.522 -0.1647  0.1233  0.0886
  291POPC   GL1 3976   7.735   1.141   5.069  0.2745 -0.3515  0.4071
  291POPC   GL2 3977   7.482   1.487   4.919  0.4899  0.1547 -0.1445
  291POPC   C1A 3978   7.721   1.065   5.587  0.2598 -0.0605 -0.0805
  291POPC   D2A 3979   7.559   1.278   5.824  0.1004  0.1373  0.1833
  291POPC   C3A 3980   7.571   1.292   6.198  0.2717 -0.2070  0.1408
  291POPC   C4A 3981   7.457   1.587   6.368  0.0427 -0.0605 -0.0031
  291POPC   C1B 3982   7.331   1.387   5.365 -0.0724  0.0973 -0.0585
  291POPC   C2B 3983   7.195   0.998   5.661  0.2000 -0.0583 -0.0655
  291POPC   C3B 3984   7.305   0.895   6.124 -0.1230 -0.2755 -0.2017
  291POPC   C4B 3985   7.163   0.664   6.422  0.0169  0.0278 -0.2494
  292POPC   NC3 3986   6.338   9.977   3.852 -0.2827  0.0048  0.2068
  292POPC   PO4 3987   6.576   9.673   3.778  0.3314 -0.0350  0.1176
  292POPC   GL1 3988   6.490   9.677   4.209  0.3085  0.0497  0.0021
  292POPC   GL2 3989   6.110   9.782   4.255 -0.3348  0.1205 -0.0561
  292POPC   C1A 3990   6.578   9.796   4.609 -0.0536 -0.0313 -0.2412
  292POPC   D2A 3991   6.601   9.914   5.053 -0.3433  0.1013 -0.3108
  292POPC   C3A 3992   6.909   9.656   5.380  0.0301  0.0508  0.3976
  292POPC   C4A 3993   6.997   9.508   5.790 -0.0885  0.0914  0.1761
  292POPC   C1B 3994   5.690   9.653   4.551  0.2009 -0.0400  0.1514
  292POPC   C2B 3995   5.417   9.298   4.663 -0.1589 -0.2556  0.2286
  292POPC   C3B 3996   5.094   9.235   4.955 -0.3797 -0.0132 -0.2715
  292POPC   C4B 3997   5.060   9.024   5.336  0.2084  0.0653 -0.1239
  293POPC   NC3 3998   3.653   9.857   3.882  0.0481  0.2309 -0.0708
  293POPC   PO4 3999   3.431  10.258   4.070 -0.0012 -0.1538 -0.0944
  293POPC   GL1 4000   3.664   9.958   4.389 -0.4973 -0.1720  0.2732
  293POPC   GL2 4001   3.797   9.659   4.326  0.1968 -0.0087 -0.1929
  293POPC   C1A 4002   3.649   9.730   4.842 -0.2279 -0.1753  0.1577
  293POPC   D2A 4003   3.556   9.510   5.252 -0.1550  0.1631  0.0103
  293POPC   C3A 4004   3.724   9.624   5.670  0.2366  0.4553 -0.1270
  293POPC   C4A 4005   3.976   9.475   6.013 -0.0682 -0.1815 -0.0903
  293POPC   C1B 4006   3.908   9.331   4.579 -0.1798 -0.1898  0.1172
  293POPC   C2B 4007   3.868   9.192   5.054 -0.1339 -0.0074 -0.0699
  293POPC   C3B 4008   4.221   9.133   5.378  0.0241  0.3198 -0.0046
  293POPC   C4B 4009   4.607   9.050   5.572  0.0001 -0.0645 -0.1347
  294POPC   NC3 4010   9.657  10.355   4.726  0.1250  0.0087 -0.2552
  294POPC   PO4 4011   9.664  10.153   5.066 -0.1109  0.0791 -0.0933
  294POPC   GL1 4012   9.552  10.048   5.465 -0.0841 -0.4860  0.3707
  294POPC   GL2 4013   9.458  10.443   5.647 -0.0672 -0.4412 -0.1809
  294POPC   C1A 4014   9.557   9.989   5.882 -0.0674  0.3086  0.0259
  294POPC   D2A 4015   9.433  10.054   6.380  0.0128 -0.2309 -0.2409
  294POPC   C3A 4016   9.600   9.926   6.681 -0.0706  0.0533 -0.2866
  294POPC   C4A 4017   9.403   9.683   6.955 -0.0384  0.1427 -0.3275
  294POPC   C1B 4018   9.401  10.931   5.715  0.4303 -0.0038  0.0551
  294POPC   C2B 4019   9.148  11.310   5.827 -0.0458 -0.5156  0.1907
  294POPC   C3B 4020   9.019  11.517   6.178  0.2369 -0.1479  0.1872
  294POPC   C4B 4021   9.237  11.563   6.565  0.0619  0.0066  0.1087
  295POPC   NC3 4022   5.093   5.145   4.675 -0.0215 -0.0089  0.1194
  295POPC   PO4 4023   4.598   5.110   4.660 -0.4900 -0.2644  0.5671
  295POPC   GL1 4024   4.763   5.389   4.940 -0.1549 -0.1725  0.0430
  295POPC   GL2 4025   4.752   5.727   4.768  0.0066 -0.3889  0.2639
  295POPC   C1A 4026   4.788   5.316   5.363  0.0828 -0.2804 -0.2120
  295POPC   D2A 4027   4.697   5.167   5.793  0.1315 -0.1670 -0.0794
  295POPC   C3A 4028   4.785   5.283   6.238 -0.2979  0.0758  0.3060
  295POPC   C4A 4029   4.805   5.612   6.597 -0.1945  0.0817  0.1593
  295POPC   C1B 4030   4.908   5.800   5.140 -0.1111  0.0914 -0.2566
  295POPC   C2B 4031   4.813   5.786   5.541 -0.1771 -0.0070 -0.4579
  295POPC   C3B 4032   4.695   5.727   5.908 -0.3421 -0.0656  0.0605
  295POPC   C4B 4033   4.490   5.839   6.307  0.0686  0.0741 -0.1509
  296POPC   NC3 4034   9.053   2.467   4.894  0.1063 -0.0955 -0.1240
  296POPC   PO4 4035   8.973   2.015   5.067  0.2484  0.0248  0.3320
  296POPC   GL1 4036   9.101   1.888   5.504 -0.0857 -0.1601  0.1250
  296POPC   GL2 4037   9.008   1.612   5.504 -0.2910 -0.2668 -0.2463
  296POPC   C1A 4038   8.907   1.778   5.930  0.1546 -0.3064  0.2055
  296POPC   D2A 4039   8.829   1.493   6.269 -0.0479 -0.1218 -0.1527
  296POPC   C3A 4040   8.466   1.459   6.452 -0.0918 -0.0181 -0.2074
  296POPC   C4A 4041   8.049   1.678   6.594 -0.0409  0.3051  0.2870
  296POPC   C1B 4042   9.276   1.457   5.841  0.2553 -0.2336  0.1694
  296POPC   C2B 4043   9.306   1.471   6.235  0.3302  0.1202  0.1088
  296POPC   C3B 4044   9.637   1.474   6.439  0.1172 -0.3419 -0.1309
  296POPC   C4B 4045   9.972   1.431   6.702  0.1289 -0.6529 -0.0386
  297POPC   NC3 4046   3.619   5.458   4.541  0.0233  0.3112  0.2897
  297POPC   PO4 4047   3.278   5.715   4.776 -0.1328  0.1620  0.1192
  297POPC   GL1 4048   3.280   5.802   5.146  0.0364 -0.2570  0.0000
  297POPC   GL2 4049   3.247   6.220   5.156 -0.0572  0.1665  0.0246
  297POPC   C1A 4050   3.415   5.932   5.515 -0.1632 -0.1181  0.1257
  297POPC   D2A 4051   3.375   6.126   5.871 -0.1005  0.0507 -0.2356
  297POPC   C3A 4052   3.373   6.012   6.338  0.0562 -0.1098 -0.0026
  297POPC   C4A 4053   3.584   6.041   6.737 -0.1637  0.0598  0.2018
  297POPC   C1B 4054   3.206   6.488   5.489 -0.1157  0.0464  0.0020
  297POPC   C2B 4055   3.352   6.714   5.831 -0.3053  0.0186 -0.1906
  297POPC   C3B 4056   3.625   6.921   6.183  0.1441  0.0091  0.2492
  297POPC   C4B 4057   3.942   7.208   6.199 -0.1312 -0.1040 -0.0306
  298POPC   NC3 4058   7.146   4.374   4.934 -0.0234 -0.4382 -0.1349
  298POPC   PO4 4059   7.369   3.997   5.162 -0.2673  0.0713  0.0912
  298POPC   GL1 4060   7.139   4.086   5.547  0.1934  0.1270  0.1179
  298POPC   GL2 4061   7.207   3.789   5.743  0.2134  0.0083  0.1297
  298POPC   C1A 4062   6.730   3.814   5.758 -0.0876  0.1287 -0.0597
  298POPC   D2A 4063   6.513   3.635   6.099  0.0493  0.0324  0.0421
  298POPC   C3A 4064   6.791   3.364   6.147 -0.0342 -0.0061  0.1956
  298POPC   C4A 4065   7.123   3.015   6.263  0.1696  0.2949 -0.1181
  298POPC   C1B 4066   7.054   3.861   6.116 -0.0342 -0.0857 -0.3646
  298POPC   C2B 4067   6.758   3.930   6.419  0.0133 -0.0631 -0.0837
  298POPC   C3B 4068   6.474   3.684   6.619 -0.1237 -0.0242 -0.0463
  298POPC   C4B 4069   6.147   3.402   6.597 -0.1389  0.4475 -0.1325
  299POPC   NC3 4070   4.046   2.389   4.864 -0.1344 -0.1450  0.0602
  299POPC   PO4 4071   4.038   2.783   4.844  0.3027 -0.0983  0.0977
  299POPC   GL1 4072   4.156   2.704   5.262  0.3633  0.1968  0.0583
  299POPC   GL2 4073   4.364   2.448   5.345 -0.4309  0.1419 -0.2655
  299POPC   C1A 4074   4.352   2.882   5.621  0.0061 -0.0511 -0.0857
  299POPC   D2A 4075   4.543   2.742   6.140  0.4657 -0.1203  0.2347
  299POPC   C3A 4076   4.367   2.747   6.560 -0.0576 -0.0347 -0.0094
  299POPC   C4A 4077   4.005   2.548   6.751 -0.1163  0.1786  0.2798
  299POPC   C1B 4078   4.394   2.411   5.841  0.1513 -0.1700  0.2915
  299POPC   C2B 4079   4.132   2.362   6.239  0.2461 -0.1824  0.1468
  299POPC   C3B 4080   3.882   2.178   6.412 -0.1867  0.0559 -0.3565
  299POPC   C4B 4081   3.877   1.916   6.785 -0.1638  0.1285 -0.2080
  300POPC   NC3 4082   1.784   4.001   4.427 -0.1732 -0.1555  0.3039
  300POPC   PO4 4083   1.790   3.698   4.677 -0.1217 -0.0093  0.0526
  300POPC   GL1 4084   1.659   3.896   5.002  0.2437  0.1639  0.0464
  300POPC   GL2 4085   1.501   3.653   5.153  0.0249  0.1108  0.0624
  300POPC   C1A 4086   1.926   4.093   5.284  0.3094  0.3334  0.5081
  300POPC   D2A 4087   2.251   4.316   5.615 -0.1537  0.0434  0.2122
  300POPC   C3A 4088   2.075   4.579   5.981  0.1027 -0.1218  0.1171
  300POPC   C4A 4089   1.600   4.451   6.155  0.0982  0.1394 -0.0072
  300POPC   C1B 4090   1.676   3.739   5.519 -0.2442  0.3497  0.1958
  300POPC   C2B 4091   1.969   3.769   5.864 -0.0256  0.1771 -0.0414
  300POPC   C3B 4092   2.233   4.018   6.277 -0.0931  0.0373  0.1593
  300POPC   C4B 4093   2.601   4.036   6.477 -0.1024 -0.1032  0.1040
  301POPC   NC3 4094  10.174   7.277   5.471 -0.2162  0.2603  0.3055
  301POPC   PO4 4095  10.515   7.131   5.287 -0.3124 -0.2380  0.0273
  301POPC   GL1 4096  10.524   6.870   5.522 -0.0108  0.0708  0.1199
  301POPC   GL2 4097  10.250   6.769   5.578 -0.0593  0.3416  0.0375
  301POPC   C1A 4098  10.585   7.016   5.967  0.0706  0.3492  0.3442
  301POPC   D2A 4099  10.929   7.134   6.208 -0.0805 -0.0409 -0.1751
  301POPC   C3A 4100  10.672   7.524   6.473 -0.0328 -0.0610  0.0192
  301POPC   C4A 4101  10.400   7.432   6.841  0.3647  0.0616  0.2157
  301POPC   C1B 4102  10.499   6.376   5.692 -0.0302 -0.1559  0.1789
  301POPC   C2B 4103  10.773   6.148   6.106 -0.2306 -0.0529 -0.0854
  301POPC   C3B 4104  10.569   6.057   6.562  0.1391  0.3924 -0.0099
  301POPC   C4B 4105  10.163   6.129   6.791  0.0720 -0.2838 -0.0288
  302POPC   NC3 4106   4.706   1.539   3.746  0.0048 -0.0886 -0.0163
  302POPC   PO4 4107   4.781   1.303   4.162 -0.1337  0.1786 -0.0168
  302POPC   GL1 4108   4.965   0.946   4.464  0.1036  0.1061  0.1260
  302POPC   GL2 4109   4.971   0.924   4.800  0.1184  0.0759  0.1120
  302POPC   C1A 4110   4.882   0.556   4.439  0.0465 -0.2190 -0.1921
  302POPC   D2A 4111   4.938   0.133   4.705  0.0943  0.0658 -0.0598
  302POPC   C3A 4112   4.599  -0.223   4.835  0.2636  0.1293  0.1682
  302POPC   C4A 4113   4.217  -0.358   5.081 -0.1804  0.0940  0.2563
  302POPC   C1B 4114   4.907   1.012   5.280 -0.1807  0.5805 -0.0559
  302POPC   C2B 4115   4.864   0.848   5.650  0.0995  0.2937  0.1114
  302POPC   C3B 4116   4.938   0.538   5.978  0.2492  0.2038  0.0359
  302POPC   C4B 4117   5.022   0.109   6.264 -0.0541 -0.3289 -0.0056
  303POPC   NC3 4118   7.597   2.273   4.661 -0.1405 -0.2907  0.0381
  303POPC   PO4 4119   7.429   2.244   5.045  0.2403  0.1981 -0.0541
  303POPC   GL1 4120   7.192   2.151   5.471  0.1073 -0.3407 -0.2801
  303POPC   GL2 4121   6.882   1.878   5.497 -0.1908 -0.0218  0.1750
  303POPC   C1A 4122   7.114   2.077   5.920 -0.2236  0.1155  0.1569
  303POPC   D2A 4123   6.938   1.918   6.329  0.1220  0.0294 -0.1463
  303POPC   C3A 4124   7.060   1.725   6.647 -0.0417 -0.0944  0.0747
  303POPC   C4A 4125   7.342   1.736   6.958 -0.2091 -0.2880  0.1117
  303POPC   C1B 4126   6.603   1.863   5.904  0.1074 -0.5500  0.0882
  303POPC   C2B 4127   6.560   1.618   6.320  0.0059  0.2909 -0.1666
  303POPC   C3B 4128   6.308   1.620   6.664  0.0462 -0.1969  0.0622
  303POPC   C4B 4129   6.268   1.759   7.157 -0.1638  0.0452 -0.1035
  304POPC   NC3 4130   0.999   2.391   4.866 -0.1407 -0.1578  0.0972
  304POPC   PO4 4131   0.642   2.247   4.818  0.0113  0.3421  0.1287
  304POPC   GL1 4132   0.653   2.332   5.311 -0.1090 -0.2034 -0.1310
  304POPC   GL2 4133   0.421   2.621   5.402 -0.0769  0.0469  0.2606
  304POPC   C1A 4134   0.427   2.044   5.621  0.1290 -0.2370 -0.3236
  304POPC   D2A 4135   0.441   1.725   5.915 -0.1479 -0.1127 -0.0885
  304POPC   C3A 4136   0.361   1.962   6.307 -0.0020 -0.2572  0.1931
  304POPC   C4A 4137   0.747   2.243   6.528 -0.0942 -0.1943  0.2740
  304POPC   C1B 4138   0.212   2.626   5.813 -0.0946  0.1990  0.0107
  304POPC   C2B 4139  -0.184   2.544   6.139 -0.3080 -0.0817  0.0628
  304POPC   C3B 4140  -0.557   2.495   6.365 -0.0437 -0.0891  0.0366
  304POPC   C4B 4141  -0.671   2.377   6.694 -0.3769  0.0508 -0.1899
  305POPC   NC3 4142   4.813   6.429   3.335 -0.3644  0.0869  0.1379
  305POPC   PO4 4143   4.877   6.584   3.767 -0.0617 -0.0281  0.2206
  305POPC   GL1 4144   5.170   6.892   3.983 -0.0248 -0.0184  0.3082
  305POPC   GL2 4145   4.899   7.138   3.901  0.1355 -0.0082 -0.0348
  305POPC   C1A 4146   5.611   6.997   4.233 -0.0496 -0.3090  0.0169
  305POPC   D2A 4147   5.813   7.065   4.599  0.0049 -0.0674 -0.4528
  305POPC   C3A 4148   5.719   7.077   5.096  0.0785  0.2895  0.4101
  305POPC   C4A 4149   5.618   7.101   5.463 -0.0065  0.2590 -0.1086
  305POPC   C1B 4150   5.122   7.239   4.326 -0.3719 -0.1280  0.3020
  305POPC   C2B 4151   5.625   7.489   4.426 -0.0884  0.1474  0.2191
  305POPC   C3B 4152   5.912   7.515   4.833 -0.3856 -0.2507  0.2272
  305POPC   C4B 4153   6.194   7.209   4.942  0.0315 -0.0376  0.1533
  306POPC   NC3 4154   1.392   8.306   4.603  0.1411 -0.1258 -0.1287
  306POPC   PO4 4155   1.395   8.794   4.622 -0.1736 -0.1976 -0.1176
  306POPC   GL1 4156   1.403   8.705   5.081  0.0856 -0.1432  0.0828
  306POPC   GL2 4157   1.498   8.412   5.106 -0.2526  0.1861 -0.0549
  306POPC   C1A 4158   1.252   8.753   5.525 -0.1312  0.0726 -0.2299
  306POPC   D2A 4159   1.294   8.888   5.937  0.0639  0.0526  0.1149
  306POPC   C3A 4160   0.962   8.837   6.249 -0.0121  0.1759  0.2450
  306POPC   C4A 4161   0.749   9.243   6.524 -0.4048  0.0347  0.4780
  306POPC   C1B 4162   1.863   8.561   5.395  0.4580  0.1110 -0.3214
  306POPC   C2B 4163   2.046   8.362   5.764  0.0106 -0.0737 -0.1919
  306POPC   C3B 4164   1.908   8.269   6.223  0.1606 -0.5750 -0.0520
  306POPC   C4B 4165   1.893   8.089   6.692 -0.2187  0.0007  0.0197
  307POPC   NC3 4166   5.565   4.433   4.738 -0.2719 -0.1545  0.1650
  307POPC   PO4 4167   5.794   4.565   5.112  0.0486 -0.1239 -0.0483
  307POPC   GL1 4168   5.972   4.641   5.513 -0.2222  0.1973 -0.3518
  307POPC   GL2 4169   5.680   4.678   5.604 -0.0731 -0.0422 -0.0895
  307POPC   C1A 4170   6.167   4.513   5.892  0.1824 -0.0101 -0.2994
  307POPC   D2A 4171   6.454   4.721   6.176 -0.2269 -0.2686 -0.3587
  307POPC   C3A 4172   6.331   5.081   6.294  0.1066  0.1674 -0.2077
  307POPC   C4A 4173   6.015   5.265   6.422  0.0830  0.0088  0.1328
  307POPC   C1B 4174   5.613   4.699   6.000  0.6354  0.2402  0.5882
  307POPC   C2B 4175   5.411   4.519   6.326  0.2435 -0.1216 -0.3638
  307POPC   C3B 4176   5.132   4.142   6.432  0.0849  0.2835 -0.0970
  307POPC   C4B 4177   5.044   3.719   6.170 -0.0564 -0.1454 -0.0752
  308POPC   NC3 4178   1.837  10.413   4.613 -0.2199 -0.2013  0.0976
  308POPC   PO4 4179   1.841   9.940   4.579 -0.1975 -0.0978  0.2368
  308POPC   GL1 4180   1.743   9.687   5.062 -0.0409  0.1195 -0.0288
  308POPC   GL2 4181   1.890   9.862   5.326  0.1639  0.1050  0.6189
  308POPC   C1A 4182   1.500   9.661   5.474  0.0598 -0.1007  0.0238
  308POPC   D2A 4183   1.300   9.568   5.846  0.4146 -0.1849 -0.0868
  308POPC   C3A 4184   1.567   9.604   6.265  0.0954 -0.2414  0.3501
  308POPC   C4A 4185   1.474   9.817   6.615 -0.1828 -0.0696  0.1831
  308POPC   C1B 4186   1.633   9.964   5.838  0.0783  0.2238 -0.1202
  308POPC   C2B 4187   1.861  10.032   6.240  0.1821  0.0026 -0.4072
  308POPC   C3B 4188   1.976   9.762   6.613  0.1418  0.0290  0.2865
  308POPC   C4B 4189   2.050   9.482   6.881  0.0442 -0.1837 -0.1132
  309POPC   NC3 4190   6.274   4.597   5.058 -0.0729  0.1730  0.1917
  309POPC   PO4 4191   6.644   4.293   4.999  0.0536  0.0360  0.2793
  309POPC   GL1 4192   6.543   4.309   5.417  0.0581 -0.0819 -0.1546
  309POPC   GL2 4193   6.443   3.938   5.427 -0.2513  0.2388 -0.2585
  309POPC   C1A 4194   6.699   4.318   5.879 -0.1358 -0.1371 -0.2220
  309POPC   D2A 4195   6.796   4.431   6.259 -0.2206  0.1279  0.1040
  309POPC   C3A 4196   7.089   4.263   6.469 -0.1079  0.0942 -0.0387
  309POPC   C4A 4197   7.146   3.975   6.684 -0.2421 -0.3569  0.0998
  309POPC   C1B 4198   6.267   4.027   5.778 -0.2626 -0.2911  0.1300
  309POPC   C2B 4199   6.360   4.205   6.214  0.4426  0.1584  0.1937
  309POPC   C3B 4200   6.292   4.464   6.551  0.1595  0.1464 -0.1886
  309POPC   C4B 4201   6.212   4.861   6.733 -0.0621 -0.2346  0.1163
  310POPC   NC3 4202   7.081   6.812   3.599  0.1579  0.0929  0.4102
  310POPC   PO4 4203   6.677   6.596   3.575 -0.1579  0.4683 -0.1996
  310POPC   GL1 4204   6.448   6.545   3.990 -0.2341 -0.0882 -0.0844
  310POPC   GL2 4205   6.204   6.705   4.124  0.0749 -0.1229 -0.1977
  310POPC   C1A 4206   6.646   6.550   4.424 -0.1416  0.1561 -0.1636
  310POPC   D2A 4207   6.688   7.019   4.417 -0.1307  0.1968  0.2179
  310POPC   C3A 4208   6.374   7.281   4.404 -0.1847  0.0653 -0.2416
  310POPC   C4A 4209   6.210   7.685   4.509 -0.0975 -0.3309 -0.1253
  310POPC   C1B 4210   6.213   6.799   4.471  0.1356 -0.0860 -0.0956
  310POPC   C2B 4211   6.102   6.740   4.981 -0.1947  0.1136  0.0568
  310POPC   C3B 4212   6.180   6.897   5.462 -0.4525  0.1170 -0.3540
  310POPC   C4B 4213   5.914   6.954   5.850  0.2066  0.0876  0.2931
  311POPC   NC3 4214   7.952   2.914   5.394  0.0304 -0.1484  0.2438
  311POPC   PO4 4215   8.225   3.007   4.974 -0.2099  0.1626 -0.0176
  311POPC   GL1 4216   8.385   3.214   5.288 -0.0540 -0.0426 -0.1709
  311POPC   GL2 4217   8.312   3.603   5.350 -0.0017 -0.3292 -0.2675
  311POPC   C1A 4218   8.622   3.030   5.593 -0.0091  0.0623  0.0257
  311POPC   D2A 4219   8.620   3.135   6.011  0.1465 -0.0345 -0.0676
  311POPC   C3A 4220   8.892   3.468   6.219 -0.1882  0.2132 -0.1601
  311POPC   C4A 4221   9.268   3.624   6.429  0.0125 -0.1255 -0.2560
  311POPC   C1B 4222   8.469   3.477   5.752 -0.0627 -0.0007  0.1236
  311POPC   C2B 4223   8.273   3.620   6.129 -0.0870 -0.1838  0.0098
  311POPC   C3B 4224   7.954   3.556   6.327  0.0895  0.0845 -0.0220
  311POPC   C4B 4225   7.811   3.864   6.429  0.2865  0.0843  0.1140
  312POPC   NC3 4226   8.149   7.086   4.357  0.2050  0.1009  0.2949
  312POPC   PO4 4227   8.449   7.224   4.683  0.1211 -0.0991  0.0871
  312POPC   GL1 4228   8.262   7.379   4.949  0.1629 -0.1195  0.2446
  312POPC   GL2 4229   8.338   7.548   5.208  0.3193 -0.0624 -0.0633
  312POPC   C1A 4230   7.836   7.252   5.170 -0.3192 -0.0150 -0.0332
  312POPC   D2A 4231   7.776   6.816   5.386  0.0077 -0.0187  0.0651
  312POPC   C3A 4232   7.629   6.649   5.866 -0.0244 -0.1585 -0.0799
  312POPC   C4A 4233   7.703   6.709   6.243  0.0529  0.0008 -0.4252
  312POPC   C1B 4234   8.127   7.490   5.565 -0.2790  0.2726 -0.4119
  312POPC   C2B 4235   8.388   7.324   5.837  0.0694 -0.3303 -0.1262
  312POPC   C3B 4236   8.512   6.997   5.927 -0.1541 -0.1752 -0.1242
  312POPC   C4B 4237   8.386   6.590   5.902  0.0595 -0.2510  0.1245
  313POPC   NC3 4238   8.017   1.993   5.421 -0.0251 -0.2438 -0.1073
  313POPC   PO4 4239   8.310   1.737   5.152 -0.0590 -0.1154 -0.0197
  313POPC   GL1 4240   8.556   1.799   5.561  0.1289  0.1498 -0.2374
  313POPC   GL2 4241   8.502   2.018   5.593 -0.1772 -0.4031  0.1644
  313POPC   C1A 4242   8.439   1.602   5.979 -0.1435  0.2394  0.3888
  313POPC   D2A 4243   8.065   1.324   6.141 -0.2444  0.1655 -0.3910
  313POPC   C3A 4244   7.932   0.925   6.157  0.4378 -0.1645  0.0464
  313POPC   C4A 4245   7.675   0.560   6.129 -0.3608  0.0330 -0.2305
  313POPC   C1B 4246   8.425   2.123   5.956  0.1305  0.0957  0.0801
  313POPC   C2B 4247   8.480   1.971   6.326  0.0987  0.1223 -0.3362
  313POPC   C3B 4248   8.755   1.888   6.694  0.1211  0.1319  0.0665
  313POPC   C4B 4249   8.678   1.899   7.232  0.3022 -0.2106 -0.0483
  314POPC   NC3 4250   8.696   3.219   4.818 -0.1554 -0.0165  0.0844
  314POPC   PO4 4251   8.800   3.575   5.013  0.1939  0.0659 -0.2216
  314POPC   GL1 4252   8.761   3.847   5.328  0.0820  0.0895 -0.1411
  314POPC   GL2 4253   8.904   4.156   5.179  0.4564 -0.1071  0.2326
  314POPC   C1A 4254   8.661   4.012   5.763 -0.0077 -0.4600  0.3517
  314POPC   D2A 4255   8.676   4.440   5.990 -0.0105 -0.1535  0.0277
  314POPC   C3A 4256   8.832   4.438   6.442 -0.0725 -0.1591  0.3076
  314POPC   C4A 4257   8.923   4.625   6.847 -0.2654 -0.1490 -0.0915
  314POPC   C1B 4258   8.856   4.524   5.415  0.3069  0.2028 -0.2340
  314POPC   C2B 4259   8.591   4.801   5.615  0.0356 -0.1756 -0.1997
  314POPC   C3B 4260   8.627   4.937   6.018  0.3390  0.0218  0.3029
  314POPC   C4B 4261   8.950   4.904   6.229  0.1138  0.4460  0.1836
  315POPC   NC3 4262   2.049  10.241   5.005  0.0981  0.4411 -0.0646
  315POPC   PO4 4263   1.584  10.171   4.983  0.2985  0.2260  0.1936
  315POPC   GL1 4264   1.518  10.321   5.401  0.0119 -0.1331 -0.0940
  315POPC   GL2 4265   1.192  10.417   5.515 -0.1091 -0.5062 -0.2137
  315POPC   C1A 4266   1.575  10.570   5.828 -0.0117  0.0551  0.0270
  315POPC   D2A 4267   1.399  10.357   6.264 -0.0862  0.1890 -0.1431
  315POPC   C3A 4268   1.678  10.282   6.670  0.0468 -0.0135 -0.0143
  315POPC   C4A 4269   1.959  10.338   7.066 -0.0835  0.3587  0.0863
  315POPC   C1B 4270   0.978  10.675   5.844  0.1052  0.1806 -0.3600
  315POPC   C2B 4271   0.838  10.491   6.227  0.2783  0.1882  0.2718
  315POPC   C3B 4272   0.558  10.689   6.354  0.4770 -0.0869  0.2964
  315POPC   C4B 4273   0.282  11.116   6.240  0.0200 -0.0880 -0.2946
  316POPC   NC3 4274   2.228   6.934   4.751  0.1728  0.4237 -0.0742
  316POPC   PO4 4275   2.418   6.467   4.731  0.0542  0.3158  0.2131
  316POPC   GL1 4276   2.464   6.128   5.100  0.0555  0.0135 -0.0128
  316POPC   GL2 4277   2.747   6.148   5.296  0.1839  0.1302  0.3267
  316POPC   C1A 4278   2.217   6.041   5.452  0.0287 -0.0126  0.3394
  316POPC   D2A 4279   2.096   6.171   5.837 -0.0012  0.1719 -0.1756
  316POPC   C3A 4280   2.349   6.618   6.034 -0.0360 -0.0495 -0.1405
  316POPC   C4A 4281   2.299   6.848   6.418  0.1180  0.3617 -0.3965
  316POPC   C1B 4282   2.873   6.131   5.754  0.1470 -0.0570  0.1599
  316POPC   C2B 4283   2.910   6.171   6.205  0.0465  0.0530  0.1415
  316POPC   C3B 4284   2.687   6.050   6.609 -0.1007 -0.0700 -0.1860
  316POPC   C4B 4285   2.650   5.868   6.952 -0.0767 -0.0139  0.0035
  317POPC   NC3 4286   0.657   0.883   5.064  0.1562  0.0059 -0.1948
  317POPC   PO4 4287   0.202   1.002   5.044  0.0115 -0.3902 -0.0701
  317POPC   GL1 4288   0.225   1.226   5.432  0.0271  0.2875 -0.2286
  317POPC   GL2 4289  -0.099   1.438   5.463 -0.0826 -0.1918 -0.0325
  317POPC   C1A 4290   0.588   1.207   5.709  0.2093 -0.0885  0.1208
  317POPC   D2A 4291   0.874   1.454   5.990  0.2850  0.2769 -0.0820
  317POPC   C3A 4292   0.673   1.611   6.349 -0.1238 -0.1259  0.2231
  317POPC   C4A 4293   0.491   1.582   6.760 -0.0696  0.0682 -0.1892
  317POPC   C1B 4294   0.048   1.501   5.790  0.0515  0.0171  0.0998
  317POPC   C2B 4295  -0.102   1.786   6.044  0.1137 -0.0016 -0.1411
  317POPC   C3B 4296  -0.338   2.050   6.367  0.4023 -0.1727  0.0794
  317POPC   C4B 4297  -0.837   2.048   6.350 -0.2124 -0.0051 -0.2424
  318POPC   NC3 4298   1.312   9.519   4.848 -0.1821  0.3164  0.3424
  318POPC   PO4 4299   0.947   9.508   5.108  0.3160 -0.2321 -0.1126
  318POPC   GL1 4300   0.842   9.608   5.581  0.0537  0.0766  0.1440
  318POPC   GL2 4301   0.580   9.729   5.728 -0.0972 -0.0585 -0.0666
  318POPC   C1A 4302   0.913   9.452   6.097  0.0913 -0.0682  0.0122
  318POPC   D2A 4303   1.232   9.235   6.236 -0.1897 -0.0134  0.2025
  318POPC   C3A 4304   1.696   9.233   5.998  0.1688 -0.2777 -0.1485
  318POPC   C4A 4305   2.170   9.131   5.972 -0.1694  0.1118  0.1368
  318POPC   C1B 4306   0.410   9.704   6.041 -0.0567 -0.4540  0.2535
  318POPC   C2B 4307   0.349   9.633   6.472  0.0291  0.4409 -0.1351
  318POPC   C3B 4308   0.218   9.925   6.728 -0.0860 -0.2117  0.1701
  318POPC   C4B 4309  -0.088  10.213   6.903  0.0134 -0.1922 -0.1534
  319POPC   NC3 4310   7.322   6.151   4.336 -0.0660  0.1564  0.3842
  319POPC   PO4 4311   7.613   5.961   4.523  0.0813 -0.0473 -0.0451
  319POPC   GL1 4312   7.449   5.973   4.913 -0.2663 -0.0372 -0.2190
  319POPC   GL2 4313   7.073   5.942   4.984 -0.1952  0.0482 -0.1282
  319POPC   C1A 4314   7.261   6.428   5.104 -0.3199  0.3037 -0.3375
  319POPC   D2A 4315   7.279   6.707   5.452  0.1481  0.0320  0.3263
  319POPC   C3A 4316   7.147   6.700   5.857  0.0585 -0.1027  0.1669
  319POPC   C4A 4317   7.082   6.765   6.327  0.0462 -0.0476 -0.0280
  319POPC   C1B 4318   6.863   6.235   5.351 -0.0328 -0.0422  0.1689
  319POPC   C2B 4319   6.834   6.204   5.768  0.0573 -0.2327  0.0840
  319POPC   C3B 4320   6.955   5.820   5.990 -0.0834 -0.2417 -0.2320
  319POPC   C4B 4321   7.370   5.782   6.278  0.4590  0.0487  0.0705
  320POPC   NC3 4322   3.422   6.888   4.092 -0.0219  0.0373 -0.1123
  320POPC   PO4 4323   3.627   7.215   4.262 -0.0427 -0.0028 -0.2255
  320POPC   GL1 4324   3.994   7.401   4.414  0.3397 -0.1652  0.1954
  320POPC   GL2 4325   3.947   7.719   4.494  0.0117 -0.2649  0.1883
  320POPC   C1A 4326   4.234   7.347   4.772  0.0348 -0.0283 -0.3456
  320POPC   D2A 4327   4.360   7.038   4.844  0.0355  0.0138 -0.2403
  320POPC   C3A 4328   4.555   6.880   5.272 -0.1369 -0.1688  0.0797
  320POPC   C4A 4329   4.544   6.733   5.637 -0.3421 -0.1404  0.2201
  320POPC   C1B 4330   4.130   8.057   4.786  0.0927 -0.1730  0.2501
  320POPC   C2B 4331   4.152   8.179   5.210  0.1331  0.1527 -0.1624
  320POPC   C3B 4332   4.250   8.571   5.446  0.4530  0.1861 -0.2535
  320POPC   C4B 4333   4.079   8.835   5.832 -0.0207 -0.2730  0.0318
  321POPC   NC3 4334   4.127   0.782   4.546 -0.0465  0.2867  0.1255
  321POPC   PO4 4335   4.473   0.995   4.672  0.1037 -0.0245 -0.0864
  321POPC   GL1 4336   4.253   0.776   5.058  0.0288 -0.1737  0.0482
  321POPC   GL2 4337   4.480   0.790   5.117  0.2766 -0.5298 -0.2126
  321POPC   C1A 4338   3.880   0.659   5.302 -0.2241 -0.1877  0.2322
  321POPC   D2A 4339   3.494   0.850   5.388  0.2253 -0.2041  0.0226
  321POPC   C3A 4340   3.270   1.060   5.805 -0.0231  0.1643 -0.0220
  321POPC   C4A 4341   3.011   1.276   6.099 -0.1220  0.1396 -0.0287
  321POPC   C1B 4342   4.477   0.623   5.481 -0.1104 -0.0876 -0.0959
  321POPC   C2B 4343   4.411   0.736   5.974 -0.0389  0.0619  0.0057
  321POPC   C3B 4344   4.148   0.708   6.292 -0.1714  0.4355  0.1615
  321POPC   C4B 4345   4.001   0.778   6.711  0.4679 -0.0377 -0.3790
  322POPC   NC3 4346   3.043   8.516   3.708 -0.1323 -0.0790 -0.0812
  322POPC   PO4 4347   3.475   8.392   3.868  0.1851 -0.0764  0.0971
  322POPC   GL1 4348   3.777   8.234   4.321  0.5175 -0.1103  0.2313
  322POPC   GL2 4349   4.096   8.415   4.275  0.1264  0.1993 -0.0056
  322POPC   C1A 4350   3.616   8.073   4.745  0.0007  0.0584  0.0184
  322POPC   D2A 4351   3.655   8.349   5.123 -0.2204 -0.0589 -0.0014
  322POPC   C3A 4352   3.716   8.802   5.286  0.1700 -0.2179  0.2345
  322POPC   C4A 4353   3.773   9.099   5.554  0.2561  0.0183  0.0663
  322POPC   C1B 4354   4.348   8.523   4.639 -0.0256  0.0265 -0.0596
  322POPC   C2B 4355   4.565   8.415   4.989 -0.1477  0.1479  0.0744
  322POPC   C3B 4356   4.575   7.986   5.368 -0.0613 -0.1310 -0.0988
  322POPC   C4B 4357   4.592   7.863   5.863 -0.0262  0.2017 -0.0339
  323POPC   NC3 4358   6.807   4.851   4.291  0.0003 -0.0309  0.1913
  323POPC   PO4 4359   6.891   4.796   4.714 -0.0640  0.1704 -0.1615
  323POPC   GL1 4360   6.799   4.840   5.174 -0.2964  0.0376 -0.0197
  323POPC   GL2 4361   7.236   4.889   5.251  0.0243 -0.4743  0.1616
  323POPC   C1A 4362   6.863   4.701   5.591  0.0774 -0.1125  0.0829
  323POPC   D2A 4363   6.865   4.885   5.956 -0.1162  0.0133  0.3385
  323POPC   C3A 4364   6.743   5.258   6.049 -0.0216 -0.1626 -0.0109
  323POPC   C4A 4365   6.537   5.587   6.220  0.2018 -0.2181  0.0599
  323POPC   C1B 4366   7.285   4.993   5.651  0.1656  0.0824  0.2247
  323POPC   C2B 4367   7.345   5.219   6.066 -0.1270  0.0594 -0.4413
  323POPC   C3B 4368   7.462   5.160   6.441 -0.1963 -0.0010  0.2041
  323POPC   C4B 4369   7.646   5.192   6.869 -0.4802 -0.0718  0.0973
  324POPC   NC3 4370  10.471   0.298   4.659  0.3832 -0.0373  0.0360
  324POPC   PO4 4371  10.770   0.462   4.997 -0.1951  0.1315 -0.1587
  324POPC   GL1 4372  10.805   0.575   5.398  0.1048 -0.1794 -0.2222
  324POPC   GL2 4373  10.704   0.790   5.692  0.0207 -0.3971 -0.2387
  324POPC   C1A 4374  10.969   0.339   5.808 -0.1097  0.0824  0.0868
  324POPC   D2A 4375  10.732   0.054   5.958 -0.1588 -0.0643 -0.2064
  324POPC   C3A 4376  10.563  -0.360   5.964 -0.1183 -0.0098  0.1326
  324POPC   C4A 4377  10.413  -0.609   6.251  0.2779  0.1337 -0.1086
  324POPC   C1B 4378  10.418   0.600   5.836 -0.0494 -0.1805 -0.1624
  324POPC   C2B 4379  10.136   0.635   6.232  0.1348  0.0024 -0.4582
  324POPC   C3B 4380   9.722   0.480   6.195 -0.0554 -0.2698  0.0782
  324POPC   C4B 4381   9.355   0.582   6.263  0.1702  0.2145  0.3026
  325POPC   NC3 4382   3.501   6.479   4.713 -0.0044  0.0204 -0.0319
  325POPC   PO4 4383   3.304   6.765   4.548  0.1450 -0.0158 -0.1220
  325POPC   GL1 4384   3.576   7.061   4.786  0.3448  0.1411  0.0161
  325POPC   GL2 4385   3.821   6.828   4.959  0.2183 -0.1318  0.2204
  325POPC   C1A 4386   3.780   7.383   5.029 -0.3252  0.1618 -0.1272
  325POPC   D2A 4387   3.938   7.742   5.160 -0.1169 -0.0203 -0.2461
  325POPC   C3A 4388   4.102   7.850   5.596  0.0422 -0.1193  0.0015
  325POPC   C4A 4389   4.240   8.188   5.758  0.2051 -0.2016 -0.2539
  325POPC   C1B 4390   3.734   6.705   5.418 -0.2100 -0.0620  0.0840
  325POPC   C2B 4391   3.936   6.800   5.734 -0.0437  0.2853  0.1026
  325POPC   C3B 4392   4.265   7.053   5.894  0.2083 -0.0597  0.0506
  325POPC   C4B 4393   4.402   7.364   5.684  0.0435  0.1670 -0.1377
  326POPC   NC3 4394   6.486   2.854   5.347  0.1533 -0.2146 -0.1569
  326POPC   PO4 4395   6.442   3.240   5.248 -0.1185 -0.2796 -0.0564
  326POPC   GL1 4396   6.441   3.230   5.671 -0.1891  0.0772 -0.1609
  326POPC   GL2 4397   6.678   2.983   5.820  0.2866  0.0435  0.2916
  326POPC   C1A 4398   6.317   3.171   6.124 -0.0110 -0.0393  0.1448
  326POPC   D2A 4399   6.344   2.997   6.604  0.1930  0.1662  0.0465
  326POPC   C3A 4400   6.402   2.496   6.750  0.0791 -0.0477 -0.2295
  326POPC   C4A 4401   6.125   2.139   6.801 -0.0373 -0.0145  0.0539
  326POPC   C1B 4402   6.680   2.800   6.247 -0.3275 -0.1710  0.0910
  326POPC   C2B 4403   6.860   2.727   6.631 -0.2586 -0.3423  0.1476
  326POPC   C3B 4404   7.056   2.653   7.055 -0.0029 -0.1828  0.6644
  326POPC   C4B 4405   6.988   2.503   7.428 -0.2473 -0.0862 -0.1535
  327POPC   NC3 4406   7.294   3.505   5.184 -0.0547 -0.0563 -0.2966
  327POPC   PO4 4407   7.401   3.100   5.338 -0.0104  0.1197  0.0414
  327POPC   GL1 4408   7.390   2.948   5.792 -0.1854  0.0242 -0.0539
  327POPC   GL2 4409   7.104   2.657   5.880  0.2515  0.2979 -0.0986
  327POPC   C1A 4410   7.573   2.812   6.080  0.0877  0.1294 -0.0249
  327POPC   D2A 4411   7.924   2.755   6.433 -0.1147  0.0202  0.0231
  327POPC   C3A 4412   8.210   2.968   6.750  0.0350  0.3215  0.0996
  327POPC   C4A 4413   8.012   3.393   6.914  0.3823  0.0290 -0.4845
  327POPC   C1B 4414   7.135   2.482   6.291  0.2294 -0.0519 -0.0863
  327POPC   C2B 4415   7.411   2.674   6.624 -0.1107  0.1770 -0.0795
  327POPC   C3B 4416   7.590   3.180   6.652 -0.1782  0.4142 -0.2239
  327POPC   C4B 4417   7.572   3.604   6.810 -0.0983 -0.0633 -0.0566
  328POPC   NC3 4418   7.782   3.699   5.244 -0.0952  0.2425  0.0009
  328POPC   PO4 4419   7.818   3.283   5.065  0.0893 -0.0491 -0.1887
  328POPC   GL1 4420   7.701   3.351   5.592 -0.1530  0.0972 -0.0653
  328POPC   GL2 4421   8.027   3.294   5.798  0.2850  0.2100  0.0367
  328POPC   C1A 4422   7.458   3.332   6.017 -0.0230  0.3759  0.0399
  328POPC   D2A 4423   7.278   3.472   6.416  0.2093  0.0946  0.2794
  328POPC   C3A 4424   6.923   3.483   6.592  0.0498  0.1328  0.1781
  328POPC   C4A 4425   6.592   3.272   6.890 -0.0944 -0.1124  0.2821
  328POPC   C1B 4426   8.184   3.137   6.242 -0.2414 -0.0989  0.0418
  328POPC   C2B 4427   8.536   3.322   6.522 -0.0289 -0.2497 -0.2056
  328POPC   C3B 4428   8.565   3.268   6.940 -0.0285 -0.0367 -0.1002
  328POPC   C4B 4429   8.411   2.984   7.405 -0.0045 -0.0585  0.3921
  329POPC   NC3 4430   5.872   4.835   4.697 -0.2076 -0.3038 -0.0085
  329POPC   PO4 4431   5.405   4.825   4.959 -0.1164 -0.0609  0.1669
  329POPC   GL1 4432   5.696   5.024   5.210 -0.2927 -0.2113 -0.2016
  329POPC   GL2 4433   6.098   5.079   5.134  0.1590 -0.1011 -0.0663
  329POPC   C1A 4434   5.856   5.388   5.491 -0.1899  0.0767 -0.1452
  329POPC   D2A 4435   5.597   5.734   5.802  0.0465 -0.1834 -0.0707
  329POPC   C3A 4436   5.636   5.965   6.183  0.0487  0.0527 -0.0994
  329POPC   C4A 4437   5.675   6.301   6.490  0.0415 -0.0248  0.1858
  329POPC   C1B 4438   6.360   5.323   5.374  0.0200 -0.0327 -0.0151
  329POPC   C2B 4439   6.323   5.438   5.813  0.1373 -0.0581 -0.3258
  329POPC   C3B 4440   6.017   5.620   6.072 -0.1464  0.0182  0.3938
  329POPC   C4B 4441   5.808   5.708   6.572 -0.3313  0.2606 -0.1087
  330POPC   NC3 4442   4.027   7.988   3.366 -0.0543  0.0387  0.1687
  330POPC   PO4 4443   4.118   7.593   3.586 -0.0633 -0.0900 -0.4512
  330POPC   GL1 4444   4.452   7.624   4.011 -0.0290  0.0105 -0.1273
  330POPC   GL2 4445   4.475   7.356   4.063  0.2134  0.0242  0.2213
  330POPC   C1A 4446   4.543   7.675   4.535 -0.1410 -0.0787 -0.3202
  330POPC   D2A 4447   4.616   7.814   4.867 -0.0953 -0.0239  0.4723
  330POPC   C3A 4448   4.476   7.503   5.196  0.3961 -0.1340 -0.0329
  330POPC   C4A 4449   4.090   7.111   5.313  0.0449 -0.1021 -0.1597
  330POPC   C1B 4450   4.668   7.225   4.450 -0.1410  0.1310  0.0090
  330POPC   C2B 4451   4.839   7.328   4.853  0.2562  0.2400  0.0888
  330POPC   C3B 4452   5.015   7.459   5.180  0.4563  0.0275  0.0250
  330POPC   C4B 4453   4.951   7.644   5.560 -0.0569 -0.2442 -0.0517
  331POPC   NC3 4454   3.401   7.955   4.143 -0.0113  0.1512 -0.0247
  331POPC   PO4 4455   2.934   8.244   4.131  0.3618  0.3571  0.3520
  331POPC   GL1 4456   3.266   8.375   4.465  0.1173 -0.1171  0.2299
  331POPC   GL2 4457   3.221   8.709   4.559  0.0655  0.1926 -0.1056
  331POPC   C1A 4458   3.670   8.589   4.687  0.2854  0.2829  0.0612
  331POPC   D2A 4459   4.024   8.742   4.899 -0.0992  0.2386  0.1486
  331POPC   C3A 4460   4.229   9.013   4.776  0.0653 -0.0174  0.0062
  331POPC   C4A 4461   4.577   9.312   4.671  0.2324 -0.1276  0.2702
  331POPC   C1B 4462   3.287   8.852   5.003  0.1178 -0.1882 -0.0867
  331POPC   C2B 4463   3.283   9.072   5.282  0.3508  0.3402 -0.1156
  331POPC   C3B 4464   3.377   8.748   5.650  0.1188 -0.0668 -0.2550
  331POPC   C4B 4465   3.600   8.710   5.987 -0.0774 -0.1887  0.2515
  332POPC   NC3 4466  10.245   1.225   5.004 -0.0834 -0.0375  0.1942
  332POPC   PO4 4467   9.922   1.480   5.038  0.0488  0.1022 -0.2638
  332POPC   GL1 4468   9.775   1.554   5.512  0.3425  0.2368  0.2739
  332POPC   GL2 4469   9.592   1.866   5.618  0.2459  0.2913 -0.0017
  332POPC   C1A 4470   9.905   1.561   5.916  0.1683  0.0376  0.0260
  332POPC   D2A 4471  10.102   1.400   6.230  0.0456 -0.1016  0.2375
  332POPC   C3A 4472  10.268   1.074   6.463 -0.0720 -0.1114 -0.0137
  332POPC   C4A 4473  10.385   0.811   6.742 -0.4089 -0.0997 -0.1866
  332POPC   C1B 4474   9.375   1.902   5.962  0.0399 -0.1228  0.1415
  332POPC   C2B 4475   9.143   1.915   6.391  0.1126 -0.0467 -0.0177
  332POPC   C3B 4476   9.197   2.122   6.771  0.1932 -0.0012  0.1166
  332POPC   C4B 4477   9.155   2.119   7.186 -0.0487 -0.1395 -0.0926
  333POPC   NC3 4478   8.508   3.961   4.945 -0.1201  0.0056  0.1313
  333POPC   PO4 4479   8.359   4.384   4.962  0.0793  0.0170  0.2132
  333POPC   GL1 4480   8.233   4.128   5.354 -0.2665 -0.2128  0.3440
  333POPC   GL2 4481   8.406   4.388   5.451  0.3216 -0.0920  0.2759
  333POPC   C1A 4482   8.182   3.997   5.811 -0.0983  0.0341 -0.1330
  333POPC   D2A 4483   8.392   4.129   6.265 -0.1484  0.2168 -0.0404
  333POPC   C3A 4484   8.061   4.249   6.626  0.1499 -0.0115 -0.2208
  333POPC   C4A 4485   8.097   4.315   7.034 -0.1535  0.1130 -0.5473
  333POPC   C1B 4486   8.218   4.547   5.793  0.0677  0.0807  0.1973
  333POPC   C2B 4487   8.260   4.697   6.196 -0.0850  0.2178  0.0358
  333POPC   C3B 4488   8.410   4.552   6.701  0.0775 -0.2339 -0.3273
  333POPC   C4B 4489   8.514   4.129   6.758  0.0108  0.0347  0.1152
  334POPC   NC3 4490   8.070   6.081   4.466  0.0738  0.0400 -0.0177
  334POPC   PO4 4491   8.199   6.427   4.672  0.1429 -0.1711 -0.1421
  334POPC   GL1 4492   8.074   6.475   5.064 -0.2284  0.3254  0.2302
  334POPC   GL2 4493   8.159   6.237   5.204  0.0610  0.1560 -0.2386
  334POPC   C1A 4494   7.706   6.319   5.254  0.1479 -0.1966 -0.0213
  334POPC   D2A 4495   7.283   6.220   5.569  0.0544  0.1620  0.0975
  334POPC   C3A 4496   7.154   5.829   5.494  0.0637  0.0397 -0.0910
  334POPC   C4A 4497   7.184   5.476   5.665  0.2200  0.1330  0.0079
  334POPC   C1B 4498   7.954   6.286   5.661 -0.0548  0.2295 -0.3457
  334POPC   C2B 4499   8.001   6.331   6.135 -0.0535  0.1932  0.0709
  334POPC   C3B 4500   8.191   6.465   6.442 -0.1923  0.1803 -0.0320
  334POPC   C4B 4501   8.453   6.512   6.711 -0.1957 -0.1925  0.2341
  335POPC   NC3 4502   1.568   5.728   4.784 -0.0654 -0.2674 -0.1314
  335POPC   PO4 4503   1.348   5.354   4.646 -0.1635  0.0955  0.0031
  335POPC   GL1 4504   1.234   5.110   5.127  0.2179  0.2312 -0.1189
  335POPC   GL2 4505   1.291   4.711   5.135  0.0534 -0.2723 -0.0483
  335POPC   C1A 4506   1.254   5.099   5.602  0.0228  0.0587 -0.0117
  335POPC   D2A 4507   1.371   5.090   6.019 -0.1685  0.2638  0.2396
  335POPC   C3A 4508   1.303   5.234   6.486  0.2189 -0.1792 -0.1150
  335POPC   C4A 4509   0.931   5.584   6.673  0.0905  0.0841  0.1712
  335POPC   C1B 4510   1.636   4.678   5.298  0.2338 -0.1057 -0.2114
  335POPC   C2B 4511   1.675   4.806   5.750 -0.1872  0.1289 -0.2794
  335POPC   C3B 4512   1.828   4.957   6.207  0.1115 -0.1574 -0.3126
  335POPC   C4B 4513   1.841   5.280   6.541  0.0173 -0.1301 -0.0883
  336POPC   NC3 4514   6.398   1.070   4.633  0.1081  0.1185  0.0268
  336POPC   PO4 4515   6.326   0.708   4.482 -0.2644 -0.1715  0.1022
  336POPC   GL1 4516   6.044   0.486   4.748 -0.1883  0.2209  0.0415
  336POPC   GL2 4517   5.676   0.541   4.766 -0.2058  0.3180 -0.3534
  336POPC   C1A 4518   5.870   0.149   5.104  0.1318  0.1489  0.0941
  336POPC   D2A 4519   5.734  -0.058   5.547 -0.1354  0.0346  0.1880
  336POPC   C3A 4520   5.786  -0.469   5.792 -0.3654 -0.4909 -0.1380
  336POPC   C4A 4521   6.113  -0.696   5.846  0.0355  0.0207 -0.1398
  336POPC   C1B 4522   5.680   0.636   5.119  0.0276  0.0338 -0.2561
  336POPC   C2B 4523   5.788   0.671   5.464 -0.2884  0.2454 -0.2013
  336POPC   C3B 4524   5.823   0.379   5.853  0.0573  0.1154  0.1270
  336POPC   C4B 4525   5.926   0.080   6.195  0.4326 -0.2328 -0.1486
  337POPC   NC3 4526   9.227   1.385   4.727 -0.1163  0.3271  0.1709
  337POPC   PO4 4527   9.071   1.043   5.172  0.0352 -0.0553  0.0639
  337POPC   GL1 4528   8.722   1.080   5.483  0.3366  0.1198 -0.0780
  337POPC   GL2 4529   8.775   1.258   5.724  0.1035  0.2191 -0.1741
  337POPC   C1A 4530   8.323   1.145   5.614  0.1099 -0.2492  0.0589
  337POPC   D2A 4531   8.003   1.478   5.685  0.1815 -0.1243  0.2439
  337POPC   C3A 4532   8.045   1.816   6.014 -0.1524 -0.1462 -0.2275
  337POPC   C4A 4533   7.945   2.255   6.334 -0.1193  0.1925  0.0403
  337POPC   C1B 4534   8.539   1.104   6.109  0.1163 -0.0341 -0.0483
  337POPC   C2B 4535   8.420   0.815   6.435 -0.2145  0.2554  0.1589
  337POPC   C3B 4536   8.023   0.633   6.635 -0.2533  0.3258 -0.0806
  337POPC   C4B 4537   7.644   0.764   6.558 -0.1217  0.1163  0.2427
  338W        W 4538   9.332   1.893   2.401  0.2402  0.2142 -0.0062
  339W        W 4539   0.281   6.007   1.495  0.1021 -0.0656  0.3462
  340W        W 4540   2.963   7.823   2.235  0.0550 -0.2320 -0.1416
  341W        W 4541   6.665   0.919   0.323  0.0100  0.0660  0.2339
  342W        W 4542   7.548   3.045  12.176  0.0106  0.1708 -0.0246
  343W        W 4543   5.269   2.099  11.961 -0.1822 -0.2111  0.1117
  344W        W 4544   6.903   1.428   1.071  0.3876 -0.0157  0.1842
  345W        W 4545   1.012   7.839   9.161 -0.0599  0.0304 -0.1010
  346W        W 4546   2.507   7.308  10.781 -0.2345 -0.0426  0.1959
  347W        W 4547  10.180   2.009   2.476  0.0906 -0.0432  0.1606
  348W        W 4548   9.560   2.520  10.247 -0.2151 -0.0461 -0.1187
  349W        W 4549   1.610   2.325   4.336  0.0989  0.0387  0.0181
  350W        W 4550   6.393   1.431   1.067  0.3783 -0.2398  0.0450
  351W        W 4551   7.995   2.116  10.512  0.0624  0.2133  0.1720
  352W        W 4552   2.445   5.144   0.605  0.1497 -0.0863 -0.0000
  353W        W 4553   5.615   5.498   9.899  0.0613 -0.3682  0.0857
  354W        W 4554   5.565   9.072  11.192 -0.1165  0.0906  0.2958
  355W        W 4555   3.532   4.853  11.062 -0.0082 -0.0148  0.1150
  356W        W 4556   5.914   0.266   9.623  0.0763 -0.0013 -0.2527
  357W        W 4557   4.105   7.051   3.477 -0.1606 -0.1269  0.1215
  358W        W 4558   0.525   4.800   0.524  0.0683 -0.2440 -0.1193
  359W        W 4559   1.615   0.153  11.581  0.0450 -0.0296 -0.1425
  360W        W 4560   1.174   7.256   0.957  0.0088 -0.4046 -0.4001
  361W        W 4561   7.899   3.688  11.149  0.0451 -0.0986  0.1037
  362W        W 4562  10.122   4.510  11.819 -0.1498  0.0350 -0.2773
  363W        W 4563   9.879   7.505  10.250 -0.0896 -0.1057 -0.1295
  364W        W 4564   4.986   8.291   3.048  0.1016  0.0825 -0.3510
  365W        W 4565   6.120   4.014   0.453 -0.1713 -0.0064  0.1414
  366W        W 4566   6.750   7.284   2.446  0.3089 -0.2407 -0.1580
  367W        W 4567   1.709   4.625  11.689 -0.0025 -0.0476 -0.1013
  368W        W 4568   3.964   5.183  10.497 -0.0871  0.2940 -0.1073
  369W        W 4569   7.495   0.887  12.588  0.0444 -0.3090 -0.0435
  370W        W 4570   9.016   0.261   4.023 -0.3041  0.0788  0.3098
  371W        W 4571  10.113   9.505   4.746 -0.1528 -0.0883 -0.1344
  372W        W 4572   5.688   6.528   2.469  0.0567  0.1833 -0.1175
  373W        W 4573   6.812   5.105   3.109  0.1148  0.3604 -0.2980
  374W        W 4574  10.250   8.559  11.882  0.2463 -0.0029  0.2475
  375W        W 4575   4.268   6.438  12.511  0.2827  0.0648 -0.2576
  376W        W 4576   1.193   5.350   0.620  0.2504 -0.2938  0.0638
  377W        W 4577   4.295  10.410  10.095 -0.2012 -0.0816  0.4001
  378W        W 4578   3.759   5.229   3.471 -0.2230  0.0017  0.0233
  379W        W 4579   9.885   7.171  12.084  0.0443 -0.0005  0.2288
  380W        W 4580   0.233   9.866   2.298 -0.0990 -0.2471  0.1534
  381W        W 4581   9.286   3.463   4.981 -0.0711 -0.1178 -0.0042
  382W        W 4582   2.416   8.002   1.522  0.0019 -0.0696 -0.0802
  383W        W 4583   6.677   9.633  11.988  0.0795 -0.1887  0.0766
  384W        W 4584   2.241   8.449   3.465 -0.1078  0.1829  0.1588
  385W        W 4585   2.136   7.956   4.486  0.1930 -0.2308  0.1109
  386W        W 4586   9.186   2.422   3.643  0.0255  0.1268  0.2923
  387W        W 4587   6.026   3.520  10.442 -0.0890 -0.2574 -0.2967
  388W        W 4588   8.827   3.311   2.825 -0.0433  0.0342 -0.1072
  389W        W 4589   7.204  10.420   0.800  0.1484 -0.0287 -0.2472
  390W        W 4590   2.836   8.183   9.379 -0.0688  0.0204 -0.3218
  391W        W 4591   3.490   7.209  10.456  0.0055 -0.0921 -0.0670
  392W        W 4592   1.038   4.655   4.286 -0.0402  0.0203 -0.0011
  393W        W 4593   0.341  10.019  10.645  0.1047  0.0410  0.0876
  394W        W 4594   9.690   6.970   4.457  0.2876 -0.2072 -0.0771
  395W        W 4595   4.224   7.187  11.706  0.3028 -0.0346  0.0353
  396W        W 4596   3.430   3.687  13.241  0.0218  0.0909  0.3090
  397W        W 4597   7.377  10.223  10.708 -0.1057  0.2922 -0.0176
  398W        W 4598   8.052   2.530  10.959 -0.0101  0.1759  0.0425
  399W        W 4599   3.519   5.144  10.361  0.1036  0.1419  0.1232
  400W        W 4600   6.006   2.111   2.070 -0.0831 -0.3399 -0.1348
  401W        W 4601   3.846   3.152   0.887  0.0711  0.0239 -0.3006
  402W        W 4602   8.632   9.727  12.473 -0.0102  0.0719  0.0069
  403W        W 4603   9.608   3.478   4.598  0.0164  0.0341  0.1340
  404W        W 4604   0.023   8.135  11.726  0.0182 -0.1459  0.1518
  405W        W 4605   8.544   8.579  13.012  0.0971 -0.2531 -0.1525
  406W        W 4606   5.907   8.063  11.846 -0.0232  0.1762 -0.0060
  407W        W 4607   9.825   4.163  12.070  0.1315 -0.1319 -0.1118
  408W        W 4608   5.479   6.020   2.112 -0.0597  0.0734  0.2160
  409W        W 4609   9.995   2.754   2.684 -0.0965  0.1261  0.1673
  410W        W 4610   1.354   8.417  10.777  0.1556 -0.1020 -0.0903
  411W        W 4611   3.933   7.907   0.914  0.1271  0.3195  0.1090
  412W        W 4612   2.234   1.601   1.675  0.1032  0.1199 -0.0403
  413W        W 4613   4.675   6.846   0.182 -0.0500  0.2221  0.0759
  414W        W 4614   7.244   8.543  12.934 -0.0483  0.0361 -0.0627
  415W        W 4615   7.964   9.110   1.779 -0.0150 -0.0651 -0.0879
  416W        W 4616   6.516   7.812   0.265 -0.1273  0.1035 -0.1427
  417W        W 4617   1.791   8.263  10.444 -0.1302 -0.0892 -0.1127
  418W        W 4618   3.236   9.948  12.095 -0.0901  0.2986  0.0779
  419W        W 4619   7.610   4.740   2.724  0.2220  0.0264 -0.0074
  420W        W 4620   2.958  10.091   0.742  0.1952  0.2087  0.1204
  421W        W 4621   0.550   1.622   4.092  0.1754  0.0278  0.0588
  422W        W 4622   1.475   1.976  11.032  0.1070  0.1904  0.2730
  423W        W 4623   2.988   9.725   2.653 -0.1506 -0.3786  0.0382
  424W        W 4624   2.705   5.522   2.437  0.2773 -0.2966 -0.1663
  425W        W 4625   3.225   4.395   3.911 -0.3767  0.0759 -0.2020
  426W        W 4626   4.464   6.894  12.331 -0.2518  0.2603  0.2634
  427W        W 4627   6.672   1.462   8.813 -0.0661 -0.2146 -0.3884
  428W        W 4628   4.763   2.028  12.221 -0.0846  0.2137  0.3896
  429W        W 4629   1.255   1.640   4.642  0.2350 -0.0017 -0.1208
  430W        W 4630   4.857   9.657  13.292  0.0025 -0.1768  0.4959
  431W        W 4631   1.287   4.023   8.791  0.1075  0.0152 -0.0290
  432W        W 4632   3.643   6.682  10.519  0.5106  0.0425 -0.4085
  433W        W 4633   4.023   1.244  13.201  0.0342 -0.0870  0.2592
  434W        W 4634   2.642   9.188   1.778 -0.1818  0.1503 -0.1697
  435W        W 4635   5.260   9.732   2.147 -0.1448 -0.2580 -0.0420
  436W        W 4636   5.699   1.127   2.361  0.0881 -0.4593 -0.0085
  437W        W 4637   3.083   1.685  11.632 -0.1056  0.0479 -0.1415
  438W        W 4638   0.641   2.261   9.804 -0.0677  0.1593  0.0263
  439W        W 4639   1.541   2.322   9.461 -0.1059 -0.1154 -0.1788
  440W        W 4640   0.624  10.466  10.587  0.1781 -0.0767  0.1175
  441W        W 4641   7.974   1.421   3.106 -0.2084 -0.0337 -0.1098
  442W        W 4642   6.476   3.841  13.208 -0.4591  0.0695 -0.2162
  443W        W 4643   6.011   4.971   9.903 -0.1393 -0.0511 -0.0144
  444W        W 4644   9.071   8.575   4.345 -0.2514  0.2881  0.1756
  445W        W 4645   5.445   1.226  11.622 -0.0218 -0.1346  0.1320
  446W        W 4646   2.046   9.587  11.427  0.1120 -0.0252 -0.3838
  447W        W 4647   3.082   5.547   3.947 -0.0516  0.1169 -0.0549
  448W        W 4648   6.869   1.036  10.732 -0.1428  0.0328 -0.1735
  449W        W 4649   7.265   3.239   3.678  0.3732 -0.1188 -0.3138
  450W        W 4650   5.441   1.880  11.469 -0.1849  0.0578  0.3755
  451W        W 4651   7.532   0.448  12.356  0.0943  0.0695  0.0637
  452W        W 4652   0.540   9.810   4.049  0.0577  0.0822  0.0475
  453W        W 4653   8.762   0.436  11.531  0.0583  0.0565  0.1047
  454W        W 4654   0.968   5.818   2.100 -0.4884 -0.3353  0.0538
  455W        W 4655   8.494  10.018   1.640 -0.1130  0.0435  0.1281
  456W        W 4656   0.867   1.350   2.936 -0.0434  0.1636  0.1502
  457W        W 4657   8.717   6.721   1.457 -0.0753 -0.2993 -0.0336
  458W        W 4658   8.698   0.000   1.832  0.0419  0.0612 -0.1411
  459W        W 4659   1.581   6.254   4.792  0.1615 -0.0867 -0.1164
  460W        W 4660   7.044   6.357   2.324  0.0787 -0.0501  0.1545
  461W        W 4661   2.834   1.175   1.087 -0.2134 -0.2130 -0.1464
  462W        W 4662   5.482   2.946  11.669  0.2135 -0.2030 -0.1843
  463W        W 4663   2.360   5.811   9.984 -0.0697 -0.0600 -0.0072
  464W        W 4664   1.738   8.065  12.212  0.0728  0.1937  0.1899
  465W        W 4665   2.816   9.751   1.463 -0.1842  0.0157 -0.4570
  466W        W 4666   3.435   7.303  11.783 -0.0433 -0.1405  0.0625
  467W        W 4667   9.259   8.118   9.358 -0.2020 -0.0492  0.1285
  468W        W 4668   7.099   6.867   1.294  0.1166  0.0416 -0.1959
  469W        W 4669   9.236   4.320  11.308  0.1440 -0.1102  0.0687
  470W        W 4670   7.079   3.078   0.137  0.0445  0.2461  0.0710
  471W        W 4671   4.482   0.920   0.467 -0.0079  0.1230  0.1735
  472W        W 4672   5.502   4.733   0.954  0.2041 -0.0500  0.2600
  473W        W 4673   6.845   0.929  10.171 -0.3001 -0.0821 -0.0275
  474W        W 4674   2.393   5.425  10.295 -0.0689  0.5371 -0.0237
  475W        W 4675   1.533   2.807   0.042  0.0800  0.2050  0.2010
  476W        W 4676   2.822   4.933   4.562 -0.0637 -0.2853  0.1926
  477W        W 4677   2.971   9.045   3.574  0.0388  0.0667  0.2679
  478W        W 4678   3.036   8.246   3.235 -0.1144 -0.2064 -0.0443
  479W        W 4679   1.084   5.781  12.558  0.0234  0.1187  0.1561
  480W        W 4680   1.505   5.574  10.743  0.2444  0.5970  0.1265
  481W        W 4681   0.217   9.454   2.684 -0.4077  0.1529  0.1745
  482W        W 4682   7.575   3.954  13.408 -0.0605  0.2125  0.0735
  483W        W 4683   3.589   7.009   1.666 -0.2900 -0.0572 -0.0954
  484W        W 4684   3.964   0.290   1.041 -0.3739 -0.4786 -0.3535
  485W        W 4685   9.659   5.352  10.308  0.2614  0.1117  0.0408
  486W        W 4686   3.508   7.868  11.888  0.1093 -0.0454  0.2308
  487W        W 4687   1.825   8.629  11.441 -0.0035 -0.0387 -0.1893
  488W        W 4688   9.704   1.827   9.366  0.0772 -0.0849  0.0108
  489W        W 4689   4.758   6.260  11.779 -0.0037  0.1517 -0.0198
  490W        W 4690  10.042   0.044  11.524  0.2400 -0.3609 -0.1824
  491W        W 4691   2.173   0.851   1.360  0.2576 -0.0327  0.0223
  492W        W 4692   3.181   4.902   1.975  0.1669 -0.0104 -0.1706
  493W        W 4693   0.340   4.217   8.834 -0.3374 -0.3544 -0.1736
  494W        W 4694   4.924   2.129   1.489 -0.4311 -0.0682  0.2296
  495W        W 4695   4.432   2.030  10.083  0.1119 -0.0475 -0.3405
  496W        W 4696   4.545   1.639   2.647  0.1189 -0.0073 -0.1034
  497W        W 4697  10.212   0.266  10.981  0.4674  0.0797  0.1431
  498W        W 4698   3.127   6.996   9.738  0.0898 -0.1433  0.0482
  499W        W 4699  10.359   6.302   4.182  0.2553  0.3280  0.0630
  500W        W 4700  10.027   1.672   2.779  0.0149 -0.1039  0.0571
  501W        W 4701   4.922   2.124  11.493  0.2494 -0.2378  0.1119
  502W        W 4702   3.191   6.187   1.323  0.1012 -0.2168  0.1375
  503W        W 4703   3.299   4.567  10.648  0.0886  0.0016 -0.0254
  504W        W 4704   9.501   0.530   1.079 -0.3226  0.1273 -0.3246
  505W        W 4705   5.651   5.765   5.065 -0.1775  0.0492  0.0375
  506W        W 4706  10.234   5.636   9.686  0.0406 -0.1254 -0.1636
  507W        W 4707   1.994   4.930   0.460  0.0379 -0.1676  0.0286
  508W        W 4708   6.876   9.815   2.465 -0.0226 -0.0387  0.1739
  509W        W 4709   4.572   4.210   9.915 -0.0082  0.4045  0.1969
  510W        W 4710   8.759   8.578  11.790 -0.0412 -0.3829 -0.0663
  511W        W 4711   6.408   4.942   2.807  0.0543 -0.0154 -0.3009
  512W        W 4712   6.009   3.962  13.428  0.1783 -0.2980  0.0745
  513W        W 4713   0.633   6.643   3.334 -0.0129  0.1610  0.2560
  514W        W 4714   9.568   3.869   5.009 -0.0454 -0.0127  0.1117
  515W        W 4715   7.578   6.161   9.050 -0.1117  0.1254 -0.0333
  516W        W 4716   5.972   3.142   3.645  0.0053 -0.1675 -0.0263
  517W        W 4717   7.778   4.101   3.584  0.2198  0.1553  0.2283
  518W        W 4718   4.210   6.073  12.139 -0.0818 -0.2688 -0.0544
  519W        W 4719   8.752   1.429   8.404  0.0663  0.1147 -0.3670
  520W        W 4720   2.247   0.099  11.692 -0.2269  0.1403  0.3126
  521W        W 4721   7.030   2.340   8.981  0.1494  0.3790 -0.0092
  522W        W 4722   3.809   5.611   9.290  0.0118 -0.1678  0.2124
  523W        W 4723   2.039   3.209  10.803  0.0389  0.2012 -0.0988
  524W        W 4724   6.746   2.613  10.194  0.1224 -0.1093  0.1930
  525W        W 4725   8.156   6.204   0.064 -0.0096 -0.0777  0.0570
  526W        W 4726   8.258   9.692   0.762 -0.2698  0.1126  0.1143
  527W        W 4727   0.281   6.594   5.230  0.0795  0.5320 -0.0933
  528W        W 4728   7.487   3.684  12.970  0.0688  0.3296 -0.0296
  529W        W 4729   7.747   4.754   3.205  0.2480 -0.1102  0.0627
  530W        W 4730   2.344   9.080   4.416 -0.1836  0.3319  0.0185
  531W        W 4731   9.246   3.686   2.272 -0.0195  0.1290 -0.4117
  532W        W 4732   9.187   3.461   9.740 -0.2179  0.2406 -0.2659
  533W        W 4733   8.531   7.977   1.328  0.2813 -0.4221 -0.4216
  534W        W 4734   8.952   8.117  10.983 -0.3530  0.0552 -0.1945
  535W        W 4735   4.425   1.960   1.304 -0.1585  0.1127 -0.3435
  536W        W 4736   5.824   2.839   0.386  0.3952 -0.0889 -0.0745
  537W        W 4737   4.919   6.910   2.211  0.0986 -0.2367  0.0611
  538W        W 4738   1.178   7.401  10.362 -0.0511 -0.4827 -0.0416
  539W        W 4739   3.450   9.265   4.690  0.2302  0.0325 -0.3131
  540W        W 4740   0.165   8.151  10.273  0.2807  0.1714  0.4834
  541W        W 4741   9.857   3.072  11.862 -0.2310 -0.1257 -0.2095
  542W        W 4742   7.618   7.712  10.014 -0.0038 -0.0044 -0.1719
  543W        W 4743   6.044   4.514   0.356  0.0987 -0.0319  0.1307
  544W        W 4744   4.450   3.608  13.069 -0.1619  0.0919 -0.0396
  545W        W 4745   9.826   7.771  12.403  0.1095 -0.1834  0.1619
  546W        W 4746   0.790   6.237  11.805 -0.2632  0.0890  0.0014
  547W        W 4747   5.442   3.714  12.301 -0.1625 -0.0342  0.0126
  548W        W 4748   2.806   9.985   3.037  0.3412 -0.0318 -0.0240
  549W        W 4749   3.412   0.510   2.310 -0.3076 -0.0675 -0.0444
  550W        W 4750   0.439   1.768   2.348 -0.0258  0.2427 -0.1832
  551W        W 4751   2.559   1.076  11.184  0.1281  0.0899 -0.3656
  552W        W 4752   7.820   5.521  12.814  0.1533 -0.0804  0.2196
  553W        W 4753   9.003   8.510   1.905 -0.4097 -0.0271  0.3098
  554W        W 4754   0.118   2.726  10.617  0.0044  0.0143 -0.1703
  555W        W 4755   5.708   2.030   3.054 -0.3515  0.3312 -0.2111
  556W        W 4756   6.416   7.502   3.345 -0.0897 -0.0509  0.1904
  557W        W 4757   3.606   6.132   9.534 -0.1879  0.1539 -0.0738
  558W        W 4758   4.286   3.174   4.964 -0.2285 -0.0359  0.0930
  559W        W 4759   9.560   0.135  12.581 -0.2954 -0.1584  0.0710
  560W        W 4760  10.466   8.535   2.376  0.1832  0.0220  0.4624
  561W        W 4761   1.384   9.461  11.683 -0.0095  0.0851 -0.0783
  562W        W 4762   2.658   2.220  11.648 -0.0541 -0.2316 -0.0818
  563W        W 4763   1.587   0.692   2.685 -0.0219 -0.2470  0.0266
  564W        W 4764   3.317   0.108  10.225 -0.2663  0.2342  0.0132
  565W        W 4765  10.298   3.939   9.383  0.0168  0.2338  0.1101
  566W        W 4766   8.115   9.628  10.506 -0.0295 -0.0511  0.3340
  567W        W 4767  10.059   6.183   0.687  0.0770 -0.1709 -0.0267
  568W        W 4768   6.216   1.779   2.488  0.1959  0.4338  0.0838
  569W        W 4769   7.563   8.298  10.984  0.2701  0.0915 -0.0003
  570W        W 4770   8.966   4.074   2.853 -0.0924  0.1233 -0.0382
  571W        W 4771   6.276   8.205   2.603  0.0171  0.2866  0.2630
  572W        W 4772   3.186   8.014  13.142 -0.5684 -0.0735 -0.0846
  573W        W 4773   3.837   0.852   0.647  0.0753 -0.1520 -0.2123
  574W        W 4774  10.281   1.566  11.682 -0.1842  0.0539 -0.0405
  575W        W 4775   6.672   8.954  11.718  0.4682  0.3573 -0.0699
  576W        W 4776   3.699   1.542  10.333 -0.1260  0.0617  0.1472
  577W        W 4777   3.996   6.869   2.945  0.0294  0.1690 -0.1629
  578W        W 4778   6.550   6.158   3.179  0.2319 -0.1267  0.0275
  579W        W 4779   7.050   3.046  10.310 -0.5922 -0.0055  0.1385
  580W        W 4780   2.295   5.601  11.326  0.1438 -0.2482 -0.2358
  581W        W 4781   4.485   1.129  13.393  0.0617  0.3543  0.1354
  582W        W 4782   2.005   7.624   9.872 -0.2408 -0.0873  0.0944
  583W        W 4783   0.041  10.404  12.416 -0.0214  0.0982 -0.1342
  584W        W 4784   3.967   8.473   2.199  0.2112 -0.2357 -0.3556
  585W        W 4785   0.371   1.599  12.214  0.1934  0.3197 -0.0254
  586W        W 4786   5.969   4.054   3.812  0.2221  0.1233  0.0068
  587W        W 4787   8.540   3.774  10.216 -0.2543 -0.1043 -0.0961
  588W        W 4788   4.911   1.101   0.332 -0.0494  0.0208  0.1554
  589W        W 4789   5.619   1.465   4.993  0.1644 -0.0422 -0.0251
  590W        W 4790   0.334   5.363   4.551  0.4179  0.0264  0.0431
  591W        W 4791   7.139  10.180  11.155  0.0236  0.0672 -0.0500
  592W        W 4792   7.963   1.443   2.637 -0.0238  0.0121 -0.0082
  593W        W 4793   1.330   1.391   3.224  0.1939  0.1721  0.2961
  594W        W 4794   2.100   9.527   3.135  0.0893 -0.3100 -0.0886
  595W        W 4795   7.907   2.969   4.066 -0.1826 -0.0549 -0.1337
  596W        W 4796   0.475   6.386   4.058  0.0420 -0.1667  0.2381
  597W        W 4797   6.510   2.982   4.523 -0.1836 -0.0591  0.2929
  598W        W 4798   5.660   5.590   2.915 -0.1125 -0.0497 -0.2590
  599W        W 4799  10.430   0.303  10.313 -0.4747  0.1917  0.0605
  600W        W 4800   2.673   2.723   2.823 -0.1769 -0.0654 -0.0024
  601W        W 4801  10.181   4.002  12.521 -0.0380 -0.1300 -0.2216
  602W        W 4802   2.918   2.461   0.100 -0.1801 -0.0060 -0.2572
  603W        W 4803   9.097   0.118   2.222  0.0198  0.1020 -0.0812
  604W        W 4804   6.630   5.203  13.345 -0.3034  0.1717 -0.3659
  605W        W 4805   3.544   9.270   3.340  0.0024  0.0137 -0.1475
  606W        W 4806   8.006   1.533  13.189 -0.0021 -0.0964 -0.1155
  607W        W 4807   8.510   3.221   2.426 -0.2244  0.2420  0.1756
  608W        W 4808   6.028   9.926  10.109  0.1551 -0.0829 -0.2329
  609W        W 4809   5.456   6.992  10.347  0.0293  0.1071 -0.1248
  610W        W 4810   8.164   7.910   0.041 -0.1691 -0.1154  0.1698
  611W        W 4811   7.109   3.621   0.858  0.0474 -0.2170  0.1387
  612W        W 4812   9.346   9.921   4.288  0.2073  0.1228 -0.1809
  613W        W 4813   5.355   8.374   2.143  0.0792 -0.1057  0.2646
  614W        W 4814   2.536   5.475  13.315 -0.0087  0.2446  0.1745
  615W        W 4815   7.986   6.898   4.804 -0.3731 -0.6221 -0.1076
  616W        W 4816   6.297   0.115  13.266 -0.1881  0.1905  0.1330
  617W        W 4817   0.354   3.242   9.746 -0.0170 -0.0431 -0.1809
  618W        W 4818   9.656   1.997   2.850 -0.1386 -0.1253  0.4682
  619W        W 4819   9.863   6.155   0.025 -0.1786 -0.1222  0.2859
  620W        W 4820   7.260   2.789   3.343  0.3876  0.2087 -0.1287
  621W        W 4821  10.038   0.040  12.700 -0.2324 -0.1278  0.0793
  622W        W 4822   4.779   0.690   0.872  0.2123  0.0430  0.1642
  623W        W 4823   0.879   1.835   3.098 -0.1581  0.1892 -0.1852
  624W        W 4824   8.421   7.965  12.157 -0.0895  0.1713 -0.1540
  625W        W 4825   2.361   2.734   0.833 -0.1578 -0.2597  0.0592
  626W        W 4826   5.936   9.162   2.410 -0.0679  0.1484  0.2101
  627W        W 4827   7.816   0.899   2.392 -0.0712 -0.2238  0.1446
  628W        W 4828   8.354   9.637   1.321 -0.0685 -0.0331 -0.1800
  629W        W 4829  10.272   6.066  12.387 -0.1379  0.0871  0.2145
  630W        W 4830   0.607   1.190   0.693  0.0265  0.1559  0.1014
  631W        W 4831   5.719   3.420  12.571  0.2298 -0.1643  0.3048
  632W        W 4832   7.739   1.817   9.273 -0.2284 -0.1645  0.0365
  633W        W 4833   4.912   1.661   1.385 -0.1556  0.1710  0.2192
  634W        W 4834   5.084   4.328  13.247 -0.1194  0.3017  0.2027
  635W        W 4835   5.879   9.894   3.593 -0.2138  0.0833 -0.1999
  636W        W 4836   3.765   2.342  12.111 -0.0581 -0.0389  0.2423
  637W        W 4837   7.659   1.527  11.023  0.0426  0.0423  0.1537
  638W        W 4838   1.527   3.056   2.894  0.2000 -0.2816  0.1514
  639W        W 4839   5.685   4.835  13.438  0.2015  0.2049  0.0550
  640W        W 4840  10.297   6.102   1.597  0.0845  0.0703 -0.1194
  641W        W 4841   0.839   2.420  13.045 -0.1089 -0.1067  0.1517
  642W        W 4842   3.028   6.068  11.191  0.2332  0.0502  0.0689
  643W        W 4843   1.686   4.951  10.015  0.1473  0.2686  0.0039
  644W        W 4844   4.305   0.488  10.170  0.2957  0.4312 -0.0335
  645W        W 4845   7.835   8.574  11.938 -0.0962  0.1099  0.3468
  646W        W 4846   5.430   3.220   5.272 -0.0313  0.0045  0.0275
  647W        W 4847   1.300   2.224   9.946 -0.0873 -0.0774 -0.0232
  648W        W 4848   1.433   6.129  12.819 -0.2148 -0.2792 -0.2872
  649W        W 4849   8.184   7.211  12.931 -0.0049 -0.2312  0.0921
  650W        W 4850   0.427   6.822   2.002 -0.0110 -0.1418  0.1326
  651W        W 4851   6.348   6.619   1.773  0.0301  0.0036  0.0918
  652W        W 4852   0.197   2.654   1.948 -0.0419 -0.0535  0.1358
  653W        W 4853   5.192   4.469  12.078 -0.1141  0.0650 -0.1701
  654W        W 4854   6.174   1.865   1.157  0.2662  0.3638 -0.0734
  655W        W 4855   8.396   5.704   4.555 -0.0043 -0.0060  0.2832
  656W        W 4856   2.492   1.139   4.462 -0.0170 -0.0876  0.0247
  657W        W 4857   2.534   4.496   4.613  0.1161  0.2919 -0.0070
  658W        W 4858   4.666   1.974   9.524  0.1460 -0.2988  0.0812
  659W        W 4859  10.412   4.962  11.602 -0.0885  0.0539 -0.0430
  660W        W 4860   7.171   4.315   9.606 -0.0569 -0.2675  0.0386
  661W        W 4861   0.182   8.364  10.755  0.0542 -0.1549 -0.0865
  662W        W 4862   4.051  10.255  13.061  0.3167 -0.1400 -0.0413
  663W        W 4863   7.115   4.072   0.068  0.0775 -0.2209  0.2554
  664W        W 4864  10.400   8.635  12.687 -0.0899 -0.1788  0.0000
  665W        W 4865   6.452   0.583  11.339  0.3787 -0.1789  0.1014
  666W        W 4866   3.380   5.809   4.207  0.0900  0.1513 -0.0938
  667W        W 4867   5.982   9.156  12.622  0.2119 -0.0460 -0.0977
  668W        W 4868   9.777   3.963   2.073  0.3532  0.2584 -0.0022
  669W        W 4869   3.367   5.849   2.263 -0.0241  0.1130 -0.2066
  670W        W 4870   3.935   2.294   3.024 -0.1724  0.1698  0.1225
  671W        W 4871   0.029   1.544   3.176 -0.2242 -0.1301  0.4211
  672W        W 4872   5.107   0.278  10.718 -0.0784 -0.1594  0.0120
  673W        W 4873   8.687   7.385   9.927 -0.0245  0.0279 -0.0923
  674W        W 4874   2.502   9.100   3.634  0.2443 -0.0319 -0.1099
  675W        W 4875   3.283   5.901  11.927 -0.1844 -0.1075  0.0539
  676W        W 4876   7.643   4.027   9.681 -0.1846  0.0792 -0.4677
  677W        W 4877   4.329   5.479  13.248 -0.3247  0.1009  0.2185
  678W        W 4878   8.157   1.347  10.716  0.1277 -0.2062 -0.2300
  679W        W 4879   2.940   0.311   9.652  0.2106 -0.0644 -0.1772
  680W        W 4880   0.451   8.753  12.557  0.0345 -0.0598  0.0916
  681W        W 4881   8.606   4.806   8.875  0.0213  0.2884  0.2319
  682W        W 4882   3.576   9.085  11.984  0.3046 -0.0538  0.0036
  683W        W 4883   2.165   6.213   4.186  0.0045 -0.0595  0.0251
  684W        W 4884   1.217   3.102  10.093  0.0169  0.1469 -0.2897
  685W        W 4885   0.847   2.941  10.988 -0.1789 -0.2761 -0.0300
  686W        W 4886   9.921   0.795  10.942  0.1592  0.1483 -0.1687
  687W        W 4887   7.704   5.188   1.925  0.2814 -0.0667 -0.0111
  688W        W 4888   4.496   6.700   0.733 -0.1871 -0.2458 -0.1478
  689W        W 4889   7.442   4.731  11.992  0.0506 -0.1007 -0.1526
  690W        W 4890   9.916   8.706   9.738 -0.1024 -0.1263  0.3490
  691W        W 4891  10.009   2.774  12.929 -0.0667 -0.0137 -0.0229
  692W        W 4892   3.936   2.880   3.973  0.0826  0.3484  0.0077
  693W        W 4893   3.632   1.970   9.497  0.1903 -0.0615  0.1456
  694W        W 4894  10.323   7.420  12.643 -0.0913  0.0243 -0.1126
  695W        W 4895   9.179   6.925  11.990 -0.1434  0.0110  0.3898
  696W        W 4896   7.185   4.926   1.195  0.0554  0.2408 -0.1218
  697W        W 4897   6.846   8.544  13.194 -0.3125 -0.0626  0.0982
  698W        W 4898   3.180   5.105  11.339 -0.0261 -0.1092 -0.0285
  699W        W 4899   0.920   0.114  10.152 -0.0013 -0.1209  0.0166
  700W        W 4900  10.197   7.515  12.177 -0.0002  0.1336 -0.0081
  701W        W 4901   5.217   3.452   3.948 -0.5037  0.2596  0.1158
  702W        W 4902   6.672   8.366  11.104 -0.4742  0.0280  0.0970
  703W        W 4903   3.160   4.812   4.223  0.1400  0.1014 -0.1800
  704W        W 4904   2.410   0.888   2.340  0.1780  0.3759 -0.0764
  705W        W 4905   2.796   6.456   1.760  0.3069 -0.2694 -0.4455
  706W        W 4906   9.452   7.988  10.157  0.1641  0.0218 -0.0988
  707W        W 4907   4.302   9.018  13.217  0.0712  0.0303 -0.0641
  708W        W 4908   7.253   7.326  10.238  0.0731  0.3743 -0.0759
  709W        W 4909   5.653   2.272   0.083 -0.1264 -0.0534 -0.0906
  710W        W 4910   2.386   1.957   0.654 -0.3675 -0.2549  0.0400
  711W        W 4911   7.593   4.261   2.525  0.2817  0.1721  0.3146
  712W        W 4912   8.453   3.855   1.603 -0.0899 -0.1744 -0.0880
  713W        W 4913   7.986   6.879   0.773 -0.1171 -0.1358  0.0115
  714W        W 4914  10.464   9.036   4.438  0.2588  0.1037 -0.2638
  715W        W 4915   0.678   3.078  10.172 -0.0550  0.2085  0.0680
  716W        W 4916  10.429   5.647   1.460  0.0609 -0.0811  0.1898
  717W        W 4917   4.771   5.274  13.239 -0.3125  0.3652 -0.1166
  718W        W 4918   1.810  10.102  10.771 -0.3006  0.2660  0.2730
  719W        W 4919   5.965   6.250  12.020  0.1250  0.1596  0.2334
  720W        W 4920   0.168   5.197  10.346  0.0542  0.0185 -0.3433
  721W        W 4921   1.194   9.555   2.813 -0.1500  0.0061  0.0171
  722W        W 4922   0.514   4.179  11.451  0.1446 -0.0653  0.0234
  723W        W 4923   1.280   9.136  12.974  0.0344  0.1317  0.1422
  724W        W 4924   8.299   4.070   9.870 -0.0167  0.1034 -0.0198
  725W        W 4925   1.157   3.035   2.285 -0.0516  0.2401  0.2082
  726W        W 4926   9.467   6.608  11.629  0.1412 -0.1734 -0.1770
  727W        W 4927   9.555   7.901   0.619  0.1701 -0.0323 -0.0758
  728W        W 4928   3.999   4.979   1.296  0.0414  0.2455 -0.1008
  729W        W 4929   7.244   1.404  10.702 -0.3371  0.4592 -0.4332
  730W        W 4930   2.840   3.968  10.105  0.1946 -0.0263 -0.1704
  731W        W 4931   2.496   8.950   0.523  0.3124  0.4031 -0.1016
  732W        W 4932   1.764   2.997   4.674 -0.1519  0.0612  0.1952
  733W        W 4933   5.112   5.691   2.947 -0.1014  0.0172 -0.0913
  734W        W 4934   1.578   5.531  12.084  0.4197 -0.0580 -0.2184
  735W        W 4935   9.199   3.191  11.341  0.3424 -0.1403  0.0478
  736W        W 4936   4.407   3.796   2.349  0.1494 -0.0056 -0.3370
  737W        W 4937   6.846   4.071   2.221 -0.2006  0.4412  0.0456
  738W        W 4938   9.347   0.800   4.829 -0.1058  0.1219  0.3626
  739W        W 4939   2.462   5.325  12.231 -0.0146 -0.1000  0.1455
  740W        W 4940   2.169   1.648  11.848  0.0963  0.1427  0.3990
  741W        W 4941   2.040   4.428   0.685 -0.1268  0.1918  0.0068
  742W        W 4942   5.792   6.454   3.603 -0.2612  0.0970 -0.1380
  743W        W 4943   0.880   6.717   2.233  0.1715  0.0846 -0.1584
  744W        W 4944   8.891   2.388   0.264 -0.0572  0.0080 -0.2344
  745W        W 4945   0.396   1.669   1.317 -0.2729 -0.0033  0.1250
  746W        W 4946   7.861   3.140  10.049  0.0661 -0.0998  0.4187
  747W        W 4947   9.637   0.892   3.567  0.0716  0.0103  0.1259
  748W        W 4948   2.408   7.491   0.913  0.0375  0.1814  0.2916
  749W        W 4949   6.994   7.130  12.684 -0.2818  0.0481 -0.0945
  750W        W 4950   1.044   7.835  10.162 -0.1804  0.1595  0.2793
  751W        W 4951   8.868   1.801   4.631 -0.0903 -0.2170 -0.3053
  752W        W 4952   7.026   1.117   2.240  0.2211  0.1436  0.4134
  753W        W 4953   4.628   8.007  12.964 -0.0574  0.3113  0.1096
  754W        W 4954   6.429   6.133  13.244  0.3120  0.0648  0.0625
  755W        W 4955   7.352   3.830  10.709  0.0469 -0.0454  0.1891
  756W        W 4956   1.911   0.983   3.359  0.0161  0.1580 -0.1787
  757W        W 4957   6.098   6.778  12.734 -0.0159  0.0651 -0.0513
  758W        W 4958   0.824   9.600   0.839 -0.4295  0.0217  0.3054
  759W        W 4959   1.970   3.447   0.705 -0.0213  0.0656 -0.0805
  760W        W 4960   1.973   0.551   2.424 -0.1097  0.2740  0.1443
  761W        W 4961   5.160   2.387   0.066 -0.0476  0.3156 -0.1765
  762W        W 4962   1.795   2.119   1.222  0.0960  0.2269  0.2533
  763W        W 4963   2.197   9.053  11.387 -0.0635  0.2760  0.2078
  764W        W 4964   2.682   6.760   0.151 -0.0074 -0.3412  0.1135
  765W        W 4965   9.350   1.996   4.696 -0.1702 -0.1486  0.0215
  766W        W 4966   6.907   4.097   1.706  0.1272 -0.0387 -0.0012
  767W        W 4967   7.279   8.574   3.939 -0.0665  0.2299  0.0866
  768W        W 4968   6.447   4.769   3.324  0.0616 -0.3533  0.3589
  769W        W 4969   5.133   6.094  10.913  0.0149 -0.0829  0.1339
  770W        W 4970   1.286   0.197  13.234 -0.0940 -0.2315  0.0662
  771W        W 4971   8.547   4.370   0.824  0.2195  0.0819  0.0273
  772W        W 4972   4.835   6.746  12.662  0.2818 -0.2014  0.1077
  773W        W 4973   8.464   3.785   4.098 -0.1815  0.2712 -0.0679
  774W        W 4974   9.953   0.476  12.880  0.0309 -0.0463 -0.1572
  775W        W 4975   1.351   7.410   2.507  0.2451 -0.1030 -0.1196
  776W        W 4976   6.616   6.109  12.479  0.1045  0.1021  0.4077
  777W        W 4977   1.485   2.748   2.484  0.1151 -0.1546  0.0103
  778W        W 4978   2.064   6.077   4.714  0.0396  0.0150 -0.0180
  779W        W 4979   7.447   6.678  13.319  0.4548  0.0520  0.3326
  780W        W 4980   3.599   8.256   0.172  0.3937  0.2990  0.1707
  781W        W 4981   2.696   1.635   1.380  0.0625  0.1138 -0.0443
  782W        W 4982   7.318   1.791  10.208  0.0183  0.1611  0.3512
  783W        W 4983   9.024   4.485   8.969 -0.1161 -0.1580  0.0983
  784W        W 4984   9.594   1.964   1.359 -0.1388 -0.2721 -0.0670
  785W        W 4985   7.436   3.820   1.735 -0.1447  0.3974  0.0955
  786W        W 4986   3.626   6.303   1.557  0.1847  0.3458 -0.0549
  787W        W 4987   2.765   6.119  12.085 -0.0170 -0.0605 -0.1054
  788W        W 4988   4.916   8.393   0.364 -0.0217  0.2611  0.1835
  789W        W 4989   0.895   8.265   1.387 -0.2328  0.0683  0.2124
  790W        W 4990   3.722   6.836  11.486 -0.0552  0.2187 -0.0240
  791W        W 4991   3.392  10.125   3.575  0.0146 -0.0869 -0.0320
  792W        W 4992   1.113   9.453   3.406 -0.0610 -0.0685 -0.0641
  793W        W 4993   1.948   3.231   3.201 -0.0792 -0.2351 -0.0411
  794W        W 4994   1.625   1.652   0.429 -0.0195  0.0204 -0.0079
  795W        W 4995   4.644   1.149   2.426 -0.0236  0.0451 -0.1046
  796W        W 4996  10.423   6.293   0.280 -0.1076  0.0531 -0.0697
  797W        W 4997   5.327   4.211  12.653  0.1339  0.0496 -0.0934
  798W        W 4998   0.551   1.431   3.326 -0.0613  0.2760  0.1444
  799W        W 4999   3.793   6.227  10.635 -0.1145 -0.0817  0.1105
  800W        W 5000   2.174   2.631  13.010 -0.2281  0.2799 -0.1807
  801W        W 5001  10.093   7.530  10.726  0.1703  0.1400  0.0820
  802W        W 5002   1.515   0.965   0.625 -0.1035  0.0631 -0.3859
  803W        W 5003   4.712   5.819  10.212  0.2603  0.2457  0.2387
  804W        W 5004   7.787   0.537   1.080 -0.1810  0.2577  0.1948
  805W        W 5005   5.557   8.164   1.733 -0.0606  0.0039 -0.4600
  806W        W 5006   6.779   4.159  10.045 -0.1196  0.0129  0.0281
  807W        W 5007   7.044   3.537   3.325  0.4799  0.0059  0.2288
  808W        W 5008   1.268   9.793  12.483 -0.1385  0.0859  0.0302
  809W        W 5009   6.154   6.503  11.022 -0.1865  0.1426 -0.0696
  810W        W 5010  10.093   4.126  11.049 -0.0271  0.0334 -0.0005
  811W        W 5011   9.374   0.922   2.256 -0.1583 -0.2020 -0.2650
  812W        W 5012   2.254   5.310   2.354  0.0849 -0.0655 -0.0431
  813W        W 5013   9.024   0.254   0.061  0.0510 -0.2658 -0.0983
  814W        W 5014   6.810   7.097  11.515  0.0659  0.2079  0.0880
  815W        W 5015   7.027   9.954  13.398 -0.1107 -0.4573 -0.3153
  816W        W 5016   8.567   1.757  11.422  0.0034 -0.2124  0.0449
  817W        W 5017   0.404   4.364  12.883  0.0949 -0.0980  0.0710
  818W        W 5018   7.576   5.684   9.070  0.0061  0.4109  0.2885
  819W        W 5019   2.463   6.330  10.406  0.0886  0.1050  0.0113
  820W        W 5020  10.154   3.284  10.716 -0.0604 -0.1599 -0.2740
  821W        W 5021   3.882   3.962   2.227 -0.2676  0.1904 -0.0974
  822W        W 5022  10.098   7.560   1.935  0.2651  0.0104 -0.0124
  823W        W 5023   1.484   8.972   2.411  0.1430  0.0720 -0.0512
  824W        W 5024   1.708   2.899   9.334 -0.0780  0.5344  0.0344
  825W        W 5025   1.146   7.336  11.725 -0.4098  0.1961 -0.1821
  826W        W 5026   1.438   1.552   3.744 -0.3391  0.0178  0.0620
  827W        W 5027   5.893   9.517  11.513 -0.2206 -0.0828 -0.1406
  828W        W 5028   5.971   0.548  10.033 -0.1794 -0.1915 -0.0892
  829W        W 5029   8.255  10.215  10.930  0.1658  0.0011 -0.3382
  830W        W 5030   0.953   9.494  10.158  0.3318 -0.3744  0.1519
  831W        W 5031   6.527   6.584  11.837 -0.3272 -0.1805  0.0465
  832W        W 5032   6.624   2.382  12.947 -0.1122 -0.0403 -0.2806
  833W        W 5033   2.395   9.791   1.916 -0.1605  0.0336  0.1521
  834W        W 5034   3.292   8.522   0.434  0.2485  0.1205  0.0761
  835W        W 5035   5.769   5.137  10.317 -0.0499  0.0748 -0.1750
  836W        W 5036   1.279   6.344  11.613 -0.0259  0.4210 -0.1660
  837W        W 5037   0.043   1.660  10.855  0.2042 -0.1410 -0.0631
  838W        W 5038   1.203   0.542   9.892  0.2169  0.1387 -0.1446
  839W        W 5039   1.371   1.296  11.693 -0.0527 -0.2266  0.1390
  840W        W 5040   1.717   7.395   1.630 -0.0497  0.2060 -0.1828
  841W        W 5041   2.493   0.145  12.194 -0.0977  0.1668  0.0397
  842W        W 5042   3.384   4.235   2.326 -0.0785  0.1843  0.0079
  843W        W 5043   9.920   4.915  12.112 -0.1652  0.0559  0.0676
  844W        W 5044   7.072   6.758  10.611  0.2216  0.2040 -0.2045
  845W        W 5045  10.460   0.366  11.687 -0.1827 -0.2372 -0.1049
  846W        W 5046   5.761   2.827  10.662 -0.0840  0.2540  0.1588
  847W        W 5047   4.534   5.095   1.330  0.1046  0.3007  0.1245
  848W        W 5048   7.216   7.988   2.581 -0.1385 -0.0282 -0.1342
  849W        W 5049   8.020   4.181  11.633 -0.0218  0.2345 -0.1329
  850W        W 5050  10.291   0.645  10.658 -0.2709  0.2203 -0.1529
  851W        W 5051   7.573   1.824   5.279 -0.3105 -0.5967 -0.0431
  852W        W 5052   8.287   5.699  12.731 -0.1421 -0.0459 -0.1779
  853W        W 5053   0.683   3.465  11.005  0.2073 -0.1692  0.2358
  854W        W 5054   8.965   9.280   2.052  0.2906 -0.1629 -0.0045
  855W        W 5055   7.693   4.707   0.393  0.0319 -0.2097 -0.0900
  856W        W 5056   4.237   0.354   2.182 -0.2095 -0.1311  0.3478
  857W        W 5057   5.221   0.711  12.762 -0.1914  0.0799  0.0142
  858W        W 5058   7.971   7.166   2.467 -0.0253  0.1077 -0.1455
  859W        W 5059   9.318   1.069   8.797 -0.1152 -0.0387  0.1506
  860W        W 5060   9.765   1.379   0.922  0.1913 -0.4470 -0.6241
  861W        W 5061   0.647   2.370   1.252  0.2666  0.1825  0.0234
  862W        W 5062   5.449   0.281   2.033 -0.0658 -0.1252  0.0151
  863W        W 5063   1.750   7.597  12.332 -0.2601 -0.1118  0.3520
  864W        W 5064   2.749   6.469   1.263 -0.4129  0.1319  0.1595
  865W        W 5065   7.456   4.538  12.519 -0.1964  0.0649  0.0010
  866W        W 5066   8.041   3.095   2.157  0.0733 -0.0453  0.0382
  867W        W 5067   9.055   5.188  11.714  0.3822  0.0230  0.1272
  868W        W 5068   8.769   6.878   9.687 -0.2707  0.3017  0.0887
  869W        W 5069   9.165   8.972  12.563  0.2472  0.1025 -0.1661
  870W        W 5070   2.737   7.045   1.068 -0.0663 -0.1755  0.1023
  871W        W 5071   1.117   9.780  11.355 -0.1036  0.1031  0.3899
  872W        W 5072   6.248   4.242  12.405 -0.0813 -0.0848 -0.0458
  873W        W 5073   1.053   8.958  13.426  0.0146  0.1060 -0.2465
  874W        W 5074   2.339   4.684   3.023 -0.1261  0.2368 -0.2486
  875W        W 5075   7.375   0.398   0.836 -0.1014  0.0960 -0.3521
  876W        W 5076   6.945   7.613  13.272  0.0193 -0.1325  0.2221
  877W        W 5077   1.443   0.951   9.664  0.0636 -0.1406 -0.0828
  878W        W 5078   0.864   7.076   3.983  0.1769  0.0769 -0.1199
  879W        W 5079   2.086   0.335   3.915  0.3162  0.2772  0.5111
  880W        W 5080   2.116   5.826  13.449 -0.1148  0.2810 -0.0100
  881W        W 5081   3.498   2.117  11.324  0.1756  0.0414  0.2073
  882W        W 5082   2.979   2.772   9.340 -0.0732  0.1484  0.2704
  883W        W 5083   0.340   8.444   4.846 -0.3285 -0.0553  0.0466
  884W        W 5084   0.183   1.708  13.423  0.1345  0.1083 -0.2057
  885W        W 5085  10.066   9.067   3.122  0.0898  0.0306 -0.0108
  886W        W 5086   5.144   1.205   2.997  0.1634  0.1478  0.0304
  887W        W 5087   1.937   0.399   2.865 -0.2914 -0.2619  0.0630
  888W        W 5088   4.277   5.449   9.477 -0.0839 -0.1668 -0.1135
  889W        W 5089   5.599  10.122   0.407 -0.2516 -0.2576  0.0268
  890W        W 5090   7.579   4.536  10.321 -0.0999 -0.2721 -0.1858
  891W        W 5091   0.709   3.691  11.526  0.1715 -0.3024 -0.0946
  892W        W 5092   1.439   1.816  11.520 -0.1104 -0.0706 -0.2421
  893W        W 5093   5.366   8.173  11.014  0.0848  0.1434  0.2917
  894W        W 5094   8.775  10.155  10.918 -0.0842 -0.1205 -0.0066
  895W        W 5095   6.869   6.592   3.121 -0.1346 -0.0097  0.1920
  896W        W 5096   0.197   5.421   3.793 -0.0334  0.0272  0.2316
  897W        W 5097   9.288   2.723   0.608 -0.0759  0.1202 -0.3481
  898W        W 5098   4.789   7.700  12.526  0.3027  0.2539 -0.6258
  899W        W 5099   4.449   5.601  11.701 -0.0328  0.2038  0.0931
  900W        W 5100   6.893   8.224  10.122  0.2919 -0.1304 -0.1102
  901W        W 5101   2.895   5.162  12.798  0.2655  0.1376  0.3054
  902W        W 5102   1.648  10.336  13.258  0.0411  0.1468  0.0234
  903W        W 5103  10.171   2.962   1.852 -0.0908  0.2829 -0.2303
  904W        W 5104  10.333   7.263   2.264  0.2089  0.0460 -0.0107
  905W        W 5105   0.620   0.080   2.350  0.0746 -0.0134 -0.3799
  906W        W 5106   5.879   4.546   9.702  0.1216  0.0648  0.2041
  907W        W 5107   7.155   0.235  12.537 -0.2243  0.3818 -0.0697
  908W        W 5108   1.380   6.323  10.096 -0.2695  0.1330  0.0660
  909W        W 5109   7.487  10.085   1.722 -0.0213 -0.1204 -0.0187
  910W        W 5110   2.879   3.277   9.611 -0.1983 -0.0573 -0.2665
  911W        W 5111   1.129   5.246  12.414 -0.2213 -0.2993 -0.1571
  912W        W 5112   6.856   7.452   8.941 -0.1443  0.2037  0.0345
  913W        W 5113   6.512   4.866  11.341  0.0551  0.0208  0.2594
  914W        W 5114   2.595   0.641  10.877 -0.0605  0.2068  0.4006
  915W        W 5115   4.633   2.797   0.776  0.1787 -0.3736 -0.0772
  916W        W 5116   1.339   6.672   1.918  0.0899  0.0270  0.0895
  917W        W 5117   6.314   4.193   4.211  0.3113 -0.0390  0.0643
  918W        W 5118   1.834   9.638  10.502  0.1157  0.2642  0.0381
  919W        W 5119   3.518   5.939  10.971 -0.1301 -0.0107  0.2947
  920W        W 5120   7.411   0.108   9.363 -0.0877  0.0112 -0.0881
  921W        W 5121   2.278   2.112   3.715  0.1245 -0.0816 -0.0022
  922W        W 5122   4.993   9.892  12.681 -0.0209  0.3197  0.0632
  923W        W 5123   5.782   6.403  11.435  0.0573  0.1724  0.0214
  924W        W 5124   1.719   6.315  12.044  0.2907 -0.1053 -0.0855
  925W        W 5125   8.965   0.986  11.126 -0.3377  0.3075 -0.0349
  926W        W 5126   3.689   4.868  12.734 -0.2093  0.2034  0.0242
  927W        W 5127   4.040   0.623  10.559 -0.0087  0.0570  0.1727
  928W        W 5128   3.531   5.391   1.075 -0.1198  0.0762  0.2010
  929W        W 5129   8.271   0.781   9.593  0.0555  0.1417  0.1806
  930W        W 5130   6.184   6.237   2.781 -0.0103 -0.2836 -0.1211
  931W        W 5131   5.067   1.366  10.655  0.4211 -0.1990 -0.2012
  932W        W 5132   0.240   4.415   1.955  0.0414 -0.1341  0.1234
  933W        W 5133   6.324   7.577   1.140  0.4004 -0.2051  0.1325
  934W        W 5134   7.186   7.093   3.145  0.1079  0.1317  0.0545
  935W        W 5135   2.869   6.374  13.292  0.0293 -0.3045 -0.0731
  936W        W 5136   7.268   3.354   1.686  0.1331 -0.2105 -0.1188
  937W        W 5137   9.685   8.499  11.165  0.1147  0.3705  0.2053
  938W        W 5138   3.034   7.494  13.147  0.2967 -0.2178  0.0313
  939W        W 5139   7.158   7.609   2.273 -0.0539 -0.0430 -0.1367
  940W        W 5140   8.230   6.676   2.308 -0.0705 -0.0692  0.0939
  941W        W 5141   2.709   5.270  11.107 -0.2130  0.1553 -0.2293
  942W        W 5142   2.758   5.264  11.671  0.0083  0.0863  0.2548
  943W        W 5143   3.313   8.314   9.562  0.1557  0.2378 -0.1127
  944W        W 5144   6.870   4.148   1.028 -0.0927 -0.1972 -0.0414
  945W        W 5145   8.893   9.775  13.025  0.1997 -0.1956 -0.1642
  946W        W 5146   2.059   2.791   2.204 -0.0924 -0.0295 -0.1630
  947W        W 5147  10.065   1.968   1.503 -0.1161 -0.2038 -0.0881
  948W        W 5148   0.299   1.511   4.980  0.0216  0.0708  0.3257
  949W        W 5149   7.004   6.883   2.710  0.0796  0.1674  0.1209
  950W        W 5150   8.365   8.529  11.528  0.2485  0.1520 -0.0291
  951W        W 5151   6.076   6.289   1.282  0.1052  0.1528  0.0277
  952W        W 5152   7.898   9.352  10.142 -0.1185  0.2139  0.1077
  953W        W 5153   0.424   0.677  11.782  0.2260 -0.0645 -0.2804
  954W        W 5154   6.037   3.152  13.297  0.0746 -0.2713 -0.1541
  955W        W 5155   6.934   6.784  13.056  0.0624 -0.0683  0.0143
  956W        W 5156   5.684   5.480   0.243  0.1882 -0.2314 -0.2219
  957W        W 5157   4.363   3.097   1.082 -0.1092  0.0823 -0.0372
  958W        W 5158   3.822   1.616   3.455  0.3112 -0.0574 -0.0404
  959W        W 5159   0.702  10.062   8.369  0.0037  0.0536 -0.3220
  960W        W 5160   0.818   8.866  12.957 -0.3559 -0.0011  0.0533
  961W        W 5161   0.020   6.798   2.450  0.0065 -0.1927 -0.0345
  962W        W 5162   9.330   0.164   4.433 -0.1169 -0.2713  0.0822
  963W        W 5163   2.629   3.899   4.721 -0.0153 -0.2256  0.0655
  964W        W 5164   8.811   5.752  12.438  0.1060  0.2778 -0.1987
  965W        W 5165   5.271   0.737   3.097  0.1947 -0.1964 -0.3411
  966W        W 5166   2.187   5.181   3.068 -0.3650  0.0175 -0.1961
  967W        W 5167   2.148   0.499   3.431  0.2769 -0.0082  0.1041
  968W        W 5168   4.350   5.669   3.494  0.1121  0.1871  0.2869
  969W        W 5169   8.333   5.436  13.144 -0.2124 -0.1036  0.0007
  970W        W 5170   0.824   7.127  10.946  0.0211  0.0058  0.3652
  971W        W 5171   1.447   7.147  12.604 -0.1217  0.4952  0.1575
  972W        W 5172   4.471   8.734  10.498 -0.2665 -0.0434 -0.1065
  973W        W 5173   4.788   9.060   3.310  0.0095  0.0329  0.0366
  974W        W 5174   7.794   9.786  11.680 -0.1050  0.0044  0.1084
  975W        W 5175   4.522   0.808   1.609  0.1317 -0.0382 -0.1857
  976W        W 5176   8.554   2.963   9.073  0.1286  0.0354 -0.0751
  977W        W 5177   3.756   7.550  10.777  0.2543 -0.0755  0.1671
  978W        W 5178   2.457   0.366  11.313  0.0089 -0.1774 -0.2011
  979W        W 5179   8.693   7.262  11.299  0.2399 -0.1395  0.5041
  980W        W 5180   2.814   1.106  13.099  0.2196  0.1194  0.0409
  981W        W 5181  10.052   3.773   3.810 -0.0300 -0.1205  0.3847
  982W        W 5182   5.960   2.690  13.345 -0.0489  0.0384 -0.3220
  983W        W 5183   1.672   9.817  11.254 -0.1510  0.2231 -0.1145
  984W        W 5184   8.416   8.703   3.207 -0.0083 -0.2641 -0.0944
  985W        W 5185   0.764   6.067  12.321  0.2572 -0.1094  0.4043
  986W        W 5186  10.054   3.786   9.864  0.1002 -0.0546 -0.2497
  987W        W 5187   0.519   9.080   1.546 -0.1634 -0.0992 -0.2712
  988W        W 5188   4.889   5.123   1.684  0.0014 -0.2980  0.1760
  989W        W 5189   2.077   8.084  10.069 -0.0348 -0.0340  0.1250
  990W        W 5190   7.183   2.839   9.804 -0.2227 -0.0065 -0.2025
  991W        W 5191   2.203   3.654   3.169  0.1926 -0.4295  0.4702
  992W        W 5192   6.143   8.794   1.880  0.1886  0.1001  0.1775
  993W        W 5193   4.064   5.881   2.952 -0.2848  0.0203 -0.0928
  994W        W 5194   8.625   3.116  12.286 -0.0025  0.1132 -0.0835
  995W        W 5195   4.624   6.869   9.509  0.0816 -0.2229  0.1330
  996W        W 5196   6.634   7.212   9.481 -0.0792 -0.1537 -0.0152
  997W        W 5197   3.836   4.595  12.317  0.1083  0.3858  0.0174
  998W        W 5198   2.234   9.513   9.843 -0.1968 -0.2781  0.0199
  999W        W 5199   3.946  10.355   4.182 -0.1737  0.1745  0.1051
 1000W        W 5200   9.155   2.319   0.955 -0.1106 -0.1223  0.0526
 1001W        W 5201   2.360   5.615   0.611  0.2848  0.0623  0.0427
 1002W        W 5202   5.025   6.083   9.404  0.4322  0.3102  0.0052
 1003W        W 5203   0.990   8.102  10.943  0.2693 -0.0062  0.0124
 1004W        W 5204   1.908   1.117  11.937 -0.2274  0.0617 -0.0044
 1005W        W 5205   2.157   6.711  10.197 -0.0721  0.2163 -0.0642
 1006W        W 5206   4.833   0.172   0.263 -0.0788  0.0573 -0.1832
 1007W        W 5207   0.676   3.793   9.603 -0.2165  0.3012 -0.1829
 1008W        W 5208   8.944   9.080  10.142 -0.1628 -0.2219 -0.1045
 1009W        W 5209   4.403   9.989   9.836 -0.2966  0.0861 -0.1558
 1010W        W 5210  10.142   4.576  10.964  0.2545 -0.0875 -0.0455
 1011W        W 5211   1.102   2.966  10.546 -0.2615 -0.0084  0.1868
 1012W        W 5212   5.964   3.207  11.792 -0.0578  0.1338  0.2348
 1013W        W 5213   9.016   0.155   2.684  0.0655  0.1770  0.1380
 1014W        W 5214   8.740   9.288   4.476  0.0831 -0.3978 -0.2822
 1015W        W 5215   9.109   6.590   0.172  0.2332 -0.0873 -0.2055
 1016W        W 5216   2.193   1.594  11.320 -0.1863 -0.0298 -0.0477
 1017W        W 5217   8.162   8.745   1.463  0.0133  0.2794  0.0251
 1018W        W 5218   2.142   6.450  11.790 -0.0097  0.0303  0.1038
 1019W        W 5219   9.255   5.574   9.078 -0.0120  0.2338 -0.1752
 1020W        W 5220   4.500   4.718   9.972  0.0399 -0.2080  0.0692
 1021W        W 5221  10.187   5.243   1.670 -0.0430  0.0865 -0.3627
 1022W        W 5222   5.183   6.057  13.409  0.2096 -0.1735  0.1251
 1023W        W 5223   7.294   3.665   9.438  0.0058  0.3336  0.0654
 1024W        W 5224   7.387   8.958  10.604  0.3254 -0.1431 -0.2336
 1025W        W 5225   4.183   4.110   0.842  0.0975 -0.0691 -0.1638
 1026W        W 5226   9.163   3.263  10.485 -0.1832 -0.4093  0.1978
 1027W        W 5227   2.399   3.228   0.903 -0.1008  0.4452 -0.0024
 1028W        W 5228   9.934   4.630   9.154  0.2487 -0.2861 -0.2652
 1029W        W 5229   2.813   5.961   8.568  0.0980  0.2739  0.0390
 1030W        W 5230   8.373   2.196  12.788 -0.4063  0.4500 -0.1267
 1031W        W 5231   3.111   5.329   4.380 -0.1548  0.3027 -0.1528
 1032W        W 5232   4.108   8.421   0.881  0.2549  0.0363 -0.0306
 1033W        W 5233   1.462   9.144   3.472  0.1949  0.0123  0.4111
 1034W        W 5234   9.431   2.736  12.682  0.3820 -0.1427  0.2365
 1035W        W 5235   1.981   5.767   2.302  0.0837  0.0052 -0.0101
 1036W        W 5236   7.563   6.154   2.210  0.2079 -0.1083  0.2992
 1037W        W 5237   6.291   2.964   4.028 -0.1929 -0.3489  0.0440
 1038W        W 5238   7.153   9.235  10.983  0.3771 -0.0569 -0.1104
 1039W        W 5239  10.119   8.706   4.307 -0.2904  0.1611  0.1385
 1040W        W 5240   2.381   1.307   2.050  0.0379  0.1245 -0.0752
 1041W        W 5241   6.563   7.193   1.955 -0.1262 -0.1296 -0.0656
 1042W        W 5242   2.858   2.404   9.874 -0.3795  0.2470 -0.3008
 1043W        W 5243   6.123   7.866   0.633  0.5721 -0.2189 -0.1001
 1044W        W 5244   8.744   2.635   3.450  0.0935  0.3069 -0.0252
 1045W        W 5245   2.712   3.937  12.047  0.3002 -0.1098 -0.3050
 1046W        W 5246   4.218   7.782  13.287 -0.2844 -0.0407  0.1008
 1047W        W 5247  10.415   4.332   1.096 -0.5099 -0.0274  0.0499
 1048W        W 5248   1.797   8.714   2.018 -0.1535  0.2895 -0.0474
 1049W        W 5249   0.924   3.644  13.253 -0.0122 -0.1506  0.1023
 1050W        W 5250   4.003   4.256   4.054 -0.1840 -0.4321 -0.1907
 1051W        W 5251   6.191   7.884  12.272 -0.2536  0.0794  0.0857
 1052W        W 5252   3.963   3.916   3.252  0.2898  0.0847  0.0960
 1053W        W 5253   9.299  10.129   2.335 -0.1520 -0.0029  0.0307
 1054W        W 5254   0.657   8.557   3.624 -0.1720  0.1756 -0.0225
 1055W        W 5255   8.344   2.863  10.105 -0.0050 -0.0589  0.0589
 1056W        W 5256   0.242   2.958   4.449 -0.0254 -0.1413  0.2061
 1057W        W 5257   2.602   4.734   1.444  0.1056 -0.1039 -0.2221
 1058W        W 5258   0.797   6.139  11.021  0.0189 -0.0392  0.2021
 1059W        W 5259   7.419   2.689   0.015  0.0788 -0.1297 -0.1757
 1060W        W 5260   0.247   6.119  12.642 -0.3353 -0.4393  0.1670
 1061W        W 5261   9.772   3.156  11.390  0.0933  0.1360 -0.1869
 1062W        W 5262   2.440   4.215   3.233  0.0986 -0.0784 -0.1189
 1063W        W 5263   5.930   3.798  12.073  0.1113  0.2452 -0.0423
 1064W        W 5264   4.346   4.822   8.886 -0.1559  0.0715  0.0760
 1065W        W 5265   0.475   7.969  11.905  0.1957 -0.0553  0.0063
 1066W        W 5266   5.666   3.588  13.388 -0.1898  0.3426 -0.2182
 1067W        W 5267   5.074   1.614   3.421 -0.1105 -0.1417 -0.0616
 1068W        W 5268   0.905   3.326   9.771  0.2462  0.0720 -0.1952
 1069W        W 5269  10.079   7.045   1.865  0.1424 -0.1450  0.0661
 1070W        W 5270   8.570   1.420   0.018 -0.0916 -0.3694 -0.1461
 1071W        W 5271   0.466   4.925   3.771  0.0335  0.0430  0.2920
 1072W        W 5272   8.450   4.888   2.047  0.0101  0.1871 -0.0033
 1073W        W 5273   4.943   3.413   2.436  0.0550  0.2382  0.1278
 1074W        W 5274   9.465   8.859   2.007 -0.1947 -0.0456 -0.0851
 1075W        W 5275   7.224   4.149  10.344  0.0870 -0.0555  0.2963
 1076W        W 5276   0.250   6.366   2.473  0.1008 -0.0787 -0.2749
 1077W        W 5277   4.407  10.255   3.831  0.1232  0.0113  0.0491
 1078W        W 5278   2.986   1.153   0.129  0.2265 -0.5017 -0.1113
 1079W        W 5279   8.380   5.920   0.469  0.1020 -0.3709  0.0029
 1080W        W 5280   9.999  10.114  12.342  0.0313 -0.0769  0.0952
 1081W        W 5281   0.562   9.387   9.806  0.0900 -0.2344  0.3219
 1082W        W 5282   7.863   3.241  11.468 -0.1268  0.0600  0.2834
 1083W        W 5283   7.617   2.692  11.220 -0.2400 -0.2670  0.1304
 1084W        W 5284   1.325   4.472  11.931 -0.1868 -0.0231 -0.3187
 1085W        W 5285   3.459   9.502   2.791 -0.1462 -0.4029  0.0219
 1086W        W 5286   6.110   3.432   2.108  0.0517  0.2435 -0.2630
 1087W        W 5287   3.911   0.300  11.407  0.0676 -0.1081  0.1190
 1088W        W 5288   5.317   9.827  10.812 -0.0511 -0.2139  0.0535
 1089W        W 5289   9.718   5.848   1.743 -0.1278 -0.2773  0.2867
 1090W        W 5290   5.070   1.760   9.648 -0.4165  0.1207  0.1389
 1091W        W 5291   0.573   2.647   2.508  0.0916 -0.0888 -0.1926
 1092W        W 5292   7.837   3.823   3.990  0.2869 -0.0222 -0.3077
 1093W        W 5293   5.228   8.013   2.498 -0.2679  0.1408 -0.0393
 1094W        W 5294   8.742   3.526  11.599 -0.0434 -0.0413  0.0421
 1095W        W 5295   2.981   2.493  12.503 -0.0224  0.1078 -0.1479
 1096W        W 5296   3.799   6.074  13.180 -0.0979 -0.1334 -0.1701
 1097W        W 5297   0.256   5.277   0.566  0.1469  0.3337 -0.1522
 1098W        W 5298   0.238   8.152   2.052  0.2341 -0.1596  0.1575
 1099W        W 5299   3.813   1.111  10.035  0.0899 -0.0153  0.1318
 1100W        W 5300  10.002   2.117   1.976  0.5630  0.2540 -0.0681
 1101W        W 5301   2.852   3.770  10.617 -0.0113 -0.0395  0.0775
 1102W        W 5302   4.833   7.725   1.141 -0.0148 -0.1313 -0.0582
 1103W        W 5303   8.082   7.770   1.236  0.1506  0.2226  0.3255
 1104W        W 5304   1.729   4.130   9.178 -0.1292 -0.1359  0.0490
 1105W        W 5305   2.312   0.748  13.194 -0.0531  0.0664 -0.2772
 1106W        W 5306   5.490   4.158   2.071 -0.4284 -0.3068  0.1959
 1107W        W 5307   3.649   5.630   2.663  0.0560 -0.1854  0.2205
 1108W        W 5308   1.756   7.650  13.186 -0.1135 -0.1011  0.1479
 1109W        W 5309   9.820   8.068   3.826  0.0011 -0.0957  0.1955
 1110W        W 5310   3.044   4.756   4.982 -0.1611  0.0821 -0.0295
 1111W        W 5311   8.342   2.499   1.097  0.2938 -0.3847  0.0355
 1112W        W 5312   3.594   6.432   2.381 -0.1799 -0.0929  0.2787
 1113W        W 5313   8.077   5.698   8.883 -0.2529  0.0324 -0.2642
 1114W        W 5314   3.353   2.792  10.607  0.1077  0.0365 -0.1763
 1115W        W 5315   2.474   4.135  10.740 -0.1525  0.2413 -0.0454
 1116W        W 5316   7.811   7.606   0.239  0.1025 -0.2096  0.1836
 1117W        W 5317   3.499   8.695   2.250  0.1717 -0.1659  0.1389
 1118W        W 5318   2.834   1.002  12.439 -0.2199  0.2225 -0.1007
 1119W        W 5319   9.775   1.495   1.403  0.1113  0.0577 -0.3053
 1120W        W 5320   5.009   0.327   4.000  0.2812 -0.2027  0.0931
 1121W        W 5321   5.496   7.197   0.332 -0.1261 -0.1272  0.1619
 1122W        W 5322   1.207   4.030   2.181  0.0039  0.2038 -0.1358
 1123W        W 5323   0.274   1.626   1.889 -0.1293  0.2247  0.0227
 1124W        W 5324   9.999   0.527   8.618  0.3176  0.0220 -0.2406
 1125W        W 5325   1.476   9.624   0.719  0.1539 -0.1123  0.1057
 1126W        W 5326   5.420   7.604   3.410 -0.1279  0.1120 -0.0493
 1127W        W 5327   5.432   6.854   1.941  0.0682 -0.0349  0.1513
 1128W        W 5328   2.499   3.251  10.528 -0.1511 -0.4925  0.0383
 1129W        W 5329   1.266   7.400   0.147  0.1281 -0.0396  0.4790
 1130W        W 5330   2.963   9.342  10.413  0.1610  0.0927  0.0782
 1131W        W 5331   9.275   4.539  10.455 -0.1322  0.2271 -0.1430
 1132W        W 5332  10.048   4.377  13.396  0.1877 -0.0337  0.5445
 1133W        W 5333   7.973   2.001   4.351 -0.0784  0.3564  0.0424
 1134W        W 5334   2.319   7.729  12.771  0.1035 -0.3075 -0.0680
 1135W        W 5335   9.067   4.143   9.356 -0.3857 -0.0490 -0.0071
 1136W        W 5336   0.911   4.586   0.852 -0.0532  0.1035  0.3728
 1137W        W 5337   7.044   3.631  10.271 -0.1270 -0.2792 -0.0124
 1138W        W 5338   0.514   6.404  10.468 -0.1387 -0.0853 -0.1063
 1139W        W 5339   0.593   3.955  11.010 -0.2557 -0.0076 -0.0995
 1140W        W 5340   8.518   0.068  11.160  0.4126  0.0626 -0.0898
 1141W        W 5341   8.132   0.850  11.111 -0.0400  0.1168 -0.2699
 1142W        W 5342   8.795   4.680  10.554 -0.4138 -0.3103 -0.5877
 1143W        W 5343   6.819   6.876  12.128 -0.4826 -0.1360 -0.1226
 1144W        W 5344   1.291   4.705  10.032 -0.2838  0.0742  0.2451
 1145W        W 5345   9.745   4.540  13.041 -0.3635 -0.0190 -0.2550
 1146W        W 5346   0.219  10.300  11.975 -0.0599  0.0527 -0.3603
 1147W        W 5347   1.866   4.076   2.640 -0.3042  0.1452 -0.1033
 1148W        W 5348   2.427   0.366  10.492  0.0205  0.0640  0.1137
 1149W        W 5349   0.493   7.174  10.621 -0.0071 -0.1855  0.0216
 1150W        W 5350   0.068   5.337   2.002  0.1906 -0.1741 -0.1952
 1151W        W 5351   0.647   0.396   4.531 -0.2023 -0.2548  0.0889
 1152W        W 5352   3.247   2.360   2.817  0.1824 -0.0813 -0.1637
 1153W        W 5353   9.166   9.644   2.852  0.0186  0.2020  0.0091
 1154W        W 5354   1.279   5.011  12.827  0.2925 -0.0139  0.4890
 1155W        W 5355   6.599   2.731  11.293 -0.1074 -0.0276  0.0150
 1156W        W 5356   0.201   6.601   2.895 -0.1846  0.1169 -0.1599
 1157W        W 5357   3.302  10.421   0.833  0.2815  0.1592 -0.1536
 1158W        W 5358   6.982   7.121   9.839 -0.0086 -0.0815  0.2845
 1159W        W 5359   9.874   3.586  12.713  0.2944  0.2890  0.2153
 1160W        W 5360   7.471   1.495   2.918 -0.0768  0.4488 -0.1682
 1161W        W 5361   2.137   3.841  11.765  0.0197  0.0784 -0.1441
 1162W        W 5362   9.475   2.109   4.013 -0.1725  0.1358 -0.2758
 1163W        W 5363   6.816   4.027  10.566  0.1642 -0.0994  0.1151
 1164W        W 5364  10.231   8.810  10.134 -0.3961 -0.0307 -0.0274
 1165W        W 5365   9.805   2.339   9.852  0.3413  0.0317 -0.0627
 1166W        W 5366   7.854   8.131  10.181  0.0649 -0.0354 -0.0619
 1167W        W 5367   1.687   3.361  13.164  0.1885  0.0720 -0.2667
 1168W        W 5368   0.537   8.127   0.156  0.1112  0.1141  0.1046
 1169W        W 5369   0.249  10.349   1.294 -0.1789  0.0849 -0.0021
 1170W        W 5370   8.720   4.332   1.344 -0.2880 -0.0764 -0.1769
 1171W        W 5371   4.299   7.491   0.922  0.1488  0.0681  0.2048
 1172W        W 5372  10.074   1.615   1.851  0.0005  0.0924 -0.0714
 1173W        W 5373   0.904  10.216  10.988 -0.2502  0.1112 -0.0229
 1174W        W 5374   1.506   3.619   3.820 -0.1378  0.0862 -0.1777
 1175W        W 5375   3.883   3.680   9.644  0.0200  0.0798 -0.0349
 1176W        W 5376   8.283   3.337   1.486 -0.0425  0.1013 -0.5472
 1177W        W 5377   7.490   2.268   9.250 -0.2582  0.0939  0.1752
 1178W        W 5378   7.748   6.610  11.912  0.3739 -0.3199  0.0060
 1179W        W 5379   7.380   8.177  13.246  0.0438  0.1167  0.1493
 1180W        W 5380   3.926   6.696   1.852  0.1658  0.2179  0.2841
 1181W        W 5381   3.667   1.218   3.217  0.1555  0.2677  0.1635
 1182W        W 5382   0.614   5.237   8.890 -0.2756  0.3694 -0.0795
 1183W        W 5383   0.719   6.337  12.872  0.1373  0.0084  0.1556
 1184W        W 5384   5.958   2.317   4.286  0.0442  0.1280 -0.1667
 1185W        W 5385   8.201   9.327  12.664  0.0220 -0.2189  0.1214
 1186W        W 5386   2.768   7.840  11.368 -0.2112 -0.0014  0.2079
 1187W        W 5387   0.363   6.501   0.040  0.3157  0.0506 -0.3517
 1188W        W 5388   3.156   2.965   8.856  0.0514 -0.0565 -0.1027
 1189W        W 5389   0.808   7.045   8.948  0.1717 -0.1501  0.2327
 1190W        W 5390   8.472   4.267   4.159  0.1475 -0.1970 -0.0019
 1191W        W 5391   0.229   6.755  10.674 -0.2282 -0.1796  0.2444
 1192W        W 5392   0.539   8.639   1.260 -0.3077 -0.1661 -0.0967
 1193W        W 5393   3.494   9.749  12.627 -0.0251 -0.0390 -0.0546
 1194W        W 5394  10.313   4.387   1.727  0.1751 -0.1605  0.5004
 1195W        W 5395   3.231   8.868   4.080  0.0621 -0.1169 -0.1284
 1196W        W 5396   8.941   3.070   0.563 -0.3679 -0.3571 -0.0774
 1197W        W 5397   4.177   1.545   3.832  0.1031 -0.1445 -0.2282
 1198W        W 5398   3.896   8.168   2.592 -0.0247  0.1375 -0.1039
 1199W        W 5399   5.173   3.830   1.944 -0.2085  0.0422  0.1691
 1200W        W 5400   8.677   0.954   2.414 -0.0376 -0.0979  0.2445
 1201W        W 5401   0.842   5.210   1.338 -0.2970 -0.1919 -0.2145
 1202W        W 5402   1.483   6.942   1.507  0.0942 -0.6620  0.3336
 1203W        W 5403   4.602   5.644   3.926  0.0944  0.4974  0.1561
 1204W        W 5404   6.183   6.524   2.241  0.0313  0.4231 -0.0849
 1205W        W 5405   2.493   9.966   0.489  0.2636 -0.0649 -0.0951
 1206W        W 5406   6.483   5.460   2.739 -0.2862  0.2977 -0.0906
 1207W        W 5407   7.342   0.405   0.023 -0.1191  0.0347  0.1441
 1208W        W 5408   0.778   1.866   1.576  0.3154  0.1343  0.1006
 1209W        W 5409   6.542   2.916   1.803  0.2706 -0.0698  0.1693
 1210W        W 5410  10.413   1.798  12.162 -0.2694 -0.1213 -0.1990
 1211W        W 5411   4.661   5.749  10.767  0.1378  0.1402 -0.4748
 1212W        W 5412   1.037   1.454   1.617 -0.2212 -0.1430  0.0744
 1213W        W 5413   2.602   2.860  11.761  0.1386  0.2495  0.1764
 1214W        W 5414   2.834   3.260   0.545  0.1674 -0.4514  0.0810
 1215W        W 5415   4.193   1.343   3.338  0.1815  0.1137 -0.0691
 1216W        W 5416   8.079   8.347   3.508 -0.2874  0.1892 -0.0413
 1217W        W 5417   1.485   5.621   2.079  0.2437  0.1542  0.0252
 1218W        W 5418   8.370   3.119  11.766  0.1028 -0.0393  0.1234
 1219W        W 5419   0.119   9.060   2.987  0.0584 -0.2298 -0.3031
 1220W        W 5420   5.423   5.819  11.366 -0.1476 -0.1722  0.0618
 1221W        W 5421   0.759   2.405  11.770  0.0694 -0.0100  0.1949
 1222W        W 5422   6.483   0.220   3.207 -0.1045 -0.1229  0.1297
 1223W        W 5423   9.882   0.381   2.317  0.1635  0.0080 -0.1768
 1224W        W 5424   7.222   6.595   0.302 -0.1637  0.0571  0.0741
 1225W        W 5425   0.125  10.432   0.362 -0.2014  0.0631 -0.3603
 1226W        W 5426   0.304  10.039   3.179 -0.3759 -0.1954  0.1326
 1227W        W 5427   0.797   8.475   0.406  0.1745  0.0970 -0.1705
 1228W        W 5428   6.603   3.109   8.486  0.2087  0.0144 -0.0101
 1229W        W 5429   1.847   6.382  11.017  0.1301 -0.2084  0.0351
 1230W        W 5430   7.131   3.555  11.446  0.0409 -0.1119 -0.1376
 1231W        W 5431   8.985   3.513   0.049  0.1456  0.0461 -0.0565
 1232W        W 5432   3.887   1.797  12.586  0.1046  0.2363 -0.0051
 1233W        W 5433   7.159   0.854   3.652  0.4126 -0.1940 -0.2127
 1234W        W 5434   3.942   1.692   0.991  0.0197  0.1321  0.0591
 1235W        W 5435   9.297   4.075   1.955 -0.1388 -0.0075 -0.1429
 1236W        W 5436   5.604   1.809   9.885 -0.3956 -0.0188  0.2507
 1237W        W 5437   3.041   0.163   0.140 -0.1069  0.4228  0.3312
 1238W        W 5438   6.318   5.222  12.021  0.0007 -0.2904 -0.3593
 1239W        W 5439   9.037   0.578   4.483  0.4081  0.1866 -0.0714
 1240W        W 5440   0.490   7.255   4.497 -0.1178  0.1335 -0.3626
 1241W        W 5441   9.272   9.112   2.816 -0.2001 -0.3115  0.0162
 1242W        W 5442   0.345   2.609   4.099  0.1142  0.1505 -0.2379
 1243W        W 5443   1.802   9.719   8.581 -0.1111  0.1915  0.0897
 1244W        W 5444   1.217   0.277   2.138 -0.0064  0.1356  0.0720
 1245W        W 5445   6.014   7.892   0.091  0.0857  0.0390 -0.1648
 1246W        W 5446   3.696   6.077   2.033 -0.0343 -0.0651  0.1589
 1247W        W 5447   3.161   3.483   1.235  0.5023  0.0982 -0.2106
 1248W        W 5448   0.963   8.845  12.471 -0.1549  0.0288 -0.4220
 1249W        W 5449   3.238   4.793  13.433  0.0114  0.2754 -0.1414
 1250W        W 5450   2.001   3.944   0.563 -0.0812 -0.0660  0.0685
 1251W        W 5451   9.670   9.876  10.902 -0.1713 -0.1904 -0.3688
 1252W        W 5452   5.539   4.468  11.224 -0.2693  0.0455 -0.0191
 1253W        W 5453   6.528  10.250   0.176  0.2232 -0.0934  0.0917
 1254W        W 5454   0.042   2.055  13.032  0.2468 -0.1501 -0.2444
 1255W        W 5455   7.541   5.211   3.043 -0.0562 -0.2663 -0.1663
 1256W        W 5456   4.676   9.714   0.355 -0.2268  0.1874 -0.1561
 1257W        W 5457   6.358   2.313   0.750  0.0366 -0.0099 -0.1883
 1258W        W 5458   9.636   1.680  11.521  0.0079  0.0618  0.3743
 1259W        W 5459  10.438   1.920   9.171  0.1637 -0.0681  0.0841
 1260W        W 5460   2.792  10.412   3.346  0.0443  0.4283  0.0223
 1261W        W 5461   4.126   9.916   4.024  0.0619 -0.0867 -0.1214
 1262W        W 5462   2.199  10.039  11.125  0.0694  0.0735 -0.0136
 1263W        W 5463   2.466   0.839   3.201 -0.2641  0.2445 -0.0032
 1264W        W 5464   4.733   5.087   9.560  0.0305  0.0372 -0.1801
 1265W        W 5465   8.333   6.163  10.179  0.0377  0.5236  0.2794
 1266W        W 5466   7.767   5.823   4.051  0.0231 -0.3080  0.0256
 1267W        W 5467   8.580   6.315   2.498 -0.3685  0.1287 -0.2182
 1268W        W 5468   0.197   9.236   9.458  0.0426 -0.0295 -0.1126
 1269W        W 5469   9.028   4.964  13.443  0.0736  0.1092 -0.3437
 1270W        W 5470   8.342   8.455  12.043 -0.0309  0.0123 -0.0470
 1271W        W 5471   5.182   6.610  10.670  0.0265 -0.0170  0.3018
 1272W        W 5472   3.935   9.407  12.579  0.0876 -0.1017 -0.1680
 1273W        W 5473   3.977   6.500   9.230 -0.1788  0.0130  0.2607
 1274W        W 5474   7.751   3.368   4.426  0.2280  0.2658  0.1004
 1275W        W 5475   2.611   2.044   8.297 -0.1095 -0.3381 -0.1390
 1276W        W 5476   3.392   7.595   2.928  0.1292  0.0857 -0.0774
 1277W        W 5477   1.028   0.584  10.964 -0.0024 -0.3385 -0.0813
 1278W        W 5478   1.659   4.589   9.734  0.1833  0.0037 -0.1968
 1279W        W 5479   0.303   2.423  12.827  0.1187  0.2332  0.0269
 1280W        W 5480   3.837   1.662  13.074 -0.1219 -0.4800 -0.0274
 1281W        W 5481   0.339   2.040  11.852 -0.0079  0.1291 -0.0147
 1282W        W 5482   7.126   3.958   4.642  0.0975  0.1216 -0.1433
 1283W        W 5483   1.804   1.557   3.349 -0.3828  0.1325  0.0335
 1284W        W 5484   4.493   3.335   9.963  0.0039  0.0405 -0.0987
 1285W        W 5485   2.846   9.602   0.586  0.1125 -0.0536 -0.0714
 1286W        W 5486   7.201   4.779   3.285 -0.1608 -0.0329  0.0644
 1287W        W 5487   2.870   8.295  11.899  0.0230  0.2143 -0.2405
 1288W        W 5488   1.913   2.941   0.586  0.3364  0.3947 -0.2031
 1289W        W 5489   4.870   2.639   0.392  0.1010  0.0139  0.1966
 1290W        W 5490   2.858   8.571   9.820 -0.0887  0.2346 -0.1413
 1291W        W 5491   3.791   2.336   3.987  0.1074  0.2276  0.1302
 1292W        W 5492   4.320   8.403   2.577 -0.1450 -0.1107  0.0568
 1293W        W 5493   5.089   6.820  12.130  0.0869  0.1723 -0.0114
 1294W        W 5494   8.074   4.370   3.927 -0.1518  0.3945  0.0291
 1295W        W 5495   2.228   8.213  11.288 -0.2023 -0.0517  0.0556
 1296W        W 5496   0.613  10.293   0.249  0.2127 -0.2950  0.2689
 1297W        W 5497   7.444   1.774   3.422 -0.1000 -0.0984  0.1136
 1298W        W 5498   7.931   6.883  13.184  0.3727 -0.1435  0.1542
 1299W        W 5499   3.506   4.878   1.200 -0.0691  0.1213 -0.0207
 1300W        W 5500   5.472   8.090  10.495 -0.0367 -0.2764 -0.6015
 1301W        W 5501   5.794   0.619   2.986  0.0038  0.0165 -0.0672
 1302W        W 5502   1.930   9.691   0.553 -0.1450  0.0504  0.3886
 1303W        W 5503   6.853   3.027   4.082  0.0898 -0.1147 -0.1451
 1304W        W 5504   0.541   5.838   1.877 -0.0407 -0.1206  0.1238
 1305W        W 5505   5.273   2.539   3.775 -0.3199 -0.3160  0.1446
 1306W        W 5506   2.767   7.696   8.497 -0.4055 -0.2845  0.0213
 1307W        W 5507   3.978   9.598  11.726  0.0944  0.0408 -0.0796
 1308W        W 5508   4.153   4.239  10.859 -0.2240 -0.1689 -0.0753
 1309W        W 5509   4.858   7.199  12.363 -0.0055 -0.0713 -0.0332
 1310W        W 5510   1.940   1.817   0.851  0.0222  0.2155  0.1579
 1311W        W 5511   8.317   8.880   2.724  0.1400  0.0100 -0.2732
 1312W        W 5512   2.497   8.909   1.336 -0.3297  0.2417  0.2145
 1313W        W 5513   3.830   4.443   0.680 -0.1386  0.0017 -0.0181
 1314W        W 5514  10.224   0.041  11.995  0.1435 -0.1314  0.0980
 1315W        W 5515   7.969   2.487   4.143  0.3628 -0.1917  0.0407
 1316W        W 5516   5.759   1.774   1.666 -0.3127 -0.3677 -0.0564
 1317W        W 5517   2.672   4.690   3.777  0.0346 -0.0018  0.1412
 1318W        W 5518   0.135   3.033   3.425  0.3430  0.0657  0.1437
 1319W        W 5519   1.455   7.752   8.432 -0.4522 -0.3522 -0.0723
 1320W        W 5520   5.908   5.483  12.626  0.0099  0.0070  0.3788
 1321W        W 5521   6.722   9.815  11.122 -0.0362  0.1491  0.0051
 1322W        W 5522   1.049   5.225   9.345  0.0217 -0.2793  0.0111
 1323W        W 5523   6.644   9.316  11.183 -0.0461  0.4074 -0.1983
 1324W        W 5524   0.975  10.461  11.818  0.0553 -0.4245  0.0676
 1325W        W 5525  10.199   8.902   1.108 -0.1278  0.0238 -0.1945
 1326W        W 5526   0.348   3.108   2.698 -0.3350 -0.0398  0.1218
 1327W        W 5527   4.848   7.668   2.329  0.0045 -0.4263  0.0696
 1328W        W 5528   5.383   4.004   3.968  0.0910  0.1788  0.1103
 1329W        W 5529   3.576   8.189  10.932 -0.0178 -0.0912 -0.1144
 1330W        W 5530   0.703   3.691   1.237 -0.2269  0.1179 -0.0375
 1331W        W 5531   6.344   2.372   3.249 -0.1085  0.0779 -0.0525
 1332W        W 5532   0.336   2.581   0.690  0.2341  0.0620  0.2651
 1333W        W 5533   9.313   0.956  12.018 -0.1614 -0.0274 -0.3040
 1334W        W 5534   9.312   2.328   9.473 -0.0659  0.1907  0.1601
 1335W        W 5535   2.391   0.052   3.627  0.1061  0.1365  0.2123
 1336W        W 5536   0.177   3.049   1.000  0.2926 -0.2789 -0.1748
 1337W        W 5537   9.891   7.960   1.666 -0.0221 -0.1502  0.1384
 1338W        W 5538   8.184   5.880  10.582  0.1595  0.1868 -0.0471
 1339W        W 5539   1.263  10.392  12.273 -0.1574 -0.0558 -0.4974
 1340W        W 5540   4.648   4.131   2.944  0.3897  0.0999 -0.1454
 1341W        W 5541   1.954   5.821  10.299  0.0221 -0.3393  0.1019
 1342W        W 5542   6.990   7.334  12.130  0.1831  0.2155  0.0851
 1343W        W 5543   2.242   2.521   0.338  0.2619 -0.0744 -0.0052
 1344W        W 5544   2.940  10.268   2.570 -0.0235 -0.2742  0.2207
 1345W        W 5545   8.400   4.151  12.823  0.2296  0.2843  0.4062
 1346W        W 5546   9.535  10.348   4.075 -0.1341 -0.0307  0.0442
 1347W        W 5547   4.927   2.854   1.736 -0.0537 -0.1328 -0.1653
 1348W        W 5548   8.945   2.470   5.423  0.0184 -0.0484  0.1004
 1349W        W 5549   6.292   6.288  11.531 -0.0262 -0.3049 -0.0896
 1350W        W 5550   0.505   0.962   3.251 -0.1756 -0.0439  0.0055
 1351W        W 5551   7.401   5.680   9.951 -0.4026 -0.2509  0.0616
 1352W        W 5552   2.556   3.129  12.804 -0.0063 -0.1135 -0.0179
 1353W        W 5553   6.863   4.053   3.656  0.2313 -0.0895 -0.2681
 1354W        W 5554   1.484   6.038  11.082 -0.3251 -0.2216  0.1843
 1355W        W 5555   0.128   4.018  11.091 -0.2564 -0.1526 -0.2156
 1356W        W 5556   8.089   2.745   9.683  0.1485  0.1060 -0.0217
 1357W        W 5557   5.656   3.715  10.643  0.0162 -0.0300 -0.4845
 1358W        W 5558   4.366   0.708   2.566 -0.2685 -0.2565  0.2271
 1359W        W 5559   3.245   5.953   3.623 -0.1570 -0.0162  0.0322
 1360W        W 5560   9.756   7.790   1.201  0.1212 -0.3925  0.2345
 1361W        W 5561   5.533   5.965   0.303 -0.0815  0.0221 -0.0623
 1362W        W 5562   0.471  10.449   0.804 -0.1631 -0.0574 -0.0219
 1363W        W 5563   6.041   3.604  13.025 -0.2536 -0.2303 -0.1582
 1364W        W 5564   8.163   5.990   0.883  0.0460  0.0799 -0.1643
 1365W        W 5565   2.533   3.689   9.843  0.0429 -0.0470  0.0501
 1366W        W 5566   1.040   4.259   3.493  0.3404 -0.1708 -0.0148
 1367W        W 5567   7.688   4.992   5.196  0.1574  0.0404  0.0885
 1368W        W 5568   1.079   9.317  10.731 -0.3641 -0.2981  0.0268
 1369W        W 5569   6.440   8.007   3.191 -0.1098 -0.1010  0.0376
 1370W        W 5570   7.129   7.744   1.441 -0.0565 -0.3214 -0.3512
 1371W        W 5571   1.017   5.192   4.311 -0.2331 -0.1726  0.1017
 1372W        W 5572   7.357   5.471   3.821 -0.0958  0.0507 -0.0503
 1373W        W 5573   8.389   4.024   2.236  0.1391 -0.0678  0.2179
 1374W        W 5574   7.502   5.224   8.861 -0.2045  0.1346  0.1721
 1375W        W 5575   4.453   1.663   4.291  0.2654  0.1193  0.2191
 1376W        W 5576   7.083   5.377   0.447 -0.0443 -0.0273  0.1580
 1377W        W 5577   3.191   3.459   2.229  0.0416 -0.1480  0.2084
 1378W        W 5578   6.701   0.551  11.914  0.0437  0.0784  0.2060
 1379W        W 5579   5.552   1.544  12.628 -0.2475  0.2945 -0.3520
 1380W        W 5580   6.466   6.045   0.308  0.1153 -0.2270 -0.2165
 1381W        W 5581   6.016   5.212   2.972  0.2520  0.1087 -0.0947
 1382W        W 5582  10.432   4.902   9.961  0.0606  0.0276 -0.0629
 1383W        W 5583   5.376   2.479   9.799  0.0340 -0.3073  0.0906
 1384W        W 5584   0.760   4.532  11.911 -0.1532 -0.0484 -0.0819
 1385W        W 5585   2.526   2.598   9.031 -0.2038 -0.0333  0.0537
 1386W        W 5586   6.930   2.126   9.453 -0.2283 -0.0042 -0.1415
 1387W        W 5587   8.856  10.366   9.659  0.1153  0.2766 -0.0508
 1388W        W 5588   6.931   7.637  12.621  0.0158  0.3844  0.1844
 1389W        W 5589  10.291   9.693  10.771 -0.0222 -0.3052 -0.2117
 1390W        W 5590   9.875   8.946   1.592 -0.2658 -0.0138  0.0291
 1391W        W 5591   5.023   6.002   1.477 -0.0287  0.2060  0.3552
 1392W        W 5592   0.543   1.829   5.189 -0.3213 -0.1970  0.0323
 1393W        W 5593   8.654   2.794   5.199 -0.1283 -0.0927 -0.0944
 1394W        W 5594   0.794   1.835  12.271  0.1782  0.2546 -0.0835
 1395W        W 5595   0.353   5.809  12.145 -0.0599 -0.2143  0.1396
 1396W        W 5596   4.405   9.980   1.606  0.0283  0.0576  0.0434
 1397W        W 5597   8.897   0.913  10.232 -0.1848 -0.0978 -0.2387
 1398W        W 5598   8.433   5.201   3.873  0.1657  0.3481  0.1215
 1399W        W 5599   9.344   5.143   9.664  0.1952 -0.1748 -0.2311
 1400W        W 5600  10.366   7.671   3.224  0.3728 -0.1127 -0.0469
 1401W        W 5601   1.237   1.365   0.738  0.1693  0.2023 -0.1836
 1402W        W 5602   4.276   2.459   1.325 -0.0974  0.0534  0.1509
 1403W        W 5603   6.322   9.320  11.710 -0.0475 -0.0375 -0.0083
 1404W        W 5604   2.141   0.379   1.657  0.2787  0.0334 -0.4687
 1405W        W 5605   9.851   7.625  13.159 -0.2584 -0.2470 -0.3758
 1406W        W 5606   5.241   3.277   4.460 -0.0803 -0.0590  0.4323
 1407W        W 5607   7.991   1.604   4.774  0.2302  0.4325  0.0197
 1408W        W 5608   5.854   9.965   3.096  0.0530  0.1665 -0.0148
 1409W        W 5609   9.012   8.053   3.432 -0.3043 -0.1975  0.4158
 1410W        W 5610   9.783   4.095   3.096 -0.2794  0.0936  0.2121
 1411W        W 5611   5.104   9.395  12.934  0.2511  0.0978  0.2133
 1412W        W 5612   7.540   8.474  10.475  0.1871  0.0887 -0.1072
 1413W        W 5613  10.021   3.466   1.884 -0.0028  0.1372  0.0952
 1414W        W 5614   0.660   3.339  10.551  0.0125  0.3222  0.1348
 1415W        W 5615   5.200   6.393  12.573 -0.1509  0.0678 -0.0086
 1416W        W 5616   6.693   6.153  10.004  0.1966  0.4089  0.1494
 1417W        W 5617   9.763   4.232   0.845 -0.1620 -0.2986  0.0268
 1418W        W 5618   0.295   9.034   1.085 -0.0849  0.1289  0.0345
 1419W        W 5619   3.981  10.364   9.508 -0.1041 -0.0409  0.0569
 1420W        W 5620   5.822   4.604  10.208  0.0647 -0.0447  0.0780
 1421W        W 5621   1.463   2.131   8.755  0.0463  0.1344 -0.1057
 1422W        W 5622   6.272   6.558  12.297  0.4662  0.1793  0.1074
 1423W        W 5623   5.022  10.093  10.498  0.1269 -0.0756  0.0826
 1424W        W 5624   3.773   0.768   1.120  0.1623  0.0330  0.0247
 1425W        W 5625   9.429   0.488   2.028 -0.2916 -0.0902  0.2923
 1426W        W 5626   6.727   6.230   0.940 -0.0980 -0.0022 -0.3890
 1427W        W 5627   0.844   0.412   1.063  0.1482 -0.3162  0.1136
 1428W        W 5628   4.032   6.176   0.648  0.2775  0.0615  0.0108
 1429W        W 5629  10.140   2.768   3.613  0.1297 -0.1343  0.0180
 1430W        W 5630   1.375   9.129   9.566  0.0174 -0.2720 -0.0524
 1431W        W 5631   9.207  10.091   4.759  0.0015 -0.1138  0.0558
 1432W        W 5632   5.572   9.921   1.318 -0.0900  0.1015 -0.0648
 1433W        W 5633   1.869   6.307  10.433  0.0282  0.3509  0.1533
 1434W        W 5634   3.874   0.201  10.337  0.1967  0.1474  0.1279
 1435W        W 5635   6.518   9.202   3.982  0.0727 -0.2109  0.0231
 1436W        W 5636   0.178   0.343   2.422 -0.2160 -0.0760 -0.1319
 1437W        W 5637   6.747   8.675  12.695 -0.1740  0.0610  0.3947
 1438W        W 5638   6.533   6.909   2.748 -0.1867  0.3753 -0.1322
 1439W        W 5639   4.458   7.515   2.664  0.0914  0.2198  0.0994
 1440W        W 5640   9.351   7.497  12.767  0.0358 -0.1391  0.0953
 1441W        W 5641   7.769  10.110  12.875 -0.0813 -0.0370 -0.2020
 1442W        W 5642   4.585   1.010  11.036  0.1042 -0.1282  0.1074
 1443W        W 5643   1.207   4.082   9.343 -0.1370 -0.1404  0.0007
 1444W        W 5644   1.132   4.500   8.559 -0.0508 -0.1112 -0.1191
 1445W        W 5645   5.957   8.863  10.963  0.1105 -0.3315 -0.0191
 1446W        W 5646  10.240   9.554   8.671  0.1838 -0.0099  0.0078
 1447W        W 5647   0.912   2.459  11.221 -0.0860 -0.0442  0.0004
 1448W        W 5648   2.102   3.398   9.921  0.1811 -0.0142  0.2168
 1449W        W 5649   4.947   0.168  11.309 -0.1628 -0.2943  0.1198
 1450W        W 5650   8.535   9.317  12.048  0.0610 -0.0419  0.2352
 1451W        W 5651   9.039   8.458   1.365  0.1407 -0.2544  0.0944
 1452W        W 5652   8.480   6.184   1.918  0.0131  0.3475 -0.1619
 1453W        W 5653  10.444   7.577  11.755  0.1647 -0.0976  0.2229
 1454W        W 5654   7.991   6.475   9.214 -0.0115  0.0209 -0.0014
 1455W        W 5655   5.430   3.051   2.928 -0.1066  0.0096  0.0527
 1456W        W 5656   6.315   0.297   2.457 -0.1277 -0.1463  0.0163
 1457W        W 5657   3.872   8.880  12.399  0.1930  0.0102 -0.0520
 1458W        W 5658   5.658   8.091  12.772  0.1554 -0.2585 -0.1048
 1459W        W 5659   1.396   0.496   0.847 -0.0252  0.3010  0.2707
 1460W        W 5660   7.076   9.387  11.981 -0.1051  0.0159  0.2098
 1461W        W 5661   2.448   3.901  11.178 -0.3870  0.0771 -0.0391
 1462W        W 5662   5.153  10.013  11.998 -0.1094  0.2542  0.0018
 1463W        W 5663   3.755   9.140   1.978  0.1176 -0.0184 -0.1338
 1464W        W 5664   8.163   1.480   4.342 -0.0693  0.0036 -0.2329
 1465W        W 5665   1.540   3.803   0.899 -0.1875 -0.0953 -0.0016
 1466W        W 5666   2.678   4.652   1.939  0.0407 -0.1523  0.1218
 1467W        W 5667   9.293   4.229   4.790 -0.1214 -0.2398  0.0062
 1468W        W 5668  10.257   9.095   9.725 -0.2819  0.1667  0.1860
 1469W        W 5669   2.441   6.625   0.972 -0.1337  0.5670  0.0234
 1470W        W 5670   4.482   3.301  10.901 -0.2210 -0.1254  0.0916
 1471W        W 5671   4.315   3.260   2.096 -0.3500 -0.6063  0.1012
 1472W        W 5672   8.009   4.443   2.068 -0.1845  0.0147  0.1697
 1473W        W 5673   2.443   8.037  11.812 -0.3331 -0.0020 -0.0419
 1474W        W 5674   0.975   8.562   3.227  0.0072  0.3849  0.3706
 1475W        W 5675   5.563   2.088   9.478  0.2984  0.3808 -0.2385
 1476W        W 5676   1.731   0.464   4.263 -0.0669 -0.2457 -0.0658
 1477W        W 5677   5.528   1.518   3.182  0.0492  0.1811 -0.0960
 1478W        W 5678   9.388   9.412  10.995  0.3072 -0.3116  0.2316
 1479W        W 5679   4.589   2.674   4.112  0.0620  0.1486 -0.1206
 1480W        W 5680   5.969   7.356   0.231 -0.2680  0.1629 -0.0654
 1481W        W 5681   4.257   9.239   1.016  0.1905 -0.0359  0.3522
 1482W        W 5682   0.005   3.484  12.518  0.0369  0.2751 -0.0477
 1483W        W 5683   3.942   2.014  13.411  0.1737  0.2643  0.0437
 1484W        W 5684   3.323  10.404  12.531 -0.3331  0.0531  0.1036
 1485W        W 5685   9.889   1.224   2.369  0.1264  0.3426  0.1167
 1486W        W 5686   8.240   9.841  12.811  0.0165  0.1092 -0.2408
 1487W        W 5687   5.907   1.952  11.251 -0.1076 -0.0076 -0.1047
 1488W        W 5688   0.670   0.709   0.647 -0.0291 -0.0704  0.1939
 1489W        W 5689   9.070   6.345   0.610 -0.0942 -0.0603 -0.0893
 1490W        W 5690   7.811   6.437   2.521  0.1319  0.3445  0.2216
 1491W        W 5691   7.802  10.427   4.574  0.1910 -0.2378  0.1590
 1492W        W 5692  10.447   9.604  13.020 -0.1110  0.0206 -0.1739
 1493W        W 5693   0.319   8.003  13.039 -0.0031 -0.1694  0.2853
 1494W        W 5694   6.936   2.248   0.832  0.3133 -0.3579 -0.2006
 1495W        W 5695   0.694   8.553  10.594  0.0537  0.0303  0.0152
 1496W        W 5696   3.870   9.295   2.481  0.0442 -0.1870  0.0161
 1497W        W 5697   0.375   0.036  12.783 -0.1779 -0.1936 -0.2501
 1498W        W 5698   1.653   3.908  12.196 -0.1349  0.1529  0.2829
 1499W        W 5699   0.937  10.471   3.113 -0.0714  0.2751  0.0296
 1500W        W 5700   9.386   1.373   0.603  0.1829  0.1280  0.3058
 1501W        W 5701   1.386   3.962   1.765  0.1812  0.3340 -0.2972
 1502W        W 5702  10.259   9.554  11.249 -0.4002 -0.0791  0.1579
 1503W        W 5703   7.948   0.821  11.573  0.0810  0.2029  0.4157
 1504W        W 5704   9.958   1.961   0.932 -0.1157 -0.1432 -0.1330
 1505W        W 5705   9.240   2.323  11.004  0.0514 -0.1312 -0.2662
 1506W        W 5706   9.915   0.452   2.867  0.0063  0.0551 -0.2321
 1507W        W 5707   6.580   9.784  13.236 -0.2718 -0.2306 -0.3150
 1508W        W 5708   3.994   7.991   2.071  0.1987 -0.2158 -0.2048
 1509W        W 5709   0.897   8.243  13.282  0.1082  0.1389  0.0868
 1510W        W 5710   2.437   1.699   4.495 -0.3040  0.2216 -0.1138
 1511W        W 5711   7.537   2.773   4.474 -0.1112 -0.0870  0.2024
 1512W        W 5712  10.141   1.879   5.241  0.1088 -0.2106 -0.0663
 1513W        W 5713   2.033   8.500   9.550  0.0593 -0.2009 -0.2365
 1514W        W 5714   5.256   1.372   4.432 -0.0127  0.2202 -0.0648
 1515W        W 5715   1.058   0.831  10.475  0.1298  0.1051  0.1011
 1516W        W 5716   0.901   7.911  12.379 -0.3579 -0.0681  0.2759
 1517W        W 5717  10.023   1.549  11.151 -0.0127  0.1301 -0.1480
 1518W        W 5718   2.158   7.726  10.531  0.1505 -0.3204  0.0362
 1519W        W 5719   6.048   0.722  10.489 -0.0037  0.3859  0.1295
 1520W        W 5720   8.616   3.816   1.134  0.0153  0.0270  0.1581
 1521W        W 5721   8.931   3.755   8.366 -0.0829 -0.0374  0.0790
 1522W        W 5722   0.036   3.983   3.533  0.0355  0.3808 -0.0488
 1523W        W 5723   0.286   7.400   3.288 -0.0728 -0.1413 -0.0129
 1524W        W 5724   8.020   3.901  12.056 -0.3528 -0.2522 -0.1922
 1525W        W 5725   4.190   6.718  10.838  0.2203  0.0936 -0.5829
 1526W        W 5726   0.227   1.953  12.569 -0.2915 -0.3463  0.0673
 1527W        W 5727   8.179   0.322  10.876  0.1080  0.0898  0.3901
 1528W        W 5728   3.504   3.739   0.260 -0.0448  0.3267  0.1010
 1529W        W 5729   8.770   9.632   1.690  0.0274 -0.0668  0.3175
 1530W        W 5730   6.459   6.740  13.097 -0.1568  0.1500 -0.2200
 1531W        W 5731   9.831   2.722  12.257 -0.0333 -0.3406 -0.1359
 1532W        W 5732   9.296   2.235  12.703  0.0510 -0.1925  0.0602
 1533W        W 5733   0.243   2.594  11.892  0.0072 -0.1663 -0.2143
 1534W        W 5734   4.825   7.003  13.103 -0.1839  0.1308 -0.2011
 1535W        W 5735   7.710   1.691   2.273 -0.0687 -0.2625  0.1131
 1536W        W 5736   6.611   4.725   9.214 -0.1039  0.1874  0.1937
 1537W        W 5737   3.693   6.316  10.085  0.2931 -0.0052 -0.0402
 1538W        W 5738   7.545   5.122   3.517  0.1055  0.0966  0.1377
 1539W        W 5739   8.879   7.612  12.899 -0.3030  0.3700  0.0359
 1540W        W 5740   5.770   0.066  10.982 -0.0508  0.1002  0.1737
 1541W        W 5741   3.544   5.477  10.729  0.0793 -0.2116 -0.0896
 1542W        W 5742   6.882   3.538   8.586  0.2238  0.1655  0.0899
 1543W        W 5743   9.117   6.826   1.733 -0.0056 -0.0789  0.0231
 1544W        W 5744   6.211   4.071  12.897  0.3717 -0.3662  0.1503
 1545W        W 5745   1.436   8.710  12.520  0.2406 -0.2315 -0.0521
 1546W        W 5746   0.083   6.907   4.186 -0.1098 -0.0038 -0.0459
 1547W        W 5747   3.721   8.241  12.155  0.0100  0.0729 -0.1007
 1548W        W 5748   7.627   7.449   3.539 -0.0909  0.0818 -0.0709
 1549W        W 5749   4.367   2.415   9.188  0.1498 -0.2255 -0.1124
 1550W        W 5750   9.508  10.235  12.257 -0.4458 -0.0692  0.0663
 1551W        W 5751  10.349   0.193   1.088  0.1448  0.2293  0.0282
 1552W        W 5752   6.435   8.862  10.835 -0.0509  0.3908 -0.1540
 1553W        W 5753   2.191   2.959   1.305 -0.0566 -0.1436 -0.0114
 1554W        W 5754   3.803   5.606   2.169  0.2216 -0.0448  0.3059
 1555W        W 5755   0.778   2.737   9.803  0.0149  0.0348 -0.2881
 1556W        W 5756   8.394   6.351  10.648  0.2207  0.1600 -0.1065
 1557W        W 5757   6.820   9.789  10.277 -0.4558 -0.3438  0.3707
 1558W        W 5758   9.888   0.156   1.297  0.0471 -0.0203  0.3709
 1559W        W 5759   6.119   9.506   3.883  0.2534 -0.0126  0.0711
 1560W        W 5760   2.317   8.673   2.183  0.0040  0.0346  0.2400
 1561W        W 5761   5.489   0.239   2.940 -0.2501 -0.1533 -0.0018
 1562W        W 5762   3.938   5.377   8.408 -0.0310  0.0128 -0.0096
 1563W        W 5763   8.721  10.188   0.817  0.1532  0.1747  0.0889
 1564W        W 5764  10.346   8.165   3.101  0.0702 -0.2739  0.0715
 1565W        W 5765   9.294   7.398  13.241 -0.0560  0.1732 -0.1299
 1566W        W 5766   6.539   1.488  12.404 -0.1664  0.0516 -0.1423
 1567W        W 5767   8.841   2.830   2.179  0.2065  0.2000  0.0345
 1568W        W 5768   7.547   3.995   9.181  0.2241 -0.0403  0.0425
 1569W        W 5769  10.201   5.372   0.398  0.0942 -0.0276 -0.2315
 1570W        W 5770   7.292   1.871   4.550 -0.3520  0.1388  0.0717
 1571W        W 5771   0.328   5.329  11.816 -0.4968 -0.0496  0.0112
 1572W        W 5772   7.894   0.536   3.277 -0.0308 -0.1306 -0.0506
 1573W        W 5773   5.536   2.784  10.253 -0.1899 -0.1946 -0.0485
 1574W        W 5774   1.677   3.097   9.907 -0.0328  0.3341  0.1373
 1575W        W 5775   4.146   3.461   8.967 -0.1692  0.1499 -0.0398
 1576W        W 5776   4.071   6.561  10.322  0.1274  0.0132 -0.3688
 1577W        W 5777  10.197   6.348   3.588  0.0269 -0.2071 -0.2383
 1578W        W 5778   3.389   8.582  11.901  0.2130  0.0864 -0.2780
 1579W        W 5779   3.367  10.106   9.815  0.0544  0.3040 -0.0966
 1580W        W 5780   0.008   8.968  11.638  0.2116 -0.0623  0.2470
 1581W        W 5781   2.675   3.046  12.235 -0.0745  0.1357  0.3563
 1582W        W 5782   0.999   6.268   9.787  0.2554 -0.0352  0.1076
 1583W        W 5783   5.699   8.161  10.016  0.1070  0.1474  0.0578
 1584W        W 5784   1.454   1.435   4.229  0.1021 -0.2544 -0.1665
 1585W        W 5785   9.964   9.984   4.129 -0.2565  0.0457 -0.2408
 1586W        W 5786   1.032   8.029   0.255 -0.1683  0.3935 -0.0440
 1587W        W 5787   6.084   2.761   0.901  0.2646 -0.3267  0.0258
 1588W        W 5788  10.306   7.797  13.030 -0.0828  0.2096  0.1078
 1589W        W 5789   9.819   6.916   9.400  0.0026  0.0171  0.1883
 1590W        W 5790   9.529   5.280   3.101  0.2421  0.0683  0.2139
 1591W        W 5791   2.902   3.074   2.041  0.1945  0.1324  0.0193
 1592W        W 5792   4.141   8.214  13.030  0.0089 -0.0135  0.1524
 1593W        W 5793   7.027   8.326  12.444 -0.2151 -0.2320  0.3727
 1594W        W 5794   5.750   9.774   2.611  0.2102  0.1726  0.1245
 1595W        W 5795   7.931   9.492  13.061 -0.1301 -0.2944 -0.0911
 1596W        W 5796   7.891  10.151   3.330  0.0057  0.2087  0.2390
 1597W        W 5797   7.083   3.746   1.343 -0.0668  0.1988 -0.1729
 1598W        W 5798   1.717   2.514   0.378 -0.0934  0.0149 -0.2307
 1599W        W 5799   9.413   3.923   9.645  0.1360 -0.0888 -0.0517
 1600W        W 5800   9.443   7.758   3.539  0.1206  0.2313 -0.1611
 1601W        W 5801   1.694   7.262  10.363  0.2107 -0.1369 -0.4122
 1602W        W 5802   5.632   5.315  12.184  0.0094  0.0230  0.1309
 1603W        W 5803   3.878   5.358   1.722  0.1786  0.3883 -0.0109
 1604W        W 5804   3.221  10.125   4.581  0.1173  0.3315  0.2040
 1605W        W 5805   2.883   2.712  11.386 -0.1422  0.2191 -0.2229
 1606W        W 5806   8.594   6.178  12.658  0.0668  0.1213 -0.0036
 1607W        W 5807   1.147   7.676   3.357 -0.0940  0.0359 -0.0406
 1608W        W 5808   7.812   0.102   3.643 -0.1804 -0.0102  0.2175
 1609W        W 5809   6.332   0.649   3.948 -0.0812  0.1946  0.0368
 1610W        W 5810   0.613   1.042  10.443  0.2782  0.2329 -0.0313
 1611W        W 5811   8.829  10.175   2.944 -0.1460 -0.3787  0.0398
 1612W        W 5812   3.145   3.621  12.868 -0.0850 -0.0802  0.1504
 1613W        W 5813   9.786   6.593  13.266 -0.0309 -0.1434 -0.1257
 1614W        W 5814   8.757   2.186   9.121  0.2744 -0.0950 -0.1226
 1615W        W 5815   0.449   6.004   0.997 -0.1537  0.0010  0.1174
 1616W        W 5816   6.437   5.250   8.369 -0.1311  0.0882 -0.0313
 1617W        W 5817   8.746   5.341   1.740 -0.1123 -0.3426 -0.3837
 1618W        W 5818   2.501   9.150   9.508  0.3161  0.1187  0.0295
 1619W        W 5819   8.072   3.665  10.161 -0.0403  0.4606  0.0748
 1620W        W 5820   6.092   5.118  13.413 -0.0788  0.1583 -0.2070
 1621W        W 5821  10.282   5.728   3.790 -0.3707  0.1852  0.3171
 1622W        W 5822   6.732   8.827   3.653 -0.0268 -0.0722 -0.1047
 1623W        W 5823   3.580   2.741   1.606 -0.1474 -0.2574 -0.0266
 1624W        W 5824   1.672   0.203  12.327  0.0201  0.2287 -0.0909
 1625W        W 5825   4.152  10.445  12.582  0.2151 -0.0496 -0.2193
 1626W        W 5826   0.681  10.024   2.100  0.3130 -0.0221  0.3852
 1627W        W 5827   4.873   2.700   9.741  0.0198 -0.0178  0.0890
 1628W        W 5828   9.179   8.781  12.003 -0.0896  0.3581  0.0488
 1629W        W 5829   1.001   5.039  13.249  0.1197 -0.0008 -0.1944
 1630W        W 5830   2.785   6.511   9.547  0.2536 -0.1238  0.3476
 1631W        W 5831   8.702   6.906  12.186 -0.1831  0.2801  0.1614
 1632W        W 5832   3.173   9.372   1.483 -0.0604 -0.0434  0.0006
 1633W        W 5833   4.346   6.059  11.527 -0.1608 -0.2698  0.3099
 1634W        W 5834   2.691   8.379   1.330  0.3402  0.0026 -0.2334
 1635W        W 5835   1.660   1.593  12.094 -0.3466  0.1091  0.1973
 1636W        W 5836   6.511   5.634   9.969 -0.1317  0.1879 -0.0753
 1637W        W 5837   4.209   8.508  12.267  0.0541 -0.1630 -0.1143
 1638W        W 5838   6.392   8.786  11.344  0.1117 -0.4364 -0.0279
 1639W        W 5839   2.880   4.466  12.637  0.1869  0.0484 -0.1019
 1640W        W 5840   5.959   6.417   9.737  0.1422  0.0599 -0.1694
 1641W        W 5841   9.080   0.404   1.426  0.2080 -0.0239  0.0558
 1642W        W 5842   2.255  10.013   1.459  0.0733  0.0457  0.1728
 1643W        W 5843   7.932   7.985  11.198  0.3596  0.0483  0.0370
 1644W        W 5844   8.949   8.215  12.160  0.1176  0.2500  0.0076
 1645W        W 5845   2.540   4.242  11.626  0.0859  0.1035 -0.1424
 1646W        W 5846   1.817   6.188  13.372 -0.0682 -0.1369  0.0789
 1647W        W 5847   1.889   3.433  12.140 -0.1345  0.2799 -0.0549
 1648W        W 5848  10.142   9.200  10.553 -0.0175  0.0056 -0.2954
 1649W        W 5849   1.341   9.918   3.431 -0.2041 -0.2780 -0.2580
 1650W        W 5850   3.203   5.838   3.035  0.4159 -0.2665 -0.0948
 1651W        W 5851   0.140   5.911   9.201  0.4014  0.1969  0.2246
 1652W        W 5852   7.387   9.682  10.977  0.0377 -0.0563  0.1674
 1653W        W 5853   0.678   8.766   9.834 -0.0058 -0.0312  0.2440
 1654W        W 5854  10.192   2.927  10.353 -0.0893  0.0093  0.1384
 1655W        W 5855   2.918   5.258   8.479  0.2860  0.2718  0.1981
 1656W        W 5856   2.449   0.031   1.433 -0.1731 -0.0935 -0.0501
 1657W        W 5857   6.294   0.215  10.218 -0.0588  0.2956  0.1107
 1658W        W 5858   2.073   7.739   9.407 -0.2528  0.0294 -0.2659
 1659W        W 5859   2.437   4.684   0.445 -0.1149  0.0962 -0.2452
 1660W        W 5860   2.577   5.110   2.774  0.0202  0.1291  0.1228
 1661W        W 5861   5.417   9.412   1.012 -0.1332 -0.4399  0.3035
 1662W        W 5862   4.802   2.520   2.192 -0.1940  0.0697 -0.3224
 1663W        W 5863   0.711  10.460  12.345  0.2111 -0.0953  0.2532
 1664W        W 5864   7.915  10.275   0.425  0.0323  0.1711  0.0682
 1665W        W 5865   4.935   7.279   2.621  0.0313  0.0682  0.0772
 1666W        W 5866   8.027   2.017  13.169 -0.3132  0.0512 -0.1709
 1667W        W 5867   1.238   3.451  10.431 -0.0029 -0.1285  0.2449
 1668W        W 5868   5.410   0.297  11.191  0.0995  0.0867  0.0177
 1669W        W 5869  10.226   4.898  12.542 -0.1406  0.0397  0.0700
 1670W        W 5870   5.095   9.366   0.372 -0.2526 -0.0704 -0.3252
 1671W        W 5871   1.413   8.226   1.166  0.1152 -0.3368 -0.1518
 1672W        W 5872   6.195   8.831  12.895  0.0594  0.0616 -0.0377
 1673W        W 5873   4.399   6.769   9.938 -0.0065 -0.1945  0.2193
 1674W        W 5874   4.900   8.888   3.857 -0.0435  0.4084 -0.2118
 1675W        W 5875  10.346   3.962   8.136 -0.2544 -0.1739 -0.1292
 1676W        W 5876   0.572   9.428  13.109 -0.2651 -0.2035  0.0444
 1677W        W 5877   5.915   7.653  11.345 -0.2272 -0.1304 -0.1396
 1678W        W 5878   3.324   3.395  10.355 -0.0595 -0.2044 -0.2192
 1679W        W 5879   0.939   5.539   2.498 -0.1960  0.0409  0.1182
 1680W        W 5880   7.229   6.823   9.576 -0.1723 -0.0556  0.0215
 1681W        W 5881   0.541   8.184  11.487 -0.1696 -0.0137 -0.0792
 1682W        W 5882   9.227   6.644   1.276  0.1143 -0.3840 -0.1658
 1683W        W 5883   1.651   0.705   3.780  0.0538 -0.2305 -0.3197
 1684W        W 5884   2.460   0.643   4.702 -0.1237  0.1333 -0.0808
 1685W        W 5885   5.521   5.117   2.622  0.0810 -0.4512  0.1596
 1686W        W 5886   9.461   8.392   2.244 -0.0680 -0.2345 -0.0581
 1687W        W 5887   8.692   3.072  11.410 -0.0595 -0.0921  0.1011
 1688W        W 5888   0.847   1.133   9.189  0.3360 -0.0728 -0.1191
 1689W        W 5889   9.012   6.899   3.835 -0.1203  0.0081 -0.0603
 1690W        W 5890   3.865   3.386   4.148 -0.5524  0.3609  0.0387
 1691W        W 5891   5.460   6.150  10.538  0.2005  0.1059 -0.4076
 1692W        W 5892   6.899   9.937   2.966  0.0346  0.1980  0.0571
 1693W        W 5893   1.371   7.358  10.807  0.0368 -0.1658  0.0386
 1694W        W 5894   0.023   1.863   2.802  0.0342  0.0908  0.0455
 1695W        W 5895   2.159   3.506   1.562  0.1201  0.1898 -0.2100
 1696W        W 5896   1.970   0.351   9.045  0.2876  0.0914  0.0056
 1697W        W 5897   3.136   8.409  11.048  0.0201  0.2895  0.1441
 1698W        W 5898   8.284   3.520   3.409 -0.1220 -0.1140 -0.1724
 1699W        W 5899   0.521   4.068   1.642  0.1321 -0.1001 -0.0699
 1700W        W 5900   5.496   0.623  10.751 -0.0544  0.0339  0.2171
 1701W        W 5901   8.494   0.636  10.019  0.1141  0.1581  0.2474
 1702W        W 5902   6.444   0.691   9.928 -0.3050  0.1257  0.2512
 1703W        W 5903   3.833   3.573  12.172  0.0083 -0.3198 -0.2153
 1704W        W 5904   1.329   9.901  10.897  0.3871 -0.1596 -0.1018
 1705W        W 5905   2.957   0.669   0.998  0.2165  0.1998  0.2976
 1706W        W 5906   4.263   4.226   9.014 -0.1090  0.0724 -0.0934
 1707W        W 5907  10.305   4.159   3.084  0.0874  0.1025 -0.0719
 1708W        W 5908   1.543   0.210   9.397 -0.0792  0.3782 -0.4544
 1709W        W 5909   0.359   3.546   2.394  0.1677  0.1821  0.0036
 1710W        W 5910   9.482   4.416  12.299  0.0532 -0.2349 -0.0985
 1711W        W 5911   8.669   1.723  11.942  0.1199  0.3487 -0.1172
 1712W        W 5912   0.264   3.936   3.065  0.0099  0.0319  0.3782
 1713W        W 5913   6.874   3.912   9.539  0.2039  0.3291 -0.0900
 1714W        W 5914   7.031   1.095   3.256 -0.0183 -0.1277  0.0850
 1715W        W 5915   7.799   3.649   3.407  0.3731  0.0831 -0.0192
 1716W        W 5916   0.807   1.384   1.129  0.1007 -0.0025  0.0795
 1717W        W 5917   8.305   9.108   4.685 -0.1429 -0.3582 -0.0141
 1718W        W 5918   3.970   5.168   0.790 -0.1693  0.2123 -0.0594
 1719W        W 5919   3.341   4.314   1.378  0.0374  0.0578  0.4471
 1720W        W 5920   2.941   6.202   0.352 -0.1362  0.1084 -0.1239
 1721W        W 5921   1.428   6.433   2.789  0.0839  0.1438  0.1293
 1722W        W 5922   9.359   8.458  12.409 -0.3953  0.2008 -0.1318
 1723W        W 5923   5.614   1.479  10.744  0.0232 -0.0075  0.1123
 1724W        W 5924   8.912   8.981  10.828  0.2269 -0.2669 -0.4194
 1725W        W 5925  10.404   1.685   1.087 -0.1801 -0.3432 -0.1554
 1726W        W 5926   5.426   3.189   1.237  0.4476  0.2313  0.1986
 1727W        W 5927   9.808   4.448   2.228 -0.0387  0.2381 -0.3293
 1728W        W 5928   5.789   3.470   1.609 -0.0226 -0.1021 -0.0341
 1729W        W 5929   0.803   4.886  10.961 -0.2721  0.0979  0.2212
 1730W        W 5930   6.242   4.764  10.805  0.0610  0.2303 -0.1875
 1731W        W 5931   2.222   1.613   0.310 -0.1722  0.0824 -0.1371
 1732W        W 5932   6.352   4.169  10.465 -0.0834  0.1279 -0.0978
 1733W        W 5933   0.059   9.444   9.948 -0.2199  0.0647  0.0442
 1734W        W 5934   0.272   1.300   3.689  0.2082 -0.0730 -0.0523
 1735W        W 5935   0.588   7.513  10.237 -0.0010  0.2336  0.0444
 1736W        W 5936   0.044   1.516   4.115 -0.0375  0.0181  0.4178
 1737W        W 5937   4.392   2.021  11.324  0.0511 -0.0008 -0.4612
 1738W        W 5938   8.802   7.839   0.360  0.1868  0.2962 -0.0488
 1739W        W 5939   7.657   9.954   0.743 -0.2486  0.2699 -0.1261
 1740W        W 5940   6.132   9.332  10.697 -0.1268  0.0271 -0.0748
 1741W        W 5941   5.748   0.735  11.483 -0.0654 -0.2497  0.0610
 1742W        W 5942   4.713   1.983   3.430 -0.1648 -0.1335 -0.3307
 1743W        W 5943   9.040   3.736  10.150  0.0293 -0.0885  0.0666
 1744W        W 5944   7.410   8.449   3.362 -0.1040 -0.0374 -0.2907
 1745W        W 5945   5.337   8.430  12.523 -0.0072 -0.0700 -0.0054
 1746W        W 5946   2.563   4.950   0.058 -0.2724  0.1972 -0.0293
 1747W        W 5947   0.711   0.261  11.047  0.3523  0.1223 -0.1477
 1748W        W 5948   8.920   3.047  10.905 -0.0564  0.0006 -0.1278
 1749W        W 5949   5.093   2.042   3.759 -0.0339  0.2178 -0.0892
 1750W        W 5950   2.487   8.928   2.618  0.1322  0.0251 -0.0594
 1751W        W 5951   3.550   5.110  13.188  0.2257  0.1688 -0.0292
 1752W        W 5952   6.683   6.585  10.870 -0.1412  0.2149 -0.0797
 1753W        W 5953   1.325   9.829   9.568  0.3762 -0.0294  0.0273
 1754W        W 5954   9.613   8.369   0.431  0.0866 -0.0733 -0.3358
 1755W        W 5955   9.228   5.275   4.824  0.5132 -0.1543  0.2410
 1756W        W 5956   4.860   8.471  10.917 -0.0694 -0.0969 -0.0221
 1757W        W 5957   4.713   4.293   3.531  0.0621 -0.1016  0.0210
 1758W        W 5958  10.352   3.474   0.011  0.1192 -0.2583  0.1042
 1759W        W 5959   9.635  10.448   0.428  0.1271  0.0934 -0.0197
 1760W        W 5960   1.502   6.241   0.868  0.2800  0.1004  0.3071
 1761W        W 5961   8.591   3.745  12.055 -0.1463 -0.1103 -0.1721
 1762W        W 5962   5.496   4.263   1.107 -0.0963 -0.1777  0.2614
 1763W        W 5963   1.636   4.600   0.169  0.1041  0.0697 -0.0851
 1764W        W 5964  10.139  10.474   4.947  0.0964 -0.3103  0.1244
 1765W        W 5965   2.531   0.518   1.339 -0.0971  0.2967  0.2408
 1766W        W 5966  10.467   7.182  10.831  0.0391 -0.2060 -0.0165
 1767W        W 5967   3.761   7.807   0.438 -0.2672  0.0400  0.0661
 1768W        W 5968   8.226   2.578  12.391 -0.4026  0.0152  0.1125
 1769W        W 5969  10.447  10.191  12.934  0.1430  0.1901 -0.1263
 1770W        W 5970   4.221   3.996   9.490 -0.3716 -0.1299 -0.3192
 1771W        W 5971   8.919   4.460   4.014 -0.0910 -0.2642 -0.3358
 1772W        W 5972   1.685   8.199   1.972  0.1708 -0.0137 -0.1197
 1773W        W 5973   0.621   7.009   1.038 -0.1351  0.0790 -0.0679
 1774W        W 5974   6.640   5.660   0.572 -0.2644 -0.1304  0.2170
 1775W        W 5975   6.237   8.763  11.865 -0.3087  0.0048  0.0123
 1776W        W 5976   3.893   7.689  12.812  0.0548  0.0046  0.0348
 1777W        W 5977   7.053   9.892   3.567 -0.0184  0.2863  0.0700
 1778W        W 5978   2.973   2.972   4.171 -0.0683 -0.1535 -0.2127
 1779W        W 5979  10.126   5.157   9.651 -0.1206 -0.1541  0.2539
 1780W        W 5980   8.159  10.440   1.607 -0.0921  0.1330 -0.0136
 1781W        W 5981   2.654   8.630   1.769 -0.1185 -0.4264  0.3795
 1782W        W 5982   8.643   6.813  10.661 -0.0440  0.1015  0.0806
 1783W        W 5983   5.219   2.598   1.289  0.1010  0.0598 -0.1397
 1784W        W 5984   7.614   1.936  12.424  0.1499  0.1591 -0.0734
 1785W        W 5985   1.170   4.445   0.383  0.0700  0.2251  0.1398
 1786W        W 5986   1.541   9.169   8.530 -0.2067  0.2496 -0.2148
 1787W        W 5987   2.843   7.644   2.745 -0.0564  0.0490  0.1527
 1788W        W 5988   6.371   8.487   9.729 -0.1413  0.1514 -0.0729
 1789W        W 5989   3.021   2.925   8.286 -0.0095 -0.0493  0.2021
 1790W        W 5990   3.186   2.900   2.907 -0.2577 -0.0599 -0.1160
 1791W        W 5991   1.472   6.802   1.001 -0.1874 -0.2562 -0.2648
 1792W        W 5992   5.763   5.146   9.426  0.3438 -0.0141 -0.1319
 1793W        W 5993   8.366   5.447   2.944 -0.2656 -0.3176  0.0254
 1794W        W 5994   8.588   6.737  11.213 -0.1149  0.1138  0.1337
 1795W        W 5995   8.843   9.068  11.746  0.0097  0.1661  0.3649
 1796W        W 5996   6.329   7.258  10.368 -0.0519 -0.1933 -0.4751
 1797W        W 5997   0.458   6.921   3.674 -0.1443  0.1081 -0.0034
 1798W        W 5998   8.986   9.119  12.989  0.2610  0.3243  0.0395
 1799W        W 5999   5.414   1.597  12.019  0.3696  0.1732 -0.1880
 1800W        W 6000   4.155   7.787   1.323 -0.0762  0.3712 -0.2142
 1801W        W 6001   0.728   8.020  10.525 -0.0352 -0.0195 -0.2815
 1802W        W 6002   8.758   2.331   1.278  0.0379  0.0472 -0.1811
 1803W        W 6003   2.488   8.245   0.828 -0.1335  0.0022 -0.1800
 1804W        W 6004   3.958   4.018   8.573  0.0079  0.0036 -0.0854
 1805W        W 6005   0.447   2.640  13.281  0.2168  0.0864  0.0825
 1806W        W 6006  10.331   9.178   2.495 -0.0213 -0.0911 -0.0714
 1807W        W 6007   4.172   4.877  12.542  0.1753 -0.0529  0.2104
 1808W        W 6008  10.022   7.182   4.958  0.1916  0.1637  0.1066
 1809W        W 6009   2.801   8.260   2.754  0.0213  0.0869  0.2921
 1810W        W 6010   2.811   4.583   9.358  0.1505  0.1712 -0.0859
 1811W        W 6011   5.565   8.986   3.128 -0.2897  0.4301 -0.3286
 1812W        W 6012  10.082   8.347  10.403 -0.4795 -0.1114 -0.0867
 1813W        W 6013   6.694   8.718  10.192 -0.0671  0.0255 -0.0824
 1814W        W 6014   4.479   2.745   2.545  0.0866 -0.2079 -0.0066
 1815W        W 6015   9.210   7.595   9.058 -0.1010  0.0018  0.0565
 1816W        W 6016   7.582   3.212   0.219  0.2662  0.2336 -0.1044
 1817W        W 6017   7.149   2.307   0.333  0.1677 -0.0396 -0.1857
 1818W        W 6018   4.178   4.716   0.434  0.0901  0.1061 -0.4143
 1819W        W 6019   6.516   3.052   2.726  0.1519  0.2735  0.1071
 1820W        W 6020   6.708   7.867   3.627 -0.1948  0.3268  0.2633
 1821W        W 6021   8.423   5.545   3.464 -0.1740 -0.0745  0.0935
 1822W        W 6022   1.995   2.924   0.012 -0.1013  0.0874 -0.1186
 1823W        W 6023   0.654   7.925   4.075 -0.1733 -0.0727  0.1416
 1824W        W 6024   3.190   7.607  11.424 -0.1549 -0.1849 -0.2481
 1825W        W 6025   0.472   9.548  10.273  0.0393  0.1790  0.1166
 1826W        W 6026   4.066   6.375  11.768 -0.1493  0.3456 -0.0522
 1827W        W 6027   6.693   2.959   9.813  0.2544 -0.0798 -0.1903
 1828W        W 6028   9.966   8.579  12.900 -0.1496 -0.4500  0.1285
 1829W        W 6029   2.583   2.280  10.328 -0.1272 -0.0870  0.0709
 1830W        W 6030   5.821   5.395   3.403  0.2373  0.0818  0.2790
 1831W        W 6031   4.087   8.553  11.466 -0.2048 -0.0712 -0.1389
 1832W        W 6032   7.744   0.554   9.661  0.0537  0.2956  0.0247
 1833W        W 6033  10.346   8.672   3.259  0.1162 -0.2998 -0.1627
 1834W        W 6034   2.318   5.093  11.823  0.1749 -0.1383  0.0233
 1835W        W 6035   1.543   8.598   9.609  0.2529  0.2551  0.0988
 1836W        W 6036   6.441   2.483   3.861  0.0750 -0.2951 -0.1163
 1837W        W 6037   2.775   7.851   3.173 -0.0886  0.0960  0.2709
 1838W        W 6038   3.325   5.040   2.700  0.0167 -0.0567 -0.0192
 1839W        W 6039   9.498   0.306   0.119 -0.0201  0.1046  0.4448
 1840W        W 6040   5.251   2.654   8.514  0.1200 -0.1782  0.0362
 1841W        W 6041   5.201   4.731  11.637 -0.3367 -0.3747 -0.2775
 1842W        W 6042   1.286   1.166   2.734 -0.0883  0.1225 -0.0803
 1843W        W 6043   5.757   6.382  12.576 -0.0230  0.1427  0.3264
 1844W        W 6044   7.791   2.099   1.948  0.0432 -0.1089 -0.0660
 1845W        W 6045   7.750   3.534   9.702 -0.0764  0.1704  0.0706
 1846W        W 6046   9.125   8.640  10.350 -0.0186 -0.0813 -0.0458
 1847W        W 6047   4.270   7.640   0.407  0.0332 -0.0314  0.0642
 1848W        W 6048   1.316   2.333   1.147  0.1713 -0.2736 -0.3796
 1849W        W 6049   3.639   1.362  12.757 -0.0680  0.3560  0.0848
 1850W        W 6050   4.896   0.688   2.530  0.2810 -0.0313  0.1344
 1851W        W 6051   3.511   9.207  12.631  0.0334  0.0396  0.0740
 1852W        W 6052   2.314   1.458   0.765  0.0345  0.1745 -0.0847
 1853W        W 6053   7.057   9.265   3.133  0.2308  0.1161  0.0252
 1854W        W 6054   1.722   2.336  12.224  0.1503 -0.1420 -0.0474
 1855W        W 6055   5.473   1.380   1.438  0.0821  0.1640  0.2743
 1856W        W 6056   5.255   4.955  11.164  0.0717 -0.1833  0.0371
 1857W        W 6057   6.570   6.767   1.332 -0.2338  0.1695  0.1148
 1858W        W 6058   6.033   5.836   0.441  0.2217  0.3362 -0.0514
 1859W        W 6059   0.883   7.003   1.820  0.2225  0.2297  0.1805
 1860W        W 6060   8.532   0.572   4.472 -0.0369 -0.0120 -0.1672
 1861W        W 6061   6.587   3.144   0.090  0.2180 -0.0061 -0.2416
 1862W        W 6062   6.925   2.797   1.330  0.0862  0.1659 -0.1494
 1863W        W 6063   3.312   8.843  12.938 -0.0253  0.1850 -0.1754
 1864W        W 6064   7.854   2.125   3.345 -0.0596 -0.1762 -0.0017
 1865W        W 6065   2.888   3.442  12.036  0.0176 -0.0680  0.0401
 1866W        W 6066   0.946   2.322   3.416  0.1564 -0.2560  0.2038
 1867W        W 6067   1.197   2.608   2.040  0.4106 -0.0370  0.1220
 1868W        W 6068   9.910   8.589   8.767 -0.1402  0.0171 -0.2038
 1869W        W 6069   3.246   1.493  10.027  0.0881 -0.0563  0.0517
 1870W        W 6070   9.674   6.718  10.671 -0.3327  0.0621 -0.2004
 1871W        W 6071   0.268   0.496   4.245 -0.1052 -0.1413  0.0144
 1872W        W 6072   1.628   6.090   1.971 -0.0765 -0.1520 -0.0691
 1873W        W 6073   7.111   8.561   2.385  0.0079 -0.1596 -0.3162
 1874W        W 6074   4.087   1.547   1.465 -0.1455 -0.0349 -0.1467
 1875W        W 6075   7.558   8.953  12.087  0.4213 -0.1466 -0.0081
 1876W        W 6076  10.213   7.059  12.978 -0.3374  0.0162  0.3869
 1877W        W 6077   5.189   0.998  12.070 -0.2248 -0.0660  0.2359
 1878W        W 6078   8.912   9.170   2.491  0.1756  0.0549 -0.1159
 1879W        W 6079   9.033   9.781  10.808  0.1125 -0.1289  0.1783
 1880W        W 6080   3.334   3.180  11.361 -0.2420  0.0567 -0.0261
 1881W        W 6081   2.720   6.732   2.928  0.1600  0.4114  0.1076
 1882W        W 6082   9.623   9.027   9.177  0.1869  0.0434 -0.0288
 1883W        W 6083   4.743   9.037  12.899  0.0737 -0.1545 -0.2634
 1884W        W 6084   7.759  10.279  10.383  0.1768 -0.4162 -0.1906
 1885W        W 6085   7.485   6.013  10.700  0.2603  0.3413  0.0109
 1886W        W 6086   2.754   2.504  12.089  0.0999 -0.3749 -0.1390
 1887W        W 6087   7.436   1.439  11.610 -0.1724 -0.4319  0.1618
 1888W        W 6088   2.742   5.917   1.594 -0.1247  0.0016  0.0482
 1889W        W 6089   3.873   3.866   9.077  0.1734 -0.2194  0.2795
 1890W        W 6090   3.497   4.733   2.355 -0.2546 -0.0975  0.1011
 1891W        W 6091   3.833   8.685  11.064 -0.0886  0.0760 -0.2577
 1892W        W 6092   0.518   3.595   8.727 -0.2203  0.0801  0.2808
 1893W        W 6093   3.462   6.838   2.112  0.3247 -0.0027  0.0405
 1894W        W 6094   3.182   7.201   1.218  0.0288  0.0230  0.2591
 1895W        W 6095  10.294   8.148   3.606 -0.1544 -0.0527 -0.1053
 1896W        W 6096   2.960   7.520   0.877  0.0123  0.0325  0.0761
 1897W        W 6097   7.391   9.285  12.410  0.0374  0.2637  0.1008
 1898W        W 6098   4.052   0.748   9.781 -0.0812 -0.2469  0.0447
 1899W        W 6099   5.658   9.932   1.790  0.1090 -0.1960  0.0235
 1900W        W 6100   6.024  10.273   0.189  0.2238 -0.0421 -0.0719
 1901W        W 6101   9.503   6.748   2.019 -0.0300 -0.3875 -0.0310
 1902W        W 6102   5.683   3.124   4.146 -0.0615  0.2210 -0.0928
 1903W        W 6103   4.606   4.507  10.877  0.2287 -0.1973 -0.0299
 1904W        W 6104   6.604   7.574  11.824  0.0854  0.0546 -0.0327
 1905W        W 6105   7.762   9.158   3.632  0.0044 -0.0601 -0.1206
 1906W        W 6106   2.019   3.915  10.000 -0.2515  0.2865 -0.0877
 1907W        W 6107   3.929   7.049  10.155 -0.2251  0.0180 -0.3704
 1908W        W 6108   8.166   9.086  10.521 -0.1214 -0.1553  0.0952
 1909W        W 6109   1.118   6.935  12.283  0.0597  0.2347  0.4433
 1910W        W 6110   3.826   6.762  13.351 -0.0701  0.3776 -0.0258
 1911W        W 6111   9.157   9.423   4.202 -0.0040  0.1324  0.0936
 1912W        W 6112   0.733   4.087   3.075  0.0520 -0.1145  0.1185
 1913W        W 6113   8.386  10.163   3.227  0.2743 -0.0647  0.2423
 1914W        W 6114   0.234   8.949   9.930 -0.0664  0.2712  0.0067
 1915W        W 6115   2.216   3.406  11.341  0.1335  0.0928 -0.2821
 1916W        W 6116   0.364   4.103   0.053  0.1120 -0.1009 -0.1016
 1917W        W 6117   1.105   8.444   9.826  0.1201  0.2995 -0.3458
 1918W        W 6118   5.170   9.345   3.026 -0.1236  0.1730 -0.2900
 1919W        W 6119   6.841   2.310   2.580 -0.2385 -0.0807  0.0781
 1920W        W 6120   2.386   3.751  10.370 -0.1944  0.0434 -0.1127
 1921W        W 6121   0.760   4.256   9.490  0.0400  0.2029  0.2116
 1922W        W 6122   3.938   7.278   1.406 -0.0106  0.0188  0.2141
 1923W        W 6123   5.643   3.589   3.746  0.1689 -0.1360 -0.1526
 1924W        W 6124   5.217   0.706  11.680  0.0979 -0.1651 -0.0762
 1925W        W 6125   1.446   4.984   9.516  0.0048 -0.0198  0.1631
 1926W        W 6126   8.355   3.315   9.909  0.3417 -0.0380  0.2088
 1927W        W 6127   0.510   7.655  11.486  0.2876  0.2081  0.0055
 1928W        W 6128   6.897   9.518  12.453  0.0492 -0.1744 -0.0360
 1929W        W 6129   3.479   2.735  12.449 -0.1397 -0.0981 -0.2279
 1930W        W 6130  10.223  10.209   2.952  0.1786  0.0841 -0.4327
 1931W        W 6131   7.606   4.550   0.898  0.1065  0.2739 -0.0069
 1932W        W 6132   2.932   7.520   9.757  0.0026 -0.0135 -0.0635
 1933W        W 6133   9.366   5.881   4.819 -0.1194  0.3025 -0.0008
 1934W        W 6134   0.473   4.940   1.242  0.1961  0.0454 -0.2435
 1935W        W 6135   1.445   8.224  13.302 -0.2745  0.1469  0.0686
 1936W        W 6136   5.634  10.408   1.732 -0.1078  0.0735 -0.2254
 1937W        W 6137   2.158   6.168   2.043 -0.2221 -0.0004  0.0417
 1938W        W 6138   9.730   0.584   9.418 -0.1871  0.3207  0.3305
 1939W        W 6139   8.388   7.451   4.113 -0.1467  0.1898  0.2878
 1940W        W 6140   4.452   6.523   2.882  0.1572  0.0737 -0.0787
 1941W        W 6141   1.233   8.172   2.927 -0.0202 -0.1650 -0.0788
 1942W        W 6142   3.575   4.573  13.178  0.2401 -0.0214 -0.0542
 1943W        W 6143   1.799   3.674   1.843 -0.0614 -0.0044 -0.1646
 1944W        W 6144   2.266   3.545  12.752 -0.0636 -0.1268  0.5057
 1945W        W 6145   1.350   9.780  10.372 -0.1472 -0.0646  0.2317
 1946W        W 6146   0.605   7.220   9.739  0.0359  0.2317 -0.1018
 1947W        W 6147   6.309   6.993   0.096  0.1061  0.2318 -0.3601
 1948W        W 6148   8.810   0.607   3.638  0.0564  0.4692  0.1519
 1949W        W 6149   1.932   0.006   3.303 -0.3155  0.0303 -0.1647
 1950W        W 6150   9.475   6.893   2.539  0.1177 -0.3450  0.0443
 1951W        W 6151   2.414   9.464   1.409 -0.1405  0.4844 -0.0841
 1952W        W 6152   3.247   1.383  10.588 -0.0069  0.0223  0.1460
 1953W        W 6153   8.380   2.253   2.029 -0.0466  0.1435 -0.0526
 1954W        W 6154   7.755   6.784   2.136 -0.0737 -0.2245  0.2417
 1955W        W 6155   7.155   4.941   2.776 -0.0421  0.4328 -0.0208
 1956W        W 6156   7.815   5.049   4.539  0.2866 -0.3498 -0.1073
 1957W        W 6157   3.477   7.894   9.986 -0.2690 -0.1559 -0.0241
 1958W        W 6158   3.368   0.838  11.845  0.0332  0.0397 -0.0848
 1959W        W 6159   1.426   1.166   1.776  0.1468  0.0048  0.3638
 1960W        W 6160   3.952   8.117  11.700  0.1468  0.2069  0.1120
 1961W        W 6161   7.927   3.961  12.993  0.0264  0.1602  0.1868
 1962W        W 6162   8.167   9.326  13.439  0.0392  0.0064  0.1636
 1963W        W 6163   0.410   2.195   1.643 -0.1985  0.0130 -0.0784
 1964W        W 6164   9.541   0.651  11.646 -0.1033 -0.0904 -0.0943
 1965W        W 6165   7.342   9.676   3.133 -0.0197 -0.1771  0.1033
 1966W        W 6166  10.089   1.104   2.870 -0.1599 -0.0823  0.0354
 1967W        W 6167   5.615   9.709  11.942 -0.2679  0.3791 -0.0166
 1968W        W 6168   8.250   1.230   5.065 -0.1622 -0.0449  0.0602
 1969W        W 6169   9.971   6.142   2.076 -0.0323 -0.1799 -0.3691
 1970W        W 6170   6.598   4.353  12.951  0.1765  0.0689 -0.3674
 1971W        W 6171   1.452   0.574  12.775  0.0347  0.1380 -0.2742
 1972W        W 6172   6.411   5.244  10.429  0.2199  0.1548  0.0762
 1973W        W 6173   6.846   1.057   1.429 -0.2029 -0.1505 -0.0803
 1974W        W 6174   1.482   8.112   4.044 -0.0115 -0.1343  0.0311
 1975W        W 6175   4.005   7.976  10.660 -0.2717 -0.1111  0.0682
 1976W        W 6176   1.111   6.350  12.545  0.3769  0.0774 -0.1455
 1977W        W 6177   9.279   3.108   2.748 -0.0999  0.0794 -0.2542
 1978W        W 6178  10.267   0.351   4.167 -0.1568 -0.2178 -0.0387
 1979W        W 6179  10.173   0.701  10.148  0.2852 -0.0735  0.0815
 1980W        W 6180   8.949   7.674  11.439  0.2916  0.0250 -0.2157
 1981W        W 6181   0.679   5.300   2.902 -0.2399  0.0171  0.0901
 1982W        W 6182   6.732   3.446   9.824 -0.1577 -0.1046 -0.0930
 1983W        W 6183   8.191   5.398   7.888  0.0920 -0.0244 -0.0206
 1984W        W 6184   3.044   5.206  13.299  0.3532  0.0937 -0.2104
 1985W        W 6185   8.909   2.387  12.319 -0.0809 -0.0537 -0.0353
 1986W        W 6186   5.075   4.943   0.695  0.1129  0.1831  0.0324
 1987W        W 6187   5.038   2.894  10.634  0.0534 -0.0615  0.0794
 1988W        W 6188   9.620  10.464   2.135  0.0360 -0.0023  0.1523
 1989W        W 6189   4.311   4.831   4.392  0.2737  0.1941  0.0291
 1990W        W 6190   1.448   0.863  10.196 -0.2840 -0.4001  0.0938
 1991W        W 6191   1.588   0.423  11.072 -0.1026 -0.0076 -0.0905
 1992W        W 6192   2.992   0.821   3.434 -0.3160  0.1167 -0.3514
 1993W        W 6193   2.364   9.481   0.575  0.0521  0.1081  0.1288
 1994W        W 6194   4.703   4.654   1.104 -0.3478  0.4171 -0.1521
 1995W        W 6195   1.917   7.485   0.222 -0.1489  0.0638  0.0646
 1996W        W 6196   4.981   1.364  12.525  0.3663  0.1736  0.1387
 1997W        W 6197   0.553   4.026   4.172  0.2811 -0.0617 -0.0004
 1998W        W 6198   0.505   2.302  10.580 -0.1321  0.0079 -0.1999
 1999W        W 6199   4.541   5.162   4.110 -0.2035 -0.1356 -0.0760
 2000W        W 6200   4.359   0.852   3.350 -0.1362 -0.1077 -0.1741
 2001W        W 6201   1.337   4.806  11.349  0.2482 -0.1706  0.2811
 2002W        W 6202   2.337   6.786   4.243 -0.1830  0.2462  0.1962
 2003W        W 6203   3.754   8.727  10.210  0.3083  0.1557  0.2304
 2004W        W 6204   7.815   7.835  13.174 -0.0960 -0.3109 -0.0564
 2005W        W 6205   4.172   8.955   2.185 -0.1578  0.0976  0.0211
 2006W        W 6206   3.779   2.045  10.523 -0.2304 -0.1704 -0.0287
 2007W        W 6207   8.501   7.763  11.256  0.1275  0.0585 -0.1460
 2008W        W 6208   1.833   7.241   4.946 -0.0272  0.0831  0.1293
 2009W        W 6209  10.077   6.870  10.901 -0.0969 -0.1588  0.1910
 2010W        W 6210   3.661   0.061   1.510 -0.0469 -0.2626 -0.1316
 2011W        W 6211   3.440   8.803   9.731  0.1260  0.0928 -0.0046
 2012W        W 6212   3.816   1.662  12.008  0.1192 -0.1191 -0.0218
 2013W        W 6213   5.368   4.321   8.985 -0.1597 -0.0008 -0.0688
 2014W        W 6214   2.286   2.926   3.479  0.0814  0.0146 -0.0045
 2015W        W 6215   7.481   0.653  11.882  0.0832 -0.1621 -0.1741
 2016W        W 6216   6.805  10.370   2.383  0.1626  0.1086  0.0134
 2017W        W 6217   8.600   5.686   8.664 -0.1029  0.1667  0.0218
 2018W        W 6218  10.144   9.563   3.853  0.1683 -0.0721 -0.0763
 2019W        W 6219   9.781   9.573  11.386 -0.2077 -0.0455 -0.0065
 2020W        W 6220   7.549   5.168   2.480  0.0496  0.0391  0.1788
 2021W        W 6221   7.966   2.620   3.647 -0.0435 -0.0533 -0.0581
 2022W        W 6222   0.552   0.065   2.830  0.0781 -0.0267 -0.1032
 2023W        W 6223   1.783   9.898   1.475 -0.3031  0.0614 -0.2894
 2024W        W 6224   5.635   2.444  11.024 -0.1326  0.2597  0.1580
 2025W        W 6225   4.908   2.981   3.591  0.0846  0.2179 -0.0066
 2026W        W 6226   5.363   9.450  13.427  0.1032 -0.3388 -0.0540
 2027W        W 6227   8.125   0.184   1.199  0.0009  0.2305 -0.1873
 2028W        W 6228   5.401   7.342   3.856 -0.0983  0.1632  0.1325
 2029W        W 6229   2.957   3.884   9.591  0.2560 -0.1957  0.3835
 2030W        W 6230  10.317   7.682   3.772 -0.0498  0.0209  0.0357
 2031W        W 6231   3.483   3.030   8.450 -0.3268 -0.1600  0.0773
 2032W        W 6232   0.404   9.277   0.591  0.1850 -0.1545  0.1655
 2033W        W 6233   9.283   5.765  12.991 -0.0979 -0.0057  0.1521
 2034W        W 6234   8.647   6.044   4.281 -0.0628 -0.1492 -0.3214
 2035W        W 6235   7.931   5.249   9.209 -0.0869  0.0025 -0.0561
 2036W        W 6236   1.821   9.074   3.871  0.4397 -0.0808  0.0006
 2037W        W 6237   6.413   1.622   1.535 -0.0137  0.3247  0.0258
 2038W        W 6238   8.797   5.443   4.206  0.4121  0.1798 -0.2545
 2039W        W 6239   5.151   0.523  12.224  0.0476  0.1417 -0.0582
 2040W        W 6240   7.618   4.107   0.451  0.1534  0.1009 -0.1609
 2041W        W 6241   7.867   3.299   2.981  0.0574 -0.0039 -0.0001
 2042W        W 6242   4.821   5.893  11.442  0.0315 -0.2377  0.0346
 2043W        W 6243   3.999   2.514   1.744 -0.3133 -0.2478  0.0592
 2044W        W 6244   0.690   9.708   2.826  0.0487 -0.0241 -0.1123
 2045W        W 6245   6.123   1.398   9.759  0.2349  0.0698 -0.0193
 2046W        W 6246   2.293   1.807   2.144 -0.2252 -0.1347  0.1556
 2047W        W 6247   2.286   0.541   5.182  0.2251 -0.1737 -0.0314
 2048W        W 6248   8.963   5.951   8.903 -0.0606  0.0649 -0.3193
 2049W        W 6249   4.028   3.800   0.003  0.1101 -0.3315 -0.1123
 2050W        W 6250   1.873   1.491   2.079 -0.0181 -0.0116  0.0272
 2051W        W 6251   5.380   7.171  11.341  0.4945  0.0320  0.3466
 2052W        W 6252  10.357   4.749   3.848 -0.2104  0.0112 -0.3148
 2053W        W 6253   9.587   8.658   4.448 -0.2985  0.1594  0.2681
 2054W        W 6254   1.196   9.329   1.040 -0.1191 -0.2371 -0.2213
 2055W        W 6255   1.178   3.176  13.243 -0.1394 -0.1320 -0.2260
 2056W        W 6256   1.044   4.112   0.799  0.2329 -0.3558  0.1921
 2057W        W 6257   7.994   2.626   1.989  0.0707  0.1919 -0.0318
 2058W        W 6258  10.133   5.618   9.193 -0.1412 -0.2309  0.3375
 2059W        W 6259   1.754   1.429  10.988 -0.1787  0.0509 -0.2815
 2060W        W 6260   8.456   8.412   2.719 -0.1577  0.1185  0.2689
 2061W        W 6261   8.421   2.768   4.227  0.0375  0.0250 -0.0880
 2062W        W 6262   2.322   9.509  10.371  0.0446 -0.1676 -0.0499
 2063W        W 6263   8.972  10.372  11.349  0.1678 -0.1285  0.1027
 2064W        W 6264   5.387   2.547   4.791  0.5111 -0.1466  0.0550
 2065W        W 6265   4.678   2.660  12.605  0.1714  0.2873  0.4220
 2066W        W 6266   9.116   1.549   8.706  0.2379  0.1809 -0.2677
 2067W        W 6267   5.010   2.743   2.584 -0.1356 -0.1823  0.0079
 2068W        W 6268   0.439   1.057   9.507 -0.0768  0.2415 -0.2655
 2069W        W 6269   6.495   0.927   1.096 -0.1008 -0.1771 -0.1170
 2070W        W 6270   5.244   4.715   2.776  0.1656  0.0260 -0.2730
 2071W        W 6271  10.299   3.010   9.676 -0.0144 -0.0664 -0.0243
 2072W        W 6272   0.685   1.512  12.643 -0.2119 -0.3809 -0.0536
 2073W        W 6273   6.088  10.194   2.636  0.1350 -0.0426 -0.1130
 2074W        W 6274   5.254   3.274  12.554 -0.3616  0.0221 -0.2373
 2075W        W 6275   0.264   2.405  10.168 -0.1354 -0.1136 -0.0948
 2076W        W 6276   0.631   9.065  10.203  0.1855 -0.0412 -0.0791
 2077W        W 6277   7.876   5.715  12.377 -0.0678 -0.0704  0.1175
 2078W        W 6278   0.082   5.969   1.995  0.1659 -0.0913 -0.4952
 2079W        W 6279   4.892   5.484   1.311  0.3510 -0.0142  0.0146
 2080W        W 6280   2.260   7.644   2.830 -0.1871 -0.0811  0.3613
 2081W        W 6281   4.891   8.142   2.022 -0.0801 -0.3369  0.1722
 2082W        W 6282   2.201   7.877  12.262 -0.2316  0.3459  0.0897
 2083W        W 6283   2.202   4.356   2.044 -0.2074 -0.0024 -0.0268
 2084W        W 6284   6.572   4.997   3.775 -0.0768 -0.0499 -0.0533
 2085W        W 6285   4.888   1.994  13.239  0.1901  0.1751  0.0708
 2086W        W 6286   7.354   3.783   3.671  0.0367 -0.2158 -0.0177
 2087W        W 6287   5.771   2.281  13.072 -0.3012  0.0870  0.2226
 2088W        W 6288   1.051   7.784   1.066  0.1838 -0.0236  0.1119
 2089W        W 6289   1.319   8.585   3.653  0.0697 -0.0256  0.1405
 2090W        W 6290   3.476   8.723  13.448 -0.3752  0.0535 -0.1568
 2091W        W 6291   5.818   5.458   1.659 -0.1160 -0.0969 -0.0625
 2092W        W 6292   7.883   5.912   0.323 -0.0406  0.1576 -0.2954
 2093W        W 6293   6.063   8.414   1.284 -0.0661  0.3114 -0.0948
 2094W        W 6294   8.261   5.542  11.339  0.3202 -0.0395 -0.0272
 2095W        W 6295   7.800   3.144   1.568 -0.0846  0.2160 -0.0088
 2096W        W 6296   4.475   6.177  11.046  0.2658 -0.2468 -0.0384
 2097W        W 6297   3.571   6.788   9.961 -0.2753  0.2649  0.1077
 2098W        W 6298   8.791   3.642  13.079  0.1501 -0.4162  0.0920
 2099W        W 6299   1.511   9.910   2.734  0.0033  0.1547 -0.2607
 2100W        W 6300   0.844   9.864   9.825  0.1500  0.0990  0.1945
 2101W        W 6301   2.281   8.587  12.947  0.3113 -0.0344  0.2110
 2102W        W 6302   8.213   7.168   2.927 -0.0737  0.1444 -0.1488
 2103W        W 6303   9.561   6.380   2.533 -0.0920 -0.0391 -0.0864
 2104W        W 6304   5.870   2.992   1.253  0.4483  0.0635  0.1522
 2105W        W 6305  10.149  10.178  11.104 -0.0701  0.2605  0.1678
 2106W        W 6306   0.620   4.625   0.057  0.0724 -0.3727  0.0712
 2107W        W 6307   1.660   4.288  10.146  0.0966  0.2222  0.1213
 2108W        W 6308   5.141   2.945   4.988 -0.0904  0.0454 -0.1146
 2109W        W 6309   5.953   5.586   9.172 -0.0910  0.2389  0.2189
 2110W        W 6310   5.168   4.628   1.317 -0.2274  0.1095  0.1026
 2111W        W 6311   0.193   2.128   5.022  0.0320 -0.0398  0.5159
 2112W        W 6312   2.583   3.697  11.657  0.2516  0.2800 -0.1167
 2113W        W 6313   0.056   8.559   1.253  0.1009  0.1417 -0.2130
 2114W        W 6314   3.041   2.448   8.964  0.2235  0.0338  0.1063
 2115W        W 6315   4.860   8.508   1.715 -0.1650  0.0349  0.1734
 2116W        W 6316   9.077   1.686  10.082  0.0733  0.1563 -0.0394
 2117W        W 6317   0.119   6.076   2.895 -0.2312 -0.1984  0.0622
 2118W        W 6318   8.093   0.066   2.503  0.1192  0.3888  0.2910
 2119W        W 6319   5.406   1.502   9.229  0.0544  0.2307 -0.1191
 2120W        W 6320   0.438   3.510  11.989 -0.0297  0.1331 -0.1787
 2121W        W 6321   7.762   6.479   8.742 -0.3045 -0.1608 -0.1039
 2122W        W 6322   2.191   8.925   1.769  0.2139  0.2735  0.2366
 2123W        W 6323   4.906   7.778  10.240 -0.4102  0.2704 -0.0883
 2124W        W 6324   1.442  10.365   3.092  0.0198 -0.0358 -0.3513
 2125W        W 6325   9.040   9.992  12.200  0.2649 -0.1006  0.0757
 2126W        W 6326   2.033   4.815  13.424 -0.0540  0.2537 -0.3458
 2127W        W 6327   3.668   7.953   1.388 -0.1571  0.1528 -0.2808
 2128W        W 6328   4.563   2.093   2.187  0.2803  0.0958  0.0828
 2129W        W 6329   5.967   0.620  11.033  0.0325  0.1093 -0.1156
 2130W        W 6330   8.504   4.740   0.374 -0.1647  0.2793 -0.0268
 2131W        W 6331   8.332   7.433   1.521 -0.1891 -0.1195 -0.1763
 2132W        W 6332   0.450   5.081   0.015 -0.0788  0.3374  0.0494
 2133W        W 6333   6.152   0.661   3.445  0.0944  0.0142  0.1139
 2134W        W 6334   1.880   5.088  12.028  0.2559  0.2754  0.4021
 2135W        W 6335   4.163   8.877   1.350 -0.2239  0.1401  0.0749
 2136W        W 6336   7.006   5.805   3.537 -0.1010 -0.0841  0.1210
 2137W        W 6337   8.450   5.444  12.267 -0.0101  0.1975  0.0291
 2138W        W 6338  10.158   7.565   1.355 -0.3606  0.0362  0.2143
 2139W        W 6339   5.892   5.994  11.174  0.2807  0.0854 -0.2127
 2140W        W 6340   0.896   1.983  10.963  0.3116  0.0173  0.0334
 2141W        W 6341   6.981   3.904  12.284  0.0964  0.2535 -0.2022
 2142W        W 6342   4.405   3.757   0.475  0.0376 -0.0349  0.0096
 2143W        W 6343   1.296   7.860  10.602 -0.0041 -0.1516 -0.0040
 2144W        W 6344   3.412   8.081  12.713 -0.0191  0.2324  0.0291
 2145W        W 6345   0.674   0.706  10.026  0.0095 -0.2257  0.0375
 2146W        W 6346   9.901   0.688   4.048 -0.2862  0.2478  0.0718
 2147W        W 6347   3.954   7.051   2.262 -0.0484 -0.0247 -0.2235
 2148W        W 6348   4.254   5.969  13.275  0.1122 -0.0453 -0.0694
 2149W        W 6349   5.610   2.794   2.527 -0.0129 -0.0732 -0.1499
 2150W        W 6350   9.565   5.567   0.942 -0.0228 -0.3045 -0.0133
 2151W        W 6351   5.391   2.992   1.674 -0.1476  0.1263  0.1127
 2152W        W 6352   5.430   4.141  10.901  0.1313  0.0706  0.3540
 2153W        W 6353   7.796   4.237   3.059  0.3659  0.0317 -0.0355
 2154W        W 6354  10.416   6.545  12.259  0.0198  0.1447 -0.2510
 2155W        W 6355   3.120   6.378   2.931 -0.3255  0.1842 -0.0612
 2156W        W 6356   4.709   3.212  13.219  0.1621 -0.1396  0.1329
 2157W        W 6357   3.470   4.977   0.683  0.0654 -0.1396 -0.4100
 2158W        W 6358   9.362   8.496   0.847  0.0145  0.0577 -0.0932
 2159W        W 6359   4.117   2.809  10.231 -0.1770  0.1635 -0.2306
 2160W        W 6360   1.253   9.650  12.988 -0.1461  0.0140 -0.0034
 2161W        W 6361   4.644   9.788   2.030  0.2201 -0.0848 -0.0131
 2162W        W 6362   2.024   6.027  11.427  0.1982  0.1104 -0.0935
 2163W        W 6363   9.372   0.626  10.179  0.0458  0.1061 -0.2727
 2164W        W 6364   1.562   0.065  12.836  0.1129  0.3618  0.0451
 2165W        W 6365   9.588   3.913   3.658 -0.2750 -0.1855 -0.1067
 2166W        W 6366   3.551   7.106   3.029 -0.0280 -0.0752 -0.2346
 2167W        W 6367   6.763   3.698   5.088 -0.1585  0.1134 -0.0054
 2168W        W 6368   9.001   9.733   3.754 -0.0944 -0.1059  0.1274
 2169W        W 6369   7.058   6.194  11.095  0.0626  0.0660  0.0768
 2170W        W 6370   0.772   7.395   1.362 -0.0570 -0.2974  0.2680
 2171W        W 6371   6.371   7.872  11.529  0.0311 -0.2046  0.1910
 2172W        W 6372   4.309   3.446   1.490  0.1933 -0.3076  0.0831
 2173W        W 6373   9.115   2.804   1.073  0.2114 -0.3336 -0.0676
 2174W        W 6374   5.223   7.722  10.766 -0.0155 -0.2477  0.0768
 2175W        W 6375   0.547   2.256  12.238  0.1629 -0.3370  0.0899
 2176W        W 6376   1.103   7.740   3.864  0.1362 -0.0432 -0.2729
 2177W        W 6377   4.897   3.256   1.463  0.0645 -0.0143 -0.0027
 2178W        W 6378   0.801   3.884   9.131 -0.1369  0.0742 -0.1112
 2179W        W 6379   3.719   4.171   0.212  0.2163  0.0279 -0.4136
 2180W        W 6380   6.483   9.627   1.558  0.0510 -0.0869 -0.1127
 2181W        W 6381  10.225   4.261   0.626 -0.0711  0.0063  0.0215
 2182W        W 6382   5.352   0.234  12.556  0.2649 -0.0923  0.0444
 2183W        W 6383   1.421   6.405   1.478 -0.0295 -0.0690 -0.0090
 2184W        W 6384  10.406   9.085   3.931  0.2590  0.1102 -0.1361
 2185W        W 6385   1.986   6.572  12.440  0.4744 -0.3109 -0.0296
 2186W        W 6386   4.747   9.430  12.530  0.2566 -0.1810  0.0004
 2187W        W 6387   9.917   0.774   2.012 -0.1010  0.2782  0.2637
 2188W        W 6388   7.556   3.026   1.152  0.2104 -0.1177  0.0847
 2189W        W 6389   2.658   8.345  13.030 -0.2548  0.1709 -0.0310
 2190W        W 6390   8.484   2.180   0.000  0.0465 -0.1273  0.3126
 2191W        W 6391   3.246   8.035   2.695 -0.0913 -0.2206 -0.0670
 2192W        W 6392   8.209   0.130  10.322  0.3559  0.2253 -0.0857
 2193W        W 6393   9.234   5.640   9.594 -0.0223 -0.3775 -0.0522
 2194W        W 6394   3.184   8.932  12.364 -0.0947  0.2661  0.0386
 2195W        W 6395   0.545   0.391  13.105 -0.3889  0.0405  0.2071
 2196W        W 6396   3.657   1.775   3.924 -0.1421 -0.0575  0.2993
 2197W        W 6397   1.858   2.365   9.898 -0.0421  0.2016 -0.0104
 2198W        W 6398   6.172   1.002  11.255 -0.0886  0.1831 -0.1602
 2199W        W 6399   1.345   1.412   2.297 -0.2279  0.0603 -0.1641
 2200W        W 6400   0.586   2.855  11.400  0.0822  0.0901 -0.1522
 2201W        W 6401   4.996   7.305   0.057 -0.0746 -0.1329 -0.1268
 2202W        W 6402   9.284   1.510  12.660  0.1297  0.0188  0.1549
 2203W        W 6403   1.720   6.768  11.877  0.0137 -0.1030 -0.0031
 2204W        W 6404   7.738   0.060   0.857 -0.0182  0.0021 -0.0885
 2205W        W 6405   2.576   5.136   2.064 -0.0203 -0.0479  0.1890
 2206W        W 6406   3.626   6.432   0.425 -0.1581  0.1802 -0.0584
 2207W        W 6407   4.372   5.430   1.701  0.3778 -0.0363 -0.0383
 2208W        W 6408   3.007   2.956  12.666 -0.0609 -0.1291 -0.0509
 2209W        W 6409   7.213   3.363   9.882 -0.0884  0.0744 -0.1085
 2210W        W 6410   9.284   8.938   1.243 -0.0591  0.0396  0.0991
 2211W        W 6411   8.021   4.232   4.453  0.0754 -0.0564 -0.1805
 2212W        W 6412   1.343   4.051  12.581 -0.1048  0.1534  0.2077
 2213W        W 6413   7.730   4.940  10.593 -0.0221  0.0586 -0.2517
 2214W        W 6414   8.844   6.672   0.969 -0.1238 -0.0622 -0.0472
 2215W        W 6415   0.829   4.012  12.705  0.0864  0.0978  0.1417
 2216W        W 6416   5.735   0.556  12.657 -0.1124  0.0397 -0.0892
 2217W        W 6417  10.280   9.462   4.307  0.1178  0.1678 -0.2705
 2218W        W 6418   6.829   4.510   3.487  0.2138  0.0099 -0.2062
 2219W        W 6419   6.808   2.707   9.398  0.2012  0.0352  0.1141
 2220W        W 6420   9.724   8.788   2.531 -0.0077 -0.0532  0.1128
 2221W        W 6421   3.005   0.147   1.276 -0.1067  0.2691  0.0374
 2222W        W 6422   3.895   2.554  10.727  0.2427 -0.4034 -0.0402
 2223W        W 6423   1.485   3.119  12.641  0.2236  0.1764  0.2062
 2224W        W 6424   8.194   5.523   0.167 -0.0786 -0.0456 -0.1220
 2225W        W 6425   4.727   2.736   1.290 -0.4084  0.0138 -0.1769
 2226W        W 6426   3.905   4.138   1.556 -0.0107 -0.4153 -0.3538
 2227W        W 6427   4.665   0.146   3.607  0.1738  0.0777  0.5202
 2228W        W 6428   1.730  10.044   1.014 -0.2309 -0.1538 -0.0821
 2229W        W 6429   7.588   2.357  13.052  0.2818  0.2195 -0.1196
 2230W        W 6430   1.262   1.913   1.406  0.2977  0.4550 -0.2664
 2231W        W 6431   9.464   2.721   2.445 -0.2875 -0.1834 -0.1680
 2232W        W 6432   9.372   3.244   0.799 -0.2722 -0.3530 -0.0226
 2233W        W 6433   5.918   8.678   2.951 -0.0600 -0.2361 -0.3574
 2234W        W 6434   0.041   7.406   1.700 -0.0291  0.0237 -0.1067
 2235W        W 6435   9.308   9.195   1.666 -0.5008  0.0111  0.0620
 2236W        W 6436   8.099   4.539   3.424 -0.0774  0.2411  0.0571
 2237W        W 6437   5.933   5.906  13.003 -0.1567  0.3230  0.2383
 2238W        W 6438   2.385   6.412  12.713 -0.0587 -0.1884  0.1276
 2239W        W 6439   8.074   8.079  11.734  0.0823 -0.0811 -0.0756
 2240W        W 6440   4.368   6.682  13.285 -0.1180  0.1319 -0.1534
 2241W        W 6441   7.187   5.394   9.312 -0.0187  0.0514  0.4095
 2242W        W 6442   4.770   5.031  11.498  0.0820  0.1234  0.2029
 2243W        W 6443   2.398   0.693  11.682 -0.1545 -0.2569 -0.0443
 2244W        W 6444  10.323   8.266   4.148  0.0638 -0.2083 -0.2614
 2245W        W 6445   2.310   4.023  12.953  0.0207 -0.0153  0.1780
 2246W        W 6446  10.114   5.090   9.115  0.3799 -0.0959 -0.2032
 2247W        W 6447   6.730   0.532  10.917 -0.5046 -0.2185 -0.4096
 2248W        W 6448   2.245   4.536  10.976  0.2043 -0.1113  0.0042
 2249W        W 6449   3.231   9.503   3.651 -0.1522 -0.1804 -0.0047
 2250W        W 6450   6.608   5.680  13.408  0.0175 -0.2435  0.1543
 2251W        W 6451   4.752   6.516   1.772 -0.2916 -0.3298  0.1094
 2252W        W 6452   3.281   7.181   0.019  0.0125 -0.1524 -0.3502
 2253W        W 6453   0.557   4.490   3.444 -0.1291  0.0785  0.1299
 2254W        W 6454   1.087   9.329   2.177 -0.0788 -0.0528  0.1451
 2255W        W 6455   2.802   5.972  12.633 -0.0783 -0.1490  0.0668
 2256W        W 6456   1.331   4.534   9.279  0.0774  0.1329  0.1862
 2257W        W 6457   1.508   5.959  11.758 -0.4370  0.0690 -0.1881
 2258W        W 6458   1.540   5.935   3.888 -0.2391  0.4286 -0.2076
 2259W        W 6459   9.046  10.207   1.488 -0.0634 -0.1535  0.1029
 2260W        W 6460   0.073   3.965   2.521  0.0368  0.1166 -0.2892
 2261W        W 6461   9.837   8.289   0.934 -0.1588  0.0206  0.0962
 2262W        W 6462   8.408   7.703  13.103 -0.1090 -0.1392 -0.1458
 2263W        W 6463   7.180   8.751  10.078  0.0990  0.2139  0.1232
 2264W        W 6464   6.863   9.900  12.832  0.1328  0.0265 -0.1683
 2265W        W 6465   1.069   3.923  11.221 -0.1142 -0.0228 -0.2244
 2266W        W 6466   5.248   6.870   0.062  0.1798  0.1128 -0.0010
 2267W        W 6467   4.314   3.927   1.285 -0.1278  0.1906 -0.1435
 2268W        W 6468   3.852   1.113  11.875 -0.1156  0.0967  0.1145
 2269W        W 6469   8.867   3.284  10.095  0.2389 -0.2497 -0.2962
 2270W        W 6470   4.721   5.377   9.987  0.2484 -0.1331  0.1087
 2271W        W 6471   1.516   8.186  10.014 -0.3047 -0.2292  0.0848
 2272W        W 6472   2.948   4.443   9.962  0.0857 -0.2662  0.0518
 2273W        W 6473   5.577   1.901   3.565 -0.0561  0.0344  0.2077
 2274W        W 6474   9.484   1.998  11.902  0.2146  0.1050  0.0290
 2275W        W 6475   3.971   0.072  11.900  0.0227 -0.0852 -0.2784
 2276W        W 6476   4.795   2.472   3.701 -0.3005 -0.0683  0.0467
 2277W        W 6477   6.069   7.538  11.813  0.1337  0.1887  0.3183
 2278W        W 6478   1.205   6.908  13.359  0.0338  0.1126 -0.2286
 2279W        W 6479   3.236   1.454   2.070 -0.0912 -0.1864  0.0687
 2280W        W 6480   0.283   9.508  10.817 -0.0206  0.4026 -0.0289
 2281W        W 6481   2.485   7.215   2.873  0.1141  0.0339  0.0610
 2282W        W 6482   1.160  10.213  10.508 -0.1389  0.0975  0.3061
 2283W        W 6483   9.978   1.592  10.472  0.1619  0.1060  0.0348
 2284W        W 6484   7.580   8.232  12.838  0.0716 -0.1542  0.0196
 2285W        W 6485   5.627   6.870   3.740  0.1555  0.1565 -0.1864
 2286W        W 6486   3.783   9.898   0.882 -0.1791 -0.0147 -0.4012
 2287W        W 6487   3.646   7.816  11.323 -0.0762 -0.1772  0.1582
 2288W        W 6488  10.383   5.114   2.569 -0.0972  0.0265 -0.0711
 2289W        W 6489   0.185   3.530  10.975  0.3342  0.1091 -0.0520
 2290W        W 6490   2.706   3.124   9.113  0.0171  0.0143 -0.2379
 2291W        W 6491   3.996   2.641  12.434  0.3564 -0.0209  0.2345
 2292W        W 6492   9.649   9.809  12.607  0.0736  0.1873 -0.0546
 2293W        W 6493   3.707   3.475   2.137 -0.0818 -0.1463 -0.1585
 2294W        W 6494   5.960   0.512   1.333 -0.3741  0.0871  0.0983
 2295W        W 6495   7.845   8.454  11.375  0.1687  0.0606  0.1353
 2296W        W 6496   5.788   2.349  10.442 -0.1434 -0.2217  0.0122
 2297W        W 6497   9.849   6.959   3.529 -0.2884  0.1161  0.1043
 2298W        W 6498   3.659   4.663   1.650  0.0521 -0.2026  0.1033
 2299W        W 6499   7.939   2.179   1.034  0.0685 -0.1552  0.2649
 2300W        W 6500   8.879   8.238   9.076 -0.0251 -0.0378  0.2147
 2301W        W 6501   8.079   9.904   3.851  0.1502  0.1350  0.0214
 2302W        W 6502   7.988   7.712   1.720 -0.0606 -0.0452 -0.1645
 2303W        W 6503   0.555   9.963   8.917 -0.0030  0.0680  0.3722
 2304W        W 6504   4.669   4.744  12.456 -0.2862 -0.1687  0.3095
 2305W        W 6505   8.928   0.433   3.132  0.1018 -0.3435  0.0674
 2306W        W 6506   2.220   6.625  10.706  0.1244 -0.1054  0.1002
 2307W        W 6507   2.709   4.360  11.171  0.1275 -0.1211 -0.1364
 2308W        W 6508   4.858   0.303  13.188  0.4008  0.0095 -0.2550
 2309W        W 6509   0.501   3.523   4.459 -0.0412  0.0716  0.0874
 2310W        W 6510   9.743   7.586  11.884  0.0931  0.2977 -0.1793
 2311W        W 6511   2.836   4.448  10.543 -0.0129 -0.2384  0.2937
 2312W        W 6512   0.153  10.289  10.181 -0.2669  0.0999  0.1575
 2313W        W 6513   9.652   1.823  10.805  0.1743 -0.0390 -0.1149
 2314W        W 6514   8.608   8.537   4.089  0.1893 -0.2193  0.2465
 2315W        W 6515   7.590   9.835  13.318 -0.2824 -0.0655  0.1432
 2316W        W 6516   5.233   2.114  11.062 -0.0002 -0.1319  0.1021
 2317W        W 6517   7.667   9.369   0.069 -0.1415 -0.0949  0.2103
 2318W        W 6518   7.127   4.475   9.102  0.1291  0.3188  0.3056
 2319W        W 6519   0.484   6.809   1.517  0.1241  0.0342  0.2865
 2320W        W 6520   4.292   5.814   2.095 -0.0667  0.2523  0.1148
 2321W        W 6521   1.502   5.456   9.525 -0.2386  0.2054 -0.0628
 2322W        W 6522   4.623   9.561   1.009  0.1159  0.2902 -0.0150
 2323W        W 6523   2.394   1.293  10.334 -0.3041 -0.2152  0.1677
 2324W        W 6524   9.272   5.346   1.307 -0.0758 -0.3605 -0.1416
 2325W        W 6525   1.596  10.308  11.937 -0.0730 -0.0944 -0.2865
 2326W        W 6526   9.511   1.637   3.226  0.0556 -0.3982  0.1608
 2327W        W 6527   4.702   5.677   2.342 -0.0500 -0.0756 -0.1165
 2328W        W 6528   9.593   6.877   1.551  0.1775  0.1291  0.0786
 2329W        W 6529   9.235   4.394   1.567 -0.4548 -0.0875  0.0407
 2330W        W 6530   3.025   5.957   9.627  0.0388  0.5067  0.0974
 2331W        W 6531   9.468   4.942   1.626  0.0434  0.2918  0.0632
 2332W        W 6532   9.319  10.205  10.840 -0.2921 -0.3388 -0.1229
 2333W        W 6533   0.539   6.497   1.103 -0.0977  0.0086  0.2261
 2334W        W 6534   7.411   3.889  11.203 -0.2062  0.3360 -0.0434
 2335W        W 6535   3.837   0.775   2.475  0.0308  0.0908 -0.0106
 2336W        W 6536   1.567   7.687   2.914  0.2460  0.0620 -0.1284
 2337W        W 6537   8.289   4.803  10.591 -0.0012 -0.0788  0.3044
 2338W        W 6538   7.310   1.226  13.003  0.0901  0.0016 -0.2259
 2339W        W 6539   2.745   2.908   3.295 -0.2525  0.0107 -0.1671
 2340W        W 6540   9.161  10.255   9.191 -0.0654 -0.1571  0.0328
 2341W        W 6541  10.350   3.170   0.406 -0.1283  0.0742  0.1963
 2342W        W 6542   4.720   1.212   0.842 -0.1510 -0.0484 -0.0612
 2343W        W 6543   4.325   2.758   0.333 -0.0479  0.2655  0.1505
 2344W        W 6544   1.902   6.767   3.539  0.2745 -0.2468 -0.0898
 2345W        W 6545   1.760   0.083   0.850 -0.0858 -0.1894 -0.1725
 2346W        W 6546   0.919   3.236  12.021  0.3263 -0.1462 -0.4058
 2347W        W 6547   4.633   8.131  12.444  0.0029 -0.1472  0.0835
 2348W        W 6548   4.431   3.005   1.620 -0.1102 -0.3316 -0.2184
 2349W        W 6549   2.793   1.834   9.587 -0.0139  0.0096 -0.5618
 2350W        W 6550   4.397   3.269   2.684 -0.3443 -0.1565  0.1343
 2351W        W 6551   1.776   9.535   9.589  0.4071 -0.0122 -0.1342
 2352W        W 6552   7.547   4.264  10.782 -0.0624 -0.0195 -0.5111
 2353W        W 6553   4.721   7.883   0.130  0.1146  0.3359 -0.1128
 2354W        W 6554   4.280   4.254   2.422  0.2859 -0.2661  0.3304
 2355W        W 6555  10.425   8.060   2.634 -0.0445  0.2755  0.2385
 2356W        W 6556   6.365   5.275   3.353 -0.0179 -0.3866  0.2356
 2357W        W 6557   2.431   6.831   1.538  0.0314  0.1098 -0.1771
 2358W        W 6558  10.236   8.731   2.795 -0.1836  0.0892  0.1350
 2359W        W 6559   5.872   2.426   4.793 -0.1105  0.1262  0.0275
 2360W        W 6560   6.655   5.178   9.414  0.1770 -0.3593  0.1098
 2361W        W 6561   5.778  10.479  12.458  0.3365  0.1607  0.1217
 2362W        W 6562   7.787   2.722   3.193  0.2557 -0.1857 -0.1421
 2363W        W 6563   1.707   7.778  10.278  0.1294  0.0928 -0.0879
 2364W        W 6564   8.181   4.565   8.533  0.1365  0.4581  0.2147
 2365W        W 6565   9.894   9.036   3.580 -0.2250 -0.2939  0.1068
 2366W        W 6566   2.542   7.810   9.752  0.0469 -0.0314  0.0627
 2367W        W 6567   8.123   8.075   3.063  0.1201  0.3596 -0.1877
 2368W        W 6568  10.232   5.399   3.402 -0.1278  0.0369 -0.1432
 2369W        W 6569   7.718   2.575  12.200  0.2565  0.2213 -0.0169
 2370W        W 6570   7.261   4.444   0.530  0.2681  0.1091 -0.0182
 2371W        W 6571   3.074  10.418  11.699 -0.0161  0.1308  0.0450
 2372W        W 6572   8.543   8.171   3.507 -0.3266  0.2642 -0.0834
 2373W        W 6573   1.089   9.373   0.463 -0.2551 -0.3461 -0.1529
 2374W        W 6574   0.673   1.785   0.121 -0.0965 -0.1662  0.1476
 2375W        W 6575   9.546   8.406   8.471 -0.1490 -0.3588 -0.2269
 2376W        W 6576   4.799   3.445   0.607 -0.1070  0.0867 -0.2084
 2377W        W 6577   8.442  10.295  13.131 -0.2040 -0.2630  0.0678
 2378W        W 6578   7.449   9.937   2.645 -0.2477  0.1078  0.3069
 2379W        W 6579   6.415   6.320   9.599  0.0630  0.1166 -0.0001
 2380W        W 6580   8.905   2.373   2.276 -0.0376  0.0188 -0.1665
 2381W        W 6581   2.979   2.410   4.163  0.1026 -0.0705  0.1355
 2382W        W 6582   8.473   7.522   1.066 -0.3612 -0.0469 -0.0862
 2383W        W 6583   0.418   5.987   4.483  0.1237  0.0552 -0.0394
 2384W        W 6584   3.556   3.631   3.399 -0.1408 -0.0767 -0.0664
 2385W        W 6585   3.322   3.925   9.910 -0.3171 -0.0598  0.0891
 2386W        W 6586   2.378   1.811  10.441  0.0154  0.0418  0.2246
 2387W        W 6587   2.429   4.698   9.685  0.0896 -0.0985 -0.1396
 2388W        W 6588   3.181   5.062  10.764 -0.3019 -0.0936  0.1549
 2389W        W 6589   0.657   4.315   0.479 -0.1287 -0.0941  0.2186
 2390W        W 6590   0.615   8.492  11.106  0.0822 -0.1770  0.1313
 2391W        W 6591   9.653   3.523  10.545 -0.0107 -0.1319 -0.0787
 2392W        W 6592   8.150   8.471   2.325 -0.0135  0.0625 -0.2625
 2393W        W 6593  10.316   8.363   9.849 -0.2504  0.1681  0.3097
 2394W        W 6594  10.280   0.128   8.765 -0.1133 -0.2761  0.2435
 2395W        W 6595   4.511   2.387  11.687  0.2609  0.0208  0.0266
 2396W        W 6596   6.914   8.826  11.280 -0.0572 -0.1959 -0.1253
 2397W        W 6597   9.028   6.444  11.990 -0.1723 -0.3009 -0.1828
 2398W        W 6598   0.856   6.637  10.907 -0.1141 -0.1595  0.1842
 2399W        W 6599   1.744   2.093   3.118  0.1547  0.0137 -0.2168
 2400W        W 6600   6.843   9.058  10.662 -0.2215  0.0061  0.2811
 2401W        W 6601   3.771  10.292  11.119 -0.2329 -0.0079 -0.0706
 2402W        W 6602   1.465   5.989   3.099  0.1111  0.3519 -0.1385
 2403W        W 6603  10.252   3.693  11.256 -0.0769  0.0762 -0.1972
 2404W        W 6604   7.661   3.431   3.895  0.3205  0.2081  0.4318
 2405W        W 6605   5.935   4.108  10.800  0.0420  0.0414  0.0003
 2406W        W 6606   9.793   3.537   3.333 -0.1501  0.0792  0.1455
 2407W        W 6607   5.311   0.431   9.465  0.0824 -0.0383  0.1568
 2408W        W 6608   9.764   8.583  11.834  0.2079  0.3097 -0.0024
 2409W        W 6609   6.907   4.034   4.209 -0.0029  0.2085 -0.0812
 2410W        W 6610   7.307   8.534   4.574  0.3097 -0.0973 -0.1212
 2411W        W 6611   6.910   5.199  11.229  0.0855 -0.2258 -0.4294
 2412W        W 6612   4.634   2.397   1.733 -0.2092 -0.2608  0.1439
 2413W        W 6613   8.502   5.171   0.100  0.1685  0.1500  0.1918
 2414W        W 6614   0.002   0.482   1.558 -0.0504 -0.0313 -0.1636
 2415W        W 6615   3.374   5.303  12.737 -0.1604  0.0722  0.0525
 2416W        W 6616   3.631   9.691   1.353 -0.1308 -0.0353  0.0560
 2417W        W 6617   0.643   6.200   2.257  0.0458  0.1741  0.1269
 2418W        W 6618   5.087   3.463  12.118  0.3645  0.0915 -0.2926
 2419W        W 6619   7.345   9.799   0.293  0.0464 -0.1728  0.1683
 2420W        W 6620   9.631   7.857   4.509 -0.0467  0.2030  0.2087
 2421W        W 6621   7.373   4.298   3.392  0.2513  0.0522  0.0549
 2422W        W 6622   3.096   0.092   2.102 -0.1834  0.0265  0.1916
 2423W        W 6623   2.813   9.741  11.163  0.0161 -0.0949 -0.2487
 2424W        W 6624   4.127   7.167  11.161 -0.0225 -0.1303 -0.3217
 2425W        W 6625   0.435   3.834  13.013 -0.2272  0.0673 -0.2617
 2426W        W 6626   6.081   7.344   0.772  0.1627 -0.4534  0.1503
 2427W        W 6627   5.630   5.674   2.409 -0.1973 -0.0035  0.0340
 2428W        W 6628   6.960  10.449   0.032 -0.0431 -0.0507 -0.2932
 2429W        W 6629   0.353   5.884  10.732 -0.5335 -0.1463 -0.0060
 2430W        W 6630   3.302   2.586  11.139 -0.1011 -0.0997 -0.0207
 2431W        W 6631   5.132   5.544   0.061  0.0919 -0.0490 -0.0851
 2432W        W 6632  10.277   6.404   5.261  0.1635  0.0455  0.0909
 2433W        W 6633   3.422   7.745   0.068  0.1090 -0.4222  0.1774
 2434W        W 6634   5.765   9.147   1.751 -0.0399 -0.2775  0.1241
 2435W        W 6635   9.955  10.026  13.043 -0.1055  0.2211 -0.2323
 2436W        W 6636   2.267   9.368   4.004 -0.0311  0.2190  0.0514
 2437W        W 6637   0.611   9.263  11.183 -0.0128  0.0250  0.1804
 2438W        W 6638   3.141   3.900   0.976 -0.2325  0.2056  0.3132
 2439W        W 6639   7.844   6.024  12.008 -0.0799 -0.1155 -0.1438
 2440W        W 6640   1.255  10.189   9.906 -0.1733 -0.1486 -0.1079
 2441W        W 6641   5.225   8.859  11.634 -0.2147  0.2757 -0.2546
 2442W        W 6642   6.482   1.875   0.630  0.2060 -0.3288 -0.0608
 2443W        W 6643   3.772   3.120   0.010 -0.0080 -0.2659 -0.1019
 2444W        W 6644   7.145   2.135  12.803  0.2301  0.1487 -0.0650
 2445W        W 6645   3.061   2.379   0.865  0.2553 -0.0713  0.0676
 2446W        W 6646   9.943   4.231   9.655  0.1185 -0.0406 -0.0532
 2447W        W 6647   8.427   4.336   8.943 -0.2721 -0.2475  0.3159
 2448W        W 6648   7.745   5.703   2.247  0.1164  0.0709 -0.0420
 2449W        W 6649   6.535   2.901   8.980  0.3047 -0.3830 -0.1279
 2450W        W 6650   1.543   9.507   0.255  0.0838 -0.0029  0.0801
 2451W        W 6651   2.924   3.998  11.395 -0.0883  0.2499  0.1292
 2452W        W 6652   2.697   0.084   0.892 -0.1664 -0.2394  0.1622
 2453W        W 6653   9.482   0.705  12.533 -0.2199 -0.0602 -0.2807
 2454W        W 6654   3.812   0.221   3.120 -0.2600  0.0751 -0.0359
 2455W        W 6655   0.814   0.464   3.136 -0.0724 -0.0506  0.2353
 2456W        W 6656   4.218   4.425   2.959  0.1788  0.0804 -0.1455
 2457W        W 6657   9.082   2.861  12.264 -0.0316  0.0607  0.2377
 2458W        W 6658   3.601   8.220  10.399 -0.0758  0.4057  0.0648
 2459W        W 6659  10.101   9.060  12.527 -0.1786  0.0170 -0.3025
 2460W        W 6660   2.740   2.809   4.898 -0.1156  0.1133 -0.0178
 2461W        W 6661   0.521   6.316   5.577 -0.0035  0.0578 -0.2310
 2462W        W 6662   4.527   5.010  12.894 -0.1940 -0.0940 -0.0163
 2463W        W 6663   1.956   6.520   4.513 -0.0008 -0.0900 -0.0304
 2464W        W 6664   4.779  10.120   3.449  0.0858  0.2024 -0.3408
 2465W        W 6665   3.693   0.839  13.216  0.2007  0.1613  0.2092
 2466W        W 6666   2.066   7.349   4.224 -0.3062  0.2298  0.0969
 2467W        W 6667   4.883   7.903  11.101 -0.1268 -0.1111 -0.0426
 2468W        W 6668   2.662   2.967  11.013 -0.0528  0.1818 -0.1431
 2469W        W 6669   8.066   2.855   2.791 -0.3650  0.0271  0.2117
 2470W        W 6670   9.483   9.023   4.093 -0.0279 -0.0199  0.0769
 2471W        W 6671   6.371   5.746  10.444  0.3156 -0.3071 -0.1162
 2472W        W 6672   5.140   6.782  11.153 -0.3251 -0.0168 -0.1821
 2473W        W 6673   4.521   4.601   9.394  0.1491 -0.0753  0.1246
 2474W        W 6674   9.509   8.222   1.285 -0.3492 -0.0544 -0.2896
 2475W        W 6675   1.070   2.406   9.554 -0.0372 -0.1322 -0.0153
 2476W        W 6676   0.510   5.900   4.006  0.0762  0.0669  0.0856
 2477W        W 6677   9.821   2.049   4.456 -0.1778 -0.2339 -0.0384
 2478W        W 6678   6.958   1.628   3.217 -0.0064 -0.2426  0.1870
 2479W        W 6679   9.972   0.650   5.590 -0.0900  0.0095  0.2500
 2480W        W 6680   9.904   1.558   4.576  0.1598  0.2848  0.2562
 2481W        W 6681   1.454   4.501   1.095 -0.0647 -0.3017 -0.3441
 2482W        W 6682   8.873   6.013   9.481 -0.2176  0.0183 -0.1915
 2483W        W 6683   8.800   3.379   1.508  0.2210 -0.2928  0.1320
 2484W        W 6684   9.249   5.967  10.591  0.1229  0.1125 -0.1737
 2485W        W 6685   0.360   4.744  10.649 -0.0389  0.2240  0.1288
 2486W        W 6686   0.447   7.530  12.588  0.0200 -0.2075  0.0895
 2487W        W 6687   9.884   2.351   5.414 -0.0846 -0.1617  0.0357
 2488W        W 6688   2.149   2.321   2.190 -0.1400  0.0881  0.1048
 2489W        W 6689   5.986   9.551   1.554 -0.0646  0.2039 -0.0458
 2490W        W 6690   5.382   7.531  12.745 -0.0433  0.1833  0.0930
 2491W        W 6691   4.005   3.921  12.737  0.0745 -0.0968 -0.0182
 2492W        W 6692   8.983   1.435   0.361 -0.1149 -0.0259 -0.1365
 2493W        W 6693   2.434   4.437  13.241  0.1396  0.2289 -0.2725
 2494W        W 6694   2.391   0.365   2.074 -0.2286  0.2006  0.3621
 2495W        W 6695   0.858   6.074  10.506  0.1178  0.0857 -0.0308
 2496W        W 6696   3.742   1.741   1.796 -0.2796  0.0127  0.1665
 2497W        W 6697   4.307   9.590  12.346 -0.4047 -0.4903 -0.0321
 2498W        W 6698   4.967   0.130   9.769  0.1692  0.3519  0.0124
 2499W        W 6699   4.898   4.085  10.832  0.3290 -0.1261 -0.2303
 2500W        W 6700   8.794   6.988   4.336  0.0226  0.1660 -0.0803
 2501W        W 6701   3.307   5.308   0.262  0.1115  0.2087  0.0632
 2502W        W 6702   5.958   1.608   2.927 -0.1033  0.1529  0.1134
 2503W        W 6703   1.139   0.586   5.047  0.0198 -0.0295  0.6179
 2504W        W 6704   9.246   7.412  11.846 -0.5371 -0.0070  0.1084
 2505W        W 6705   4.118   1.963   2.589  0.0984  0.0912  0.3477
 2506W        W 6706   0.431   9.340   4.279 -0.0860 -0.0480 -0.1842
 2507W        W 6707   1.294   0.333  11.948 -0.1003  0.1999 -0.0313
 2508W        W 6708   2.713   6.568  11.816  0.1091  0.3006 -0.0662
 2509W        W 6709  10.218   6.358   3.052 -0.2415  0.0174  0.1292
 2510W        W 6710   7.138  10.353   2.751 -0.1037  0.2072  0.0463
 2511W        W 6711   4.802   9.066  11.641  0.2589 -0.3892 -0.1565
 2512W        W 6712   9.871  10.475   9.485  0.0660  0.0339  0.2606
 2513W        W 6713  10.082  10.170   1.161 -0.0376 -0.1651 -0.0574
 2514W        W 6714   1.924   4.095   3.963  0.0401  0.1888  0.1806
 2515W        W 6715   1.728   5.893   4.362 -0.3861 -0.1147  0.0530
 2516W        W 6716   0.211   9.443   1.406  0.1396  0.0854  0.0893
 2517W        W 6717   2.738   3.577   0.945 -0.1375  0.0075 -0.0597
 2518W        W 6718   7.442   4.125   4.283 -0.3376  0.1148  0.1350
 2519W        W 6719   8.544   0.200  12.777 -0.0469  0.1283  0.2639
 2520W        W 6720  10.261   2.574   2.258  0.3993 -0.0624 -0.1423
 2521W        W 6721   0.452   8.008  11.017 -0.1678  0.3133  0.0779
 2522W        W 6722  10.459   9.875   1.302 -0.1920 -0.0801 -0.1594
 2523W        W 6723   6.946   8.595   1.318 -0.2780  0.3170  0.0020
 2524W        W 6724   4.453   4.042   3.891 -0.1400 -0.1945 -0.2112
 2525W        W 6725   4.591   4.466  12.957  0.0851  0.0129 -0.1998
 2526W        W 6726   1.250   0.654   3.531  0.0194 -0.0603 -0.0756
 2527W        W 6727   6.412   8.386  13.008  0.0792  0.0436 -0.2930
 2528W        W 6728   9.757   9.521  10.590  0.0607 -0.1056 -0.1414
 2529W        W 6729   2.668   2.689   1.442 -0.0608 -0.0499 -0.1895
 2530W        W 6730  10.329   3.217  11.300 -0.1516  0.1070 -0.2100
 2531W        W 6731   5.456   4.428   3.174 -0.2879  0.0440 -0.2026
 2532W        W 6732   1.858   4.110  12.731  0.2436  0.0180  0.0445
 2533W        W 6733   9.213   8.554   3.210 -0.1485 -0.1305  0.1885
 2534W        W 6734   8.778   2.604   0.732 -0.1835 -0.0463  0.1086
 2535W        W 6735   0.699   8.827  12.035 -0.1837 -0.0254 -0.0334
 2536W        W 6736   9.680  10.059   0.697  0.2207  0.0723  0.1893
 2537W        W 6737   3.634   8.394   1.774  0.1836  0.2958  0.0277
 2538W        W 6738   6.394   9.556  10.175 -0.1689  0.1578  0.4803
 2539W        W 6739   4.984   7.062  10.696  0.2212  0.2756  0.1852
 2540W        W 6740   9.853   4.066  12.962  0.0401  0.0620  0.0104
 2541W        W 6741   0.958   0.897   0.286 -0.1393  0.0806  0.3637
 2542W        W 6742   8.553   2.614  11.034  0.0782 -0.3544 -0.5288
 2543W        W 6743   2.396   2.284  11.221 -0.1544  0.1096 -0.1051
 2544W        W 6744   9.820   8.450   2.919 -0.3780 -0.2607 -0.0323
 2545W        W 6745   9.259   5.595   1.733 -0.1500 -0.2186  0.1226
 2546W        W 6746   9.743   4.721   8.326 -0.2375  0.0207 -0.3893
 2547W        W 6747   8.112   7.235   0.442  0.0173  0.2998 -0.0081
 2548W        W 6748   9.589   2.527  13.081  0.0299 -0.2040  0.0702
 2549W        W 6749   8.098   4.665   9.309 -0.1524  0.0152 -0.1742
 2550W        W 6750  10.419   3.812  10.657 -0.0800  0.2623  0.2187
 2551W        W 6751   0.982   0.414   8.872 -0.0621  0.1333  0.0503
 2552W        W 6752   5.249   0.511  10.283  0.0001  0.3235  0.1358
 2553W        W 6753   2.887   3.766   3.767  0.5283  0.1168 -0.3591
 2554W        W 6754   5.347   4.833   8.915  0.0634  0.1892 -0.2896
 2555W        W 6755   8.575   0.957  12.526  0.2534  0.0687  0.0040
 2556W        W 6756   4.925   4.451  10.171  0.0921 -0.1027  0.2353
 2557W        W 6757   2.121   8.341   0.444 -0.0420 -0.0989  0.3891
 2558W        W 6758   3.459  10.076  10.337  0.0214 -0.1413  0.2465
 2559W        W 6759   5.564   3.094   0.012 -0.0327 -0.3209 -0.0151
 2560W        W 6760   2.237  10.339   1.860 -0.3631 -0.2325  0.2771
 2561W        W 6761   0.774   0.554   8.366 -0.3097 -0.1120 -0.1577
 2562W        W 6762   3.595   0.850  12.720 -0.1327 -0.1473 -0.0105
 2563W        W 6763   3.529   7.915   1.847  0.1553  0.0450 -0.0598
 2564W        W 6764   5.022  10.344   3.857  0.0205 -0.1895  0.1529
 2565W        W 6765   2.286   5.803   4.364 -0.4344 -0.1813  0.0320
 2566W        W 6766   5.796   6.503   3.090  0.0758  0.2745 -0.0489
 2567W        W 6767   3.677   0.750  10.951 -0.3609  0.1555  0.1189
 2568W        W 6768   3.063   4.710   1.450 -0.2056 -0.0406  0.2201
 2569W        W 6769   1.153   0.669   1.832 -0.2657  0.2816  0.0634
 2570W        W 6770   9.320   5.711   3.349  0.1399  0.0428  0.3089
 2571W        W 6771   9.632   4.195  13.442 -0.0824  0.3353 -0.0799
 2572W        W 6772   9.970   9.813   1.508  0.0952  0.0460 -0.2062
 2573W        W 6773   4.513   5.737   0.337  0.1638  0.0123 -0.0127
 2574W        W 6774   2.505   6.558  12.258  0.1515  0.2345  0.1232
 2575W        W 6775   3.243   3.132   1.576 -0.0920  0.1172 -0.1997
 2576W        W 6776   5.013   2.897  12.881 -0.3706 -0.4283 -0.0098
 2577W        W 6777   1.968   5.979   0.537  0.0639  0.0006 -0.2447
 2578W        W 6778  10.057   5.172   3.006 -0.3863  0.0041  0.0370
 2579W        W 6779   5.456   1.053   3.465 -0.0398 -0.0200 -0.3434
 2580W        W 6780   4.398   2.532  12.210 -0.3370  0.1060  0.1616
 2581W        W 6781   8.606   9.683   2.149 -0.0173  0.0446  0.1961
 2582W        W 6782   6.619   6.815  12.604  0.2216  0.1058  0.2631
 2583W        W 6783   8.253   0.442  11.414  0.1352 -0.2065  0.2725
 2584W        W 6784   5.119   5.964  12.328  0.1764  0.0638 -0.0434
 2585W        W 6785   1.946   1.636   3.933 -0.0463  0.1452  0.1670
 2586W        W 6786   8.757   2.902  10.449 -0.1322  0.0162 -0.0234
 2587W        W 6787   9.124   4.142   8.645  0.0781 -0.0912  0.2179
 2588W        W 6788   0.496   4.707   8.149 -0.0690 -0.1002 -0.1194
 2589W        W 6789   9.693   1.911   3.638 -0.1236  0.0506 -0.0039
 2590W        W 6790   1.913   3.682   9.029  0.1380  0.2390  0.3569
 2591W        W 6791   9.939   8.068  10.055 -0.0760  0.0881 -0.0531
 2592W        W 6792   0.203  10.336   2.542 -0.1122 -0.3805  0.0740
 2593W        W 6793  10.306   3.857  13.011  0.0013 -0.0417 -0.2131
 2594W        W 6794   6.323   8.283   0.310 -0.1210 -0.3191  0.1227
 2595W        W 6795   1.447   9.086  11.999  0.2267  0.1401  0.0960
 2596W        W 6796   0.539   5.706  12.621  0.1858 -0.0036 -0.5178
 2597W        W 6797   5.077   5.646   8.608 -0.0531 -0.1711  0.0348
 2598W        W 6798   7.830   7.103  11.535  0.2195  0.1787 -0.0258
 2599W        W 6799   4.983   5.463   4.298 -0.0134 -0.2476  0.1756
 2600W        W 6800   8.854   6.524  13.114  0.1386 -0.0407 -0.0366
 2601W        W 6801   8.784   1.990   8.603 -0.0680  0.1199 -0.1294
 2602W        W 6802   8.922   9.641  11.774  0.1093 -0.1714 -0.1346
 2603W        W 6803   5.401   4.700  12.476 -0.0364 -0.1667  0.2393
 2604W        W 6804   1.098   3.265   5.176  0.3056 -0.1786  0.0472
 2605W        W 6805   6.352   1.111  13.143 -0.5055 -0.1280  0.1317
 2606W        W 6806   4.235   5.684  11.140 -0.0891  0.0643  0.2004
 2607W        W 6807   6.888   9.309   3.638 -0.2239  0.1720 -0.0116
 2608W        W 6808   2.540   7.124   0.553  0.3096 -0.3278 -0.0961
 2609W        W 6809   5.191   4.214   2.819  0.4374  0.0627 -0.0958
 2610W        W 6810   1.002   2.342   1.614 -0.2286 -0.0481  0.1043
 2611W        W 6811   7.331   9.405   1.531  0.1078 -0.0567 -0.1614
 2612W        W 6812   1.967   4.984  10.802  0.3386 -0.0613 -0.3064
 2613W        W 6813   3.209   0.273   3.281 -0.0174 -0.0114  0.0691
 2614W        W 6814   6.645   4.023  11.569 -0.1693  0.0788 -0.2154
 2615W        W 6815   4.914   0.891  12.451  0.1521  0.3211  0.0192
 2616W        W 6816  10.478   0.896   4.096 -0.1383 -0.2339 -0.3187
 2617W        W 6817   8.453   1.369   1.619 -0.0575 -0.0148 -0.3295
 2618W        W 6818   3.410   5.277   2.296 -0.1610  0.0436  0.2263
 2619W        W 6819   9.541   4.629  10.969  0.0469 -0.0958  0.1077
 2620W        W 6820   1.256   7.371   1.499  0.3250  0.0155 -0.2386
 2621W        W 6821   5.535   9.129  12.453  0.0154  0.2151  0.1133
 2622W        W 6822   2.983   2.093  12.025 -0.1130  0.0106  0.0667
 2623W        W 6823   2.001   8.812   2.593 -0.1210  0.1305  0.2195
 2624W        W 6824   2.903   2.562  10.898 -0.0554  0.1895 -0.0449
 2625W        W 6825   0.084   3.932  10.202  0.2757 -0.1364  0.0074
 2626W        W 6826   3.398   7.409  10.003 -0.0531  0.0810  0.0308
 2627W        W 6827   4.684   9.949   2.869  0.3286  0.1424  0.1360
 2628W        W 6828   8.490   4.107  12.361 -0.0078  0.2740  0.1511
 2629W        W 6829   8.981   5.962  10.154 -0.2381 -0.0353 -0.0827
 2630W        W 6830   5.479   4.503  12.998 -0.1984  0.0803  0.1824
 2631W        W 6831   7.359   6.334   2.718  0.0314  0.0037  0.0758
 2632W        W 6832   0.630   8.289   2.914 -0.0175 -0.3557 -0.0024
 2633W        W 6833   1.504   3.986  11.728 -0.1315  0.0370 -0.0272
 2634W        W 6834   3.390   5.614  13.301 -0.0475 -0.0175  0.0322
 2635W        W 6835   6.259   7.543  13.286  0.1574 -0.2953 -0.0954
 2636W        W 6836   4.860   8.267   0.914 -0.0214  0.2044 -0.1692
 2637W        W 6837   2.548   5.962  13.190  0.2212  0.4238 -0.1953
 2638W        W 6838   1.290   5.365   1.255  0.0608 -0.0964 -0.0163
 2639W        W 6839   3.367   3.605   1.743 -0.0297 -0.1458  0.0952
 2640W        W 6840   5.362   4.724  10.339  0.3020  0.3035  0.0667
 2641W        W 6841   1.672  10.070  12.353  0.1038  0.0095 -0.0291
 2642W        W 6842   9.685   8.397  13.357  0.0709  0.2426  0.0853
 2643W        W 6843   5.774   6.515   0.904  0.0476 -0.0008 -0.0321
 2644W        W 6844   3.254   0.350  12.113  0.1702  0.0732 -0.0612
 2645W        W 6845   7.790   5.351  11.244 -0.2292 -0.0563  0.2046
 2646W        W 6846   6.943   5.752  12.249 -0.1541 -0.5922 -0.3349
 2647W        W 6847   1.971   1.905  10.815 -0.4553  0.3981  0.1309
 2648W        W 6848   6.646   5.656   3.236  0.0267  0.1438 -0.1648
 2649W        W 6849   0.118   2.934  11.582 -0.0762 -0.2691  0.0056
 2650W        W 6850   1.050   9.877   0.397  0.0202  0.1421 -0.2549
 2651W        W 6851   4.184   2.893  10.939 -0.1417  0.0439  0.0782
 2652W        W 6852   3.438   8.943  10.970 -0.3415  0.0963 -0.2611
 2653W        W 6853   9.276   2.182  13.351  0.0486  0.2290  0.0231
 2654W        W 6854   3.007   4.100   5.028 -0.2284 -0.2242  0.0265
 2655W        W 6855   9.271   3.174   4.094  0.1581  0.0838 -0.0529
 2656W        W 6856   1.462   4.926  10.467  0.0027 -0.1189  0.4740
 2657W        W 6857   5.281   1.958   2.715 -0.0452  0.0029  0.1033
 2658W        W 6858   4.444   9.969  11.840 -0.2141 -0.0663  0.1073
 2659W        W 6859   9.272   1.755   9.640 -0.2925  0.0613 -0.0907
 2660W        W 6860   1.118   0.551   9.370  0.0341 -0.0607 -0.1862
 2661W        W 6861   7.178   7.499  10.875  0.0993  0.0197 -0.1667
 2662W        W 6862   4.147   1.422  10.521  0.0000  0.0121 -0.0606
 2663W        W 6863   2.531   8.163   2.018 -0.0079  0.1692  0.1570
 2664W        W 6864   8.368   2.322   3.719  0.2607  0.2304  0.0876
 2665W        W 6865   1.868   6.835   0.712  0.1508  0.1086  0.1304
 2666W        W 6866   7.896   3.210  12.920 -0.3602  0.2144 -0.0762
 2667W        W 6867   7.213   3.465   2.737  0.1325 -0.2484 -0.5623
 2668W        W 6868   5.426   6.721   9.287 -0.0874  0.0065 -0.0859
 2669W        W 6869   9.883   2.708   9.460 -0.3881  0.1463  0.1486
 2670W        W 6870   6.839  10.059  10.699  0.0832 -0.1073 -0.1352
 2671W        W 6871   0.626   6.806  13.046  0.0540  0.1396 -0.0283
 2672W        W 6872   3.957   8.253   3.808  0.4242  0.1374  0.2289
 2673W        W 6873   6.622   6.441   2.620 -0.0199 -0.0140  0.0080
 2674W        W 6874   9.911   7.844   3.338 -0.1946  0.1991 -0.0370
 2675W        W 6875   6.052   3.681   3.488  0.1787  0.0645  0.0172
 2676W        W 6876   6.312   9.863   1.158  0.2536  0.4029 -0.1004
 2677W        W 6877   3.466   3.061   2.040  0.2477  0.0432  0.0915
 2678W        W 6878   0.547   4.178   9.992  0.1999 -0.0739 -0.0819
 2679W        W 6879   2.144   3.722  10.832  0.2330  0.0138  0.0723
 2680W        W 6880   6.397   0.558   2.886  0.4044  0.1319  0.1676
 2681W        W 6881   8.452   6.130   1.342  0.1715 -0.0587  0.0638
 2682W        W 6882   5.323   7.673   1.556 -0.0817  0.1230 -0.0272
 2683W        W 6883   5.910   6.364   0.444 -0.2011  0.0327 -0.0915
 2684W        W 6884   7.206   1.955   1.829  0.0669 -0.0154  0.0184
 2685W        W 6885   6.973   4.221  11.198 -0.2870 -0.1291  0.0695
 2686W        W 6886   3.229   3.446   2.939 -0.2290  0.0138  0.0530
 2687W        W 6887   4.166   8.612   9.979  0.0472  0.1137 -0.1071
 2688W        W 6888   7.293   6.709  12.130 -0.1963  0.1158 -0.0208
 2689W        W 6889   5.949   8.163   3.079 -0.0332  0.0706 -0.2031
 2690W        W 6890   3.859   9.282   2.984  0.2027  0.1268 -0.0303
 2691W        W 6891   8.649   2.960   1.060 -0.3338 -0.4588  0.0454
 2692W        W 6892   3.152   6.198   4.483 -0.0211  0.0079 -0.1837
 2693W        W 6893   3.326   9.219   1.026 -0.0848 -0.3138 -0.0726
 2694W        W 6894   9.659   4.000   4.491  0.1487 -0.1544  0.0007
 2695W        W 6895   1.954  10.377   4.097 -0.0849  0.0874 -0.1404
 2696W        W 6896  10.068  10.456   3.867  0.3275  0.4793 -0.1682
 2697W        W 6897   2.596   8.117   3.562  0.1168  0.0763  0.3159
 2698W        W 6898   1.851   5.317   3.512 -0.0324  0.1301  0.2922
 2699W        W 6899   2.505   8.353   0.064  0.1681 -0.2266  0.0048
 2700W        W 6900   7.373   5.027  13.378 -0.1628  0.2910 -0.1222
 2701W        W 6901   3.744   1.053   9.427  0.4350  0.0681  0.2049
 2702W        W 6902   1.068   7.061   0.491  0.3674 -0.1301  0.1964
 2703W        W 6903   7.074   1.549  13.303 -0.1051  0.0950  0.2738
 2704W        W 6904   0.982  10.449   4.540 -0.0063 -0.0760 -0.0363
 2705W        W 6905   7.795   5.310  13.296  0.0157 -0.0932 -0.3125
 2706W        W 6906   4.727   4.688  11.935 -0.1223 -0.0488  0.2202
 2707W        W 6907   3.135   9.299   3.092  0.2230 -0.1760  0.1871
 2708W        W 6908   8.338   8.510   1.034 -0.3063 -0.0555 -0.1309
 2709W        W 6909   0.719   2.105  12.647 -0.0808  0.1892 -0.1015
 2710W        W 6910  10.163   3.991  11.647  0.2257 -0.0185  0.1586
 2711W        W 6911   5.567   1.314   9.788  0.0350 -0.2660 -0.3259
 2712W        W 6912   1.045   9.805   2.380 -0.0739  0.1066  0.1429
 2713W        W 6913   8.459   4.379  10.815 -0.0622  0.0345 -0.0522
 2714W        W 6914   5.289  10.407  10.165 -0.2187  0.1950  0.3760
 2715W        W 6915   1.398   6.246   4.300 -0.1654  0.0669 -0.0950
 2716W        W 6916   6.063   4.523  12.033 -0.1567 -0.0757 -0.1005
 2717W        W 6917   3.973  10.050  12.015  0.0472  0.1443 -0.3896
 2718W        W 6918   0.153   7.140   2.859 -0.0190 -0.0938 -0.3087
 2719W        W 6919   0.293   4.927   2.242  0.1200  0.1719  0.3176
 2720W        W 6920   2.472   1.047   9.201  0.3322 -0.1499 -0.0829
 2721W        W 6921   0.944   4.839   9.020  0.1212 -0.2242  0.0963
 2722W        W 6922   8.518   5.668  10.926  0.0183 -0.1609  0.2137
 2723W        W 6923   6.465   7.774   2.266  0.0903 -0.0256 -0.1579
 2724W        W 6924   1.442   7.672  12.741 -0.2225 -0.0453  0.1796
 2725W        W 6925   8.138   8.559  10.430  0.0025  0.2420 -0.0152
 2726W        W 6926   4.284   7.211   9.677  0.2579 -0.0852  0.2625
 2727W        W 6927   7.197   7.792   9.052 -0.2034  0.1773  0.0363
 2728W        W 6928  10.436   2.008   1.815  0.1419  0.0664  0.0661
 2729W        W 6929   9.822   8.838  13.325  0.2404 -0.0567  0.0325
 2730W        W 6930   3.843   1.374   2.813  0.0436  0.3378 -0.1983
 2731W        W 6931   7.987   8.541  12.689 -0.0353  0.0250 -0.1171
 2732W        W 6932   8.905   8.971   4.091 -0.0588  0.0755  0.1392
 2733W        W 6933   1.983   8.292   2.330  0.1222  0.2008 -0.1185
 2734W        W 6934   3.510   7.496   3.878 -0.2065 -0.1658  0.1334
 2735W        W 6935   1.882   6.634   1.308 -0.0612 -0.0430 -0.2772
 2736W        W 6936  10.089   3.250   3.755 -0.0764 -0.1343 -0.0978
 2737W        W 6937   9.075   5.060   4.036 -0.1781 -0.0163 -0.1604
 2738W        W 6938   8.405   6.005   9.701 -0.2103  0.1219  0.4160
 2739W        W 6939   9.265   2.680   1.946  0.1414  0.1607 -0.2014
 2740W        W 6940   6.420   9.346   0.432  0.1106  0.2314  0.2850
 2741W        W 6941   5.571   5.691   9.443  0.1907 -0.0977  0.5776
 2742W        W 6942   0.078   6.530   1.282  0.0696 -0.1622  0.0982
 2743W        W 6943   9.335   1.913  11.234 -0.1153  0.0186  0.1174
 2744W        W 6944   1.290   1.391  11.128  0.1212 -0.0519 -0.3706
 2745W        W 6945   6.664   1.974   9.976  0.0461  0.0270 -0.0146
 2746W        W 6946   8.823   8.969   1.673  0.0379 -0.1608  0.0407
 2747W        W 6947   1.860   4.189  11.008 -0.1899  0.4401  0.3630
 2748W        W 6948   4.751   6.293  13.346  0.0374 -0.0273 -0.1049
 2749W        W 6949   1.209   1.488  12.547 -0.3149 -0.3302  0.0107
 2750W        W 6950   8.951   7.338  10.509 -0.2755  0.1458 -0.1039
 2751W        W 6951   4.367   4.979  11.836  0.3149  0.0169 -0.2570
 2752W        W 6952   6.110   2.075  12.719  0.3012  0.0726 -0.2892
 2753W        W 6953   1.650   8.453   9.153  0.0816 -0.1096  0.1801
 2754W        W 6954   1.464   1.717   5.154  0.2459  0.4282 -0.0246
 2755W        W 6955   6.871   0.074   3.622 -0.1566  0.1683 -0.2658
 2756W        W 6956   2.254   5.979   8.558  0.0628  0.0369  0.2612
 2757W        W 6957   4.642   1.248   9.325  0.0276  0.2877 -0.1498
 2758W        W 6958  10.345   1.035  11.611  0.0960 -0.4652  0.2735
 2759W        W 6959   7.427   2.253   3.175 -0.0412  0.0492  0.1904
 2760W        W 6960   4.511   6.705  11.778 -0.2203  0.2821  0.1212
 2761W        W 6961   8.394   3.343   0.924  0.2985 -0.0291 -0.0398
 2762W        W 6962   2.318   5.541   3.407  0.0485 -0.2599  0.1970
 2763W        W 6963   8.911   8.051   1.656  0.0670 -0.1522 -0.0412
 2764W        W 6964   7.014   0.007  11.594 -0.0617 -0.0487  0.0317
 2765W        W 6965   1.767   0.993   4.287 -0.0806 -0.0576 -0.1248
 2766W        W 6966   8.778   6.046  10.681 -0.4694  0.0911  0.1987
 2767W        W 6967   8.200   4.980  12.083 -0.1409 -0.2812  0.2636
 2768W        W 6968   7.292   3.731   0.355 -0.0217  0.2593 -0.0278
 2769W        W 6969   0.470   1.148   4.130 -0.1333  0.0803 -0.1671
 2770W        W 6970   7.038   2.384   3.823 -0.1552 -0.2908  0.0633
 2771W        W 6971   3.420   5.903   9.939 -0.0260  0.0424 -0.1634
 2772W        W 6972   6.167   3.323   3.111  0.2015 -0.1410 -0.1731
 2773W        W 6973   5.008   4.512   9.654  0.0760  0.0888  0.1437
 2774W        W 6974   2.187   8.969   3.019  0.2921 -0.2851 -0.0329
 2775W        W 6975   8.795   5.081   0.534 -0.0239 -0.0645 -0.0225
 2776W        W 6976   2.864   4.317   1.179 -0.0887 -0.0898  0.2820
 2777W        W 6977   3.352   0.964   1.956  0.2408 -0.0123 -0.1580
 2778W        W 6978   1.929   8.964   9.426 -0.0651  0.1736  0.1797
 2779W        W 6979   1.930   1.560  10.365  0.0619 -0.0660 -0.2067
 2780W        W 6980   1.837   8.703   3.528 -0.0167 -0.0220  0.2923
 2781W        W 6981   7.993   5.266   4.924  0.0103 -0.0187  0.0064
 2782W        W 6982   6.026   4.378  11.172 -0.0125 -0.0383 -0.0352
 2783W        W 6983   9.991   9.579  12.868  0.2790 -0.1228  0.0684
 2784W        W 6984  10.296   4.683   2.262 -0.2028  0.1615 -0.3278
 2785W        W 6985   6.613   0.559   2.020 -0.1078  0.0049  0.2584
 2786W        W 6986   2.748   2.327   4.637 -0.2624  0.1398 -0.0824
 2787W        W 6987   1.049   3.781   2.916 -0.2457 -0.0346 -0.0139
 2788W        W 6988   9.540   8.181  12.075 -0.1110 -0.3722  0.0845
 2789W        W 6989   1.747   4.411  12.311  0.0064 -0.0816  0.1489
 2790W        W 6990   8.966   3.646   4.187 -0.1242  0.0337  0.0818
 2791W        W 6991   2.053   1.039  10.985 -0.2533  0.3165 -0.1309
 2792W        W 6992  10.416   7.923   1.649  0.4126 -0.0207  0.2376
 2793W        W 6993   7.375   8.191   4.256 -0.0596 -0.0842  0.1192
 2794W        W 6994   8.177   3.024   3.247 -0.0869 -0.1262  0.0499
 2795W        W 6995  10.076   6.991   0.087  0.0454  0.0489 -0.4144
 2796W        W 6996   4.539   4.561   0.094  0.0341  0.1071  0.1469
 2797W        W 6997   0.198   3.733   9.743  0.1221  0.1549 -0.0423
 2798W        W 6998   1.646   0.757   1.626  0.0407 -0.0362 -0.0602
 2799W        W 6999   8.060   0.086  12.190 -0.0041  0.3265 -0.3395
 2800W        W 7000   7.093   4.332  12.034 -0.1167  0.1434  0.0067
 2801W        W 7001   2.433   8.269  12.585 -0.0374  0.2435  0.3029
 2802W        W 7002   0.774   7.263  13.113  0.0105  0.0374 -0.2270
 2803W        W 7003   4.811   5.140   0.302 -0.1037  0.0868  0.4149
 2804W        W 7004   7.810   2.632   1.322  0.0548  0.0666 -0.2648
 2805W        W 7005   4.000   1.229  12.402 -0.0713  0.0236  0.0268
 2806W        W 7006   3.410   3.777   9.342  0.1365 -0.0704  0.2627
 2807W        W 7007   7.937   1.044   0.102  0.0671  0.1095 -0.0399
 2808W        W 7008  10.003   2.234  12.129 -0.1245 -0.0993  0.1625
 2809W        W 7009   4.293   7.648  10.970 -0.2616  0.1465 -0.0510
 2810W        W 7010   9.235   0.027   3.144 -0.0684  0.1279 -0.1343
 2811W        W 7011   5.610   6.765  12.295 -0.1367  0.1821  0.0596
 2812W        W 7012   9.194   5.672  11.412  0.0986 -0.1738  0.0500
 2813W        W 7013   2.781   1.254   3.141 -0.0426  0.0478 -0.3073
 2814W        W 7014   0.282   9.939  11.657 -0.0245 -0.0316 -0.0945
 2815W        W 7015   1.720   0.639   9.415 -0.0485 -0.2001  0.2186
 2816W        W 7016   2.240   8.983   0.068  0.1341 -0.0339 -0.1457
 2817W        W 7017   0.096   6.599   3.814  0.3195  0.2291  0.0026
 2818W        W 7018   9.807  10.057  11.786 -0.2155 -0.1579 -0.1888
 2819W        W 7019   4.280  10.175  11.039  0.0047 -0.5836 -0.1427
 2820W        W 7020   9.645   0.955  10.424  0.1900 -0.2699 -0.0055
 2821W        W 7021   5.258   1.847  10.577  0.0605  0.0566  0.1087
 2822W        W 7022   9.017   1.445   3.146 -0.2361 -0.2670  0.1494
 2823W        W 7023   4.451   1.103   3.806  0.2272  0.1481  0.3228
 2824W        W 7024   9.391   3.297  11.831 -0.2881 -0.2065  0.3115
 2825W        W 7025   2.262   5.608   2.782  0.0987  0.1230 -0.1222
 2826W        W 7026   7.079   7.997  10.910 -0.1863 -0.0264 -0.0900
 2827W        W 7027   1.536   9.483  10.888 -0.0815  0.0179 -0.1949
 2828W        W 7028   8.157   9.801   2.348  0.2872  0.0903  0.1515
 2829W        W 7029   7.403   6.617   3.113 -0.3939 -0.1553 -0.0301
 2830W        W 7030   7.913   6.894   8.919  0.0412 -0.2984 -0.3448
 2831W        W 7031   2.874   4.918   9.716  0.2190 -0.2138 -0.2597
 2832W        W 7032   1.317   1.227  10.500 -0.0736  0.2021  0.2281
 2833W        W 7033   1.063   2.557  10.235  0.2201  0.3828  0.2517
 2834W        W 7034   0.002   6.777   1.779 -0.0876 -0.2658  0.0354
 2835W        W 7035   0.388  10.402   4.647 -0.1661 -0.3834 -0.1173
 2836W        W 7036   8.082   6.468  12.312 -0.0597 -0.0995  0.0451
 2837W        W 7037   3.867   3.434  12.997  0.1418 -0.7027  0.3113
 2838W        W 7038   4.158   3.126  12.096  0.1419  0.0216 -0.0927
 2839W        W 7039   6.807   4.603   1.982 -0.0499 -0.1956 -0.3505
 2840W        W 7040   0.328   0.300  12.089 -0.1572 -0.0570 -0.0360
 2841W        W 7041   9.051   9.265   3.699  0.2730  0.1720  0.1123
 2842W        W 7042   9.571   9.742   2.523 -0.0886  0.0530  0.1448
 2843W        W 7043   4.522   5.082   0.720  0.1025 -0.2137 -0.0934
 2844W        W 7044   4.205   9.786  10.694 -0.0536  0.1184  0.1106
 2845W        W 7045   9.463   6.788  11.195  0.0486 -0.3053 -0.2905
 2846W        W 7046   2.931   7.672  10.218 -0.0754 -0.0243  0.0132
 2847W        W 7047   6.620   6.528   9.176 -0.0625 -0.1634  0.0004
 2848W        W 7048   2.525   9.906   9.902 -0.1474 -0.0383 -0.4106
 2849W        W 7049   8.126   5.048  11.468  0.1025  0.0220 -0.1578
 2850W        W 7050   9.681   5.313   9.274  0.0049 -0.2700 -0.0332
 2851W        W 7051   4.506   0.510   1.261 -0.0929  0.2310  0.0754
 2852W        W 7052   8.786   3.969   0.664 -0.0237  0.1364 -0.2189
 2853W        W 7053   5.224   7.182  11.818 -0.0419  0.2905  0.2142
 2854W        W 7054   6.176   5.673   3.095 -0.1514 -0.0006 -0.0965
 2855W        W 7055   1.698   3.835  11.305  0.2663 -0.2462  0.0799
 2856W        W 7056   4.813   7.740   9.804 -0.3120  0.4533  0.1188
 2857W        W 7057   1.279   2.609   9.148  0.2487  0.2302 -0.3109
 2858W        W 7058   0.220   2.314   4.507  0.3195 -0.1248 -0.2051
 2859W        W 7059   3.891   1.528   4.272 -0.2707 -0.0578  0.2548
 2860W        W 7060   9.136   9.008  11.300 -0.1814  0.1545 -0.0738
 2861W        W 7061   5.791   7.912  10.955 -0.1379 -0.0361  0.2293
 2862W        W 7062   2.181   7.152  10.474  0.3446  0.1438 -0.0063
 2863W        W 7063  10.037   6.970  10.326 -0.0128  0.5389  0.0689
 2864W        W 7064   4.443   7.261  10.158 -0.2453 -0.0722 -0.1665
 2865W        W 7065   4.299   9.976   3.208  0.0858  0.1268 -0.1514
 2866W        W 7066   7.961   0.726  10.081  0.1278 -0.1668  0.1259
 2867W        W 7067   1.633   7.709   2.041 -0.2013  0.3096  0.0520
 2868W        W 7068   2.186   6.971  11.038  0.0737 -0.2682  0.0378
 2869W        W 7069   2.444   7.410  10.053  0.0392 -0.0387  0.1203
 2870W        W 7070   1.263   2.649   2.994 -0.1195 -0.0104  0.1239
 2871W        W 7071   2.680   9.242   0.115 -0.0131 -0.2938  0.2592
 2872W        W 7072   5.529   4.002   3.454  0.1061 -0.0576 -0.1063
 2873W        W 7073   8.279   4.044  13.311 -0.3821 -0.0490 -0.3031
 2874W        W 7074   7.498   2.638   0.562 -0.2345 -0.1729  0.1126
 2875W        W 7075   6.077   2.730   9.049  0.0789  0.1586  0.1177
 2876W        W 7076   0.047   9.996   4.433 -0.1182  0.0307  0.0947
 2877W        W 7077   9.807   3.600  11.734 -0.4968 -0.2055  0.2652
 2878W        W 7078   8.349   4.398   8.123  0.0904 -0.4555  0.0347
 2879W        W 7079   6.423   3.400   3.602  0.2580  0.1485 -0.1764
 2880W        W 7080   2.799   3.668   5.224 -0.0217  0.1722  0.0230
 2881W        W 7081   9.332   9.342  11.577 -0.0235 -0.1959 -0.2615
 2882W        W 7082   1.493   6.343   3.474  0.3528 -0.1626 -0.1545
 2883W        W 7083   9.613   9.079  11.860  0.1369 -0.1827 -0.0313
 2884W        W 7084   2.759   5.313   3.488 -0.0617  0.0674 -0.1377
 2885W        W 7085   6.267   6.348  12.783 -0.2642 -0.4551  0.1041
 2886W        W 7086   3.943   0.277  10.901 -0.2798  0.1560 -0.0526
 2887W        W 7087   3.938   5.236   9.909 -0.0128 -0.0537 -0.1850
 2888W        W 7088   5.768   5.960  11.719 -0.1771  0.2756  0.0043
 2889W        W 7089   3.531   5.264   4.000  0.2687  0.1453 -0.2692
 2890W        W 7090   1.175   3.930   0.374 -0.2037 -0.1743  0.0155
 2891W        W 7091   5.672   1.464   3.701  0.0130  0.2002  0.4735
 2892W        W 7092   3.553   7.141   9.475 -0.0837 -0.3736 -0.0255
 2893W        W 7093   7.788   3.570  10.601 -0.1296  0.0309 -0.5237
 2894W        W 7094   9.617   8.962   0.328 -0.0768 -0.1819 -0.0648
 2895W        W 7095   7.601   3.217   2.528 -0.3215 -0.3008 -0.0124
 2896W        W 7096   1.712   2.771   4.265  0.0152  0.1570  0.0325
 2897W        W 7097   8.280  10.009   9.063  0.0631  0.1134  0.0545
 2898W        W 7098   7.422   5.776  13.135  0.2013 -0.1395  0.0989
 2899W        W 7099   6.742   9.924   1.939  0.2707 -0.2122 -0.2317
 2900W        W 7100   6.693   0.071  12.036  0.0872  0.2456  0.1432
 2901W        W 7101   9.283   7.713   0.244  0.0796 -0.0879  0.0448
 2902W        W 7102   0.340   0.978   8.973 -0.4371 -0.2839  0.0330
 2903W        W 7103   4.993   9.193   0.856 -0.0337 -0.0669 -0.0036
 2904W        W 7104   9.608   4.601   3.510 -0.0261 -0.3133  0.5011
 2905W        W 7105   8.988   3.270   2.288  0.1094  0.1186  0.0581
 2906W        W 7106   1.771   2.859   3.533 -0.0992 -0.0345  0.1143
 2907W        W 7107   8.989   7.362  12.335  0.1111 -0.3908 -0.0374
 2908W        W 7108   5.100   2.916   4.039 -0.0478 -0.0464 -0.0380
 2909W        W 7109   5.812   1.754   8.874  0.2076 -0.0507 -0.1701
 2910W        W 7110   0.292   1.542  11.658  0.0260  0.0638 -0.3424
 2911W        W 7111   2.733  10.111   1.775  0.1613  0.0999  0.0510
 2912W        W 7112   4.173   2.849  13.283  0.2544  0.2168  0.1053
 2913W        W 7113   7.931   4.969   9.675  0.1236  0.0886 -0.0972
 2914W        W 7114   9.045   2.663  13.083 -0.0835  0.3293 -0.0975
 2915W        W 7115   3.128   7.242   2.423  0.1785 -0.3450  0.1984
 2916W        W 7116   2.793   0.369   2.490 -0.0138 -0.0219 -0.2009
 2917W        W 7117   1.601   7.685   3.685  0.0059  0.1583  0.0123
 2918W        W 7118   9.591   7.519   4.141 -0.1957 -0.2389 -0.2322
 2919W        W 7119   1.096   4.107   4.266  0.2825 -0.2961  0.0078
 2920W        W 7120   3.621   0.507   9.543  0.0823  0.1012  0.1070
 2921W        W 7121   3.474   2.103  13.279  0.0158 -0.1245 -0.2281
 2922W        W 7122   3.337   2.249   3.803 -0.1280 -0.0566 -0.0141
 2923W        W 7123   6.475   6.115  11.996  0.3759  0.0946 -0.1450
 2924W        W 7124   1.856   9.820   4.074  0.0329 -0.2454 -0.0544
 2925W        W 7125   5.916   0.919   0.062  0.1461  0.1820 -0.3561
 2926W        W 7126   3.319   8.403  10.068  0.0745  0.2672 -0.4172
 2927W        W 7127  10.276   4.124   8.768 -0.4248 -0.0291 -0.1411
 2928W        W 7128   2.007   1.146  13.357  0.1911  0.1165 -0.0405
 2929W        W 7129   7.346   4.318  11.651  0.0130  0.0537  0.0335
 2930W        W 7130   7.601   9.036   0.808 -0.0284  0.3697 -0.2905
 2931W        W 7131   5.131   5.986   9.914  0.1527 -0.0829  0.1233
 2932W        W 7132   0.050   6.497  10.000 -0.1886 -0.1481  0.3412
 2933W        W 7133   2.546   5.878   0.226  0.3353  0.3339 -0.0636
 2934W        W 7134   2.365   5.862  12.312 -0.1464  0.1245 -0.1645
 2935W        W 7135   1.458   9.240  10.380 -0.3020 -0.0911 -0.0523
 2936W        W 7136  10.197   0.309   9.371 -0.2714  0.2681 -0.1092
 2937W        W 7137   0.682   1.574  10.226 -0.2053  0.2137 -0.1230
 2938W        W 7138   6.310   8.831  12.367 -0.2433 -0.2099  0.3979
 2939W        W 7139   7.945   2.396   2.889 -0.2178  0.2004 -0.2184
 2940W        W 7140   9.626   4.511   1.262  0.0427 -0.2037 -0.2861
 2941W        W 7141   1.345   8.809   1.912 -0.0367 -0.1138 -0.2079
 2942W        W 7142   6.011   6.846   0.602  0.1693 -0.0907 -0.0362
 2943W        W 7143   8.775   3.805   2.433  0.1951  0.0270  0.3236
 2944W        W 7144   7.655   1.956   2.878  0.2276 -0.1231  0.2385
 2945W        W 7145   2.217   0.116   2.466 -0.2418 -0.0036  0.0827
 2946W        W 7146   5.801   5.626   4.445 -0.0123 -0.2758 -0.0161
 2947W        W 7147   2.646   1.620   8.714 -0.0244  0.0206  0.0600
 2948W        W 7148   7.617   8.881  12.705 -0.0815 -0.0015  0.0797
 2949W        W 7149   2.185   0.029  13.051 -0.1338 -0.1301  0.0279
 2950W        W 7150   9.596   1.134   4.036  0.0173 -0.5264  0.1134
 2951W        W 7151  10.061   9.035  12.057 -0.0353  0.2882 -0.4177
 2952W        W 7152   9.836   4.512   0.378  0.0600  0.0232  0.1201
 2953W        W 7153   3.192   8.426   1.314  0.0901  0.1198 -0.1566
 2954W        W 7154  10.341   2.695   4.627 -0.0016 -0.2246  0.1522
 2955W        W 7155   4.939   0.526   1.735 -0.3366 -0.0697  0.0936
 2956W        W 7156   8.248   7.061   1.241  0.2145  0.2531 -0.1441
 2957W        W 7157   2.184   8.399   1.295 -0.1830  0.0480 -0.2409
 2958W        W 7158   6.797   2.912  12.258 -0.1088 -0.0604 -0.1864
 2959W        W 7159   4.225   2.061   1.728  0.0183  0.1705  0.2341
 2960W        W 7160   1.279   8.213   0.646  0.3467 -0.0446 -0.0307
 2961W        W 7161   4.210   3.369  11.565 -0.1226  0.2576 -0.2281
 2962W        W 7162   6.637   7.021   3.291 -0.1757  0.3489  0.0288
 2963W        W 7163   0.913   3.102   1.796 -0.0948 -0.0873  0.0938
 2964W        W 7164   8.171   1.864   3.892 -0.0729  0.0954 -0.2399
 2965W        W 7165   7.611   5.954  12.750 -0.0626  0.0681  0.2039
 2966W        W 7166   9.794   6.881   8.713  0.0174 -0.0601 -0.1037
 2967W        W 7167   9.937   9.295   0.797  0.1353 -0.1081  0.1101
 2968W        W 7168   3.820  10.248   9.972  0.0947 -0.0562  0.0911
 2969W        W 7169   0.610   5.980   9.548 -0.3496 -0.1906  0.0423
 2970W        W 7170   6.349   0.396   1.067 -0.0927 -0.3897 -0.2729
 2971W        W 7171   6.189   8.847   1.099  0.4581  0.1968 -0.1611
 2972W        W 7172   1.779   9.640   3.623 -0.0928 -0.2346 -0.0237
 2973W        W 7173   5.471   0.291  13.003  0.5011  0.0214  0.0028
 2974W        W 7174   6.109   1.531  12.688  0.2084  0.3077  0.0863
 2975W        W 7175   6.411   9.046   9.842  0.0249 -0.1912 -0.0431
 2976W        W 7176   0.238   1.413  10.432 -0.1120  0.0938  0.1222
 2977W        W 7177   5.110   4.531  10.788  0.0673  0.2486  0.1684
 2978W        W 7178   7.382   2.419  12.515 -0.2508 -0.1126  0.1387
 2979W        W 7179   3.665   3.139   3.111  0.1282  0.2337 -0.0241
 2980W        W 7180   8.792   7.691  12.000 -0.3728  0.4340  0.1335
 2981W        W 7181   8.588   6.619   0.552  0.3878  0.1440  0.0374
 2982W        W 7182   6.654   2.435   1.561  0.1891  0.2804  0.2611
 2983W        W 7183   2.871   5.937   2.135  0.0743 -0.3242 -0.3056
 2984W        W 7184   1.139   1.959   0.513 -0.4436 -0.2760  0.0480
 2985W        W 7185   9.270   5.788   2.858 -0.2003  0.2732  0.0262
 2986W        W 7186   1.728   5.479  13.432 -0.1689 -0.1542 -0.1003
 2987W        W 7187   9.100   4.909   3.141 -0.1658  0.3088  0.2244
 2988W        W 7188   6.550   2.348   9.199 -0.0776 -0.0061 -0.1890
 2989W        W 7189   8.422   4.517  13.296  0.1687 -0.0117 -0.0167
 2990W        W 7190   9.610   6.004   8.914 -0.1677 -0.4610  0.0913
 2991W        W 7191   0.455   3.203  12.431  0.1021  0.0340 -0.0065
 2992W        W 7192   6.270   4.450   3.622 -0.2848  0.1701 -0.1491
 2993W        W 7193   2.920   9.625   2.030 -0.1022  0.0428 -0.0775
 2994W        W 7194   6.983   3.034   2.499 -0.0845 -0.1626 -0.0913
 2995W        W 7195   4.001   0.487   3.484  0.1963 -0.1276  0.2605
 2996W        W 7196   9.693   3.170   1.663 -0.0852  0.1187 -0.1944
 2997W        W 7197   6.054   3.273   4.469  0.2179  0.2141  0.3199
 2998W        W 7198   9.605   6.272   0.984  0.1469  0.2432 -0.2403
 2999W        W 7199   2.615   9.413   9.028 -0.0563  0.1621 -0.0133
 3000W        W 7200   9.795   7.462   3.664  0.2653  0.3761 -0.2862
 3001W        W 7201   7.164   0.153   8.881 -0.2749  0.1069  0.2498
 3002W        W 7202   8.763   4.207   1.906  0.1054 -0.1509  0.0106
 3003W        W 7203   3.995   5.555   1.270  0.3754  0.3267 -0.1278
 3004W        W 7204   8.263   6.882   9.338 -0.1578 -0.0621 -0.4236
 3005W        W 7205   7.508   7.617   1.141 -0.3859  0.0399 -0.1472
 3006W        W 7206   2.367   4.908  13.021  0.4047  0.0922 -0.1697
 3007W        W 7207   1.123   2.381   2.513 -0.0228 -0.0164  0.1572
 3008W        W 7208   8.190   2.599   8.837 -0.0905 -0.1246  0.1126
 3009W        W 7209   1.047   9.083   9.915  0.0417  0.2941 -0.2189
 3010W        W 7210   9.685   7.860   9.266  0.2147 -0.1088 -0.0586
 3011W        W 7211   4.697   3.342   9.146  0.1069  0.0256  0.1670
 3012W        W 7212   4.338   1.995   8.329  0.0922 -0.0124 -0.0421
 3013W        W 7213   5.016   7.046   9.286 -0.0914  0.2666  0.0487
 3014W        W 7214   1.676   0.118   0.369  0.1953  0.0052 -0.2018
 3015W        W 7215   6.214   3.227   9.757  0.2231 -0.2235  0.1476
 3016W        W 7216   9.574   3.265   3.705  0.3467 -0.0039 -0.3865
 3017W        W 7217   7.433   6.079   3.778 -0.3964  0.2728 -0.0797
 3018W        W 7218   2.980   2.182   1.888  0.1216  0.2152  0.0157
 3019W        W 7219   0.143   3.441   8.378 -0.1028  0.0057 -0.1229
 3020W        W 7220   2.169   7.467   3.776  0.5275 -0.2302  0.1645
 3021W        W 7221   8.366   4.380   1.704 -0.0835  0.0298  0.0633
 3022W        W 7222   3.609   3.960   0.659  0.1098 -0.1791 -0.0495
 3023W        W 7223   0.083   0.722  12.166  0.0629 -0.3280 -0.1142
 3024W        W 7224   3.717   5.595  11.229 -0.0735  0.3048  0.2003
 3025W        W 7225   1.441   5.280   1.736  0.2169  0.0007  0.1384
 3026W        W 7226   2.017   2.241  12.581 -0.2312 -0.5292  0.0673
 3027W        W 7227   1.390   1.765   0.970 -0.1304 -0.1197  0.3392
 3028W        W 7228   5.331   6.863   2.500  0.2400 -0.4760 -0.1219
 3029W        W 7229   9.844   6.926   0.581  0.2324 -0.0269  0.0553
 3030W        W 7230   6.771   3.593   2.472 -0.0172 -0.2319  0.0542
 3031W        W 7231   4.635   3.695  12.166 -0.1710  0.0181 -0.1490
 3032W        W 7232  10.284   3.636   3.244  0.0556 -0.1416 -0.0151
 3033W        W 7233   1.915   8.441   4.835 -0.5087 -0.2231 -0.2920
 3034W        W 7234   8.797   8.292   3.044  0.2304 -0.3386 -0.1680
 3035W        W 7235   1.849   4.057   3.140  0.1278  0.0655 -0.1680
 3036W        W 7236   3.690   4.992  11.532 -0.0018 -0.1677  0.0294
 3037W        W 7237   6.804   4.571   1.339  0.1761 -0.0116 -0.0438
 3038W        W 7238   4.435   7.737   1.881 -0.1789 -0.0923 -0.3058
 3039W        W 7239   9.566   6.705   9.753  0.2976  0.2005  0.1114
 3040W        W 7240   1.948   7.970   1.530 -0.0735  0.0825 -0.2430
 3041W        W 7241   4.489   6.730   8.929 -0.0000  0.1793 -0.0864
 3042W        W 7242  10.325   1.284  12.125  0.2902 -0.2623  0.1166
 3043W        W 7243   0.374   8.647   1.733  0.2319  0.0709  0.0248
 3044W        W 7244   2.195   4.157   9.216 -0.1589  0.0594  0.0758
 3045W        W 7245   5.357   4.762   3.561  0.0260 -0.2504 -0.1697
 3046W        W 7246   9.431   0.165   9.317 -0.2000  0.0914  0.1901
 3047W        W 7247   8.771   5.631   9.824 -0.2537  0.1951  0.2354
 3048W        W 7248  10.292   0.894  12.701  0.1579  0.0112  0.0368
 3049W        W 7249   7.544   9.189   3.154 -0.1929 -0.2853  0.2053
 3050W        W 7250   1.795   5.158   2.134  0.0467 -0.2480  0.1186
 3051W        W 7251   0.725   7.420   3.621  0.0811  0.2529  0.0183
 3052W        W 7252   4.607   8.603  11.442 -0.0108 -0.0069 -0.4810
 3053W        W 7253   1.295   0.536  11.462  0.0852 -0.0561 -0.5573
 3054W        W 7254   5.561   0.501   0.482  0.0060  0.1273  0.0835
 3055W        W 7255   8.988   4.593   9.573  0.1265 -0.2965 -0.3538
 3056W        W 7256   4.080  10.263   1.242 -0.0647  0.0852  0.0422
 3057W        W 7257   8.468   6.863  13.178  0.0803  0.0927 -0.0394
 3058W        W 7258   7.591   2.629  10.686 -0.1990 -0.2544 -0.1943
 3059W        W 7259   1.117   6.414  13.149  0.2649 -0.1089 -0.0904
 3060W        W 7260   3.766   9.432   0.889 -0.1437  0.1432 -0.0424
 3061W        W 7261   0.056   7.876  12.212  0.1293  0.1304  0.4467
 3062W        W 7262   4.398   1.620  12.334  0.0206  0.2258 -0.2675
 3063W        W 7263   7.972  10.074  12.276  0.1058  0.2710  0.1948
 3064W        W 7264   1.996   8.511  13.372 -0.2145 -0.0182 -0.1269
 3065W        W 7265   5.701   6.029   1.591 -0.0546  0.1009 -0.1571
 3066W        W 7266   2.744   2.609   2.329 -0.0041  0.3153  0.0347
 3067W        W 7267   6.712   9.593   3.246  0.4418 -0.1170 -0.0659
 3068W        W 7268   5.652   7.693   0.704 -0.0179  0.0444 -0.4338
 3069W        W 7269   0.263   5.604   9.555 -0.1074  0.1992 -0.0515
 3070W        W 7270   6.688   8.998  13.138 -0.1488 -0.1107  0.0682
 3071W        W 7271   3.032   1.273   1.605  0.1793 -0.0857  0.0269
 3072W        W 7272   9.085   2.889   3.125  0.0701 -0.1089 -0.2980
 3073W        W 7273   8.347   9.798  13.381  0.2378  0.2507 -0.1440
 3074W        W 7274   6.826   4.486   0.235  0.2231 -0.0823  0.2435
 3075W        W 7275   0.455   3.789  10.571 -0.0047 -0.0259 -0.0037
 3076W        W 7276   3.958   6.108  11.115  0.0194 -0.1518 -0.0297
 3077W        W 7277   4.387   0.112   0.869 -0.1287  0.5019  0.4369
 3078W        W 7278   2.193   4.834   1.983 -0.1099  0.0771 -0.5775
 3079W        W 7279   0.765   6.011   1.438 -0.0025 -0.0261 -0.0310
 3080W        W 7280   2.298   1.496  13.220 -0.2060  0.0267 -0.0258
 3081W        W 7281  10.339   0.041   1.561  0.4884 -0.1415  0.1883
 3082W        W 7282   0.986   6.439   8.772  0.1380 -0.0856  0.1072
 3083W        W 7283   2.152  10.434  10.741  0.2024  0.0415  0.1281
 3084W        W 7284   2.491   6.481   3.839  0.2189  0.3342  0.1784
 3085W        W 7285   0.238   4.210  10.639  0.1546 -0.1983  0.4321
 3086W        W 7286   8.742   4.160   4.562  0.0608  0.3141  0.1475
 3087W        W 7287   3.485  10.425  10.710 -0.3210  0.3153 -0.0492
 3088W        W 7288   3.260   4.994   9.368  0.0203 -0.1229  0.2900
 3089W        W 7289   8.992   2.727   4.371 -0.2690 -0.0146  0.1548
 3090W        W 7290   7.302   4.931   0.675 -0.1130  0.2183 -0.1729
 3091W        W 7291   8.609   0.217   2.434  0.0216  0.0576 -0.0285
 3092W        W 7292   6.033   9.647   0.556 -0.3730  0.1726 -0.0992
 3093W        W 7293   6.277   1.516  11.466 -0.0267  0.2786  0.1214
 3094W        W 7294   8.618   6.285  11.588 -0.1639  0.1334  0.3349
 3095W        W 7295   1.228   2.248   5.346 -0.0708 -0.0991  0.1320
 3096W        W 7296   7.337   4.539  11.194 -0.2454  0.1219  0.0002
 3097W        W 7297  10.298   4.850  10.447  0.0145 -0.1320 -0.0305
 3098W        W 7298   7.076   5.758  11.329  0.2051 -0.2325  0.1157
 3099W        W 7299   5.857  10.460   1.287 -0.0697 -0.1765  0.1976
 3100W        W 7300   3.083   3.465   4.266 -0.1841  0.0614  0.1956
 3101W        W 7301   9.075   7.665   2.522  0.1272  0.1301 -0.1632
 3102W        W 7302   9.974   4.454  12.500 -0.0946 -0.0091 -0.1094
 3103W        W 7303   1.112   5.886  12.063  0.0410  0.3286  0.0441
 3104W        W 7304   8.322   1.397  12.739  0.0516 -0.0768  0.1040
 3105W        W 7305   4.252   4.975  13.449 -0.1813  0.0835  0.0748
 3106W        W 7306   6.219   3.410  12.160  0.2065 -0.1693  0.0582
 3107W        W 7307   1.305   0.416  10.373  0.0475 -0.5070  0.0836
 3108W        W 7308   1.038   7.490  11.265  0.0328 -0.1894  0.1058
 3109W        W 7309   4.576   0.013   2.580 -0.0423  0.1205  0.1420
 3110W        W 7310   8.476   4.216   2.719 -0.0134 -0.0521  0.2180
 3111W        W 7311   9.041   5.297  13.035  0.4646  0.0593  0.1201
 3112W        W 7312   1.878   3.194   8.832  0.0742  0.0030  0.3678
 3113W        W 7313   3.294   1.130  13.150 -0.1448  0.4318 -0.1153
 3114W        W 7314   2.493   3.126   9.961  0.0147  0.0241  0.0088
 3115W        W 7315   1.905  10.214  11.581 -0.1652  0.0264 -0.0527
 3116W        W 7316   7.158   2.651  12.116 -0.0131 -0.2795 -0.2237
 3117W        W 7317   3.920   0.274  13.249  0.2378 -0.1121  0.2797
 3118W        W 7318   8.047   5.004   3.620 -0.1574  0.1042 -0.1750
 3119W        W 7319   8.915   6.704   2.540  0.0821 -0.2612  0.1099
 3120W        W 7320   4.109   0.608   0.187 -0.4778  0.1267  0.0532
 3121W        W 7321   1.238   8.345   1.722 -0.1060 -0.2947  0.0123
 3122W        W 7322   8.518   4.488   2.307  0.1477 -0.0857 -0.1389
 3123W        W 7323   0.948   3.597   4.282  0.0532 -0.2721 -0.2058
 3124W        W 7324   0.347   4.078   9.313  0.0350  0.1488  0.2318
 3125W        W 7325   3.510   1.035   0.292  0.2468  0.3390 -0.0464
 3126W        W 7326   9.302   2.032  10.485 -0.3859  0.3389  0.0126
 3127W        W 7327   5.292   1.585  11.106  0.0901  0.2477  0.0916
 3128W        W 7328   8.936   1.234   1.566  0.0533  0.0231 -0.0732
 3129W        W 7329   2.749   0.370   3.794 -0.0463  0.0447 -0.0361
 3130W        W 7330   2.517   1.641   9.977 -0.0894  0.0554 -0.0560
 3131W        W 7331   8.924   6.893   3.293 -0.1424 -0.0672 -0.1581
 3132W        W 7332   6.820   9.421   1.250  0.0026  0.2809 -0.1170
 3133W        W 7333   8.307   3.665  12.941  0.0481 -0.2110 -0.1267
 3134W        W 7334   3.488   3.244   2.582  0.2031 -0.2083 -0.1037
 3135W        W 7335   9.210   7.391  11.069 -0.1184  0.2864 -0.0778
 3136W        W 7336   2.353   9.800   0.038 -0.1211  0.0823 -0.2783
 3137W        W 7337   0.328   8.398   8.684  0.0642 -0.3086 -0.0878
 3138W        W 7338   4.066   5.870   1.674 -0.1432  0.1265 -0.0634
 3139W        W 7339   9.241   7.210   1.429 -0.1850 -0.3472  0.1360
 3140W        W 7340   9.111   7.877   2.993 -0.1538  0.1664 -0.0136
 3141W        W 7341   4.207   4.185  13.139  0.0847 -0.0656  0.0528
 3142W        W 7342   3.703   1.312  10.934  0.2106  0.1919  0.0190
 3143W        W 7343   1.550   5.001  13.181 -0.1416 -0.0077 -0.1036
 3144W        W 7344   3.056   4.048  10.962  0.1010  0.0138 -0.1240
 3145W        W 7345   5.818   1.782  13.028  0.0328 -0.4324  0.0979
 3146W        W 7346   7.214   1.536   2.089  0.3806  0.0696 -0.1454
 3147W        W 7347   0.520   9.634   9.363 -0.0623 -0.1240  0.1079
 3148W        W 7348   3.554   9.071   0.482 -0.1655  0.1090 -0.0820
 3149W        W 7349   4.795   9.420  11.143  0.2781  0.1265  0.3758
 3150W        W 7350   2.734   7.132   3.378  0.4763 -0.0628  0.0583
 3151W        W 7351   1.939   3.158   2.581  0.0589  0.3301  0.1739
 3152W        W 7352   0.142   2.551   3.146 -0.0752 -0.1215 -0.3737
 3153W        W 7353   0.972   9.960   3.123  0.4880 -0.2153  0.3382
 3154W        W 7354  10.049   5.371  12.521  0.1503  0.0138 -0.1368
 3155W        W 7355   3.469   4.461  10.115 -0.0358 -0.2469  0.0310
 3156W        W 7356   8.304   2.235  11.328  0.0142  0.1247 -0.2479
 3157W        W 7357   9.723   5.025   1.165 -0.1924 -0.1776 -0.1477
 3158W        W 7358  10.278   6.753   8.667  0.1187  0.0871  0.1823
 3159W        W 7359   4.934   6.470   9.733 -0.1429  0.4678  0.1660
 3160W        W 7360   1.054   5.923  11.452  0.0622  0.3012 -0.1261
 3161W        W 7361   1.648   2.478   2.097 -0.0131  0.0561 -0.0942
 3162W        W 7362   8.261   3.830   0.620  0.1346 -0.1346 -0.2200
 3163W        W 7363   3.883   2.983  11.517  0.2596  0.1485  0.4183
 3164W        W 7364   9.405   0.410   9.733  0.0703  0.2366  0.0616
 3165W        W 7365   9.099   3.165   1.828 -0.0801 -0.2575  0.0273
 3166W        W 7366   9.137   9.599  12.505  0.0347  0.3174 -0.0032
 3167W        W 7367  10.044   2.231  12.989 -0.2373  0.0338  0.1353
 3168W        W 7368   9.914   6.527   1.753 -0.1729 -0.2300 -0.0079
 3169W        W 7369   1.991   3.044  10.293  0.0149  0.2793 -0.1604
 3170W        W 7370   7.778   6.354   4.167 -0.0376 -0.5515  0.3269
 3171W        W 7371   8.490   5.911   9.101 -0.1076  0.1898 -0.0332
 3172W        W 7372   4.679  10.288   1.890  0.0170  0.1525  0.2881
 3173W        W 7373   5.770   3.126   2.214 -0.1654  0.0516 -0.0764
 3174W        W 7374   1.035   9.454  13.408  0.0046 -0.0138 -0.1321
 3175W        W 7375   9.029   3.043   3.687  0.1558  0.0770  0.3995
 3176W        W 7376   1.500   5.722   0.317  0.1444  0.1748 -0.3997
 3177W        W 7377   9.204   5.199   2.018 -0.1386  0.1656 -0.1772
 3178W        W 7378   6.981   2.178   3.384  0.1456 -0.2452 -0.0259
 3179W        W 7379   4.073   2.591  11.807 -0.0779 -0.4818  0.1766
 3180W        W 7380   8.132   3.714   4.485  0.0909  0.1918 -0.0465
 3181W        W 7381   7.349   0.730   2.346  0.0756 -0.1960  0.1143
 3182W        W 7382   1.649   8.804  10.523 -0.2619  0.2413  0.1071
 3183W        W 7383   7.568   2.141   0.614  0.2210 -0.2570  0.0106
 3184W        W 7384   3.213  10.253  11.134 -0.0433  0.0045 -0.0611
 3185W        W 7385   0.133   2.503   1.136  0.0237  0.3107  0.2580
 3186W        W 7386   7.958   1.109   1.558  0.1690 -0.0178  0.1608
 3187W        W 7387  10.030   6.556   0.318 -0.0195 -0.0858 -0.1661
 3188W        W 7388   1.129   0.043   8.505 -0.1435  0.2482 -0.1213
 3189W        W 7389   1.725   3.194   8.303 -0.1127  0.1165 -0.0869
 3190W        W 7390   2.420  10.132   2.745  0.0752 -0.0844  0.2722
 3191W        W 7391   4.166   5.996   9.281 -0.0533 -0.0903 -0.1152
 3192W        W 7392   9.656   8.983  11.326  0.0204 -0.0588  0.0469
 3193W        W 7393   9.210   2.205   1.612 -0.1470 -0.0350  0.2774
 3194W        W 7394   4.920   7.555  12.986 -0.2533 -0.1616  0.3279
 3195W        W 7395   9.480   6.988   4.942 -0.0184 -0.0244 -0.1835
 3196W        W 7396   5.247   4.805   1.870 -0.2952  0.0273  0.0310
 3197W        W 7397   5.204   5.111   9.398  0.0771  0.2203  0.0139
 3198W        W 7398   4.949   2.642  11.431 -0.3494  0.1687  0.0488
 3199W        W 7399   6.611   1.373   2.427 -0.0586 -0.2188  0.2762
 3200W        W 7400   2.301   9.657   3.612 -0.0124  0.1133 -0.2416
 3201W        W 7401   8.570   9.449  12.938 -0.0628  0.4205  0.3770
 3202W        W 7402   4.121   7.522   2.264  0.0888  0.4205  0.0633
 3203W        W 7403   6.312  10.374   1.051  0.0430  0.1125  0.3863
 3204W        W 7404   0.196   0.886   1.361  0.0243 -0.0891  0.3204
 3205W        W 7405   3.217   3.576  11.651  0.1144 -0.0449 -0.0190
 3206W        W 7406   7.116   5.891  12.666 -0.2851 -0.1765 -0.0036
 3207W        W 7407   7.131   6.642   4.523  0.1419 -0.0808 -0.1234
 3208W        W 7408   9.791   1.980   4.942  0.1060 -0.0548  0.1604
 3209W        W 7409   7.101   2.094  12.269 -0.3384  0.3237  0.1827
 3210W        W 7410   1.300   1.759  13.419 -0.1727  0.1540 -0.0637
 3211W        W 7411   9.951   9.230  11.043 -0.0824 -0.3022  0.0702
 3212W        W 7412   1.795   2.071  10.378 -0.1290 -0.3027 -0.2364
 3213W        W 7413   9.867   8.087  13.022  0.2897  0.1253  0.1453
 3214W        W 7414   5.903   2.885  12.348  0.0933  0.4057 -0.2703
 3215W        W 7415   3.524   2.690   9.324  0.0529 -0.0097  0.1062
 3216W        W 7416   7.326   5.534  10.500  0.1242  0.6605  0.0457
 3217W        W 7417   2.909   6.313   3.433 -0.0693  0.0743 -0.1139
 3218W        W 7418   1.992   5.644   3.970  0.0192  0.0829  0.2294
 3219W        W 7419   1.499   0.743  10.685 -0.0184  0.0843 -0.3477
 3220W        W 7420   4.668   8.628  12.489 -0.0934 -0.1104  0.0363
 3221W        W 7421   2.725   4.796   3.281 -0.4241  0.0090  0.0468
 3222W        W 7422   2.030   0.478  11.993  0.1949 -0.3573  0.1283
 3223W        W 7423   4.760   7.041   1.719  0.2128 -0.1353 -0.0134
 3224W        W 7424   6.076   4.053  11.715  0.0675  0.0336 -0.1198
 3225W        W 7425   1.612   0.170   3.829  0.2667 -0.0552  0.4309
 3226W        W 7426   1.624   6.720  10.299 -0.0943  0.3183  0.0673
 3227W        W 7427   4.444   8.019   0.955  0.0641 -0.0695 -0.1892
 3228W        W 7428   3.796   2.844   0.431 -0.0426  0.0255 -0.1273
 3229W        W 7429   0.800   0.545  11.491  0.2588 -0.2002  0.0712
 3230W        W 7430  10.216   2.331  11.214 -0.1166 -0.1523  0.0433
 3231W        W 7431   3.719   8.403   3.430  0.4321  0.1433 -0.0114
 3232W        W 7432   6.875   4.134   3.130  0.1642  0.0799 -0.3841
 3233W        W 7433   8.756   6.770  11.705  0.3180 -0.0225  0.1936
 3234W        W 7434   1.800   4.943   1.679 -0.2957  0.1409  0.1848
 3235W        W 7435   6.848   8.443  11.694  0.1259 -0.1522 -0.1511
 3236W        W 7436   0.615   5.983  10.034 -0.0198 -0.3920  0.0811
 3237W        W 7437   9.387   2.435  12.195 -0.3418  0.0422  0.0825
 3238W        W 7438   2.976   5.411   9.309  0.0658  0.1926  0.1149
 3239W        W 7439   8.667   8.737   4.601  0.2284  0.0330 -0.1636
 3240W        W 7440   7.684   6.471   0.901 -0.0269 -0.1977 -0.3658
 3241W        W 7441   7.350   2.227  11.369  0.0691 -0.2298  0.0472
 3242W        W 7442   6.311   3.607  11.678 -0.0450 -0.1694 -0.0061
 3243W        W 7443   2.094   9.422  12.861  0.1034  0.0118 -0.3316
 3244W        W 7444   7.210   3.331   2.197  0.1798  0.3087  0.1004
 3245W        W 7445   9.730   4.857   9.548  0.1951  0.1521 -0.0914
 3246W        W 7446   6.520   8.402   2.196  0.4927 -0.0451 -0.0048
 3247W        W 7447   1.550   8.824  13.284  0.0019 -0.1349  0.0962
 3248W        W 7448   1.279   1.693   2.786  0.0041  0.2084 -0.2305
 3249W        W 7449   8.489   8.299  12.536 -0.1165 -0.1495 -0.0956
 3250W        W 7450   1.965   0.861  12.543 -0.2437  0.2557 -0.0589
 3251W        W 7451   5.358   8.940   1.468 -0.0412 -0.1105 -0.0431
 3252W        W 7452   4.153   9.708   1.149  0.0371 -0.1743 -0.3566
 3253W        W 7453   1.589   3.062  10.696  0.1585 -0.5188 -0.3000
 3254W        W 7454   8.951   8.944   3.265 -0.0291 -0.2385 -0.2226
 3255W        W 7455   9.216  10.106   0.441  0.1721  0.4554  0.2492
 3256W        W 7456   6.945   6.284  12.115  0.0207  0.1557  0.1050
 3257W        W 7457   1.343   9.624   1.471  0.0173 -0.2741 -0.0587
 3258W        W 7458   9.598   2.311   0.380  0.0610  0.1782 -0.0006
 3259W        W 7459   1.825   6.412   3.121 -0.1384 -0.0760 -0.1305
 3260W        W 7460   1.985   7.832   0.566 -0.0545 -0.1883  0.1305
 3261W        W 7461   9.711   9.348  13.382 -0.2135 -0.0650  0.2133
 3262W        W 7462   3.023   5.261   0.706 -0.1906 -0.0935 -0.1355
 3263W        W 7463   1.526   5.444   3.891  0.1057 -0.0212 -0.2609
 3264W        W 7464   8.641   2.410  10.206  0.1445 -0.4736 -0.0340
 3265W        W 7465   0.440   8.914   4.675 -0.0812  0.1420 -0.0095
 3266W        W 7466   7.210   9.557  10.512 -0.2305  0.1565 -0.2348
 3267W        W 7467   3.116   9.727  10.071  0.3222  0.5731  0.2399
 3268W        W 7468   8.396   5.271   9.006  0.0896  0.3722  0.0011
 3269W        W 7469   5.829   2.286   9.940 -0.0750 -0.0477  0.0068
 3270W        W 7470   8.555   7.139   2.397 -0.1734 -0.2156 -0.0554
 3271W        W 7471   5.789   6.114   9.369 -0.0047  0.0762 -0.2694
 3272W        W 7472   1.651   9.434  13.232  0.0574 -0.3957  0.0551
 3273W        W 7473   6.063   4.364   8.064 -0.0525 -0.0669 -0.0709
 3274W        W 7474   9.774   2.705   1.978  0.0695  0.2159 -0.2002
 3275W        W 7475   5.446   1.184  12.983  0.3628 -0.1367  0.2524
 3276W        W 7476   5.891  10.016  12.678 -0.0820  0.2728 -0.1857
 3277W        W 7477   1.628   0.459   3.308  0.1529 -0.0543 -0.0209
 3278W        W 7478   1.765   3.365   9.431 -0.2585 -0.2740  0.3032
 3279W        W 7479   1.992   6.970   1.704  0.0598 -0.1326 -0.1119
 3280W        W 7480   6.956   3.723  10.995  0.2813 -0.2175  0.2349
 3281W        W 7481   9.205   4.390   3.165  0.1291 -0.2786  0.0926
 3282W        W 7482  10.374   9.300   3.437  0.2215  0.0487 -0.0285
 3283W        W 7483   0.976   6.487   3.666  0.0015 -0.0756 -0.0906
 3284W        W 7484  10.456   5.377  13.331  0.2416 -0.2663 -0.0839
 3285W        W 7485   1.477   3.023   3.867 -0.0951 -0.4465  0.1798
 3286W        W 7486   5.607   2.893   8.947 -0.2186 -0.0748 -0.0419
 3287W        W 7487   3.890   2.103   2.123  0.0943 -0.2493  0.0653
 3288W        W 7488   5.347   0.514   4.292  0.1797  0.2138  0.0727
 3289W        W 7489   1.764   1.304   2.934 -0.2401 -0.1398  0.0886
 3290W        W 7490   7.379   6.847   0.709 -0.1268 -0.1081  0.0439
 3291W        W 7491   3.916   2.405   9.468 -0.0711 -0.0057 -0.1185
 3292W        W 7492   0.293   2.689  12.393  0.2453  0.0540  0.0826
 3293W        W 7493   4.835   3.580   4.339 -0.1550 -0.0583 -0.1163
 3294W        W 7494   0.350   5.377   2.553 -0.1400 -0.0021 -0.2473
 3295W        W 7495   0.370   1.945  10.129  0.3306 -0.0385  0.0406
 3296W        W 7496   8.055   2.089   4.922  0.2038 -0.3233  0.2984
 3297W        W 7497   9.556   1.017   9.254 -0.2479  0.1717 -0.2274
 3298W        W 7498   2.421   4.783   4.223 -0.1408  0.0346 -0.1446
 3299W        W 7499   7.706   0.032  12.571  0.0531 -0.2594 -0.0010
 3300W        W 7500   8.043   5.069   2.821  0.2104 -0.0635 -0.2155
 3301W        W 7501   0.454   0.322   0.406 -0.0260 -0.0596 -0.1235
 3302W        W 7502   0.838   2.018  10.302  0.2075 -0.1272 -0.1497
 3303W        W 7503   1.193   3.302  10.946 -0.2235  0.1910  0.0571
 3304W        W 7504   8.074   4.944  12.973 -0.3601 -0.2558 -0.2721
 3305W        W 7505   4.967   9.512   1.792  0.1668  0.0639 -0.0570
 3306W        W 7506  10.265   0.920   1.647 -0.0132 -0.2495 -0.1640
 3307W        W 7507   2.757   1.610   0.552  0.0159  0.3612  0.0103
 3308W        W 7508   4.259   5.244   7.619  0.0145 -0.1201 -0.1850
 3309W        W 7509   0.684   5.461  10.791  0.0385  0.0789  0.1442
 3310W        W 7510  10.193   9.746   0.905  0.0796 -0.0811 -0.1511
 3311W        W 7511   4.036   6.345   0.147  0.1052  0.2166 -0.1001
 3312W        W 7512   1.635   3.608   9.833 -0.2084 -0.1126 -0.1679
 3313W        W 7513   6.489   3.852   1.478  0.3217  0.1788  0.2647
 3314W        W 7514   6.855   8.623   0.236 -0.2297 -0.1349  0.0564
 3315W        W 7515   4.913   5.321   2.654 -0.2189  0.3860  0.1325
 3316W        W 7516   8.785   1.972  10.381 -0.0528 -0.0290  0.1506
 3317W        W 7517   3.839   4.575   2.691 -0.0338  0.1907  0.3715
 3318W        W 7518   2.275   1.422  10.791  0.1570 -0.2493 -0.1748
 3319W        W 7519   4.231   2.495   3.810  0.0442 -0.0289 -0.0362
 3320W        W 7520   8.979   1.193  13.289  0.0746  0.0842  0.1781
 3321W        W 7521   8.765   9.285  12.520 -0.0013  0.2220 -0.0258
 3322W        W 7522   1.192   2.476   0.398 -0.2606 -0.2584 -0.0346
 3323W        W 7523  10.454   4.422   2.660  0.0420 -0.1994 -0.0505
 3324W        W 7524   7.351   5.006  10.271  0.3305  0.0517  0.0769
 3325W        W 7525   1.157   5.429   0.087 -0.1783  0.1588  0.2714
 3326W        W 7526   2.854   0.200   8.608 -0.2129 -0.1436 -0.1185
 3327W        W 7527   3.014   8.357  12.676  0.1254 -0.1022  0.2558
 3328W        W 7528   2.977   5.418   1.861  0.1960  0.1253 -0.1499
 3329W        W 7529   1.903   3.849  13.191  0.2468 -0.0924  0.1395
 3330W        W 7530   7.770   2.170  11.009  0.0221 -0.2517  0.4018
 3331W        W 7531   9.177   1.849   3.487  0.2757 -0.1633  0.0132
 3332W        W 7532   3.547   1.560  13.426  0.0090 -0.3129  0.0323
 3333W        W 7533  10.055   1.123   3.813 -0.3975  0.2315 -0.0457
 3334W        W 7534   4.907   3.804  11.640 -0.1735  0.1774  0.6746
 3335W        W 7535   5.304   2.800  11.174 -0.2311  0.3206 -0.2077
 3336W        W 7536  10.006   7.724   2.433  0.1038 -0.0416  0.0698
 3337W        W 7537   7.005   2.882   4.529 -0.0474 -0.0222  0.1020
 3338W        W 7538   1.274   6.826  11.661 -0.1852 -0.2771 -0.2361
 3339W        W 7539   3.791   4.756  10.561  0.3077 -0.0429  0.0063
 3340W        W 7540   9.514   6.914   0.174 -0.0095 -0.0861  0.0425
 3341W        W 7541   3.660   5.690   3.757  0.3979  0.0882  0.1331
 3342W        W 7542   0.697   7.527   0.823 -0.1223 -0.1819 -0.0729
 3343W        W 7543   9.299   1.301   3.521 -0.1425  0.1833  0.0314
 3344W        W 7544  10.290   1.125  10.329  0.0770  0.1502 -0.5256
 3345W        W 7545   0.928   1.528   8.276 -0.2519  0.0372 -0.0363
 3346W        W 7546   0.198   8.724   3.655 -0.0026 -0.2343  0.1903
 3347W        W 7547   6.398   4.329  13.444 -0.1344 -0.0501 -0.3862
 3348W        W 7548   5.590   5.227  10.860  0.0954  0.0813  0.0014
 3349W        W 7549  10.132   4.803   8.690  0.1547 -0.1134 -0.3125
 3350W        W 7550   8.442   9.295  10.065 -0.0864  0.2346  0.3100
 3351W        W 7551   9.290   4.450  12.845 -0.1579  0.0615  0.3207
 3352W        W 7552   1.410   7.993   2.392 -0.1903 -0.1818  0.1314
 3353W        W 7553   0.045   9.745   9.528  0.1330  0.2002  0.0014
 3354W        W 7554   0.709   5.512  13.280 -0.1567 -0.1819  0.0804
 3355W        W 7555   4.209   4.652   0.999 -0.0490  0.0956  0.1824
 3356W        W 7556  10.050   2.170   9.317 -0.2339  0.1089  0.0281
 3357W        W 7557   4.830   3.587   8.669 -0.0090 -0.2673  0.2473
 3358W        W 7558   0.283   7.712  10.594  0.1044  0.0837 -0.0018
 3359W        W 7559   1.416  10.107   3.931 -0.1981  0.0492  0.2279
 3360W        W 7560   4.828   1.043   3.518 -0.0907 -0.0613  0.0466
 3361W        W 7561   3.858   2.239  12.944 -0.1487  0.0872  0.0953
 3362W        W 7562   9.666   3.704   2.837  0.2945  0.1102 -0.3118
 3363W        W 7563   3.281   7.943   0.516  0.1822  0.1970 -0.0312
 3364W        W 7564   4.038   0.262   0.528 -0.2411  0.1859 -0.3024
 3365W        W 7565   5.655   4.342   2.604  0.4097  0.0119  0.0972
 3366W        W 7566   8.365   8.899   0.204 -0.2113  0.0020  0.1207
 3367W        W 7567   6.402   6.230  10.601 -0.1239  0.1564  0.1745
 3368W        W 7568   3.693  10.110   3.120 -0.0132 -0.0689  0.0406
 3369W        W 7569   5.987   9.119  10.256 -0.2005 -0.1616 -0.0511
 3370W        W 7570   4.760   3.498   1.971  0.0097  0.0251  0.4119
 3371W        W 7571   2.860   8.849  10.782  0.0321 -0.0318  0.2656
 3372W        W 7572   7.557   8.568   1.478 -0.1190  0.1181  0.2571
 3373W        W 7573   5.990   5.948  10.670  0.2100 -0.0982 -0.1430
 3374W        W 7574   8.756   8.660  11.249 -0.1810  0.0736 -0.0286
 3375W        W 7575   7.676   1.379  12.714 -0.1666  0.2039 -0.1591
 3376W        W 7576   9.127   6.196   1.088 -0.1584  0.1302  0.1305
 3377W        W 7577   7.084   0.699  12.297  0.5212  0.2462  0.2791
 3378W        W 7578   0.595   2.154   3.755  0.1376  0.1101 -0.0945
 3379W        W 7579   6.263   5.289   1.893  0.3699 -0.1919 -0.1767
 3380W        W 7580   0.534   6.243   9.012  0.0878 -0.0410  0.1402
 3381W        W 7581   7.425   7.080  11.850 -0.0505  0.0632  0.1787
 3382W        W 7582   9.606   9.891   3.671  0.0405  0.0750  0.1641
 3383W        W 7583   2.233   5.941   3.160  0.6157  0.0149 -0.0359
 3384W        W 7584   5.352   7.258  12.311 -0.4750 -0.0597  0.0270
 3385W        W 7585   0.199   8.407  12.218 -0.3330 -0.0756  0.1355
 3386W        W 7586   3.307   1.032   4.134  0.2667 -0.1762 -0.2331
 3387W        W 7587   1.702   5.966   9.870  0.0627 -0.0374  0.0218
 3388W        W 7588   9.084   3.320   4.524 -0.0175 -0.0730 -0.2730
 3389W        W 7589   4.813   6.401  11.338  0.2860 -0.4353 -0.0333
 3390W        W 7590  10.093   7.805   9.031 -0.3029  0.1179 -0.0277
 3391W        W 7591   9.141   0.883   3.305 -0.3473  0.2134 -0.1950
 3392W        W 7592   8.603   9.049  13.253  0.4782 -0.1278 -0.0971
 3393W        W 7593   2.552   3.447  10.978  0.3310  0.1615 -0.6316
 3394W        W 7594   0.163   9.456   0.037  0.3977  0.2877  0.0811
 3395W        W 7595   0.280   5.635   3.319  0.0333 -0.2023  0.1281
 3396W        W 7596   3.057   4.559  12.145  0.2000  0.2245  0.1514
 3397W        W 7597   8.155   4.729   4.297 -0.1853  0.1113  0.1954
 3398W        W 7598   0.895   4.685   1.378 -0.0419 -0.4414 -0.0418
 3399W        W 7599   3.436   6.247  12.261 -0.1309 -0.0653 -0.0883
 3400W        W 7600   8.784   7.239  11.842  0.1256 -0.1995 -0.0801
 3401W        W 7601   0.951   1.918  11.481  0.2484 -0.3285  0.0690
 3402W        W 7602   1.803   3.531  11.680  0.2541 -0.0359  0.0090
 3403W        W 7603   5.382   3.662  11.778  0.0088 -0.2438 -0.5366
 3404W        W 7604   1.793   1.350   0.881  0.0635  0.1997 -0.2172
 3405W        W 7605   4.123   1.082  10.884  0.2819  0.1699  0.3321
 3406W        W 7606   7.061   9.912  12.068  0.0768 -0.0426 -0.1935
 3407W        W 7607   6.102   3.605   1.186  0.0801 -0.2082 -0.0432
 3408W        W 7608   8.270   0.591   2.384 -0.1558 -0.0429  0.4778
 3409W        W 7609   7.516   3.395  11.016  0.0500  0.0482 -0.2159
 3410W        W 7610   1.138  10.178  13.112 -0.1315 -0.0249  0.0745
 3411W        W 7611   4.188  10.301   2.887 -0.1518  0.0267  0.1942
 3412W        W 7612   7.354   7.619   3.145 -0.1603  0.0808 -0.0232
 3413W        W 7613   0.938   8.277  12.725 -0.2266 -0.0211  0.2950
 3414W        W 7614   9.200   3.369   3.205 -0.1616 -0.0018 -0.0673
 3415W        W 7615   0.222   5.320  10.912 -0.0728  0.0357  0.1510
 3416W        W 7616   3.995   7.974  10.101  0.0805 -0.1882  0.0287
 3417W        W 7617   7.218   0.417   2.756 -0.0428 -0.3409 -0.0655
 3418W        W 7618   2.282   1.910   8.623  0.0648 -0.2237 -0.1284
 3419W        W 7619   4.750   3.788   1.478  0.0228 -0.0227  0.0910
 3420W        W 7620   4.514   0.426   0.462 -0.2426 -0.1129  0.1597
 3421W        W 7621   4.864   8.659  12.011  0.1928 -0.0664 -0.0521
 3422W        W 7622   7.644   9.735   2.054  0.1189 -0.0662  0.4514
 3423W        W 7623   9.822   1.700   2.299 -0.4458 -0.3518 -0.0416
 3424W        W 7624   5.869   8.926  11.560  0.0119 -0.0070  0.2889
 3425W        W 7625   2.935   9.716  11.614 -0.0381 -0.2134  0.0756
 3426W        W 7626   3.355   7.914   1.003 -0.3509 -0.0060  0.3508
 3427W        W 7627   3.735   2.534   1.221  0.0622  0.2039  0.0376
 3428W        W 7628   8.224   8.476   0.001 -0.1340 -0.0326  0.3662
 3429W        W 7629   5.695   5.994   1.069 -0.3103 -0.1735  0.1296
 3430W        W 7630   2.834   4.562   2.794  0.0281  0.0094  0.0257
 3431W        W 7631   9.644   1.926  12.419  0.0838  0.0425  0.1676
 3432W        W 7632   5.692   5.338  13.193  0.1094  0.0449  0.3066
 3433W        W 7633   4.189   9.035  10.221  0.2727 -0.0555  0.0303
 3434W        W 7634   9.958  10.043  10.555 -0.2763  0.0251  0.1477
 3435W        W 7635   8.127   8.891   9.981  0.0585  0.1907 -0.1110
 3436W        W 7636   5.482   2.662  13.125 -0.0295 -0.0304 -0.2774
 3437W        W 7637   3.438   1.951  11.804 -0.0177  0.0370 -0.0859
 3438W        W 7638   1.171   2.121   4.476  0.1339  0.1702 -0.4241
 3439W        W 7639   6.509   3.512  11.189  0.1476 -0.0932 -0.1851
 3440W        W 7640   5.345   5.672   1.293  0.0454 -0.0428 -0.1880
 3441W        W 7641   9.288   7.735   1.593 -0.3517  0.1805 -0.0900
 3442W        W 7642   9.478   0.497  12.973 -0.1555 -0.1807 -0.1085
 3443W        W 7643   6.388   2.488   4.554 -0.0205  0.0878 -0.0405
 3444W        W 7644   8.652   5.255   2.260 -0.1412  0.1165  0.2150
 3445W        W 7645   9.815   0.942  12.990 -0.0870  0.0550  0.0486
 3446W        W 7646   7.785   5.543   9.638  0.0639 -0.0931  0.1607
 3447W        W 7647   3.562   1.122   2.395 -0.0982  0.0205 -0.5134
 3448W        W 7648   0.521   1.856   9.438  0.0308 -0.0671 -0.3362
 3449W        W 7649   5.060   6.487   0.345 -0.1439  0.1184 -0.2878
 3450W        W 7650   3.615   3.609  12.620  0.0365 -0.2151 -0.3586
 3451W        W 7651   8.095   0.808   1.952  0.2548 -0.1323 -0.0012
 3452W        W 7652  10.424  10.377  10.680  0.1607 -0.1622 -0.0059
 3453W        W 7653   8.060   6.698  11.322 -0.2694 -0.0467 -0.4529
 3454W        W 7654   7.639   5.202   0.416  0.2067 -0.3045 -0.0769
 3455W        W 7655   7.546   0.472  10.600  0.3156 -0.0288  0.1732
 3456W        W 7656   3.242   4.314   9.434 -0.0764 -0.0393 -0.0973
 3457W        W 7657   3.348   3.617  12.119  0.0372 -0.2003 -0.2051
 3458W        W 7658   4.239   4.211   0.338  0.2700  0.1528 -0.0435
 3459W        W 7659   2.209   2.850   2.980  0.1967 -0.1225  0.1473
 3460W        W 7660   0.294   3.406   1.456 -0.0890 -0.2920  0.0585
 3461W        W 7661   5.667   5.688  10.362 -0.1398 -0.5610  0.1490
 3462W        W 7662   5.792   1.636   2.179  0.0716  0.5072 -0.0280
 3463W        W 7663   9.741   5.513   9.793  0.0764  0.1178 -0.0410
 3464W        W 7664   1.369   1.713   8.935 -0.3089  0.1232  0.1245
 3465W        W 7665   8.806  10.230   2.376  0.1458 -0.3192  0.1107
 3466W        W 7666   8.437   8.102  10.630  0.1239  0.1580  0.3715
 3467W        W 7667   4.440  10.046  12.589 -0.0787 -0.0903 -0.1285
 3468W        W 7668   0.437   4.408   2.484 -0.1310  0.1995  0.3442
 3469W        W 7669   2.848   3.256  11.314 -0.2076 -0.1230 -0.0008
 3470W        W 7670   4.840   5.399   3.530 -0.0503 -0.1117 -0.4528
 3471W        W 7671   5.420   3.308   2.490  0.0518 -0.0363 -0.2173
 3472W        W 7672  10.393   7.385   4.163 -0.0367  0.0501  0.0352
 3473W        W 7673   2.103   4.503  10.058 -0.2661 -0.1348  0.1362
 3474W        W 7674   8.432   0.455  11.981 -0.0572 -0.1009  0.0382
 3475W        W 7675   4.631   4.288   1.475 -0.1997  0.0860 -0.0065
 3476W        W 7676   1.448   8.541   3.167 -0.1430 -0.0425 -0.2978
 3477W        W 7677   4.671   3.055  12.264 -0.2470 -0.0120  0.1168
 3478W        W 7678  10.119   8.559   0.254 -0.0837  0.1567  0.1386
 3479W        W 7679   6.019   1.148  11.710 -0.0599 -0.1586 -0.0977
 3480W        W 7680   8.861   0.797  12.923  0.4013  0.0109  0.1785
 3481W        W 7681   3.526   1.209  12.252 -0.2804 -0.0149 -0.0272
 3482W        W 7682   8.007   9.972   2.817 -0.4554 -0.0442  0.2669
 3483W        W 7683   8.552   0.257   1.391  0.1473  0.1418  0.3052
 3484W        W 7684   8.400   2.586   9.337 -0.0019 -0.3161  0.2181
 3485W        W 7685   2.332   1.648  12.603  0.1863  0.2614 -0.0585
 3486W        W 7686   9.318   4.512   0.405  0.0405  0.0738 -0.0328
 3487W        W 7687   1.990   0.084  11.197 -0.1407 -0.1861 -0.5052
 3488W        W 7688   6.735   3.311   1.510 -0.0300  0.3812 -0.0539
 3489W        W 7689   9.427   8.231   4.121 -0.2977  0.1580  0.0399
 3490W        W 7690   0.836   5.615   1.086 -0.0949  0.0498  0.1670
 3491W        W 7691  10.458   7.305  10.336 -0.0820  0.3606 -0.0094
 3492W        W 7692   3.391   2.164  12.418  0.2706 -0.2561 -0.0289
 3493W        W 7693   8.249   6.459   2.844 -0.1133 -0.2960 -0.0412
 3494W        W 7694  10.040   1.352  12.605  0.1637 -0.2968  0.0833
 3495W        W 7695   6.445   1.422   2.982 -0.0743 -0.0824 -0.1206
 3496W        W 7696   5.438   4.104   8.307  0.0483  0.0581  0.0622
 3497W        W 7697   0.032   7.653   5.410 -0.0991  0.2938 -0.2040
 3498W        W 7698   5.247  10.316  12.862  0.1296  0.2386 -0.2930
 3499W        W 7699   4.445   3.888   3.383 -0.3866 -0.0307  0.1437
 3500W        W 7700   8.812   2.887   1.532 -0.0075 -0.2074  0.0508
 3501W        W 7701   8.453   9.742  10.851 -0.2491 -0.2159  0.0224
 3502W        W 7702   5.101   2.856   0.010  0.0325  0.0847 -0.3117
 3503W        W 7703   3.431   2.259   1.722  0.0736 -0.1018 -0.2062
 3504W        W 7704   2.951   1.595   3.976  0.2434  0.3612  0.2440
 3505W        W 7705   0.134   6.369   0.765 -0.0182  0.1415  0.0304
 3506W        W 7706   4.431   1.527   1.093  0.2359 -0.1898  0.0512
 3507W        W 7707   2.832   9.333   0.981  0.2072 -0.2248 -0.1279
 3508W        W 7708   6.853   7.804   3.165 -0.1781  0.0677 -0.1430
 3509W        W 7709   7.137   9.402   2.498 -0.2635 -0.0346 -0.3087
 3510W        W 7710   9.669   2.430  10.747 -0.0376  0.3212  0.1670
 3511W        W 7711   1.729   5.252  12.811 -0.1628  0.0724 -0.1394
 3512W        W 7712   9.665   9.331  12.397  0.1553 -0.2590 -0.1794
 3513W        W 7713   8.240   9.299  10.980 -0.0579  0.0464 -0.1586
 3514W        W 7714   0.400  10.145   9.365  0.2655  0.1956  0.1299
 3515W        W 7715   1.908   6.447   0.359 -0.1629  0.2005 -0.1072
 3516W        W 7716   0.853  10.410   1.228 -0.0295 -0.1283 -0.0119
 3517W        W 7717   9.800   5.692  12.045  0.3028 -0.0308  0.1212
 3518W        W 7718   9.678   4.122  10.063 -0.0043  0.0637  0.2911
 3519W        W 7719   4.571   4.496   0.659 -0.0004 -0.5836 -0.0579
 3520W        W 7720   1.434   5.051  11.763 -0.2966 -0.1645 -0.0443
 3521W        W 7721   5.222   8.026   0.361  0.1047 -0.2293 -0.0870
 3522W        W 7722   6.937   9.013   4.099 -0.1269  0.0789 -0.0806
 3523W        W 7723   2.622   7.221   3.979  0.1161 -0.0335  0.2496
 3524W        W 7724   9.178   3.622   3.720  0.2643 -0.3561  0.2438
 3525W        W 7725  10.423   1.684   2.238  0.0409 -0.0504 -0.0547
 3526W        W 7726   7.041   2.023   2.894 -0.1654  0.0316 -0.0763
 3527W        W 7727   7.123   2.321   1.394 -0.3191  0.0523  0.0901
 3528W        W 7728   8.873   5.216   8.793  0.3608 -0.4358 -0.0674
 3529W        W 7729   8.610   1.682   4.160 -0.1595 -0.2213  0.0570
 3530W        W 7730   0.628   0.847   1.112  0.1236 -0.2522  0.1344
 3531W        W 7731   3.056   5.166   3.086 -0.3311 -0.0572  0.0281
 3532W        W 7732   1.757   7.127  12.199 -0.0067 -0.4132  0.1117
 3533W        W 7733   3.646   6.548  11.021 -0.0495  0.1413 -0.0861
 3534W        W 7734   7.946   6.182   1.298 -0.0699  0.0644 -0.0940
 3535W        W 7735   3.805   9.015  13.002 -0.0764 -0.0171 -0.2127
 3536W        W 7736   8.537   2.776   4.714 -0.0081  0.4127  0.1082
 3537W        W 7737   1.383  10.136   4.501 -0.0447  0.1935 -0.1356
 3538W        W 7738   5.113   5.790  10.488 -0.1089 -0.0382  0.0784
 3539W        W 7739   8.495  10.144  12.129 -0.1419  0.0151  0.1046
 3540W        W 7740   8.660   6.395   9.923  0.0059  0.0199  0.3027
 3541W        W 7741   8.468   1.188   9.319  0.3738 -0.0764  0.0831
 3542W        W 7742   9.740   2.895  10.494  0.1588 -0.1249 -0.1834
 3543W        W 7743   8.053   8.410   4.053 -0.2841  0.2685  0.1081
 3544W        W 7744   6.277   0.269  10.772  0.0837  0.0594  0.0971
 3545W        W 7745   4.112   7.616  11.517  0.1467 -0.0073 -0.2191
 3546W        W 7746   1.902   1.220   1.609  0.1744  0.2616 -0.2543
 3547W        W 7747   5.069   0.582   3.589  0.3944 -0.0297  0.0071
 3548W        W 7748   2.852   7.395  11.148 -0.1841  0.2120 -0.1353
 3549W        W 7749   0.361   0.757   3.782  0.1194 -0.0557  0.2808
 3550W        W 7750   9.175   9.267  10.524 -0.2510 -0.0492 -0.3597
 3551W        W 7751   3.599   0.529   0.242  0.0859 -0.1033  0.0853
 3552W        W 7752   0.635   0.212   3.980 -0.0347 -0.1800  0.2437
 3553W        W 7753   1.098   6.656   4.117 -0.1369  0.0829 -0.0527
 3554W        W 7754   2.652   4.690  11.781  0.0568 -0.0775 -0.1916
 3555W        W 7755  10.149   3.700   8.524 -0.0166  0.3248 -0.0436
 3556W        W 7756   6.308   1.663   1.989 -0.1280 -0.3276  0.1280
 3557W        W 7757   2.634   1.767  12.996 -0.2774 -0.0611 -0.2101
 3558W        W 7758  10.084   8.110   0.527  0.3499 -0.1488 -0.0515
 3559W        W 7759   1.126   0.056  11.352  0.0968 -0.0592  0.2504
 3560W        W 7760   1.701   3.784   1.407 -0.1692 -0.1842  0.1321
 3561W        W 7761   0.059  10.351  11.470  0.0453  0.0190 -0.3159
 3562W        W 7762   4.411   6.754   2.014  0.0562 -0.0833  0.2023
 3563W        W 7763   3.939   2.375   0.427  0.2734  0.0807 -0.0288
 3564W        W 7764   2.049   1.074  11.480 -0.1636  0.3077 -0.1099
 3565W        W 7765   4.214   1.184   0.771 -0.1409 -0.0569  0.3312
 3566W        W 7766   2.710   9.092   4.075  0.0278  0.4662  0.0578
 3567W        W 7767   3.069   7.877   3.712 -0.3415  0.1561 -0.0309
 3568W        W 7768   3.973   6.391   3.023 -0.1691  0.2545  0.3209
 3569W        W 7769   8.330   4.487  11.437 -0.0082 -0.2295 -0.3247
 3570W        W 7770   9.878   4.677   3.931 -0.1320 -0.1719  0.0424
 3571W        W 7771  10.325   7.010   9.928 -0.0042 -0.1540 -0.2163
 3572W        W 7772   8.082  10.229   9.992 -0.4224 -0.1153  0.0362
 3573W        W 7773   2.581   2.503   1.893 -0.3106  0.1142 -0.0058
 3574W        W 7774   2.352   3.430   8.933  0.1071  0.1404  0.2091
 3575W        W 7775   2.160   6.245   9.947 -0.2425  0.1855 -0.1422
 3576W        W 7776   6.013   3.097   2.692  0.0292 -0.2838 -0.1879
 3577W        W 7777   6.709   1.037   2.774  0.0633 -0.0877 -0.1102
 3578W        W 7778  10.004   8.473   1.495  0.2284 -0.1150 -0.1674
 3579W        W 7779   3.535   4.737   3.723  0.2028  0.0657  0.2738
 3580W        W 7780   6.264   4.267   9.973 -0.0391  0.2004 -0.0635
 3581W        W 7781   6.465   1.425   3.528 -0.1192 -0.2346  0.0471
 3582W        W 7782   2.796   8.790  11.762  0.2791  0.0887 -0.2465
 3583W        W 7783   9.035   6.535  11.386  0.0858 -0.2106  0.0506
 3584W        W 7784   3.544   4.284   4.278  0.0169  0.1542 -0.2186
 3585W        W 7785   1.836   9.820   9.113 -0.0904 -0.1948 -0.1049
 3586W        W 7786   3.982   6.751   8.655  0.5542  0.0282  0.0468
 3587W        W 7787   7.041   5.863   0.291  0.1571 -0.0502  0.3144
 3588W        W 7788   6.049   1.777   3.389  0.0539  0.0350 -0.1669
 3589W        W 7789   5.051   7.759  11.615 -0.0451 -0.0533  0.0766
 3590W        W 7790   3.173   9.397  10.926 -0.1484  0.2198  0.2160
 3591W        W 7791   9.945   6.339   1.328 -0.2760  0.1542 -0.4207
 3592W        W 7792   2.621   4.227   1.633 -0.2172  0.0748  0.1443
 3593W        W 7793   9.414   7.875  13.161 -0.1826  0.3751 -0.0481
 3594W        W 7794   9.040   0.851  11.622  0.1416 -0.3027  0.0897
 3595W        W 7795   9.897   7.557   0.801  0.1436  0.0262 -0.0453
 3596W        W 7796   7.214   2.628   2.292  0.1317 -0.0750 -0.2377
 3597W        W 7797   2.803   6.484  10.752  0.0713 -0.3507 -0.4300
 3598W        W 7798   0.167   8.491   2.836  0.0029 -0.1486 -0.3204
 3599W        W 7799   3.097   6.839   9.184 -0.1091 -0.1346 -0.4116
 3600W        W 7800   2.410   7.502  11.485  0.1744  0.0358  0.2898
 3601W        W 7801   3.260   9.739   3.214  0.2029  0.2345 -0.3459
 3602W        W 7802   3.034   6.535  12.227 -0.0780 -0.0932  0.1641
 3603W        W 7803   6.794   7.615  11.250 -0.0754  0.2491 -0.1738
 3604W        W 7804   3.135   8.328   8.965 -0.1127 -0.0636 -0.1127
 3605W        W 7805   0.559   5.543  10.331 -0.1407 -0.0542  0.0038
 3606W        W 7806   9.989   0.917  12.305 -0.2081  0.0600  0.0658
 3607W        W 7807   1.818   5.616  11.161 -0.1253 -0.0468 -0.2841
 3608W        W 7808   3.283   4.120  13.388  0.0200  0.0065 -0.1087
 3609W        W 7809   8.288   5.546   9.455  0.2207 -0.0628 -0.2564
 3610W        W 7810   0.380   9.902   1.627  0.3550  0.4960 -0.0486
 3611W        W 7811   7.787   1.984  10.046 -0.0544 -0.2470  0.1151
 3612W        W 7812   2.830   2.006   3.226 -0.1413  0.1386  0.1425
 3613W        W 7813   0.121   7.944   9.754  0.3306 -0.0302  0.1288
 3614W        W 7814   8.146   5.300   1.070 -0.0887 -0.3052 -0.0374
 3615W        W 7815   7.423   0.646   3.211  0.2015 -0.4730  0.0548
 3616W        W 7816   9.370   2.735   4.012  0.0355 -0.1080 -0.3249
 3617W        W 7817   8.783   1.355  12.872  0.2466 -0.0764  0.1282
 3618W        W 7818   2.401   1.254  12.290 -0.3100  0.0191  0.0982
 3619W        W 7819   7.827   5.544   2.753  0.0299 -0.1693 -0.1538
 3620W        W 7820   7.751   9.243  11.127  0.0217  0.2526 -0.5194
 3621W        W 7821   8.822   7.854  12.490  0.0218 -0.0281 -0.0385
 3622W        W 7822   5.981   8.198  10.532 -0.2057  0.1731  0.1003
 3623W        W 7823   6.529   0.188  12.819 -0.1048 -0.0737  0.1886
 3624W        W 7824   8.781   1.468   5.132 -0.0270  0.0238 -0.0533
 3625W        W 7825   8.499   5.001   9.403 -0.1585 -0.1134 -0.2836
 3626W        W 7826   7.507   9.240   1.990 -0.0277  0.2610  0.0475
 3627W        W 7827   7.863   8.883   0.113  0.2558 -0.1069 -0.1360
 3628W        W 7828   1.008   3.827  10.739 -0.1981  0.3548 -0.1307
 3629W        W 7829   1.774   4.108   2.111  0.2266  0.0516 -0.0971
 3630W        W 7830   9.727   3.252   9.722 -0.0720  0.0996 -0.0228
 3631W        W 7831   0.362   6.612  11.541 -0.0239 -0.3608 -0.1543
 3632W        W 7832   9.322   1.488   9.151 -0.3216 -0.0183 -0.3052
 3633W        W 7833   2.327  10.067   3.234  0.0259 -0.0791  0.0388
 3634W        W 7834   5.683   6.143   2.789 -0.1515  0.3369 -0.2705
 3635W        W 7835   6.433   7.126  11.890  0.1950 -0.1664 -0.0575
 3636W        W 7836   6.733   2.643   3.426  0.1473 -0.2580 -0.0172
 3637W        W 7837   7.890   6.796   2.892 -0.0962  0.2149 -0.0883
 3638W        W 7838   6.369   6.515   0.201  0.2598 -0.0334 -0.0362
 3639W        W 7839   1.407   6.681   4.488  0.3377 -0.1288 -0.1650
 3640W        W 7840   0.352   5.640   0.178 -0.3967  0.1072  0.0805
 3641W        W 7841   1.101   8.780  10.568 -0.1758  0.0232  0.0778
 3642W        W 7842   6.432   9.093  10.388  0.3054  0.0515  0.0998
 3643W        W 7843   7.753   8.646   3.751 -0.1170 -0.0844  0.1049
 3644W        W 7844   4.149   2.009  12.112  0.2543 -0.0909 -0.2451
 3645W        W 7845   8.298   1.633  12.284  0.3155  0.3369  0.1945
 3646W        W 7846   7.945   9.905   4.315  0.0103  0.1491 -0.1672
 3647W        W 7847   5.165  10.416  13.415 -0.1685  0.0499 -0.1970
 3648W        W 7848   6.795   4.526  10.571 -0.3231  0.0224  0.1562
 3649W        W 7849   8.114   3.353   0.430  0.1196  0.1604  0.3059
 3650W        W 7850   9.608   1.415   9.634  0.0238 -0.2541  0.0314
 3651W        W 7851   2.060   5.815   9.530  0.1508  0.0584  0.0804
 3652W        W 7852  10.373   0.361   0.582  0.2394 -0.3541  0.1150
 3653W        W 7853   5.675   7.697  12.123  0.0324 -0.0046 -0.4506
 3654W        W 7854   6.481   8.905   2.318  0.1551 -0.2060 -0.1994
 3655W        W 7855   1.881   3.010  11.600  0.0756  0.0729  0.1471
 3656W        W 7856   8.207   3.588   2.097 -0.1814  0.1378  0.0697
 3657W        W 7857   4.846   6.210  10.547 -0.0166  0.1611  0.0558
 3658W        W 7858   5.586  10.247   2.775 -0.2883 -0.1527 -0.1145
 3659W        W 7859   9.009   1.859   2.013 -0.2446 -0.0250 -0.1897
 3660W        W 7860   0.095   8.919   2.084 -0.0320  0.0858  0.0562
 3661W        W 7861   1.528   2.225   0.684 -0.0448  0.5135 -0.1866
 3662W        W 7862   8.395   8.273   0.446 -0.1321  0.3347  0.1558
 3663W        W 7863  10.141   1.947  10.919 -0.1240  0.1577  0.1377
 3664W        W 7864   5.174   8.274  11.469 -0.2339  0.1267 -0.0697
 3665W        W 7865  10.357   3.435   2.665 -0.0770  0.0263 -0.1336
 3666W        W 7866   6.366   5.302  11.483 -0.4139  0.2825  0.1001
 3667W        W 7867  10.088   5.851   4.413  0.0267 -0.1493 -0.1172
 3668W        W 7868   3.900   8.628  11.895 -0.2190 -0.1964 -0.2063
 3669W        W 7869  10.159   6.872   1.333  0.4261  0.3674  0.2908
 3670W        W 7870   8.298   2.342   0.640 -0.2447  0.0116 -0.1131
 3671W        W 7871   1.547   5.034   0.269  0.0265  0.1906  0.1938
 3672W        W 7872   5.127   4.973   2.328  0.0368  0.2125  0.3271
 3673W        W 7873   9.377   9.882  13.175 -0.1198 -0.0582  0.0896
 3674W        W 7874   9.786   6.446  11.088 -0.1737 -0.2341 -0.0509
 3675W        W 7875   2.316   3.939   0.023  0.2568 -0.0791 -0.0121
 3676W        W 7876   7.312   3.656   4.254 -0.1383  0.4410  0.1595
 3677W        W 7877   9.225  10.434   5.175  0.1046  0.0842  0.1579
 3678W        W 7878   4.996   0.812   4.000  0.1673  0.1285  0.2625
 3679W        W 7879   8.915   8.703  13.421 -0.2136 -0.0779 -0.0130
 3680W        W 7880   1.694   9.836  11.794  0.0934  0.1055  0.1864
 3681W        W 7881   5.781   8.644   0.818 -0.4972 -0.1595  0.2714
 3682W        W 7882   6.874   2.377   2.028  0.1728 -0.0169 -0.0473
 3683W        W 7883   8.350   1.428  11.696 -0.0493  0.1939 -0.1957
 3684W        W 7884   2.011   9.917   2.789 -0.0617  0.3498 -0.1622
 3685W        W 7885   5.859   2.520   2.924  0.0709 -0.6142 -0.1347
 3686W        W 7886   5.736  10.152   2.272 -0.0877  0.0476  0.0391
 3687W        W 7887   1.091   7.351   2.992 -0.0314 -0.1014 -0.0257
 3688W        W 7888   5.967   4.494  13.181  0.0044 -0.1295  0.0832
 3689W        W 7889   9.263   4.080   4.154 -0.0274 -0.1612 -0.1700
 3690W        W 7890  10.471   4.787   3.039  0.0448  0.1249  0.1071
 3691W        W 7891   0.416   3.513  13.389 -0.3145 -0.1079  0.0362
 3692W        W 7892   4.771   4.109   4.645 -0.1462  0.0731  0.3151
 3693W        W 7893   1.434   8.941   0.304  0.0260 -0.0197  0.0005
 3694W        W 7894   5.373   7.921   2.977  0.0219  0.0067 -0.4287
 3695W        W 7895   1.711   8.615  12.035  0.1246 -0.1421 -0.2128
 3696W        W 7896   6.161   8.816   3.675  0.2585  0.1378  0.1347
 3697W        W 7897   5.032   4.926   9.938  0.2651 -0.3103 -0.1823
 3698W        W 7898   4.589   7.301   2.139 -0.1795  0.4458 -0.1790
 3699W        W 7899  10.139   3.243  12.981  0.0442  0.1138 -0.1961
 3700W        W 7900   9.420   9.740   5.130 -0.0593  0.2055 -0.2824
 3701W        W 7901   7.521   3.540  10.204  0.0805 -0.0933 -0.1735
 3702W        W 7902   7.641   8.100   1.618 -0.1709 -0.0029  0.0406
 3703W        W 7903   0.323   0.415   0.968 -0.1234 -0.1682  0.0591
 3704W        W 7904   9.592   4.772   0.015 -0.1388 -0.1952 -0.1580
 3705W        W 7905   8.960   6.947  10.977  0.1186  0.2369  0.2090
 3706W        W 7906   1.182   8.940   3.940 -0.1300 -0.1591  0.2454
 3707W        W 7907   6.334   1.091  10.200  0.0746 -0.1367  0.1101
 3708W        W 7908   4.936   4.544   3.168  0.1507  0.0599 -0.0524
 3709W        W 7909   5.011   7.367  11.059 -0.0302  0.0790  0.1097
 3710W        W 7910   5.579   1.865   1.185  0.2382 -0.0069 -0.1470
 3711W        W 7911   7.562   0.817   1.393 -0.1611  0.1656  0.0267
 3712W        W 7912   7.227  10.084   9.108 -0.0539 -0.0334  0.1526
 3713W        W 7913   5.969   2.980   1.758 -0.1268  0.0539  0.0837
 3714W        W 7914   5.484  10.068  12.385  0.3288 -0.1847  0.1911
 3715W        W 7915   6.471   8.577   1.510 -0.4529  0.1887 -0.4743
 3716W        W 7916   2.884   3.188   2.644 -0.0762  0.0656 -0.2402
 3717W        W 7917   3.230   0.448  11.578  0.0662 -0.0829  0.0009
 3718W        W 7918   6.316   3.993   0.908 -0.2598 -0.0810  0.0220
 3719W        W 7919   7.918   0.648  12.103  0.1424 -0.3594  0.1876
 3720W        W 7920   0.525   6.795   4.313  0.2720  0.0242 -0.0941
 3721W        W 7921   7.006   2.942   1.950  0.0884  0.1317 -0.3175
 3722W        W 7922  10.074   8.276  11.517  0.2185  0.0284  0.3099
 3723W        W 7923   3.749   6.060   9.018  0.0315  0.1216  0.1644
 3724W        W 7924   4.005   9.830  12.860 -0.2950  0.1263  0.2269
 3725W        W 7925   3.594   3.649  11.291 -0.1151  0.4584 -0.3175
 3726W        W 7926   2.699   0.725   0.202 -0.3970 -0.0581  0.0969
 3727W        W 7927   6.907   9.456  12.994 -0.2363  0.2210 -0.1449
 3728W        W 7928   1.885   7.061   9.959  0.2946  0.0908  0.2013
 3729W        W 7929   1.355   8.756  10.143 -0.0662 -0.0452 -0.2491
 3730W        W 7930   3.941   0.820   3.001  0.0227 -0.1809 -0.0229
 3731W        W 7931   5.506   9.682  12.796 -0.2483  0.0351 -0.0621
 3732W        W 7932   9.692   9.107   4.561  0.0357  0.0556  0.2350
 3733W        W 7933   2.701   8.479  10.512 -0.1141  0.2282  0.0794
 3734W        W 7934   1.555   3.197   0.793  0.1950  0.2744 -0.1387
 3735W        W 7935   0.041   1.858   8.615  0.3358 -0.0645 -0.1080
 3736W        W 7936   4.386   4.364   1.923 -0.2983 -0.0917 -0.0788
 3737W        W 7937   7.425   6.834   1.753  0.0473 -0.1480  0.0984
 3738W        W 7938   8.296   0.489  12.465 -0.2233 -0.2845  0.2213
 3739W        W 7939   0.617   1.289   4.714  0.0640 -0.1792  0.0873
 3740W        W 7940   1.002   3.850   3.778  0.0172  0.1908 -0.2159
 3741W        W 7941   5.056   1.720  10.102  0.3892 -0.1454 -0.1017
 3742W        W 7942   4.648   2.023   3.981 -0.0945  0.3176 -0.0111
 3743W        W 7943   0.855   6.594  11.398 -0.0450  0.0167  0.0027
 3744W        W 7944   9.222   5.989  12.278  0.0977 -0.0669  0.0075
 3745W        W 7945   0.686   2.472   9.123 -0.0214  0.1193 -0.1273
 3746W        W 7946   1.916   9.322   2.703 -0.0346  0.0945 -0.0472
 3747W        W 7947   0.101   0.469   0.031  0.0966  0.2346 -0.1804
 3748W        W 7948   1.047   5.218   3.284  0.0527 -0.0536 -0.3940
 3749W        W 7949   8.007   4.792   2.416  0.2758 -0.1069 -0.0599
 3750W        W 7950   9.005   5.650  10.965  0.0297 -0.0590  0.0300
 3751W        W 7951   5.442   2.073   4.435 -0.0099  0.0018 -0.0368
 3752W        W 7952   2.956   0.884   4.483 -0.0575 -0.1943  0.2372
 3753W        W 7953   6.325   1.230   0.160 -0.0839 -0.1794 -0.3971
 3754W        W 7954   1.211   3.389   2.659 -0.1567  0.0741  0.1693
 3755W        W 7955   6.339   4.472  11.553 -0.1803  0.1022  0.1540
 3756W        W 7956   8.039   8.862  11.267  0.1006 -0.0172  0.2529
 3757W        W 7957   9.814   1.280  11.846  0.2614  0.1321 -0.2101
 3758W        W 7958   8.641   0.619  11.070  0.4448 -0.1501  0.3463
 3759W        W 7959   1.444   7.796   9.344 -0.2604  0.1267 -0.2455
 3760W        W 7960  10.415   8.490   0.694 -0.2166 -0.0642 -0.0741
 3761W        W 7961   3.805   4.979   2.068  0.3528  0.1752  0.0107
 3762W        W 7962   3.957   8.738   1.770  0.0070  0.0628 -0.1524
 3763W        W 7963   0.930   5.908  13.054 -0.2075 -0.0153 -0.0046
 3764W        W 7964   7.701   5.078  11.779 -0.1674 -0.0035 -0.1120
 3765W        W 7965   6.281   9.420  12.307  0.2218  0.3299  0.1181
 3766W        W 7966   0.988   6.391   5.441 -0.0063  0.2739  0.0472
 3767W        W 7967   8.010   5.875   3.238  0.1352 -0.0664 -0.1302
 3768W        W 7968  10.066  10.218   1.861  0.1417  0.0213  0.0807
 3769W        W 7969   5.163   4.294   4.407 -0.1043 -0.1584  0.0769
 3770W        W 7970   9.408   9.428  10.041 -0.0156  0.0149 -0.2550
 3771W        W 7971   6.255   7.113  10.923 -0.2132 -0.0200  0.1038
 3772W        W 7972  10.443   0.976   8.669 -0.2569 -0.1946  0.1812
 3773W        W 7973   3.122   9.879   3.974  0.0170 -0.1431 -0.0222
 3774W        W 7974   3.833   9.687   3.443  0.0699  0.4067  0.0718
 3775W        W 7975   7.662   6.835  10.985 -0.0412 -0.1268 -0.0825
 3776W        W 7976   4.270   1.703   2.151  0.3594  0.0638  0.0794
 3777W        W 7977   8.228   1.762   3.408 -0.1498  0.0998 -0.1366
 3778W        W 7978   8.176   8.703   4.450  0.0428 -0.1134  0.3231
 3779W        W 7979   4.993   6.037  12.905  0.1693  0.0895 -0.2271
 3780W        W 7980   4.512   7.831  11.804 -0.1849  0.1075  0.1510
 3781W        W 7981   7.211   1.667  12.645 -0.0043  0.1527 -0.0989
 3782W        W 7982   6.642  10.288  13.101 -0.3726  0.1698  0.3181
 3783W        W 7983   5.687  10.170  11.865  0.0753 -0.0866 -0.1185
 3784W        W 7984   2.348   8.818  12.469  0.2665 -0.0424 -0.0745
 3785W        W 7985   7.234   7.160  11.279  0.2425  0.1314 -0.0186
 3786W        W 7986   0.261   9.454   2.023 -0.0579  0.1023  0.3167
 3787W        W 7987   2.478   3.641   0.541 -0.0485  0.1843 -0.0823
 3788W        W 7988   2.102   7.297   2.012 -0.0454 -0.2644 -0.3906
 3789W        W 7989   0.920   0.374   0.066  0.3499 -0.0346 -0.3530
 3790W        W 7990   6.607   5.852   1.837  0.1464 -0.1146 -0.0105
 3791W        W 7991  10.096   2.473   1.130  0.2046  0.1728  0.1577
 3792W        W 7992   9.924   6.786   2.245 -0.0685 -0.3799 -0.1551
 3793W        W 7993   2.085   7.945   3.650  0.1700 -0.2250  0.0554
 3794W        W 7994   2.781   0.020   9.120 -0.0113 -0.4072  0.0975
 3795W        W 7995   9.704   5.580   5.275 -0.1260  0.0374  0.2141
 3796W        W 7996   2.727   8.404  11.416 -0.0392 -0.3536 -0.1821
 3797W        W 7997   9.727   0.065   3.067  0.1048  0.1464 -0.1477
 3798W        W 7998   4.015   6.843  11.980 -0.1621  0.0641 -0.1316
 3799W        W 7999   3.224   5.536  10.300 -0.3059  0.0891  0.1281
 3800W        W 8000   9.034   4.669  11.031  0.4260 -0.3961  0.4210
 3801W        W 8001   7.551   7.576  11.939  0.1445 -0.0128  0.1916
 3802W        W 8002   8.255   6.539   1.638 -0.1805  0.0092 -0.1634
 3803W        W 8003  10.352   1.730   4.814  0.1462 -0.2984 -0.0986
 3804W        W 8004   3.475   7.484   1.587  0.2027 -0.0552  0.1770
 3805W        W 8005   7.852   3.120   0.724  0.0568  0.0198  0.0528
 3806W        W 8006   8.601   3.112  13.150 -0.0782  0.1502  0.0280
 3807W        W 8007   1.548  10.376  11.164  0.1995 -0.0740  0.1127
 3808W        W 8008   0.918   8.475  11.717  0.2408  0.4048  0.2443
 3809W        W 8009   5.296   0.007  12.070  0.2741  0.1777 -0.0943
 3810W        W 8010   5.674   0.884  11.987  0.1294 -0.2438  0.1752
 3811W        W 8011   9.945   6.045   3.962  0.0014  0.0351  0.0955
 3812W        W 8012   2.064   4.171  11.427 -0.2755  0.0512  0.2050
 3813W        W 8013   3.215   7.543  12.145  0.0384 -0.2168 -0.3453
 3814W        W 8014   4.439   7.201   0.504 -0.1771 -0.0815 -0.0183
 3815W        W 8015   4.314   9.401   0.087 -0.1477 -0.0608  0.0610
 3816W        W 8016   2.434   7.121   9.033 -0.0306 -0.1807 -0.1193
 3817W        W 8017   6.872   0.386  10.127 -0.4023  0.2303 -0.0680
 3818W        W 8018   7.144   5.728  11.822  0.0938  0.0080  0.2606
 3819W        W 8019   6.809   7.143  10.433 -0.2597  0.3129 -0.0325
 3820W        W 8020  10.036   2.877   1.408  0.1332  0.0340  0.1151
 3821W        W 8021   7.024   9.618   4.015  0.0297  0.4317 -0.1208
 3822W        W 8022   1.530   1.346   0.093  0.1335  0.0087 -0.0002
 3823W        W 8023   3.579   4.268   9.026 -0.2313  0.1531  0.1972
 3824W        W 8024   8.844   4.187  10.330  0.2004 -0.0341 -0.0264
 3825W        W 8025   7.637   1.258   1.175 -0.1821  0.1744 -0.4590
 3826W        W 8026   7.466   6.193  10.181  0.0480  0.0012  0.2716
 3827W        W 8027   9.501   3.614  10.081 -0.0204 -0.2011 -0.1819
 3828W        W 8028   3.037   3.914   1.481  0.3971 -0.1757  0.2523
 3829W        W 8029   2.115   3.524   0.232  0.2319 -0.0138  0.0125
 3830W        W 8030   2.209   7.100   0.175  0.2346 -0.1457  0.1704
 3831W        W 8031   8.839   8.553   0.906 -0.1792  0.2747 -0.0130
 3832W        W 8032   9.002   3.851  11.282 -0.1686  0.2205 -0.1073
 3833W        W 8033   1.963   0.393  12.771 -0.1625  0.4131 -0.1526
 3834W        W 8034   8.846   1.455  11.070 -0.2561 -0.1539 -0.1657
 3835W        W 8035   2.646   4.185   2.204 -0.2896 -0.3238 -0.1560
 3836W        W 8036   7.852   4.974   0.810  0.2983  0.1293  0.3288
 3837W        W 8037   6.563   5.513   3.785  0.1088 -0.0952 -0.1628
 3838W        W 8038   1.555   4.088   9.720  0.0052 -0.0088 -0.2035
 3839W        W 8039   3.124   8.814  11.369 -0.1906 -0.2461 -0.2940
 3840W        W 8040   0.906   1.947   1.027 -0.0630  0.1270  0.1890
 3841W        W 8041   4.128   1.681  11.540 -0.0795  0.5000  0.3780
 3842W        W 8042   7.650   8.209   2.937  0.2897 -0.1424  0.4238
 3843W        W 8043   2.558   5.693   9.493 -0.1468  0.0627  0.3227
 3844W        W 8044   7.615   9.982   3.742  0.0845 -0.2593 -0.3910
 3845W        W 8045   3.987   8.370   3.014  0.0214 -0.2732 -0.0477
 3846W        W 8046   6.208   5.421   0.885 -0.2711 -0.3168 -0.2237
 3847W        W 8047   3.270   2.806   9.815  0.1662  0.0587  0.1122
 3848W        W 8048   9.734   2.408   1.568  0.0034 -0.1186  0.1730
 3849W        W 8049  10.090   0.284   0.151  0.1579  0.0073 -0.0930
 3850W        W 8050   7.954   2.087   8.523  0.1335 -0.0284  0.2197
 3851W        W 8051   0.650   2.491   3.011  0.0022 -0.0511 -0.0496
 3852W        W 8052   6.498   3.835  12.145  0.1729  0.0833  0.0124
 3853W        W 8053   6.213   2.945   2.266 -0.0768 -0.0858 -0.2875
 3854W        W 8054   0.297   2.781   9.581 -0.0404 -0.1153 -0.2850
 3855W        W 8055   0.411   1.571   2.796 -0.0373  0.0083  0.2163
 3856W        W 8056   6.329   3.185  10.826 -0.0469 -0.2958  0.2989
 3857W        W 8057   2.935   0.711  10.413 -0.0189  0.0774  0.1914
 3858W        W 8058   6.653   9.022   0.750  0.0318 -0.0417  0.0655
 3859W        W 8059   8.260   1.042  12.070  0.0765 -0.1183 -0.3011
 3860W        W 8060   4.726   3.787  10.214  0.0409 -0.0012 -0.0150
 3861W        W 8061   6.696   1.538   4.264  0.0811 -0.0235  0.1041
 3862W        W 8062   6.486   9.849  12.427  0.0440  0.1127  0.0332
 3863W        W 8063  10.430   6.014   1.133  0.1052  0.4166 -0.2215
 3864W        W 8064   6.010   3.615   4.013 -0.1653  0.3109 -0.2385
 3865W        W 8065   5.641   6.796  11.185  0.2110  0.0870  0.2097
 3866W        W 8066   6.602   8.110  12.107 -0.0661 -0.2025  0.1113
 3867W        W 8067   3.232   6.726   5.103  0.2909  0.1207  0.1355
 3868W        W 8068  10.145   7.186  11.636 -0.3538  0.1285 -0.2796
 3869W        W 8069   2.837   0.768  11.903  0.0696 -0.0483  0.0788
 3870W        W 8070   4.006   9.033  10.735 -0.0855 -0.0797 -0.0757
 3871W        W 8071   0.186   9.988   0.103 -0.0353  0.1654  0.2296
 3872W        W 8072   6.540   2.403   9.697  0.2115 -0.0758  0.3553
 3873W        W 8073   8.962   3.171   9.163  0.0032  0.1022  0.4853
 3874W        W 8074   7.349   6.857  10.146  0.1197  0.0343  0.2757
 3875W        W 8075   0.582   9.139   0.055  0.1981 -0.1810  0.1040
 3876W        W 8076   1.260   0.504   4.014  0.0211  0.0443  0.0416
 3877W        W 8077   5.764   9.079   1.234 -0.1662  0.3519  0.1487
 3878W        W 8078   5.657   3.030  12.849 -0.1680  0.0162 -0.0112
 3879W        W 8079   7.946   0.085  11.333 -0.2560 -0.2360  0.0676
 3880W        W 8080   4.181   1.273   9.628 -0.0603  0.2550  0.2200
 3881W        W 8081   9.907   4.936   2.584  0.0969  0.1820 -0.0152
 3882W        W 8082   3.749   4.396   3.179 -0.0674 -0.3677  0.1803
 3883W        W 8083   9.901   9.302  10.108 -0.2150 -0.3738  0.1424
 3884W        W 8084   3.317   1.593   9.299 -0.2763 -0.0197 -0.1299
 3885W        W 8085   4.645   4.666   2.727 -0.2247  0.3888  0.1751
 3886W        W 8086   7.452   0.148  11.503 -0.0129  0.2076 -0.0347
 3887W        W 8087   6.126   1.442   4.828  0.2000  0.0653  0.0578
 3888W        W 8088   1.449   3.874  10.251 -0.0771 -0.2313  0.2174
 3889W        W 8089   4.712   3.654   0.096  0.0225  0.1603 -0.0922
 3890W        W 8090   3.259   3.147  12.235 -0.0279 -0.0427  0.2934
 3891W        W 8091   9.858   5.849   1.222 -0.4506 -0.2672 -0.5077
 3892W        W 8092   2.946   9.390  12.679  0.2143  0.1188  0.3102
 3893W        W 8093   8.413   3.879  11.247 -0.0321 -0.0427 -0.0145
 3894W        W 8094   8.444   6.187   3.327  0.0000  0.1085  0.1643
 3895W        W 8095   8.954   4.040  12.734  0.2261  0.2259 -0.1742
 3896W        W 8096   6.466   1.806   9.483 -0.2259  0.3126  0.0936
 3897W        W 8097   1.810   5.375   1.345  0.0462  0.1086 -0.2681
 3898W        W 8098   8.398   0.031  11.705 -0.1679  0.2754  0.0283
 3899W        W 8099   9.843   0.423   0.566 -0.2016  0.0267  0.3029
 3900W        W 8100   2.365   6.381   0.051  0.0757 -0.1696 -0.0782
 3901W        W 8101   4.324   7.699  10.389  0.1883  0.0997  0.0764
 3902W        W 8102   6.522  10.100  11.893  0.0866 -0.2572  0.3034
 3903W        W 8103   5.159   9.957   3.188 -0.4061  0.2721  0.2085
 3904W        W 8104   7.226   0.966   2.823 -0.1643 -0.2797 -0.0375
 3905W        W 8105   5.323   6.058   8.457  0.0649  0.2618 -0.1567
 3906W        W 8106   7.047   0.564  10.541  0.0007 -0.1560 -0.0320
 3907W        W 8107   6.641   1.364   0.577 -0.3425 -0.0414  0.2914
 3908W        W 8108   4.272   3.876   1.870 -0.4143  0.4305 -0.3037
 3909W        W 8109   8.288   3.997   3.673 -0.3612  0.0846  0.0457
 3910W        W 8110   9.478   1.968   0.878  0.1545  0.1654 -0.0229
 3911W        W 8111   3.212   1.775   1.712 -0.1467  0.0017 -0.1512
 3912W        W 8112   4.338   4.490  12.117 -0.2632 -0.1297  0.2749
 3913W        W 8113   9.722   5.709  13.264  0.4503  0.3122  0.0321
 3914W        W 8114   5.325   5.058  13.098 -0.1095  0.0685  0.1943
 3915W        W 8115   7.628   7.282  13.360  0.0862 -0.2409  0.0018
 3916W        W 8116   6.084   5.268   2.409  0.2875 -0.0918 -0.1307
 3917W        W 8117   4.833   2.060  10.392 -0.3080 -0.1835 -0.2289
 3918W        W 8118   8.018   4.808  10.171  0.2607  0.1089  0.1288
 3919W        W 8119   5.519   5.326   9.053 -0.0201 -0.0952 -0.3117
 3920W        W 8120   7.872   8.127   9.684  0.2146 -0.1718 -0.2493
 3921W        W 8121   9.883   4.964  10.049 -0.1049 -0.1354 -0.1172
 3922W        W 8122   2.631   3.972  12.570  0.2347 -0.4434 -0.1511
 3923W        W 8123   9.380   6.832   3.473  0.0314  0.0903 -0.0768
 3924W        W 8124   9.854   9.809   2.061  0.2261 -0.0924  0.0571
 3925W        W 8125   2.037   5.522   8.593  0.0311 -0.0782  0.2284
 3926W        W 8126   2.220   8.201  10.759  0.0692 -0.1137 -0.1543
 3927W        W 8127   7.500   6.820   2.621 -0.2047  0.0633 -0.1575
 3928W        W 8128   1.403   5.651   9.066 -0.3650 -0.0579 -0.1282
 3929W        W 8129   0.631   3.411  12.853 -0.1057 -0.1834 -0.2431
 3930W        W 8130   2.636   8.902  11.277  0.1384 -0.1306 -0.0359
 3931W        W 8131   8.723   5.123  10.804  0.2328 -0.5428  0.1489
 3932W        W 8132   0.355   2.167  13.400  0.1703 -0.0304 -0.0703
 3933W        W 8133   9.152   6.241   4.506  0.4593  0.1544  0.0394
 3934W        W 8134   8.300   6.558   1.087 -0.0638  0.1523 -0.0785
 3935W        W 8135   4.749   6.472   2.356  0.2424  0.3078  0.0159
 3936W        W 8136   5.723  10.406  11.438  0.2845  0.0930 -0.0192
 3937W        W 8137   2.416   2.663  12.490 -0.2295  0.1407 -0.2567
 3938W        W 8138   6.131   8.009  12.808 -0.0473 -0.2542  0.1605
 3939W        W 8139   2.035   9.519  10.925 -0.1988  0.0149  0.1804
 3940W        W 8140   9.865   6.281  11.543 -0.0991  0.0807  0.0608
 3941W        W 8141   2.251   1.423   8.869  0.0770  0.0693 -0.4991
 3942W        W 8142   5.308   9.436  11.385  0.0409  0.0313 -0.0261
 3943W        W 8143   7.843   8.575   1.043 -0.0011  0.1730 -0.0223
 3944W        W 8144   6.913   3.583   3.906  0.0837  0.3822 -0.2614
 3945W        W 8145   1.338   6.488  11.123  0.0781 -0.0780  0.2216
 3946W        W 8146   2.849   1.148  10.199 -0.1846  0.2360 -0.0667
 3947W        W 8147   4.558   7.121  10.882  0.0353 -0.2407  0.1551
 3948W        W 8148   5.577   9.304   2.750 -0.0850 -0.2634 -0.3085
 3949W        W 8149   1.697   6.301   2.388  0.2240 -0.1437  0.3425
 3950W        W 8150   3.107   5.154   1.187 -0.0741  0.1667  0.1604
 3951W        W 8151   9.401   4.668   4.026 -0.0160  0.0378  0.1133
 3952W        W 8152   4.476   6.093   2.541 -0.2568  0.5192  0.1511
 3953W        W 8153   6.127   1.909   9.824 -0.2195  0.1014 -0.2436
 3954W        W 8154   9.010   0.593   2.374 -0.1300 -0.1145  0.0782
 3955W        W 8155   6.880   2.614   0.017  0.2856 -0.0107  0.0300
 3956W        W 8156   4.162   4.315   3.547  0.1311  0.2839  0.1713
 3957W        W 8157   5.046   3.679   9.239 -0.1610 -0.4264 -0.0609
 3958W        W 8158   7.957   4.459  10.617  0.0987 -0.0483  0.0164
 3959W        W 8159   3.183   4.521   3.395  0.4081  0.1506  0.0554
 3960W        W 8160   3.580   2.953  10.155 -0.0970  0.1777 -0.2495
 3961W        W 8161   6.165   0.661   0.415 -0.3009 -0.2209 -0.3344
 3962W        W 8162   3.411   4.005   3.002 -0.0837 -0.1695  0.0590
 3963W        W 8163   5.312   0.219   2.459 -0.2176 -0.1385 -0.2741
 3964W        W 8164   5.511   2.044  12.734  0.2071  0.2951 -0.0448
 3965W        W 8165   8.284   9.677   3.205  0.0798  0.0984 -0.1343
 3966W        W 8166   0.357   9.939   0.613 -0.0545  0.2295  0.0833
 3967W        W 8167   7.209   4.984   2.112 -0.1634 -0.4757 -0.1525
 3968W        W 8168   2.670   9.520   3.305  0.1993 -0.1210  0.2563
 3969W        W 8169   6.789   7.272   1.526 -0.3990  0.2381  0.0052
 3970W        W 8170   9.502   0.047   0.851 -0.0949 -0.1857 -0.0516
 3971W        W 8171   0.902   9.003   4.342 -0.0195  0.3376 -0.2674
 3972W        W 8172   5.190   3.908   0.051  0.0712 -0.6648 -0.3258
 3973W        W 8173   8.535   7.411  12.639 -0.0827  0.1421  0.0867
 3974W        W 8174   0.200   2.926  10.125 -0.0210  0.0146 -0.1680
 3975W        W 8175   7.227   0.178  10.887 -0.0954 -0.1492 -0.0212
 3976W        W 8176   5.904   4.790   2.658 -0.1821  0.1010 -0.0396
 3977W        W 8177   3.858   7.756   2.948  0.2325 -0.1044  0.0341
 3978W        W 8178  10.189   3.867   0.999 -0.0611 -0.0937  0.2384
 3979W        W 8179   1.886   7.358  12.700  0.3867  0.3499 -0.0587
 3980W        W 8180   1.918   1.529  12.916  0.2307 -0.0152  0.0629
 3981W        W 8181   9.960   4.782   1.835 -0.4683 -0.2839  0.1866
 3982W        W 8182   8.591   8.484   1.556  0.1982  0.1575 -0.1746
 3983W        W 8183   4.209   0.038   3.336 -0.1119  0.1571  0.0445
 3984W        W 8184   9.508   4.410   9.354 -0.1029  0.0386 -0.1894
 3985W        W 8185   4.152   6.485   1.047 -0.1820  0.2309  0.2519
 3986W        W 8186   4.500   7.519  12.209 -0.0041  0.0970 -0.1411
 3987W        W 8187   2.567   1.755  10.980 -0.2028  0.2127  0.0455
 3988W        W 8188   4.414   5.095  10.247 -0.1648  0.0846 -0.0304
 3989W        W 8189   6.169   0.561  12.931  0.0168  0.1860 -0.0694
 3990W        W 8190   9.429   3.389   9.291 -0.1620 -0.1481  0.0701
 3991W        W 8191   4.369   6.819   1.512  0.1030 -0.2644  0.2136
 3992W        W 8192   7.739   3.090   3.534 -0.1552  0.0146 -0.0073
 3993W        W 8193   4.628   1.937   0.229  0.0079  0.0987  0.3416
 3994W        W 8194   6.188   5.713   8.247  0.1288 -0.2674 -0.2459
 3995W        W 8195   2.440   7.608   0.411 -0.0181  0.0090 -0.0236
 3996W        W 8196  10.045   5.667   0.787  0.0327  0.0637 -0.0440
 3997W        W 8197   4.307   1.193   2.850  0.0591  0.0932  0.3717
 3998W        W 8198   0.977   9.259  11.938  0.1167 -0.0967 -0.1836
 3999W        W 8199   0.334   8.861  10.851  0.3466 -0.0785 -0.1275
 4000W        W 8200  10.286   4.509  12.897 -0.0638  0.1453  0.2971
 4001W        W 8201  10.054   2.728   3.171  0.1157 -0.2555  0.1199
 4002W        W 8202   2.772   7.828  13.376 -0.1530 -0.1120 -0.0954
 4003W        W 8203   7.474   5.615   0.120  0.0465 -0.0945  0.0210
 4004W        W 8204   9.313   8.936  13.316  0.1453 -0.1172  0.2005
 4005W        W 8205   4.689   2.275   1.029  0.4353  0.0787  0.4071
 4006W        W 8206   6.278   5.423  13.002 -0.0396  0.2532  0.0095
 4007W        W 8207   7.396   0.284   1.349 -0.0082 -0.0895 -0.0299
 4008W        W 8208   7.901   4.861   0.001 -0.0240 -0.0914  0.0458
 4009W        W 8209   3.407   9.576  10.497  0.2425 -0.0174 -0.1500
 4010W        W 8210   0.986   6.775   0.850  0.0830  0.2791  0.2335
 4011W        W 8211   4.860   7.216   9.788 -0.0886  0.0960 -0.0908
 4012W        W 8212   1.981   4.475   4.340  0.0412  0.1318  0.0499
 4013W        W 8213   7.084   0.883  11.771  0.1681 -0.2716  0.0429
 4014W        W 8214   1.044   6.389   3.172 -0.2023  0.0538  0.1704
 4015W        W 8215   8.534   1.440   2.649 -0.5131  0.0471 -0.1603
 4016W        W 8216   4.761  10.221  13.018 -0.1208 -0.0441 -0.0958
 4017W        W 8217   8.363   7.335   9.556  0.0034 -0.2177  0.1485
 4018W        W 8218   0.557   0.760  10.993 -0.2466  0.1254 -0.1501
 4019W        W 8219   2.510   2.503   3.566 -0.3165  0.0461  0.0570
 4020W        W 8220   5.651   1.125   2.950  0.0521  0.2208 -0.3492
 4021W        W 8221   6.182   7.101  12.291  0.3498 -0.2420 -0.0825
 4022W        W 8222   3.183   2.779   0.555  0.0934  0.0882 -0.0990
 4023W        W 8223   8.585   6.869   2.873 -0.1025  0.0763  0.0611
 4024W        W 8224   5.411   4.538   3.972  0.2680 -0.3880 -0.0952
 4025W        W 8225   5.462   5.736   0.689 -0.0232  0.0704  0.1682
 4026W        W 8226   1.802   2.924  12.106 -0.1304  0.2149 -0.3414
 4027W        W 8227   0.705   7.656   3.191 -0.0067 -0.0844 -0.4976
 4028W        W 8228   1.788   0.399   1.263 -0.0123 -0.1724  0.0940
 4029W        W 8229   2.932   6.885   1.530  0.1521  0.0472 -0.2321
 4030W        W 8230   6.386   2.036   4.231  0.0388 -0.0389  0.0878
 4031W        W 8231   7.992   8.556   2.887  0.0231  0.0693 -0.1364
 4032W        W 8232   9.529  10.322  11.258 -0.1350 -0.0218  0.1725
 4033W        W 8233   2.908   0.610   2.942 -0.1215  0.1118 -0.0018
 4034W        W 8234   1.123   2.796  12.925  0.0661  0.0628  0.0588
 4035W        W 8235   9.580  10.460   3.547  0.2045 -0.1239 -0.1496
 4036W        W 8236   7.050   0.173   3.184 -0.1526  0.0290 -0.0253
 4037W        W 8237   8.506   1.689  10.716  0.0558  0.1289 -0.1306
 4038W        W 8238   2.222   7.369  12.370  0.2299 -0.0350 -0.1473
 4039W        W 8239   0.554   3.917   2.657 -0.1073 -0.0478  0.1758
 4040W        W 8240   9.168   7.341   5.164  0.0081  0.3114 -0.1387
 4041W        W 8241   2.274   0.709   9.564 -0.2506 -0.2874 -0.1939
 4042W        W 8242  10.123   2.744  11.483 -0.3595 -0.4290 -0.2408
 4043W        W 8243   9.474   7.432   4.741 -0.0917  0.0379 -0.0355
 4044W        W 8244   4.310   2.897   9.795 -0.0152 -0.1273 -0.0761
 4045W        W 8245   7.619   2.223   0.110  0.4262 -0.2084  0.0208
 4046W        W 8246   2.103   9.920   9.528 -0.0666  0.0069 -0.0809
 4047W        W 8247   7.302   1.841   0.193 -0.0423  0.0269  0.1535
 4048W        W 8248   5.647   7.131   0.812  0.2995  0.0997  0.1489
 4049W        W 8249   7.578   8.066   1.076  0.0387 -0.0796  0.0322
 4050W        W 8250   3.316   6.595   1.736  0.1754  0.1959  0.2373
 4051W        W 8251   5.272   0.487   0.031  0.0603  0.4469 -0.0743
 4052W        W 8252   7.291   3.467   8.866  0.0422  0.2176  0.0382
 4053W        W 8253   4.813   1.519  12.095  0.2137  0.0682 -0.0505
 4054W        W 8254   1.415   5.472  11.469  0.1128  0.1437  0.1766
 4055W        W 8255   1.708   6.879  11.320  0.1197 -0.1190 -0.0572
 4056W        W 8256  10.148   2.007  12.574  0.0027  0.0977  0.2922
 4057W        W 8257   9.649   2.450   0.872  0.0127  0.0969  0.2016
 4058W        W 8258   1.684  10.229   1.834 -0.3139 -0.0340 -0.2089
 4059W        W 8259   7.948   3.416  11.966 -0.0914 -0.1133 -0.2333
 4060W        W 8260  10.138   5.766   5.026  0.0618 -0.2333  0.2592
 4061W        W 8261   5.479   7.224  13.220 -0.2676 -0.1236  0.0531
 4062W        W 8262   6.191   5.792   1.530 -0.2327  0.0549 -0.0759
 4063W        W 8263   8.087   0.110   3.097 -0.2633  0.1847  0.0638
 4064W        W 8264   1.084   4.897  12.095  0.3254  0.1391  0.1000
 4065W        W 8265   9.610   1.790   1.852 -0.2024 -0.1645 -0.2703
 4066W        W 8266   4.767   3.144   4.633  0.1670  0.2979  0.1533
 4067W        W 8267   8.826   4.006   3.883  0.0559  0.1534 -0.4064
 4068W        W 8268   6.839   1.798   2.239 -0.0381 -0.2575  0.0903
 4069W        W 8269   4.185   4.456  10.319 -0.2486  0.0854 -0.1170
 4070W        W 8270   5.931   9.141   0.690 -0.1511  0.0850  0.2362
 4071W        W 8271   1.701   9.243  11.353 -0.2244 -0.1078 -0.3012
 4072W        W 8272   0.832   9.835  12.813 -0.0745 -0.2859 -0.0155
 4073W        W 8273   2.826   0.465  12.399  0.1932  0.1484  0.1216
 4074W        W 8274   5.835   7.121  11.525 -0.2137  0.1156 -0.1024
 4075W        W 8275   1.030   5.956   2.717  0.1337  0.1440  0.0644
 4076W        W 8276   5.316   5.289   3.535  0.1624 -0.1046 -0.1363
 4077W        W 8277   8.637   2.305   4.678 -0.1015  0.3814  0.3264
 4078W        W 8278   3.028   6.246  10.307 -0.3168 -0.4831 -0.0181
 4079W        W 8279   5.401   6.255   0.660 -0.0861  0.1508 -0.3865
 4080W        W 8280   3.463   5.479   9.618 -0.1063  0.0454 -0.0502
 4081W        W 8281  10.311   0.756   4.703 -0.1307 -0.0072 -0.0511
 4082W        W 8282   6.434  10.052   2.350 -0.1000  0.0029 -0.0476
 4083W        W 8283   0.231   1.567   0.610 -0.0797  0.5649 -0.0121
 4084W        W 8284   5.261   8.782  10.841  0.1128  0.0341 -0.0334
 4085W        W 8285   1.422   9.702   4.332 -0.5577 -0.2766 -0.1295
 4086W        W 8286   2.066   2.543   3.847  0.3173  0.0066 -0.1628
 4087W        W 8287   1.781   4.608  11.213  0.0102 -0.0469  0.1979
 4088W        W 8288   9.477   0.097   1.666 -0.0033  0.2321 -0.0700
 4089W        W 8289   3.263   6.587  11.299 -0.0975  0.2673 -0.2006
 4090W        W 8290   6.341   1.719  13.356  0.1867 -0.1980 -0.0558
 4091W        W 8291   5.477   0.715   2.533  0.1302  0.1475 -0.1513
 4092W        W 8292   1.025   8.226   3.894 -0.0178 -0.1423  0.2322
 4093W        W 8293   0.131  10.014   4.926  0.4332  0.2799  0.0743
 4094W        W 8294   9.410   2.168   5.229  0.1168  0.1191  0.1070
 4095W        W 8295   3.575   9.545   1.815  0.0678 -0.3117  0.0591
 4096W        W 8296   9.433   6.177  13.198  0.1795  0.0352 -0.1698
 4097W        W 8297  10.354   9.935  12.030 -0.2450 -0.0393  0.0797
 4098W        W 8298   2.519   3.213   2.974 -0.0120 -0.2006  0.1202
 4099W        W 8299   3.667   9.988   0.358  0.1628  0.0228 -0.1861
 4100W        W 8300   3.430  10.430   2.472  0.1583 -0.0462 -0.0841
 4101W        W 8301   3.665   7.294  11.304  0.0322 -0.0305 -0.5377
 4102W        W 8302   4.020   7.158  13.079 -0.0736 -0.1906  0.0555
 4103W        W 8303   2.009   1.421   4.385 -0.1073  0.3435 -0.0359
 4104W        W 8304   7.668   4.582   4.324  0.3342 -0.0732  0.0969
 4105W        W 8305   5.500   6.788  11.733  0.0602  0.0370 -0.2032
 4106W        W 8306   9.709   7.427   5.247 -0.0102 -0.1382 -0.2033
 4107W        W 8307   4.180   3.978  10.356 -0.2169 -0.1350  0.0149
 4108W        W 8308   5.117   2.408  12.951  0.1371 -0.1579 -0.1450
 4109W        W 8309   4.721   6.870   1.169 -0.1489  0.0699 -0.0223
 4110W        W 8310   2.548  10.089  12.376 -0.0643 -0.1523 -0.0492
 4111W        W 8311   1.943   2.416  13.380  0.1282 -0.0816  0.3244
 4112W        W 8312   7.284   8.954   3.522 -0.1355  0.0475  0.2249
 4113W        W 8313   2.374   2.025   0.071 -0.1719 -0.1682 -0.3501
 4114W        W 8314   4.124   7.975  12.152  0.0262 -0.1077  0.2198
 4115W        W 8315   0.586   0.644   9.216  0.0599  0.0580 -0.1377
 4116W        W 8316   2.377   3.323   5.150 -0.1675  0.0364 -0.0520
 4117W        W 8317   9.203   3.749   1.056  0.2281  0.1526 -0.1037
 4118W        W 8318   0.279   0.399  11.254  0.3539 -0.0638  0.1238
 4119W        W 8319   8.635   9.770   2.725 -0.0790 -0.0349 -0.2498
 4120W        W 8320   3.640   6.956   0.366  0.0414  0.1328  0.1922
 4121W        W 8321   5.793   3.552   9.900  0.2169  0.1342 -0.0641
 4122W        W 8322   6.791  10.300  12.525 -0.1113 -0.0464 -0.0173
 4123W        W 8323   3.945   3.283  10.072  0.0477 -0.0005  0.1078
 4124W        W 8324   0.243   9.613   0.964  0.1046 -0.0012 -0.2769
 4125W        W 8325   0.684   3.590   1.945 -0.1014 -0.2020  0.0361
 4126W        W 8326   4.770   0.683   0.072 -0.0172 -0.1474 -0.1077
 4127W        W 8327   7.972   9.969   1.318  0.0694 -0.1424  0.0986
 4128W        W 8328   8.170   9.417   3.789  0.1259 -0.0562 -0.1763
 4129W        W 8329   8.119   4.561   2.891 -0.1013 -0.2774 -0.2245
 4130W        W 8330   2.035   1.885  12.263 -0.0800  0.3626  0.4312
 4131W        W 8331   4.337   2.780   2.029 -0.4073 -0.3192 -0.1541
 4132W        W 8332   0.895   3.252  11.437  0.2342 -0.1713  0.1218
 4133W        W 8333   0.901   0.065  12.813  0.2307 -0.1786 -0.0153
 4134W        W 8334   8.324   6.082  11.163 -0.1297  0.0157  0.0806
 4135W        W 8335  10.098   9.586   9.707  0.2250  0.0809  0.1118
 4136W        W 8336   2.035   0.983   4.728  0.3339 -0.0804  0.1721
 4137W        W 8337   1.056   4.914   0.360  0.0245 -0.0669 -0.0937
 4138W        W 8338   6.047   8.647   2.455 -0.0016  0.2464 -0.0003
 4139W        W 8339   4.538   2.893  11.846 -0.2594  0.2600  0.1009
 4140W        W 8340   1.690   5.774   0.992  0.0747 -0.0808  0.0900
 4141W        W 8341   2.024   7.295   0.683  0.2025 -0.0407 -0.0905
 4142W        W 8342   0.987   4.186   2.606  0.0357 -0.1328  0.0838
 4143W        W 8343   7.472   8.011   2.177 -0.0583  0.0770 -0.2075
 4144W        W 8344   3.742   9.649  12.201 -0.0426  0.2348  0.2967
 4145W        W 8345   0.447   8.100  12.544  0.1619 -0.0596  0.2352
 4146W        W 8346   0.418   7.346   4.000 -0.3115  0.2041  0.1839
 4147W        W 8347   8.888   3.157  12.712  0.1897 -0.0540  0.0734
 4148W        W 8348   7.148   6.309   9.754  0.2408  0.0934 -0.2847
 4149W        W 8349   9.945   9.132   4.084 -0.0624 -0.1071  0.1768
 4150W        W 8350   1.618   1.360  10.067  0.1091 -0.2876  0.0477
 4151W        W 8351   1.675  10.068   0.294  0.3668  0.0300 -0.0917
 4152W        W 8352   2.855   1.567   3.467  0.2349 -0.0389  0.1062
 4153W        W 8353   4.785   9.880  12.236  0.2149  0.1838 -0.2313
 4154W        W 8354   3.204   0.165   3.790 -0.1169 -0.1129 -0.3815
 4155W        W 8355   0.715   8.168   1.966 -0.0406 -0.0112 -0.0570
 4156W        W 8356   1.676   3.587   2.926  0.0282  0.0000  0.1424
 4157W        W 8357   0.088   1.243   4.470 -0.1973  0.2246  0.0747
 4158W        W 8358   9.092   8.224   0.487 -0.2527  0.1394  0.0265
 4159W        W 8359   2.694   9.595  10.744  0.2995  0.0839  0.3611
 4160W        W 8360   0.865  10.113   9.319  0.0551 -0.2387 -0.1229
 4161W        W 8361   0.916   8.943   3.523  0.1625 -0.0594  0.2845
 4162W        W 8362   8.542   7.073   0.771 -0.0329  0.1816 -0.1271
 4163W        W 8363   4.174   5.648   2.538 -0.0365 -0.0549  0.2279
 4164W        W 8364  10.248   3.460   9.508  0.1062 -0.4573 -0.3805
 4165W        W 8365   6.597   3.920   0.246  0.0436  0.2129  0.1179
 4166W        W 8366  10.086   6.921  12.461 -0.1251 -0.0061 -0.1724
 4167W        W 8367   2.786   1.504  12.577  0.2722 -0.0189 -0.0352
 4168W        W 8368   8.349   8.839  10.887  0.0119  0.1205 -0.2570
 4169W        W 8369   4.696   3.091   0.324 -0.2105 -0.2810 -0.2360
 4170W        W 8370   2.301   6.666   2.021  0.1954  0.0374  0.3962
 4171W        W 8371   8.020   0.990   1.045 -0.0301  0.4077 -0.1052
 4172W        W 8372   7.573   9.487   2.702 -0.0104 -0.0870  0.2749
 4173W        W 8373   3.163  10.163   0.291 -0.0384  0.1002 -0.1011
 4174W        W 8374   0.632   7.110   3.098  0.2713  0.1301  0.3105
 4175W        W 8375   8.203   2.451  11.851  0.0088 -0.1361 -0.1200
 4176W        W 8376   9.866   0.308   5.250 -0.3035  0.0948  0.1228
 4177W        W 8377   2.894   9.247   2.589  0.0101 -0.0968 -0.0336
 4178W        W 8378   1.965   1.261   5.128  0.1542  0.2094  0.1240
 4179W        W 8379   9.154   4.489  13.313  0.0113  0.6103  0.2985
 4180W        W 8380   2.929   6.808   2.082  0.0799 -0.0427  0.1149
 4181W        W 8381   6.173   2.374  11.406  0.0377  0.0146  0.0700
 4182W        W 8382   7.565   3.680  12.178  0.0913  0.1101  0.1349
 4183W        W 8383   0.294   6.288  11.931  0.0768  0.0401  0.2282
 4184W        W 8384  10.385   4.108   0.221  0.1738  0.4359 -0.1033
 4185W        W 8385   2.637   2.178   8.783  0.1676 -0.0306  0.0894
 4186W        W 8386   8.705   8.787   3.675 -0.1568  0.1728  0.1049
 4187W        W 8387   6.965   0.426   9.307  0.1319 -0.0758  0.0035
 4188W        W 8388   9.992   1.944  11.722 -0.0378 -0.1632 -0.2153
 4189W        W 8389   7.491   9.430  12.903  0.1955  0.4512  0.2179
 4190W        W 8390   3.244   0.775  12.321 -0.2627  0.1797  0.0081
 4191W        W 8391   7.007   5.435   2.613 -0.0463 -0.0486  0.1071
 4192W        W 8392   4.037   9.162  11.999  0.1686 -0.1396  0.3049
 4193W        W 8393   9.887   6.642  11.898  0.1660 -0.0344 -0.1506
 4194W        W 8394   6.565   4.376  12.030  0.1479 -0.3959 -0.1435
 4195W        W 8395   2.786   5.975   1.111  0.2630 -0.0558  0.0692
 4196W        W 8396   7.307   5.848   2.596  0.1957 -0.0699 -0.0321
 4197W        W 8397   6.291   7.259   1.469  0.2635  0.2784 -0.0780
 4198W        W 8398   1.540   2.508   3.873 -0.3435  0.0017 -0.0435
 4199W        W 8399  10.097   5.376   1.175  0.2514 -0.2153  0.0908
 4200W        W 8400   2.939   3.163  13.119  0.0297  0.1508  0.0050
 4201W        W 8401   6.841   4.483  11.567 -0.0803  0.1767 -0.4090
 4202W        W 8402   2.537   1.185   1.504  0.1104 -0.0914  0.0748
 4203W        W 8403   6.625   8.950   1.261 -0.2646 -0.1846 -0.2750
 4204W        W 8404   6.263   9.547   2.484  0.1531 -0.4790 -0.1973
 4205W        W 8405   0.359  10.396  11.039  0.3294  0.0751 -0.0109
 4206W        W 8406   7.679   9.514   4.033  0.0802  0.0341  0.2802
 4207W        W 8407   9.794   7.297  12.651 -0.1445 -0.1877 -0.0235
 4208W        W 8408   0.304   6.382   1.800 -0.0164  0.0849  0.1378
 4209W        W 8409   9.888   6.160  12.977  0.1802 -0.0485 -0.0130
 4210W        W 8410   7.120   7.184   1.997  0.1854 -0.0536 -0.0128
 4211W        W 8411   1.543   5.750   1.559  0.2040  0.2715 -0.3777
 4212W        W 8412   4.255   0.346   2.919  0.1696  0.1046  0.0433
 4213W        W 8413   7.241   3.096   0.629 -0.4163  0.0922 -0.0177
 4214W        W 8414   9.818   7.195   9.838 -0.2372  0.0818  0.2228
 4215W        W 8415   3.272   2.592  12.012 -0.0134 -0.1047  0.0369
 4216W        W 8416   1.581   4.583   2.014  0.3933 -0.1688  0.0478
 4217W        W 8417   1.990   5.936  11.935  0.0344  0.1033  0.0892
 4218W        W 8418   1.914   5.932  10.790  0.1403 -0.4649  0.2843
 4219W        W 8419   5.045   8.882   2.908 -0.0599  0.2421 -0.0482
 4220W        W 8420   1.780   6.771   2.661 -0.1427  0.0677 -0.2671
 4221W        W 8421   7.600   3.150  10.479 -0.0324  0.1424  0.3031
 4222W        W 8422   4.594   8.906   2.582  0.2014 -0.0832  0.4479
 4223W        W 8423   1.976   5.780   1.721 -0.2175  0.1806 -0.1813
 4224W        W 8424   2.225   3.085   8.378 -0.1016 -0.2623  0.2349
 4225W        W 8425   6.729   1.950   8.987  0.1173  0.2214  0.1515
 4226W        W 8426   8.410   6.727   3.307 -0.1356  0.0430 -0.1367
 4227W        W 8427   7.131   5.959   8.986  0.0190 -0.2374 -0.1000
 4228W        W 8428   9.774   4.200   4.021  0.2536  0.0903  0.0335
 4229W        W 8429   4.716   1.928  12.748 -0.4271  0.2076  0.0118
 4230W        W 8430   6.604   8.164   1.216 -0.2123  0.4726 -0.1413
 4231W        W 8431   1.240   7.318  12.993 -0.1886 -0.3404 -0.3160
 4232W        W 8432   8.364  10.088  10.414  0.0544 -0.1660 -0.0376
 4233W        W 8433   7.613   6.121   3.239  0.2139  0.0394  0.1254
 4234W        W 8434   5.155   1.805  12.422  0.0642 -0.0856  0.0330
 4235W        W 8435   5.541   5.802  13.236 -0.3674 -0.0141 -0.2570
 4236W        W 8436   5.549   3.915   1.615 -0.2297  0.0966 -0.1637
 4237W        W 8437   1.099   2.179   3.874 -0.1501 -0.4091  0.0084
 4238W        W 8438   1.234   6.973  11.152 -0.1824  0.1607  0.2860
 4239W        W 8439   7.087   2.405   4.648 -0.0748  0.0753  0.2799
 4240W        W 8440   7.918   8.076   2.550  0.1419 -0.0893  0.0278
 4241W        W 8441   8.787   0.968  12.030 -0.1047 -0.1151 -0.2332
 4242W        W 8442   0.892   1.407   2.463 -0.2831 -0.1584  0.0117
 4243W        W 8443   6.013   4.961   3.400  0.3338 -0.2407 -0.3342
 4244W        W 8444   0.004   2.438   2.717 -0.1626  0.2241  0.1325
 4245W        W 8445   0.224   6.870   9.635  0.1493 -0.1812 -0.0177
 4246W        W 8446   6.419   2.538   2.781  0.0202 -0.2203 -0.2224
 4247W        W 8447   4.567  10.089   0.970 -0.1799  0.0196  0.1120
 4248W        W 8448   8.695   8.112  12.942  0.2153 -0.0943  0.2991
 4249W        W 8449   9.241   8.687   0.355  0.1681 -0.2460 -0.0714
 4250W        W 8450   5.822   0.182   2.373 -0.1287 -0.1915 -0.2026
 4251W        W 8451   7.082   5.832   4.012  0.2009 -0.0498 -0.0637
 4252W        W 8452   4.303   4.376  12.587  0.1313 -0.2593  0.1058
 4253W        W 8453   3.046   8.422   2.283 -0.3546  0.0742 -0.2589
 4254W        W 8454   4.049   1.341   4.743  0.1159 -0.0128 -0.4894
 4255W        W 8455   9.673   7.054   3.058 -0.2698 -0.0085 -0.0347
 4256W        W 8456   2.856   5.455  10.644 -0.1231  0.2060  0.0664
 4257W        W 8457   4.150   6.958   0.191 -0.0852 -0.1743  0.1875
 4258W        W 8458   0.601   3.878   0.730 -0.2664 -0.1317  0.0422
 4259W        W 8459   9.076   8.155  11.468  0.1070  0.0481 -0.0771
 4260W        W 8460   5.364   0.921   0.190  0.2055  0.2770  0.0201
 4261W        W 8461   8.424   1.843   9.286 -0.1573  0.2080  0.0379
 4262W        W 8462   1.227   6.151   0.340  0.0644 -0.0303  0.2072
 4263W        W 8463   9.186  10.027   9.981  0.0135 -0.1276  0.1706
 4264W        W 8464   3.852   8.746   3.922 -0.2702 -0.0730  0.0492
 4265W        W 8465   3.045   0.277  10.660  0.1200  0.0751 -0.2209
 4266W        W 8466   3.679   5.498   0.548  0.1320 -0.0276  0.0655
 4267W        W 8467   8.198   2.791  12.914 -0.2499 -0.1316 -0.0059
 4268W        W 8468   1.788   3.664   2.311 -0.2491  0.0873 -0.0986
 4269W        W 8469   9.774   7.302   1.203  0.4387  0.1002 -0.1172
 4270W        W 8470   6.397   1.867  10.675 -0.1143  0.2349  0.2077
 4271W        W 8471   9.473   3.961   1.406  0.0221  0.2119 -0.2006
 4272W        W 8472   5.078   7.304  10.264 -0.3474  0.4612 -0.2575
 4273W        W 8473   9.731   7.284   2.134 -0.0643 -0.2613 -0.0177
 4274W        W 8474   6.281   2.862   3.316  0.0145 -0.2277  0.1273
 4275W        W 8475   7.823   9.494   1.094  0.1333  0.1515 -0.1199
 4276W        W 8476   1.702   8.463  12.936  0.0516 -0.0868  0.0233
 4277W        W 8477   5.513   8.579  11.315  0.0416  0.1968  0.0729
 4278W        W 8478   1.399   7.088   4.215  0.2683 -0.0294  0.0665
 4279W        W 8479   6.443   4.795  13.171  0.2270 -0.2499  0.0057
 4280W        W 8480   5.319   6.146   3.190 -0.2392  0.1209  0.2571
 4281W        W 8481   4.783   6.376  12.278  0.1545 -0.2133 -0.1413
 4282W        W 8482   0.072   6.824   0.320 -0.0031  0.2847  0.1591
 4283W        W 8483   5.168   7.985  12.892 -0.1325 -0.0982  0.0513
 4284W        W 8484   6.083   5.965  12.503  0.0358 -0.0555  0.0405
 4285W        W 8485   4.338   5.042  11.197  0.1394  0.0298 -0.0893
 4286W        W 8486   6.882   3.190  11.111  0.0544 -0.0048 -0.2396
 4287W        W 8487  10.050  10.466   0.746  0.3346  0.0376  0.2526
 4288W        W 8488   8.060   7.546   4.456 -0.1160 -0.0848 -0.0893
 4289W        W 8489   5.450   9.481   1.526  0.1213 -0.2146  0.1363
 4290W        W 8490   8.763   8.865  12.224  0.2439  0.2305 -0.2686
 4291W        W 8491   6.692   5.151   0.677  0.0863 -0.3285 -0.0400
 4292W        W 8492   4.402   1.969   8.889 -0.5086  0.0665 -0.2792
 4293W        W 8493  10.422   2.524  13.214  0.0823 -0.0234  0.0368
 4294W        W 8494   5.007  10.058   1.225  0.0149 -0.1207  0.0947
 4295W        W 8495   6.301   3.517   2.526 -0.0552 -0.1081 -0.2094
 4296W        W 8496   9.883   1.092  11.405  0.0530 -0.0337 -0.0947
 4297W        W 8497   7.733   7.829  12.679  0.1009  0.1147 -0.0477
 4298W        W 8498   3.823   5.231  12.441 -0.1725  0.0353  0.4264
 4299W        W 8499   2.376   3.001   1.828  0.0598 -0.1701  0.1050
 4300W        W 8500   5.136   2.074   1.029 -0.2779  0.1163  0.2465
 4301W        W 8501   3.987   9.792  11.242 -0.1778 -0.1915 -0.3975
 4302W        W 8502   2.819   2.932   0.952 -0.2280 -0.0743 -0.0268
 4303W        W 8503   9.814   2.427   3.921  0.0615 -0.2418  0.0261
 4304W        W 8504   6.328   1.120   1.524  0.1871  0.0885  0.0684
 4305W        W 8505   6.695   3.205   0.790 -0.0658  0.0938 -0.1994
 4306W        W 8506   1.943   1.971  11.356  0.0997 -0.3890 -0.0235
 4307W        W 8507   8.944   0.516  12.001 -0.0371 -0.2035 -0.0563
 4308W        W 8508   1.836   9.781   1.962 -0.2213 -0.2788 -0.3311
 4309W        W 8509   7.063   4.965   9.070 -0.1004 -0.0493  0.5809
 4310W        W 8510   4.374   6.273  10.583 -0.2053 -0.0072 -0.1725
 4311W        W 8511   5.227   2.200   3.308  0.1609  0.1459 -0.0478
 4312W        W 8512   6.044   7.016   1.896 -0.2189  0.2514 -0.0770
 4313W        W 8513   9.450   0.382   2.580 -0.2555  0.4238  0.0458
 4314W        W 8514   6.675  10.154   3.456 -0.0025  0.0933  0.2010
 4315W        W 8515   5.896   6.151   0.009 -0.1319 -0.0899  0.0675
 4316W        W 8516   6.058   0.792  12.335  0.1683  0.0008  0.0226
 4317W        W 8517  10.312   7.823   0.871  0.0767 -0.0455 -0.1471
 4318W        W 8518   5.510   0.286  11.670 -0.0611 -0.0233 -0.1551
 4319W        W 8519   4.071   5.742   8.800  0.1809  0.3812  0.2814
 4320W        W 8520   3.152   7.236   4.404  0.3235 -0.0061  0.2356
 4321W        W 8521   5.472   6.742   0.552  0.1254 -0.0524  0.1377
 4322W        W 8522   8.744   1.900   1.653  0.0722 -0.1910  0.0439
 4323W        W 8523   9.599   8.825   4.919 -0.1627  0.2805  0.1256
 4324W        W 8524   9.712   1.236  10.870 -0.1472  0.1661  0.2137
 4325W        W 8525   7.056   3.196   9.411 -0.0041 -0.0712 -0.0393
 4326W        W 8526   3.929   0.947   3.529  0.1318 -0.0973 -0.2080
 4327W        W 8527   7.395   7.736   3.844 -0.1845  0.1957 -0.0861
 4328W        W 8528   9.031   4.208  10.778  0.1488  0.0991  0.0727
 4329W        W 8529   6.692   8.531   0.859 -0.0081  0.3690  0.0649
 4330W        W 8530   7.682   2.787  12.676 -0.2192  0.0553  0.0214
 4331W        W 8531   1.013   4.145  12.167 -0.0775 -0.5536 -0.1551
 4332W        W 8532   1.729   7.991  10.805  0.0624  0.1390 -0.0112
 4333W        W 8533   3.629   2.483  10.249  0.1036  0.0737 -0.1491
 4334W        W 8534  10.058   4.540  10.123 -0.2585  0.2273  0.1116
 4335W        W 8535   6.641   5.632  11.871  0.2778 -0.1743  0.4264
 4336W        W 8536   7.670   0.807   3.682  0.3805  0.1016 -0.0200
 4337W        W 8537   3.725   4.126   9.433  0.0859  0.0775  0.0964
 4338W        W 8538   9.603  10.166   1.321  0.0448 -0.2886 -0.1677
 4339W        W 8539   7.376   3.175  13.159  0.2038  0.0132 -0.0032
 4340W        W 8540   9.572   1.542   2.714  0.2247  0.0089 -0.1265
 4341W        W 8541   9.182   6.799  10.490  0.0969  0.0837  0.1336
 4342W        W 8542   4.984   6.016   3.981 -0.2495  0.0702  0.2319
 4343W        W 8543   4.221   0.355  12.211  0.0729 -0.0547  0.0107
 4344W        W 8544   4.600   1.801  11.756  0.1072 -0.1294  0.0075
 4345W        W 8545   5.660   1.979   4.909  0.1677  0.1319  0.1053
 4346W        W 8546   7.099   2.134  13.312  0.1733  0.4779  0.2592
 4347W        W 8547   3.854   8.930   0.912  0.1540 -0.1186  0.1658
 4348W        W 8548   6.966   6.076   8.356  0.0615  0.2570 -0.0705
 4349W        W 8549   7.634   7.306  12.852 -0.0128  0.0355  0.1307
 4350W        W 8550   7.861   0.379   1.601  0.4099 -0.2435 -0.1125
 4351W        W 8551  10.304   5.376   8.124  0.2003 -0.0672 -0.0165
 4352W        W 8552   5.704   3.996  11.296  0.0751 -0.0637 -0.2362
 4353W        W 8553  10.213   5.336   8.713  0.3098 -0.0264  0.1434
 4354W        W 8554   5.055   9.751   0.753  0.0571  0.2423  0.0679
 4355W        W 8555   1.569   0.885   1.106 -0.2210 -0.1254  0.1578
 4356W        W 8556   2.689   9.404   9.979 -0.0117  0.0332  0.1816
 4357W        W 8557   6.946   1.645   9.786 -0.3076 -0.0427 -0.0348
 4358W        W 8558   8.742   2.289   2.788  0.2721  0.2658 -0.1992
 4359W        W 8559   8.601   8.754   9.857 -0.1042  0.1391 -0.3400
 4360W        W 8560  10.077   5.251   5.100 -0.3322  0.1282  0.2241
 4361W        W 8561   6.199   1.576   4.378 -0.0534  0.0431 -0.1886
 4362W        W 8562   6.838   4.603   2.963  0.0647 -0.1257 -0.2056
 4363W        W 8563   7.792   2.189   2.409  0.0629  0.3755 -0.1558
 4364W        W 8564   1.268   1.482   9.716  0.0889  0.3274 -0.3046
 4365W        W 8565   2.435   7.963   2.470  0.1669  0.1588 -0.0536
 4366W        W 8566   9.876   9.516   3.379  0.0006 -0.4227 -0.0590
 4367W        W 8567   2.837   9.834   0.066  0.2011 -0.0331  0.2559
 4368W        W 8568   8.005   3.027  12.347  0.1548 -0.2438  0.2343
 4369W        W 8569   7.424   0.929   0.048  0.2515 -0.1486  0.1865
 4370W        W 8570   9.636   2.749   3.582 -0.2084 -0.1237  0.1418
 4371W        W 8571   1.156   4.550  13.350  0.0004 -0.1270  0.1313
 4372W        W 8572   1.130  10.411   0.175  0.1063  0.4112  0.0116
 4373W        W 8573   5.430   1.809   0.669 -0.1582 -0.1480  0.2138
 4374W        W 8574   2.761   8.727   0.939 -0.1974 -0.0788  0.3342
 4375W        W 8575   5.595   7.691   0.208  0.2983  0.0585  0.0314
 4376W        W 8576   3.603  10.323  13.401  0.1039  0.0682  0.4223
 4377W        W 8577   1.668   7.267   1.086  0.0537 -0.0736 -0.3348
 4378W        W 8578   9.927   1.611   0.095  0.0024 -0.0330 -0.3636
 4379W        W 8579   0.919   4.450  12.883  0.1373  0.0440 -0.1786
 4380W        W 8580   1.945   9.182  10.318  0.1222  0.1651  0.1011
 4381W        W 8581   7.970   6.423   3.265 -0.1249  0.0169  0.0733
 4382W        W 8582   7.559   1.910   8.812 -0.1876  0.1926  0.2358
 4383W        W 8583   6.524  10.305   2.898  0.0179 -0.1068  0.0042
 4384W        W 8584   7.205   2.940  12.566 -0.0767  0.0166  0.0380
 4385W        W 8585   4.282   6.579   3.390  0.0352  0.0713 -0.0075
 4386W        W 8586   2.342   5.993   3.672 -0.1491 -0.2657  0.1132
 4387W        W 8587   9.626   5.163   4.022 -0.0976  0.1782 -0.3116
 4388W        W 8588   2.849   3.481   3.297 -0.2492  0.0055 -0.1887
 4389W        W 8589   4.705   6.609  10.879 -0.1058 -0.2693 -0.2627
 4390W        W 8590   1.035   4.731  10.536 -0.0752 -0.0793  0.0979
 4391W        W 8591   0.483   0.112   3.398  0.0552  0.0733  0.1355
 4392W        W 8592   7.644   9.581   9.774  0.1252  0.0946 -0.0183
 4393W        W 8593   1.571   4.844   2.456  0.0565  0.3343 -0.2165
 4394W        W 8594   9.157   4.823  12.066 -0.4711 -0.0632 -0.2301
 4395W        W 8595   7.356   3.841   2.259  0.2582 -0.1165  0.2282
 4396W        W 8596   7.417   2.354   4.157  0.0837 -0.1735  0.1590
 4397W        W 8597   9.516   8.112   3.159  0.2167  0.1800  0.0218
 4398W        W 8598   8.484   8.999  11.389  0.2531 -0.1912  0.2121
 4399W        W 8599   4.259   2.389  13.430 -0.0227  0.0509  0.0764
 4400W        W 8600   7.820   5.265  10.128 -0.0211 -0.2085 -0.3461
 4401W        W 8601   7.960   2.148   9.642 -0.0799 -0.0160 -0.2706
 4402W        W 8602   0.627   0.663   2.411 -0.1235 -0.1680 -0.0131
 4403W        W 8603   6.946   1.429  11.961  0.0544  0.2766  0.0876
 4404W        W 8604   7.443   3.322  11.801 -0.1573  0.1925 -0.1649
 4405W        W 8605   4.470   8.515   1.240  0.1758  0.0823  0.2407
 4406W        W 8606   9.303   6.593  13.007  0.0959 -0.0780  0.0675
 4407W        W 8607   2.245   1.970   2.664 -0.1010  0.1665 -0.0543
 4408W        W 8608  10.300   5.893   3.312 -0.1857 -0.0395 -0.1605
 4409W        W 8609   7.753   1.088   9.697  0.5185  0.0220 -0.2295
 4410W        W 8610   0.000   0.844  11.139  0.4128  0.3731 -0.1703
 4411W        W 8611   5.501   9.581   0.501 -0.2207  0.0218 -0.1056
 4412W        W 8612   0.108   2.395   3.664 -0.0756  0.1581  0.0181
 4413W        W 8613   8.473   0.252   3.911 -0.2668  0.0921  0.1892
 4414W        W 8614   0.064   4.937   9.412  0.1116  0.3987 -0.1125
 4415W        W 8615   9.931   3.109   2.318  0.3234  0.0036 -0.3278
 4416W        W 8616   0.615   2.824   1.010  0.0266 -0.2461  0.0560
 4417W        W 8617   5.134   4.416   2.243  0.0651  0.2344 -0.2272
 4418W        W 8618   0.747   1.049   3.708 -0.0624 -0.1127 -0.3195
 4419W        W 8619   6.438   2.817  13.210  0.0853 -0.0195  0.1272
 4420W        W 8620   9.081   2.970   9.605 -0.1681 -0.2941  0.2579
 4421W        W 8621   6.158   3.790   4.431 -0.1619  0.0660 -0.1680
 4422W        W 8622   5.042   9.003  11.221 -0.0628  0.3566  0.1424
 4423W        W 8623   6.740   2.235  11.384  0.0303  0.2025 -0.1751
 4424W        W 8624   9.524   3.171  10.896  0.1949 -0.0858 -0.2675
 4425W        W 8625   4.346  10.018   2.458 -0.1402 -0.0212 -0.0152
 4426W        W 8626   1.566   3.659  10.757  0.1728  0.2276  0.2004
 4427W        W 8627   1.452   4.520  12.880 -0.1447 -0.0501  0.0698
 4428W        W 8628   8.681   3.510   0.521 -0.1816  0.0811  0.0285
 4429W        W 8629   8.623   7.939   2.720  0.1858  0.1734 -0.2526
 4430W        W 8630   5.042   2.029   2.142 -0.0568  0.0045 -0.3582
 4431W        W 8631   5.418   2.177   1.527 -0.0318  0.0713 -0.0570
 4432W        W 8632   0.000   8.233   9.253  0.1336  0.1794 -0.0156
 4433W        W 8633   8.419   2.220   4.175 -0.3074  0.2769 -0.3222
 4434W        W 8634   3.518  10.342  12.027 -0.4801 -0.1395 -0.1907
 4435W        W 8635   8.945   0.031  11.921 -0.1756  0.2273  0.0794
 4436W        W 8636   1.579   0.676  12.253 -0.2767 -0.0343 -0.1098
 4437W        W 8637   5.788   7.281  11.041 -0.1236  0.2790  0.1498
 4438W        W 8638   0.086   5.042   3.476  0.1525 -0.2219 -0.2473
 4439W        W 8639   4.746   0.546   3.233 -0.1113  0.1935 -0.1612
 4440W        W 8640   9.193   6.416   2.156 -0.0422 -0.1247  0.0413
 4441W        W 8641   8.707  10.179  12.746  0.0220 -0.0252 -0.0309
 4442W        W 8642   7.419   0.677   9.984 -0.2121 -0.0109 -0.1284
 4443W        W 8643   9.222   5.198   3.536  0.2332 -0.2329  0.1235
 4444W        W 8644   2.081   0.895   1.938 -0.0654  0.1940  0.1033
 4445W        W 8645   2.389   3.393   9.485 -0.0533 -0.0511  0.0564
 4446W        W 8646   8.925   1.131   0.809 -0.4046 -0.1197 -0.1504
 4447W        W 8647   2.932   5.022  12.277  0.3137 -0.0664  0.1615
 4448W        W 8648   5.376   2.145  10.183  0.0305 -0.4345  0.2173
 4449W        W 8649  10.168   8.092   1.251 -0.1137 -0.0645 -0.2846
 4450W        W 8650   1.149   0.171   3.536 -0.0133  0.2972 -0.3361
 4451W        W 8651   4.899   2.257   2.579 -0.1616  0.1905  0.0001
 4452W        W 8652   5.552   8.102  13.398 -0.1724 -0.1929  0.1155
 4453W        W 8653   1.671   7.151  13.164 -0.4020 -0.2748  0.0665
 4454W        W 8654   0.282   0.584   9.764  0.1877 -0.1908 -0.1164
 4455W        W 8655   3.348   6.259   0.030 -0.0283 -0.0507  0.1409
 4456W        W 8656   4.562   9.237   0.528  0.2310  0.0445 -0.1636
 4457W        W 8657   7.070   4.819   3.842  0.0116  0.1602  0.1085
 4458W        W 8658   3.582   5.390   5.026 -0.0439  0.1226  0.2176
 4459W        W 8659   0.569   9.354   4.842 -0.0027  0.3315  0.0561
 4460W        W 8660   1.941   7.662   3.270  0.1613  0.0941  0.1550
 4461W        W 8661   3.194   7.091  11.343 -0.2123 -0.1787  0.3961
 4462W        W 8662   4.288   7.948   2.836  0.0623  0.1522 -0.0168
 4463W        W 8663   3.619   5.805   3.222 -0.3052 -0.1590 -0.0422
 4464W        W 8664   2.465   5.969   2.465 -0.2143  0.0103 -0.1923
 4465W        W 8665   8.050   4.800   1.765 -0.0342  0.1513  0.3097
 4466W        W 8666   8.434   3.077  10.794  0.1059  0.0073 -0.0217
 4467W        W 8667   7.765   4.013   1.372 -0.0589  0.1219  0.2928
 4468W        W 8668   2.760   3.786   8.746  0.0085 -0.0928 -0.1497
 4469W        W 8669  10.237   8.053   2.144  0.0623 -0.2216 -0.4838
 4470W        W 8670  10.011   6.747  11.432 -0.0417  0.1380  0.0069
 4471W        W 8671   8.903   8.290   2.525 -0.1526  0.1603 -0.5118
 4472W        W 8672   5.333   6.854   3.030 -0.2081  0.0778  0.0502
 4473W        W 8673   4.872   3.058  10.176 -0.2177  0.4909  0.0439
 4474W        W 8674   5.463   5.235   2.072 -0.2038 -0.1383 -0.1848
 4475W        W 8675   5.889   5.015  12.926  0.2518 -0.0231  0.1083
 4476W        W 8676   5.998   6.846   2.701 -0.0696  0.0832  0.1346
 4477W        W 8677   8.898   4.611  10.075  0.0594 -0.0884 -0.0804
 4478W        W 8678   5.066   3.265   9.546 -0.1802  0.4680 -0.1710
 4479W        W 8679   0.180   0.731  10.294  0.0972 -0.2420  0.0930
 4480W        W 8680   4.261   1.190   4.264 -0.2628  0.1307 -0.0764
 4481W        W 8681   2.065   2.285   0.796  0.1402  0.1999  0.0938
 4482W        W 8682   9.859   5.567   4.131  0.0936  0.2286 -0.2780
 4483W        W 8683   9.675   4.583  11.826  0.1309  0.2063  0.1536
 4484W        W 8684   8.537   7.268  10.819  0.3029  0.0250  0.3512
 4485W        W 8685   6.471   5.196  10.970 -0.1994 -0.2286  0.2327
 4486W        W 8686   6.024   6.902  10.170  0.0683  0.0531  0.0544
 4487W        W 8687   3.335   5.078   9.855  0.5105  0.0887  0.3239
 4488W        W 8688   9.193   7.346   3.265  0.3851 -0.3244 -0.3176
 4489W        W 8689   3.622  10.439   1.993  0.0671  0.2068 -0.1520
 4490W        W 8690   2.818   5.802   4.385  0.0852 -0.2532  0.2920
 4491W        W 8691   5.877   6.320   8.845  0.0529 -0.2420  0.0440
 4492W        W 8692   7.411   7.160   3.846 -0.1826 -0.1500 -0.2446
 4493W        W 8693   3.474   5.919  10.496  0.3334  0.2612  0.4326
 4494W        W 8694   2.212  10.041  12.951  0.1352  0.2852 -0.1470
 4495W        W 8695   0.755   4.312  10.538 -0.3018 -0.0964 -0.1939
 4496W        W 8696   6.969   7.700   0.592  0.0192 -0.0513 -0.0944
 4497W        W 8697  10.174   6.142   9.465 -0.5923 -0.0497 -0.1137
 4498W        W 8698   0.881   7.331   4.847 -0.3072  0.3260 -0.1415
 4499W        W 8699   3.477   1.725   8.800  0.1188 -0.0577 -0.1894
 4500W        W 8700   1.066   1.795   4.124 -0.2475  0.0786  0.1129
 4501W        W 8701   7.855   7.325   1.418 -0.0635 -0.0087  0.2245
 4502W        W 8702   3.524   2.021   3.118  0.0676  0.4489  0.1903
 4503W        W 8703   9.513  10.063   1.774  0.3282  0.0365 -0.1042
 4504W        W 8704   4.586   1.466   9.872 -0.1409  0.1114  0.0099
 4505W        W 8705   8.720   7.326  13.281 -0.1143 -0.0222 -0.1044
 4506W        W 8706   4.780   5.776  13.271  0.2287  0.1594 -0.3570
 4507W        W 8707   0.241   9.506   3.184 -0.2662 -0.1230 -0.3279
 4508W        W 8708   1.721   2.263   2.639 -0.0132 -0.0672  0.2692
 4509W        W 8709  10.270   5.942   2.463  0.1599 -0.0406 -0.2415
 4510W        W 8710   3.488  10.109  12.971 -0.4479  0.0794 -0.3202
 4511W        W 8711   1.156   3.494  12.814 -0.1587  0.2142  0.1713
 4512W        W 8712   8.137  10.228   0.842 -0.4777  0.0310 -0.1898
 4513W        W 8713   5.661   4.811   2.228 -0.2936  0.0910 -0.0291
 4514W        W 8714   5.340   2.440   2.867 -0.1010  0.2052  0.1296
 4515W        W 8715   3.951   5.780   4.349  0.1290  0.0484  0.0846
 4516W        W 8716  10.422   7.744  10.177  0.2664  0.3408 -0.0095
 4517W        W 8717   3.820   1.970   1.356  0.0485 -0.0712 -0.1211
 4518W        W 8718  10.029   7.781   4.213 -0.0362  0.1860  0.2599
 4519W        W 8719   0.942   6.129   4.065 -0.3507 -0.2421 -0.1857
 4520W        W 8720   9.361   9.569   3.283  0.1147  0.1005  0.2499
 4521W        W 8721   3.764   4.259  10.528 -0.0885 -0.1312  0.3547
 4522W        W 8722   9.493   3.646  11.348  0.2394 -0.1551  0.0304
 4523W        W 8723   6.711   4.439   3.964  0.1473  0.0202 -0.3137
 4524W        W 8724   1.602   4.941  12.393 -0.0760  0.2116  0.0064
 4525W        W 8725   6.352   0.190   3.758 -0.0982  0.1414 -0.1486
 4526W        W 8726   9.444   4.021  12.663  0.0029 -0.0944  0.2164
 4527W        W 8727   1.100   5.832   9.427 -0.0196  0.1431  0.0966
 4528W        W 8728   1.117   5.236  10.843 -0.0116 -0.1101 -0.1563
 4529W        W 8729   4.492   8.609  12.997 -0.2201 -0.1239 -0.0568
 4530W        W 8730   3.457   6.312   3.318  0.0008  0.0657  0.1547
 4531W        W 8731  10.206   7.588   9.778 -0.3359  0.1527  0.0819
 4532W        W 8732   8.504   1.054   0.320  0.0631 -0.2075 -0.1048
 4533W        W 8733   9.914   0.275  10.452  0.1200 -0.2240  0.0589
 4534W        W 8734   3.525   6.895  12.113 -0.0037  0.1283 -0.3506
 4535W        W 8735   2.196   5.349   1.816  0.3237  0.0497 -0.0940
 4536W        W 8736   2.986   7.105   0.401  0.1221 -0.1065  0.0186
 4537W        W 8737   5.190   1.706   1.791 -0.0986 -0.1974  0.2714
 4538W        W 8738   7.652   1.830  11.412  0.0437 -0.1587 -0.1643
 4539W        W 8739   4.483   7.298  13.448  0.0355 -0.0374 -0.1848
 4540W        W 8740   4.259   6.862   4.296 -0.0712  0.0760  0.2096
 4541W        W 8741   3.908   7.806   3.975 -0.2489 -0.1562  0.0914
 4542W        W 8742   8.708   4.517   3.066  0.5005  0.0380  0.0042
 4543W        W 8743   3.840   1.243   1.963 -0.0752  0.0846 -0.1316
 4544W        W 8744   0.509   4.554   9.174 -0.2262  0.1322 -0.0356
 4545W        W 8745   5.734   0.975   0.623 -0.2587 -0.1876  0.0937
 4546W        W 8746   1.254   2.126  12.304  0.0773 -0.1957  0.1317
 4547W        W 8747   3.130   7.116  12.369 -0.1298  0.0057 -0.1849
 4548W        W 8748   3.494   7.630   4.518 -0.0068  0.0121  0.0242
 4549W        W 8749   7.503   2.386   3.623 -0.0238 -0.1444 -0.1219
 4550W        W 8750   1.633   1.841  12.591 -0.1750 -0.0427  0.1009
 4551W        W 8751   4.322   3.115   4.406 -0.1027 -0.0612 -0.4097
 4552W        W 8752   8.275   1.821   0.734  0.0626  0.2449 -0.3381
 4553W        W 8753   5.647   4.792  11.987  0.2218  0.3648 -0.1447
 4554W        W 8754   1.793   4.566   3.842  0.0372 -0.3362  0.0519
 4555W        W 8755   3.206   0.735  13.431  0.3087 -0.0932  0.1744
 4556W        W 8756   5.365   7.774   2.043 -0.1735 -0.2349  0.0104
 4557W        W 8757   0.128   5.644  10.065 -0.3963 -0.0311 -0.0727
 4558W        W 8758   2.211   1.142   3.968 -0.1127 -0.2971  0.1141
 4559W        W 8759   9.834   2.370  12.576  0.0495 -0.2970  0.0862
 4560W        W 8760   3.986   2.112  11.626  0.0677 -0.2151  0.0981
 4561W        W 8761   6.792   4.891  10.261  0.0494 -0.0323  0.0636
 4562W        W 8762   0.599   2.688   8.685  0.2603 -0.1261  0.0779
 4563W        W 8763   3.481   8.081   3.163 -0.1502 -0.1687  0.0271
 4564W        W 8764   6.251   1.960  11.679  0.2750  0.0152 -0.3204
 4565W        W 8765   7.956   8.110   2.048 -0.1592  0.1573  0.3795
 4566W        W 8766  10.285   2.424   4.155  0.2792 -0.3323  0.1560
 4567W        W 8767   0.395   7.820   3.662  0.2425  0.2344  0.3161
 4568W        W 8768   1.072   7.497   9.807 -0.0584  0.2812  0.3789
 4569W        W 8769   4.132   4.470   9.751 -0.2624 -0.2212  0.0170
 4570W        W 8770   7.455   3.358   3.204 -0.0652  0.3085  0.0554
 4571W        W 8771   6.728   2.928  12.760 -0.0316 -0.4236  0.1760
 4572W        W 8772   6.154   9.228  11.156 -0.2878  0.0638  0.1640
 4573W        W 8773   0.229   7.359  12.169  0.2500 -0.1324  0.0560
 4574W        W 8774   2.406   3.792   1.887  0.0046  0.0358  0.0065
 4575W        W 8775   2.338   6.504   3.302 -0.1825  0.3588  0.1074
 4576W        W 8776   5.545   2.573  12.634  0.1424 -0.2399 -0.2231
 4577W        W 8777   1.146   6.271   2.304 -0.1885 -0.1094  0.0043
 4578W        W 8778   9.765   2.926   0.861  0.5155 -0.1081  0.2093
 4579W        W 8779   2.490   2.129  12.358  0.1890 -0.0230  0.0982
 4580W        W 8780   7.571   7.883   0.565 -0.1424  0.2036 -0.1088
 4581W        W 8781   9.234   5.205  11.224 -0.0541 -0.0323 -0.1846
 4582W        W 8782   2.288   0.084   2.996 -0.0401  0.1816 -0.1002
 4583W        W 8783   1.947   1.394  12.418 -0.0922  0.2121  0.0374
 4584W        W 8784   2.330   8.460   4.447 -0.2368  0.2510 -0.2460
 4585W        W 8785   9.668   6.441   3.693  0.0003  0.0119  0.1314
 4586W        W 8786   7.203   0.702   8.901  0.2190  0.0501 -0.0296
 4587W        W 8787   8.886   9.472  11.228 -0.1054 -0.0695  0.1983
 4588W        W 8788   9.988   4.495   2.825 -0.1314 -0.1885 -0.0930
 4589W        W 8789   9.733   6.845   1.072 -0.1350 -0.0673 -0.1736
 4590W        W 8790   5.286   2.416  10.599 -0.0126  0.0439 -0.3199
 4591W        W 8791   3.713   3.684  10.244 -0.0275  0.0545 -0.0151
 4592W        W 8792   0.128   3.823  11.558 -0.0000  0.4451  0.0733
 4593W        W 8793   8.501   9.771   3.732  0.2100  0.1369 -0.0587
 4594W        W 8794   6.056   7.314   9.509  0.1941 -0.0442 -0.0787
 4595W        W 8795   6.175   4.892   0.870  0.0422 -0.1347  0.1187
 4596W        W 8796   7.612   1.558   9.857 -0.1583  0.1617  0.1653
 4597W        W 8797   4.963   9.464  11.932 -0.4828  0.4531  0.0896
 4598W        W 8798   8.685   5.476  11.802 -0.2117  0.0639  0.3667
 4599W        W 8799   1.771   8.104   9.593  0.2318  0.0077  0.0084
 4600W        W 8800   7.318   7.287   1.492  0.2023  0.1180  0.1835
 4601W        W 8801   4.564  10.436   9.486 -0.2979 -0.0911 -0.1361
 4602W        W 8802   6.534   6.190   1.502  0.0461  0.1119  0.3757
 4603W        W 8803   4.260   0.643  11.133 -0.2673 -0.2866  0.1087
 4604W        W 8804   5.073   1.594  11.628  0.1537  0.3544  0.0871
 4605W        W 8805   6.213   9.537   3.414 -0.0456  0.1544  0.0367
 4606W        W 8806   7.902   5.574   3.676 -0.0322 -0.0016  0.0673
 4607W        W 8807   4.105   4.697  13.001 -0.1103  0.1526  0.0002
 4608W        W 8808   3.743   2.076   4.413 -0.1919  0.3434 -0.0190
 4609W        W 8809   4.096   9.587   1.691  0.1600 -0.0439 -0.0572
 4610W        W 8810   2.809  10.282   3.811  0.0365  0.1872  0.1842
 4611W        W 8811   5.135   4.878   8.211  0.2050 -0.0060 -0.0933
 4612W        W 8812   8.248   5.252   1.744 -0.0161 -0.0306  0.4358
 4613W        W 8813   4.771   9.687   2.475  0.1878 -0.1263  0.1101
 4614W        W 8814   0.125   4.762   0.908 -0.1719 -0.1974 -0.3027
 4615W        W 8815   9.453   3.190   0.195 -0.0759  0.1749 -0.2352
 4616W        W 8816   2.294   9.331  12.308  0.0524 -0.3989  0.0563
 4617W        W 8817   5.583  10.341   3.255 -0.0273 -0.2337  0.0350
 4618W        W 8818   6.930   8.094  12.957 -0.1076  0.0540  0.1368
 4619W        W 8819   1.359   1.319   9.247 -0.4159 -0.1925 -0.0082
 4620W        W 8820   3.380   1.928   2.133  0.0092  0.1717  0.2681
 4621W        W 8821  10.449   4.420   9.275  0.0385 -0.1587  0.0471
 4622W        W 8822   9.803   3.317   1.152 -0.2064 -0.0706 -0.0867
 4623W        W 8823   7.649   5.798  11.466 -0.1710 -0.0370 -0.0266
 4624W        W 8824   8.203   1.823   1.748  0.2427 -0.0454  0.0416
 4625W        W 8825   1.877   6.270  12.868 -0.2575  0.2525  0.0784
 4626W        W 8826   6.951   7.719  10.466 -0.1828 -0.2471 -0.0132
 4627W        W 8827   1.235   2.264  11.840  0.0521 -0.4392  0.0838
 4628W        W 8828   8.079   0.389   0.650 -0.4296 -0.0646  0.4361
 4629W        W 8829   4.395   2.314   0.569 -0.2189 -0.0166  0.0273
 4630W        W 8830   8.342   2.025  10.104 -0.3329 -0.2518 -0.2074
 4631W        W 8831   1.039   4.971   1.802 -0.0463  0.1545  0.0926
 4632W        W 8832   0.232   7.401   0.862 -0.0973  0.0496  0.1484
 4633W        W 8833   2.258   7.728  13.384  0.0574  0.0087 -0.0883
 4634W        W 8834   4.655   0.686  11.955 -0.0753 -0.1926  0.1945
 4635W        W 8835   3.240   9.908   1.650  0.1714  0.0697 -0.0998
 4636W        W 8836   0.484   8.530   2.251 -0.1615  0.1563 -0.6502
 4637W        W 8837   8.696   3.638   9.768  0.2130  0.0280 -0.2124
 4638W        W 8838   7.223   3.338  10.682  0.1683 -0.0473  0.0649
 4639W        W 8839  10.314   7.243   0.523 -0.0780  0.1195  0.1525
 4640W        W 8840   7.175   3.396  12.334 -0.0712  0.2656 -0.2362
 4641W        W 8841   2.777   5.365   0.309 -0.0945  0.1187 -0.0031
 4642W        W 8842   7.258   0.132  10.307  0.4347  0.3644  0.1719
 4643W        W 8843   8.493   2.164  12.307 -0.2161  0.1850 -0.2394
 4644W        W 8844   5.797   3.640   2.637 -0.1659 -0.2913  0.1969
 4645W        W 8845   3.833   5.901   0.226  0.1537  0.3272 -0.1753
 4646W        W 8846   2.671   7.631   3.670  0.0042 -0.2847  0.0664
 4647W        W 8847   8.627   4.929  12.310 -0.4574 -0.1692  0.0300
 4648W        W 8848   2.136   8.119  13.136 -0.0006 -0.1687  0.2141
 4649W        W 8849   1.535   7.338   0.571 -0.0175  0.2111  0.0923
 4650W        W 8850   6.909   0.577   0.005  0.1044  0.1200  0.0914
 4651W        W 8851   1.027   4.615   2.374 -0.0194 -0.0635  0.2945
 4652W        W 8852   5.704   2.148   2.579 -0.1466 -0.0580  0.2513
 4653W        W 8853   5.113   4.293   1.713  0.1733  0.2445 -0.0160
 4654W        W 8854   6.530   0.986   3.289 -0.1820  0.1566 -0.1706
 4655W        W 8855   9.607   8.112  11.510 -0.0584 -0.0089  0.0873
 4656W        W 8856   1.017   1.434   0.254 -0.0535 -0.1367  0.1679
 4657W        W 8857   5.125   1.609  12.939 -0.0913 -0.1758 -0.1605
 4658W        W 8858   5.317   6.374   1.790 -0.2444  0.0766  0.1650
 4659W        W 8859   7.125   4.582  10.055 -0.1277 -0.0386 -0.0519
 4660W        W 8860   5.497   0.976   1.189 -0.2074 -0.1428  0.1326
 4661W        W 8861   5.447   6.087   3.638 -0.1861 -0.3535 -0.1367
 4662W        W 8862   8.248  10.388   3.650 -0.3359  0.1210  0.4229
 4663W        W 8863   3.336   3.180   9.365 -0.1050  0.1944 -0.1616
 4664W        W 8864   0.456   1.371  10.924 -0.0508  0.4364  0.1479
 4665W        W 8865   0.401   7.721   1.707  0.1212  0.1326 -0.1992
 4666W        W 8866   2.237   7.537   1.610 -0.0539 -0.0697 -0.0519
 4667W        W 8867   6.208   5.779  11.563 -0.2473 -0.2065 -0.1288
 4668W        W 8868   0.505   2.549  10.999  0.2003 -0.1216 -0.1350
 4669W        W 8869   1.731   7.353   9.471  0.0594  0.3194  0.2822
 4670W        W 8870   3.502   0.674   2.811 -0.2727  0.2296 -0.2055
 4671W        W 8871   2.204  10.319   9.856  0.0777  0.3295 -0.1918
 4672W        W 8872   1.073   2.526   8.724  0.2129 -0.0699 -0.2207
 4673W        W 8873   8.881   9.097   0.251  0.2367 -0.0979 -0.0119
 4674W        W 8874   4.940   4.577   9.115 -0.1616  0.0802 -0.0022
 4675W        W 8875   9.350  10.125   2.832 -0.1440  0.1470  0.2741
 4676W        W 8876   4.002  10.322   2.402 -0.2579 -0.2409 -0.1539
 4677W        W 8877   8.973   1.472  10.542 -0.1320 -0.2383  0.0970
 4678W        W 8878   7.220   4.295   3.894 -0.2311 -0.1392 -0.1251
 4679W        W 8879   6.796   0.300   1.628 -0.0424  0.1425  0.2680
 4680W        W 8880   4.509   8.243  13.365  0.4346 -0.1103  0.2135
 4681W        W 8881   4.866   0.299  12.705 -0.1735  0.1231  0.2922
 4682W        W 8882  10.307   1.803   0.467 -0.0463  0.1714 -0.1629
 4683W        W 8883   2.591  10.277  13.436 -0.4702  0.1982  0.0416
 4684W        W 8884   4.668   0.228  12.256  0.0901 -0.3827 -0.1908
 4685W        W 8885   1.746   0.791   0.214  0.1721  0.2004  0.3317
 4686W        W 8886   9.049   5.677   0.902  0.0683 -0.1262  0.0069
 4687W        W 8887   0.261   8.293   3.348  0.0487  0.0791 -0.1959
 4688W        W 8888   8.236   3.668   9.551  0.2822  0.3203  0.2569
 4689W        W 8889   3.083   1.597  13.132  0.2598  0.1689 -0.0421
 4690W        W 8890   5.015   6.949   0.512  0.2246 -0.0647 -0.0519
 4691W        W 8891   2.462   0.300   9.444  0.3348  0.0635  0.0039
 4692W        W 8892   7.904   6.193  11.529 -0.0598 -0.0701 -0.4491
 4693W        W 8893   9.876   3.128   9.208 -0.1549  0.0888  0.2339
 4694W        W 8894   7.332   8.533   0.969  0.0035 -0.1452  0.2015
 4695W        W 8895   2.864   0.262  10.163 -0.1540 -0.4377 -0.3043
 4696W        W 8896   0.447   0.225  10.064 -0.1241  0.0153  0.4167
 4697W        W 8897   2.994   7.572   0.315  0.0012  0.0690 -0.2451
 4698W        W 8898   0.502   8.758   3.221 -0.0115 -0.1770 -0.0587
 4699W        W 8899   4.727   9.185   2.132  0.2961  0.0500 -0.1266
 4700W        W 8900   3.789   1.226   1.123  0.2005 -0.0264 -0.2020
 4701W        W 8901   1.012   3.074   0.924 -0.0739 -0.0699  0.2913
 4702W        W 8902   1.789   5.627   3.015  0.1278  0.1018  0.1604
 4703W        W 8903   5.616   5.234   0.769  0.0703 -0.1749  0.1283
 4704W        W 8904   4.597   6.423  12.896 -0.2079  0.0030 -0.0805
 4705W        W 8905   4.404   8.780   0.228 -0.3567  0.0110 -0.0192
 4706W        W 8906   1.003   5.967   4.644  0.1532  0.2740 -0.0798
 4707W        W 8907   3.860   6.729   1.365 -0.0165  0.0838  0.0702
 4708W        W 8908   3.440   3.137   4.060 -0.2590 -0.1342  0.2289
 4709W        W 8909   6.237   8.337   0.798 -0.1697  0.2791  0.2457
 4710W        W 8910   4.992   1.196  11.252 -0.2343 -0.1682  0.0920
 4711W        W 8911   0.844   9.019  11.483  0.1028 -0.2634 -0.0649
 4712W        W 8912   1.199   8.754   0.666 -0.0227  0.4491  0.4818
 4713W        W 8913   6.264   5.626  11.068  0.0400  0.1454 -0.1138
 4714W        W 8914  10.315   4.174   4.782  0.1055  0.2064 -0.1334
 4715W        W 8915   0.195   5.753  13.025 -0.1854  0.3068 -0.4422
 4716W        W 8916   7.378   3.911  12.556  0.1650 -0.1463 -0.3361
 4717W        W 8917   2.895   6.593   0.682  0.0864  0.1319 -0.3700
 4718W        W 8918   9.040   6.967  13.243 -0.1353 -0.4036 -0.4059
 4719W        W 8919   0.211   1.135  12.498 -0.2349  0.1549  0.2823
 4720W        W 8920   6.287   6.823  11.422 -0.1043  0.1607  0.3386
 4721W        W 8921   7.915   8.572   1.883  0.1489 -0.0105 -0.1303
 4722W        W 8922   8.361   5.912  12.234  0.0241  0.2125  0.0301
 4723W        W 8923   2.681   8.179  10.975 -0.0670  0.0021 -0.1137
 4724W        W 8924   3.133   3.944  12.422  0.0015 -0.0630 -0.1713
 4725W        W 8925   7.012   4.960   0.234  0.4202 -0.0378 -0.0740
 4726W        W 8926   7.879   4.665   7.960 -0.2146 -0.1710 -0.2266
 4727W        W 8927   0.655   2.218   2.149  0.4971 -0.0690  0.1071
 4728W        W 8928   7.316   9.436   0.966 -0.1334 -0.0768  0.1025
 4729W        W 8929   7.609   1.099   0.484 -0.4903 -0.1054 -0.0377
 4730W        W 8930   6.495   6.915   0.538  0.1294 -0.0614 -0.0767
 4731W        W 8931  10.129   1.569   9.504 -0.2879  0.1588 -0.2482
 4732W        W 8932  10.279   1.307   0.734  0.2058 -0.2051  0.1619
 4733W        W 8933   9.508   2.657  11.207 -0.2931  0.2495  0.2894
 4734W        W 8934   2.111   5.367   0.995  0.0461  0.0788  0.2434
 4735W        W 8935   8.651   0.132  12.312  0.3597  0.1824  0.0439
 4736W        W 8936   5.307   8.409   0.678 -0.1769 -0.0208 -0.1327
 4737W        W 8937   1.272   9.247  12.441  0.3257 -0.0217 -0.0680
 4738W        W 8938   6.121   2.871   4.907  0.1069 -0.3676 -0.3541
 4739W        W 8939   7.631   7.231   2.897 -0.2029 -0.0442 -0.1732
 4740W        W 8940   2.875   6.761  12.644 -0.0328 -0.2516 -0.1492
 4741W        W 8941   6.324   8.046  10.948  0.3352  0.2768  0.2032
 4742W        W 8942   3.338   5.787   9.227 -0.1025  0.0063  0.1777
 4743W        W 8943   9.300   9.351   0.497 -0.2426  0.0907 -0.1287
 4744W        W 8944   0.133   3.378  12.997  0.2393 -0.1508  0.1378
 4745W        W 8945   9.159   6.433  10.791  0.2009  0.2830 -0.3813
 4746W        W 8946   7.311   8.413  11.957 -0.0763 -0.0467 -0.0556
 4747W        W 8947   9.458   8.173   1.809  0.0621  0.0602  0.0955
 4748W        W 8948   9.731   0.738   9.920 -0.1399  0.5359 -0.0925
 4749W        W 8949   3.336   9.271  11.390  0.2961 -0.0563  0.4862
 4750W        W 8950   7.960   4.482  13.061  0.1087  0.4763  0.0414
 4751W        W 8951   0.848   6.246   0.732  0.1850 -0.1925 -0.0858
 4752W        W 8952   8.149   6.063   2.317  0.1006 -0.2378  0.1073
 4753W        W 8953   7.075   8.061   1.082 -0.0147 -0.1920  0.1438
 4754W        W 8954   0.819   3.295   0.204 -0.1184 -0.1835 -0.0443
 4755W        W 8955   1.348   9.958   9.124 -0.3083  0.0084 -0.0150
 4756W        W 8956   3.677   0.418  11.812 -0.0417 -0.3741 -0.0938
 4757W        W 8957   1.067   0.971  11.321  0.2730 -0.1388 -0.2182
 4758W        W 8958   7.722  10.371   2.819 -0.0022 -0.0596 -0.0909
 4759W        W 8959   8.351   7.172  10.322 -0.0465 -0.1172 -0.0249
 4760W        W 8960   8.164   9.075   1.039  0.0882 -0.0721  0.2236
 4761W        W 8961   9.826   4.429  11.331 -0.1551  0.0568 -0.2040
 4762W        W 8962   1.610   6.988   0.191  0.0357 -0.0053  0.0881
 4763W        W 8963   3.842   7.545   9.801 -0.0401  0.1720  0.0058
 4764W        W 8964   6.513   7.444   0.636  0.0509 -0.4356 -0.3723
 4765W        W 8965   1.807   2.019   9.098  0.1122  0.1242 -0.1052
 4766W        W 8966   1.127   0.379  12.430  0.2684 -0.0352 -0.2766
 4767W        W 8967   3.564   1.964   0.862  0.3728  0.1146 -0.1128
 4768W        W 8968  10.325   7.463  11.235 -0.1186 -0.0440 -0.1496
 4769W        W 8969   1.954   8.188   0.906  0.0123  0.1609  0.1632
 4770W        W 8970   3.905  10.332   0.742  0.0715  0.0980  0.0574
 4771W        W 8971   6.452   9.986   0.617  0.1810 -0.0241  0.0745
 4772W        W 8972   3.007   8.904   1.327  0.2626 -0.0207 -0.0885
 4773W        W 8973   3.605   7.366   2.049  0.0575 -0.1191  0.1135
 4774W        W 8974   8.970   0.632  10.735 -0.0844 -0.0476  0.3879
 4775W        W 8975   0.500   6.135  11.437  0.1810  0.1486 -0.1877
 4776W        W 8976   4.556   8.066   1.452 -0.3721  0.2341 -0.0766
 4777W        W 8977   2.452   9.418  11.129  0.1530  0.0376 -0.1652
 4778W        W 8978   4.917   4.785  13.212  0.2304  0.1925  0.4342
 4779W        W 8979   1.140   2.077   2.083  0.0210 -0.0622 -0.0430
 4780W        W 8980  10.206   6.089  10.821 -0.1852 -0.0025  0.1906
 4781W        W 8981   0.139   0.036   3.054 -0.1431  0.1107  0.2923
 4782W        W 8982   7.831   9.708  11.212  0.0030 -0.2987  0.0640
 4783W        W 8983   2.449   4.750   2.475 -0.1683  0.0843  0.0088
 4784W        W 8984   6.030   6.693  11.809 -0.2214 -0.4055  0.1875
 4785W        W 8985  10.120   1.066   4.392 -0.0050 -0.0176 -0.1238
 4786W        W 8986   6.944   3.671   1.936  0.2676 -0.0117 -0.1667
 4787W        W 8987   7.819   7.636   2.224 -0.0808  0.2375  0.1820
 4788W        W 8988   4.642  10.211   0.043 -0.1996  0.0484  0.0376
 4789W        W 8989   6.867   1.738  10.804 -0.1975  0.1970 -0.0363
 4790W        W 8990   2.871   1.879   0.969  0.1240 -0.2570  0.1993
 4791W        W 8991   8.626   4.526  12.005  0.2218 -0.1463  0.2268
 4792W        W 8992   5.758   8.701   1.542 -0.1070 -0.2044 -0.0912
 4793W        W 8993   3.353   5.352  12.193 -0.2235 -0.1636 -0.4214
 4794W        W 8994   1.087   3.703  11.927  0.2296  0.0572  0.0052
 4795W        W 8995   6.468   0.650   1.511 -0.0889 -0.0567 -0.1652
 4796W        W 8996   0.189   1.008  10.740  0.1012  0.4725  0.4551
 4797W        W 8997   8.850   5.745   1.462  0.2058 -0.0558  0.0517
 4798W        W 8998   8.609  10.016  10.011  0.2300 -0.0099 -0.2245
 4799W        W 8999   0.872   5.857   0.224  0.1952 -0.0805 -0.2447
 4800W        W 9000   7.360   3.721   8.397 -0.0196 -0.1137 -0.1620
 4801W        W 9001   4.003   4.780   3.377 -0.0498 -0.0544 -0.1635
 4802W        W 9002   5.378   1.956  13.251 -0.0382  0.0121  0.1360
 4803W        W 9003   1.965   2.051   0.352 -0.0569  0.2035 -0.0931
 4804W        W 9004   5.686   8.121  11.439 -0.0439  0.1937  0.2915
 4805W        W 9005   0.128   4.333   4.337  0.2594 -0.2606 -0.0324
 4806W        W 9006   9.205   4.262  10.023  0.0965  0.0955 -0.2560
 4807W        W 9007   9.718  10.306   2.611 -0.0704  0.3651  0.4208
 4808W        W 9008   7.937   4.336   8.903  0.2637  0.0217 -0.0398
 4809W        W 9009   8.067   4.206   9.441 -0.0174  0.2685  0.3090
 4810W        W 9010   2.030   5.016   3.930  0.0386 -0.1036 -0.2589
 4811W        W 9011   6.676   5.050   1.150  0.0518 -0.0020 -0.1968
 4812W        W 9012   3.636   0.773   1.615  0.0328 -0.3930  0.0863
 4813W        W 9013   1.429   5.534   3.372 -0.0171  0.0939 -0.4586
 4814W        W 9014   4.123   0.156   3.826  0.1151  0.1581  0.0438
 4815W        W 9015  10.379   8.319  13.059  0.0415  0.3918  0.3814
 4816W        W 9016   7.072   6.278   3.484  0.0313 -0.1009  0.2395
 4817W        W 9017  10.391   9.792   1.819  0.1915 -0.1283  0.4196
 4818W        W 9018   3.906   3.016   1.359 -0.0619  0.3551  0.0180
 4819W        W 9019   1.752   2.057   3.686  0.1791  0.2918 -0.0339
 4820W        W 9020   7.421  10.363  13.336  0.2454  0.0092 -0.1226
 4821W        W 9021   7.905   7.142  12.011 -0.3962 -0.1346 -0.0677
 4822W        W 9022   8.210   5.628   2.482 -0.3768  0.1763  0.1842
 4823W        W 9023   6.884   6.173  11.603  0.0401  0.0422  0.0826
 4824W        W 9024   3.083   4.785   0.467 -0.0280  0.3297 -0.2263
 4825W        W 9025   2.303   0.824  10.557 -0.4641  0.1413 -0.0525
 4826W        W 9026   6.398   1.396  11.950  0.0599 -0.0302  0.2838
 4827W        W 9027  10.368   7.044  12.084 -0.0060  0.5461 -0.1591
 4828W        W 9028   5.795  10.043  10.961 -0.0790 -0.1197 -0.1330
 4829W        W 9029   0.253   4.534   1.436 -0.2821 -0.0809 -0.1343
 4830W        W 9030   3.013   5.455   9.823  0.1078 -0.1417  0.2857
 4831W        W 9031   4.389   2.940   3.621 -0.0369 -0.0830 -0.0569
 4832W        W 9032   6.022   4.978  12.450  0.1297  0.0472  0.1249
 4833W        W 9033   8.398   8.845  12.644 -0.1690  0.3160 -0.0609
 4834W        W 9034   5.260   6.436   2.780 -0.0666 -0.1971  0.2437
 4835W        W 9035   9.690   7.496   1.662  0.1265 -0.2393 -0.1891
 4836W        W 9036  10.169   1.960   9.931  0.3740 -0.3088 -0.1961
 4837W        W 9037   8.022   5.549   0.635  0.1419  0.3528  0.3293
 4838W        W 9038   9.930   8.388   1.996  0.2997  0.2198  0.4185
 4839W        W 9039   3.210   9.425   4.186 -0.0026 -0.3619 -0.0655
 4840W        W 9040   1.494   1.669  10.624 -0.0941  0.2276  0.0931
 4841W        W 9041   5.170   4.049  11.317  0.0919  0.0567 -0.1589
 4842W        W 9042   6.692   1.231   9.835  0.1857 -0.1241  0.1318
 4843W        W 9043   0.867   2.748  12.122 -0.0040  0.1843  0.0125
 4844W        W 9044   5.340   7.415   1.029  0.1617 -0.3389  0.2165
 4845W        W 9045   7.567   0.158   3.196 -0.2277  0.2983 -0.2153
 4846W        W 9046   3.798   2.769  12.882  0.2599  0.0235 -0.0370
 4847W        W 9047   3.180   8.783   3.201 -0.0949 -0.0716  0.1225
 4848W        W 9048   2.225   0.237   4.411  0.2285  0.0537  0.2338
 4849W        W 9049   7.218   8.425  11.391  0.4672  0.1868  0.0221
 4850W        W 9050   6.458   1.911  11.142  0.0515 -0.1284 -0.1105
 4851W        W 9051   9.860   9.303   2.754  0.0141 -0.0611  0.0863
 4852W        W 9052   8.127   8.648   0.642 -0.0050  0.3014  0.1090
 4853W        W 9053   8.880   3.418   0.984 -0.0331 -0.2897  0.3521
 4854W        W 9054   0.607   7.705  13.325 -0.0274  0.0227 -0.1148
 4855W        W 9055   8.323   3.262   4.425 -0.1381  0.2060 -0.2123
 4856W        W 9056   1.193   8.817   1.207  0.1094 -0.0701  0.0840
 4857W        W 9057   4.341   3.446   3.665  0.0680 -0.1545  0.1555
 4858W        W 9058  10.074   3.080  12.500  0.1290  0.2739  0.2613
 4859W        W 9059   3.181   2.387  11.575  0.0566 -0.0643  0.1253
 4860W        W 9060   2.186   8.655  10.511 -0.1645 -0.0861  0.3149
 4861W        W 9061   2.963   2.463   3.234  0.0229  0.0820  0.3945
 4862W        W 9062   2.836   2.131   0.469  0.2270 -0.0214 -0.0848
 4863W        W 9063   9.385   2.112   9.966 -0.0901 -0.3252  0.1659
 4864W        W 9064   6.816   7.641   1.058  0.2066 -0.0081  0.2076
 4865W        W 9065   8.903   7.458   0.750 -0.0663 -0.1271 -0.0149
 4866W        W 9066   7.458   8.920  13.194 -0.3472 -0.0909  0.0764
 4867W        W 9067   5.197   7.563   0.584 -0.1193 -0.4549 -0.0887
 4868W        W 9068   8.909   9.367   9.336  0.1811 -0.2252  0.1159
 4869W        W 9069   6.547   0.664   9.440 -0.0752  0.0142  0.1648
 4870W        W 9070   2.626   0.138  10.887 -0.3192 -0.0326 -0.1799
 4871W        W 9071   3.229   2.820   2.418 -0.2329  0.2653  0.0028
 4872W        W 9072   9.430   8.316   3.613 -0.0257 -0.0328  0.0074
 4873W        W 9073   4.034   2.828   2.872 -0.0664  0.0702 -0.0662
 4874W        W 9074   8.576   9.348   3.450 -0.1046 -0.0500  0.0151
 4875W        W 9075   3.264   8.181  12.228 -0.2317  0.2089 -0.1659
 4876W        W 9076   3.353   1.092  11.135 -0.0876 -0.1418  0.0759
 4877W        W 9077   1.335   5.979  13.342  0.1162  0.2078  0.3039
 4878W        W 9078   7.591   0.035  12.001  0.0079  0.1745 -0.0245
 4879W        W 9079   9.930   6.017   9.831  0.1587  0.1033 -0.1226
 4880W        W 9080  10.027   6.124  11.957  0.0707 -0.3162  0.0644
 4881W        W 9081   7.528  10.320   9.910 -0.1125  0.1340  0.3688
 4882W        W 9082   3.733   6.727   3.311 -0.0103  0.0118  0.4833
 4883W        W 9083   8.768   3.497  11.056 -0.1439  0.0530 -0.3120
 4884W        W 9084   0.148   0.275   3.740 -0.1549 -0.0677 -0.1368
 4885W        W 9085   1.581   7.620   8.887  0.0651  0.3859 -0.1743
 4886W        W 9086   9.577   4.101  11.638  0.1808 -0.0372 -0.2647
 4887W        W 9087   1.399   8.090   8.857  0.1336 -0.0631  0.0667
 4888W        W 9088   0.178   9.530   3.886  0.0413 -0.0222 -0.0467
 4889W        W 9089   3.797   3.007   4.460  0.0713 -0.1430  0.3826
 4890W        W 9090   5.906   7.621  12.618  0.0416  0.0637 -0.0786
 4891W        W 9091   3.527   3.544   0.895  0.2146  0.0057  0.0230
 4892W        W 9092   2.691   5.759  11.008  0.0637  0.3527 -0.1566
 4893W        W 9093   4.243   9.342  11.235 -0.0635  0.0665  0.0048
 4894W        W 9094   7.541   4.688   9.808 -0.0514 -0.1010  0.1742
 4895W        W 9095   0.656   2.773   2.071 -0.1643 -0.3273  0.2741
 4896W        W 9096   0.926   3.665   2.421  0.0011  0.1483  0.0654
 4897W        W 9097   9.996   5.114   0.776  0.0963  0.0915  0.1697
 4898W        W 9098   0.402   5.289  12.878 -0.3511  0.3204  0.0744
 4899W        W 9099   8.468   7.824   1.812  0.1255 -0.2277  0.0290
 4900W        W 9100   8.455   2.216   9.645 -0.0946 -0.0357  0.1470
 4901W        W 9101   9.965   8.311   2.466 -0.0771 -0.0814  0.1790
 4902W        W 9102   0.915   3.804  10.245  0.1571 -0.0540 -0.1190
 4903W        W 9103   7.421   7.110  10.671 -0.0033  0.2520 -0.1076
 4904W        W 9104   9.776   2.243  11.254  0.1513  0.0510 -0.2472
 4905W        W 9105   9.309   6.189   9.785 -0.0177  0.5890  0.0140
 4906W        W 9106   0.604   9.062   2.065  0.1713 -0.0885  0.1662
 4907W        W 9107   5.767   7.610  13.088 -0.3309 -0.0959 -0.0311
 4908W        W 9108   5.145  10.118   9.690 -0.2136 -0.1006  0.0622
 4909W        W 9109   7.232   2.878  10.918 -0.0988 -0.0690 -0.1893
 4910W        W 9110   2.013   7.157  11.557 -0.1647 -0.2416 -0.0195
 4911W        W 9111   3.702   4.023  12.368  0.0645 -0.3887 -0.3253
 4912W        W 9112   7.592   6.496   3.570  0.2195  0.3650 -0.0195
 4913W        W 9113   1.896   8.054   0.096  0.1348 -0.2685  0.1983
 4914W        W 9114   1.745   1.196   3.820 -0.1900  0.0147  0.3442
 4915W        W 9115   6.984   5.898  10.314 -0.3814  0.3741  0.2049
 4916W        W 9116   3.966   3.755  10.764  0.2100 -0.0789 -0.2422
 4917W        W 9117   9.398   3.077  10.072  0.2000 -0.1289 -0.0344
 4918W        W 9118   5.771   7.295   9.107  0.0641  0.4199 -0.0509
 4919W        W 9119   8.168   3.379   3.934  0.1657  0.0474  0.1817
 4920W        W 9120   7.919   3.659   1.649  0.2556  0.1146 -0.0139
 4921W        W 9121   1.917   7.507  10.918 -0.1419  0.1620  0.1963
 4922W        W 9122   7.879   4.094   0.837 -0.0024 -0.0844  0.2388
 4923W        W 9123   9.466   2.455   4.384  0.1780 -0.0189  0.1037
 4924W        W 9124  10.215   0.194   3.251  0.1039 -0.2034  0.0407
 4925W        W 9125   7.920   8.935   2.234 -0.2681  0.2284  0.3308
 4926W        W 9126   5.419   5.682  11.859 -0.2375 -0.3062  0.1437
 4927W        W 9127   5.858   4.495  11.575 -0.5161 -0.0374 -0.0856
 4928W        W 9128   1.389   9.463   9.161  0.0393 -0.1730 -0.3534
 4929W        W 9129   8.890   1.963  10.854  0.4211 -0.4669 -0.5402
 4930W        W 9130   7.447   8.980   2.453  0.0152 -0.1207 -0.3043
 4931W        W 9131   8.716   3.499   3.724  0.2072 -0.0882  0.1198
 4932W        W 9132   3.941   3.053   1.877  0.2455 -0.2233 -0.0420
 4933W        W 9133   9.240   3.545  12.629 -0.0063  0.3196  0.0574
 4934W        W 9134   4.692   1.294  12.936 -0.0802  0.0589 -0.0401
 4935W        W 9135   8.309   2.803   1.606 -0.0773  0.0762  0.4327
 4936W        W 9136   8.450   4.493  10.217 -0.1000  0.0129 -0.1450
 4937W        W 9137   6.890   0.699   2.465 -0.2460  0.2647 -0.1755
 4938W        W 9138   3.004   8.744   2.715  0.0593 -0.0556  0.0301
 4939W        W 9139   5.104   3.981  12.077  0.1125  0.1324  0.0450
 4940W        W 9140  10.095   8.512  12.341 -0.0490  0.0014  0.1136
 4941W        W 9141   0.336   7.666   0.470 -0.3500  0.4344 -0.3342
 4942W        W 9142   9.488   7.296  12.258  0.1719  0.0464 -0.2628
 4943W        W 9143   7.246   4.673  10.682 -0.0087  0.1680  0.1782
 4944W        W 9144   9.019   1.252   3.904 -0.0144  0.0995  0.2097
 4945W        W 9145   9.929   2.810   9.953 -0.1988 -0.0894  0.0113
 4946W        W 9146   0.241   1.270   1.043  0.1816 -0.0393  0.0603
 4947W        W 9147   1.300   2.702  10.970 -0.1534  0.1963  0.0296
 4948W        W 9148   3.368   3.677   3.865 -0.0020  0.2734 -0.2945
 4949W        W 9149   9.485   0.388   3.947  0.0955 -0.3100  0.3324
 4950W        W 9150   0.308   3.942  12.521 -0.1523 -0.2662  0.0571
 4951W        W 9151   5.664   3.614   2.143  0.0938  0.2212 -0.0714
 4952W        W 9152   4.796   1.147  10.238 -0.0551  0.0981 -0.4567
 4953W        W 9153   6.721   2.908  10.694 -0.0553 -0.0644  0.2182
 4954W        W 9154   7.098   6.659  11.618  0.1590  0.3644 -0.2281
 4955W        W 9155   6.854   0.901  11.230  0.3051  0.3706 -0.4167
 4956W        W 9156   4.155   4.801   2.408 -0.0014 -0.3247  0.3418
 4957W        W 9157   3.197   9.257   0.185 -0.2059 -0.2987 -0.0004
 4958W        W 9158   8.389  10.192   2.644 -0.0414 -0.2400  0.2728
 4959W        W 9159   3.222   7.088  12.836 -0.0908  0.1404 -0.1625
 4960W        W 9160   3.601  10.053  11.523 -0.0870  0.1140 -0.2618
 4961W        W 9161   2.476   5.820  10.564  0.0843 -0.0713  0.1591
 4962W        W 9162   4.962   8.702  13.294  0.0182  0.2942  0.2073
 4963W        W 9163   6.493   3.927   3.386  0.2605 -0.1243 -0.1824
 4964W        W 9164   4.860   0.175   2.181  0.0797 -0.1919  0.2046
 4965W        W 9165   0.987   4.279   1.708 -0.0105 -0.2832 -0.1688
 4966W        W 9166   2.367   0.079   8.859 -0.0511  0.1902  0.0506
 4967W        W 9167   5.555   0.469   1.557 -0.1780  0.1960 -0.0369
 4968W        W 9168   2.351   6.958   3.681 -0.0882  0.2467 -0.1327
 4969W        W 9169   4.720   3.666   9.640 -0.2227  0.0827 -0.2122
 4970W        W 9170   1.960   7.583  11.868 -0.0334 -0.1019 -0.0270
 4971W        W 9171   8.601   5.528   0.481  0.1531  0.0386  0.0326
 4972W        W 9172  10.233   9.734   0.046  0.1247  0.2373  0.1347
 4973W        W 9173   6.721   1.958   1.773  0.2538  0.2578  0.1674
 4974W        W 9174   8.969   9.999   1.917  0.1712  0.1214 -0.4314
 4975W        W 9175   5.692   4.652  10.701 -0.0610 -0.0865 -0.2020
 4976W        W 9176   3.259   5.824  12.573 -0.2898  0.0365 -0.0725
 4977W        W 9177   0.320   0.836   4.571 -0.0916  0.0997  0.0914
 4978W        W 9178   6.731   9.607   0.804  0.1634 -0.1478  0.0279
 4979W        W 9179   0.740   5.035   2.437  0.0423  0.0872  0.0201
 4980W        W 9180   0.287   9.678  12.129 -0.1722  0.3258  0.0406
 4981W        W 9181   3.543   1.349   1.566  0.0632  0.1177  0.0610
 4982W        W 9182   2.670   7.421   1.348 -0.0892  0.0598 -0.1984
 4983W        W 9183   1.147   8.630   2.763  0.0765  0.1093 -0.3925
 4984W        W 9184   3.886   0.701   9.087 -0.0356 -0.0387  0.0597
 4985W        W 9185   1.378   7.904   1.615  0.1475 -0.0147 -0.2399
 4986W        W 9186   7.910   7.580   3.113 -0.2865  0.0155 -0.0624
 4987W        W 9187   3.132   2.459  10.284 -0.1348  0.1048 -0.1071
 4988W        W 9188   4.975   6.094   8.864  0.0665 -0.2281  0.0294
 4989W        W 9189   3.581   8.110   9.201  0.1689 -0.1640  0.0241
 4990W        W 9190   0.520   3.602   3.894 -0.1857  0.1855  0.2321
 4991W        W 9191   9.224   8.232  13.437 -0.0680 -0.0240 -0.1390
 4992W        W 9192   8.750   1.161   4.284 -0.1138 -0.0018  0.1253
 4993W        W 9193   5.550   2.378   1.013 -0.2025 -0.1565  0.2443
 4994W        W 9194   1.718   9.520  12.236 -0.1027  0.2133  0.1009
 4995W        W 9195   5.038   9.236   2.549  0.0651 -0.1595 -0.0389
 4996W        W 9196   9.793   6.481   4.321 -0.0133  0.0791  0.4698
 4997W        W 9197   2.290   8.466  12.109  0.0815 -0.0757 -0.2737
 4998W        W 9198   3.962  10.243  10.533 -0.0008 -0.1949  0.4729
 4999W        W 9199   6.668   8.143   1.732 -0.2941  0.2007 -0.0325
 5000W        W 9200   9.785   0.610  13.353  0.1384 -0.1869  0.0057
 5001W        W 9201   5.203   7.089   3.452 -0.1492 -0.0156 -0.0602
 5002W        W 9202   9.352   7.445  10.089 -0.2323  0.1705  0.0513
 5003W        W 9203   9.070   4.968  12.642 -0.0220 -0.1296 -0.0346
 5004W        W 9204   5.822   5.505   1.173  0.1017  0.0718  0.1624
 5005W        W 9205   9.298   4.058   0.623 -0.0215 -0.2249 -0.1865
 5006W        W 9206   4.380   4.620   3.894  0.1844  0.0757  0.0840
 5007W        W 9207   6.690   2.660  11.779  0.1429 -0.0220 -0.0505
 5008W        W 9208   9.399   2.662   0.101  0.2838  0.1153  0.2934
 5009W        W 9209   0.958   0.803   2.755  0.0934 -0.1875 -0.1406
 5010W        W 9210   0.161   4.922   8.433  0.0781  0.1540  0.2458
 5011W        W 9211   8.504  10.272   1.224 -0.2299 -0.3508 -0.0409
 5012W        W 9212   4.920   0.163   0.897 -0.0531  0.2003  0.1966
 5013W        W 9213   9.955   1.222  10.014  0.1173  0.0211 -0.0295
 5014W        W 9214   8.188   3.257  10.410 -0.1231 -0.1610  0.2250
 5015W        W 9215   1.110   9.921   1.119  0.0146  0.2198  0.1109
 5016W        W 9216   3.034   8.160   1.853 -0.0457 -0.0299  0.1370
 5017W        W 9217   6.917   8.005  11.503  0.1118 -0.0594  0.1103
 5018W        W 9218   5.005   8.635  10.395 -0.0430  0.0123 -0.2020
 5019W        W 9219   8.769   4.143   9.811 -0.0101  0.3376 -0.1475
 5020W        W 9220  10.192   2.304   8.749 -0.1390 -0.2403 -0.2078
 5021W        W 9221   2.587   0.764   1.819  0.1771  0.0442 -0.1173
 5022W        W 9222   1.752   2.092  11.807 -0.2321 -0.0271  0.0513
 5023W        W 9223   6.924   8.737   3.204 -0.0724  0.0449 -0.1035
 5024W        W 9224   2.388   1.130   9.745  0.1218 -0.1856  0.2696
 5025W        W 9225   6.394   7.752  10.436  0.0482  0.2168  0.1004
 5026W        W 9226   0.323   4.832  12.096  0.1037 -0.2515  0.2963
 5027W        W 9227   4.669   9.278   2.881 -0.0657  0.1503 -0.0312
 5028W        W 9228   5.886   7.890   1.390 -0.0435  0.2219 -0.2768
 5029W        W 9229   1.875   4.510  10.629  0.0096  0.0125 -0.6394
 5030W        W 9230   2.355   9.110  10.711 -0.0952  0.1259  0.1147
 5031W        W 9231   5.917   4.594   3.098 -0.3170 -0.4107 -0.0820
 5032W        W 9232   0.427   5.533   1.363  0.0786 -0.0142 -0.0192
 5033W        W 9233   6.833   5.284  12.247 -0.2070  0.0659  0.0855
 5034W        W 9234  10.233   2.691  12.007  0.2297 -0.0512  0.1378
 5035W        W 9235   8.496   1.333   0.724  0.3528  0.2922  0.1375
 5036W        W 9236   8.017   0.082  13.038  0.1110 -0.0439 -0.2410
 5037W        W 9237   7.150   6.671  11.130 -0.0927 -0.0003 -0.0888
 5038W        W 9238   1.341   0.761  13.332 -0.3600 -0.2945 -0.0087
 5039W        W 9239   7.737   1.661   1.687 -0.1483  0.1860 -0.0712
 5040W        W 9240   2.442   6.209  11.013  0.4705  0.2367 -0.1715
 5041W        W 9241   8.130   4.562   0.633  0.2880  0.0662  0.0603
 5042W        W 9242   2.379   8.137   3.091  0.1144 -0.4151  0.0070
 5043W        W 9243   6.609   2.177   0.167 -0.0102 -0.0555  0.2283
 5044W        W 9244   5.834   2.688   3.882 -0.1685  0.2513  0.3992
 5045W        W 9245   1.194   4.961   0.939 -0.2237  0.1805 -0.1705
 5046W        W 9246   8.760   7.632   2.149 -0.2073  0.1860 -0.0893
 5047W        W 9247   9.377   5.848   1.295 -0.4748 -0.1139 -0.0338
 5048W        W 9248  10.398   8.755  13.323 -0.0368  0.1925 -0.0736
 5049W        W 9249   0.119   2.934   1.515 -0.2242 -0.1902  0.3477
 5050W        W 9250   5.911   1.058  10.831 -0.3927  0.0282 -0.3300
 5051W        W 9251   1.841   6.079   1.377  0.0809  0.2063  0.0761
 5052W        W 9252   7.057   5.974   3.073  0.0520 -0.2261 -0.0428
 5053W        W 9253   3.745  10.020   1.681  0.2914  0.2624 -0.2611
 5054W        W 9254   9.119   5.935   4.097  0.3773  0.1434 -0.0140
 5055W        W 9255   5.398   2.865   9.403 -0.3065  0.0136 -0.0303
 5056W        W 9256   8.546   3.971   9.348  0.2603 -0.0487  0.0514
 5057W        W 9257   6.901   3.143   5.014 -0.1678  0.1961 -0.0649
 5058W        W 9258  10.401   9.857  12.553 -0.1092 -0.0082 -0.1044
 5059W        W 9259   8.271   4.100  10.441  0.0511  0.3617 -0.1365
 5060W        W 9260   1.699   5.369   2.588  0.0830  0.0033  0.2557
 5061W        W 9261   8.749   6.910   9.171 -0.0349 -0.0266 -0.2237
 5062W        W 9262   1.080   5.755  11.009 -0.3177 -0.0438  0.3310
 5063W        W 9263   2.435   3.572  12.286  0.0006 -0.3315  0.2935
 5064W        W 9264   6.185   0.827   1.919 -0.2242 -0.3037 -0.1571
 5065W        W 9265   7.198   1.790  11.232 -0.1037 -0.0450  0.0528
 5066W        W 9266  10.187   9.089  13.027 -0.1024 -0.0757  0.2131
 5067W        W 9267   3.304   4.080  12.904  0.2379  0.0123  0.0045
 5068W        W 9268   0.550   9.656   0.266  0.0253  0.2182 -0.0354
 5069W        W 9269   4.040  10.404   0.171 -0.3523 -0.1819  0.2537
 5070W        W 9270   4.642   1.776   1.746  0.1523  0.1471  0.0617
 5071W        W 9271   2.846   5.759   0.637 -0.3238 -0.2240  0.0541
 5072W        W 9272   5.746   6.990   2.295 -0.0014  0.0338 -0.1004
 5073W        W 9273   2.318   2.242  10.731 -0.3041  0.1777 -0.1514
 5074W        W 9274   2.173   9.710  11.951 -0.0822 -0.0843  0.1610
 5075W        W 9275   8.931   4.955   9.214  0.2675  0.1265  0.2703
 5076W        W 9276   8.349   3.538   8.623 -0.2937  0.3002  0.1803
 5077W        W 9277   4.620   1.624  10.348 -0.2112 -0.0368  0.1867
 5078W        W 9278   9.004   9.067   0.818  0.0821 -0.0127  0.1576
 5079W        W 9279   0.951   3.099  12.506  0.1405  0.1008  0.0208
 5080W        W 9280   8.586   1.587   2.031 -0.1211  0.2210  0.0347
 5081W        W 9281   3.983   2.716   3.386 -0.1168 -0.2614  0.1134
 5082W        W 9282   6.120   2.603  12.882 -0.1537 -0.2116  0.1080
 5083W        W 9283   9.375   9.227   2.361 -0.1589  0.3339 -0.2196
 5084W        W 9284  10.334   6.464  11.178  0.0101 -0.0172 -0.1784
 5085W        W 9285   9.198   6.944   5.533 -0.3047  0.1591 -0.3471
 5086W        W 9286   1.393   2.712   9.739 -0.0985  0.0848 -0.3602
 5087W        W 9287  10.130   0.610  11.389  0.1042 -0.0443 -0.0320
 5088W        W 9288   0.092   6.084   3.768  0.1721  0.0095  0.1415
 5089W        W 9289  10.155   7.658   0.352  0.1436  0.2348  0.0282
 5090W        W 9290   0.090   2.576   0.228  0.0228  0.0507  0.1520
 5091W        W 9291   4.160   5.668   0.724  0.1865  0.1002 -0.0551
 5092W        W 9292   3.713   3.593   2.887 -0.0679  0.0007 -0.2100
 5093W        W 9293   1.526   7.320   3.318  0.1687 -0.0435 -0.0456
 5094W        W 9294   1.423   2.420   3.379  0.0156  0.1892 -0.0965
 5095W        W 9295   9.003   9.489   5.295 -0.1566 -0.2931 -0.5003
 5096W        W 9296   0.883   9.775  10.558 -0.4236 -0.0374 -0.3094
 5097W        W 9297   0.302   4.423   3.883  0.0918  0.2404 -0.2523
 5098W        W 9298   3.921   7.334   0.604 -0.1555 -0.2435  0.0002
 5099W        W 9299   7.643   3.751  11.609 -0.2022  0.2626  0.0429
 5100W        W 9300   8.972   1.129   9.229 -0.1304  0.0320 -0.3800
 5101W        W 9301   4.730   4.035   2.001  0.0759  0.0072 -0.2780
 5102W        W 9302   2.857   3.902   4.250  0.0147 -0.0574 -0.0001
 5103W        W 9303  10.400   1.065   3.378 -0.1541  0.0193 -0.1591
 5104W        W 9304   0.534   9.975   1.161  0.0499 -0.1272 -0.0487
 5105W        W 9305   1.133   8.545   4.256 -0.1183  0.2294  0.0140
 5106W        W 9306   3.665   0.694   4.319 -0.0275  0.1127 -0.0273
 5107W        W 9307   4.967   8.129  10.569  0.1833 -0.0058 -0.1770
 5108W        W 9308   3.628   2.558   2.133 -0.0635  0.2500 -0.1874
 5109W        W 9309   1.537   1.140  12.728 -0.0958  0.1789 -0.2470
 5110W        W 9310   2.664   1.034   0.595 -0.1161 -0.1090 -0.1950
 5111W        W 9311   0.669   0.715   1.571 -0.2881  0.1037  0.0049
 5112W        W 9312   6.869   5.486  12.793  0.0101  0.3174  0.0358
 5113W        W 9313   9.823   6.745  12.826 -0.0651 -0.0308  0.1088
 5114W        W 9314   5.361   7.449   2.849  0.1386  0.1598 -0.1471
 5115W        W 9315   8.002   3.987   4.904  0.1598 -0.1226  0.0335
 5116W        W 9316   9.390   6.182  11.204  0.0668 -0.2932 -0.1992
 5117W        W 9317   8.807   2.214  11.302  0.1575 -0.1130  0.0886
 5118W        W 9318   8.050   3.448   2.547  0.1811 -0.1678  0.1022
 5119W        W 9319   0.679   6.919   0.074  0.2033  0.3266 -0.0289
 5120W        W 9320   8.593   2.623  11.566 -0.1581 -0.0345 -0.1267
 5121W        W 9321   8.506   3.137   1.903 -0.1993  0.2173 -0.1798
 5122W        W 9322   6.377   6.051   2.329 -0.1435 -0.2454  0.4775
 5123W        W 9323   1.345   8.084   3.471  0.1895 -0.0621 -0.0956
 5124W        W 9324   6.916   9.903  11.607  0.0270  0.1034 -0.2952
 5125W        W 9325   9.089   3.456  12.186  0.2622 -0.3583  0.1449
 5126W        W 9326   4.851   4.799   3.552 -0.3488 -0.1841  0.1629
 5127W        W 9327   5.104   0.589   1.259 -0.0223  0.0468  0.3247
 5128W        W 9328   8.244   7.328  13.420 -0.1309 -0.0936 -0.0831
 5129W        W 9329   7.447   6.183   1.327  0.3612  0.0887  0.0147
 5130W        W 9330   7.747   1.681  10.517 -0.0987  0.1188  0.2414
 5131W        W 9331   0.724   8.212   9.000 -0.0262 -0.2183 -0.1326
 5132W        W 9332   1.749   7.156   3.818 -0.0089  0.0488  0.0461
 5133W        W 9333   8.552   6.427   9.315 -0.0349  0.1135 -0.0502
 5134W        W 9334   9.443   0.874  11.221  0.1610 -0.2251  0.0221
 5135W        W 9335   0.725   4.029   8.542  0.1317 -0.1585 -0.0195
 5136W        W 9336   6.106   5.693  12.056  0.0540  0.3446  0.2306
 5137W        W 9337  10.199  10.132   0.400  0.0027 -0.2469 -0.3824
 5138W        W 9338   7.131   8.847   0.635  0.2176 -0.2266 -0.4154
 5139W        W 9339   0.180   4.425   0.491 -0.4143 -0.0032 -0.0634
 5140W        W 9340   5.851   3.750   0.765 -0.0688  0.2022 -0.0097
 5141W        W 9341   5.118   5.624   9.151  0.2436  0.1383 -0.1228
 5142W        W 9342   0.386   4.698  11.580 -0.1175 -0.0249  0.0372
 5143W        W 9343   4.658   4.098  13.365 -0.2121 -0.1954 -0.1811
 5144W        W 9344   5.101   4.444   0.816  0.2047  0.0585 -0.0573
 5145W        W 9345   1.007   1.020   1.423 -0.0405  0.0122 -0.4927
 5146W        W 9346   5.811   2.188  11.824 -0.3043 -0.1152  0.0265
 5147W        W 9347   0.184   6.921  12.559  0.0014 -0.0311  0.0541
 5148W        W 9348   1.467   1.516  13.047 -0.1650  0.0108  0.1959
 5149W        W 9349   0.391   9.427   8.539  0.1225  0.1889 -0.1005
 5150W        W 9350   2.766   2.220   2.727 -0.1147  0.1840  0.2609
 5151W        W 9351   6.657   6.038   8.935 -0.2692 -0.1601 -0.1022
 5152W        W 9352   0.411   2.074   0.911 -0.1742 -0.1383  0.0684
 5153W        W 9353   9.820   0.129   4.333  0.1141 -0.0458 -0.2344
 5154W        W 9354   6.593   7.146   1.028 -0.2380  0.1404  0.3012
 5155W        W 9355   6.627   4.594   9.817  0.0139  0.1267  0.2117
 5156W        W 9356   9.526   3.718  12.244  0.0770  0.0359  0.0327
 5157W        W 9357   4.322   8.539  11.040 -0.1841 -0.0478  0.2248
 5158W        W 9358   5.166   1.324   3.830 -0.0895  0.0841  0.0480
 5159W        W 9359   5.024   5.951   0.426  0.1687  0.1679  0.0327
 5160W        W 9360   9.146   3.604   0.547  0.0088  0.0809 -0.2763
 5161W        W 9361   2.879   1.094   2.108 -0.0301 -0.1132  0.1446
 5162W        W 9362   9.030   2.614  11.826 -0.0790 -0.0400  0.1116
 5163W        W 9363   1.084   7.977   4.343  0.1211 -0.0899 -0.3474
 5164W        W 9364   5.575   3.187  12.121 -0.1122 -0.1018 -0.1431
 5165W        W 9365   2.399   2.314   3.017  0.3849  0.2051  0.0654
 5166W        W 9366   0.922   4.133  13.430  0.1492  0.3333  0.0457
 5167W        W 9367   4.847   6.864  10.079 -0.1697 -0.0917 -0.1159
 5168W        W 9368   1.739   7.006  10.782 -0.0941  0.0374  0.0743
 5169W        W 9369   4.937   3.153   1.000 -0.0214  0.0357  0.0817
 5170W        W 9370   4.515   6.022  12.570 -0.0382  0.6509  0.1787
 5171W        W 9371   8.752   1.600   1.254 -0.1517  0.0027 -0.2205
 5172W        W 9372   7.957   4.816  11.065 -0.2460  0.2414  0.0355
 5173W        W 9373   3.671   6.203   3.809  0.3833  0.1353 -0.1091
 5174W        W 9374   1.264   6.892  10.628 -0.2182 -0.0415  0.3103
 5175W        W 9375   1.282   4.747   3.009 -0.0996 -0.0970 -0.0793
 5176W        W 9376   2.304   1.184  12.800 -0.1271  0.1146  0.2369
 5177W        W 9377   2.664   3.530   2.334 -0.0293  0.0475  0.3431
 5178W        W 9378   1.518   3.361   1.591 -0.0844 -0.0913 -0.3050
 5179W        W 9379   1.405   4.087  10.900  0.2481 -0.0422  0.0742
 5180W        W 9380   6.136   4.671   1.350  0.0073 -0.1527  0.1419
 5181W        W 9381   5.058   2.990  11.887 -0.3269  0.0323 -0.1326
 5182W        W 9382   6.790   6.063   9.447 -0.1822  0.2244  0.1395
 5183W        W 9383   8.678   5.299  11.304  0.2519 -0.0740 -0.0434
 5184W        W 9384   5.404   1.009   4.193 -0.1183  0.2798  0.0296
 5185W        W 9385   1.876   4.357  13.146  0.1893  0.1409  0.4089
 5186W        W 9386   8.709   2.682   9.792 -0.3577 -0.0273  0.3684
 5187W        W 9387   9.631   3.079   3.220  0.0750  0.1011  0.1023
 5188W        W 9388   8.746   4.187  11.678 -0.1073  0.1602 -0.2349
 5189W        W 9389   0.135   4.729   8.890 -0.5316  0.1832  0.2822
 5190W        W 9390   7.354   1.396   0.797  0.0424  0.2233  0.0687
 5191W        W 9391   0.411   0.571   2.830  0.2045 -0.0628 -0.1742
 5192W        W 9392   9.790   0.400   3.495 -0.1574  0.0713 -0.1589
 5193W        W 9393   3.168   7.337   9.324  0.0410  0.0280  0.2186
 5194W        W 9394   3.799   1.179   3.940  0.1316  0.0730  0.2783
 5195W        W 9395   5.975   1.332   1.862 -0.0567 -0.1775 -0.0384
 5196W        W 9396  10.282   1.539   3.684 -0.1627 -0.2579  0.0821
 5197W        W 9397   8.775   9.676   3.192  0.1620  0.0159  0.0219
 5198W        W 9398   3.350   3.031   0.993 -0.4016 -0.2428  0.1653
 5199W        W 9399   7.321   3.175   4.200 -0.3064 -0.3258  0.0290
 5200W        W 9400   5.297   2.865   2.161 -0.0429  0.2162  0.3469
 5201W        W 9401   8.013   7.688  12.048 -0.0872  0.0577 -0.0514
 5202W        W 9402   3.138   6.848  11.806  0.0939  0.3600 -0.2038
 5203W        W 9403   0.201   1.584   9.721  0.1171 -0.1950  0.0126
 5204W        W 9404  10.181   9.156   0.245  0.0177  0.1391 -0.1465
 5205W        W 9405   8.748   1.120   3.499 -0.0204  0.0447  0.0964
 5206W        W 9406   9.591   5.917  11.672  0.1327  0.0836 -0.1116
 5207W        W 9407   5.428   8.463  13.096 -0.1650  0.2763 -0.0323
 5208W        W 9408   3.819   4.110   2.726  0.2654  0.0400  0.2306
 5209W        W 9409  10.107   4.702   1.381  0.5287  0.2297  0.2650
 5210W        W 9410   8.339   4.712   9.791 -0.1501  0.3063 -0.1348
 5211W        W 9411   1.833   0.845  13.011  0.1525  0.0144 -0.2573
 5212W        W 9412   3.777   2.516  13.365  0.0040  0.2143  0.0635
 5213W        W 9413   1.895   4.830   3.388  0.0786 -0.1359  0.1435
 5214W        W 9414   0.921   1.113  10.914  0.1227  0.2456  0.2311
 5215W        W 9415   7.953   2.898  11.825  0.2043  0.1290  0.0191
 5216W        W 9416   1.453   4.799   4.585 -0.1541 -0.2434  0.0983
 5217W        W 9417  10.220   9.240   5.400  0.0798  0.1488  0.0961
 5218W        W 9418   1.997   6.854  12.880  0.0523  0.1941 -0.2591
 5219W        W 9419   7.372   7.491  12.409  0.0542  0.1650  0.3038
 5220W        W 9420   9.223   3.264  13.081 -0.1484 -0.1847  0.0310
 5221W        W 9421   0.336   8.969  13.086  0.1588  0.0907  0.0688
 5222W        W 9422   5.625   6.063  10.045  0.0115 -0.2944 -0.0633
 5223W        W 9423   0.883   4.568  11.419 -0.0081 -0.3242 -0.0167
 5224W        W 9424   0.018   1.366   1.541 -0.1117 -0.2627  0.1286
 5225W        W 9425   6.779   5.328   4.562 -0.1116  0.3984  0.2343
 5226W        W 9426   1.857   8.946  12.824 -0.0032 -0.0340 -0.0279
 5227W        W 9427   2.576   7.170   1.991 -0.0709  0.0724  0.3982
 5228W        W 9428   5.571   4.191   0.656 -0.1267 -0.0369  0.1061
 5229W        W 9429   7.849   7.598  11.577  0.2142 -0.0843  0.0582
 5230W        W 9430   6.104   5.304   3.810  0.4038 -0.0629  0.0886
 5231W        W 9431   7.261  10.301  12.303  0.0861  0.0848  0.0636
 5232W        W 9432   9.149   5.051  10.265  0.0659 -0.0794  0.1421
 5233W        W 9433   0.162   7.170  11.683  0.1453  0.0263  0.0538
 5234W        W 9434   3.251   0.608   9.970 -0.0990  0.1779  0.0367
 5235W        W 9435   3.299   1.699  12.247 -0.0556  0.0260  0.2100
 5236W        W 9436   2.046   6.830   9.377 -0.0359  0.0293 -0.0993
 5237W        W 9437   7.088   9.037  12.777 -0.0200 -0.2758 -0.0795
 5238W        W 9438   8.657   1.386  10.185  0.0488  0.1498  0.1207
 5239W        W 9439   6.743  10.128   1.002  0.4514 -0.1737  0.1919
 5240W        W 9440   2.370   8.088   4.030  0.2220 -0.1165  0.0628
 5241W        W 9441   5.954   8.143   2.187  0.1554  0.2856 -0.3550
 5242W        W 9442   5.637   4.065  13.129  0.1235  0.0725  0.3038
 5243W        W 9443   6.641   5.920   2.728  0.0113 -0.2151  0.3911
 5244W        W 9444   3.624   6.211  12.729  0.0990 -0.0455  0.1734
 5245W        W 9445   1.783   0.780   5.136  0.0038 -0.2385 -0.2885
 5246W        W 9446   5.325   2.704   3.278  0.0135 -0.0747 -0.0354
 5247W        W 9447   3.733   1.922   9.964  0.1842 -0.2243 -0.0496
 5248W        W 9448   4.073   9.137   0.469  0.3630  0.1786  0.0551
 5249W        W 9449   8.782   4.109  13.227  0.1027  0.3479  0.0837
 5250W        W 9450   7.335   4.404   2.947  0.0573  0.3667  0.3986
 5251W        W 9451   4.360   6.446   3.994 -0.0344 -0.1728  0.0800
 5252W        W 9452   5.041   3.771  12.569 -0.0940  0.0018  0.1836
 5253W        W 9453   5.471   5.275  12.660  0.0495  0.3185 -0.1823
 5254W        W 9454   1.211   5.117   2.223 -0.0937 -0.0423  0.0565
 5255W        W 9455   7.667   9.056   1.340 -0.0756 -0.1457  0.1204
 5256W        W 9456   4.892   4.007   4.070  0.0018  0.0451 -0.0274
 5257W        W 9457   7.580   6.217  11.216 -0.0256 -0.1873  0.0984
 5258W        W 9458   8.447  10.007   0.395  0.2035  0.1251 -0.2529
 5259W        W 9459   0.137   5.263   3.037 -0.2726 -0.0944 -0.2264
 5260W        W 9460   2.166   6.952  11.991 -0.1045 -0.2754 -0.2560
 5261W        W 9461   9.753   6.364   9.465 -0.0225 -0.0071  0.2753
 5262W        W 9462   5.578   4.277   0.159 -0.6154 -0.2822 -0.0285
 5263W        W 9463   1.642   0.773  11.745 -0.2284 -0.1886 -0.0833
 5264W        W 9464   7.640   6.395   9.613  0.0465 -0.0707  0.1660
 5265W        W 9465   4.948   5.855   3.438  0.0396  0.1163  0.1066
 5266W        W 9466   0.896  10.252   0.724 -0.2065  0.2220 -0.1259
 5267W        W 9467   3.010   4.223   8.611 -0.0749 -0.0515  0.0550
 5268W        W 9468   4.808   7.843   0.610  0.4067  0.0084  0.2844
 5269W        W 9469   5.169   4.292   3.565 -0.3006 -0.2356 -0.1622
 5270W        W 9470   9.664   7.104  13.135  0.3054  0.0120 -0.1307
 5271W        W 9471   5.910   6.129   2.349 -0.2012 -0.1194 -0.1784
 5272W        W 9472   4.052   2.901   9.256 -0.0327 -0.1553 -0.1689
 5273W        W 9473   0.045   4.887  11.070 -0.2223  0.1806  0.0065
 5274W        W 9474   7.985   6.463  10.885  0.3142  0.4340  0.1027
 5275W        W 9475   1.870   9.300   8.910 -0.3981 -0.4456  0.0404
 5276W        W 9476   7.113   3.867  11.823  0.2440 -0.0419  0.2239
 5277W        W 9477   9.896   4.142   9.166  0.0673 -0.3498  0.2056
 5278W        W 9478   0.681   3.460   2.896 -0.1307  0.1236 -0.2235
 5279W        W 9479   6.757   6.485   0.516 -0.0076  0.2238 -0.2584
 5280W        W 9480   5.974   5.836   9.695  0.0359  0.3111 -0.0701
 5281W        W 9481   9.070   7.113   2.841 -0.1666 -0.1665 -0.1255
 5282W        W 9482   6.158   7.921   9.839 -0.0185  0.1720 -0.2639
 5283W        W 9483   6.602  10.181  11.395 -0.0922 -0.0071 -0.3247
 5284W        W 9484   6.270   4.780   2.290 -0.0309  0.1792  0.1349
 5285W        W 9485   2.951   2.678   5.313 -0.3095 -0.3282  0.2213
 5286W        W 9486   9.239   0.836   1.778  0.1177  0.2198  0.1024
 5287W        W 9487   0.362   8.934   8.583  0.1548  0.2503  0.2911
 5288W        W 9488   2.982   3.272   3.758 -0.2730 -0.1542 -0.2464
 5289W        W 9489   7.928   3.163  10.895 -0.1860 -0.0193  0.1321
 5290W        W 9490   1.235   3.183   4.324  0.0750  0.4341  0.1324
 5291W        W 9491   1.436   4.986   4.109  0.1617  0.2021 -0.0352
 5292W        W 9492   7.018   3.056  11.832  0.0496  0.1330 -0.0225
 5293W        W 9493   3.562   4.491  11.404 -0.1482  0.1304 -0.0359
 5294W        W 9494   8.231   4.247   1.190 -0.2800  0.0672  0.1146
 5295W        W 9495   9.746   9.397   1.742 -0.0880  0.2306 -0.0153
 5296W        W 9496   7.747   8.892  10.259  0.1918 -0.1232  0.1256
 5297W        W 9497   7.325   0.395   3.675 -0.0978 -0.1848 -0.0033
 5298W        W 9498   9.544   2.633   2.989  0.0372 -0.3916  0.3034
 5299W        W 9499   4.860   0.141  10.310 -0.1561 -0.2857  0.0166
 5300W        W 9500   4.531   9.487   1.475  0.0866  0.2032 -0.1570
 5301W        W 9501   8.764   2.388   1.772 -0.0597  0.0049 -0.1630
 5302W        W 9502   0.613  10.250   4.258 -0.0154  0.0219 -0.0071
 5303W        W 9503   0.174   0.503   3.300  0.0594 -0.0644 -0.1009
 5304W        W 9504   3.952   6.864   9.637 -0.0188 -0.0448  0.0247
 5305W        W 9505   6.791   1.622  11.488  0.0167  0.0075 -0.1102
 5306W        W 9506   8.743   7.288   3.758 -0.2089  0.0825 -0.1287
 5307W        W 9507   0.666   7.180  11.574  0.1626  0.0984  0.3777
 5308W        W 9508   4.535   6.134   3.677 -0.0340 -0.4157  0.2312
 5309W        W 9509   0.704   5.152   0.845 -0.1414 -0.0671  0.1034
 5310W        W 9510   5.232   1.430   8.720  0.1371  0.2263 -0.0837
 5311W        W 9511   5.288   4.112   9.467  0.0522  0.0073  0.3021
 5312W        W 9512   2.862   0.739  11.395 -0.1936  0.1928 -0.2261
 5313W        W 9513   9.755   4.345   1.714 -0.2142 -0.6324  0.1090
 5314W        W 9514   9.803   2.363   2.459  0.4251  0.0653 -0.1153
 5315W        W 9515   9.502   9.028   0.811 -0.1652 -0.2030  0.0680
 5316W        W 9516   0.415   9.927  13.091 -0.0841  0.2450 -0.0009
 5317W        W 9517   1.012   2.155   0.041  0.0121  0.0482 -0.1949
 5318W        W 9518   0.269   0.351  10.777  0.3117  0.0961  0.1972
 5319W        W 9519   3.918   0.286   9.835  0.0767  0.0650 -0.0351
 5320W        W 9520   0.174   2.147   9.763  0.0925  0.3832  0.1721
 5321W        W 9521   2.895   2.939   0.172 -0.0169 -0.0444 -0.0404
 5322W        W 9522   1.559   9.373   1.880 -0.0404 -0.3462 -0.0747
 5323W        W 9523   1.883   4.807  12.860  0.1548 -0.0753  0.0768
 5324W        W 9524   4.081   3.592   0.875  0.1557 -0.1558 -0.2190
 5325W        W 9525   1.070   1.147  10.067  0.0017  0.3074  0.3302
 5326W        W 9526   9.642   1.397  13.166  0.0988  0.2306  0.1120
 5327W        W 9527   4.198   5.516  12.624 -0.1328  0.1445 -0.0704
 5328W        W 9528   5.894   3.438   0.378  0.1617 -0.0900  0.2958
 5329W        W 9529   7.578   8.038  11.696  0.1323 -0.0631 -0.0451
 5330W        W 9530   9.966   2.885  10.965  0.0884  0.2069  0.0523
 5331W        W 9531   7.364   7.983  10.428  0.3255 -0.3065 -0.3427
 5332W        W 9532   8.546   7.779   3.202 -0.1063  0.3411  0.3324
 5333W        W 9533  10.026   2.324   2.915 -0.3377  0.2418 -0.0754
 5334W        W 9534   2.704   7.047  12.115 -0.1836  0.1685  0.1012
 5335W        W 9535   6.958   1.582   1.563 -0.1111  0.1052  0.1069
 5336W        W 9536   6.558   6.015  11.174 -0.1669  0.0556  0.1274
 5337W        W 9537   9.433   6.621   0.709 -0.3371 -0.2302  0.0313
 5338W        W 9538   0.797   4.624   2.866 -0.0782 -0.0823  0.0147
 5339W        W 9539   2.712  10.228  11.400  0.1584  0.0477  0.0188
 5340W        W 9540   4.413   8.358  11.837 -0.4244  0.2926  0.1683
 5341W        W 9541   1.876   9.028  10.931  0.1246 -0.2338 -0.1965
 5342W        W 9542   9.321   1.048  12.948 -0.3454 -0.1674  0.1560
 5343W        W 9543  10.396   2.973   2.879  0.0561 -0.2553  0.2788
 5344W        W 9544   1.375   7.246   1.989 -0.0132  0.0189  0.0222
 5345W        W 9545   9.338   7.782  12.337 -0.0120 -0.1028 -0.0563
 5346W        W 9546   2.388   6.914  12.567 -0.1228 -0.1611  0.0712
 5347W        W 9547   7.826   0.417   2.118  0.0166 -0.0585 -0.0292
 5348W        W 9548   8.656   1.638   3.606  0.0298  0.3261  0.1537
 5349W        W 9549  10.406   2.171   0.883 -0.0467 -0.4113 -0.0090
 5350W        W 9550   3.318   6.811   0.698  0.0804  0.0350  0.1697
 5351W        W 9551   1.475   6.517   0.053  0.1600  0.2379 -0.0882
 5352W        W 9552  10.355   1.399   0.244  0.3229  0.2369  0.3162
 5353W        W 9553   1.554   4.795   0.690  0.0750  0.1578  0.3322
 5354W        W 9554   3.170   1.826   2.635  0.1895  0.1056  0.1194
 5355W        W 9555   2.098   6.747   8.690 -0.0036  0.1896  0.3677
 5356W        W 9556   3.883   4.794  10.067 -0.0851  0.0582  0.0130
 5357W        W 9557   0.576   6.206   3.610 -0.0789 -0.0668  0.2159
 5358W        W 9558   0.729   3.184   2.373  0.1919 -0.1773  0.1776
 5359W        W 9559   7.635   3.126   9.116 -0.0845  0.1447  0.2112
 5360W        W 9560   5.531   1.019  12.475 -0.2574  0.0132 -0.1582
 5361W        W 9561   3.999   4.910   3.870  0.3328 -0.4927 -0.1920
 5362W        W 9562   6.999   2.287  10.959  0.0877 -0.2317  0.2830
 5363W        W 9563   8.909   4.682  11.540 -0.1159  0.3677  0.4664
 5364W        W 9564   2.241   2.707  10.795  0.4665 -0.0834  0.0395
 5365W        W 9565   7.992   1.009  12.514 -0.0483 -0.0602  0.3298
 5366W        W 9566   4.276   3.738  11.205  0.2839 -0.0308  0.4945
 5367W        W 9567   1.855   9.355   4.335 -0.1236 -0.3676  0.0388
 5368W        W 9568  10.350   5.226  12.175 -0.3453 -0.5164 -0.0039
 5369W        W 9569   3.311   1.809   3.551  0.1069 -0.1761  0.0799
 5370W        W 9570   8.260   8.909  11.851 -0.0589  0.1873  0.1917
 5371W        W 9571  10.371   5.614   2.848 -0.0637  0.1304 -0.3088
 5372W        W 9572   1.014   3.622   8.750  0.0977  0.1972 -0.1558
 5373W        W 9573   1.486   6.628  12.429  0.0401  0.0100  0.2586
 5374W        W 9574   6.655   0.028   0.678  0.2174  0.1822  0.1086
 5375W        W 9575   6.155   8.153   1.729 -0.1978  0.0079 -0.0042
 5376W        W 9576   2.544   6.179  11.643  0.2974  0.1655  0.2963
 5377W        W 9577   7.209   6.366   0.935 -0.0756  0.3165  0.0566
 5378W        W 9578   4.641   5.407  11.253  0.0474  0.0308  0.3713
 5379W        W 9579   5.104   4.948   3.972  0.0064 -0.1833 -0.1324
 5380W        W 9580   6.712   4.411   8.717 -0.2551 -0.1240  0.1965
 5381W        W 9581   3.618   2.569  11.655  0.0810 -0.0982  0.0123
 5382W        W 9582   0.234   4.873  12.565  0.1246  0.3087 -0.0016
 5383W        W 9583   7.827   1.072  13.066  0.0844  0.0960  0.1829
 5384W        W 9584   3.032   4.484  11.564 -0.1832 -0.0528  0.0009
 5385W        W 9585   6.313   2.234  10.221  0.2350 -0.1912  0.3330
 5386W        W 9586   5.139   3.401   0.214  0.2858  0.1723  0.0275
 5387W        W 9587   6.595   4.255   9.172  0.0786 -0.0061  0.2621
 5388W        W 9588   3.277   4.518   0.886  0.1616 -0.5163  0.3760
 5389W        W 9589   1.182   2.975   0.368  0.2968  0.1786  0.1219
 5390W        W 9590   0.338   3.331  11.418 -0.1038  0.0932 -0.3458
 5391W        W 9591   0.580   2.828  10.574 -0.0547 -0.0459 -0.1352
 5392W        W 9592   2.656   4.006   8.318 -0.0786  0.0250  0.2192
 5393W        W 9593   3.471   8.169   2.259 -0.1530 -0.2471 -0.3056
 5394W        W 9594   7.874   9.381   2.328 -0.0696 -0.0245 -0.0977
 5395W        W 9595   7.430   0.351   1.843 -0.2154 -0.2422  0.5465
 5396W        W 9596   2.475   7.431   2.413  0.0838 -0.2170  0.0865
 5397W        W 9597   9.111   8.764   2.363 -0.1008  0.2328 -0.0209
 5398W        W 9598   4.905   9.836  11.569 -0.0845 -0.1235 -0.0004
 5399W        W 9599   1.185   3.719   9.653 -0.1993 -0.0114 -0.1593
 5400W        W 9600   9.553   6.545   8.976  0.2218  0.0310  0.1605
 5401W        W 9601   1.454   1.943   2.377 -0.1744  0.0284 -0.1718
 5402W        W 9602   2.923   5.073   8.943  0.1825  0.0226 -0.4719
 5403W        W 9603   1.100  10.309   1.929 -0.0676  0.1564 -0.1750
 5404W        W 9604   8.296   2.886   0.674 -0.3259  0.1842 -0.4020
 5405W        W 9605   8.651   4.993  13.084 -0.1412  0.0411 -0.0403
 5406W        W 9606   2.025   1.004  10.081 -0.1074 -0.0523 -0.1726
 5407W        W 9607   8.767   4.296  11.230 -0.2021 -0.0008  0.2285
 5408W        W 9608  10.398   6.679  11.709  0.4517 -0.0309 -0.1608
 5409W        W 9609  10.150   7.265   3.201 -0.1527  0.1448 -0.1656
 5410W        W 9610   5.769   6.894   0.108 -0.3724 -0.0792 -0.0542
 5411W        W 9611   9.516   1.631   4.333 -0.3236 -0.0500 -0.1467
 5412W        W 9612  10.445   9.551   0.515 -0.0898 -0.2151  0.0045
 5413W        W 9613   1.434   4.690  10.841 -0.0778 -0.1004 -0.2413
 5414W        W 9614   8.034   4.710   1.236 -0.0824 -0.0371  0.3993
 5415W        W 9615   0.906   1.899   2.504  0.0712  0.0640 -0.2026
 5416W        W 9616   3.134   7.444   3.328 -0.1742 -0.1459  0.0831
 5417W        W 9617   0.723   5.674  11.767 -0.0638  0.2916  0.3737
 5418W        W 9618   5.399   1.364   0.501 -0.0894 -0.1059  0.0358
 5419W        W 9619   7.872   0.316  11.761 -0.0976 -0.0841 -0.2347
 5420W        W 9620   4.010   4.179  11.381 -0.1086 -0.1002  0.1987
 5421W        W 9621   5.588   1.051  10.491  0.3144 -0.1875  0.2511
 5422W        W 9622   0.618   9.299   8.965  0.1422 -0.1141 -0.2294
 5423W        W 9623   3.827   0.294   2.518 -0.0332  0.2983 -0.3193
 5424W        W 9624   5.685   2.407   3.424 -0.2276 -0.0938  0.0580
 5425W        W 9625   6.532   3.995   2.614  0.0526  0.0263  0.0655
 5426W        W 9626   5.709   8.719  12.726  0.0414 -0.0128  0.0192
 5427W        W 9627   1.293   2.827   4.802 -0.0003 -0.2934  0.0601
 5428W        W 9628   9.655   0.999   1.251 -0.1018 -0.0220 -0.1951
 5429W        W 9629   6.465   9.739  11.518  0.0535 -0.0208  0.0748
 5430W        W 9630   7.061   0.323   2.173  0.1411 -0.3492  0.2938
 5431W        W 9631   1.706   8.532   0.513  0.0515  0.3160 -0.3282
 5432W        W 9632   3.424   7.458   0.570  0.0646 -0.2568  0.1326
 5433W        W 9633   6.302   7.588   2.777 -0.0299  0.1520 -0.1256
 5434W        W 9634   1.495   7.773   0.306  0.2057  0.0580  0.0611
 5435W        W 9635   1.028   4.389  10.992  0.0801 -0.0754 -0.2672
 5436W        W 9636   7.788   4.026   2.063  0.1429 -0.0864  0.0159
 5437W        W 9637   8.309   7.946   9.530  0.1877  0.0004 -0.0785
 5438W        W 9638   8.013  10.180  13.375  0.1914  0.2370  0.0842
 5439W        W 9639   1.620   8.471   2.676  0.0779 -0.0595  0.2763
 5440W        W 9640  10.398   0.214  13.017  0.2283 -0.0741 -0.0964
 5441W        W 9641  10.201   9.662   2.427  0.0898 -0.1082  0.0331
 5442W        W 9642   6.474   8.656   2.774 -0.3285 -0.0473  0.1243
 5443W        W 9643   7.970   7.670  10.354  0.0106 -0.2117  0.1075
 5444W        W 9644   1.016   9.750   3.800  0.2520 -0.3293  0.3573
 5445W        W 9645   7.558   5.856   1.767  0.2891  0.1219 -0.0607
 5446W        W 9646   1.144  10.418   9.091  0.0652 -0.1731  0.1775
 5447W        W 9647   5.452   5.831  12.713  0.2102  0.2550  0.4803
 5448W        W 9648   4.852   6.058   2.075 -0.1978  0.0152  0.1769
 5449W        W 9649   3.667   0.065  12.826  0.0018 -0.1362  0.3355
 5450W        W 9650   9.177   8.334   9.873 -0.1199  0.0865  0.1356
 5451W        W 9651   4.170   9.904   0.286 -0.1647  0.0733 -0.2027
 5452W        W 9652   6.202   5.336   9.620  0.3012 -0.1589 -0.0139
 5453W        W 9653  10.164   8.019   0.009 -0.0812  0.2386  0.4689
 5454W        W 9654   2.566   8.989  10.234  0.1227  0.1773 -0.1483
 5455W        W 9655   1.158   3.526   0.678 -0.1984 -0.0053  0.2311
 5456W        W 9656   3.524   6.633   9.413  0.1196 -0.0103 -0.1888
 5457W        W 9657   5.125   5.133   1.134 -0.1865  0.2853 -0.1909
 5458W        W 9658   3.661   7.520   1.013  0.0488  0.1991 -0.0387
 5459W        W 9659   8.230   8.806   3.697  0.1367 -0.2215 -0.0058
 5460W        W 9660   0.210   4.553  10.192 -0.0652  0.1172 -0.2447
 5461W        W 9661   2.098   3.660   4.059 -0.2824 -0.0090 -0.0162
 5462W        W 9662   0.624   8.354  10.153 -0.1498 -0.1858  0.1131
 5463W        W 9663   1.847   8.455  10.962  0.0318  0.0602 -0.1331
 5464W        W 9664   4.594   5.239  12.405 -0.1571  0.1514  0.2705
 5465W        W 9665   5.158   5.977   2.530  0.0528  0.3226 -0.1786
 5466W        W 9666   6.075   1.960   5.151 -0.0571  0.0385  0.0073
 5467W        W 9667   4.490   1.153  12.486 -0.3956 -0.0973 -0.0864
 5468W        W 9668   2.769   6.829   8.811  0.3320 -0.4080  0.1688
 5469W        W 9669   6.186   7.129   3.065 -0.1027 -0.2160 -0.0443
 5470W        W 9670   8.337   3.397  11.292 -0.1724  0.0690 -0.0152
 5471W        W 9671   3.254   5.974  13.049 -0.0473  0.0538  0.1198
 5472W        W 9672   4.914   8.390  12.877  0.1174 -0.2519  0.0777
 5473W        W 9673   6.139   3.140  11.322 -0.1247  0.1372  0.1312
 5474W        W 9674   3.591   8.373  11.462  0.2482  0.0113 -0.0245
 5475W        W 9675   2.976   7.126   2.859 -0.1218  0.0360  0.1881
 5476W        W 9676   4.866   6.757   2.773 -0.0184  0.2035 -0.2234
 5477W        W 9677  10.223   3.680   0.467  0.0787  0.1220 -0.0214
 5478W        W 9678   4.338   2.510  12.919 -0.1916  0.0590  0.2019
 5479W        W 9679   5.973   4.448   0.894 -0.0610  0.1467 -0.1133
 5480W        W 9680  10.394   2.489   5.298 -0.3154  0.0724 -0.1159
 5481W        W 9681   4.314   3.361   9.473  0.0281 -0.1974  0.0286
 5482W        W 9682   6.936   7.435   4.061  0.6510  0.1243  0.2694
 5483W        W 9683   2.908   6.791   3.677 -0.3190 -0.3145  0.0517
 5484W        W 9684   6.376   5.554  12.415 -0.3840  0.1036  0.2504
 5485W        W 9685   0.342   4.573   9.734 -0.0211  0.5105 -0.0122
 5486W        W 9686   7.439   5.923   9.546 -0.2015  0.0897 -0.3012
 5487W        W 9687   7.972   5.370   3.226 -0.1102  0.0072  0.2068
 5488W        W 9688   0.995   2.762   1.346  0.1305 -0.3390 -0.0284
 5489W        W 9689   4.246   7.190   1.839 -0.1945 -0.0361  0.1229
 5490W        W 9690   9.777   8.226  12.555 -0.3388 -0.1537  0.1248
 5491W        W 9691  10.408   9.610   5.141  0.0320  0.0147  0.2039
 5492W        W 9692   8.922   4.803   2.274  0.1046  0.1345  0.0999
 5493W        W 9693   2.814   4.366   4.141  0.3797 -0.0300  0.1466
 5494W        W 9694   4.395   1.777   3.112 -0.1499  0.3390  0.3342
 5495W        W 9695   7.436   7.842  11.188 -0.0137 -0.1922 -0.1964
 5496W        W 9696   6.209   3.961  11.272  0.0929 -0.1378 -0.1222
 5497W        W 9697   2.192   5.491  10.821 -0.3879  0.0258 -0.1355
 5498W        W 9698   3.859   2.624   8.396  0.1273 -0.1372  0.1171
 5499W        W 9699   0.205   3.049   3.937 -0.0287  0.2236  0.2738
 5500W        W 9700   6.318   9.101   2.766  0.4428 -0.0524  0.5873
 5501W        W 9701   8.879   4.721   1.702  0.0293 -0.0427 -0.2182
 5502W        W 9702   7.437   4.816  12.937 -0.0033  0.0220  0.3456
 5503W        W 9703   1.186   4.594  12.465 -0.3722  0.0059 -0.2297
 5504W        W 9704   6.953   6.350   1.357 -0.1113  0.0888  0.1299
 5505W        W 9705   9.568   6.443  10.242  0.1983  0.0270 -0.0988
 5506W        W 9706   2.847   9.321  11.363  0.2048 -0.1946 -0.1727
 5507W        W 9707   5.857   8.619   0.300 -0.0658 -0.0426  0.2056
 5508W        W 9708   9.531   6.241  12.024  0.0844 -0.5467  0.2503
 5509W        W 9709  10.206   1.426   8.719  0.0328  0.1269 -0.0922
 5510W        W 9710   0.713   5.111  10.432  0.1146  0.1441  0.4142
 5511W        W 9711   2.815   5.986   3.878 -0.0982  0.0467  0.0674
 5512W        W 9712   4.596   7.368   9.353 -0.1166 -0.0958  0.0241
 5513W        W 9713  10.265   2.063   0.011  0.0900  0.0173  0.2874
 5514W        W 9714   2.801   4.143  13.048 -0.1269  0.3136  0.1173
 5515W        W 9715  10.441   3.035   2.334 -0.0617 -0.0679 -0.0211
 5516W        W 9716   0.202   6.078  10.304  0.1594  0.1925 -0.4378
 5517W        W 9717   8.628   7.884   9.960  0.1303 -0.1012  0.0399
 5518W        W 9718   9.445   7.149  10.697  0.1691 -0.0279 -0.0016
 5519W        W 9719   4.323   9.008  11.624  0.4635  0.0172 -0.1825
 5520W        W 9720   4.961   7.705  12.114 -0.2082 -0.1937  0.1210
 5521W        W 9721   3.535   6.524   8.890 -0.2875 -0.0645  0.0422
 5522W        W 9722   3.199   8.108  11.526  0.0370  0.1870  0.0764
 5523W        W 9723   9.364   8.430   2.740 -0.0044 -0.0070  0.0291
 5524W        W 9724   7.853   8.851  10.800  0.0428  0.0094 -0.0567
 5525W        W 9725   2.813   8.816   2.205  0.1503  0.0289 -0.1362
 5526W        W 9726  10.251   2.452   9.708  0.2529  0.1405  0.1839
 5527W        W 9727   1.433   4.195   8.256 -0.0813 -0.0515 -0.0766
 5528W        W 9728   8.985   0.075   0.548 -0.2909  0.1254  0.1515
 5529W        W 9729   7.522   3.533   1.210 -0.2489 -0.0340  0.3317
 5530W        W 9730   0.750   5.488  12.224 -0.2674 -0.1022  0.1295
 5531W        W 9731   7.334   7.636   0.111  0.1771  0.4665 -0.2574
 5532W        W 9732   9.912   4.999  11.326 -0.2000 -0.0024  0.0318
 5533W        W 9733   0.518   3.137   9.173  0.3204 -0.0442 -0.2871
 5534W        W 9734   6.138   5.748   3.591 -0.2138 -0.2868 -0.2068
 5535W        W 9735   1.209   8.472   0.171 -0.2399  0.1230 -0.0192
 5536W        W 9736   0.854   8.906  10.972  0.2100 -0.5258  0.2553
 5537W        W 9737   6.771   2.516   4.297 -0.0123  0.4745  0.2987
 5538W        W 9738   8.935   4.476  12.422  0.1878  0.2577  0.1580
 5539W        W 9739   5.810   4.631   9.117  0.1518 -0.2708  0.3208
 5540W        W 9740   2.422   3.022   2.503 -0.1418 -0.0060  0.4149
 5541W        W 9741   7.523   2.659  10.204 -0.1013  0.0290 -0.0420
 5542W        W 9742   8.321   7.946   3.984  0.0929 -0.1480  0.2428
 5543W        W 9743   3.817   6.801   4.489 -0.2605  0.2290 -0.0170
 5544W        W 9744   0.748   9.613  11.568  0.1594  0.0602  0.0709
 5545W        W 9745   9.477   7.357   9.393  0.0039  0.2696  0.1620
 5546W        W 9746   9.181   1.184   2.674 -0.0620  0.1118  0.1648
 5547W        W 9747   6.555   7.696  12.887  0.4050 -0.0224  0.1546
 5548W        W 9748   2.193   5.050   1.407  0.0446 -0.2935  0.1551
 5549W        W 9749   3.321   1.966  10.375  0.3351  0.0862 -0.1879
 5550W        W 9750   4.920   7.309   3.115  0.2343 -0.0495  0.1508
 5551W        W 9751  10.159   2.423  10.735  0.1852 -0.0408 -0.4881
 5552W        W 9752   0.145   3.009  13.440  0.1542 -0.1610 -0.3294
 5553W        W 9753   2.517   9.645  12.603 -0.1059  0.0025  0.0248
 5554W        W 9754   5.706   8.495  10.760  0.2529 -0.1043  0.1256
 5555W        W 9755   4.361  10.327  12.146 -0.2716  0.1414 -0.2708
 5556W        W 9756   9.564   6.305  12.684 -0.0720 -0.2385  0.2636
 5557W        W 9757   4.044   6.016   1.173 -0.3201 -0.2412 -0.0597
 5558W        W 9758   5.508   3.729   1.136 -0.0606  0.0351  0.0378
 5559W        W 9759   9.818   3.994   0.424 -0.1239 -0.2534  0.0969
 5560W        W 9760   0.496   2.057   2.757  0.0177 -0.2326  0.0452
 5561W        W 9761   8.691   3.437  10.554  0.3344  0.0201  0.2842
 5562W        W 9762   0.014   6.360   8.936 -0.3070  0.0784 -0.0040
 5563W        W 9763   4.188   6.377   1.539 -0.3034  0.0122 -0.3769
 5564W        W 9764   7.834   9.836  10.138  0.2700 -0.2198  0.0391
 5565W        W 9765   0.737   1.430   9.678 -0.0154  0.2056  0.2131
 5566W        W 9766   3.446   9.536  13.114  0.0579  0.1587 -0.3441
 5567W        W 9767   7.690   0.426   2.727  0.2369  0.0529 -0.1965
 5568W        W 9768   5.891   6.410  10.470  0.0210  0.2000  0.1124
 5569W        W 9769   0.297   7.853   3.008 -0.0917 -0.1893 -0.1008
 5570W        W 9770   2.049   5.578  12.522  0.1004  0.2054  0.0551
 5571W        W 9771   0.502   1.800  10.650  0.1864  0.0439 -0.0377
 5572W        W 9772   1.586   8.699   4.075 -0.0364 -0.0942  0.0442
 5573W        W 9773   1.993   8.535   3.066 -0.0375 -0.1641 -0.3087
 5574W        W 9774   9.435   8.987  10.818 -0.5309  0.2348 -0.0389
 5575W        W 9775   0.006   3.436   1.871 -0.2880 -0.0271  0.0150
 5576W        W 9776   9.846   7.921  10.523  0.0702  0.0574 -0.2573
 5577W        W 9777   4.579   1.463  11.399  0.1249  0.1539  0.0976
 5578W        W 9778  10.453   4.914   4.762 -0.3718  0.2241 -0.2426
 5579W        W 9779   7.100   4.027   2.657 -0.1683 -0.3761  0.4089
 5580W        W 9780   3.289   5.860   0.467 -0.1882  0.0586  0.3041
 5581W        W 9781   7.165   7.403   2.719  0.1107  0.2261  0.2860
 5582W        W 9782   9.607   3.188  12.337 -0.0852 -0.1901  0.0012
 5583W        W 9783   1.352   2.711  12.289 -0.2674  0.1575 -0.3476
 5584W        W 9784   5.160   2.851  12.381  0.1074  0.0530  0.0130
 5585W        W 9785   7.472   1.300   2.454  0.2225  0.1114  0.1067
 5586W        W 9786   1.328   3.212   9.591 -0.2154  0.0397 -0.2035
 5587W        W 9787   6.475   4.328   0.579  0.1931 -0.1307  0.0361
 5588W        W 9788   4.616   1.840   4.811 -0.1159 -0.0800  0.0408
 5589W        W 9789   6.472   4.845   0.311 -0.0421 -0.1336 -0.1477
 5590W        W 9790   9.456   8.927   9.935  0.0821  0.3486 -0.0992
 5591W        W 9791   1.762   2.620   3.043 -0.2539 -0.1634 -0.0873
 5592W        W 9792   1.931   1.078   2.365 -0.1269  0.1673  0.3010
 5593W        W 9793   8.632   8.150  13.448 -0.0899  0.0998  0.2743
 5594W        W 9794   2.762   9.203  12.244  0.0619 -0.1260 -0.0417
 5595W        W 9795   3.639   9.938   2.188  0.4314 -0.0101 -0.4478
 5596W        W 9796   3.959   5.175   4.316 -0.2650  0.0296 -0.1921
 5597W        W 9797   8.562  10.413   9.219  0.3605  0.0512 -0.0281
 5598W        W 9798   8.317   5.911  11.735 -0.0626 -0.1008 -0.1048
 5599W        W 9799  10.426   8.641   8.896 -0.0676 -0.0517 -0.1803
 5600W        W 9800   7.605   0.789   1.898 -0.2564  0.1391  0.1091
 5601W        W 9801   9.118   7.082  11.493  0.0424  0.0576  0.0089
 5602W        W 9802   7.561   1.409   0.010  0.0039  0.0706  0.3306
 5603W        W 9803   1.928   1.788  13.389 -0.3250 -0.2189 -0.3206
 5604W        W 9804   9.277   6.895   9.225 -0.4079 -0.1526  0.2330
 5605W        W 9805   2.732   3.321   4.581  0.3882  0.1964  0.0354
 5606W        W 9806   4.530   8.156   3.248  0.0422 -0.1215  0.4518
 5607W        W 9807  10.419   4.270   9.826 -0.0115  0.2058  0.0066
 5608W        W 9808   8.760   5.137   1.090  0.0548 -0.3141  0.2826
 5609W        W 9809   9.170   3.637   2.781 -0.2788  0.2031  0.1091
 5610W        W 9810   9.518   3.684   0.185  0.4214  0.0191 -0.1666
 5611W        W 9811   7.560   4.672   2.032  0.0369 -0.0567  0.5406
 5612W        W 9812   6.431   1.567  10.141 -0.0556 -0.2362  0.3964
 5613W        W 9813   1.327   3.526  11.509  0.4516  0.4352 -0.1875
 5614W        W 9814   4.727   9.362   3.812 -0.0075  0.6548  0.4251
 5615W        W 9815   0.573   5.055   9.395  0.5105 -0.1490  0.0293
 5616W        W 9816   2.535   9.441  13.050 -0.2945 -0.1614  0.0567
 5617W        W 9817   1.359   3.521  12.329  0.4055  0.1237 -0.1815
 5618W        W 9818   6.330   5.203   9.066  0.0048  0.2094  0.1924
 5619W        W 9819   0.042   1.321  11.228 -0.0958 -0.1946  0.1195
 5620W        W 9820   0.574   6.521   9.914 -0.2073  0.2060  0.1869
 5621W        W 9821   4.389   8.189   9.743  0.1232  0.1200 -0.1595
 5622W        W 9822   8.716   2.076   3.370  0.1667  0.0484 -0.1164
 5623W        W 9823   7.446   7.736   9.577  0.1557 -0.0954 -0.1590
 5624W        W 9824   5.168   1.441   0.945  0.0688 -0.4390  0.0971
 5625W        W 9825   9.655   4.799   3.029  0.0277  0.0362 -0.2905
 5626W        W 9826   1.197   9.291  11.216 -0.0390  0.0677  0.1090
 5627W        W 9827   6.577   3.314   2.122  0.3421 -0.3577 -0.0079
 5628W        W 9828   2.427   9.961   4.046 -0.0699  0.0489 -0.0252
 5629W        W 9829   6.098   5.752   2.613 -0.0379  0.2685 -0.0024
 5630W        W 9830   7.673   1.115  11.916  0.4980 -0.1154 -0.2114
 5631W        W 9831   3.791   1.068  10.512 -0.0256 -0.0109 -0.0219
 5632W        W 9832   4.300   1.883  10.689  0.3560 -0.2705 -0.0020
 5633W        W 9833   1.980   7.244   8.941 -0.2275  0.2580  0.3034
 5634W        W 9834   2.424   5.661  11.815 -0.1618 -0.0807 -0.2739
 5635W        W 9835  10.025   5.297  11.786  0.0789  0.2603 -0.2400
 5636W        W 9836   1.373   3.851   3.289  0.1399 -0.1188  0.0757
 5637W        W 9837   8.456   4.711   3.903  0.2906 -0.0260  0.0881
 5638W        W 9838   6.276   2.387  11.960 -0.1389  0.1415 -0.2332
 5639W        W 9839   8.726  10.082  11.674 -0.4369  0.2972 -0.0056
 5640W        W 9840  10.014   4.961  12.998  0.1936 -0.0911  0.1651
 5641W        W 9841   7.818   9.557   1.601  0.2971 -0.0949  0.0596
 5642W        W 9842   1.234   7.252   3.748 -0.2128 -0.2047  0.1864
 5643W        W 9843   2.508   4.127   9.581 -0.1694 -0.1303  0.0783
 5644W        W 9844   2.137   3.940  12.319 -0.3911  0.0543  0.0578
 5645W        W 9845   5.916   5.065   0.447 -0.1055 -0.0651  0.0254
 5646W        W 9846   3.713   2.867  12.043 -0.1089 -0.1803 -0.3386
 5647W        W 9847   2.015   0.063  10.268 -0.1220 -0.1153 -0.0854
 5648W        W 9848   4.261   3.377  10.437 -0.1017 -0.0780  0.1188
 5649W        W 9849   4.316   3.758   9.948  0.0228  0.0973  0.0702
 5650W        W 9850   9.136   7.782   9.779  0.2895  0.0849  0.0630
 5651W        W 9851   9.813   2.433  11.707  0.0580 -0.1630 -0.5131
 5652W        W 9852   3.746   0.656  10.161  0.1773  0.2645  0.0873
 5653W        W 9853   2.725   0.300  11.744  0.2386  0.0641  0.1468
 5654W        W 9854   6.004   0.296  11.439  0.2515 -0.3782  0.0761
 5655W        W 9855   0.152   9.685   9.006 -0.1011 -0.0816  0.4222
 5656W        W 9856   8.060   1.530   1.305 -0.2124 -0.0093 -0.0403
 5657W        W 9857   8.478   3.106   0.211 -0.3117 -0.1848  0.2149
 5658W        W 9858   0.957   5.208  11.375 -0.1572  0.0988 -0.2580
 5659W        W 9859   2.737   8.441   4.745  0.2251 -0.3555 -0.1826
 5660W        W 9860   0.653   8.347   4.391 -0.0112 -0.0147 -0.1073
 5661W        W 9861  10.277   7.216   1.026  0.0333 -0.0224 -0.0343
 5662W        W 9862   0.152   2.089   4.055  0.0378 -0.0577  0.3061
 5663W        W 9863  10.249   2.616  12.495 -0.1959  0.1331  0.1826
 5664W        W 9864   4.674   8.726  10.033  0.1113 -0.0053  0.3076
 5665W        W 9865   9.710   8.715   1.155  0.0249  0.4141  0.1203
 5666W        W 9866   8.605   8.726   2.351 -0.1200 -0.0855 -0.1181
 5667W        W 9867   9.480   0.516   3.101 -0.2426 -0.0236 -0.2556
 5668W        W 9868   5.278   7.682  13.274  0.0405 -0.0687  0.1941
 5669W        W 9869   0.098   0.973   0.014  0.2630 -0.0917  0.0376
 5670W        W 9870   7.239   6.763   2.222 -0.0314 -0.0316  0.3435
 5671W        W 9871   4.044   5.401   2.961  0.3547  0.1076  0.0749
 5672W        W 9872   6.363   3.530   0.631 -0.0068  0.4518  0.2346
 5673W        W 9873   9.133   5.443   0.451 -0.1444 -0.1243  0.0686
 5674W        W 9874   9.297   5.539  12.509  0.2146  0.1018 -0.1629
 5675W        W 9875   9.416   4.915  13.015  0.1643  0.2332  0.2726
 5676W        W 9876   3.520   4.603   0.341 -0.3755  0.1015  0.0936
 5677W        W 9877   9.275   8.474  12.968 -0.2345 -0.1536 -0.3365
 5678W        W 9878   4.465   9.801  11.343 -0.0981 -0.3082  0.3510
 5679W        W 9879   9.826   1.233   0.465 -0.1663 -0.0271  0.0661
 5680W        W 9880   4.498   0.640  12.539 -0.2903 -0.0916  0.3833
 5681W        W 9881   0.612   8.630  13.387 -0.1504  0.1648 -0.2279
 5682W        W 9882   0.309   2.341  11.401 -0.2151 -0.1080 -0.0316
 5683W        W 9883   0.946   4.717   9.625  0.2933  0.2601 -0.0219
 5684W        W 9884   4.170   4.547   1.501 -0.0373  0.3889  0.1214
 5685W        W 9885   6.038  10.061   1.506  0.0522  0.0058  0.2323
 5686W        W 9886   4.425   5.528   4.416 -0.2111  0.0206 -0.2260
 5687W        W 9887   2.588   6.866  10.525 -0.1147  0.0653  0.2488
 5688W        W 9888   1.086   8.336  10.368 -0.0135 -0.3575 -0.0113
 5689W        W 9889   5.550   3.767   9.191  0.1221 -0.2186  0.1672
 5690W        W 9890   6.316   4.719  10.279  0.0939  0.0668 -0.2143
 5691W        W 9891   2.178   0.735   4.243  0.0763  0.2131 -0.1282
 5692W        W 9892   8.881   0.425  10.293 -0.3097  0.1118 -0.2767
 5693W        W 9893   0.511   6.611   0.569 -0.1574 -0.1391  0.0632
 5694W        W 9894   7.078   5.878   1.786 -0.5654  0.1988  0.0413
 5695W        W 9895   8.809   3.690   1.970  0.0101  0.1962 -0.2407
 5696W        W 9896   7.294   2.166   2.272  0.1044  0.0681  0.1348
 5697W        W 9897   1.484   0.896   3.130 -0.0868 -0.0405 -0.1262
 5698W        W 9898   1.198   2.165   2.968 -0.1290  0.0679  0.0713
 5699W        W 9899   0.777   9.581   1.872  0.0477  0.3879 -0.0265
 5700W        W 9900   4.372   4.917   1.896  0.1547 -0.1018 -0.1996
 5701W        W 9901   9.147   7.839   4.484 -0.0436 -0.0198 -0.0323
 5702W        W 9902   2.073   2.919   9.677  0.5502 -0.3136 -0.2623
 5703W        W 9903   7.555   5.274   1.059  0.1155  0.0770 -0.3108
 5704W        W 9904   6.453   3.437   8.836 -0.2589  0.1098  0.0731
 5705W        W 9905   4.458   0.191  11.736  0.0106 -0.0771  0.1879
 5706W        W 9906   5.561   7.512  11.672 -0.0963  0.1672  0.2835
 5707W        W 9907   2.507   9.347   2.227 -0.1552 -0.2234 -0.0215
 5708W        W 9908   8.901   2.030   3.842 -0.0597  0.1146 -0.2219
 5709W        W 9909  10.133   6.620   0.891 -0.1411 -0.3426 -0.1637
 5710W        W 9910  10.072   3.461   4.246  0.0633  0.1186  0.0867
 5711W        W 9911   9.994   3.800  10.351  0.2832 -0.0009 -0.1420
 5712W        W 9912   6.790   0.106  10.598  0.0133  0.0690 -0.2626
 5713W        W 9913   3.700   7.452   3.354  0.1456 -0.3082  0.0907
 5714W        W 9914   7.368   1.938  10.765 -0.0417 -0.3415  0.0521
 5715W        W 9915   6.581   2.339  10.679  0.0353  0.2199  0.2110
 5716W        W 9916   6.850   9.662   0.281 -0.0314 -0.1092  0.1490
 5717W        W 9917   2.255   3.055   4.260 -0.2113  0.3051  0.2779
 5718W        W 9918  10.263   1.879   4.319  0.1559  0.0391  0.1417
 5719W        W 9919   0.158   5.553   0.971 -0.1054 -0.2046  0.1149
 5720W        W 9920   0.602   9.819  11.110 -0.1776  0.2891  0.2079
 5721W        W 9921   8.313   0.364   1.925  0.1002 -0.1017 -0.0604
 5722W        W 9922   8.705   5.033   3.519 -0.2560 -0.1917  0.0072
 5723W        W 9923   5.225   6.870   0.963 -0.0452 -0.1618 -0.2137
 5724W        W 9924   3.572   6.659   2.818 -0.2825 -0.1441 -0.2936
 5725W        W 9925   9.553   1.272  12.320  0.1722  0.5136  0.2067
 5726W        W 9926   7.567   8.596   0.552 -0.0499 -0.0320 -0.2567
 5727W        W 9927   5.370   8.573   0.203 -0.1447 -0.1836  0.3078
 5728W        W 9928   5.234   3.403   3.395 -0.2825  0.0385  0.1352
 5729W        W 9929   5.354   6.347  12.060  0.1983 -0.2860  0.0905
 5730W        W 9930   2.995   5.878   0.017  0.0375  0.2052  0.2106
 5731W        W 9931   2.849   2.151   5.153  0.1961  0.0145  0.1049
 5732W        W 9932   6.036   4.962  11.731  0.2296 -0.2042 -0.1483
 5733W        W 9933   9.698   9.963   9.229 -0.0026 -0.3628  0.1851
 5734W        W 9934   8.943   1.636   0.805  0.1269  0.0122 -0.2986
 5735W        W 9935   5.749   8.247  12.267  0.1042  0.3677  0.0145
 5736W        W 9936   4.348   8.849   0.764 -0.0697  0.2741  0.1382
 5737W        W 9937   5.822   0.955   1.570  0.0941  0.2903 -0.2920
 5738W        W 9938   9.285   7.027   0.975  0.1569 -0.3442 -0.1204
 5739W        W 9939   7.876   2.321  12.670 -0.1447  0.0980  0.5483
 5740W        W 9940   1.220   8.572  13.010  0.1007  0.0380  0.2382
 5741W        W 9941   1.829  10.012   3.279  0.0535 -0.0064 -0.2032
 5742W        W 9942   4.850   9.575   3.328  0.1816 -0.2015  0.0531
 5743W        W 9943   5.968   0.562   0.857  0.0101 -0.2609 -0.1326
 5744W        W 9944  10.048   7.732  11.497 -0.3215 -0.1689 -0.2259
 5745W        W 9945  10.215   6.854   2.866 -0.2641  0.0353 -0.1148
 5746W        W 9946   0.448   5.856   2.563  0.3758 -0.1743  0.3773
 5747W        W 9947   1.417   1.164  12.216 -0.1799  0.1481 -0.1014
 5748W        W 9948   8.828   5.403   9.367  0.3341  0.1432 -0.1790
 5749W        W 9949   1.360   9.869  13.413  0.1164  0.1180  0.0851
 5750W        W 9950   7.811   1.292   2.015  0.0655  0.1241  0.0143
 5751W        W 9951   2.179   7.551   4.746 -0.1890  0.0545 -0.2896
 5752W        W 9952   5.269   2.990   9.929  0.2693 -0.1286 -0.0593
 5753W        W 9953   9.571   1.857  12.916 -0.1179  0.0927 -0.2022
 5754W        W 9954   8.803   5.654   2.581  0.2187  0.4742 -0.1414
 5755W        W 9955   2.667   0.026   0.413  0.1021 -0.3819 -0.2516
 5756W        W 9956   4.397   9.507  12.983  0.4278  0.0835  0.1019
 5757W        W 9957   9.657   8.877  12.359  0.0872  0.0518  0.2366
 5758W        W 9958   5.004   9.407   1.328 -0.2183  0.0208  0.1483
 5759W        W 9959   6.257   3.032   0.490 -0.3266  0.2340 -0.2481
 5760W        W 9960   0.313   8.683  10.324  0.1773  0.0432  0.1157
 5761W        W 9961   8.758   7.975   4.185  0.0424  0.0126 -0.0118
 5762W        W 9962   2.686   6.330   4.280  0.0361  0.1622  0.0560
 5763W        W 9963   5.498   5.349   4.122 -0.1688  0.0412 -0.4205
 5764W        W 9964   4.935   2.180   0.613  0.0889  0.0992  0.1260
 5765W        W 9965   8.747   9.700  10.298 -0.3279  0.3388  0.2147
 5766W        W 9966   9.187   2.074   0.492  0.0951 -0.0746 -0.3396
 5767W        W 9967   1.881   9.210  11.814 -0.2824  0.2148 -0.0283
 5768W        W 9968   0.740  10.032  11.906  0.0662  0.2903 -0.0388
 5769W        W 9969   3.215   4.248   0.377 -0.2532 -0.1273  0.0917
 5770W        W 9970   8.273   5.178   9.934  0.1048 -0.1118  0.0697
 5771W        W 9971   2.133   1.019   0.910 -0.0054  0.2123 -0.3148
 5772W        W 9972   6.246   6.137   9.186 -0.0832 -0.1941 -0.1194
 5773W        W 9973   1.859   4.694   9.235 -0.2143 -0.4857 -0.1016
 5774W        W 9974   2.734   9.523   3.894  0.2317  0.1382 -0.0031
 5775W        W 9975   9.061   4.533   4.472 -0.0306  0.1124  0.2034
 5776W        W 9976   1.826   7.616   2.473  0.2399  0.0654 -0.2086
 5777W        W 9977   9.884   3.297  10.194  0.0472 -0.0353  0.0976
 5778W        W 9978   4.819   5.582   1.861 -0.0537  0.3375 -0.1390
 5779W        W 9979   0.496   6.071  13.279  0.1073 -0.1878 -0.0331
 5780W        W 9980   0.960   7.940   9.647  0.2142 -0.2415 -0.1438
 5781W        W 9981   5.346   2.530   9.024  0.3371 -0.1084  0.0321
 5782W        W 9982   5.016   8.617   1.231 -0.1085  0.0515 -0.2630
 5783W        W 9983   1.203   1.087   3.791  0.0174 -0.0227 -0.1151
 5784W        W 9984   1.577   8.606   0.982  0.2106 -0.1125  0.0758
 5785W        W 9985   3.147   5.538  11.059 -0.0907 -0.0795 -0.0165
 5786W        W 9986   7.386  10.311   0.362 -0.1444 -0.0175  0.1503
 5787W        W 9987   8.426   2.160  10.875 -0.0135  0.0800  0.0800
 5788W        W 9988   1.333   8.441   2.263 -0.0149 -0.1550 -0.1740
 5789W        W 9989   6.351   2.951  11.963 -0.0108 -0.3359  0.0407
 5790W        W 9990   7.607   3.722   2.685  0.0932 -0.0729  0.1486
 5791W        W 9991   2.827   5.785  10.205 -0.1815 -0.1212  0.1936
 5792W        W 9992   8.177   2.896  11.304 -0.0491 -0.0805  0.3122
 5793W        W 9993   0.471   0.147  11.629  0.2036  0.0127  0.0253
 5794W        W 9994   1.853   2.720   1.053 -0.0968  0.0633 -0.1336
 5795W        W 9995   8.118   3.740   1.202  0.2557 -0.0492  0.0594
 5796W        W 9996   1.263   6.994  10.109 -0.0880  0.0093  0.2976
 5797W        W 9997   2.226   1.897   3.182  0.0318  0.1913 -0.0532
 5798W        W 9998   5.103  10.346   2.737 -0.0076  0.2612 -0.0003
 5799W        W 9999   7.371   7.717  12.984  0.2431  0.0733  0.1453
 5800W        W10000   7.521   7.244   2.338  0.1295  0.0750  0.0182
 5801W        W10001   7.764   6.867   9.579  0.0802 -0.2139 -0.0275
 5802W        W10002   9.385   1.691   0.143 -0.1732 -0.0235 -0.0947
 5803W        W10003   3.675   4.234   3.650  0.1373  0.1963  0.1644
 5804W        W10004   9.182   5.708   8.529 -0.0302 -0.0764  0.0148
 5805W        W10005   6.284   2.319  13.267 -0.2049  0.3002 -0.0540
 5806W        W10006   9.752   3.547   2.350 -0.1012 -0.1358 -0.0211
 5807W        W10007   9.764   4.904  10.614  0.1474  0.0755  0.2134
 5808W        W10008   0.340   7.526  11.053  0.1489  0.4600 -0.0519
 5809W        W10009   1.539  10.003  12.845  0.0731 -0.0615  0.1647
 5810W        W10010   1.399   2.914   1.756 -0.2071  0.1084 -0.2485
 5811W        W10011   6.756   6.811   0.085  0.2054  0.3678 -0.1662
 5812W        W10012   0.360   6.972  11.103  0.0539 -0.5012  0.1092
 5813W        W10013   0.706   8.729   8.864  0.2068  0.1625 -0.0382
 5814W        W10014   4.798   9.029   1.614  0.2606 -0.0832 -0.1508
 5815W        W10015   8.987   6.573  12.482 -0.0991 -0.0849 -0.0857
 5816W        W10016   2.080   4.533   1.521  0.1341 -0.0757  0.0513
 5817W        W10017   7.926   4.400   9.868 -0.0924 -0.0052  0.0812
 5818W        W10018   7.846   2.283  11.495  0.0524 -0.0954 -0.2059
 5819W        W10019   9.467   0.576  10.741 -0.2361 -0.1537  0.0851
 5820W        W10020   1.112   8.807   9.319 -0.3351  0.0807  0.1173
 5821W        W10021   9.318   8.833   3.615  0.3130  0.3267  0.0125
 5822W        W10022   7.368   9.697  11.493  0.2182 -0.1812 -0.0229
 5823W        W10023   2.505   4.925  10.723  0.2403 -0.1288  0.2519
 5824W        W10024   6.646   0.491  12.437 -0.1778  0.0573  0.1445
 5825W        W10025   7.351   5.015  12.490 -0.1402 -0.1969  0.2580
 5826W        W10026   4.787   5.348  10.456 -0.1249  0.0611  0.2248
 5827W        W10027   7.441   5.491  12.427 -0.0683 -0.1309 -0.0930
 5828W        W10028   0.718   3.750   0.258  0.1755  0.1505 -0.1992
 5829W        W10029   8.685   5.340  12.709 -0.2149  0.3558  0.0653
 5830W        W10030   9.372   6.992  12.668 -0.0428  0.0953  0.0157
 5831W        W10031   2.772   8.024   0.446  0.2504 -0.0222 -0.0172
 5832W        W10032   8.587   9.400   0.977  0.0750  0.1272 -0.2501
 5833W        W10033   5.249   9.765   2.701 -0.0635  0.0185 -0.0411
 5834W        W10034   8.176   1.930   2.908  0.1604  0.2299 -0.1114
 5835W        W10035   9.209   5.482  10.552  0.0947  0.2622  0.0338
 5836W        W10036   5.991   3.259   0.846 -0.1793  0.1944 -0.1095
 5837W        W10037   5.503   6.210  13.008  0.0944 -0.1120 -0.1876
 5838W        W10038   5.447   7.649  10.346 -0.1911 -0.0016 -0.1483
 5839W        W10039   9.128   1.650  13.097 -0.0580 -0.0755 -0.1412
 5840W        W10040   1.532   2.377  11.306  0.1168 -0.0736  0.1893
 5841W        W10041   1.981  10.362  12.623 -0.2993  0.3386  0.0129
 5842W        W10042   6.910  10.161   0.456 -0.1372 -0.1205  0.0999
 5843W        W10043   7.412   2.374   2.695 -0.2871  0.1483  0.1674
 5844W        W10044   5.427   9.305   9.907 -0.2656  0.2542  0.2226
 5845W        W10045   3.429   4.043  11.493  0.1504  0.2269  0.3221
 5846W        W10046   6.832   7.618   1.898  0.0806 -0.1809  0.1821
 5847W        W10047   8.240   7.450   2.100 -0.1724  0.2104  0.0213
 5848W        W10048   9.664   3.678   0.881  0.0265 -0.4231  0.0087
 5849W        W10049   5.118   7.303   1.946 -0.2908  0.1059 -0.2088
 5850W        W10050   1.746   9.527   1.136 -0.1936  0.1101 -0.0720
 5851W        W10051   8.074   8.255   1.438  0.0819  0.1005 -0.1991
 5852W        W10052   7.846   4.152   8.308 -0.0531 -0.2096 -0.3107
 5853W        W10053   6.356   9.573  12.815 -0.2610  0.2591  0.0586
 5854W        W10054   3.926   4.216  11.858  0.2498  0.3805 -0.3205
 5855W        W10055   9.339   7.651  10.614  0.0459 -0.1577  0.1208
 5856W        W10056   7.392   2.924   2.866  0.1526  0.1616 -0.1777
 5857W        W10057   5.853   1.728   9.366 -0.2243 -0.1043  0.3714
 5858W        W10058   0.277   2.299   9.330  0.3169 -0.2487 -0.3857
 5859W        W10059   1.794   1.618   8.636  0.3599  0.1231 -0.1103
 5860W        W10060   8.674   9.393   4.005 -0.0567  0.0344  0.1150
 5861W        W10061   3.910   4.472   2.092  0.0714  0.0053  0.0903
 5862W        W10062   7.022   6.931   4.077 -0.2768 -0.0222 -0.0936
 5863W        W10063   1.632   1.895   9.819 -0.0872 -0.1489 -0.3333
 5864W        W10064   4.801   5.302  11.958 -0.1720 -0.3355  0.0895
 5865W        W10065   9.478   8.650   9.497  0.0898 -0.1470 -0.0917
 5866W        W10066   9.764   8.852  10.448 -0.2313 -0.1079  0.0585
 5867W        W10067   8.502   1.124   1.179 -0.2591 -0.0103  0.0964
 5868W        W10068   2.821   4.763  13.056 -0.2319  0.4172 -0.0586
 5869W        W10069   0.785   0.562   3.580  0.3192 -0.1653 -0.5610
 5870W        W10070   4.359   1.014  11.496 -0.0874  0.1618  0.2494
 5871W        W10071   2.693   1.679   0.075 -0.0472  0.1198  0.0177
 5872W        W10072   0.977   2.902   9.376  0.1328 -0.0312 -0.2002
 5873W        W10073   2.382   3.036   0.381 -0.0651 -0.4265 -0.0604
 5874W        W10074   4.992   9.852   3.860 -0.2993 -0.1791 -0.2736
 5875W        W10075   0.122   3.966   0.752  0.0430  0.0736  0.4239
 5876W        W10076   0.340   4.429   3.010  0.2224  0.0575  0.0487
 5877W        W10077   7.735   7.229   1.848 -0.0998 -0.0737  0.1776
 5878W        W10078   7.978   2.440  10.056 -0.2497  0.2330 -0.0564
 5879W        W10079   2.629   8.816  13.220  0.0862  0.0208 -0.0837
 5880W        W10080   5.158   5.541   2.259  0.0712 -0.0420  0.0729
 5881W        W10081   8.999   2.725   2.663  0.1400  0.1406 -0.0879
 5882W        W10082   9.370   1.229  11.622  0.2269 -0.2921 -0.1191
 5883W        W10083   9.606   6.013   4.289  0.3078 -0.1017  0.4552
 5884W        W10084   4.827   3.674   2.823  0.2217 -0.2371  0.0678
 5885W        W10085  10.052   1.392   3.255 -0.2594 -0.2043 -0.1041
 5886W        W10086   2.634  10.269   9.554  0.1917  0.3068 -0.1992
 5887W        W10087   9.894   3.276   2.805 -0.0470  0.0210 -0.0066
 5888W        W10088   7.894   2.671   0.859  0.1419 -0.3121  0.2438
 5889W        W10089   2.206   2.018  13.025 -0.3798 -0.1981 -0.0338
 5890W        W10090   2.530   0.752  10.029  0.1606  0.3697 -0.0579
 5891W        W10091   4.253   9.426   3.304 -0.1399 -0.0823  0.0778
 5892W        W10092  10.454   1.308   2.555 -0.0716  0.2137 -0.1888
 5893W        W10093   8.754   5.757  12.973  0.0196  0.1546 -0.1476
 5894W        W10094   2.606   2.307   9.391 -0.3669  0.1577 -0.3554
 5895W        W10095   3.635   1.961   0.317 -0.0718  0.2660  0.1509
 5896W        W10096  10.144   4.058   4.325 -0.0058  0.3632  0.0180
 5897W        W10097   1.216   4.252  10.457  0.1519  0.0495 -0.2044
 5898W        W10098   9.068   6.159  12.752  0.0627  0.2474  0.2402
 5899W        W10099   4.900   7.725   1.773 -0.1299 -0.1485  0.0622
 5900W        W10100   9.807   3.588  11.002 -0.1308 -0.1367 -0.1982
 5901W        W10101   1.635   4.285   1.544  0.0205 -0.0016 -0.0579
 5902W        W10102   0.278   1.152  11.949  0.1877 -0.0010 -0.1615
 5903W        W10103   7.595   7.613  10.671  0.0139  0.2507  0.1283
 5904W        W10104   2.194   7.051   2.482  0.1171  0.0380 -0.0732
 5905W        W10105   6.871   8.577   1.865 -0.2083 -0.1555 -0.0623
 5906W        W10106   0.940   2.797   8.320 -0.0331 -0.0242 -0.1209
 5907W        W10107   0.689   8.774   2.752  0.2243 -0.2181 -0.0515
 5908W        W10108   5.949   1.395  13.232  0.1962 -0.0196  0.1892
 5909W        W10109   8.671   2.675  12.657  0.1992 -0.4014  0.2702
 5910W        W10110   3.425   0.731   3.790 -0.0806  0.0670 -0.1015
 5911W        W10111   5.850   9.569   2.134 -0.0510  0.2866  0.3008
 5912W        W10112   7.741   2.681   4.933 -0.0618  0.1488  0.1750
 5913W        W10113   4.307   2.411   8.626 -0.3003 -0.1984 -0.0006
 5914W        W10114   0.718   4.976  12.477 -0.0857 -0.0888 -0.1673
 5915W        W10115   1.615   6.020   9.361  0.1720  0.1024  0.0445
 5916W        W10116   8.089   0.956   0.557  0.3309 -0.1144  0.1697
 5917W        W10117   2.413   4.170   0.409  0.1824 -0.1532 -0.2229
 5918W        W10118   1.475   7.767  11.728  0.1271 -0.1761 -0.0547
 5919W        W10119   6.318   6.524  10.026 -0.1005 -0.0370 -0.0471
 5920W        W10120  10.455  10.321   3.519 -0.1206  0.0835 -0.2848
 5921W        W10121   3.453   8.854   3.651  0.1342 -0.1712 -0.0984
 5922W        W10122   3.762   3.125   9.612 -0.1018  0.3369 -0.1263
 5923W        W10123   8.619   7.277   3.273 -0.1006 -0.0846  0.0323
 5924W        W10124   3.462   2.635   3.200 -0.2699 -0.0990 -0.2260
 5925W        W10125   3.384   5.639   1.835 -0.2713  0.0363  0.3784
 5926W        W10126   0.645   9.474   2.410 -0.2593 -0.1145  0.2399
 5927W        W10127   3.675   1.157   4.479  0.2282 -0.1958  0.3170
 5928W        W10128   8.570   7.347   0.358  0.1832  0.2257  0.1508
 5929W        W10129   8.223   6.489  11.835 -0.0206 -0.0490  0.1720
 5930W        W10130   9.591   8.897   3.155 -0.3614 -0.2784  0.0535
 5931W        W10131   4.342   9.449   2.280 -0.1679 -0.0305  0.2610
 5932W        W10132   8.015   5.982   1.819  0.1480  0.1957  0.0204
 5933W        W10133   0.331   6.838  12.010 -0.0130 -0.0858 -0.3218
 5934W        W10134   1.749   7.168   2.325  0.1746  0.1024 -0.3244
 5935W        W10135   9.481   5.164  12.215  0.1469 -0.1447 -0.0837
 5936W        W10136   2.725   6.517  11.282 -0.0744  0.1643 -0.1521
 5937W        W10137   6.123   4.187   9.032  0.2514  0.1909  0.4292
 5938W        W10138   5.791   2.650   8.537  0.0025  0.2923  0.0495
 5939W        W10139   1.277   9.786   1.916  0.1606 -0.3083  0.0699
 5940W        W10140   8.261   6.529   4.196 -0.1366 -0.0534  0.1223
 5941W        W10141   7.012   4.846   9.638  0.1524  0.1890 -0.1173
 5942W        W10142   6.319   6.627   3.082  0.0088 -0.2722 -0.0174
 5943W        W10143   8.985   6.498   8.263 -0.0530 -0.0315 -0.2280
 5944W        W10144   3.164   8.672   1.825 -0.0204  0.0105  0.0377
 5945W        W10145   0.054   5.762   4.196  0.0248  0.0515 -0.1201
 5946W        W10146   4.188   8.601   3.441 -0.0599  0.0269  0.1369
 5947W        W10147   8.931   8.747   2.819 -0.1553  0.1179  0.1696
 5948W        W10148  10.434   7.581   2.659 -0.0268 -0.0889 -0.1072
 5949W        W10149  10.248   9.976  11.568  0.0954  0.1113 -0.1045
 5950W        W10150   1.182   3.502   1.192 -0.0183 -0.2173 -0.0759
 5951W        W10151   2.164   8.775   4.063 -0.1232 -0.1130 -0.1537
 5952W        W10152   1.525   4.495   3.380 -0.0578  0.2244  0.0945
 5953W        W10153   9.702   7.948   0.161 -0.2279  0.0776 -0.1971
 5954W        W10154   9.229   1.592   1.622 -0.2299 -0.0539 -0.1448
 5955W        W10155   7.316   5.329  11.496  0.2311 -0.1774  0.1969
 5956W        W10156   7.859   9.046   2.755  0.0569  0.0034 -0.2065
 5957W        W10157   6.525   3.462   4.271  0.2784  0.0128  0.0919
 5958W        W10158   6.904   0.964   0.823 -0.0955  0.1026 -0.0632
 5959W        W10159   0.961   0.334   2.605 -0.0454  0.2811  0.1016
 5960W        W10160   3.036   5.025  10.264  0.1670 -0.3709  0.1181
 5961W        W10161   0.767   5.630   4.366 -0.1086 -0.1692  0.2751
 5962W        W10162   8.145   1.736  11.175  0.0448 -0.1643  0.1854
 5963W        W10163   1.363   7.787  11.107 -0.1307 -0.1459  0.3754
 5964W        W10164   0.840   9.891  13.349  0.1525  0.1493 -0.1977
 5965W        W10165   6.704   3.825  12.681  0.4116 -0.0756 -0.2108
 5966W        W10166   1.551   0.239   2.470 -0.3428  0.1239 -0.0286
 5967W        W10167   5.589   4.986   3.151 -0.0573  0.1385 -0.1930
 5968W        W10168  10.287   0.653   3.722 -0.1149  0.1085 -0.1192
 5969W        W10169  10.156   6.055   8.968 -0.0678 -0.1525  0.1874
 5970W        W10170   0.454   2.024   3.234 -0.1492  0.1977 -0.0391
 5971W        W10171   5.528   0.462   1.057  0.1012 -0.0287  0.2400
 5972W        W10172   0.051   4.449   8.464 -0.0713  0.0816 -0.3563
 5973W        W10173   6.559  10.439   1.958 -0.1072  0.0119 -0.2814
 5974W        W10174   2.664   6.415   2.472  0.0109 -0.2507 -0.0594
 5975W        W10175   8.991   3.653   9.363 -0.1675  0.1228  0.1499
 5976W        W10176   1.236   1.713  10.190 -0.0751 -0.0730  0.0028
 5977W        W10177   6.376   2.619  12.465  0.0387  0.0148 -0.3966
 5978W        W10178   0.320  10.074   5.448 -0.1860 -0.1207  0.0195
 5979W        W10179   0.100   0.980   2.948  0.0395 -0.3143 -0.2528
 5980W        W10180   5.866   4.004  10.286 -0.0438  0.1096  0.0713
 5981W        W10181   9.550  10.285  12.942  0.4540  0.0671 -0.0084
 5982W        W10182   7.778   1.001   2.855 -0.2134  0.2281  0.2623
 5983W        W10183   6.875   5.360   1.974  0.1838  0.0017  0.1798
 5984W        W10184   7.787   7.201  10.173 -0.0784 -0.0291  0.1512
 5985W        W10185   7.190   8.954   1.635 -0.2380 -0.1045 -0.4305
 5986W        W10186   2.040   9.400   1.709  0.1562  0.0706 -0.1134
 5987W        W10187   3.739   3.245   3.612  0.2824 -0.0564 -0.0909
 5988W        W10188   3.382   2.285  10.752  0.1584  0.1409  0.0168
 5989W        W10189   7.177   1.940   3.805  0.1098  0.0426 -0.1831
 5990W        W10190   3.989   4.458   4.484  0.0552  0.0694 -0.0823
 5991W        W10191   6.839   3.516  11.961 -0.3045 -0.2283 -0.2159
 5992W        W10192   1.424   3.814  13.066  0.1710 -0.0039 -0.2018
 5993W        W10193   5.327   6.468   4.175  0.1621 -0.0687  0.0753
 5994W        W10194   1.540   5.455  10.017  0.1579  0.5016  0.0633
 5995W        W10195   8.611   0.240  13.238  0.3161  0.0433  0.0463
 5996W        W10196   2.697   1.006   4.021  0.0374 -0.2212 -0.2121
 5997W        W10197   5.571   2.859   0.824 -0.2255  0.0396  0.0247
 5998W        W10198   8.102   3.034   1.182  0.0121  0.1417  0.0117
 5999W        W10199   4.820  10.229  10.052 -0.1354 -0.1612 -0.0665
 6000W        W10200   6.423   7.474   3.919  0.2438 -0.0429 -0.1996
 6001W        W10201   8.560   4.505   9.336 -0.1335 -0.1088 -0.2116
 6002W        W10202   5.127   3.371  11.510  0.0633  0.3365  0.2293
 6003W        W10203   2.202   3.570   2.646  0.2871  0.0146 -0.0156
 6004W        W10204   9.832   5.581   3.599  0.1606 -0.1019  0.2862
 6005W        W10205   7.705   7.954   3.423 -0.0125  0.0267  0.1829
 6006W        W10206   3.954   7.619   1.758  0.0229  0.1035  0.0389
 6007W        W10207   9.680   0.820   2.649  0.1402 -0.0037 -0.1341
 6008W        W10208  10.115   3.563   9.021  0.1403 -0.0780  0.4174
 6009W        W10209   0.263   0.170   9.580  0.5989 -0.0767 -0.0110
 6010W        W10210   6.829   8.293   3.423 -0.1131 -0.1975  0.1873
 6011W        W10211   4.505   0.207   4.111  0.1962  0.2719  0.0196
 6012W        W10212   8.399   3.204  12.716  0.0376 -0.0066 -0.1636
 6013W        W10213   4.000   6.573  12.921  0.2020  0.2548 -0.0282
 6014W        W10214   2.873   1.604   8.227 -0.3261  0.2720  0.0958
 6015W        W10215   2.504   6.997  11.534  0.1437  0.0450 -0.1355
 6016W        W10216   8.013   1.365   9.321 -0.1342 -0.1572  0.2488
 6017W        W10217   2.289   2.861  11.360  0.0772 -0.1440  0.1045
 6018W        W10218   9.813   2.095  10.384  0.1546 -0.2471  0.0818
 6019W        W10219   3.207   6.357   9.821 -0.2653  0.0409 -0.2796
 6020W        W10220   4.434   8.688   1.697  0.1079 -0.3968  0.2815
 6021W        W10221   1.845   2.742  12.578 -0.4749 -0.3216  0.0340
 6022W        W10222   2.703   6.206   9.953 -0.0007  0.0365  0.0641
 6023W        W10223   6.029   2.374   1.163 -0.0841  0.1307  0.2212
 6024W        W10224  10.203  10.330   4.486  0.2665  0.1593  0.0115
 6025W        W10225   3.027   9.080   0.630  0.1198 -0.1068  0.2400
 6026W        W10226   2.185   3.343   2.127 -0.0298  0.1031  0.1230
 6027W        W10227   9.504   7.637  11.393  0.3827  0.1237  0.1558
 6028W        W10228   5.473   2.394  11.480  0.4130  0.4264  0.0933
 6029W        W10229   8.737   0.946   9.670  0.1842  0.0961 -0.0276
 6030W        W10230   0.741   4.185   1.222 -0.0774  0.2779 -0.1283
 6031W        W10231   5.513   7.082   1.385  0.2532  0.2443  0.0316
 6032W        W10232   8.744   6.898  10.181 -0.0826 -0.2635  0.0740
 6033W        W10233  10.244   3.689   2.244  0.0073  0.2987  0.0382
 6034W        W10234   7.122   2.566  10.555  0.1498  0.1225 -0.0300
 6035W        W10235   5.845   7.448   1.229  0.2098 -0.0565 -0.1721
 6036W        W10236   6.647   1.852  11.960  0.0536 -0.1358  0.2046
 6037W        W10237   9.268   7.437   2.029  0.0572 -0.0033 -0.2276
 6038W        W10238   7.436   4.727   4.736 -0.2402 -0.0732 -0.0225
 6039W        W10239   6.990   0.949  12.786  0.1522 -0.2141 -0.2158
 6040W        W10240   5.672   2.165   8.589  0.1705  0.2037 -0.0525
 6041W        W10241   1.659   3.120   2.163  0.0272  0.0417  0.2548
 6042W        W10242   1.138   2.876   3.519  0.1588  0.3221 -0.2012
 6043W        W10243   2.511   4.273  10.209 -0.0370  0.3280  0.3236
 6044W        W10244   5.802   9.608  12.392  0.0754  0.0532 -0.1167
 6045W        W10245   7.359   6.148   0.031 -0.0031 -0.4067 -0.0305
 6046W        W10246   5.762   5.004   1.318  0.2241 -0.1705 -0.2252
 6047W        W10247   8.054   5.009   8.791  0.1363  0.0256 -0.2922
 6048W        W10248   1.634   5.232   0.904 -0.2136 -0.1102 -0.0127
 6049W        W10249   7.690   9.376   9.257  0.1334 -0.0239  0.0103
 6050W        W10250   6.672   2.114   4.674 -0.0429 -0.0812  0.1960
 6051W        W10251   7.930   8.246   0.370 -0.1287 -0.0981 -0.0675
 6052W        W10252   5.126   5.389   0.630  0.1811 -0.0723  0.2337
 6053W        W10253   0.578   1.267   1.613  0.0713  0.0850 -0.2728
 6054W        W10254   9.912   8.765   0.698 -0.4145  0.1907  0.0730
 6055W        W10255   9.269   5.163   0.839 -0.0114 -0.0392 -0.0769
 6056W        W10256   9.163   9.584   4.675 -0.0161 -0.2184  0.0631
 6057W        W10257   7.023   8.244   2.970 -0.1218  0.1171 -0.1638
 6058W        W10258   2.913   6.805   4.129  0.1026 -0.1647 -0.3683
 6059W        W10259   5.185   3.679  10.663 -0.1084  0.0025  0.0623
 6060W        W10260   0.338   5.298  12.326 -0.1202 -0.1470 -0.2195
 6061W        W10261   3.578   7.060   3.613 -0.0965 -0.0955 -0.0894
 6062W        W10262   7.921   7.455   0.890 -0.2121  0.0713  0.0053
 6063W        W10263   8.379   9.207   1.521 -0.0233 -0.1721 -0.0763
 6064W        W10264   5.955   0.339   1.790 -0.0134  0.1334  0.0577
 6065W        W10265   1.932   8.442  12.506 -0.1152 -0.1749 -0.0677
 6066W        W10266   2.470   2.313   4.148  0.1267 -0.1507  0.1957
 6067W        W10267   3.938   7.523  12.027 -0.0671  0.0236  0.0653
 6068W        W10268   6.753   5.044  11.826  0.1767  0.3191  0.1715
 6069W        W10269   1.539   5.628  12.592  0.2304  0.0104  0.0894
 6070W        W10270  10.074   8.787   2.210 -0.0491 -0.2565 -0.1411
 6071W        W10271   2.278   8.645  11.044  0.1651 -0.2597 -0.2112
 6072W        W10272   4.432   8.044   3.695 -0.0209 -0.2763 -0.2442
 6073W        W10273   4.496   1.383   0.339 -0.3046 -0.1490  0.2929
 6074W        W10274   8.176   1.489   0.284 -0.0510  0.4243 -0.3313
 6075W        W10275   8.777   6.519   4.170  0.0400  0.1655 -0.2025
 6076W        W10276   8.965   5.279  12.273  0.0066 -0.2114  0.0740
 6077W        W10277   6.182   1.885  12.242 -0.2228 -0.1970 -0.0599
 6078W        W10278   5.405   3.303  10.301  0.1421 -0.1379 -0.3496
 6079W        W10279   6.910   7.173   0.595  0.1025 -0.1766  0.2774
 6080W        W10280   8.846   5.032   4.644 -0.2428 -0.0942 -0.1319
 6081W        W10281   9.473   9.753   0.225  0.2492  0.0129  0.0845
 6082W        W10282   6.794   3.487   0.387 -0.0076 -0.7952  0.0364
 6083W        W10283   9.792   3.336   0.565 -0.2259 -0.1645  0.2166
 6084W        W10284   0.639  10.360   9.733  0.0668 -0.1552  0.1617
 6085W        W10285   8.345   6.353  13.078 -0.4786 -0.0494  0.0682
 6086W        W10286   7.418   4.485  13.415 -0.3571 -0.2771  0.2275
 6087W        W10287   8.496   0.777   0.781 -0.0319 -0.0979  0.3241
 6088W        W10288   7.154   1.593   4.160 -0.0950 -0.1621 -0.0683
 6089W        W10289   8.197   6.419   9.686  0.1358 -0.3499  0.0707
 6090W        W10290   5.806   6.863  10.754 -0.2460 -0.3697 -0.0613
 6091W        W10291   6.017   0.200   2.866 -0.0076  0.2060  0.0656
 6092W        W10292   4.061   8.095  11.183  0.3577 -0.1689 -0.0709
 6093W        W10293   4.412   2.423   3.329  0.1130  0.6242 -0.1657
 6094W        W10294   2.207   2.988   9.106 -0.1764 -0.0707 -0.0052
 6095W        W10295   8.515   6.682  12.628  0.0625  0.3418  0.2982
 6096W        W10296   5.663   3.488   3.162  0.3355  0.1495 -0.0391
 6097W        W10297   1.834   5.871   3.457 -0.2957  0.1255  0.0979
 6098W        W10298   5.976   7.334   3.668 -0.0704  0.1286  0.0903
 6099W        W10299   6.400   8.599   3.269  0.0163 -0.1272  0.2338
 6100W        W10300   6.635   9.525  10.670 -0.0267  0.1556  0.3174
 6101W        W10301   4.520   6.906   2.444  0.0487  0.0549  0.3634
 6102W        W10302  10.089   0.727   3.233  0.0949  0.1188 -0.1337
 6103W        W10303   4.195   3.511  12.573 -0.0429 -0.0667  0.0203
 6104W        W10304   3.914   6.677   3.954  0.2461  0.3048 -0.3527
 6105W        W10305   3.798  10.137  12.465 -0.0952  0.1507  0.2383
 6106W        W10306   7.874   7.375   3.990  0.2960 -0.2368 -0.1278
 6107W        W10307   2.675   3.617  12.975 -0.1193 -0.0022 -0.2986
 6108W        W10308   7.495   8.682   2.890  0.3720  0.1030  0.1546
 6109W        W10309   0.277   3.606   0.458 -0.1566  0.0314  0.1359
 6110W        W10310   9.275   7.839   4.995  0.0220 -0.1369 -0.1548
 6111W        W10311   7.794  10.447   1.897  0.1420  0.1199  0.2543
 6112W        W10312   0.173  10.247   2.019  0.1622 -0.0147  0.2240
 6113W        W10313   0.493   0.258   1.471 -0.1322 -0.1841  0.0624
 6114W        W10314   2.448   5.234   9.837 -0.2265  0.0498 -0.2389
 6115W        W10315   5.407   1.724   4.060  0.1149  0.1098  0.1189
 6116W        W10316   3.630   0.265   4.047 -0.1417  0.2043  0.0805
 6117W        W10317   6.950   4.008  13.053 -0.1536  0.0479 -0.1427
 6118W        W10318   4.962   2.217   9.899 -0.1618  0.2796 -0.0897
 6119W        W10319   3.908   8.767   2.660 -0.0194  0.0585  0.0105
 6120W        W10320   7.284   9.841  12.602  0.3302 -0.1173  0.1514
 6121W        W10321   4.311   3.798   2.859  0.0695 -0.2855  0.1335
 6122W        W10322   1.989   1.554   9.773  0.1028 -0.2601  0.0066
 6123W        W10323   7.009   6.252  10.650 -0.2171 -0.1865  0.0003
 6124W        W10324   4.740   7.389  11.818  0.1096  0.2838 -0.2662
 6125W        W10325   6.536   0.560  10.441  0.3306 -0.0196 -0.1085
 6126W        W10326   5.678   1.971  10.784  0.0287 -0.5041  0.2146
 6127W        W10327  10.439   9.489  11.759 -0.0536 -0.0926  0.1919
 6128W        W10328   2.597   3.807   9.228  0.0161  0.0647  0.2081
 6129W        W10329   2.105  10.212  12.079 -0.1656  0.1078  0.2085
 6130W        W10330  10.453   9.845  10.346 -0.1024 -0.1024 -0.0910
 6131W        W10331   3.742   0.227  12.304  0.3042  0.1896  0.0892
 6132W        W10332   0.898   7.726  11.865 -0.1522  0.0151  0.0154
 6133W        W10333   9.418   0.068  10.517 -0.0798 -0.3547 -0.0119
 6134W        W10334   7.181  10.323  12.838  0.0511  0.2544 -0.0214
 6135W        W10335   4.628   6.370   1.296 -0.3234 -0.0989 -0.0640
 6136W        W10336   5.057   0.622   0.491  0.0247 -0.1375 -0.1774
 6137W        W10337   5.690   2.553   1.497 -0.0754 -0.1384 -0.0862
 6138W        W10338   9.914   0.407   4.760  0.0619  0.2636 -0.1350
 6139W        W10339   1.533   0.136   9.973  0.0851 -0.3348  0.1547
 6140W        W10340   5.579   8.464  11.776 -0.2672 -0.2511 -0.2300
 6141W        W10341   2.139   9.204   0.914  0.2272 -0.1175 -0.1225
 6142W        W10342   0.052   7.151   3.713  0.1039  0.4414  0.1352
 6143W        W10343   6.881   2.038  10.419 -0.1705  0.2122 -0.3308
 6144W        W10344   5.416   2.478   0.483  0.0271 -0.0930 -0.0198
 6145W        W10345   6.031   5.512  10.119 -0.2633  0.0286 -0.1484
 6146W        W10346   7.355   2.748   9.250  0.2698 -0.0275 -0.2272
 6147W        W10347   0.156   5.816  11.649  0.0600  0.0343 -0.2993
 6148W        W10348   4.246   6.972   1.035  0.3095 -0.0621 -0.0739
 6149W        W10349   2.813   4.443   0.139 -0.0242  0.2635 -0.0190
 6150W        W10350   7.858   0.537  12.712  0.0169 -0.0473 -0.0433
 6151W        W10351   5.496   0.714   3.801  0.0321  0.2481 -0.2544
 6152W        W10352   4.198   1.585  11.051 -0.2180  0.2730  0.2105
 6153W        W10353   9.010   3.837   1.541  0.1751  0.0007 -0.2802
 6154W        W10354   3.512   9.070  10.475 -0.0050  0.0937 -0.1130
 6155W        W10355   9.390   4.774  11.473  0.0038 -0.0991  0.3093
 6156W        W10356   8.375   4.232   0.334  0.2532 -0.2096 -0.2015
 6157W        W10357   3.371   0.486   1.296 -0.1859  0.2266 -0.2911
 6158W        W10358   6.687   3.602   1.085 -0.0686  0.0511  0.1559
 6159W        W10359   0.347   7.039  10.094 -0.1584  0.2288  0.0540
 6160W        W10360   9.186   8.986   4.562  0.0778  0.0848  0.1224
 6161W        W10361   6.679   9.145  12.227 -0.1433  0.1200 -0.4230
 6162W        W10362   3.252   2.212   4.512 -0.1192 -0.1475 -0.0260
 6163W        W10363   1.981   7.791  11.400  0.1311  0.1669 -0.2850
 6164W        W10364   3.760   2.123   8.544 -0.1103  0.0442 -0.2503
 6165W        W10365   0.315   8.610  11.780 -0.0618  0.1912 -0.1879
 6166W        W10366   2.129   2.313   8.921 -0.1021  0.4112 -0.1075
 6167W        W10367   6.732   2.842   0.452  0.4810  0.2509 -0.1022
 6168W        W10368   1.338   3.023  11.357  0.1211 -0.0635 -0.0972
 6169W        W10369   6.498   4.329  11.023 -0.2996 -0.1525  0.2214
 6170W        W10370   4.298   1.124  10.134 -0.1503 -0.0304 -0.0747
 6171W        W10371   8.088   6.171  12.697 -0.0465  0.1231 -0.0373
 6172W        W10372   5.352   5.227   1.601  0.2777 -0.0716  0.0555
 6173W        W10373   1.804   8.357   4.352 -0.1614 -0.6052  0.2834
 6174W        W10374   4.467   2.397   9.699 -0.2100  0.2427 -0.1724
 6175W        W10375   0.543   0.726   0.095  0.0028  0.2270 -0.2103
 6176W        W10376   1.844   1.577   9.245 -0.1435  0.1355  0.1102
 6177W        W10377   8.363   5.921   2.837  0.1966  0.1415  0.3810
 6178W        W10378   6.142   1.969   4.644 -0.0496  0.1001  0.4115
 6179W        W10379   7.759   2.765   2.424  0.2333  0.2943 -0.3443
 6180W        W10380   6.528   5.551   2.298  0.1035 -0.1821  0.0020
 6181W        W10381   6.470   3.811   2.011 -0.0479  0.2285 -0.0142
 6182W        W10382   7.623   3.027   9.625 -0.0298  0.1242  0.3758
 6183W        W10383   5.409   7.680  11.217  0.1574  0.2296  0.0838
 6184W        W10384   1.819   4.828   1.164  0.3165 -0.2238  0.4846
 6185W        W10385   3.545   0.117   4.489  0.0941 -0.0895  0.1910
 6186W        W10386   3.554   5.801   1.413  0.0229  0.0665  0.3365
 6187W        W10387   2.030   2.084   1.689 -0.0839 -0.1580 -0.0303
 6188W        W10388   6.443   4.803  12.185  0.0428  0.0346  0.1677
 6189W        W10389   9.701   9.279   9.630 -0.2493 -0.0932 -0.2948
 6190W        W10390   3.812   1.426   0.515 -0.1111 -0.1346 -0.0411
 6191W        W10391   4.804   7.325   0.827 -0.0716  0.0579  0.0305
 6192W        W10392   1.868   0.618   0.746  0.1520  0.0755 -0.0749
 6193W        W10393   3.043  10.251  13.267 -0.1217  0.3998 -0.2806
 6194W        W10394   4.607   3.156  11.338 -0.0652  0.3810 -0.0020
 6195W        W10395   0.216   7.321   0.175 -0.2110 -0.1024  0.0222
 6196W        W10396  10.305   6.800   5.014  0.0100 -0.3698 -0.0512
 6197W        W10397   1.529   6.913   9.486 -0.3119  0.1219 -0.2070
 6198W        W10398   1.608   0.257   1.708 -0.0336  0.2001  0.1654
 6199W        W10399   1.284   0.918   4.297  0.1144  0.1480 -0.0010
 6200W        W10400   5.263   3.573   2.945 -0.0725 -0.1050  0.4869
 6201W        W10401   5.302   2.390   2.335  0.1851 -0.0815 -0.1540
 6202W        W10402   0.267   2.766   9.111 -0.0643  0.0975  0.1770
 6203W        W10403   9.678   7.416   0.124 -0.4545 -0.0560  0.2244
 6204W        W10404   2.321   8.967  11.962  0.0570 -0.0754 -0.0606
 6205W        W10405   1.527   3.342   3.311 -0.0485 -0.2172  0.0174
 6206W        W10406   7.412   1.957   9.689 -0.3617 -0.3630 -0.0152
 6207W        W10407   0.653   9.057   9.403 -0.5507 -0.1480 -0.1312
 6208W        W10408   8.996   6.041  13.326 -0.2612  0.0633 -0.3820
 6209W        W10409   8.618   5.025  10.205  0.0390  0.2166 -0.3052
 6210W        W10410   8.040  10.379   4.102 -0.1833 -0.3676 -0.1230
 6211W        W10411   3.100   7.886  11.013 -0.2249  0.0152  0.1341
 6212W        W10412   2.157   4.647  11.569 -0.1926 -0.3824 -0.1889
 6213W        W10413   1.995   8.066   2.792  0.0526 -0.1206  0.2289
 6214W        W10414   1.306   1.906   3.346  0.0847 -0.0071  0.0123
 6215W        W10415   9.154   3.799   4.605 -0.0108  0.0061 -0.0162
 6216W        W10416   4.210   7.322  12.493  0.4232 -0.1301 -0.2703
 6217W        W10417  10.336   1.552  10.096  0.0754  0.1794 -0.1233
 6218W        W10418   0.003   2.960  12.768 -0.1653  0.2449 -0.2307
 6219W        W10419   3.985   6.889  12.528  0.0179 -0.0559 -0.1296
 6220W        W10420   4.180   4.939   9.553  0.0983  0.0757 -0.0284
 6221W        W10421   1.112   0.036   9.566  0.2807 -0.2011 -0.1092
 6222W        W10422   9.132   0.526  11.259 -0.3259  0.0613  0.2138
 6223W        W10423   7.433   0.918   0.888 -0.1101 -0.2048 -0.1295
 6224W        W10424   0.929   1.487  13.208 -0.0600  0.0870  0.0139
 6225W        W10425   0.113   3.485   3.688 -0.2010 -0.2075 -0.1243
 6226W        W10426   3.556   6.405   4.238  0.0649 -0.0444 -0.0511
 6227W        W10427   9.846   5.944  11.172  0.3516 -0.1000  0.2149
 6228W        W10428   1.797   0.374  13.349  0.1347  0.2404 -0.1406
 6229W        W10429   3.168   6.329  12.733  0.0076 -0.1780  0.3569
 6230W        W10430   6.504   3.712  10.222  0.1746 -0.2341 -0.1710
 6231W        W10431   4.947   1.649   0.526  0.0381  0.2537 -0.2570
 6232W        W10432   9.215   5.496  10.044 -0.2699 -0.1945  0.1970
 6233W        W10433   4.926   9.580  10.637  0.0260 -0.1994 -0.0204
 6234W        W10434   1.933   9.853  13.285  0.2186 -0.1400 -0.1619
 6235W        W10435   4.237   2.320  10.454  0.0105  0.0564  0.1210
 6236W        W10436   5.460   3.027   3.625 -0.3508  0.0779 -0.0613
 6237W        W10437   0.840   0.861   4.605 -0.0944  0.1977  0.0158
 6238W        W10438   7.999   1.387   0.758 -0.0615 -0.6078  0.1432
 6239W        W10439   9.825   9.865   2.927  0.0767  0.4020 -0.3369
 6240W        W10440  10.342   8.741  10.619 -0.1953  0.0716  0.0664
 6241W        W10441   6.759   0.254   2.707  0.0930 -0.2029 -0.1130
 6242W        W10442   3.621   2.472   0.773  0.2204 -0.2353  0.2372
 6243W        W10443   8.703   0.479   0.427  0.1403 -0.2446  0.2233
 6244W        W10444   9.341   6.050   3.633  0.0614 -0.3270 -0.1226
 6245W        W10445   4.535   6.018   1.711  0.2113  0.3169  0.0406
 6246W        W10446   3.639   7.769  12.383 -0.0702  0.0212  0.0953
 6247W        W10447   8.787   7.820   8.799 -0.1223 -0.0138  0.0133
 6248W        W10448   8.831   6.409  10.377  0.1637 -0.2048 -0.1467
 6249W        W10449   8.560   5.117   8.406 -0.1116 -0.0934  0.2030
 6250W        W10450   3.828   9.243   1.337  0.0569  0.1861  0.1548
 6251W        W10451   8.227   3.869   8.986 -0.0302  0.1424 -0.0668
 6252W        W10452  10.414   9.063   0.700  0.3043 -0.2899  0.1041
 6253W        W10453   0.833   0.734   4.134  0.2906 -0.0977 -0.0466
 6254W        W10454   5.374   8.792  12.143 -0.1787 -0.0058 -0.0276
 6255W        W10455   2.524   0.620   0.781  0.0021  0.0980 -0.2384
 6256W        W10456   1.347   8.874  11.506 -0.0597  0.0396 -0.0538
 6257W        W10457   3.267   6.044   8.770  0.0648  0.0073  0.0072
 6258W        W10458   8.887   5.357   3.132  0.3328  0.1362  0.1174
 6259W        W10459   6.979   4.777  12.196 -0.0565  0.5283  0.2602
 6260W        W10460   4.120   4.916   2.904 -0.0999 -0.1367 -0.1051
 6261W        W10461  10.446   7.443   8.921  0.3850 -0.0324 -0.1817
 6262W        W10462   4.495   0.277   1.722 -0.0539  0.1377  0.2030
 6263W        W10463   6.219   9.762  11.096  0.1613  0.0792  0.0137
 6264W        W10464   7.961   3.762   0.236  0.2610 -0.0841  0.0407
 6265W        W10465   5.066   4.964  12.213  0.1941  0.1847 -0.1087
 6266W        W10466   3.824   5.007  12.019 -0.0356 -0.0837  0.1800
 6267W        W10467   1.509   2.098   0.202 -0.1236  0.1427 -0.1363
 6268W        W10468   0.910  10.200   3.562  0.0986 -0.3089  0.0414
 6269W        W10469  10.136  10.402  10.205  0.2172  0.1854 -0.2357
 6270W        W10470   9.736   5.523  11.366 -0.0536  0.0090  0.1253
 6271W        W10471   4.664   5.734   9.319  0.2090  0.0201  0.1849
 6272W        W10472  10.172   1.178   1.210  0.0251 -0.3065 -0.0854
 6273W        W10473   5.724   1.776   0.087  0.2687  0.2333 -0.0879
 6274W        W10474   4.124   5.994   3.933 -0.0231  0.2225  0.1164
 6275W        W10475   2.221   2.537   2.625  0.3265  0.0345  0.2725
 6276W        W10476   8.793   4.604   4.955  0.0318  0.1715  0.0115
 6277W        W10477   2.235   9.661   4.460  0.2687 -0.1341  0.1154
 6278W        W10478   8.529   6.339   3.768 -0.0724 -0.3118  0.1105
 6279W        W10479   5.729   4.224  12.148  0.2052  0.2442 -0.1917
 6280W        W10480   0.952   2.474   0.839  0.2557  0.0884 -0.0921
 6281W        W10481   6.897   8.090   0.109 -0.2455  0.0629  0.0475
 6282W        W10482   2.619  10.442   2.215  0.0275  0.0943 -0.1894
 6283W        W10483   4.433   9.352  10.586 -0.0966  0.2561 -0.1322
 6284W        W10484   0.901   7.677   5.216  0.0058  0.2357 -0.1322
 6285W        W10485   7.602   7.733   2.714  0.0454  0.4416 -0.0205
 6286W        W10486   4.324   5.324   8.097  0.1137 -0.0794  0.0062
 6287W        W10487   9.242   1.996   9.121 -0.1139  0.1538  0.4944
 6288W        W10488   0.977   9.408   9.495 -0.3129  0.2738 -0.2042
 6289W        W10489   4.667   5.576  12.846  0.0453 -0.2772 -0.0346
 6290W        W10490   4.455   7.951   2.371  0.3563  0.2288  0.0901
 6291W        W10491   4.919  10.159   0.492 -0.0014  0.1465 -0.0645
 6292W        W10492   4.420   5.952   9.716  0.0586  0.2350 -0.3340
 6293W        W10493   8.521   5.642   0.920 -0.2486 -0.2271 -0.1881
 6294W        W10494   9.916   8.398   3.402  0.1357  0.3193  0.1478
 6295W        W10495   5.175   9.836   0.257 -0.1246 -0.0416  0.1252
 6296W        W10496   3.687   7.982  13.210 -0.1123 -0.0203  0.3860
 6297W        W10497   2.659   9.672  12.066  0.1300  0.0512  0.0154
 6298W        W10498  10.311   0.087   9.786  0.2811  0.0140 -0.1861
 6299W        W10499   4.760   4.267  12.317 -0.1652 -0.0050 -0.1825
 6300W        W10500   5.897   9.742  10.529 -0.2598  0.1753 -0.3167
 6301W        W10501   6.560   9.131   3.280 -0.2502 -0.0271  0.2908
 6302W        W10502   8.833   5.941   3.694  0.2483  0.0538 -0.1736
 6303W        W10503   6.281   3.508   0.095 -0.1766  0.5346  0.0586
 6304W        W10504   4.514   3.825  10.713  0.0177 -0.1828 -0.5542
 6305W        W10505   4.613   5.662   2.866  0.1915 -0.0558  0.1972
 6306W        W10506  10.365   1.898  10.458  0.2780  0.4543  0.2246
 6307W        W10507  10.069   0.655  11.856 -0.1183 -0.3014 -0.4144
 6308W        W10508   2.004   4.957   2.685 -0.1810 -0.1879  0.1416
 6309W        W10509   9.406   2.908   9.232 -0.2245  0.0514  0.0637
 6310W        W10510   3.411   9.376   2.238 -0.2180 -0.2715  0.1782
 6311W        W10511   2.547   5.610   3.852  0.1658  0.0625 -0.1330
 6312W        W10512   0.107   0.669   9.281 -0.0623  0.0697 -0.1160
 6313W        W10513   8.636   3.596   4.540 -0.3222  0.0252 -0.3614
 6314W        W10514   6.790   4.324  12.459 -0.2536  0.1297 -0.1417
 6315W        W10515   1.205   1.671  11.969  0.3237  0.1506  0.0119
 6316W        W10516   5.977   3.667   9.442 -0.3004 -0.4082  0.5333
 6317W        W10517   7.930   8.148  12.389 -0.1700 -0.2730 -0.0471
 6318W        W10518   9.924   9.721   0.454 -0.0473 -0.2419  0.3307
 6319W        W10519   7.074   7.863  11.983 -0.1275 -0.3100  0.1968
 6320W        W10520   9.549   5.198  11.675 -0.1029  0.1699  0.0018
 6321W        W10521   9.305   3.980  13.148  0.0594 -0.0049  0.1508
 6322W        W10522   2.117  10.352   0.049 -0.1104 -0.0680  0.1787
 6323W        W10523   7.822   6.047   2.784  0.1382 -0.1320 -0.2848
 6324W        W10524   8.254   6.690  10.295  0.1431  0.2816 -0.0424
 6325W        W10525  10.177   8.647   3.760 -0.0725  0.1827  0.0024
 6326W        W10526   9.371   6.180   3.159  0.0126 -0.2059 -0.1956
 6327W        W10527   0.901   8.261   2.418 -0.1255  0.5177  0.1773
 6328W        W10528   2.381   1.480   9.429  0.0236 -0.2664 -0.1753
 6329W        W10529   5.912   9.520  13.102 -0.3126  0.1116 -0.1118
 6330W        W10530   3.081   9.882  10.753 -0.2389  0.0575 -0.1258
 6331W        W10531   7.161   8.240   1.570 -0.1675  0.1613 -0.0728
 6332W        W10532   1.668   8.973   2.994  0.1132 -0.0821 -0.0879
 6333W        W10533   4.545   2.568  10.148 -0.1536 -0.0117  0.0809
 6334W        W10534   1.934   9.027   0.451  0.1709 -0.0997 -0.2150
 6335W        W10535   5.770   6.581   1.522 -0.0899 -0.1230  0.0775
 6336W        W10536   6.747   9.116   0.171 -0.0887 -0.0770  0.1264
 6337W        W10537   3.350   9.570   0.568 -0.0030  0.4676  0.0065
 6338W        W10538   1.654   1.962  13.073 -0.1945 -0.1983  0.2241
 6339W        W10539   7.908   4.760  12.464  0.2239  0.2580  0.0176
 6340W        W10540   5.087   2.382   9.415 -0.1020 -0.1327 -0.1592
 6341W        W10541  10.179   1.222  10.821  0.1264  0.3586 -0.0192
 6342W        W10542   3.861   9.045   0.036 -0.5489  0.0782  0.0690
 6343W        W10543   1.127   1.084  13.003  0.0042  0.0822 -0.0349
 6344W        W10544   2.932   6.040   2.643 -0.1496 -0.2166 -0.2623
 6345W        W10545   1.047   7.778   2.751 -0.2209  0.0402 -0.1947
 6346W        W10546   3.542   3.272  11.841  0.1662 -0.0006 -0.0414
 6347W        W10547   3.781   0.984   4.969 -0.3058  0.1272  0.1701
 6348W        W10548   4.210   0.862  12.136  0.1301 -0.0313  0.0163
 6349W        W10549   3.913   3.439   8.445 -0.1799 -0.0074 -0.2472
 6350W        W10550   9.416   8.266   4.723 -0.0163 -0.3182 -0.1329
 6351W        W10551   9.282   0.396   3.510  0.2845  0.0331  0.2071
 6352W        W10552   1.551   7.821   0.843  0.1055 -0.0352  0.1184
 6353W        W10553   8.970   1.293   2.145  0.2001  0.0825 -0.2948
 6354W        W10554   5.647   9.033  10.641  0.0527  0.0601 -0.0348
 6355W        W10555   5.247   4.184  10.422  0.0205 -0.3173  0.0159
 6356W        W10556   3.252   6.831  10.833  0.0245  0.3182 -0.2402
 6357W        W10557   4.532   6.367   0.397  0.0425  0.2977 -0.0295
 6358W        W10558  10.262   6.467  12.766  0.2086 -0.0402 -0.2448
 6359W        W10559   1.505   1.813   8.326 -0.0886 -0.1043  0.0875
 6360W        W10560   0.748   6.354   4.493 -0.0751 -0.2330  0.0095
 6361W        W10561   4.400   5.225   2.661 -0.0068 -0.1627 -0.0386
 6362W        W10562   0.980   8.490   4.748  0.3024 -0.0035 -0.1428
 6363W        W10563   1.079   2.127   9.092 -0.0554 -0.1918  0.0498
 6364W        W10564   5.163  10.002   1.763  0.1847 -0.0804  0.1314
 6365W        W10565   4.712  10.420   1.380  0.1637  0.2662 -0.0157
 6366W        W10566  10.022   5.457   2.550  0.0571  0.2787 -0.3239
 6367W        W10567  10.336  10.240   9.384 -0.2623 -0.1063  0.1929
 6368W        W10568   9.924   0.869   0.791  0.5556 -0.1594 -0.0647
 6369W        W10569   8.363   8.771   1.946  0.0298 -0.3206  0.4168
 6370W        W10570   2.220   0.811   0.326  0.0897 -0.2039 -0.1592
 6371W        W10571   4.978   3.753  13.098  0.1604  0.2059 -0.3882
 6372W        W10572   0.599   2.671   1.600  0.1507 -0.2226  0.0887
 6373W        W10573   3.154   0.645  11.013 -0.2463  0.0101 -0.0866
 6374W        W10574   0.866   3.093   4.705 -0.0313 -0.3798 -0.2151
 6375W        W10575   9.862   0.078  13.176 -0.1220 -0.0363  0.1106
 6376W        W10576  10.023   4.181   1.356 -0.0190 -0.2440 -0.0085
 6377W        W10577   5.039   3.978   3.230 -0.0313  0.0547 -0.1562
 6378W        W10578   6.009   2.804   4.404 -0.1299  0.0372  0.4291
 6379W        W10579   2.364   8.075   9.263  0.0798  0.0120  0.1498
 6380W        W10580   0.932   4.333   8.968 -0.0034  0.0160 -0.0309
 6381W        W10581   3.637   8.370   0.779 -0.2221 -0.1202 -0.1701
 6382W        W10582   9.507   7.997   2.550 -0.1540 -0.0250 -0.3366
 6383W        W10583   2.842   0.792   9.540 -0.0290  0.2212  0.0124
 6384W        W10584   8.370   7.888   9.074 -0.5114  0.1380  0.0998
 6385W        W10585   2.666   9.952   2.322  0.0803 -0.3479 -0.0931
 6386W        W10586   2.097   2.490   9.448  0.2256 -0.1063 -0.1267
 6387W        W10587   6.381   6.722  10.509 -0.1215  0.0045  0.0472
 6388W        W10588   4.835   4.238   0.344 -0.1516  0.1656  0.0912
 6389W        W10589   7.282   4.261   1.968  0.0915  0.0330  0.1086
 6390W        W10590   3.491   8.995   1.505 -0.0075 -0.1044  0.1896
 6391W        W10591   2.518   2.023   1.753  0.2484  0.3595 -0.0647
 6392W        W10592   8.241   5.651  10.068 -0.1770 -0.1785  0.2225
 6393W        W10593   6.827   3.154   3.552  0.3712 -0.0921 -0.1806
 6394W        W10594   9.796   4.033   8.678  0.0532  0.0307  0.0604
 6395W        W10595   0.107   2.178  10.870  0.2363 -0.4571 -0.0299
 6396W        W10596  10.468   5.094   1.294 -0.1398 -0.0133 -0.0085
 6397W        W10597   1.602   9.558   3.151  0.1703 -0.1273 -0.1528
 6398W        W10598   2.881   1.916  10.143  0.2440 -0.0320  0.2743
 6399W        W10599   0.170   2.220   2.281  0.1405 -0.2142 -0.1603
 6400W        W10600   0.674   3.365   0.672 -0.2399  0.2909 -0.1164
 6401W        W10601   1.444   4.986   3.558  0.2450 -0.0067  0.1293
 6402W        W10602   7.035   0.450  11.347 -0.0652  0.0608  0.2052
 6403W        W10603   5.038   3.613   1.043  0.1319 -0.2034 -0.2091
 6404W        W10604   2.951   4.169   3.024 -0.1286 -0.0427  0.0351
 6405W        W10605   2.012   4.306   3.505 -0.4256 -0.0121  0.3183
 6406W        W10606   5.760   9.199   3.627  0.2792  0.1975 -0.2287
 6407W        W10607   4.050   8.475  10.573  0.1507 -0.2627  0.1792
 6408W        W10608   3.239   4.757  12.851  0.3094  0.0333 -0.2344
 6409W        W10609   2.598   1.652   2.918  0.0604 -0.1696 -0.1866
 6410W        W10610   2.919   5.608  12.118 -0.3043  0.4033  0.2358
 6411W        W10611   4.433   8.161  10.280  0.2969  0.0659  0.2250
 6412W        W10612   8.809   8.532  10.693 -0.2355 -0.0342 -0.1919
 6413W        W10613   7.477   7.642   1.840  0.0907 -0.0624  0.0458
 6414W        W10614   0.496   7.107   0.559 -0.1129  0.1107 -0.0408
 6415W        W10615   8.956   7.777  13.304 -0.0236 -0.0146 -0.2665
 6416W        W10616   1.984   6.341   9.471 -0.2788  0.1664  0.0374
 6417W        W10617   0.374   4.836   2.725  0.4013 -0.0582 -0.3315
 6418W        W10618   9.267   5.579   2.364 -0.0876 -0.0101 -0.1855
 6419W        W10619   9.164   9.233  12.170  0.2855 -0.1392 -0.1007
 6420W        W10620   3.051   2.737   3.692 -0.0368 -0.0142  0.1141
 6421W        W10621   2.247   2.427   1.298 -0.0901  0.0913 -0.0831
 6422W        W10622   0.968   4.389   4.691 -0.0334 -0.1445  0.0421
 6423W        W10623   7.406   0.801   4.164  0.0492 -0.1467 -0.1650
 6424W        W10624   9.172   4.342  11.849 -0.0716  0.1384  0.1752
 6425W        W10625   6.857   7.074  10.969  0.0246  0.1491  0.0747
 6426W        W10626  10.255   2.426  10.224  0.0384 -0.0884 -0.2155
 6427W        W10627   3.016   4.540   2.345  0.1438  0.1371 -0.0097
 6428W        W10628   9.676   7.643   9.748 -0.1523 -0.1081 -0.0609
 6429W        W10629   8.283   9.766  11.881 -0.3050  0.0970  0.2029
 6430W        W10630   8.961   9.343   1.327 -0.2069  0.0954  0.1561
 6431W        W10631   6.114  10.077  13.150  0.1033 -0.0582  0.2433
 6432W        W10632  10.312   1.336  13.172 -0.2547  0.0536  0.1094
 6433W        W10633   8.132   5.033   0.409 -0.1425  0.1209  0.2030
 6434W        W10634   1.578   1.885   4.134  0.2963 -0.0237  0.0740
 6435W        W10635   4.254   3.125   0.594 -0.3536  0.4823 -0.0625
 6436W        W10636   7.356  10.351   3.535  0.0227  0.0551  0.0004
 6437W        W10637  10.135   5.660   1.946 -0.1432 -0.1153  0.0460
 6438W        W10638   3.419   3.402   9.836 -0.0524  0.2268  0.2122
 6439W        W10639   6.369   6.538   0.912 -0.0164  0.0376 -0.0741
 6440W        W10640   1.281   3.530   0.100 -0.0476  0.0524 -0.1123
 6441W        W10641   6.940   1.998   4.285  0.0395  0.0191  0.1627
 6442W        W10642   8.508   8.243  11.145  0.1304  0.1023  0.1577
 6443W        W10643   2.284  10.188   4.517  0.1111 -0.0893  0.1050
 6444W        W10644   1.391   6.783   3.721 -0.1536  0.2106 -0.0367
 6445W        W10645   8.954   1.642   2.574 -0.1191 -0.0405  0.0252
 6446W        W10646  10.191   2.026   3.863  0.1125  0.3596 -0.2225
 6447W        W10647   8.082   2.471  13.304 -0.3388 -0.0753 -0.1875
 6448W        W10648   2.385   0.770  12.277 -0.0801 -0.0745 -0.1159
 6449W        W10649   6.271   1.611   3.932 -0.1014  0.3775 -0.1820
 6450W        W10650   6.870   8.989   2.738 -0.0733 -0.0078  0.1219
 6451W        W10651   8.675   5.584  10.377  0.1410 -0.3263  0.4379
 6452W        W10652   0.984   6.844   9.705  0.2391 -0.1419  0.1129
 6453W        W10653   2.548   8.604   9.375  0.0226 -0.4087 -0.0041
 6454W        W10654   4.014   2.383   9.978  0.0586 -0.1118  0.0069
 6455W        W10655   7.737   3.492   2.097 -0.0001  0.1220 -0.1779
 6456W        W10656   8.260   1.058   2.759  0.1111  0.0194 -0.0352
 6457W        W10657  10.100   6.720   3.983 -0.4239 -0.2120  0.0604
 6458W        W10658   2.075   9.762  12.472  0.1705  0.1504  0.0730
 6459W        W10659   6.848   9.264  10.215 -0.2697  0.1645 -0.2342
 6460W        W10660   7.081   2.635  11.380  0.0486  0.0917  0.2901
 6461W        W10661   7.994   9.977   1.790  0.3920 -0.2120 -0.3946
 6462W        W10662   9.131   0.049  10.060  0.0203  0.0207 -0.0046
 6463W        W10663   1.637   2.840  13.035  0.2903 -0.0144  0.1184
 6464W        W10664   1.112   7.609   0.550  0.2635  0.2215 -0.3129
 6465W        W10665   0.484   3.572  10.128 -0.1346 -0.2456 -0.1723
 6466W        W10666   2.000   2.402   3.396 -0.3923  0.0995 -0.1062
 6467W        W10667   2.298   6.696   0.476 -0.1910 -0.2133 -0.5201
 6468W        W10668   0.302   1.370  13.112  0.0908 -0.4018  0.1418
 6469W        W10669   9.414   5.316  13.418  0.0889 -0.1491  0.0571
 6470W        W10670   2.812   1.409   9.128  0.1467  0.0255  0.0856
 6471W        W10671   1.153   5.126   2.724  0.1053  0.0032 -0.1131
 6472W        W10672   2.927   5.610  12.988 -0.2649 -0.1656  0.0232
 6473W        W10673   2.301   6.289   1.456 -0.1283  0.0656  0.1489
 6474W        W10674   3.606   2.661   5.144  0.1119  0.0648  0.0324
 6475W        W10675   7.401   3.170   4.772 -0.0603 -0.1077  0.2780
 6476W        W10676   2.520   2.840   9.529  0.2496 -0.4002 -0.0270
 6477W        W10677   3.941   1.251  11.353 -0.2715 -0.0443 -0.0899
 6478W        W10678   7.166   4.859  11.574 -0.3080 -0.0216 -0.2167
 6479W        W10679   3.370   5.187   1.629 -0.0674 -0.1252  0.3457
 6480W        W10680   7.724   8.892   9.309  0.2428  0.2965  0.3986
 6481W        W10681   8.709   5.810  11.392  0.1085 -0.0938  0.0111
 6482W        W10682   8.804   1.302  11.580  0.0565 -0.2275  0.1093
 6483W        W10683   5.915   7.768  10.242 -0.1101 -0.1503  0.0563
 6484W        W10684   3.382   4.425  12.493  0.5034 -0.2054  0.1562
 6485W        W10685  10.374   6.185  11.567  0.0135 -0.0784 -0.0589
 6486W        W10686   3.734   0.471   4.777  0.0491 -0.2010 -0.0511
 6487W        W10687   8.274   3.482   4.893 -0.0179 -0.2427  0.0517
 6488W        W10688   9.461   5.682  10.936 -0.0173  0.3131 -0.4097
 6489W        W10689   1.752   5.400   4.357  0.2791 -0.0396 -0.0716
 6490W        W10690   0.865   1.331  12.184 -0.2398  0.0256 -0.1798
 6491W        W10691   6.226   9.088   1.496 -0.2960 -0.1430  0.0630
 6492W        W10692   3.473   1.748  10.894  0.1742 -0.0663 -0.3304
 6493W        W10693  10.446   0.464  12.608  0.2136 -0.0233  0.3664
 6494W        W10694   5.078   5.489  10.878  0.3812 -0.1844  0.1564
 6495W        W10695   8.407   0.836   3.232 -0.3130 -0.3480 -0.3023
 6496W        W10696   2.005   0.576  11.427 -0.0502 -0.2786  0.0165
 6497W        W10697   6.575   3.540   2.943  0.1449 -0.2314 -0.1874
 6498W        W10698   8.604   8.895  10.411  0.1173 -0.3252  0.3625
 6499W        W10699   6.524   3.268   9.364 -0.2137  0.0242  0.2414
 6500W        W10700   3.508   0.281  11.079  0.1084 -0.0089  0.1092
 6501W        W10701   0.891   9.507   4.470  0.2151 -0.1556  0.0085
 6502W        W10702   1.137   8.438  11.235 -0.2466  0.1415  0.2934
 6503W        W10703   3.878   3.488   0.469 -0.0601 -0.1406  0.0334
 6504W        W10704   5.068   4.111   1.265  0.2792  0.4921  0.0219
 6505W        W10705   4.126   0.612  11.758  0.0261  0.2282  0.1396
 6506W        W10706   7.958  10.269  11.720  0.1965 -0.0895 -0.0446
 6507W        W10707   2.346   8.471   2.675  0.3058 -0.0342 -0.3151
 6508W        W10708   1.482  10.089   2.287 -0.0545  0.2028 -0.2078
 6509W        W10709   0.870   7.780   1.687  0.1936  0.0427 -0.0756
 6510W        W10710   0.232   8.608   4.344  0.4720 -0.2092 -0.0553
 6511W        W10711   9.536   7.460   2.551 -0.0283 -0.2286  0.0815
 6512W        W10712   3.720   4.094  13.187  0.2118 -0.0828  0.2015
 6513W        W10713   8.789   4.522  12.941  0.3001  0.0260 -0.1092
 6514W        W10714   5.498   1.004  11.143 -0.3216 -0.1050  0.1709
 6515W        W10715   3.269   9.465  12.260 -0.2468  0.2451  0.4227
 6516W        W10716   5.152   0.770   2.127 -0.1987 -0.4367  0.0643
 6517W        W10717   2.416   0.276   9.949 -0.0815  0.0750 -0.2872
 6518W        W10718   7.245   3.880   9.923 -0.1541 -0.0900  0.1235
 6519W        W10719   7.694   1.218  10.313 -0.0526  0.2579 -0.1684
 6520W        W10720   3.488   0.043  11.489 -0.2326  0.0360  0.0367
 6521W        W10721   8.192   9.171   3.151  0.2125 -0.1624 -0.1313
 6522W        W10722   9.536   1.045   3.031 -0.4432 -0.0769 -0.0713
 6523W        W10723   5.885  10.105   0.911 -0.0330  0.0680 -0.1085
 6524W        W10724   1.445   2.716   0.786  0.4303 -0.2694 -0.0437
 6525W        W10725   9.192   9.905  11.282 -0.0171 -0.2131 -0.2107
 6526W        W10726   3.216   4.099  10.428 -0.0327  0.2330 -0.3825
 6527W        W10727   5.085   2.608   0.835  0.0098  0.2444  0.2934
 6528W        W10728   2.775   1.654   2.378 -0.1331 -0.0234 -0.1215
 6529W        W10729   3.528   2.413   9.770 -0.1872  0.0966 -0.1184
 6530W        W10730   7.764   1.136   4.054  0.1280 -0.1304  0.2287
 6531W        W10731   7.715   0.232  10.141 -0.0246 -0.2012 -0.3536
 6532W        W10732  10.403   1.230   9.235 -0.0815  0.0135  0.2733
 6533W        W10733   6.046   6.565  13.267 -0.1203 -0.0045 -0.2931
 6534W        W10734   8.625   8.028   0.861 -0.1751  0.0139  0.0085
 6535W        W10735   3.529   2.782   3.731 -0.2177  0.1068  0.1116
 6536W        W10736   1.213   9.796  11.974 -0.2890 -0.1001  0.1486
 6537W        W10737   5.702   4.496   1.520 -0.4170  0.0540  0.0908
 6538W        W10738   4.107   1.605  10.036  0.0053  0.2524 -0.0380
 6539W        W10739   0.087   3.061  12.086 -0.0924  0.3071 -0.0046
 6540W        W10740   3.754   5.085   9.423  0.3104  0.2057 -0.1477
 6541W        W10741   9.544   5.243   2.585  0.1848  0.0092  0.0909
 6542W        W10742   6.166   7.563  10.871  0.3003 -0.2521  0.4007
 6543W        W10743   2.375   8.496  10.080  0.0133 -0.2364  0.0004
 6544W        W10744   9.608   8.479  10.121  0.0969 -0.2654  0.4429
 6545W        W10745   0.521   4.823   1.815 -0.3529  0.0484  0.2354
 6546W        W10746   0.626   5.654   0.628 -0.4217  0.1069 -0.0273
 6547W        W10747   6.795   6.692  10.173 -0.1370 -0.0516  0.1401
 6548W        W10748   9.695   0.120  11.876  0.0295 -0.0037  0.0703
 6549W        W10749   0.601   2.808  12.777  0.1328 -0.0015 -0.1289
 6550W        W10750   7.241   4.651   1.595 -0.0905 -0.0037 -0.2296
 6551W        W10751   8.253  10.186   9.548 -0.1968 -0.1765  0.2675
 6552W        W10752   9.314   8.547  11.569 -0.0326  0.0175 -0.1624
 6553W        W10753   5.358   3.635   9.672  0.1663  0.3036  0.1807
 6554W        W10754   8.353   4.637  12.583 -0.0664  0.1797  0.1634
 6555W        W10755  10.101   6.468  10.530  0.0457  0.2332 -0.1067
 6556W        W10756   9.187   0.930   1.306  0.4672 -0.1704 -0.1596
 6557W        W10757   0.827   3.133   8.802 -0.0186 -0.1558  0.1772
 6558W        W10758   7.505   2.222  10.401 -0.1940  0.0644  0.2115
 6559W        W10759   7.729   0.400   3.995  0.0561  0.0798 -0.1252
 6560W        W10760   8.096   6.340   0.557  0.3146  0.1498  0.1726
 6561W        W10761   4.756   3.902   5.131  0.2727  0.5100  0.2729
 6562W        W10762   4.259   0.666  13.171  0.0882 -0.3968 -0.1085
 6563W        W10763   2.556   3.777   1.370 -0.2599  0.0453  0.3085
 6564W        W10764   2.016   3.164  12.845  0.1250 -0.1029  0.1578
 6565W        W10765   5.784   7.775   2.689  0.0816 -0.0476  0.0263
 6566W        W10766   5.375   3.640  11.142 -0.0091 -0.1378  0.2532
 6567W        W10767   0.917   0.214   0.552  0.3111  0.0459  0.1418
 6568W        W10768   0.155   6.590   4.662  0.4193 -0.1069  0.4427
 6569W        W10769  10.210  10.163   2.428 -0.2686 -0.0685  0.2793
 6570W        W10770   5.108   6.486  13.126  0.0943 -0.1209  0.0018
 6571W        W10771   4.960   1.849   4.343 -0.0585 -0.1064  0.4924
 6572W        W10772   3.144   4.557  11.100  0.1559  0.1283 -0.1658
 6573W        W10773   5.856   1.319  12.193 -0.0730 -0.2330 -0.1776
 6574W        W10774   6.623   0.677  12.981 -0.0541  0.0520 -0.2711
 6575W        W10775   0.453   9.152   3.514  0.2013 -0.2621 -0.1769
 6576W        W10776   8.404   5.743   3.958  0.1272 -0.2610  0.3090
 6577W        W10777   2.764   7.762   1.789  0.0740 -0.0890  0.1036
 6578W        W10778   8.768   6.571   4.644  0.1504 -0.2076 -0.3142
 6579W        W10779   9.125   4.739   3.581 -0.0463  0.1590 -0.0262
 6580W        W10780   5.002   1.544   2.677 -0.1965  0.1783  0.0803
 6581W        W10781   2.699   4.828  11.328 -0.0011 -0.0547  0.1425
 6582W        W10782   6.946   4.077   0.558 -0.2768  0.1353  0.4642
 6583W        W10783  10.449   2.079   3.265 -0.2860 -0.0310 -0.0734
 6584W        W10784   7.723   3.627   0.749 -0.1707  0.0309 -0.0496
 6585W        W10785   0.017   7.967  11.265 -0.0290  0.2784 -0.1432
 6586W        W10786   6.165   7.435   9.971 -0.2720 -0.2121 -0.1185
 6587W        W10787   5.370   3.448   0.733  0.1197  0.0259  0.2556
 6588W        W10788   2.014   5.434   9.955 -0.0379 -0.0139  0.2999
 6589W        W10789   5.509   9.048   0.372  0.0820  0.1247  0.1437
 6590W        W10790   5.276   9.300  10.849 -0.0403 -0.1433  0.0384
 6591W        W10791   4.928   2.237   4.619  0.0115 -0.0354 -0.1330
 6592W        W10792   5.071   0.717   9.751  0.1092 -0.0074 -0.0643
 6593W        W10793   3.594   3.578   4.885  0.1772  0.2447 -0.1046
 6594W        W10794   5.137  10.308  11.609 -0.3146 -0.3019  0.0511
 6595W        W10795   4.786   4.668   1.745 -0.0128 -0.1844  0.5566
 6596W        W10796   2.206   3.118  12.378 -0.1265  0.0238  0.2456
 6597W        W10797   7.475   9.066   0.348  0.2759  0.1301 -0.1711
 6598W        W10798   5.590   3.211  11.308 -0.1900  0.2960  0.4248
 6599W        W10799   7.122   0.295  11.994 -0.3557  0.0112 -0.0405
 6600W        W10800   2.062   0.837   8.962 -0.0971 -0.0875 -0.1324
 6601W        W10801   2.811   3.878   0.057 -0.3131  0.3200 -0.0149
 6602W        W10802   2.881   9.877   3.553  0.3471 -0.2276  0.1716
 6603W        W10803   8.542   8.312   2.054  0.1049 -0.1445 -0.0601
 6604W        W10804   1.406   3.385   4.751  0.2712  0.1628  0.0264
 6605W        W10805  10.046   3.129   0.031 -0.0142 -0.1115  0.2602
 6606W        W10806   9.258   0.241  11.610 -0.2083 -0.0043 -0.0707
 6607W        W10807   5.047   1.049  13.216  0.1186  0.0156 -0.1263
 6608W        W10808   5.662   2.706   5.619 -0.0005 -0.1988 -0.1356
 6609W        W10809   4.645   0.469  10.813 -0.4298 -0.1947  0.2089
 6610W        W10810   2.415   4.270   2.693 -0.1828 -0.2113  0.0025
 6611W        W10811   0.333   7.268   2.366 -0.1185  0.0968  0.0002
 6612W        W10812   9.572   4.733   0.803 -0.0529  0.0262  0.0530
 6613W        W10813   0.934   6.548  10.280 -0.0134 -0.1273 -0.1093
 6614W        W10814   0.540   3.008   3.159  0.0798 -0.1255 -0.3230
 6615W        W10815   0.443   5.084  11.346  0.0992  0.0629  0.1108
 6616W        W10816   8.062   4.029  10.876  0.0922 -0.0743  0.2512
 6617W        W10817   3.081   4.038   9.042 -0.3781 -0.2985 -0.1766
 6618W        W10818   3.423   0.600  10.525  0.2064 -0.0801  0.1475
 6619W        W10819   5.394   3.755  10.221  0.1816 -0.2007 -0.0384
 6620W        W10820   1.877   9.062  12.285 -0.1223  0.3707 -0.0950
 6621W        W10821   4.521   0.747   4.185 -0.0860  0.1831  0.2185
 6622W        W10822   8.448   6.882   3.912 -0.1073  0.1487 -0.0188
 6623W        W10823   9.121   1.924   1.237 -0.2093 -0.3325 -0.0698
 6624W        W10824   3.414   9.593  11.760  0.1491 -0.1925  0.0725
 6625W        W10825   5.851   8.848  13.321 -0.1923  0.0171  0.3257
 6626W        W10826   7.352   5.336  12.888 -0.0370  0.0895 -0.1604
 6627W        W10827   4.314   1.296  11.946 -0.0102  0.0300  0.2293
 6628W        W10828  10.099   4.819   3.414  0.2234 -0.3202 -0.2114
 6629W        W10829   9.517   2.825   1.349 -0.1221  0.2185 -0.3601
 6630W        W10830   6.248   9.302   1.986 -0.0024 -0.1538 -0.1130
 6631W        W10831   6.636   2.752   2.243  0.0342  0.0075  0.1243
 6632W        W10832   4.654   8.991   1.139 -0.1096  0.1572 -0.1240
 6633W        W10833   0.654   1.374   8.709 -0.0284 -0.0143 -0.1443
 6634W        W10834   5.161   2.466   1.851 -0.3429  0.2143 -0.0503
 6635W        W10835   6.827   0.116   1.127  0.1613 -0.1276 -0.0809
 6636W        W10836   5.207   0.962   0.784 -0.0438 -0.1975 -0.0827
 6637W        W10837   7.618   2.172   1.431 -0.1531  0.1926  0.2057
 6638W        W10838   5.312   5.290  10.221 -0.1194 -0.0574 -0.2944
 6639W        W10839   9.667   5.354  12.851 -0.1148  0.1109  0.1019
 6640W        W10840   7.012   5.172  10.707  0.0229  0.0740  0.0215
 6641W        W10841   9.725   5.135   3.535 -0.0729  0.1583  0.0029
 6642W        W10842   7.699   1.018  10.862  0.0575  0.2197 -0.2102
 6643W        W10843   5.037   3.460  10.028 -0.1163 -0.1163 -0.0562
 6644W        W10844   8.841   5.052   5.192 -0.1220 -0.0179 -0.0544
 6645W        W10845   7.778   1.570   3.781 -0.1967  0.0958  0.3433
 6646W        W10846   1.777   5.802  13.002 -0.0850 -0.1538  0.1000
 6647W        W10847   6.687  10.159   1.513  0.5546  0.2354 -0.1697
 6648W        W10848   2.695   8.617   3.367 -0.3135  0.3647  0.0760
 6649W        W10849  10.309   2.581   9.195  0.0405  0.2657 -0.2394
 6650W        W10850   4.400  10.321   0.475 -0.0140 -0.0338  0.3399
 6651W        W10851   2.442   3.386   3.563  0.2027  0.0901 -0.0396
 6652W        W10852   4.035   6.708   0.610  0.2296 -0.1557 -0.2630
 6653W        W10853   9.234   7.080   9.794  0.4577 -0.0632 -0.1842
 6654W        W10854   5.698   2.587   2.070  0.0755 -0.0632 -0.2572
 6655W        W10855   1.986   0.211   9.662  0.0355 -0.0320  0.0169
 6656W        W10856   5.270   3.530   1.514  0.0800  0.3962 -0.3690
 6657W        W10857   7.851   8.086  10.638  0.0647  0.1518  0.0248
 6658W        W10858   7.631   0.600   0.401  0.1793 -0.0060 -0.0062
 6659W        W10859   6.930   4.687  13.222 -0.0713  0.0070 -0.2614
 6660W        W10860   4.042   4.655  11.655 -0.0320  0.0993  0.0113
 6661W        W10861   7.140  10.045   9.637  0.2925  0.1915 -0.0809
 6662W        W10862   0.683   2.240   0.430  0.0179 -0.1725 -0.2286
 6663W        W10863   5.221   3.279  13.139 -0.2102 -0.2721 -0.4893
 6664W        W10864   3.911   5.863  11.639  0.1241 -0.1385  0.0814
 6665W        W10865   2.734   2.641   0.526  0.4665 -0.2629 -0.0200
 6666W        W10866   0.856   6.399   0.120  0.0881 -0.2103 -0.0071
 6667W        W10867   4.279   4.835  10.651  0.1784 -0.0997 -0.0124
 6668W        W10868   2.669   1.779  11.427  0.0917 -0.0534 -0.0121
 6669W        W10869   4.396   0.261  13.444  0.1349  0.0563  0.0902
 6670W        W10870   5.934   2.398  12.356 -0.1589 -0.1397  0.0707
 6671W        W10871   3.764   5.609  10.287 -0.0160 -0.3866 -0.1706
 6672W        W10872   8.309   1.288   3.928 -0.3977  0.0946 -0.0595
 6673W        W10873   2.583   0.739  12.751  0.0750  0.1575 -0.0609
 6674W        W10874   8.691   1.788   2.971  0.6137 -0.1990  0.2288
 6675W        W10875   3.755   0.739  12.232  0.0676 -0.0986 -0.0386
 6676W        W10876   4.181   6.538   5.258  0.1289  0.1014 -0.1254
 6677W        W10877   4.116  10.398   1.811 -0.1626 -0.2649  0.0739
 6678W        W10878   2.547   4.388  12.188  0.0851  0.2675 -0.2863
 6679W        W10879   9.055   1.319   9.703  0.1648  0.2199 -0.4819
 6680W        W10880   2.412   0.555   2.736  0.1472 -0.1629  0.0505
 6681W        W10881   2.280   2.169  11.941  0.2644  0.0572 -0.0790
 6682W        W10882   7.182   9.932   0.805 -0.2401 -0.0741 -0.0881
 6683W        W10883   5.331   7.904  12.445  0.0931 -0.0119  0.0018
 6684W        W10884   2.106   7.845   2.059 -0.1041  0.2367 -0.0114
 6685W        W10885   6.627   3.886   4.635  0.0764  0.0601  0.0470
 6686W        W10886   4.701   6.920   3.334 -0.0521  0.0560  0.0812
 6687W        W10887   2.067   4.292  11.954  0.0365 -0.0534  0.1971
 6688W        W10888   0.490   5.060   9.916 -0.1224  0.0575 -0.0955
 6689W        W10889   9.636   0.378  11.138  0.2644 -0.2342 -0.2522
 6690W        W10890   8.540   9.497   0.313  0.1093  0.0482 -0.2077
 6691W        W10891   4.040   2.187   0.877 -0.1433 -0.2622 -0.2772
 6692W        W10892   8.282   3.485  12.346 -0.1549 -0.3148 -0.1312
 6693W        W10893   1.374   3.156   9.061 -0.0159  0.0690  0.1279
 6694W        W10894   9.387   1.680   5.076  0.0490  0.0924  0.0359
 6695W        W10895   1.342   2.149  10.574  0.1678  0.1474  0.2167
 6696W        W10896   3.940   3.339  11.063 -0.1273  0.2083 -0.3473
 6697W        W10897   1.720   8.487   1.521  0.1808  0.1852 -0.0833
 6698W        W10898   0.924   7.170   2.365 -0.1290 -0.2093 -0.0806
 6699W        W10899   3.095   0.510   0.454 -0.2502 -0.2009  0.3269
 6700W        W10900   6.106   6.093  10.135  0.4939 -0.1571 -0.1824
 6701W        W10901   9.285  10.160  11.749 -0.0970 -0.0948  0.0531
 6702W        W10902   8.808   7.658  10.874 -0.2071 -0.0834 -0.5259
 6703W        W10903   1.885   8.025   9.055 -0.0099  0.1696 -0.0579
 6704W        W10904   9.695   0.619   1.574  0.1445  0.0388  0.1673
 6705W        W10905   6.486   1.387  10.599 -0.1220  0.3174 -0.2440
 6706W        W10906   6.895   6.317   0.001  0.0057  0.3229  0.2173
 6707W        W10907   1.572   5.168  11.022 -0.0959 -0.0277 -0.2628
 6708W        W10908   5.791   4.011  12.605 -0.1178 -0.1041  0.0636
 6709W        W10909   4.278   9.069  12.697 -0.2882 -0.0849 -0.1928
 6710W        W10910   5.570   5.086  11.461  0.4348  0.1194 -0.1720
 6711W        W10911   9.562   5.087   0.439  0.2074  0.3670 -0.4020
 6712W        W10912   5.876   4.535  12.649 -0.1950  0.2356  0.0330
 6713W        W10913   7.556   3.290  12.615  0.0917  0.0536 -0.1549
 6714W        W10914   9.586   7.119  11.643 -0.2367 -0.3608 -0.4823
 6715W        W10915   4.253   0.935   9.294  0.0632 -0.2698 -0.1367
 6716W        W10916   3.984   6.120   3.459  0.0855  0.0578 -0.1045
 6717W        W10917   7.677   0.444   9.179 -0.3080 -0.1182  0.1772
 6718W        W10918   6.307   4.773   4.380  0.0999  0.1162 -0.1342
 6719W        W10919   0.056   8.475  11.325  0.0269 -0.0536  0.1590
 6720W        W10920   9.253   3.246   1.336 -0.0998 -0.2250 -0.1101
 6721W        W10921   5.780   2.894   9.850 -0.0421  0.0086 -0.0921
 6722W        W10922   8.040   9.119   0.534 -0.1340 -0.2622  0.1056
 6723W        W10923   9.045  10.462   1.111 -0.1022 -0.0502  0.0862
 6724W        W10924   7.486   0.921  11.455  0.2055  0.0863  0.0780
 6725W        W10925   7.466   0.132   2.349 -0.3264 -0.3390  0.0331
 6726W        W10926   3.152   4.553   8.999 -0.4507 -0.2685 -0.2443
 6727W        W10927   2.099   5.379  13.082  0.2651  0.2230 -0.0736
 6728W        W10928   9.872   0.253   9.882  0.0543  0.3137 -0.1485
 6729W        W10929  10.283   9.487  12.258  0.0591  0.1446  0.1324
 6730W        W10930   0.534   2.601   3.510  0.0596 -0.2983  0.0005
 6731W        W10931   8.136   2.424   4.606 -0.1390 -0.1266 -0.0455
 6732W        W10932   9.689   9.733   1.047 -0.0326  0.0444 -0.4024
 6733W        W10933   2.484   9.639   2.677  0.1644  0.0582  0.0628
 6734W        W10934   3.365   1.570   4.232 -0.1039 -0.3468  0.2176
 6735W        W10935   7.583   4.172  12.083  0.3006 -0.3141  0.1915
 6736W        W10936   1.567   5.888   2.582 -0.2662 -0.0472  0.1910
 6737W        W10937   6.125   2.261   9.470  0.3537  0.1041 -0.1765
 6738W        W10938   6.702   7.359   2.989  0.1869 -0.1327  0.2148
 6739W        W10939   8.548   0.946   1.933 -0.1279  0.0306 -0.1799
 6740W        W10940   1.577   9.531   2.352  0.0684  0.0539 -0.1258
 6741W        W10941   5.016   7.577   3.713  0.0725  0.1031 -0.2806
 6742W        W10942   3.543   7.483   8.953 -0.0910  0.1501 -0.0484
 6743W        W10943   4.263   9.597   0.677  0.0528 -0.1559 -0.1313
 6744W        W10944   3.644   4.619   9.600  0.0798 -0.0780  0.0746
 6745W        W10945   9.801   3.678   9.437 -0.1500  0.3908 -0.1239
 6746W        W10946   3.442   5.317   9.081 -0.0663 -0.2679  0.0552
 6747W        W10947   8.928   4.676   0.808  0.1770  0.0183  0.3643
 6748W        W10948   2.839   3.430  12.517 -0.0256  0.2212 -0.0043
 6749W        W10949   9.454   2.256   2.077  0.1080 -0.1750 -0.1845
 6750W        W10950   6.431   1.023  12.643  0.2795 -0.2194 -0.0688
 6751W        W10951   9.171   3.774  11.795  0.1113 -0.0374  0.0080
 6752W        W10952   8.907   3.142  11.863 -0.2336  0.1143  0.1146
 6753W        W10953   9.209   0.790   3.864 -0.1730 -0.0615 -0.0780
 6754W        W10954   9.519   4.136  10.928 -0.0313 -0.3092 -0.1540
 6755W        W10955   5.702   3.252   9.534 -0.0447  0.0275 -0.1935
 6756W        W10956   9.162   6.131  11.650 -0.1225 -0.0939  0.0454
 6757W        W10957   7.019   3.475  12.815 -0.2062 -0.1924 -0.1812
 6758W        W10958   9.205   8.230  10.555 -0.0456  0.1267 -0.0135
 6759W        W10959   7.082   0.763   1.795  0.1423  0.2032 -0.0695
 6760W        W10960   9.262   7.226   4.322  0.1498  0.0249  0.0059
 6761W        W10961   0.646   4.428  12.429 -0.1175  0.0806  0.1285
 6762W        W10962   9.835  10.443  10.866  0.0210  0.1966  0.1375
 6763W        W10963   7.835   3.468  13.298 -0.1012  0.1022 -0.1395
 6764W        W10964  10.182   4.667   9.597 -0.2779 -0.0559 -0.0289
 6765W        W10965   5.198   8.842  12.826 -0.2630  0.0856 -0.0769
 6766W        W10966   6.047   7.125  13.146  0.2526  0.1850  0.2651
 6767W        W10967   0.873   7.482   4.273 -0.4065  0.1150 -0.3213
 6768W        W10968   7.799   5.468  10.686 -0.2103  0.3106  0.3473
 6769W        W10969   2.818   5.895   9.097 -0.1645 -0.5359 -0.0434
 6770W        W10970   2.952   9.362   9.371 -0.0121 -0.4683 -0.0099
 6771W        W10971   8.544   9.038   0.662  0.1861  0.1360 -0.0417
 6772W        W10972   4.449   0.933  10.514 -0.0817 -0.2701 -0.1680
 6773W        W10973   2.278   5.118  11.275  0.0842 -0.1139 -0.0808
 6774W        W10974   3.863   5.467  13.422  0.0154  0.0780  0.2961
 6775W        W10975   6.921   1.458  10.311 -0.0488  0.0165 -0.1166
 6776W        W10976   6.277   3.348   1.602  0.3971  0.2298  0.1265
 6777W        W10977   5.846   8.756  12.245  0.1021 -0.3081 -0.1230
 6778W        W10978   5.620   6.564  10.096 -0.1755 -0.1032  0.3838
 6779W        W10979   3.487   8.491   2.842  0.1547  0.0706  0.0783
 6780W        W10980   3.902   3.633   1.750 -0.0425 -0.0945  0.1226
 6781W        W10981   7.787   9.676  12.588  0.1245 -0.1101 -0.0531
 6782W        W10982   1.153   5.759   9.909 -0.2316 -0.1905 -0.0370
 6783W        W10983   0.490   6.077   0.416  0.0402 -0.3315  0.2352
 6784W        W10984   0.121   7.805   0.029  0.1409  0.0358 -0.1492
 6785W        W10985   4.665  10.467   3.119  0.2445 -0.1718 -0.0251
 6786W        W10986   1.402  10.187   0.684  0.1054  0.0068 -0.4025
 6787W        W10987   2.983  10.284  10.526 -0.2938  0.0287 -0.4183
 6788W        W10988   8.040   9.246  11.599 -0.3776 -0.1854 -0.0939
 6789W        W10989   6.744   6.340  12.923  0.0020 -0.3993 -0.1058
 6790W        W10990   5.883   2.412   0.640  0.2708 -0.0014  0.0695
 6791W        W10991   6.929   8.971   9.681 -0.1832  0.0653 -0.2058
 6792W        W10992   2.165   7.293  13.128  0.0084  0.1743  0.1249
 6793W        W10993   0.347   8.309   0.985 -0.1660  0.0716  0.3321
 6794W        W10994   8.530   4.934  11.681 -0.0973 -0.0892 -0.1946
 6795W        W10995   7.021   1.429   2.695  0.0685 -0.1814  0.1618
 6796W        W10996   8.865   0.406   9.712 -0.0994  0.0565 -0.1821
 6797W        W10997   3.063   7.286   1.844  0.0482 -0.1354  0.0585
 6798W        W10998   7.513   6.147   0.520  0.1042  0.0934  0.1948
 6799W        W10999   0.598   0.834  12.207  0.0973 -0.2513  0.1622
 6800W        W11000   5.505   8.698  10.323 -0.0719  0.1252  0.0220
 6801W        W11001   5.999   4.150   3.317  0.0500 -0.0556 -0.1655
 6802W        W11002   8.982   2.964   0.062 -0.2506 -0.0915 -0.4171
 6803W        W11003   4.334   2.023  13.065 -0.2163 -0.4431 -0.0898
 6804W        W11004   2.133   4.955  10.302 -0.0279 -0.4384  0.5133
 6805W        W11005   0.799   2.600   3.949 -0.1155  0.0116 -0.0556
 6806W        W11006   7.335   6.035  12.218  0.1450 -0.1523  0.1944
 6807W        W11007   3.499   3.746   2.505 -0.2151 -0.1029  0.2627
 6808W        W11008   6.623   7.064   3.784 -0.0132 -0.1725  0.0690
 6809W        W11009   7.869   6.776   1.394 -0.3053  0.0751 -0.2698
 6810W        W11010   0.330   7.363   5.627  0.3389 -0.3057  0.1262
 6811W        W11011  10.101   6.450   2.590  0.1043  0.2074  0.0699
 6812W        W11012   7.002   3.463   4.675 -0.1171  0.1829  0.4327
 6813W        W11013   4.469  10.146  10.493 -0.1614 -0.0050  0.1143
 6814W        W11014   6.153   8.417  12.573 -0.1130 -0.0891  0.0494
 6815W        W11015   8.585   3.729   2.955  0.1502  0.3437 -0.0436
 6816W        W11016   0.289   0.794  13.005 -0.0765 -0.2592  0.0089
 6817W        W11017   4.921   1.644   9.188 -0.2389 -0.1525  0.3064
 6818W        W11018   2.968   0.574   2.090 -0.0586 -0.1342 -0.0441
 6819W        W11019   4.450   5.715   1.197  0.0097 -0.2220  0.0207
 6820W        W11020  10.026   1.740  13.068 -0.1328  0.1393 -0.1293
 6821W        W11021   5.911   0.991   3.729  0.1115 -0.1692 -0.2115
 6822W        W11022   9.754   5.410   1.553  0.0306  0.0207  0.0799
 6823W        W11023   1.796   2.817  11.138 -0.0104 -0.2348 -0.3881
 6824W        W11024   1.916   1.123   9.449 -0.1524 -0.4457 -0.0386
 6825W        W11025   5.440   8.460   3.031  0.0198 -0.0114 -0.0065
 6826W        W11026   0.206   0.832   0.478 -0.0997  0.0675  0.0250
 6827W        W11027   1.149   5.418  11.908 -0.1922 -0.2405 -0.3115
 6828W        W11028   2.004   3.204   3.780 -0.0716 -0.0376 -0.2271
 6829W        W11029   0.590   8.899   3.996 -0.0220 -0.0405  0.0322
 6830W        W11030   4.892  10.125   2.290  0.3891 -0.1196 -0.0035
 6831W        W11031   5.836   5.448  11.233 -0.1698 -0.4901 -0.0200
 6832W        W11032   8.523   0.149   2.898 -0.1867  0.2914 -0.1194
 6833W        W11033   9.943   5.302  13.370 -0.1532  0.0096 -0.3228
 6834W        W11034   9.176   7.800   3.968  0.1940  0.1968 -0.0058
 6835W        W11035   0.357   9.001   2.499  0.2784  0.0726  0.0056
 6836W        W11036   6.902   6.751   0.890  0.0231  0.1720  0.2753
 6837W        W11037   7.176   1.270  11.196  0.5742  0.0472  0.1187
 6838W        W11038   3.883   5.745   9.803  0.1164  0.1263  0.0287
 6839W        W11039   6.615   3.354  12.400 -0.0931 -0.3251  0.1438
 6840W        W11040   3.075   9.203  11.803 -0.0316 -0.4372  0.3464
 6841W        W11041   1.744   1.693   1.463 -0.1768 -0.0356  0.2751
 6842W        W11042   9.958   9.163   8.782  0.1800 -0.1811  0.0924
 6843W        W11043   8.756   0.758   1.507  0.0373  0.2177 -0.0992
 6844W        W11044   8.494   5.824  13.408 -0.3107  0.0397  0.1210
 6845W        W11045   9.905   2.662   4.404 -0.1933 -0.1522  0.0588
 6846W        W11046   3.101   6.383   3.936 -0.1005 -0.3575 -0.1422
 6847W        W11047   4.185   0.966  12.791 -0.3876  0.0055  0.5289
 6848W        W11048   3.763   9.436  10.979  0.1464  0.3431 -0.3538
 6849W        W11049   2.777   0.100   2.918  0.0457  0.1791  0.0209
 6850W        W11050   5.597   9.167  12.942  0.2164  0.0648  0.0645
 6851W        W11051   5.429   1.016   4.728 -0.0886 -0.2488  0.0191
 6852W        W11052   6.665   2.000  12.561 -0.1867 -0.4359 -0.2331
 6853W        W11053   6.137   2.122   3.708 -0.0319 -0.1901  0.3076
 6854W        W11054   9.966   7.177   4.037  0.4480  0.0983 -0.2711
 6855W        W11055   2.785   7.968  12.294 -0.1633 -0.0565 -0.2944
 6856W        W11056   9.047   5.168   2.615  0.2018 -0.0068  0.2086
 6857W        W11057   9.709   9.822   4.719  0.1441 -0.0100 -0.0405
 6858W        W11058   1.611   4.220   0.568  0.4049  0.1483 -0.2409
 6859W        W11059  10.333   2.707   0.639  0.2252  0.1296  0.1619
 6860W        W11060   6.194   0.243   4.239  0.0091 -0.2023 -0.0425
 6861W        W11061   8.301   1.017  13.162 -0.0666  0.0127 -0.2961
 6862W        W11062   7.666   9.473   0.579 -0.0684 -0.1646  0.0234
 6863W        W11063   8.309   1.231   9.809  0.3088  0.2977  0.1393
 6864W        W11064   8.246   9.935  11.433 -0.0700 -0.2395  0.1825
 6865W        W11065   3.136   3.567  11.077  0.1249  0.0064 -0.1981
 6866W        W11066   5.560   0.763  13.144 -0.4024  0.0498 -0.2107
 6867W        W11067   7.012   5.405   0.976  0.5103  0.1490  0.0390
 6868W        W11068   0.210   9.932   8.544  0.3733  0.3847 -0.5582
 6869W        W11069   8.924   5.517   0.029  0.3402  0.2887  0.0048
 6870W        W11070   7.106   8.339   0.552  0.0255  0.1180  0.0247
 6871W        W11071   4.157   5.429   3.909 -0.1525 -0.1269  0.2891
 6872W        W11072   4.538   2.940  10.559  0.2960 -0.0629 -0.1016
 6873W        W11073   5.739   1.680   4.531 -0.0396 -0.3129 -0.1035
 6874W        W11074   8.687   3.103   3.358  0.1842 -0.1142 -0.1774
 6875W        W11075   6.677   8.607  12.131  0.2018  0.2202  0.1001
 6876W        W11076   9.025   6.080   2.414  0.0577  0.1800  0.2616
 6877W        W11077   8.888   5.701   2.052  0.1541  0.0838  0.3748
 6878W        W11078   1.762   1.446  11.491 -0.2573 -0.1302 -0.1059
 6879W        W11079   2.204   6.786   2.921  0.0239 -0.0624  0.2708
 6880W        W11080   4.297   5.316   0.338 -0.3635 -0.0856 -0.1996
 6881W        W11081   1.196  10.367   2.661  0.0182  0.1040 -0.2780
 6882W        W11082   4.700   0.768  12.993 -0.1891  0.0010  0.1586
 6883W        W11083   7.916   6.272  10.415  0.3116 -0.0282 -0.0211
 6884W        W11084   6.677   7.522  10.003 -0.0023  0.2522  0.1131
 6885W        W11085   0.581   4.466   4.364 -0.3022  0.3603 -0.2520
 6886W        W11086   7.567   9.292  11.749  0.0110 -0.0221 -0.1180
 6887W        W11087   9.399   3.561   1.820 -0.0859  0.0300 -0.0264
 6888W        W11088   6.406   5.293   4.204  0.1111  0.2308  0.0065
 6889W        W11089   1.616  10.226  10.266  0.1098 -0.0151  0.0403
 6890W        W11090   5.414   9.935  11.296  0.4051 -0.1702 -0.1006
 6891W        W11091   8.602   4.337   3.580 -0.0700 -0.2246 -0.0882
 6892W        W11092   4.035   6.309   9.692  0.2377 -0.0285  0.0843
 6893W        W11093   4.481   4.742   3.237 -0.1809 -0.1909 -0.0172
 6894W        W11094   3.815   9.099  11.377  0.1824  0.0073  0.1512
 6895W        W11095   9.217   0.726  13.374 -0.1596 -0.0882  0.0293
 6896W        W11096   8.248   0.340   9.298 -0.2121  0.2327  0.0476
 6897W        W11097   0.914   7.825  12.898 -0.2132 -0.0059  0.1479
 6898W        W11098   6.860   5.586   9.648 -0.1961 -0.0644 -0.3207
 6899W        W11099   5.376   6.384   1.189 -0.2594 -0.0294  0.0022
 6900W        W11100   3.632   8.409  13.002 -0.0169  0.1987  0.0757
 6901W        W11101   0.466   1.854  11.156  0.0646  0.2953  0.0915
 6902W        W11102   3.856   6.478  12.277  0.1234  0.0730 -0.1029
 6903W        W11103   1.064   3.605   1.631 -0.1582  0.4048  0.0307
 6904W        W11104   9.959   7.297   2.691  0.0627  0.3083  0.1472
 6905W        W11105   8.681   7.422   2.768 -0.1180 -0.1835 -0.0763
 6906W        W11106   6.364   7.384  11.327  0.0055  0.0344  0.0461
 6907W        W11107   1.918   8.348   3.877  0.3165  0.0379  0.2871
 6908W        W11108   2.181   7.032   1.096 -0.0184 -0.0105 -0.3786
 6909W        W11109   4.001   3.812   3.778 -0.1646 -0.1228  0.0944
 6910W        W11110  10.104   5.221   3.833 -0.0365 -0.0064  0.1490
 6911W        W11111   6.040   4.004   2.259  0.1666 -0.1619 -0.4183
 6912W        W11112  10.294   2.468   1.664  0.2332  0.0459  0.3004
 6913W        W11113   3.555   8.536  12.521 -0.0721  0.0440  0.1630
 6914W        W11114   3.011   8.069   9.917  0.1047  0.1226  0.3326
 6915W        W11115   4.000   3.540   2.549  0.0343 -0.1152  0.1623
 6916W        W11116   1.346   5.467  13.020  0.3757  0.0299  0.0816
 6917W        W11117   2.991   7.285  10.649 -0.0298  0.3877  0.0166
 6918W        W11118   1.912   3.698   3.547  0.1588  0.4745 -0.0864
 6919W        W11119  10.269   8.026  12.581  0.0587 -0.2940  0.0685
 6920W        W11120   1.609   1.312   4.684 -0.2452 -0.0245  0.2386
 6921W        W11121   3.324   0.410   1.806 -0.2915 -0.0546 -0.1057
 6922W        W11122   3.528   4.834   3.125  0.2688 -0.0998  0.1380
 6923W        W11123   0.753   8.099   3.453 -0.1564 -0.2632  0.2667
 6924W        W11124   2.773   1.473  10.593 -0.1141 -0.2307  0.0673
 6925W        W11125   3.449   1.866  12.841  0.1826 -0.0296 -0.0443
 6926W        W11126  10.112   3.172   3.263  0.0758 -0.0970  0.3343
 6927W        W11127   4.851   0.320   2.825 -0.0193 -0.1675  0.0692
 6928W        W11128   9.219   5.619  11.959  0.0199  0.0435  0.2254
 6929W        W11129   9.555   6.734  12.242  0.1403 -0.1957 -0.0493
 6930W        W11130   8.449   0.385   3.357  0.0391 -0.1617 -0.0362
 6931W        W11131   1.457   3.677   4.317 -0.0084  0.0006  0.0441
 6932W        W11132   8.074   8.141   0.893  0.2440  0.0625  0.1599
 6933W        W11133   9.700   5.260  10.976 -0.0312  0.1162  0.0685
 6934W        W11134   6.751   7.722   2.678 -0.0060 -0.2213  0.0274
 6935W        W11135   3.054   9.957  12.534 -0.1167  0.2480  0.1698
 6936W        W11136   4.055   5.339  11.589 -0.0874  0.1970  0.0223
 6937W        W11137   8.194   6.995  12.384 -0.2222  0.0980 -0.1634
 6938W        W11138   5.955   7.615   3.151  0.2540  0.0195 -0.0242
 6939W        W11139   3.218   1.809   5.350  0.0762  0.1788 -0.0472
 6940W        W11140   5.349   9.942  13.212  0.0443  0.1476  0.1428
 6941W        W11141   4.477   8.261   0.548  0.1303 -0.2093  0.1042
 6942W        W11142   7.569   4.596   3.725 -0.1576 -0.1145 -0.0627
 6943W        W11143  10.181   0.828   0.360 -0.0297  0.1376 -0.0113
 6944W        W11144   4.500   4.168  11.252  0.0389  0.0205 -0.1838
 6945W        W11145   9.486   0.299   4.908  0.1035 -0.2056 -0.3706
 6946W        W11146   4.386   6.905  12.853 -0.3230  0.2367  0.1998
 6947W        W11147   4.315   0.158  10.586  0.3051  0.0118 -0.4107
 6948W        W11148   4.845   8.730   0.757  0.2967  0.0441  0.1877
 6949W        W11149   4.903   1.888   2.974  0.2644 -0.2174 -0.0746
 6950W        W11150  10.112   5.770  11.569 -0.0042 -0.3252 -0.2772
 6951W        W11151   3.251   8.585  10.582 -0.1342  0.1070 -0.3030
 6952W        W11152   1.572   0.925  11.166 -0.0910  0.0069  0.0038
 6953W        W11153   9.034   6.928   0.554  0.5636 -0.0849 -0.0039
 6954W        W11154   1.823   4.543   2.918 -0.0613 -0.1015  0.1131
 6955W        W11155   7.664   4.446   9.409 -0.0154 -0.1451  0.4055
 6956W        W11156   5.451   3.668  12.934  0.3210 -0.1800  0.0658
 6957W        W11157   4.762   8.224   2.603 -0.1926  0.1907  0.0090
 6958W        W11158   1.565   2.646  11.794 -0.0123  0.2158 -0.4276
 6959W        W11159   5.672   0.420  12.178 -0.3926 -0.0908  0.2322
 6960W        W11160   6.968   0.656   1.245 -0.0005  0.2879  0.2720
 6961W        W11161   8.648   6.189   0.855 -0.3327 -0.1020 -0.0611
 6962W        W11162   2.777   8.520   0.459 -0.0485  0.0371 -0.0620
 6963W        W11163   5.348   8.854   0.950  0.1849 -0.1060  0.0955
 6964W        W11164   8.838   7.823   9.341  0.2392 -0.3140  0.0899
 6965W        W11165   7.750  10.147   2.305 -0.2591 -0.3126  0.2575
 6966W        W11166   8.575   4.877   2.657  0.0678  0.0755 -0.1036
 6967W        W11167   0.441   9.195  11.821 -0.1828 -0.0697  0.1090
 6968W        W11168   7.546   2.153  11.906  0.1719 -0.2359 -0.0103
 6969W        W11169   2.161   1.443   1.218 -0.1976 -0.0904  0.2663
 6970W        W11170   5.832   1.658  11.765  0.1309  0.0266  0.1087
 6971W        W11171   1.183   2.655   4.328 -0.1564  0.1540 -0.0117
 6972W        W11172   2.708   7.547   9.326 -0.2628 -0.1561 -0.0482
 6973W        W11173   6.938   3.093   3.048 -0.0733  0.0938  0.0668
 6974W        W11174   5.128   5.375  11.390  0.1408  0.0155 -0.0433
 6975W        W11175   5.005   4.565  12.723 -0.1409  0.0678  0.5208
 6976W        W11176   0.655   3.080   3.653 -0.1073  0.1932 -0.0967
 6977W        W11177   2.525   2.964  13.282  0.1817 -0.0520  0.2206
 6978W        W11178   9.710   5.810   9.356  0.2299  0.6705  0.2363
 6979W        W11179   6.600   3.153  11.548  0.0153  0.0732  0.0329
 6980W        W11180   1.849   5.341  10.468  0.0697 -0.2228  0.0899
 6981W        W11181   7.376  10.143   3.102 -0.2627 -0.1923  0.0200
 6982W        W11182   6.864   0.669   3.092  0.0514 -0.1997  0.1440
 6983W        W11183   4.969   1.514  13.424  0.0169 -0.0599  0.1005
 6984W        W11184   3.669   8.827   3.153  0.0562 -0.0647 -0.0973
 6985W        W11185   1.127   7.944   4.865  0.4402  0.0060 -0.1477
 6986W        W11186   3.023   8.267   0.802  0.3055 -0.3716  0.2103
 6987W        W11187   0.791   3.643  12.355  0.1857 -0.0854 -0.1998
 6988W        W11188   3.554   7.893   3.620 -0.0310 -0.1942  0.3080
 6989W        W11189   2.237   0.273   1.056  0.0729  0.0258 -0.1335
 6990W        W11190   2.210   6.537   2.455  0.0849  0.1192 -0.1455
 6991W        W11191   5.072   5.017   3.118  0.1611 -0.0249 -0.2181
 6992W        W11192   8.642   1.889   0.434  0.0324 -0.1885  0.1199
 6993W        W11193  10.182   8.337  10.991 -0.2045  0.1391 -0.0912
 6994W        W11194   9.722   6.201  10.687  0.0042 -0.0316 -0.0833
 6995W        W11195   5.836   2.928   3.205  0.0643  0.0650 -0.4044
 6996W        W11196   4.826   3.013   2.179 -0.2419 -0.2088  0.2222
 6997W        W11197   3.859   7.536  10.282  0.1155  0.2171  0.2048
 6998W        W11198   6.843   4.689   0.755  0.0744 -0.2745 -0.0379
 6999W        W11199   2.360   3.928   3.693 -0.0231 -0.0484 -0.1103
 7000W        W11200   6.226   4.194   9.532  0.2387  0.0993  0.2868
 7001W        W11201   1.965   4.564   2.406 -0.0015  0.2356 -0.3404
 7002W        W11202   3.882   5.162  10.993 -0.0406 -0.2438 -0.0286
 7003W        W11203   0.213   3.963   1.242 -0.1104 -0.0719 -0.2243
 7004W        W11204   1.291   0.392   2.979  0.1828  0.2349  0.3036
 7005W        W11205   5.941   1.904  10.305 -0.2134 -0.0003 -0.4361
 7006W        W11206   3.742   2.252   3.511  0.1554 -0.0856 -0.0445
 7007W        W11207   5.646   8.247   2.562  0.0788 -0.0449  0.3007
 7008W        W11208   2.608   8.040  10.230  0.0539  0.0500 -0.0138
 7009W        W11209   0.957   7.008   4.503 -0.0776  0.2081 -0.1459
 7010W        W11210   9.417   2.815  11.647  0.1165 -0.4565  0.0029
 7011W        W11211   8.029   4.450  12.095 -0.2060 -0.1540  0.2347
 7012W        W11212   9.859   6.668   4.890  0.3157  0.3289  0.0979
 7013W        W11213   2.004   6.350   0.874 -0.2196 -0.2464  0.0747
 7014W        W11214   6.164   3.089  12.765 -0.0209 -0.1199  0.0938
 7015W        W11215   1.701   9.073   9.904 -0.0640  0.2912  0.0131
 7016W        W11216   1.520   9.005   9.048  0.2898 -0.0542 -0.1070
 7017W        W11217   7.062   1.781   0.605  0.0428  0.0060  0.0113
 7018W        W11218   1.595   9.113   0.872 -0.1677  0.1280  0.2757
 7019W        W11219   6.671   7.474  10.767  0.1229 -0.1007  0.3392
 7020W        W11220   7.154   9.028   1.160 -0.0327 -0.1027 -0.1974
 7021W        W11221   5.132   3.950   0.609 -0.1491 -0.4230  0.3446
 7022W        W11222   2.130   2.597   1.736  0.0838 -0.2917  0.1834
 7023W        W11223   2.447   1.861   9.116 -0.0534  0.0012 -0.1612
 7024W        W11224   3.893   9.425  10.425 -0.3966  0.0658 -0.1596
 7025W        W11225   0.266   1.819   3.645 -0.0862 -0.0832  0.3172
 7026W        W11226   3.561   0.654   3.295 -0.0242 -0.0880 -0.0769
 7027W        W11227   9.399   5.597   3.900  0.2189  0.0839 -0.0725
 7028W        W11228   7.662   5.569  11.891 -0.2054  0.0562  0.0033
 7029W        W11229   3.541   5.338   3.007  0.4119  0.0740 -0.0528
 7030W        W11230   4.493   6.487   4.561 -0.0881  0.0095 -0.0432
 7031W        W11231   2.772   5.786  11.508  0.0125 -0.0243 -0.2905
 7032W        W11232   3.667   7.023  10.893 -0.1054 -0.0918 -0.0294
 7033W        W11233   9.442   3.108   2.121  0.0584  0.0462  0.2841
 7034W        W11234  10.120   9.991   4.856 -0.2918  0.1344  0.0153
 7035W        W11235   4.041   1.055   1.558 -0.0645  0.2305 -0.0561
 7036W        W11236   6.890   5.912  13.110 -0.0219 -0.1009 -0.0539
 7037W        W11237   9.740   8.625   3.936 -0.0154 -0.0928 -0.0819
 7038W        W11238   3.123   9.136   1.892 -0.0309  0.2629  0.2163
 7039W        W11239   7.105   1.229  12.399  0.0363  0.2636 -0.2166
 7040W        W11240   9.452   0.654   5.262  0.0296 -0.0467  0.3673
 7041W        W11241   2.628   3.767   2.825 -0.0171 -0.1159 -0.0466
 7042W        W11242   4.319   2.401  10.947  0.0254 -0.3820 -0.0552
 7043W        W11243   0.714   3.620   3.384 -0.2052 -0.1853  0.0520
 7044W        W11244   0.543   3.012  11.865  0.1310  0.0436  0.0773
 7045W        W11245   1.455   4.349   2.505  0.0523  0.1968  0.1232
 7046W        W11246   4.488   6.792  10.445 -0.2986 -0.1906  0.1036
 7047W        W11247   9.984   1.513   4.101  0.0975 -0.3737 -0.3556
 7048W        W11248   7.830   8.579  13.167  0.1872 -0.1580  0.1839
 7049W        W11249   1.390   1.331   1.282 -0.0562  0.2249 -0.0865
 7050W        W11250   7.066   2.317  11.771  0.4874  0.2583 -0.3708
 7051W        W11251   6.180   0.084   0.533  0.3043 -0.1297 -0.0142
 7052W        W11252   3.414   3.124  12.922 -0.0050 -0.2483  0.1606
 7053W        W11253   5.429   4.272  11.696  0.0529 -0.2591 -0.0268
 7054W        W11254   3.423   4.903  12.308  0.1031  0.3221  0.1066
 7055W        W11255   9.957   0.268   1.793  0.0700 -0.4041 -0.3629
 7056W        W11256   7.986   9.461  12.115  0.2657 -0.1446 -0.0946
 7057W        W11257   9.293   7.362   3.743  0.0844  0.1470 -0.0332
 7058W        W11258   0.719   1.692   0.626 -0.1288  0.2531 -0.2469
 7059W        W11259   4.696  10.454  10.901 -0.0830 -0.2002  0.1103
 7060W        W11260   2.169   5.271   0.151  0.1887  0.0262 -0.1868
 7061W        W11261   1.932   6.062  12.393  0.1471 -0.0662  0.1817
 7062W        W11262   6.179   8.424   3.998 -0.0279  0.2220  0.0859
 7063W        W11263   1.539   2.384  12.747 -0.1059 -0.0140 -0.0945
 7064W        W11264   7.847   9.637   3.461  0.0338 -0.0979  0.3323
 7065W        W11265   2.001   9.184   3.454 -0.1525 -0.3157 -0.3124
 7066W        W11266   8.472   1.747  13.114  0.0687  0.1243  0.0917
 7067W        W11267   0.138   9.167  10.392 -0.2367  0.1663  0.0736
 7068W        W11268   4.453   9.472  11.866 -0.0072 -0.1392 -0.2336
 7069W        W11269   0.396   3.137   1.886  0.2315  0.1842 -0.0386
 7070W        W11270  10.024   0.387  12.336  0.5702 -0.0426 -0.1598
 7071W        W11271   4.122   2.462   2.430  0.1154 -0.2766 -0.0256
 7072W        W11272   7.132   0.139   9.770 -0.4835  0.0246 -0.3553
 7073W        W11273   9.744   1.806   0.512 -0.2419 -0.1582  0.5104
 7074W        W11274   9.378   4.734   9.952 -0.3410 -0.2045 -0.2722
 7075W        W11275   5.781   2.590   9.403  0.0970 -0.0456 -0.3473
 7076W        W11276   2.375   1.945   1.209 -0.3008 -0.0254 -0.0758
 7077W        W11277   5.270   0.978  10.125  0.0214  0.1188 -0.0329
 7078W        W11278   6.426   4.326   2.125  0.3010 -0.1875  0.1243
 7079W        W11279   9.827   6.060   2.883  0.1348  0.3854  0.1313
 7080W        W11280   9.373   7.549   0.978  0.0758 -0.0400  0.2563
 7081W        W11281   6.652   0.106  11.120 -0.1146  0.4216  0.0184
 7082W        W11282   6.593   4.419   4.536 -0.2443 -0.0711 -0.1597
 7083W        W11283   3.372   7.727  10.470  0.2562 -0.0865  0.2222
 7084W        W11284   1.358   6.842   2.376  0.4128  0.0829 -0.1918
 7085W        W11285   3.646   3.920   1.165 -0.3415  0.1546 -0.0530
 7086W        W11286   0.795   1.657   2.008  0.0761 -0.0597  0.1147
 7087W        W11287   8.671   4.735   4.310  0.2598 -0.2061  0.1371
 7088W        W11288   3.356   1.076   9.750 -0.1083  0.0858  0.2196
 7089W        W11289  10.292   4.270   3.896 -0.3519 -0.0537  0.0689
 7090W        W11290   0.444  10.223   3.751  0.2386  0.0489 -0.0155
 7091W        W11291   9.272   1.091  10.744  0.1333  0.1214  0.1813
 7092W        W11292   0.762  10.148   2.590 -0.0360  0.1629 -0.3100
 7093W        W11293   0.358   7.223   9.269  0.0077  0.0404  0.4155
 7094W        W11294   4.779   5.013  11.007  0.2762  0.5107  0.0734
 7095W        W11295   9.887   3.709   1.481  0.1554  0.0908  0.0042
 7096W        W11296   9.646   5.468   2.079  0.0371 -0.2557  0.3383
 7097W        W11297  10.105   7.998   9.527  0.2226 -0.2325 -0.0187
 7098W        W11298   4.668   1.381   3.123 -0.1419 -0.2279 -0.1198
 7099W        W11299   2.192   9.468   9.263 -0.0657 -0.1386  0.2016
 7100W        W11300   3.040   0.787   1.618  0.1251  0.2861 -0.0537
 7101W        W11301   3.771   3.851   4.240 -0.1009  0.2930  0.2836
 7102W        W11302   3.282   2.076   1.259 -0.1004 -0.2494  0.0817
 7103W        W11303   0.961   5.065   3.849 -0.0191 -0.0556  0.1619
 7104W        W11304   7.641   6.432   4.735 -0.0388  0.1950 -0.0398
 7105W        W11305   6.540   1.902   3.184 -0.0039  0.2434  0.0633
 7106W        W11306   3.666   3.437   1.376  0.0499 -0.1100  0.0521
 7107W        W11307   9.994   4.283   3.521 -0.0549 -0.1948 -0.2007
 7108W        W11308   6.062  10.353   1.990  0.1962  0.0097  0.1437
 7109W        W11309   4.208   6.311   2.062  0.1615 -0.0430  0.1089
 7110W        W11310   8.609   0.107  10.055  0.1640  0.0230 -0.0377
 7111W        W11311   9.637   3.516  13.188  0.1510  0.2305  0.2233
 7112W        W11312   3.103   0.750  12.810 -0.0589  0.0192 -0.1264
 7113W        W11313   0.203   7.446  13.042 -0.2709  0.0786 -0.1076
 7114W        W11314   4.029   3.529   4.587  0.2369 -0.1959 -0.1535
 7115W        W11315   9.552   2.586   4.903 -0.2270  0.0248  0.0815
 7116W        W11316   2.666   6.958   2.457  0.3291 -0.0621 -0.1712
 7117W        W11317   0.144   7.402   9.751 -0.0311 -0.0410  0.0578
 7118W        W11318   8.454   9.197   2.284 -0.0521  0.0602 -0.0554
 7119W        W11319   0.053   5.799   0.561  0.1244  0.0266  0.0517
 7120W        W11320   9.026   3.952  12.227 -0.0002  0.1312 -0.1826
 7121W        W11321   4.375   2.776  11.417  0.0522  0.0556  0.3175
 7122W        W11322   1.469   4.165   0.028  0.3810 -0.3135 -0.0944
 7123W        W11323   7.479   5.652   0.653  0.0380  0.0195 -0.0597
 7124W        W11324   1.923   4.773   8.737  0.2173  0.0320 -0.1728
 7125W        W11325   4.830   4.279  11.662  0.0038  0.1123 -0.1778
 7126W        W11326   2.706   2.794  10.461 -0.0175  0.4364 -0.1572
 7127W        W11327   5.719   9.561  11.021  0.0735  0.0590  0.0266
 7128W        W11328   7.347   3.893   3.124 -0.3457  0.0270 -0.1599
 7129W        W11329   2.196   2.702  11.931  0.1202  0.2219 -0.0828
 7130W        W11330   4.579   7.416   3.566  0.0121  0.4546  0.2107
 7131W        W11331   7.434   7.999  12.301  0.3835 -0.2363 -0.1206
 7132W        W11332   8.677   6.914   0.157  0.0914 -0.1737 -0.1441
 7133W        W11333   8.619   3.869   0.215  0.1241 -0.2346 -0.0835
 7134W        W11334   4.214   5.299   2.184 -0.2862 -0.2175  0.2418
 7135W        W11335   9.231   7.897  11.859 -0.4425  0.2092 -0.0040
 7136W        W11336   5.158   0.136   3.298 -0.0955 -0.0907 -0.1931
 7137W        W11337   8.268   1.025   4.577  0.2556 -0.0742 -0.1229
 7138W        W11338   7.855   4.347  11.170 -0.1480 -0.2552 -0.0434
 7139W        W11339   4.566   5.778   8.850  0.0466 -0.0362 -0.1767
 7140W        W11340   1.755   3.587  12.667 -0.2886 -0.1701  0.0957
 7141W        W11341   6.291   5.922   0.905  0.1390  0.6530 -0.1841
 7142W        W11342   3.583   5.666   8.705 -0.1430 -0.0308 -0.0801
 7143W        W11343   0.324   8.392   9.777  0.1605  0.0523  0.0688
 7144W        W11344   6.214   2.552   1.910 -0.1454 -0.0739 -0.1026
 7145W        W11345   6.276   9.817   0.153 -0.1840 -0.0113 -0.1355
 7146W        W11346   7.407   1.573  12.165  0.2270  0.1350  0.0515
 7147W        W11347   5.104   9.695  10.147  0.3365 -0.0565 -0.0667
 7148W        W11348   7.556   5.020   4.007 -0.0045 -0.0098 -0.3391
 7149W        W11349   2.485   7.544  11.978 -0.0176  0.2728 -0.1366
 7150W        W11350   1.461   0.311   8.928  0.0490  0.0172  0.1380
 7151W        W11351   1.979   7.701   1.079  0.0739 -0.3447  0.1435
 7152W        W11352   9.178   6.044   8.136 -0.3280 -0.2987 -0.2532
 7153W        W11353   9.431   4.004   9.040  0.0544 -0.2984  0.1591
 7154W        W11354   0.589   9.173  10.661  0.0703  0.0198 -0.0242
 7155W        W11355   5.280   3.812   2.445 -0.0444 -0.0665 -0.0419
 7156W        W11356   2.038  10.107   3.709  0.0324  0.0894 -0.0679
 7157W        W11357  10.256   3.329   1.375  0.2107 -0.0679 -0.0573
 7158W        W11358   2.605   3.280   1.366 -0.0765  0.2226 -0.0830
 7159W        W11359   4.686   0.938   2.918 -0.0790 -0.1569 -0.1442
 7160W        W11360   2.237   5.921   1.091 -0.0083 -0.0937 -0.3277
 7161W        W11361   5.371  10.081   0.855 -0.0043  0.1250  0.1557
 7162W        W11362  10.392   6.097  13.265 -0.3476  0.1029  0.0620
 7163W        W11363   7.878   1.339  11.411  0.1076 -0.3220 -0.0994
 7164W        W11364   8.248   2.471   2.448  0.2962 -0.0146 -0.3501
 7165W        W11365   6.061   4.266   4.729 -0.4059 -0.1724 -0.0216
 7166W        W11366   0.061  10.228   0.854  0.1420  0.0727  0.1944
 7167W        W11367   1.046   2.813  11.666 -0.0666 -0.0205  0.1358
 7168W        W11368   5.313   6.598   3.451  0.1756  0.0354  0.0220
 7169W        W11369  10.002   7.498   9.355 -0.0372  0.1206  0.2730
 7170W        W11370   6.749   0.552   3.538  0.0134  0.0661 -0.0491
 7171W        W11371   7.728   2.065   3.898  0.2136  0.1746 -0.0280
 7172W        W11372  10.229   0.713  13.195  0.1938 -0.0571  0.0453
 7173W        W11373   4.861   8.178  11.993 -0.1731 -0.2256  0.0142
 7174W        W11374   7.367   6.547   3.996  0.0056  0.1715 -0.0810
 7175W        W11375   9.762   1.410   3.657  0.0227  0.0010  0.0852
 7176W        W11376   4.245   1.486  12.799  0.1176  0.3275  0.0785
 7177W        W11377   2.993   2.104  11.198  0.2329 -0.1417  0.1447
 7178W        W11378   0.705   2.666   4.520  0.0163 -0.0662  0.1648
 7179W        W11379   7.619   7.381  11.098  0.1461  0.1910  0.1187
 7180W        W11380   7.930   5.873  13.196 -0.1043  0.0265 -0.4461
 7181W        W11381   0.441   8.689   0.689  0.0829  0.1466 -0.2831
 7182W        W11382   5.419   9.228  11.903  0.0128  0.0588  0.1117
 7183W        W11383   6.425   0.084  11.586 -0.1864 -0.0605 -0.0530
 7184W        W11384   4.443   0.280  12.944  0.1204 -0.0375 -0.0127
 7185W        W11385   4.113   9.907   2.050  0.0265  0.0379 -0.0316
 7186W        W11386   7.795   5.786  10.299 -0.2111  0.4216  0.1945
 7187W        W11387   0.879   8.428   0.952  0.1013 -0.3003  0.0601
 7188W        W11388   9.524   4.608   7.864 -0.1593 -0.0279  0.1703
 7189W        W11389   9.725   9.787  10.081 -0.1051  0.1628  0.0344
 7190W        W11390   5.031   9.074  12.305  0.1868  0.1356 -0.1605
 7191W        W11391   8.984   0.253   9.197  0.1085 -0.4592 -0.0849
 7192W        W11392   9.392   4.834   9.096  0.0651 -0.0106 -0.0812
 7193W        W11393   8.640   8.946   1.185  0.1608 -0.4263 -0.0610
 7194W        W11394   2.959  10.373  12.200 -0.1627  0.2609 -0.1039
 7195W        W11395  10.033   3.967   2.558 -0.4254  0.2272  0.0425
 7196W        W11396   0.636   6.080   3.028  0.0357  0.0117 -0.3202
 7197W        W11397   3.026   9.818  13.019  0.0533  0.0823  0.1580
 7198W        W11398   2.476   1.728   4.034  0.0838  0.1335  0.1208
 7199W        W11399   8.726   2.038   0.930  0.0550 -0.0775  0.1455
 7200W        W11400   8.376   5.176   4.435 -0.2499 -0.2801  0.2258
 7201W        W11401   0.022   1.529  12.733 -0.1457 -0.0609  0.2333
 7202W        W11402   2.894   5.029   2.419 -0.0820  0.3266  0.3125
 7203W        W11403   3.164   6.797  10.330 -0.0144 -0.0952  0.2047
 7204W        W11404   9.777   3.081   4.116  0.0833  0.0711 -0.0281
 7205W        W11405   9.984   2.494  13.443  0.0909  0.4544 -0.3583
 7206W        W11406   9.129   3.980   0.160 -0.0735  0.0976  0.5825
 7207W        W11407   8.747   3.637  12.556 -0.2286  0.1267 -0.1661
 7208W        W11408   9.289   2.267  11.523 -0.1502 -0.1377 -0.3454
 7209W        W11409   3.582   6.126   2.815 -0.3556 -0.0470  0.0688
 7210W        W11410   0.558   7.528   8.864 -0.0179  0.1813  0.0529
 7211W        W11411   8.330   1.285  11.224 -0.1138 -0.1582  0.1265
 7212W        W11412  10.405   5.295  12.827  0.0673  0.1185 -0.1991
 7213W        W11413   1.787   6.999   4.452 -0.1651 -0.1715 -0.1129
 7214W        W11414   8.910   5.913   0.405 -0.1074 -0.0216 -0.0081
 7215W        W11415   6.890   3.408   5.514 -0.1331 -0.1497 -0.0282
 7216W        W11416   8.687   0.658   9.279  0.0236 -0.2472 -0.2119
 7217W        W11417   9.011   8.528   8.729 -0.0233 -0.4376  0.0513
 7218W        W11418   4.547   3.555   1.049  0.0980  0.2836  0.1045
 7219W        W11419   6.476   2.120   2.298  0.1334  0.0176  0.0927
 7220W        W11420   0.870   9.977   1.607  0.1224  0.0860  0.0900
 7221W        W11421  10.194   6.251   4.692  0.2241  0.2395 -0.3116
 7222W        W11422   5.780   1.302   4.211  0.0411  0.0565  0.1303
 7223W        W11423   4.376   7.568   3.167  0.0320 -0.2499  0.1670
 7224W        W11424   5.426   5.706   3.336 -0.0322 -0.2204  0.2633
 7225W        W11425   0.366   1.017  11.397  0.0878 -0.2216  0.0899
 7226W        W11426   3.262   5.411   3.475  0.1470  0.0407 -0.1197
 7227W        W11427   2.035   6.136   2.732  0.0401 -0.0755  0.1030
 7228W        W11428   2.342   5.543   1.418  0.0631 -0.0715  0.1307
 7229W        W11429   2.354   7.754  10.976  0.2029 -0.2784 -0.4021
 7230W        W11430   0.927   2.508  12.511 -0.0026  0.0011 -0.0224
 7231W        W11431   6.199   2.671   9.968 -0.1148 -0.2751 -0.3387
 7232W        W11432   4.076   6.038  12.788 -0.1960  0.0883 -0.2328
 7233W        W11433   8.851   9.727   0.650  0.0040 -0.1546  0.0544
 7234W        W11434   1.609   7.383  11.363 -0.0868  0.0447  0.0541
 7235W        W11435   7.064   5.431  13.356  0.1531  0.3131  0.1417
 7236W        W11436   4.122  10.254  11.522 -0.1202  0.1133  0.0119
 7237W        W11437   9.715   5.574   4.679  0.2586 -0.1130 -0.2509
 7238W        W11438   1.367   1.714   1.880 -0.2640 -0.3325 -0.3569
 7239W        W11439   2.783   5.844   3.420  0.0642 -0.1753  0.1300
 7240W        W11440   7.998   1.784  12.707  0.2023  0.0500  0.0502
 7241W        W11441   8.246   7.793  12.636  0.3505  0.4640  0.0374
 7242W        W11442   8.082   3.239   8.928 -0.0002 -0.2763 -0.0570
 7243W        W11443   3.308   7.440  10.969  0.3963 -0.1109  0.2455
 7244W        W11444   3.529   6.137  11.429  0.0918 -0.0122  0.0123
 7245W        W11445   7.907   4.317   0.099 -0.1532  0.1069 -0.2799
 7246W        W11446   1.277   5.554   2.936  0.0779 -0.0936  0.1179
 7247W        W11447   8.161   7.136   3.560 -0.3992 -0.1630  0.3048
 7248W        W11448   5.624   3.557   4.351 -0.0813  0.2512  0.1958
 7249W        W11449   4.704   4.683   2.244 -0.2756  0.0331 -0.0650
 7250W        W11450   5.615   6.642  13.069  0.0321 -0.1076 -0.0701
 7251W        W11451   3.538   7.475  13.115  0.1434 -0.2902 -0.0070
 7252W        W11452   5.744   4.182   9.365 -0.2743 -0.2851  0.2218
 7253W        W11453   5.422   7.225  10.771  0.4611 -0.1572 -0.0042
 7254W        W11454   0.900   9.369  12.731 -0.2726  0.1729 -0.1222
 7255W        W11455   6.922   6.406   3.968 -0.2005 -0.0425  0.0536
 7256W        W11456   3.506   4.089   1.828 -0.1620  0.3756 -0.2815
 7257W        W11457   1.521   6.678  12.949 -0.0815  0.0064 -0.3562
 7258W        W11458   0.982   0.254   1.644  0.2303 -0.0528  0.1502
 7259W        W11459   9.554   9.443   3.836 -0.0545  0.0410 -0.2862
 7260W        W11460   3.388   3.252   0.527  0.2409 -0.0318 -0.1485
 7261W        W11461   8.276   2.427   3.258  0.2481  0.0318  0.1601
 7262W        W11462   5.821   4.021   9.803  0.0202 -0.0245  0.2169
 7263W        W11463   6.637   1.078   1.934  0.2839 -0.2423 -0.3012
 7264W        W11464   1.748   6.443  11.487  0.1533 -0.0951  0.0466
 7265W        W11465   7.575   1.761  13.090 -0.0349  0.2431  0.0865
 7266W        W11466   9.360   9.565   1.977  0.0381  0.0540  0.1834
 7267W        W11467   4.700   2.640  13.227  0.0311 -0.0610 -0.0234
 7268W        W11468   9.388   2.659   9.816 -0.0775  0.1005  0.2094
 7269W        W11469   2.484   0.230  12.697 -0.0384 -0.1174 -0.1384
 7270W        W11470   0.556   6.870   2.635 -0.0941 -0.0066  0.0369
 7271W        W11471   6.188   0.289  12.385  0.3356  0.0555  0.0864
 7272W        W11472   1.079   8.031  11.507 -0.4577 -0.1044  0.0270
 7273W        W11473   9.446   7.996  10.997  0.0949 -0.0156 -0.0969
 7274W        W11474   6.682   6.306   1.981  0.0919 -0.0642 -0.0596
 7275W        W11475   4.379   0.155  11.213  0.1451  0.1003  0.1621
 7276W        W11476   0.855   1.520  11.251  0.0063 -0.2512 -0.1453
 7277W        W11477   3.075   7.324   3.811 -0.2887 -0.0104  0.0615
 7278W        W11478   7.986   0.696  10.587  0.2645  0.2202  0.0155
 7279W        W11479   5.577   0.819   9.677 -0.0951  0.2167 -0.3408
 7280W        W11480   2.100   1.973   9.522 -0.0903 -0.0132 -0.2831
 7281W        W11481  10.458   5.363  11.326 -0.1453  0.0937 -0.1216
 7282W        W11482   4.351   9.896  13.254 -0.1705 -0.0399  0.3593
 7283W        W11483   4.493   8.077  10.857 -0.0053 -0.0265 -0.0809
 7284W        W11484   4.340   3.014  12.701  0.0049 -0.0501 -0.2655
 7285W        W11485   6.204   7.559   1.868 -0.0178  0.0970 -0.1594
 7286W        W11486   9.636  10.331  10.147 -0.2007  0.1161 -0.0404
 7287W        W11487  10.249   4.287  10.500  0.1440 -0.0543  0.1311
 7288W        W11488   6.587   1.110  11.606 -0.0173  0.2042  0.0515
 7289W        W11489   1.258   4.053   1.267  0.0243 -0.0329 -0.1099
 7290W        W11490   3.344   1.571   0.707 -0.0699  0.3120  0.1416
 7291W        W11491   8.696   7.201   1.791 -0.1221  0.0066 -0.1694
 7292W        W11492   5.429   4.833   4.442 -0.2580  0.0928 -0.0389
 7293W        W11493   9.357   9.794  10.416  0.3554  0.0075 -0.1205
 7294W        W11494   1.149   7.686   2.080 -0.0093  0.2583 -0.1053
 7295W        W11495   7.789   0.170   0.090 -0.1055  0.0598 -0.1099
 7296W        W11496   0.348   1.275   2.226  0.4349 -0.2572 -0.3783
 7297W        W11497   6.954   5.385  10.126  0.0356  0.0474  0.2095
 7298W        W11498   9.682   5.816   2.446 -0.2875  0.1609  0.0039
 7299W        W11499   0.749   1.211  11.666  0.2124 -0.0893 -0.3235
 7300W        W11500   1.035   6.906  12.812 -0.0410  0.2161  0.1946
 7301W        W11501   2.637   9.764   1.006 -0.0597 -0.1428  0.2195
 7302W        W11502   5.720   8.131   0.411 -0.0724  0.1368 -0.3054
 7303W        W11503   4.488   8.973  12.134  0.1893 -0.0950  0.2672
 7304W        W11504   4.429   2.250   4.488 -0.0778 -0.0580  0.2703
 7305W        W11505   6.022   1.013   1.125 -0.0194 -0.0100 -0.0486
 7306W        W11506   0.328   3.054   0.479 -0.1514  0.0583  0.0520
 7307W        W11507   2.263   5.919  12.796 -0.1100  0.0771 -0.0665
 7308W        W11508   7.568   9.907   4.661 -0.1910 -0.2427 -0.0946
 7309W        W11509   9.057   7.083   2.246  0.0712 -0.0280  0.2369
 7310W        W11510   3.921  10.156   3.607 -0.0475  0.0558 -0.4376
 7311W        W11511   3.584  10.038   9.376 -0.3233  0.0410  0.2317
 7312W        W11512   9.832   0.281   9.007 -0.3114 -0.2365  0.3042
 7313W        W11513   0.663  10.056  10.250  0.2030  0.0225 -0.0968
 7314W        W11514  10.014   2.283   3.452  0.0418  0.0707 -0.0085
 7315W        W11515  10.301   4.189   2.174  0.2027 -0.1220  0.0936
 7316W        W11516   1.821   1.696   2.669  0.0495 -0.3593  0.1451
 7317W        W11517  10.456   3.859  12.112  0.0175 -0.0064 -0.0324
 7318W        W11518   1.886   3.061   1.717 -0.5667 -0.1137 -0.2480
 7319W        W11519   2.784  10.191   1.242  0.0522 -0.1022 -0.1756
 7320W        W11520   3.370   2.828   0.104  0.0495 -0.2263 -0.1277
 7321W        W11521   9.511   2.207   3.264 -0.2305 -0.1426 -0.3146
 7322W        W11522   3.080   8.193   0.127  0.1876 -0.1851  0.0768
 7323W        W11523   8.434   6.821   4.959  0.0956  0.0794 -0.1853
 7324W        W11524   2.555  10.348  10.262  0.0214  0.2395  0.3893
 7325W        W11525   4.721   4.010   0.867  0.3759 -0.3263 -0.2661
 7326W        W11526   7.143   8.884  11.790 -0.0617 -0.3186  0.1337
 7327W        W11527   8.331   1.937   1.270  0.1895  0.3614 -0.2177
 7328W        W11528   6.265   1.097   4.160 -0.1405  0.2942 -0.0746
 7329W        W11529   6.187   9.891   1.902 -0.2647  0.2896  0.0218
 7330W        W11530   6.357   0.671  13.426 -0.2073  0.2779 -0.0181
 7331W        W11531   1.027   9.965   4.777  0.0058 -0.1464 -0.2542
 7332W        W11532   8.196   7.592   2.663  0.0656 -0.0076 -0.0060
 7333W        W11533   9.835   6.030   3.399 -0.1661 -0.2171  0.1947
 7334W        W11534   0.905   1.549   3.664 -0.2151 -0.0643  0.5009
 7335W        W11535   6.737   6.695   9.655 -0.1277 -0.0009 -0.2311
 7336W        W11536   8.134   1.668   8.919  0.1991 -0.1017 -0.3559
 7337W        W11537   0.845   1.073   2.061  0.0044 -0.2573  0.4896
 7338W        W11538   1.560   2.728  10.231 -0.4203  0.0178 -0.2123
 7339W        W11539   5.883   7.283  10.532 -0.0309  0.0946 -0.1983
 7340W        W11540   7.765   4.427   1.652  0.2751  0.1314 -0.2799
 7341W        W11541   0.947   5.576   3.900  0.1628 -0.1198 -0.1945
 7342W        W11542   0.987   6.820   1.382 -0.0178 -0.0594  0.1589
 7343W        W11543   6.751   3.476  10.609  0.1648  0.2517 -0.0523
 7344W        W11544   3.126   6.712   2.552  0.1814 -0.1997  0.3799
 7345W        W11545   2.313   5.895   9.124 -0.1109  0.0154  0.2907
 7346W        W11546   9.858   5.617   3.063 -0.0390 -0.1842 -0.0655
 7347W        W11547   1.020   4.132  11.678  0.3249 -0.0872  0.0516
 7348W        W11548   6.117   1.514  10.907 -0.1937 -0.2599 -0.3822
 7349W        W11549  10.004   1.856   3.300 -0.0407 -0.1899 -0.0552
 7350W        W11550   0.241   6.485  12.977 -0.1418  0.2268  0.1225
 7351W        W11551   8.793   2.493   3.976 -0.1701 -0.1210 -0.1307
 7352W        W11552   3.162   4.947  11.819 -0.1434  0.2375 -0.2533
 7353W        W11553   5.547   3.789   0.388  0.1354 -0.0299  0.2556
 7354W        W11554   5.940   2.722  11.853  0.0057  0.0192  0.3206
 7355W        W11555   2.998   1.230  11.478 -0.1261 -0.1120 -0.0245
 7356W        W11556   0.869   5.686   3.214 -0.0088  0.1643 -0.3431
 7357W        W11557   8.992   7.829  10.344 -0.1497  0.0971  0.1142
 7358W        W11558   9.306   6.505   3.999  0.1282  0.0994  0.2271
 7359W        W11559   8.016   6.641  12.760 -0.1716  0.0136 -0.2628
 7360W        W11560   1.998   4.254   0.183 -0.1238 -0.0469  0.1226
 7361W        W11561   8.878   5.839   3.192  0.0461 -0.2212  0.0841
 7362W        W11562   9.315   9.453  12.931  0.2143  0.0638 -0.1594
 7363W        W11563   0.112   7.664   2.125 -0.0166  0.1491  0.1059
 7364W        W11564   0.189   7.117   1.305  0.1084 -0.0272 -0.0726
 7365W        W11565   9.017   4.545   2.679  0.1499 -0.0038  0.1681
 7366W        W11566   1.474   4.136   3.766  0.1384 -0.0842  0.0431
 7367W        W11567   3.896   7.433   9.317  0.1139  0.0949  0.0144
 7368W        W11568   1.366   0.498   0.328 -0.1684  0.1582 -0.0366
 7369W        W11569   6.367   8.709  13.424  0.1286 -0.4435  0.0379
 7370W        W11570   5.221   3.827   4.433 -0.1435  0.0325 -0.0581
 7371W        W11571   4.681   0.640  11.438 -0.2284 -0.0142  0.0294
 7372W        W11572   0.726   0.437   2.010 -0.0349  0.3103  0.1888
 7373W        W11573   8.792   5.946  11.971  0.0430  0.0840  0.0663
 7374W        W11574  10.364   6.387   2.155 -0.3211 -0.0285  0.2794
 7375W        W11575   3.309   9.776   0.097 -0.0232  0.2117 -0.0721
 7376W        W11576   5.531   5.705  10.822  0.2970 -0.0261 -0.0234
 7377W        W11577   5.919   9.213  12.039  0.1804  0.0971  0.0380
 7378W        W11578   7.568   0.232  12.998  0.0709  0.1053  0.0837
 7379W        W11579   8.481   0.160   0.876 -0.0129  0.2368  0.1904
 7380W        W11580   8.282   3.584  10.804 -0.1058  0.0410 -0.0297
 7381W        W11581   4.522   6.394   9.424 -0.0142 -0.2977  0.0889
 7382W        W11582   1.632   5.128   3.079 -0.0614  0.0174  0.0312
 7383W        W11583   0.540   9.837   4.630  0.0043 -0.1227 -0.2573
 7384W        W11584   0.219   6.403   9.421  0.1134 -0.2961  0.1156
 7385W        W11585   7.687   1.753   1.021 -0.4902  0.1085  0.0467
 7386W        W11586   1.663   3.268   0.276  0.1065  0.0857 -0.2542
 7387W        W11587   5.491   1.286   1.942 -0.0449  0.1347 -0.0509
 7388W        W11588   7.866   2.895   8.634 -0.1493 -0.1424 -0.1114
 7389W        W11589   7.529   4.965   9.360  0.1417 -0.0354  0.0068
 7390W        W11590   6.447   4.987   4.776  0.2198 -0.1197 -0.0835
 7391W        W11591   7.461   5.058  10.976  0.2132  0.1050  0.1437
 7392W        W11592   9.793   6.537   3.196 -0.0624  0.0267 -0.1278
 7393W        W11593   4.593   3.981  12.729  0.1932 -0.1460  0.1522
 7394W        W11594  10.085   8.746  11.360 -0.1377  0.3002 -0.3287
 7395W        W11595   6.187  10.358   9.828  0.0154 -0.0798  0.1123
 7396W        W11596   3.288   4.505   2.792 -0.2744  0.0868 -0.2620
 7397W        W11597   7.156   6.394   9.238 -0.1302 -0.0186 -0.1552
 7398W        W11598   8.720   3.851   8.794 -0.4389  0.1114  0.0936
 7399W        W11599   4.788   1.152  11.709 -0.0586 -0.4237  0.1210
 7400W        W11600   9.041   0.160  10.896  0.2999  0.1096 -0.0498
 7401W        W11601   2.734   6.934  11.043  0.0214  0.1795 -0.1755
 7402W        W11602   2.330   8.597  11.606 -0.0965 -0.2612  0.1625
 7403W        W11603   1.898   0.154   2.103  0.0580  0.1067 -0.0195
 7404W        W11604   0.793   4.399   3.885 -0.1672  0.5350  0.2533
 7405W        W11605   8.246   9.403   2.708 -0.0087 -0.0484 -0.2419
 7406W        W11606   1.870   5.530  11.683 -0.0339  0.1668 -0.1239
 7407W        W11607   9.250   8.092   8.814 -0.1158  0.2048  0.1567
 7408W        W11608   8.866   0.530   0.967 -0.0351  0.5496 -0.0356
 7409W        W11609   8.854   9.522   9.831 -0.0841  0.1047  0.0309
 7410W        W11610   5.222   6.403   2.291 -0.1186  0.2453  0.1415
 7411W        W11611   2.460   9.849  11.560 -0.0662  0.0731 -0.2436
 7412W        W11612   1.372   2.389  13.230  0.0853 -0.0316 -0.1477
 7413W        W11613   0.546   4.024   3.631 -0.0917  0.0668  0.3421
 7414W        W11614   1.339   6.635   0.489 -0.4230  0.1954 -0.0343
 7415W        W11615   4.845   3.719  11.156 -0.1722 -0.1769  0.2863
 7416W        W11616   5.601   6.339  10.970 -0.2525  0.1014  0.3103
 7417W        W11617   0.799   9.505   1.326 -0.3299 -0.2871 -0.0812
 7418W        W11618  10.080   7.429   4.555 -0.1497 -0.0773  0.0276
 7419W        W11619  10.431   2.786  11.074  0.2504  0.0049  0.0084
 7420W        W11620   3.304   1.043   0.739  0.0321  0.0771 -0.1073
 7421W        W11621   5.644   3.049   4.665  0.0649  0.4604 -0.0782
 7422W        W11622   4.104   1.879   0.500  0.2752  0.3325 -0.1467
 7423W        W11623   5.607   3.959   2.946  0.1217  0.0525  0.1444
 7424W        W11624   2.578   1.158   3.593 -0.0926  0.0269  0.0675
 7425W        W11625   5.315   3.677   8.704  0.0972 -0.2165 -0.0576
 7426W        W11626   2.882   7.168  10.109  0.0662  0.0816 -0.2113
 7427W        W11627   2.763   9.883  10.360  0.0924 -0.3985  0.4306
 7428W        W11628   4.141   1.311   2.387 -0.0598  0.0825  0.1104
 7429W        W11629   8.040   3.981   2.534  0.1082  0.1409 -0.0623
 7430W        W11630   8.757   6.342   2.961 -0.0237  0.1636 -0.1019
 7431W        W11631   5.121   1.902   0.200 -0.0581  0.0316 -0.2035
 7432W        W11632   0.654   0.944  12.708  0.0660  0.0936 -0.1709
 7433W        W11633   5.940   0.697   2.477 -0.2129 -0.1674  0.0046
 7434W        W11634   2.914   1.355   9.646  0.2354  0.0722 -0.2657
 7435W        W11635   8.928   1.849   0.028  0.0932 -0.0073 -0.1541
 7436W        W11636   3.034   5.922  10.695 -0.2400 -0.0713 -0.1834
 7437W        W11637   2.932   1.030  10.858 -0.0063  0.3645 -0.0209
 7438W        W11638   3.682   4.765   4.237 -0.0127  0.0484 -0.0981
 7439W        W11639   4.675   5.553   0.766 -0.0364 -0.1319  0.0446
 7440W        W11640   5.473   1.348  13.423  0.0489  0.0377 -0.2640
 7441W        W11641   3.960   4.482   5.049 -0.0202  0.0736 -0.0601
 7442W        W11642   8.581   2.771   2.944 -0.2090 -0.1410  0.0943
 7443W        W11643   6.164   6.815   3.677 -0.1459  0.0355 -0.0607
 7444W        W11644   5.293  10.288   2.123 -0.0748  0.0576  0.1399
 7445W        W11645   4.148   2.056   4.089 -0.1092 -0.0328  0.3884
 7446W        W11646   7.084   3.563  13.326  0.2938 -0.1715 -0.2311
 7447W        W11647   2.839   8.912  12.697  0.2330 -0.2262  0.1696
 7448W        W11648  10.299   7.394  13.376 -0.0044 -0.1600  0.1320
 7449W        W11649   5.012   7.231   1.311 -0.0749 -0.0709  0.0032
 7450W        W11650   5.515   2.563  12.125 -0.0692 -0.0918  0.0650
 7451W        W11651   0.011   5.646  12.529 -0.1402 -0.2161 -0.0166
 7452W        W11652   7.147  10.130  10.211 -0.1249  0.0636 -0.0557
 7453W        W11653   3.632   9.923  10.811 -0.1970 -0.1497 -0.1470
 7454W        W11654   6.315  10.229  10.980 -0.1630 -0.0844  0.1679
 7455W        W11655   0.057   9.921   2.770 -0.2589 -0.0529 -0.0165
 7456W        W11656   3.031   1.609  11.073  0.0723  0.0871  0.1146
 7457W        W11657   7.048  10.372   1.845 -0.0041  0.2848 -0.2414
 7458W        W11658   2.617   2.932   3.899  0.0362 -0.0628  0.1925
 7459W        W11659   8.646   9.371  10.635 -0.1725  0.1254 -0.0757
 7460W        W11660   1.421   1.824   9.391 -0.0658  0.0367 -0.0507
 7461W        W11661   5.867   3.560  11.484  0.0569  0.3121 -0.2608
 7462W        W11662   1.854  10.359   2.802 -0.0234  0.1352 -0.2065
 7463W        W11663   2.040   4.261   9.643  0.2827  0.2316 -0.1585
 7464W        W11664   8.715   8.630   0.435  0.1858 -0.1812  0.0492
 7465W        W11665   9.893   9.502  11.943 -0.2481 -0.2425  0.0839
 7466W        W11666   9.662   1.162   1.823  0.0004  0.1140  0.1317
 7467W        W11667   4.989   1.070   1.258 -0.1001 -0.1877  0.3447
 7468W        W11668   0.938   2.893   2.733 -0.0988 -0.0775 -0.2277
 7469W        W11669   6.531   3.144  10.307 -0.0129  0.0803  0.2100
 7470W        W11670  10.029   3.833  13.426  0.0778  0.2518 -0.0999
 7471W        W11671   8.402   7.346  12.117 -0.2034 -0.1363  0.0641
 7472W        W11672   4.776   0.632  10.185 -0.1869  0.0631 -0.0108
 7473W        W11673   0.940   2.452  10.753  0.3600  0.1242 -0.0060
 7474W        W11674   4.042   8.616  12.769  0.1486  0.0956 -0.1625
 7475W        W11675   2.742   7.926   1.135  0.2277 -0.3536  0.0028
 7476W        W11676   8.296   0.549  12.989  0.0983  0.0449  0.0759
 7477W        W11677   6.095   2.236  10.826  0.1967  0.0876 -0.2113
 7478W        W11678   0.066   4.897  13.107 -0.1357  0.1479  0.1636
 7479W        W11679   6.365   9.834   2.912 -0.1048 -0.0955 -0.0189
 7480W        W11680   1.255   8.089  12.033 -0.3352 -0.0188 -0.0518
 7481W        W11681   7.279   4.250   1.306  0.1395  0.0416  0.3309
 7482W        W11682   7.729   6.428   1.784  0.0317  0.2171 -0.0479
 7483W        W11683   3.355   2.410  12.844  0.3575 -0.1573  0.1490
 7484W        W11684   7.362   5.204   9.769 -0.2554  0.0559 -0.1343
 7485W        W11685  10.421   8.492   1.764  0.4066  0.0348  0.1383
 7486W        W11686   2.923   7.782  11.840  0.4264 -0.0051  0.1348
 7487W        W11687   7.402   8.804  11.099 -0.0346  0.2757 -0.2361
 7488W        W11688   7.068   0.280   0.488  0.1124 -0.2942  0.0163
 7489W        W11689   1.824   3.361   1.194 -0.1528  0.0493 -0.4111
 7490W        W11690   6.671   1.979   3.701  0.1230  0.2646 -0.1119
 7491W        W11691   3.776   0.450   1.968  0.1247 -0.3043  0.1917
 7492W        W11692   6.368   4.808   1.765  0.0381  0.1595 -0.0310
 7493W        W11693   2.691  10.263  12.904 -0.4716 -0.0560 -0.1753
 7494W        W11694   0.675   6.901  12.467  0.1421 -0.2048 -0.1734
 7495W        W11695   8.070   9.006  13.065 -0.2179 -0.0536 -0.2461
 7496W        W11696   2.607   2.736   4.401  0.3648  0.1940  0.1638
 7497W        W11697   0.907   9.664   9.103 -0.3999  0.0541 -0.3079
 7498W        W11698   5.886   7.287   2.687  0.1589 -0.2485 -0.0046
 7499W        W11699  10.307   4.766   0.498  0.0998 -0.0602 -0.4500
 7500W        W11700   4.656  10.293  11.412  0.3821  0.1697 -0.4064
 7501W        W11701   6.708   9.445   2.178  0.2397  0.1519  0.2066
 7502W        W11702   4.548   6.315  10.110 -0.0126  0.1652  0.4301
 7503W        W11703   8.741   7.176   1.209  0.2333 -0.1696 -0.0670
 7504W        W11704   1.864   4.002  10.534  0.0662 -0.3128  0.1194
 7505W        W11705   7.837   6.823  10.543 -0.1133 -0.1317 -0.3325
 7506W        W11706   8.730   3.164   4.135 -0.1966  0.1970  0.0497
 7507W        W11707  10.071   0.668   1.222  0.0829  0.0705  0.2101
 7508W        W11708   7.184   2.604  13.041 -0.0520  0.0182  0.2239
 7509W        W11709   2.990   3.984   2.574  0.1226 -0.0539  0.1940
 7510W        W11710   4.508   6.071   0.854 -0.0633 -0.1926  0.1082
 7511W        W11711   7.115   8.483  10.735 -0.0022  0.0065 -0.0949
 7512W        W11712   0.817   7.041  10.236 -0.3567 -0.6753  0.1648
 7513W        W11713   3.401   6.661  13.049 -0.1530  0.2171 -0.1159
 7514W        W11714   3.139   2.267   9.436 -0.1852  0.0119 -0.0881
 7515W        W11715   6.046   3.861   1.763 -0.0426 -0.2306 -0.2779
 7516W        W11716   8.728   7.792   3.748  0.0323 -0.2489 -0.2237
 7517W        W11717   2.769  10.007   4.823 -0.1078 -0.2217  0.1148
 7518W        W11718   7.677   0.566  11.157 -0.3020  0.0480  0.1236
 7519W        W11719   5.538   2.051   2.010  0.1043 -0.0140  0.1595
 7520W        W11720   8.381   2.554  10.577 -0.1615 -0.4015 -0.2905
 7521W        W11721   3.111   5.015   3.763 -0.0698  0.0106 -0.0786
 7522W        W11722  10.018   3.573  12.229  0.2046 -0.2487 -0.1791
 7523W        W11723   8.521   7.658  10.403  0.2510 -0.2213 -0.1025
 7524W        W11724   9.538   6.950  10.182 -0.0095 -0.2152 -0.1013
 7525W        W11725   8.916   8.511  12.662 -0.1159  0.0701 -0.1649
 7526W        W11726   7.657   4.911   1.441  0.2127  0.0750 -0.1473
 7527W        W11727   8.682   6.337   0.155  0.1258  0.1487  0.0708
 7528W        W11728   6.883   7.414   3.525 -0.2547  0.1736  0.0315
 7529W        W11729   0.381   8.197   1.534  0.1633 -0.0395 -0.0123
 7530W        W11730   2.216   4.738  12.247  0.1710  0.2110  0.2053
 7531W        W11731   5.965   3.074  10.257  0.0213 -0.1967 -0.0561
 7532W        W11732   5.192   6.395  10.218 -0.0567  0.2002  0.1849
 7533W        W11733   3.664   0.076   3.589  0.1036  0.0241  0.1756
 7534W        W11734   1.388   9.408   3.854 -0.1564  0.0962 -0.3480
 7535W        W11735   4.762   9.972  10.927 -0.2925 -0.0600 -0.0184
 7536W        W11736   9.531   3.583   4.144  0.1886 -0.0351  0.0759
 7537W        W11737   6.887   4.742  11.065  0.0358 -0.0612 -0.0816
 7538W        W11738   9.177   1.901   2.994  0.1083 -0.3597 -0.1307
 7539W        W11739   0.188   0.865   2.439 -0.2237 -0.0410  0.4013
 7540W        W11740   8.254   0.640   0.153 -0.4388 -0.0307  0.1000
 7541W        W11741   6.542   7.490  12.323 -0.1728  0.1500  0.3645
 7542W        W11742   2.467   6.758  13.149  0.3083 -0.0799 -0.1936
 7543W        W11743   9.765   5.863  12.550 -0.0107 -0.0768  0.0138
 7544W        W11744   9.170   0.717   2.822  0.4354  0.0037 -0.0761
 7545W        W11745   1.198   6.071   1.745  0.0863  0.1874 -0.2847
 7546W        W11746   4.712   3.314  12.742  0.2336 -0.0072  0.0091
 7547W        W11747   3.743   4.350  12.765 -0.0488 -0.2088 -0.1724
 7548W        W11748   7.421   5.629  11.011  0.2139  0.2398 -0.0270
 7549W        W11749  10.207   7.742   8.530  0.2612 -0.0790  0.0720
 7550W        W11750   8.479   4.822   1.443  0.0763 -0.0872  0.3786
 7551W        W11751   9.029   2.697  11.333 -0.1016  0.0124  0.4613
 7552W        W11752   6.289   0.069   1.538  0.2037 -0.0934  0.0970
 7553W        W11753   6.233   3.711  12.562  0.2072  0.1075  0.0173
 7554W        W11754   8.876   9.843   0.047  0.2013  0.2865 -0.0613
 7555W        W11755   8.581   1.972   2.474 -0.3841  0.1999  0.1281
 7556W        W11756   6.062   6.871   1.151 -0.2284  0.2041 -0.6560
 7557W        W11757   7.903   1.670  11.898 -0.0019  0.2245 -0.0122
 7558W        W11758   3.339  10.179   1.235 -0.0116 -0.2841 -0.1967
 7559W        W11759   9.183   8.068  12.724 -0.0909  0.2770  0.0538
 7560W        W11760   7.306   1.790   2.583 -0.0564 -0.4147  0.2326
 7561W        W11761   0.114   8.862  12.192 -0.0989 -0.0860 -0.0616
 7562W        W11762   9.267   2.301   2.686 -0.3369  0.1978  0.0777
 7563W        W11763   1.330   4.890   1.387  0.0128 -0.3045  0.2211
 7564W        W11764   3.204   3.992   3.463 -0.3315  0.0880 -0.0404
 7565W        W11765   7.529   8.474  12.384  0.0056 -0.0538 -0.0199
 7566W        W11766   9.630   7.571   3.071  0.1848  0.1890  0.0195
 7567W        W11767   8.957   5.367   8.283 -0.2940  0.0400  0.2845
 7568W        W11768   7.378   0.754   9.415  0.4965  0.2242 -0.3744
 7569W        W11769   5.211   3.298   1.952 -0.4456 -0.1467 -0.3740
 7570W        W11770   5.655   7.377   1.812  0.1285  0.1241 -0.0160
 7571W        W11771   9.776   5.521   8.827  0.0537 -0.1223  0.0728
 7572W        W11772   7.293   0.804  10.957  0.1796 -0.0307 -0.2961
 7573W        W11773   3.237   1.049   3.011  0.0532  0.0206 -0.0972
 7574W        W11774   6.669   0.520   0.731 -0.0900 -0.0602 -0.1121
 7575W        W11775   2.726   5.143   4.033 -0.2921  0.1424 -0.0739
 7576W        W11776   6.458   4.472   1.045  0.3043 -0.2799  0.0902
 7577W        W11777  10.362   6.773   3.322  0.2500 -0.1206  0.3308
 7578W        W11778  10.249  10.328  13.394  0.0255  0.2764 -0.0171
 7579W        W11779   2.183   8.975   9.908  0.0488  0.2544  0.2347
 7580W        W11780   1.854   4.142   1.041  0.3760 -0.1088 -0.3357
 7581W        W11781   2.866   2.153  13.134 -0.1513 -0.3020  0.1454
 7582W        W11782   5.950   4.457   2.007  0.2208 -0.2154 -0.0644
 7583W        W11783   7.547   8.795  11.576  0.2151  0.3330  0.1263
 7584W        W11784   4.686   3.180   4.083 -0.2789  0.1476  0.1677
 7585W        W11785   1.805   6.678   4.059  0.0522  0.2865 -0.1441
 7586W        W11786   7.368  10.123  11.782  0.0934  0.1466 -0.1944
 7587W        W11787   4.417   9.064   3.642  0.1432  0.0893 -0.1143
 7588W        W11788   1.103   6.803   2.845  0.2571  0.0440  0.0595
 7589W        W11789   3.826   5.136   2.527 -0.0772 -0.1402 -0.0722
 7590W        W11790   5.522   6.425   0.091  0.2060 -0.1937  0.1225
 7591W        W11791   0.258   3.548   9.286 -0.1836  0.2259 -0.4389
 7592W        W11792   6.593   1.338  11.088  0.0268 -0.0469  0.0452
 7593W        W11793   9.226   0.490   0.623 -0.0302  0.1601  0.2754
 7594W        W11794   3.695   2.884  11.031 -0.1090  0.1364 -0.4910
 7595W        W11795   8.449   0.902  11.606 -0.0059  0.4574  0.0055
 7596W        W11796   1.681   2.602   5.297  0.0915 -0.2588  0.0196
 7597W        W11797   8.858   7.481   4.236  0.0297  0.0137 -0.0962
 7598W        W11798   1.415   3.848   2.619  0.3447 -0.0259  0.0727
 7599W        W11799   8.506   4.843  11.131 -0.2310  0.0278 -0.1937
 7600W        W11800   6.491   6.986   9.966 -0.2148 -0.0561  0.0098
 7601W        W11801   6.486   8.009  13.293  0.1440 -0.2830 -0.1092
 7602W        W11802   7.815   0.618  13.320 -0.1119  0.0698  0.1650
 7603W        W11803   6.270  10.298  12.632 -0.0521  0.0263  0.0567
 7604W        W11804   2.177   8.506   9.068  0.0348  0.1031 -0.0431
 7605W        W11805   7.169   4.521   2.403 -0.2025  0.0491  0.0627
 7606W        W11806   7.964   2.790  10.452 -0.1519  0.4270  0.1603
 7607W        W11807   5.293   6.303  11.507  0.0496 -0.1359  0.0218
 7608W        W11808   5.212   1.203   2.399 -0.0961 -0.0784 -0.1566
 7609W        W11809   2.383   2.617   9.940 -0.1669  0.0315 -0.1451
 7610W        W11810  10.345   3.441  11.791  0.1617 -0.0947  0.0157
 7611W        W11811   4.832   6.245   2.890 -0.2392  0.0181 -0.0880
 7612W        W11812  10.209   4.900  13.438  0.3848  0.0510 -0.2408
 7613W        W11813   0.986   0.583  12.930 -0.0332  0.2070  0.0515
 7614W        W11814   8.501   0.623  10.508 -0.1108  0.1798 -0.0331
 7615W        W11815   8.185  10.337  12.658  0.0966  0.0350  0.1281
 7616W        W11816   1.224   5.921   1.184 -0.1054 -0.0526 -0.2625
 7617W        W11817  10.106   5.595  11.001 -0.4763 -0.2586 -0.0904
 7618W        W11818   1.662  10.187   9.651 -0.0888  0.1900 -0.1089
 7619W        W11819   6.640   1.763   2.712 -0.2700  0.2091 -0.0703
 7620W        W11820   5.658   0.070   0.798  0.1882 -0.0436  0.4640
 7621W        W11821   3.530   4.857   8.900 -0.3635  0.1746  0.2625
 7622W        W11822   2.102   2.076   4.411 -0.0226  0.0921 -0.0115
 7623W        W11823   2.091  10.132   2.271 -0.2407 -0.0684 -0.2966
 7624W        W11824   2.917   1.402   4.468  0.0231 -0.2899  0.0750
 7625W        W11825   2.232   3.385  13.243  0.0697  0.3758 -0.0175
 7626W        W11826   0.174   7.002  13.263 -0.0333  0.0998 -0.0725
 7627W        W11827   4.175   1.959   3.573 -0.0099  0.0652  0.2132
 7628W        W11828   4.916   7.739   2.812 -0.0489 -0.1187  0.2715
 7629W        W11829   8.047   6.108   3.727  0.1403 -0.0948  0.1236
 7630W        W11830   8.471   9.475  11.511  0.1088  0.0688  0.0536
 7631W        W11831  10.416   8.975   1.577  0.2267  0.0964  0.0962
 7632W        W11832   4.704   3.359  11.809  0.3395  0.0017 -0.0191
 7633W        W11833   0.267   3.430   3.142  0.0633 -0.1527 -0.0825
 7634W        W11834   9.082   2.517  10.251 -0.1321 -0.2472 -0.1294
 7635W        W11835   9.473   1.525  10.493  0.0193 -0.1999  0.0711
 7636W        W11836  10.367   0.576   2.036  0.0161 -0.1015 -0.2280
 7637W        W11837   3.933   1.999  11.119  0.0488  0.1479 -0.2078
 7638W        W11838   3.660   1.479   9.712 -0.2031  0.3749 -0.2011
 7639W        W11839   2.458   6.174   9.500  0.0515 -0.1232 -0.1293
 7640W        W11840  10.298   0.652   9.685  0.0642 -0.2876  0.0839
 7641W        W11841   9.426   1.420   2.182  0.0221 -0.0858  0.0783
 7642W        W11842   8.648   3.891  10.699 -0.3299  0.1280  0.0596
 7643W        W11843   6.041   9.494   2.928 -0.1236  0.1085 -0.0134
 7644W        W11844   6.482   3.852   3.890  0.2004  0.0406  0.1734
 7645W        W11845   6.785  10.113   3.984  0.4007 -0.0781 -0.1235
 7646W        W11846   6.042   5.687   2.125 -0.4262  0.3952  0.0747
 7647W        W11847   5.070   3.990   9.892 -0.1674 -0.3692  0.3914
 7648W        W11848   3.932   8.166  12.595 -0.3054  0.2250  0.1984
 7649W        W11849   2.987   9.044   9.760  0.0075 -0.1250 -0.0357
 7650W        W11850   5.416   6.399   9.693  0.1553 -0.1210  0.0283
 7651W        W11851   9.925   7.961   2.834 -0.1928 -0.2708  0.0193
 7652W        W11852   3.823   3.149  12.505 -0.0874 -0.0446 -0.0531
 7653W        W11853   5.959   0.087  11.932  0.1712 -0.2053  0.0616
 7654W        W11854   7.345   3.082  11.404 -0.3766  0.3086 -0.2182
 7655W        W11855   2.177  10.020  10.347 -0.2449  0.2304 -0.1624
 7656W        W11856   5.997   3.082   5.390  0.0826  0.0410 -0.2342
 7657W        W11857   7.163   1.840  11.766  0.0585 -0.1951 -0.3207
 7658W        W11858   4.661   2.880   5.263  0.3084 -0.1080  0.2877
 7659W        W11859   0.660   3.091  13.235  0.0653 -0.1441  0.0798
 7660W        W11860   2.654   6.191   3.018  0.2013 -0.2843 -0.0199
 7661W        W11861   8.165   1.844   2.284 -0.0246  0.1260 -0.0958
 7662W        W11862   7.500   6.489  10.607 -0.0411 -0.3882 -0.3517
 7663W        W11863   1.426   8.837  10.995  0.0067 -0.0122  0.3614
 7664W        W11864   8.721   0.742  13.438  0.0352  0.2726  0.1964
 7665W        W11865   8.099   1.124   3.522  0.0581  0.1110 -0.1851
 7666W        W11866   0.142   3.290  10.541 -0.2834  0.0992  0.1965
 7667W        W11867   6.268   1.076   0.721  0.0639 -0.3382  0.4465
 7668W        W11868   3.957   9.028   3.518 -0.1007  0.2750  0.0527
 7669W        W11869   0.538   5.677  11.209  0.0867  0.2969  0.0433
 7670W        W11870   1.347   7.072   4.903 -0.2554  0.2318 -0.2258
 7671W        W11871   3.619   9.329   3.898  0.0364  0.0997 -0.2151
 7672W        W11872   9.632   7.830   2.100  0.0369  0.0898  0.0794
 7673W        W11873   2.324  10.246   0.995  0.2395 -0.2231  0.0671
 7674W        W11874  10.108   5.165   2.151 -0.2437  0.1358  0.0841
 7675W        W11875   4.894   2.525  12.039  0.0181 -0.0466 -0.2182
 7676W        W11876   6.090   0.646  11.851 -0.1163  0.0485 -0.0874
 7677W        W11877   0.596   6.741   9.356 -0.0987  0.1291  0.1327
 7678W        W11878   2.287   3.925   8.802  0.1097  0.0997 -0.0761
 7679W        W11879   2.798   4.810   0.887 -0.0143  0.0718  0.0808
 7680W        W11880   9.423   3.778   8.407  0.1088 -0.2788 -0.0081
 7681W        W11881   6.693   6.523  11.339  0.0329 -0.0268 -0.1268
 7682W        W11882   6.108   3.899   2.919 -0.0832 -0.0617 -0.3200
 7683W        W11883   5.818   7.152  12.727  0.2729 -0.1802  0.2517
 7684W        W11884   0.595   7.602   9.433 -0.1239 -0.3192  0.1564
 7685W        W11885   6.302   8.749   0.504  0.2155  0.1417 -0.0636
 7686W        W11886   9.599   9.056  12.834  0.0795 -0.0685 -0.0350
 7687W        W11887   9.882   8.395   9.276 -0.1259  0.1791  0.2169
 7688W        W11888   0.546   1.087   2.671  0.1576 -0.0566 -0.0546
 7689W        W11889  10.280   1.160   2.098  0.1978 -0.1145 -0.0201
 7690W        W11890   4.513   0.563   3.744 -0.0548 -0.1978 -0.0672
 7691W        W11891   8.976   6.382   3.507 -0.1698  0.1999 -0.2801
 7692W        W11892   4.742   6.781   4.223  0.0972  0.4098 -0.1902
 7693W        W11893   4.739   5.222   9.045 -0.5123 -0.1436 -0.0246
 7694W        W11894   0.960   8.773   2.325 -0.1155 -0.3398  0.0825
 7695W        W11895   7.453   6.831  12.847 -0.0339 -0.2264  0.1242
 7696W        W11896   2.941   8.850   0.146 -0.0439 -0.1257 -0.0580
 7697W        W11897   2.476   9.354  11.726  0.0723 -0.0983  0.0294
 7698W        W11898   0.820   6.759  11.921 -0.1919 -0.0927 -0.1411
 7699W        W11899   0.559   8.578   9.322  0.0168  0.0237  0.0476
 7700W        W11900   5.018   2.704   4.508 -0.1749 -0.1674 -0.3276
 7701W        W11901   0.905   6.330   9.289  0.0012  0.1212  0.1300
 7702W        W11902   2.796   2.009   3.708  0.2574 -0.0477 -0.3226
 7703W        W11903   0.227   3.879   2.046 -0.1298  0.2557  0.3555
 7704W        W11904   6.680   2.700   4.913 -0.2325  0.2995 -0.1736
 7705W        W11905   9.366   3.932  10.424  0.1118 -0.1005 -0.2978
 7706W        W11906   3.712   3.141   5.031  0.0818  0.2603  0.2135
 7707W        W11907   3.739   4.997   0.204  0.0667 -0.0264 -0.0254
 7708W        W11908   1.434   2.980   1.220  0.1048  0.0112  0.1403
 7709W        W11909   0.630   5.356   2.090  0.1806 -0.1320 -0.1755
 7710W        W11910   5.923   1.880   4.064 -0.0503 -0.1736 -0.2699
 7711W        W11911   6.403   5.881  12.852  0.2404 -0.2199 -0.2072
 7712W        W11912   6.648   0.074   4.120 -0.0204 -0.1208 -0.0880
 7713W        W11913   2.639   3.402   0.096  0.0649 -0.0108  0.2334
 7714W        W11914   8.252   1.954  11.770 -0.1547 -0.0285  0.0171
 7715W        W11915   6.756   1.689   0.174  0.0928  0.0875 -0.1456
 7716W        W11916   5.337   8.053  11.901 -0.2614  0.1457  0.2206
 7717W        W11917   6.369   3.802   9.772  0.1092  0.5333 -0.1280
 7718W        W11918   1.553   6.843   3.151  0.2960  0.0531  0.0282
 7719W        W11919   8.612   2.708  12.086 -0.2500  0.1608  0.2458
 7720W        W11920   7.092   9.340   0.556 -0.1153  0.0725 -0.1868
 7721W        W11921   7.608   2.465   9.736  0.1732  0.1032  0.4189
 7722W        W11922   2.744   5.183   1.522  0.0753 -0.0417  0.0321
 7723W        W11923   3.307   3.183   4.627 -0.1256 -0.1373  0.1393
 7724W        W11924   7.712   4.064  10.235 -0.1349  0.1369  0.4009
 7725W        W11925   2.707   7.016   9.470 -0.1099  0.1428 -0.0351
 7726W        W11926   8.730  10.318   0.163 -0.1659 -0.2517  0.0584
 7727W        W11927   3.078   2.989  10.226  0.0624  0.4867 -0.1980
 7728W        W11928   0.151   7.677   1.274  0.1072  0.0575  0.0827
 7729W        W11929   5.639  10.352  13.265  0.0389  0.1912 -0.0186
 7730W        W11930   9.259   2.798  10.702 -0.0741  0.0623 -0.1653
 7731W        W11931   8.780   0.007   3.445  0.2444 -0.1613 -0.1210
 7732W        W11932   0.848   8.658   1.786  0.2356  0.1368 -0.1828
 7733W        W11933   2.153   9.762   0.980 -0.1780  0.2447  0.1376
 7734W        W11934   0.916   1.634   9.268 -0.2423  0.1631  0.3430
 7735W        W11935   4.496   8.096  11.397  0.2062 -0.1491  0.1618
 7736W        W11936   8.326   7.071  11.640  0.2426 -0.0752 -0.3172
 7737W        W11937   5.464   1.477  10.258 -0.0254  0.3184  0.2421
 7738W        W11938   6.599   8.168  12.606 -0.0846 -0.0250  0.4509
 7739W        W11939   7.472   2.742  11.702 -0.2021  0.4181  0.1869
 7740W        W11940  10.346   2.327  11.672 -0.0636 -0.3042  0.1841
 7741W        W11941   5.146   5.495   9.734 -0.1731  0.1711  0.0717
 7742W        W11942   0.545   3.694   8.128  0.2151  0.1207  0.0657
 7743W        W11943   9.929   1.067   0.019 -0.2154 -0.0593  0.3544
 7744W        W11944   2.783   8.620  12.236 -0.3597  0.1351  0.2471
 7745W        W11945  10.136   3.703   4.760 -0.1964  0.0727 -0.1411
 7746W        W11946   1.809   1.159  10.564 -0.1852  0.1448  0.2763
 7747W        W11947   5.835   2.733  11.376  0.3087  0.1858  0.2331
 7748W        W11948  10.147   6.863   4.527 -0.0643  0.2566  0.0721
 7749W        W11949   2.990   1.214  12.054  0.0729 -0.0324 -0.1843
 7750W        W11950   2.700   7.252  13.432 -0.2984  0.0469 -0.0860
 7751W        W11951   1.367   3.667   9.169 -0.0803  0.3097  0.1675
 7752W        W11952   1.281   3.512   2.075 -0.0935 -0.0039  0.0149
 7753W        W11953   1.385   8.188  12.512 -0.4170  0.0250 -0.0768
 7754W        W11954   6.148  10.124  11.567 -0.3641 -0.1296  0.2243
 7755W        W11955   8.840   7.059  12.789 -0.4422  0.1258 -0.1081
 7756W        W11956   6.208  10.225   3.341 -0.1252  0.0966 -0.1894
 7757W        W11957  10.277   0.102   2.108 -0.0222 -0.1198  0.0622
 7758W        W11958   1.901   1.199   0.431  0.1589  0.0318 -0.3101
 7759W        W11959   7.892   3.640  12.617 -0.0409 -0.0257  0.3207
 7760W        W11960   6.396   3.796  10.755 -0.1009  0.0863  0.0801
 7761W        W11961   6.754   4.994   2.417 -0.1513 -0.2877  0.1702
 7762W        W11962   9.788   7.200  11.240 -0.4091 -0.3804 -0.0667
 7763W        W11963   5.929   1.034  12.844  0.0210 -0.0947 -0.1107
 7764W        W11964   6.203   4.698   8.884  0.1562  0.1096  0.1483
 7765W        W11965   6.437   0.844   2.413  0.0831  0.0641 -0.1146
 7766W        W11966   4.860   2.531   3.026  0.0835  0.0865 -0.0542
 7767W        W11967   6.959   4.967  12.828 -0.0201 -0.2399 -0.3052
 7768W        W11968   8.374   3.319   2.945 -0.1057  0.2482  0.5328
 7769W        W11969   1.157   5.366  10.377  0.0763  0.1589 -0.0932
 7770W        W11970   0.952   5.603   1.670  0.2447  0.1204 -0.1155
 7771W        W11971   0.384   6.475  11.087 -0.0993 -0.0271  0.2350
 7772W        W11972   2.583   2.350   0.946  0.0157 -0.1166 -0.3163
 7773W        W11973   7.290   6.332  12.979  0.0985  0.1861  0.0981
 7774W        W11974   6.408   3.819   9.213  0.1878  0.1363 -0.0827
 7775W        W11975   3.251   1.561   3.038 -0.1087 -0.0589 -0.2361
 7776W        W11976   7.602  10.185  11.325 -0.2754  0.3120 -0.1092
 7777W        W11977   5.274   5.196  11.836 -0.1816  0.2964  0.0611
 7778W        W11978   3.311   2.312   0.386 -0.0593  0.2775 -0.1223
 7779W        W11979   8.135   7.693  10.862 -0.0294  0.2556 -0.3174
 7780W        W11980   9.048   0.528  12.473 -0.0815 -0.1577 -0.1597
 7781W        W11981  10.172   5.735   0.072  0.2412 -0.0503  0.1603
 7782W        W11982   3.575   4.257  10.989 -0.1671 -0.1352  0.2350
 7783W        W11983   4.002   8.570  13.355 -0.5456 -0.0041  0.0618
 7784W        W11984   7.125   2.353   9.981 -0.1427  0.3232 -0.1531
 7785W        W11985   3.990   4.542   0.032  0.0769 -0.0017  0.0318
 7786W        W11986   8.575   6.366  12.125  0.2434 -0.1837  0.0382
 7787W        W11987   2.500   6.211   0.682 -0.0971  0.4056 -0.3926
 7788W        W11988   0.737   5.428   9.779 -0.0254 -0.0019  0.4009
 7789W        W11989   0.063   2.060   1.320 -0.0291 -0.3445 -0.0536
 7790W        W11990   6.177   1.241   2.279  0.0662 -0.0723 -0.3179
 7791W        W11991   2.610  10.164  11.890  0.0793  0.1098  0.1190
 7792W        W11992   4.087   6.032  10.157  0.0999  0.1334 -0.2361
 7793W        W11993   6.748   1.870  13.075 -0.2092 -0.0025 -0.0412
 7794W        W11994   7.465   5.672   3.382  0.0454  0.1277  0.2197
 7795W        W11995   6.061   2.478   2.439  0.0268  0.1549  0.0279
 7796W        W11996  10.328   9.806   3.438  0.2851 -0.1484 -0.0180
 7797W        W11997   4.953   0.273  11.824 -0.2120 -0.3316  0.3481
 7798W        W11998  10.167   4.895   8.196 -0.1421 -0.1405 -0.2228
 7799W        W11999   9.652   9.270   1.251 -0.3559  0.0611 -0.2619
 7800W        W12000   6.242   2.741   1.418 -0.0950 -0.0036  0.0111
 7801W        W12001   2.217   0.254   0.566 -0.0891  0.2671 -0.0224
 7802W        W12002   9.091   8.022   2.134 -0.0081  0.0873  0.0714
 7803W        W12003   9.894   1.605  12.171 -0.2298 -0.0171 -0.2713
 7804W        W12004   7.772   5.439   1.542  0.0036 -0.2160  0.0960
 7805W        W12005   3.655   7.721   2.473 -0.0559  0.1184  0.0997
 7806W        W12006   4.641   8.572   2.210 -0.1426 -0.1191  0.2686
 7807W        W12007   3.998   0.530  12.689 -0.0573 -0.0072  0.0692
 7808W        W12008   1.952   8.266  11.763 -0.4091  0.2068  0.0457
 7809W        W12009   2.094  10.235   0.560  0.2694  0.2331 -0.0732
 7810W        W12010   7.621   6.396  12.466  0.2057 -0.2793 -0.0514
 7811W        W12011   7.266   5.238  11.998 -0.1341  0.0148 -0.1710
 7812W        W12012   2.303   1.415   2.565 -0.0634  0.0427  0.2389
 7813W        W12013   9.226   4.253   3.673 -0.1611 -0.1425  0.2718
 7814W        W12014   4.914   3.157   2.852  0.1406  0.0230  0.2750
 7815W        W12015   6.992   2.528   3.009  0.1396  0.1983  0.2636
 7816W        W12016  10.287   2.982   4.186  0.1805  0.0620 -0.1576
 7817W        W12017   8.866   6.177  11.119 -0.2905 -0.1308 -0.1048
 7818W        W12018   7.372   1.301   9.399 -0.2351  0.0009  0.0735
 7819W        W12019   3.384   0.407  12.605 -0.1227 -0.3868  0.1251
 7820W        W12020   0.089   3.400   4.249 -0.0990 -0.1276  0.0421
 7821W        W12021   1.122   5.821   0.727 -0.1853 -0.6417 -0.0224
 7822W        W12022   7.095   5.876   0.810  0.1755  0.0894  0.1234
 7823W        W12023   8.296   9.578   4.339 -0.0928 -0.1093  0.2467
 7824W        W12024   8.217   1.202   2.244 -0.1504 -0.0525  0.1265
 7825W        W12025   7.476   7.369   0.626  0.1494 -0.0416  0.1237
 7826W        W12026   3.178   4.111  11.920  0.0888  0.1769  0.1163
 7827W        W12027   5.850   6.005   3.241  0.0544 -0.0631  0.1336
 7828W        W12028   6.917   1.495   3.672  0.2036  0.0640 -0.0078
 7829W        W12029   2.882   2.018  10.633 -0.0766 -0.3072 -0.0201
 7830W        W12030   4.109   1.582   0.074  0.2663  0.1735 -0.4948
 7831W        W12031   8.078   8.419  10.923  0.0801 -0.1023  0.1870
 7832W        W12032   0.498   1.833   8.421 -0.2142 -0.2308  0.1471
 7833W        W12033   2.013   5.112   9.566 -0.0538  0.0258  0.0425
 7834W        W12034   3.610   2.579   4.660 -0.1097 -0.0656 -0.1422
 7835W        W12035   7.906   9.778   0.299  0.0931 -0.1010 -0.1087
 7836W        W12036  10.122   5.720  12.948 -0.4145  0.2251  0.2254
 7837W        W12037   7.281   0.981  10.384  0.1589 -0.0267  0.2392
 7838W        W12038   9.121  10.198   3.865  0.4071 -0.0713  0.0252
 7839W        W12039   5.098   2.300  12.434 -0.5124 -0.1493  0.0297
 7840W        W12040  10.398   5.143   4.229 -0.1422  0.1022  0.0271
 7841W        W12041   5.013   1.189   9.729  0.2609 -0.0733  0.1252
 7842W        W12042   6.485   5.100  12.645  0.0587 -0.1459  0.0031
 7843W        W12043   1.547   2.158   1.754 -0.0183  0.0333 -0.1417
 7844W        W12044   4.823   3.388  10.520  0.0939  0.0343 -0.0515
 7845W        W12045   7.385   2.818   1.552 -0.0963 -0.1996 -0.0905
 7846W        W12046   8.983   8.316   3.847  0.4175 -0.1337 -0.2410
 7847W        W12047   6.434   7.993   4.135 -0.3144 -0.2665 -0.1920
 7848W        W12048   4.455   6.080   3.155 -0.5249  0.1538 -0.1205
 7849W        W12049   3.177   2.327   2.306  0.0725 -0.1948 -0.3094
 7850W        W12050   5.346   8.973  13.361  0.0105  0.1750 -0.0209
 7851W        W12051   7.362   4.051   0.855  0.2942  0.1204  0.0224
 7852W        W12052   6.373   4.614  12.673  0.0540 -0.1909  0.3386
 7853W        W12053   9.427   1.203   0.131 -0.2281 -0.2941  0.1671
 7854W        W12054   8.412   4.836   0.895 -0.1267 -0.0173 -0.3685
 7855W        W12055   6.941   5.264   3.563 -0.0471 -0.2142  0.1032
 7856W        W12056   6.656   9.457   2.763 -0.4833  0.0477 -0.3089
 7857W        W12057   7.606   7.115   1.059  0.0055  0.0896 -0.0637
 7858W        W12058   6.957   2.843   5.452  0.1777 -0.3741 -0.2311
 7859W        W12059   8.968  10.107  10.439 -0.0378  0.2915  0.1374
 7860W        W12060  10.276   3.387   0.844  0.3595  0.0307  0.0952
 7861W        W12061   0.049   3.710   8.837  0.0867 -0.2606 -0.2173
 7862W        W12062  10.007   9.193  11.570 -0.2407 -0.0595 -0.1450
 7863W        W12063   6.983   0.335  13.040  0.0836  0.1891  0.2409
 7864W        W12064   8.790   1.912  12.691 -0.2762  0.2289 -0.2561
 7865W        W12065   3.505   6.711  12.591 -0.3023  0.1172  0.0876
 7866W        W12066   5.562   4.679   0.458  0.1454 -0.2700 -0.2481
 7867W        W12067   2.661   9.033   3.113 -0.1340  0.1298  0.1719
 7868W        W12068   2.791   7.860  12.879  0.3534 -0.0086 -0.2781
 7869W        W12069   0.766   7.404   0.246 -0.1532  0.0258  0.1914
 7870W        W12070   6.048  10.119  12.205 -0.0589 -0.0807  0.2193
 7871W        W12071  10.183   7.928   4.629 -0.0478 -0.1182 -0.1368
 7872W        W12072   4.781   2.318  11.090  0.1562 -0.0068  0.0380
 7873W        W12073   8.257   7.006   1.818 -0.0600 -0.0691 -0.1774
 7874W        W12074   3.055   2.673   1.801  0.3550 -0.0001  0.0411
 7875W        W12075   9.895   2.823   0.425 -0.0297  0.0097  0.4101
 7876W        W12076   9.623   8.188   9.743  0.3789  0.0672 -0.1096
 7877W        W12077   5.943   0.118  12.908  0.0651 -0.0161 -0.0263
 7878W        W12078   5.761   4.519   3.567 -0.1868 -0.3188  0.1144
 7879W        W12079   2.326   4.811   0.989  0.1791  0.1250  0.1808
 7880W        W12080   3.097   3.016  11.769  0.0028  0.0525 -0.1169
 7881W        W12081   0.131   6.076   9.792 -0.0817  0.2677  0.1242
 7882W        W12082   2.808   1.222   2.633 -0.0284  0.0034  0.3678
 7883W        W12083   9.001   4.209   2.355  0.0345  0.1018 -0.0626
 7884W        W12084   1.146   6.757   9.167 -0.0520 -0.0588 -0.1787
 7885W        W12085   4.583   5.230   3.139  0.1641 -0.4552  0.1337
 7886W        W12086   6.633   6.743   2.271 -0.4072 -0.0624  0.1311
 7887W        W12087   0.578   7.869   1.160  0.1349  0.0774  0.1537
 7888W        W12088   2.604   4.808  10.214  0.0174 -0.0139  0.1600
 7889W        W12089   1.765   2.510   4.824 -0.2510 -0.3139 -0.1040
 7890W        W12090   1.254   6.305  10.699 -0.2888 -0.2225  0.2953
 7891W        W12091   5.995   8.407  11.146 -0.0216  0.0061 -0.1516
 7892W        W12092   8.232   6.877  10.864 -0.0459  0.0810 -0.2408
 7893W        W12093   2.697   1.673  12.125  0.2094 -0.1075 -0.0152
 7894W        W12094   7.981   2.942   4.541 -0.0335  0.1520  0.2932
 7895W        W12095   2.686   0.443   4.290 -0.0588  0.0021 -0.0440
 7896W        W12096   4.452   7.389  12.979 -0.1082  0.2300 -0.0161
 7897W        W12097   3.758   3.397   9.244  0.1272 -0.1609 -0.2355
 7898W        W12098   8.863   1.666   9.282 -0.1656 -0.1275 -0.0255
 7899W        W12099   5.733   7.666   9.676  0.2270 -0.0202  0.0216
 7900W        W12100   7.966   2.085  12.166 -0.1867  0.1817  0.2070
 7901W        W12101   8.141   0.560   2.847 -0.0416 -0.0152 -0.0991
 7902W        W12102   3.466   9.009   2.686 -0.2992 -0.0023  0.2013
 7903W        W12103   3.781   5.840  12.410  0.1875  0.1690 -0.1132
 7904W        W12104   3.179   6.237   0.775  0.3281 -0.0382 -0.2389
 7905W        W12105   3.441   9.970   2.634  0.1260  0.0534  0.2879
 7906W        W12106   3.207   9.717   1.071  0.2023  0.1815 -0.1027
 7907W        W12107   5.850   1.024  10.076 -0.0771 -0.0820 -0.0594
 7908W        W12108   6.141   9.746  11.912 -0.0940  0.0124  0.3825
 7909W        W12109   2.815   7.949   8.916  0.1969  0.1789 -0.1794
 7910W        W12110   5.325   5.121   0.253  0.3023  0.2108  0.0531
 7911W        W12111  10.262   6.698   9.480 -0.1316 -0.1533  0.4657
 7912W        W12112   0.787   0.357  12.041  0.1333  0.1350  0.0034
 7913W        W12113   2.943   0.233  11.242 -0.1225 -0.2253 -0.2535
 7914W        W12114   7.876   2.675   9.209 -0.3409  0.2238  0.2605
 7915W        W12115   2.621   0.366   3.319  0.0362  0.0763  0.0110
 7916W        W12116   4.511   2.882   3.157  0.1028 -0.1688 -0.1847
 7917W        W12117   9.453  10.359   9.690  0.0899  0.2082  0.2747
 7918W        W12118   4.313   7.818  12.627 -0.0467 -0.0144 -0.5008
 7919W        W12119   3.833   7.373   0.005  0.1155 -0.0756  0.0336
 7920W        W12120   7.399   0.686  13.015 -0.0669 -0.1953  0.0878
 7921W        W12121   7.801   6.655  10.036 -0.0134 -0.0039 -0.0661
 7922W        W12122   8.972   0.898   0.405  0.2064 -0.1944  0.1276
 7923W        W12123   0.146   4.300  11.805 -0.1583  0.0993 -0.3445
 7924W        W12124   9.936  10.098   3.391 -0.0116  0.0018  0.2353
 7925W        W12125   4.562   1.845   0.778  0.1619 -0.4083  0.1565
 7926W        W12126   0.716   2.788   0.412  0.1439 -0.3677 -0.0589
 7927W        W12127   6.935   2.531  12.575  0.0586  0.1485 -0.1586
 7928W        W12128   6.657   8.082   0.707  0.0400  0.0810 -0.1833
 7929W        W12129   9.476   8.607   1.595  0.3318 -0.1414 -0.0536
 7930W        W12130   5.737   5.617   3.840 -0.2926 -0.0571 -0.0974
 7931W        W12131   0.154   9.188  12.586 -0.1118  0.0521 -0.0954
 7932W        W12132   3.260   6.353  10.794 -0.0178 -0.1133  0.2324
 7933W        W12133   3.667   6.039   4.626 -0.3868  0.1543 -0.3551
 7934W        W12134  10.438   5.592  10.610  0.1591  0.2991 -0.1502
 7935W        W12135   3.142  10.069   2.121  0.0520 -0.0574  0.1024
 7936W        W12136   4.494   8.990  11.051 -0.0075 -0.0854 -0.1545
 7937W        W12137   4.383   5.304  10.794  0.1734 -0.0169  0.1025
 7938W        W12138  10.461   4.860   1.807  0.0671  0.1532 -0.0964
 7939W        W12139   0.282   9.521  11.379  0.2082 -0.4626  0.1770
 7940W        W12140   3.197   1.278  12.652 -0.1649  0.1314 -0.1883
 7941W        W12141   7.572   2.955   1.976  0.1061  0.1308 -0.0652
 7942W        W12142   3.194   1.522   1.234 -0.0835  0.2407  0.0534
 7943W        W12143   4.518   7.463   1.465 -0.1568  0.1130 -0.1664
 7944W        W12144   6.359   8.362  11.673 -0.0625  0.4838 -0.2823
 7945W        W12145   2.286   4.419  12.625  0.1123 -0.0684  0.1865
 7946W        W12146   5.799   0.298  10.536 -0.1463  0.0944  0.1645
 7947W        W12147   1.920   6.439   1.739 -0.0221 -0.3109 -0.1319
 7948W        W12148   6.632   0.992  12.148 -0.3138 -0.1903 -0.2031
 7949W        W12149   0.194   2.158   0.461 -0.0371  0.0863  0.2486
 7950W        W12150   4.542   2.837   9.339 -0.0817 -0.3734  0.1008
 7951W        W12151   4.354   1.013   1.193  0.1999  0.3742 -0.1001
 7952W        W12152   8.570   2.632  13.263  0.1058 -0.3725  0.1286
 7953W        W12153   5.242   7.918   0.938  0.1501  0.2598  0.3482
 7954W        W12154   7.828   6.383  13.122 -0.0286 -0.2735 -0.3091
 7955W        W12155   4.933   7.876   3.298 -0.2478  0.4344 -0.1225
 7956W        W12156   5.748   7.068   3.195  0.1468  0.1226 -0.1995
 7957W        W12157   5.079   8.600   2.487 -0.1410 -0.0997 -0.0102
 7958W        W12158   0.513   4.943   3.221  0.3353  0.1367 -0.0108
 7959W        W12159   6.310   5.396   0.352 -0.1628  0.1475  0.4628
 7960W        W12160   4.712   2.823  10.995  0.0926 -0.0686  0.2405
 7961W        W12161   6.844   6.742   1.746 -0.1375  0.0171 -0.0868
 7962W        W12162   6.756   1.356  12.930 -0.0049  0.4540 -0.3202
 7963W        W12163   9.165   4.841   1.254 -0.2025  0.1626  0.1066
 7964W        W12164   3.982   5.773  10.744 -0.0446 -0.0161  0.2520
 7965W        W12165   3.716   8.546   1.219  0.0952 -0.1523  0.2067
 7966W        W12166   0.352   8.299   3.943  0.3797 -0.1689 -0.2360
 7967W        W12167   3.509   6.477  11.831  0.1732 -0.2139 -0.1906
 7968W        W12168   3.217  10.233   3.010 -0.0199  0.2351 -0.1000
 7969W        W12169   1.937   9.117   2.195  0.2449  0.0217 -0.1086
 7970W        W12170   6.792   5.653  10.898 -0.3222  0.0509 -0.0558
 7971W        W12171   0.494   8.460  12.979  0.2607 -0.0798 -0.0382
 7972W        W12172   0.381   0.850   1.935 -0.0372 -0.2306 -0.2216
 7973W        W12173   3.235   7.593  12.688 -0.4234 -0.1395  0.1914
 7974W        W12174   2.595   3.432   4.113 -0.1541 -0.3409  0.2179
 7975W        W12175   8.855   5.104   9.736  0.0805 -0.1240 -0.0945
 7976W        W12176   0.094   5.881  11.143  0.0262 -0.0101  0.0913
 7977W        W12177   0.811   8.969   0.949 -0.0310 -0.0646  0.0188
 7978W        W12178   0.729   5.015  11.794 -0.3500  0.2372 -0.0787
 7979W        W12179   0.516   5.264   4.106  0.1045  0.0508 -0.3111
 7980W        W12180   9.365   1.639   3.886  0.0722 -0.2012 -0.1706
 7981W        W12181   9.397   9.661   1.480  0.1127 -0.2228  0.0991
 7982W        W12182   4.439   1.228   1.984 -0.3185 -0.0229  0.1153
 7983W        W12183   7.102   8.820  12.337  0.0264  0.2005  0.3226
 7984W        W12184   3.845   9.910  13.336 -0.1950  0.0185 -0.2404
 7985W        W12185   0.261   0.030  13.320  0.0282  0.1174  0.0461
 7986W        W12186   6.420   0.890  10.814  0.1305  0.2247  0.2087
 7987W        W12187   0.434  10.035  12.398 -0.0008 -0.2408  0.0303
 7988W        W12188   8.375   1.857   4.582 -0.1365  0.1487  0.1896
 7989W        W12189   3.897   3.003   2.383 -0.1497 -0.1284  0.2195
 7990W        W12190   4.164   0.425   9.422  0.0027  0.1149  0.2353
 7991W        W12191   7.447   2.812   3.887  0.0004 -0.1743  0.1100
 7992W        W12192   0.112   8.691   9.426  0.0116  0.0497 -0.0486
 7993W        W12193   2.247   6.578  11.304  0.0508  0.1272  0.2365
 7994W        W12194   5.009   5.049  12.734  0.0433  0.0760 -0.0041
 7995W        W12195   3.951   9.452  13.165 -0.4388  0.0791 -0.0390
 7996W        W12196   9.287   1.204  10.115  0.2304 -0.0228 -0.3116
 7997W        W12197   7.587   9.022   9.792  0.0435  0.1821 -0.0129
 7998W        W12198   6.125   1.104   2.770 -0.1357 -0.0784  0.2213
 7999W        W12199   9.595   6.858   3.996  0.0899 -0.0735  0.2741
 8000W        W12200   7.152   9.381   0.023  0.0167 -0.0471  0.0482
 8001W        W12201   0.940   1.344   4.343 -0.0794 -0.0483  0.0206
 8002W        W12202   1.569   5.155   9.061 -0.1012 -0.3034  0.1974
 8003W        W12203   1.800   0.583   9.943  0.1494 -0.0244  0.1538
 8004W        W12204   5.304   1.666   2.273  0.1568 -0.1387  0.2522
 8005W        W12205   9.270   1.420   1.177 -0.1842 -0.2870  0.1497
 8006W        W12206   8.329   3.504  13.418  0.0689  0.2416  0.1208
 8007W        W12207   0.747   7.224  12.073 -0.0673  0.0788  0.0958
 8008W        W12208  10.424   0.760   0.893 -0.2792 -0.0709  0.0721
 8009W        W12209   0.988   6.965   3.446  0.2542 -0.0879  0.1976
 8010W        W12210   8.217   7.631   9.919 -0.0512  0.1158  0.0287
 8011W        W12211   3.735   1.631   2.354  0.1820  0.1419 -0.1808
 8012W        W12212   7.693   1.649   0.435 -0.1088  0.0560 -0.2104
 8013W        W12213   9.593   4.493   8.800 -0.3013  0.2384 -0.4696
 8014W        W12214   5.177   6.723   1.500  0.0828  0.2582  0.0417
 8015W        W12215   5.669   0.748   1.993  0.0060 -0.0101 -0.0712
 8016W        W12216   7.130   4.476   4.409 -0.2281 -0.1055 -0.0142
 8017W        W12217   7.329   5.485   2.105 -0.0498 -0.2659  0.0612
 8018W        W12218   1.887   7.965  12.694 -0.0794  0.2696  0.1614
 8019W        W12219   4.519   1.618  13.322  0.1603  0.2139  0.1101
 8020W        W12220   0.253   7.619   8.486 -0.0568 -0.2660 -0.2779
 8021W        W12221  10.311   7.973  10.600 -0.1921  0.2450 -0.4837
 8022W        W12222  10.231   0.129   2.631 -0.0326  0.2172  0.0222
 8023W        W12223   7.250   5.030   4.393 -0.4196 -0.0949  0.0306
 8024W        W12224   2.440   7.523   3.247 -0.1426  0.0937 -0.0825
 8025W        W12225   2.071   3.752   9.524 -0.2022  0.2175 -0.0296
 8026W        W12226   8.661   9.218   2.937  0.3525  0.0576  0.4512
 8027W        W12227   7.874   7.517   9.626  0.1051 -0.1648 -0.0580
 8028W        W12228   0.187   6.395   3.352 -0.0649  0.1193  0.0274
 8029W        W12229   9.150  10.053   3.341 -0.0583 -0.0425 -0.0941
 8030W        W12230   0.944   2.760   0.002 -0.0366 -0.1933 -0.0546
 8031W        W12231   7.561   6.686  11.439 -0.1361  0.0140  0.2146
 8032W        W12232   9.093   0.043  12.453 -0.2246 -0.0608  0.0047
 8033W        W12233   5.488   3.299  10.819  0.2865  0.1847 -0.3095
 8034W        W12234   9.038   6.531   9.488 -0.0386  0.1543 -0.0513
 8035W        W12235   4.769   9.174   0.011 -0.2343 -0.3105 -0.2685
 8036W        W12236   5.100   8.106   1.474 -0.1384  0.0405  0.1202
 8037W        W12237   4.372   3.837  11.677  0.1462 -0.1339 -0.2070
 8038W        W12238  10.419   4.463  11.341 -0.1531 -0.1000  0.0797
 8039W        W12239   5.165   5.615   3.845  0.0218  0.2167  0.2300
 8040W        W12240   8.291  10.311   2.118  0.0295 -0.0585  0.1788
 8041W        W12241   9.223   6.654   3.006 -0.3726 -0.0231 -0.1214
 8042W        W12242   5.677   7.262   9.996 -0.0014  0.0520  0.1249
 8043W        W12243   4.737   5.203   2.130  0.0920 -0.0445 -0.0344
 8044W        W12244   7.369   1.317   3.760 -0.3524 -0.1447  0.2990
 8045W        W12245   9.565   0.610   4.461 -0.0812  0.0395  0.1493
 8046W        W12246   9.466   9.776  12.042 -0.0580 -0.1535 -0.1631
 8047W        W12247   2.365   4.683   9.094 -0.1467  0.4214 -0.1580
 8048W        W12248   8.264   5.650   1.460 -0.2087 -0.0626 -0.0262
 8049W        W12249   4.288   6.554  11.336 -0.0233  0.1073 -0.2265
 8050W        W12250   7.753   9.896  10.746  0.2250  0.1824  0.0821
 8051W        W12251   0.725   4.200   2.155 -0.0242  0.0032 -0.1769
 8052W        W12252   1.039   9.134   2.635  0.1595 -0.0497  0.1867
 8053W        W12253   9.872   9.297   2.198  0.0719 -0.1797 -0.1370
 8054W        W12254   8.176   3.745  11.648 -0.1052 -0.0866  0.2209
 8055W        W12255   3.066   4.375   4.553  0.0366  0.0725  0.0978
 8056W        W12256   8.134   1.543  10.195  0.1526  0.1364 -0.1016
 8057W        W12257   9.163   9.438  13.387 -0.0917  0.2846  0.2445
 8058W        W12258   8.846   3.964   3.374  0.0705  0.0270  0.0359
 8059W        W12259   5.870   9.596   1.075 -0.1244 -0.3209  0.0349
 8060W        W12260   2.812   3.462   1.769  0.1712  0.0988  0.2530
 8061W        W12261   7.090   8.988   2.114  0.2220  0.1180 -0.2737
 8062W        W12262   0.774   9.651  12.267  0.1449 -0.2860 -0.2307
 8063W        W12263   8.734   1.459  12.368  0.3052  0.2744 -0.0115
 8064W        W12264   1.413   3.167  11.867 -0.2009 -0.2503 -0.0959
 8065W        W12265   4.580   6.985  11.389  0.1588  0.0764  0.1121
 8066W        W12266  10.002   6.514   9.934  0.1444  0.3978 -0.1989
 8067W        W12267   8.540   3.487   9.117 -0.0725  0.2586 -0.5910
 8068W        W12268   1.551   8.186  11.302 -0.0270  0.1796  0.0834
 8069W        W12269   4.252   5.558  10.187 -0.1497  0.0362  0.1954
 8070W        W12270   6.677   7.314   0.145  0.1323  0.1893  0.0355
 8071W        W12271   9.346   3.850   3.245 -0.1091  0.1373  0.0037
 8072W        W12272   8.341   1.730   8.514 -0.0149 -0.0510  0.0687
 8073W        W12273   1.730   6.610   9.840 -0.2081 -0.2266 -0.1784
 8074W        W12274   1.695   3.346  11.130 -0.1486 -0.0471 -0.1696
 8075W        W12275   2.761   0.243   1.743  0.1862  0.1403 -0.1962
 8076W        W12276   2.071   0.508  10.929 -0.1014  0.3413  0.2270
 8077W        W12277   0.582   9.622   3.522  0.2179  0.1645 -0.4239
 8078W        W12278   3.540   0.487   0.781  0.3152  0.2716 -0.0221
 8079W        W12279   7.969   5.973   9.321 -0.0349 -0.0516 -0.1538
 8080W        W12280   7.655   1.629   4.297 -0.2602 -0.1417  0.3016
 8081W        W12281   4.850   3.728   3.677 -0.0910 -0.0016  0.0101
 8082W        W12282   6.044   9.066   3.240  0.1345  0.0290  0.1674
 8083W        W12283   9.400   0.951   0.795  0.1323 -0.1395 -0.1296
 8084W        W12284   5.030   8.212  13.346  0.0242  0.1019  0.0864
 8085W        W12285   0.050   7.693   9.364  0.1572 -0.2637  0.0298
 8086W        W12286   6.012   4.099   1.341 -0.0532 -0.0311 -0.0741
 8087W        W12287   8.326   4.907   3.204 -0.1044  0.2051  0.0291
 8088W        W12288   5.564   0.432   3.390  0.1734  0.1302 -0.1713
 8089W        W12289   2.348   6.690   9.749  0.2699 -0.0206 -0.1475
 8090W        W12290   3.327   1.018   1.284 -0.0241  0.2006 -0.0352
 8091W        W12291   2.539   5.465  12.731 -0.0441 -0.0296 -0.2389
 8092W        W12292   9.427   5.990   0.625  0.3968  0.3224 -0.1085
 8093W        W12293   8.202   5.436  11.811  0.2840 -0.0767 -0.3430
 8094W        W12294   9.268   3.642  10.838  0.0119  0.3144  0.1962
 8095W        W12295   1.049   9.177   1.679 -0.0498  0.0169 -0.1717
 8096W        W12296   5.951   4.897  11.202 -0.2519  0.1265  0.3417
 8097W        W12297   7.712   6.520   0.284 -0.1125  0.2404 -0.2361
 8098W        W12298   5.169   5.084  10.657 -0.1341  0.0925 -0.1473
 8099W        W12299   2.893   2.672  13.081 -0.0431 -0.1829  0.2408
 8100W        W12300   3.702   5.491  11.882  0.3235  0.1954 -0.0545
 8101W        W12301   7.052   3.278   1.162 -0.0194  0.1874 -0.0409
 8102W        W12302   1.276   7.512  12.217  0.3613  0.0695  0.1476
 8103W        W12303   1.063   1.916  12.960 -0.2632 -0.0456 -0.1367
 8104W        W12304   0.553   1.822  13.044  0.2053 -0.0850 -0.1329
 8105W        W12305   8.403   2.629   0.273 -0.3481  0.1756 -0.0146
 8106W        W12306   7.125   7.756   9.967  0.2301  0.0841 -0.0765
 8107W        W12307   7.099   1.340   0.290 -0.0009  0.0459 -0.0397
 8108W        W12308   2.040   9.428   0.104 -0.1339  0.1380  0.1943
 8109W        W12309   1.015   9.936   4.219 -0.0428 -0.0717 -0.5726
 8110W        W12310   5.759   6.461   2.000  0.0208  0.0018 -0.0842
 8111W        W12311   1.805   3.297   4.271 -0.0009  0.4906  0.0738
 8112W        W12312   9.245   9.551   0.955 -0.2324  0.0530  0.0062
 8113W        W12313   3.291   1.252   3.591 -0.0636 -0.0107  0.0670
 8114W        W12314   3.937   9.788   9.678 -0.0736  0.1196  0.1835
 8115W        W12315   7.167   7.211  13.146  0.0770 -0.1868 -0.1975
 8116W        W12316   4.226   4.008   4.439  0.1900 -0.1369 -0.0412
 8117W        W12317   0.895   3.433   9.270 -0.0627 -0.3239  0.0425
 8118W        W12318   9.540   4.105   2.523 -0.1705  0.0229 -0.3473
 8119W        W12319   0.688   2.178   4.281  0.2935 -0.1418 -0.2763
 8120W        W12320   4.769   4.098   2.488 -0.0198  0.0692  0.3689
 8121W        W12321   4.288   2.152  12.572 -0.1032  0.1198  0.0884
 8122W        W12322   4.273   9.560   2.822 -0.2878 -0.1813 -0.1171
 8123W        W12323   7.225   6.410   1.823  0.3335 -0.1101 -0.0145
 8124W        W12324   2.809   4.261   3.588 -0.0140  0.0821 -0.1265
 8125W        W12325   6.648   6.863   8.820 -0.0256 -0.1204  0.1303
 8126W        W12326   4.993   3.261  10.983 -0.2223 -0.3976 -0.0946
 8127W        W12327   1.303   4.230   2.978 -0.1499 -0.3567 -0.0933
 8128W        W12328   3.560   1.607  11.370  0.3577 -0.3835  0.0266
 8129W        W12329   4.087   8.317   1.464  0.1769 -0.1189 -0.2525
 8130W        W12330   6.656   8.339   3.888  0.1589 -0.2696 -0.0418
 8131W        W12331   0.339   3.230   4.875  0.1328 -0.2067  0.2617
 8132W        W12332   8.757  10.403   8.756 -0.0827  0.3152 -0.1371
 8133W        W12333   7.675   8.544   2.415 -0.0951  0.2469  0.0766
 8134W        W12334   5.285   6.886   9.849  0.0142  0.3104 -0.0241
 8135W        W12335   4.867   4.460   3.943 -0.0452  0.0710  0.1349
 8136W        W12336   1.081   0.161  10.734  0.3589 -0.0249  0.0096
 8137W        W12337   8.166   5.236  12.608 -0.0644  0.6922  0.3286
 8138W        W12338   0.239   0.266   1.944 -0.0318  0.1842  0.0383
 8139W        W12339   1.916   5.796   5.127 -0.1027 -0.2842  0.0049
 8140W        W12340   0.179  10.469   4.218  0.2717 -0.1307  0.1733
 8141W        W12341   1.418   6.430   9.512  0.0887 -0.1049  0.2064
 8142W        W12342   0.431   1.879   8.940  0.2224 -0.0210 -0.0455
 8143W        W12343   1.832   5.424   0.515  0.3236 -0.1930 -0.1233
 8144W        W12344   5.322   5.662   1.795  0.1281 -0.2764 -0.5742
 8145W        W12345   3.193   6.790   3.240  0.0050 -0.1804  0.0676
 8146W        W12346   7.513   0.391   4.460  0.2734  0.0175  0.1267
 8147W        W12347   5.517   2.652   4.307  0.2059 -0.4844 -0.1309
 8148W        W12348   3.113   3.684   0.541 -0.1824  0.2480  0.0649
 8149W        W12349   1.289   5.738   4.249 -0.2519  0.1945  0.0439
 8150W        W12350   2.173   4.987   4.669 -0.3452  0.0458  0.2772
 8151W        W12351   6.008   3.545  10.961  0.1913 -0.1207 -0.1718
 8152W        W12352   3.636   7.283  12.604 -0.0471 -0.0060 -0.0129
 8153W        W12353   8.236   9.725   9.819 -0.2945  0.0489  0.0956
 8154W        W12354   5.773   7.204  12.032 -0.0143  0.0049 -0.1493
 8155W        W12355   1.045   4.136   9.914 -0.1396  0.0789  0.1378
 8156W        W12356   7.490   2.505   1.898 -0.0952  0.0220  0.0112
 8157W        W12357   4.614   1.306   1.519  0.1654 -0.0113  0.1132
 8158W        W12358   8.400   2.926   3.760  0.1085 -0.2274  0.0282
 8159W        W12359   5.535   8.814   2.595 -0.3189  0.1564  0.1937
 8160W        W12360   2.481  10.470   4.132 -0.1763  0.3132  0.1956
 8161W        W12361   4.223   5.496  12.102  0.0329  0.1854 -0.0649
 8162W        W12362   1.801   6.717   2.130 -0.0538  0.0000  0.1539
 8163W        W12363   3.999   4.654  11.131  0.2118  0.1152 -0.1386
 8164W        W12364   9.847   8.243   4.339 -0.1288 -0.2526  0.0232
 8165W        W12365   2.814   0.457  13.145 -0.0549 -0.0583  0.1770
 8166W        W12366   5.818   0.302  13.442  0.1379 -0.1372  0.0832
 8167W        W12367   6.953   5.373   4.102  0.2354  0.2801 -0.1191
 8168W        W12368   5.003   8.903   0.322  0.0191  0.0674 -0.1492
 8169W        W12369   0.330   9.911   9.896 -0.0092 -0.1225  0.2112
 8170W        W12370   4.443   6.900   3.786 -0.1570 -0.2704 -0.1951
 8171W        W12371   4.466   2.231   2.832  0.0212  0.0871 -0.2055
 8172W        W12372   3.453   3.763  10.732 -0.0876 -0.5107  0.3139
 8173W        W12373   3.341   0.282  13.204 -0.0059 -0.1048 -0.3273
 8174W        W12374   0.053   2.260  12.231 -0.3239 -0.2129  0.2053
 8175W        W12375   1.948  10.453   1.369  0.2221 -0.1624 -0.0604
 8176W        W12376   5.962   0.185   3.406  0.0465  0.2945 -0.1333
 8177W        W12377   7.585   6.981  12.377  0.2686  0.0956  0.0802
 8178W        W12378   6.541   9.161  12.693 -0.1331  0.4306  0.0370
 8179W        W12379   8.592   8.073  11.651  0.0540  0.1899 -0.1704
 8180W        W12380   9.751   2.066  13.427 -0.3131 -0.2693  0.1068
 8181W        W12381   9.645   1.134   4.661  0.3548  0.2701  0.0757
 8182W        W12382   3.038   9.188  13.141 -0.2614  0.1985 -0.0012
 8183W        W12383   2.861   7.279  11.628 -0.0409  0.1181  0.1943
 8184W        W12384   2.186  10.410   9.323  0.0121  0.0241  0.1495
 8185W        W12385   2.584   8.572   3.866  0.2757  0.0623 -0.0402
 8186W        W12386   1.266   0.549   1.312  0.2202  0.2024 -0.2258
 8187W        W12387  10.256   3.910   1.766  0.0922  0.0989  0.0304
 8188W        W12388   4.657   0.663   2.090 -0.1089  0.1208 -0.1042
 8189W        W12389   7.448   8.472   1.950  0.2073 -0.2110  0.2407
 8190W        W12390   6.174   4.372   2.570 -0.1462  0.2494 -0.0807
 8191W        W12391   4.390   5.107   3.603 -0.2186 -0.0233  0.2260
 8192W        W12392   0.081   4.403  12.340 -0.2576 -0.5689 -0.2191
 8193W        W12393   4.619   4.249  10.424 -0.0712 -0.0159 -0.1719
 8194W        W12394   5.490   7.231   9.536 -0.2259 -0.2007 -0.0698
 8195W        W12395   0.680   9.215   3.008 -0.2437  0.2660  0.0885
 8196W        W12396   8.554   1.051  10.803 -0.3339  0.1144  0.0905
 8197W        W12397   8.713   6.699   2.000 -0.1188  0.2234  0.3512
 8198W        W12398   8.209   5.286  10.440 -0.0113  0.1178  0.0624
 8199W        W12399   9.089   8.978   9.631 -0.4277 -0.3534  0.1037
 8200W        W12400  10.184   5.120  10.817 -0.1710 -0.0409 -0.0739
 8201W        W12401   3.623   3.003   8.935  0.2747 -0.1441  0.2750
 8202W        W12402   5.343   9.223   2.144  0.1427 -0.0637  0.0232
 8203W        W12403   3.152   1.830   0.197 -0.1521 -0.1722 -0.3576
 8204W        W12404   0.648   4.837  12.998  0.3007 -0.0820  0.2856
 8205W        W12405   7.520   9.680  12.103 -0.1011  0.0224  0.1324
 8206W        W12406   1.602   0.579   2.083  0.0718  0.3137 -0.1198
 8207W        W12407   7.337   1.181   1.769 -0.0956 -0.0557 -0.0870
 8208W        W12408   2.353   4.996   3.539  0.1137 -0.0142 -0.0507
 8209W        W12409   2.600  10.101  10.804 -0.1662 -0.0313  0.4185
 8210W        W12410   3.031   8.125  10.433 -0.0726  0.0224 -0.1337
 8211W        W12411   6.888   3.089  13.164  0.1338 -0.2805 -0.2856
 8212W        W12412   3.347   1.001  10.229  0.1822  0.0738  0.1047
 8213W        W12413   5.259   9.189   3.543  0.4603 -0.1075 -0.0920
 8214W        W12414  10.038   8.006  12.045  0.1195 -0.2298 -0.3659
 8215W        W12415   1.847   5.084  11.473 -0.0334  0.0270  0.0992
 8216W        W12416   5.000   6.776  11.641 -0.0318  0.2199  0.3078
 8217W        W12417   6.401   8.190  10.181 -0.3243 -0.1209  0.1070
 8218W        W12418   2.082   2.477  10.375 -0.0448 -0.5045  0.2411
 8219W        W12419   9.341   1.378  11.116 -0.1254 -0.0631  0.0727
 8220W        W12420   1.811   9.821   9.990 -0.0746  0.1775 -0.1838
 8221W        W12421   7.361   6.212  11.683  0.0043  0.2726 -0.1141
 8222W        W12422   9.255   1.008   4.362  0.1674  0.1318  0.3817
 8223W        W12423   5.939   1.817   0.711  0.1026 -0.2236 -0.0160
 8224W        W12424   1.090   0.891   0.919  0.2893 -0.1044 -0.2476
 8225W        W12425   0.818   6.377   2.658 -0.1408 -0.3880 -0.3483
 8226W        W12426   9.561   0.781   0.314 -0.0362 -0.0444 -0.1674
 8227W        W12427   9.220   6.736   4.551 -0.1018 -0.0521 -0.1696
 8228W        W12428  10.068   4.624   0.896  0.2227  0.2264  0.0665
 8229W        W12429   1.386   5.887  10.367  0.3531  0.3168 -0.1017
 8230W        W12430   8.854   0.458   1.923  0.0798 -0.1125 -0.0561
 8231W        W12431   2.637   2.161   2.246 -0.1136  0.2736  0.1375
 8232W        W12432   6.624   7.218  13.118  0.1335  0.1516  0.1099
 8233W        W12433   5.711   8.096   0.968 -0.0109 -0.0335  0.0332
 8234W        W12434   6.191   2.083   2.825  0.0916 -0.1479  0.1316
 8235W        W12435   5.056   5.918   0.935  0.2021 -0.0738 -0.3101
 8236W        W12436   6.648   8.092   9.636 -0.0846 -0.0134 -0.1546
 8237W        W12437   5.278   9.593  12.355 -0.0084 -0.0982  0.4151
 8238W        W12438   3.207  10.375   1.680 -0.0639 -0.0749 -0.2713
 8239W        W12439   2.565   4.862  12.566 -0.0506 -0.2430 -0.2681
 8240W        W12440   3.512   3.309  10.835  0.1057 -0.1686  0.2364
 8241W        W12441   3.307   8.719   0.893 -0.2321 -0.4258  0.6519
 8242W        W12442   3.171   3.326   0.071  0.2417 -0.2216  0.3128
 8243W        W12443   4.071   8.150   0.205 -0.0626 -0.1951 -0.0469
 8244W        W12444   0.779   7.592  10.756  0.3856 -0.2807  0.0948
 8245W        W12445   7.796   5.203  12.277  0.1049  0.3055  0.2868
 8246W        W12446   3.890   3.701  11.729 -0.2315  0.0502  0.2331
 8247W        W12447   0.488   3.987  12.049 -0.0422 -0.1718  0.2852
 8248W        W12448   4.024   7.210   3.965 -0.1467  0.0041 -0.1432
 8249W        W12449   9.030   7.289   0.218  0.2374  0.3301  0.1377
 8250W        W12450   0.052   7.620   4.549 -0.0260  0.2002 -0.0859
 8251W        W12451   5.737   0.572   9.257 -0.0713 -0.0692 -0.1441
 8252W        W12452   8.273   5.219  10.919  0.3118 -0.3108 -0.2742
 8253W        W12453   4.062   0.542   1.472 -0.1799 -0.1048  0.0169
 8254W        W12454   1.763   8.144   3.225  0.3106 -0.1603 -0.4434
 8255W        W12455   3.100   6.269  11.669  0.1616 -0.3737 -0.1345
 8256W        W12456   0.968   1.583  10.663  0.1197  0.0262 -0.3488
 8257W        W12457   7.660   4.721   8.937  0.0180  0.0379  0.0999
 8258W        W12458   5.560   1.486   2.668  0.5064 -0.0632 -0.1273
 8259W        W12459   1.158   9.020   3.087 -0.0172 -0.0314 -0.1913
 8260W        W12460   3.244   1.891   9.754  0.1963  0.0908 -0.2081
 8261W        W12461  10.317   5.690  12.046 -0.3307  0.3916  0.2775
 8262W        W12462   6.611   8.974   1.835  0.0984 -0.2568  0.1686
 8263W        W12463   8.219   9.517   1.936  0.0267  0.1949 -0.0458
 8264W        W12464   6.438   4.305   1.594 -0.2499 -0.1418 -0.1206
 8265W        W12465   2.811   4.365   0.634  0.1430  0.1946  0.0344
 8266W        W12466   0.223   0.118   9.090 -0.3138 -0.1160 -0.1500
 8267W        W12467   8.856   5.455   3.716  0.1649 -0.0039 -0.0241
 8268W        W12468   4.964   0.775  10.589 -0.1392 -0.0072 -0.1861
 8269W        W12469   4.288   9.165   1.743  0.0604  0.3858 -0.2460
 8270W        W12470   2.487   2.474  13.337  0.0035  0.0621  0.2516
 8271W        W12471   1.480   0.799   4.706  0.0536  0.0724 -0.1165
 8272W        W12472   6.168   4.868   9.406  0.0539  0.0706  0.2922
 8273W        W12473   1.061   3.335   3.762 -0.3746  0.0822  0.0350
 8274W        W12474   6.399   3.188   1.170  0.5120 -0.2105 -0.1591
 8275W        W12475   1.654   9.463  12.687  0.1770 -0.2974 -0.0501
 8276W        W12476   2.153   8.377   1.827 -0.0640 -0.2561  0.2292
 8277W        W12477   1.038  10.417   3.982 -0.2601 -0.1093 -0.1044
 8278W        W12478   3.527   0.062   0.420  0.1287  0.0846  0.2711
 8279W        W12479   0.727   8.021   0.660 -0.1481  0.3130 -0.1687
 8280W        W12480   8.176   8.156  12.935  0.0852 -0.1195  0.0252
 8281W        W12481   2.774   6.696  10.026  0.0108  0.4365  0.0572
 8282W        W12482   5.495  10.391  10.612 -0.0561 -0.0678  0.2191
 8283W        W12483   4.121   6.571   2.515 -0.0351 -0.0707 -0.1502
 8284W        W12484   6.583   0.290   0.246  0.2379 -0.1773  0.1108
 8285W        W12485   6.354   9.365   1.061 -0.1065 -0.1727  0.0190
 8286W        W12486   8.120   0.520   3.759  0.1656  0.1947 -0.0853
 8287W        W12487   3.608   7.128   2.537 -0.0038  0.2456 -0.0280
 8288W        W12488   9.758   9.559   4.312  0.1695  0.2547  0.1688
 8289W        W12489   8.075   8.924  12.287  0.2461 -0.0178  0.0590
 8290W        W12490   6.832   5.845   1.322  0.2023  0.0496 -0.0370
 8291W        W12491   0.794   8.965   0.464  0.2140 -0.2835  0.0414
 8292W        W12492   8.193   6.986   9.867  0.1794 -0.0267 -0.2170
 8293W        W12493   9.993   1.027   9.520 -0.2717 -0.4034  0.1223
 8294W        W12494   5.870   5.447  11.748  0.2377  0.1156  0.1601
 8295W        W12495   0.501   1.258   0.218 -0.1537 -0.0896 -0.2224
 8296W        W12496  10.306   6.585  13.308  0.0325 -0.2787 -0.0589
 8297W        W12497   2.990   3.253  10.714  0.5742  0.2623 -0.0052
 8298W        W12498   0.036  10.177   8.933  0.0385  0.0449  0.2257
 8299W        W12499   6.013  10.278  10.582  0.1530  0.0824 -0.0480
 8300W        W12500  10.089   2.310   0.507  0.0197 -0.0980  0.1215
 8301W        W12501   0.088   9.976  11.094 -0.1477 -0.1086 -0.1873
 8302W        W12502   6.174   4.829   3.879 -0.4595 -0.2987 -0.0847
 8303W        W12503   3.791   4.445   1.184 -0.1537 -0.1665 -0.0357
 8304W        W12504   7.528   3.668   4.758 -0.0350  0.0058  0.0503
 8305W        W12505   8.151   2.324   1.541 -0.0351 -0.0166  0.0766
 8306W        W12506   8.105   2.094   0.295 -0.2260  0.2286  0.0153
 8307W        W12507   5.779   9.818   0.072 -0.0858 -0.2019 -0.0459
 8308W        W12508   4.924   6.452   0.887  0.3293  0.0199  0.0042
 8309W        W12509   0.598   9.192  12.362  0.1127  0.0143 -0.0852
 8310W        W12510   6.234   3.862   4.966 -0.0063 -0.1422 -0.0538
 8311W        W12511   5.035   0.663  11.048 -0.1479 -0.1609  0.0313
 8312W        W12512   6.717   8.194  10.596  0.0914  0.3889 -0.1083
 8313W        W12513   2.858   2.240   1.414  0.0358 -0.3836  0.1738
 8314W        W12514   1.805   8.591  10.093  0.2114 -0.2069  0.1176
 8315W        W12515   3.268   3.120   3.371  0.1735  0.0038 -0.2125
 8316W        W12516   2.142   3.779   1.079 -0.4450  0.0940 -0.6773
 8317W        W12517   0.023   4.473   3.471 -0.1523  0.0667 -0.0067
 8318W        W12518   5.486   8.424   1.238 -0.0733  0.0406 -0.5670
 8319W        W12519   4.155   3.444   3.137  0.0868 -0.0510 -0.0814
 8320W        W12520   9.240   5.006  10.762 -0.1059 -0.0657 -0.2771
 8321W        W12521   3.245   5.547  11.566  0.1012  0.0782 -0.2936
 8322W        W12522   0.668   1.037  13.205  0.1234 -0.3210  0.0209
 8323W        W12523   4.158   2.665   0.880  0.2197 -0.2124  0.0626
 8324W        W12524   5.579   2.226   3.974 -0.1115 -0.0956  0.2255
 8325W        W12525   9.915   7.956  11.095 -0.3151 -0.2702  0.2905
 8326W        W12526   1.407   8.443  11.695 -0.0137  0.3151 -0.0217
 8327W        W12527   6.713   2.685   8.213 -0.2102 -0.0355 -0.1930
 8328W        W12528   1.266   7.768  13.300  0.0809  0.1609 -0.0723
 8329W        W12529   1.316   9.244   4.339  0.1599  0.0396  0.1068
 8330W        W12530   8.853   2.213  13.061 -0.1130  0.2861 -0.3129
 8331W        W12531   3.159   7.859   1.479  0.0506 -0.0472  0.0195
 8332W        W12532   3.943   2.504  11.259  0.0791  0.0221 -0.1481
 8333W        W12533   3.861   3.061  10.603  0.1167  0.0126 -0.1724
 8334W        W12534   6.932   8.066   2.194 -0.0022  0.0154  0.1107
 8335W        W12535   4.733   1.609   2.187  0.1371  0.0871 -0.1481
 8336W        W12536   1.575   9.118   1.435  0.1197 -0.1201 -0.2484
 8337W        W12537   5.925   7.433   2.230  0.1019  0.0576  0.0632
 8338W        W12538   7.830   3.586   9.189 -0.1003  0.1141  0.1793
 8339W        W12539   9.623   4.980   2.145 -0.1661  0.2230 -0.0456
 8340W        W12540   0.709   5.593   9.251  0.1190 -0.3753  0.1962
 8341W        W12541   3.990   7.350   2.763 -0.0211  0.0934 -0.2183
 8342W        W12542   0.794   3.551   4.928 -0.0766  0.0261 -0.0238
 8343W        W12543   2.908  10.258   9.979 -0.4574  0.4215  0.1161
 8344W        W12544   4.689   3.385   3.298  0.1940  0.1600  0.0759
 8345W        W12545   1.478   7.147   9.035 -0.3209 -0.3131  0.1843
 8346W        W12546   0.147   7.868   4.095 -0.1896 -0.1366 -0.3760
 8347W        W12547   3.199   0.527   4.208  0.1446  0.0060  0.2408
 8348W        W12548   6.897  10.395   9.376 -0.0239  0.1027  0.1215
 8349W        W12549   5.368   7.361   2.404 -0.2386  0.1917  0.4227
 8350W        W12550   0.313   3.134   8.750  0.0496 -0.0487 -0.3130
 8351W        W12551   4.075   2.569   4.347 -0.2909 -0.0351  0.0986
 8352W        W12552   0.706   3.213   1.328 -0.1155 -0.1001  0.0215
 8353W        W12553  10.427   0.528   2.874  0.0187  0.1334 -0.0488
 8354W        W12554   8.454   1.357   3.177 -0.0552 -0.1196 -0.0517
 8355W        W12555   4.252   3.370  13.449 -0.2531  0.3630 -0.2086
 8356W        W12556   0.849   9.297   3.882 -0.0886  0.2577  0.1619
 8357W        W12557   2.120   9.623   2.364  0.5873 -0.2442 -0.0463
 8358W        W12558  10.428   9.080  11.170  0.0172 -0.4027 -0.1403
 8359W        W12559   5.521   4.968   9.871  0.0642 -0.0828  0.2323
 8360W        W12560   8.455   0.825   4.069  0.0613  0.2696 -0.1629
 8361W        W12561   0.061   8.327   0.102 -0.0770 -0.2879  0.0498
 8362W        W12562   5.258   0.065   1.240  0.0726  0.4234 -0.3414
 8363W        W12563   2.120   5.121  12.551 -0.3871 -0.2701 -0.0767
 8364W        W12564   0.088   6.881   0.849 -0.0393 -0.2333  0.0654
 8365W        W12565   2.398   0.718   3.763  0.3090  0.0038  0.1843
 8366W        W12566   5.316   6.927  12.676  0.1752  0.0521  0.0153
 8367W        W12567   9.946   6.441  12.350  0.3078 -0.0870  0.1147
 8368W        W12568   1.699   2.531   9.032 -0.4995  0.3853  0.2146
 8369W        W12569   2.341   4.375   3.901  0.0048 -0.0757  0.0830
 8370W        W12570   2.267   3.941   2.368  0.1241 -0.1945  0.0134
 8371W        W12571   1.863   0.567  10.462  0.0852 -0.0432 -0.0879
 8372W        W12572   7.482   7.260   9.768  0.0842 -0.2256 -0.0369
 8373W        W12573   6.494   3.354  12.957  0.1533 -0.0886  0.1374
 8374W        W12574   7.688   6.955   3.339  0.0271  0.1918  0.2157
 8375W        W12575   9.046   9.710   2.370  0.1539 -0.0733 -0.3131
 8376W        W12576   9.119   6.635  10.001  0.5455  0.2272  0.1386
 8377W        W12577   4.741   4.810  10.478  0.0735  0.2445 -0.2567
 8378W        W12578   9.840  10.088   0.065 -0.2678  0.3548  0.2688
 8379W        W12579   3.208   0.276   2.772  0.0165  0.1690  0.0326
 8380W        W12580   1.391   9.503   9.923  0.0403 -0.0606 -0.1474
 8381W        W12581   2.795   1.634   1.902 -0.3448 -0.1754  0.1202
 8382W        W12582   6.705   4.499   2.512  0.1012 -0.3131  0.1746
 8383W        W12583   3.102   8.525  13.228  0.0082 -0.0986  0.0124
 8384W        W12584   1.875   7.291   2.848  0.1932  0.1372 -0.1143
 8385W        W12585   8.207   8.767   9.459  0.5544  0.0535  0.0306
 8386W        W12586   1.565   5.367   8.584 -0.1443  0.0525  0.1887
 8387W        W12587   6.256   7.032   2.341  0.1461 -0.0240  0.1630
 8388W        W12588   8.967   6.295   1.699  0.0456 -0.1318 -0.4438
 8389W        W12589   0.375   9.621  12.622 -0.1312 -0.0598  0.1025
 8390W        W12590   5.972   8.365  13.213 -0.1019 -0.2400 -0.1119
 8391W        W12591   2.535   1.305  11.720  0.1867 -0.0854  0.0636
 8392W        W12592   0.282   3.518   0.972  0.2801  0.1260  0.0871
 8393W        W12593   6.941   5.862   2.269  0.2332  0.1572  0.1078
 8394W        W12594   7.080   4.454  12.838  0.3566  0.2806 -0.0044
 8395W        W12595   9.310   4.570   2.028  0.1569 -0.2740 -0.1692
 8396W        W12596   6.111   5.666  13.436 -0.2082 -0.0270  0.0073
 8397W        W12597  10.236   5.336  10.138  0.0942 -0.0662 -0.1757
 8398W        W12598   6.679   1.936   1.213  0.0980  0.1883  0.1104
 8399W        W12599   3.174   6.341   2.206  0.1095  0.4026  0.3604
 8400W        W12600   9.518   6.371   0.287 -0.0892  0.0366  0.3289
 8401W        W12601   9.677   4.834  12.618  0.0400 -0.2279  0.0872
 8402W        W12602   6.539   7.728   1.500  0.0248 -0.2298  0.0198
 8403W        W12603   0.483   7.278   1.854  0.0769  0.0951  0.0409
 8404W        W12604   0.672   3.130   4.220  0.1026  0.1300 -0.2774
 8405W        W12605   4.987   2.382   4.153 -0.1477 -0.1823  0.0434
 8406W        W12606   2.854   1.914   4.349 -0.1588 -0.0246  0.0755
 8407W        W12607   3.013   0.184  12.839 -0.0643 -0.0939  0.1984
 8408W        W12608   3.956   6.090   2.478  0.3849  0.1045 -0.4193
 8409W        W12609   8.176   6.806   0.191 -0.0847  0.2252 -0.1711
 8410W        W12610   2.748   7.736  10.680  0.1585 -0.0385 -0.1035
 8411W        W12611   0.867   5.333  12.868  0.0417  0.0442 -0.2420
 8412W        W12612   5.881   4.969   1.824  0.0754  0.0941  0.3149
 8413W        W12613   5.210   4.549   8.559  0.2229  0.0520 -0.0347
 8414W        W12614   3.731   9.487   0.260  0.1251  0.2081  0.0289
 8415W        W12615   3.141   4.402   1.859  0.0318 -0.1723 -0.0305
 8416W        W12616   2.317   9.830   4.974 -0.0570 -0.0432 -0.0549
 8417W        W12617   7.752   0.091  10.838  0.3473 -0.0006 -0.1948
 8418W        W12618   2.053   7.189   3.292 -0.4376  0.0452  0.0757
 8419W        W12619   2.543   5.534   8.768 -0.0332  0.0657  0.1097
 8420W        W12620   9.102   1.773  11.684  0.1016 -0.3410  0.2573
 8421W        W12621   1.638   0.074  10.661  0.1545 -0.2856  0.1139
 8422W        W12622   0.247   8.123   0.556 -0.0481 -0.2612 -0.0306
 8423W        W12623   0.905   7.399  12.532 -0.1360  0.4065 -0.1974
 8424W        W12624   2.365   0.329   0.079 -0.2568 -0.1858 -0.0150
 8425W        W12625   7.940   7.380  12.494 -0.1559 -0.2093 -0.0343
 8426W        W12626   3.870   4.063   9.981 -0.0276  0.1030 -0.0020
 8427W        W12627   1.134   5.904   3.580 -0.3901 -0.0554  0.1839
 8428W        W12628   0.355   3.087  11.005  0.2342 -0.2347  0.0465
 8429W        W12629   4.980  10.341  12.448 -0.0740  0.0992 -0.2263
 8430W        W12630   6.190   2.135   1.637  0.0662 -0.1563 -0.0644
 8431W        W12631   9.061   1.544   4.288  0.0295  0.4090 -0.1601
 8432W        W12632   5.998   5.398  10.684 -0.2020 -0.0258 -0.0351
 8433W        W12633   6.524   5.077   9.887  0.0490  0.1761 -0.0832
 8434W        W12634   2.295   3.261  11.880 -0.3700  0.1783 -0.3906
 8435W        W12635   6.709   2.326  12.195  0.0065  0.0283  0.0178
 8436W        W12636   9.474   7.313   0.583  0.0710  0.1276 -0.1179
 8437W        W12637   5.397   4.675   9.407 -0.0736  0.0337 -0.1068
 8438W        W12638   7.914   4.198  12.502 -0.4259  0.1460 -0.2632
 8439W        W12639   1.439   6.053  12.325 -0.2164 -0.1586  0.0293
 8440W        W12640   0.631   0.025   5.492  0.0416  0.0420  0.1803
 8441W        W12641   0.406   8.839  11.335  0.0474 -0.4235  0.1489
 8442W        W12642   7.200   1.831   1.100  0.2450 -0.3180 -0.4432
 8443W        W12643   2.653   4.230   8.997 -0.0468 -0.1394  0.2065
 8444W        W12644  10.402   3.386  10.047  0.1542 -0.2928 -0.3313
 8445W        W12645   8.295   4.151   3.223  0.0778  0.0241  0.0896
 8446W        W12646   9.641   2.994  13.263 -0.0367 -0.1954  0.0446
 8447W        W12647   0.044   9.144   4.931  0.1458  0.0618 -0.0953
 8448W        W12648   6.900   9.367   1.744 -0.0705  0.1757 -0.0493
 8449W        W12649   0.406   4.366   0.932 -0.3965 -0.1472  0.0598
 8450W        W12650   7.564   1.104   3.306  0.0398  0.1007  0.1856
 8451W        W12651   4.485   7.079   2.916  0.1020  0.0703 -0.0652
 8452W        W12652  10.416   6.956  11.297 -0.0797 -0.0975  0.2720
 8453W        W12653   1.018   0.948   3.226  0.0165 -0.1805  0.0339
 8454W        W12654  10.441   9.969   3.947 -0.2951  0.0568 -0.0811
 8455W        W12655   5.675   5.920  12.236  0.4538 -0.1325 -0.0831
 8456W        W12656   0.896   6.444   1.756  0.4527 -0.0091 -0.0210
 8457W        W12657   7.236  10.193   2.235  0.1711 -0.0429  0.1638
 8458W        W12658  10.120   8.894   9.202  0.2097  0.0603  0.3257
 8459W        W12659   8.089   3.763   2.975  0.0619  0.3732 -0.1456
 8460W        W12660   4.224   3.985  12.258 -0.2352  0.1768 -0.0749
 8461W        W12661   3.710   0.850  11.430 -0.2099 -0.0556 -0.3454
 8462W        W12662   9.219  10.061  12.644  0.2448  0.0495 -0.1527
 8463W        W12663   2.998   3.889   1.968 -0.3048 -0.2948 -0.0262
 8464W        W12664   4.950   1.284   1.904 -0.0012 -0.2422 -0.1384
 8465W        W12665   1.975   6.703  13.352  0.0106  0.0441  0.1793
 8466W        W12666   8.793   8.323  10.231  0.1681  0.1376 -0.2222
 8467W        W12667   5.018   4.678   0.198  0.0874 -0.3372  0.0005
 8468W        W12668   5.276   0.943   1.700  0.3478  0.0514 -0.0336
 8469W        W12669   7.774   5.761   1.156 -0.2053 -0.1057  0.0283
 8470W        W12670   8.171   7.704   3.515  0.2015 -0.1271  0.3428
 8471W        W12671   7.903   6.044   9.862 -0.1193 -0.2990 -0.1103
 8472W        W12672   8.275   1.061  10.331 -0.2932 -0.0385 -0.3190
 8473W        W12673   0.678   7.661   2.176 -0.2158 -0.3434 -0.4987
 8474W        W12674   3.646   6.425   0.946 -0.1031 -0.1444  0.1874
 8475W        W12675   6.233   5.178   1.334  0.3519  0.0669  0.1136
 8476W        W12676   2.457   5.742   2.050 -0.0562  0.1067  0.1416
 8477W        W12677   1.043   3.230   3.121 -0.0412  0.4168 -0.0779
 8478W        W12678   4.065   1.072   0.213  0.2209 -0.2000  0.1687
 8479W        W12679  10.187   5.924  10.216  0.1316 -0.0549  0.0968
 8480W        W12680   8.265   0.649   1.407  0.1296 -0.1385 -0.1479
 8481W        W12681   0.649   5.344   3.551  0.2201  0.3671  0.0138
 8482W        W12682   0.726   0.390   9.662 -0.1736 -0.1818 -0.1025
 8483W        W12683   3.059   5.574   1.398  0.0977 -0.3542  0.0929
 8484W        W12684   9.767   4.341  10.525  0.2371 -0.1906  0.0707
 8485W        W12685   1.883   3.579  10.351 -0.2142  0.2088 -0.1039
 8486W        W12686   0.776   4.617  10.136 -0.0460  0.0765 -0.0404
 8487W        W12687   3.362   9.756  11.207  0.1047 -0.1000  0.0529
 8488W        W12688   1.951   8.858   1.268  0.0172  0.2394 -0.0275
 8489W        W12689   1.362  10.135   1.462  0.4405 -0.2394  0.1853
 8490W        W12690   7.888   5.807  11.039  0.0348 -0.0680  0.0965
 8491W        W12691   6.437   5.689   9.355 -0.0618 -0.1432  0.2116
 8492W        W12692   9.453   4.746   2.576  0.0418  0.2605 -0.1353
 8493W        W12693   6.298   2.698  10.484 -0.0742 -0.1962  0.2974
 8494W        W12694   7.221   1.201   9.930  0.0087 -0.0350  0.1823
 8495W        W12695   9.063   2.434   3.115 -0.1602 -0.2805 -0.0925
 8496W        W12696   7.843   4.652  11.614 -0.1216 -0.2851  0.4351
 8497W        W12697   7.728  10.388   1.301  0.3145 -0.0854 -0.1207
 8498W        W12698   6.576   2.706   0.983 -0.0327 -0.0625 -0.1584
 8499W        W12699   7.691   9.331  10.625 -0.2108  0.0275 -0.0160
 8500W        W12700   4.792  10.311  11.966  0.1695  0.0273 -0.0705
 8501W        W12701   0.096   4.557   0.007  0.1297  0.2180  0.2257
 8502W        W12702   0.438   4.498  11.071 -0.1798 -0.0062 -0.1907
 8503W        W12703   4.390   8.258   1.943 -0.1738  0.2348  0.0102
 8504W        W12704  10.454   1.879  11.304  0.1828  0.1162 -0.0231
 8505W        W12705   0.708  10.432  13.223 -0.1918  0.1162 -0.0582
 8506W        W12706   3.899   5.218   8.928  0.0464  0.1834  0.0299
 8507W        W12707   8.333   0.098   0.299  0.3764 -0.1143 -0.0669
 8508W        W12708   3.421   1.372  11.795 -0.1171  0.0753  0.1144
 8509W        W12709   5.210   4.109   4.908  0.1163  0.0742  0.1736
 8510W        W12710   7.052   9.262  11.479  0.0036 -0.0821 -0.1451
 8511W        W12711   9.701   5.559   0.381 -0.0276 -0.0204  0.1976
 8512W        W12712   4.176   0.816   2.006 -0.1443 -0.0845 -0.1096
 8513W        W12713   3.861   8.630   0.395 -0.2160  0.1199 -0.3572
 8514W        W12714   1.713   2.394  10.733  0.0100  0.1285 -0.4256
 8515W        W12715  10.195   9.374   1.247 -0.0303  0.2546 -0.3435
 8516W        W12716   0.597  10.383   1.800  0.1410  0.0533  0.2881
 8517W        W12717   3.093   0.851   2.517  0.0754 -0.0493  0.1529
 8518W        W12718   3.910   2.498   8.905 -0.2783  0.0068 -0.0544
 8519W        W12719  10.176   0.775   2.475 -0.0946 -0.0231 -0.2983
 8520W        W12720   5.272   3.005   0.439 -0.1371  0.1105 -0.2140
 8521W        W12721   4.736   7.584  10.710 -0.0879  0.0473  0.0428
 8522W        W12722   8.378   7.913   2.315  0.0399 -0.0520  0.1470
 8523W        W12723   7.075   6.524  12.588  0.1780  0.0868  0.3385
 8524W        W12724   6.009   1.403  10.380  0.0998  0.2274 -0.5149
 8525W        W12725   5.281   0.028   0.476 -0.3451  0.0529 -0.0727
 8526W        W12726   0.762   5.302   0.321  0.2488  0.1147 -0.1430
 8527W        W12727   5.634   8.755   2.048 -0.0418 -0.3689  0.1825
 8528W        W12728   9.996  10.110   9.825 -0.0433 -0.2583 -0.1361
 8529W        W12729   9.354   5.842   0.130  0.1605 -0.0572 -0.0056
 8530W        W12730   2.346   2.083   9.951  0.2355  0.0774  0.1506
 8531W        W12731   7.402   8.573   0.103 -0.0126 -0.0538  0.2829
 8532W        W12732   7.117   7.249   1.009 -0.3270 -0.0138 -0.2718
 8533W        W12733   2.086   0.922   2.835 -0.0138  0.0505  0.3355
 8534W        W12734   5.115   8.805   1.988 -0.0479  0.0934  0.2919
 8535ION    NA+12735   3.699   6.950   0.950 -0.4365  0.0440 -0.1803
 8536ION    NA+12736   9.339   6.230   9.280  0.4442  0.3967  0.2984
 8537ION    NA+12737   8.107   3.180   9.411  0.1580 -0.0199  0.0451
 8538ION    NA+12738   3.616   5.941   0.851 -0.2696 -0.2109 -0.0072
 8539ION    NA+12739   7.926   2.793   0.369  0.1139  0.1701  0.1677
 8540ION    NA+12740   2.718   5.602   3.000 -0.0964 -0.0702  0.2238
 8541ION    NA+12741   5.488   5.966   4.183  0.1063 -0.2008  0.0560
 8542ION    NA+12742   4.623   7.501  11.316 -0.1085 -0.0745  0.0223
 8543ION    NA+12743   7.284   5.216   1.642 -0.3635 -0.3822 -0.0868
 8544ION    NA+12744   6.874   1.075  13.330  0.2021  0.1631 -0.2932
 8545ION    NA+12745   0.457   1.126   9.995 -0.2492 -0.0925 -0.3286
 8546ION    NA+12746   3.480   2.177   9.055 -0.0624 -0.0162 -0.0325
 8547ION    NA+12747   0.487   6.463  12.371  0.3256  0.3521  0.0241
 8548ION    NA+12748   7.612   5.959   8.536  0.1054  0.0319 -0.0430
 8549ION    NA+12749   9.229   8.565  10.973  0.0045  0.1114 -0.3001
 8550ION    NA+12750   5.206   2.146   5.017  0.1306  0.0336 -0.0106
 8551ION    NA+12751   9.531   3.123   8.832  0.1708  0.1738 -0.0458
 8552ION    NA+12752   8.337   7.559  11.686  0.2238  0.0959 -0.2456
 8553ION    NA+12753  10.245   8.196   5.194 -0.0442  0.0686  0.1790
 8554ION    NA+12754   7.198   2.713   5.018 -0.0237 -0.1004 -0.0025
 8555ION    NA+12755   1.708   2.542   1.493 -0.1003 -0.2595  0.0214
 8556ION    NA+12756   2.314   1.601   3.576  0.0259  0.1390  0.2783
 8557ION    NA+12757   1.046   0.916  12.444  0.2373 -0.1872  0.1203
 8558ION    NA+12758   7.158   9.684   2.041 -0.1513  0.0089 -0.0051
 8559ION    NA+12759   0.370   4.271   4.778  0.0008 -0.0628 -0.1322
 8560ION    NA+12760   0.441   7.987   2.463  0.3548 -0.1265 -0.0051
 8561ION    NA+12761   4.273   0.641   0.841  0.1726 -0.1448 -0.0734
 8562ION    NA+12762   6.166   6.171   1.856  0.0629  0.0559 -0.1189
 8563ION    NA+12763   3.160   6.690   0.202  0.0566  0.0064 -0.0581
 8564ION    NA+12764   8.621   1.692   9.775 -0.0741  0.0841  0.0594
 8565ION    NA+12765   7.517   4.202  12.924 -0.0959  0.2667 -0.2322
 8566ION    NA+12766   2.657   7.127  12.920 -0.0104 -0.1855 -0.0921
 8567ION    NA+12767   3.239   2.569   1.293  0.3167 -0.2657 -0.0049
 8568ION    NA+12768   0.599   7.905   9.940  0.1662  0.0753 -0.0768
 8569ION    NA+12769   7.706   7.029   0.320 -0.0803 -0.0573  0.1390
 8570ION    NA+12770   6.281   2.840   9.461  0.0273 -0.2673 -0.0751
 8571ION    NA+12771   2.134   4.038   1.547 -0.0983  0.0735  0.1385
 8572ION    NA+12772   7.490   9.886   1.252  0.0369  0.0089 -0.0799
 8573ION    NA+12773   9.688   1.698  10.055  0.3860 -0.2411  0.0045
 8574ION    NA+12774   5.419   4.417   9.842 -0.0239 -0.0847 -0.1769
 8575ION    NA+12775   9.027   7.933   1.136 -0.1620  0.0412  0.0463
 8576ION    NA+12776   2.252   4.388   8.638  0.0407 -0.1962  0.4573
 8577ION    NA+12777   8.739   1.062   2.916 -0.1002 -0.3583  0.1515
 8578ION    NA+12778   3.185   6.109   1.790 -0.2208  0.1321  0.0875
 8579ION    NA+12779   1.930   6.323   3.731 -0.1748 -0.1425  0.3864
 8580ION    NA+12780   5.687   1.440   0.926 -0.2136 -0.1344 -0.0952
 8581ION    NA+12781   2.593   4.032   0.857  0.0263 -0.0517 -0.1917
 8582ION    NA+12782   6.599   6.035   3.793 -0.1808  0.0025 -0.0011
 8583ION    NA+12783   9.246  10.094   0.923  0.3229  0.2995 -0.0002
 8584ION    NA+12784   0.702  10.195  11.467  0.2322  0.2283  0.2400
 8585ION    NA+12785   6.001   1.227   3.296  0.0288  0.0607  0.0914
 8586ION    NA+12786   9.945   8.790  10.908  0.1543  0.0823 -0.1222
 8587ION    NA+12787   8.600   0.128  10.659  0.0411  0.0111 -0.0368
 8588ION    NA+12788   1.139   5.162   9.951  0.0645 -0.2352  0.0208
 8589ION    NA+12789   8.098   5.210   2.213 -0.2099 -0.0623 -0.1895
 8590ION    NA+12790   0.025   7.217   4.771 -0.0137 -0.1774 -0.1410
 8591ION    NA+12791   8.002   7.296  10.676  0.1711  0.1155  0.0185
 8592ION    NA+12792   4.479   4.645  11.433 -0.1260  0.0202  0.0039
 8593ION    NA+12793   3.508   4.585  11.916  0.2352  0.1972  0.0088
 8594ION    NA+12794   0.718   8.317  12.147  0.0037  0.0774  0.3071
 8595ION    NA+12795  10.298   9.521   2.986 -0.3601 -0.2846 -0.1056
 8596ION    NA+12796   5.968   9.349   0.162  0.2915  0.2050  0.0528
 8597ION    NA+12797   3.990   5.197  12.961 -0.1139  0.0065  0.2893
 8598ION    NA+12798   4.766   2.499  10.591 -0.1823  0.2504 -0.2138
 8599ION    NA+12799   9.361  10.308  13.439  0.0926 -0.0392  0.2554
 8600ION    NA+12800   9.089   8.644   4.935  0.3451 -0.1913  0.1178
 8601ION    NA+12801   9.891   5.738  10.593 -0.1852  0.0577  0.0328
 8602ION    NA+12802   9.009   0.303  12.908  0.2504  0.1770  0.1823
 8603ION    NA+12803   1.040   6.371   1.187  0.1399 -0.1612 -0.1510
 8604ION    NA+12804   9.482   6.310   1.555 -0.1837 -0.0588 -0.0259
 8605ION    NA+12805   7.856   8.764   3.338  0.0565 -0.0078 -0.0259
 8606ION    NA+12806   6.080   2.094   0.230 -0.5955 -0.2822  0.0449
 8607ION    NA+12807   9.048   1.948  12.247 -0.3426 -0.0281 -0.0920
 8608ION    NA+12808   9.054   1.026  12.503  0.0042 -0.2610  0.0630
 8609ION    NA+12809   2.642   5.400   1.009 -0.0744  0.0305  0.0378
 8610ION    NA+12810   2.985   1.989  12.662 -0.0931  0.2995  0.0559
 8611ION    NA+12811   4.569   1.404  10.780 -0.0014  0.3348  0.2063
 8612ION    NA+12812   3.636   2.612   2.655 -0.2671  0.2452 -0.0336
 8613ION    NA+12813   5.035   5.427  12.413  0.0176 -0.1326 -0.1122
 8614ION    NA+12814  10.295   0.725   5.247 -0.2687  0.0876 -0.0967
 8615ION    NA+12815   6.600   5.442   1.528 -0.1575 -0.1563  0.0249
 8616ION    NA+12816   0.144   8.816   0.310  0.0244  0.1942 -0.0858
 8617ION    NA+12817   4.336   7.693   9.835  0.2369 -0.0458 -0.3215
 8618ION    NA+12818   5.094   0.015   1.718  0.0758 -0.2727  0.0490
 8619ION    NA+12819   8.587   5.658   8.061  0.1843 -0.0332  0.0169
 8620ION    NA+12820   9.697   3.156  12.844  0.4183  0.2531  0.0061
 8621ION    NA+12821   5.261  10.305  11.028 -0.0026 -0.1422  0.2124
 8622ION    NA+12822   2.778   8.688   4.334  0.1062  0.0421 -0.2055
 8623ION    NA+12823   3.913   9.799   2.608  0.1385  0.2064 -0.1158
 8624ION    NA+12824   5.661   1.907  12.258  0.1080  0.0149 -0.0368
 8625ION    CL-12825   9.036   2.187   4.288  0.0539 -0.0488  0.2316
 8626ION    CL-12826   5.954   1.465   1.365  0.2300  0.2689  0.2779
 8627ION    CL-12827   6.362   4.311   3.038  0.0888  0.2296 -0.1508
 8628ION    CL-12828   8.810   2.189  11.811 -0.0854  0.1326 -0.0949
 8629ION    CL-12829   3.586   2.113   2.556 -0.1675 -0.2857  0.1320
 8630ION    CL-12830   7.147   7.482  11.679  0.2426  0.1981  0.2718
 8631ION    CL-12831   0.457   8.069   9.414 -0.1669 -0.1773  0.1244
 8632ION    CL-12832   0.151   9.519   4.655  0.2109 -0.6501  0.0036
 8633ION    CL-12833   8.304   7.764   0.638  0.4231 -0.0343  0.3072
 8634ION    CL-12834   6.777   5.014   1.628 -0.0915  0.3937 -0.0454
 8635ION    CL-12835   2.014   2.431  11.521  0.0633  0.1326 -0.2663
 8636ION    CL-12836   7.138  10.273   1.386  0.4571  0.2453 -0.0236
 8637ION    CL-12837   3.131   5.517   2.633 -0.2453 -0.0361  0.1256
 8638ION    CL-12838   2.683   7.441  12.561 -0.0280 -0.0016  0.1784
 8639ION    CL-12839   4.774   4.147   9.366  0.0552  0.1810  0.0543
 8640ION    CL-12840   0.922   0.937   9.661  0.1309  0.2547 -0.2014
 8641ION    CL-12841   1.446   4.311  11.365 -0.1639  0.3303  0.1967
 8642ION    CL-12842   5.525   9.950  10.279 -0.4386  0.1037 -0.1700
 8643ION    CL-12843   5.804   1.399  11.282  0.2595  0.0510 -0.1236
 8644ION    CL-12844   5.862   4.547   4.213 -0.1483  0.0760  0.0960
 8645ION    CL-12845   1.165   8.648  12.093 -0.1072  0.1112  0.4215
 8646ION    CL-12846   2.251   1.333   3.068 -0.1812  0.5384  0.0708
 8647ION    CL-12847   8.083   3.008  13.382 -0.1538  0.0467  0.1061
 8648ION    CL-12848   6.190   2.748  10.985 -0.2683 -0.0482 -0.0845
 8649ION    CL-12849   7.299   5.651   1.277 -0.3292  0.0468 -0.0982
 8650ION    CL-12850   1.241   0.846   2.278  0.0046 -0.2728  0.2355
 8651ION    CL-12851  10.232   9.296   1.890 -0.1601 -0.0707 -0.0785
 8652ION    CL-12852   0.618   7.514   2.717 -0.0195  0.2238 -0.1823
 8653ION    CL-12853   2.505   1.182   0.083 -0.2053 -0.0923 -0.1125
 8654ION    CL-12854   3.322   6.694   1.239 -0.0821 -0.1123  0.1173
 8655ION    CL-12855   8.996  10.298  13.114 -0.0638  0.1586  0.3178
 8656ION    CL-12856   1.443   0.098   4.300 -0.3037 -0.0027 -0.3523
 8657ION    CL-12857   6.295   2.553   0.270 -0.2154  0.1498  0.1999
 8658ION    CL-12858   6.637   0.987   3.767 -0.0859  0.0401 -0.1327
 8659ION    CL-12859   1.049   0.897  11.955  0.5705 -0.0485  0.1390
 8660ION    CL-12860  10.245   5.402   4.607  0.1191 -0.1879 -0.0560
 8661ION    CL-12861   1.880   7.842   4.104  0.0529  0.2074 -0.2467
 8662ION    CL-12862   1.135   6.466  12.099  0.3570  0.2076 -0.0882
 8663ION    CL-12863   2.934   6.865  13.180 -0.2196  0.0493 -0.0031
 8664ION    CL-12864   8.636   3.162   9.547  0.0248  0.2432 -0.1318
 8665ION    CL-12865   5.875   1.396   0.404  0.2305 -0.1117  0.1370
 8666ION    CL-12866   9.416   0.433  12.099  0.1632  0.0196  0.1534
 8667ION    CL-12867   9.582   5.936  10.201 -0.0253 -0.3529  0.2326
 8668ION    CL-12868   1.281  10.147  11.606  0.2979 -0.2160  0.3108
 8669ION    CL-12869   4.912   4.550  11.262 -0.0433  0.1256  0.1265
 8670ION    CL-12870   2.315   4.335   1.149 -0.4333 -0.0179 -0.1512
 8671ION    CL-12871   0.238   1.830   4.530  0.0646  0.1619  0.5125
 8672ION    CL-12872   6.078   3.197   9.191 -0.0104 -0.0745  0.0988
 8673ION    CL-12873   9.197   4.270   1.095  0.1818 -0.2850  0.0655
 8674ION    CL-12874   0.544   0.423  12.585  0.0488  0.2513 -0.2835
 8675ION    CL-12875   7.058   9.832   1.564 -0.0897 -0.0460  0.0163
 8676ION    CL-12876   3.212   5.754   0.951 -0.0538  0.0740 -0.1055
 8677ION    CL-12877   8.634   0.617   2.771 -0.1387 -0.0706 -0.2722
 8678ION    CL-12878   9.358   5.975   2.071 -0.1156  0.3541  0.0575
 8679ION    CL-12879   4.138   7.263  10.586  0.0017 -0.4082 -0.1650
 8680ION    CL-12880   9.386   0.956   9.719  0.3351 -0.1974 -0.1277
 8681ION    CL-12881   4.825   1.776  11.119 -0.1506 -0.0853 -0.1841
 8682ION    CL-12882   8.381   5.669   2.016  0.1637 -0.0325  0.2238
 8683ION    CL-12883   0.750   0.454  10.586 -0.0633  0.2207  0.0122
 8684ION    CL-12884   6.311   7.265  12.762  0.2145  0.0086  0.2440
 8685ION    CL-12885   5.068   2.599  10.210  0.2065  0.0248 -0.0957
 8686ION    CL-12886   4.341   3.613   4.145 -0.2836  0.2291 -0.2232
 8687ION    CL-12887   8.873   2.463  10.692  0.0622  0.1059  0.4110
 8688ION    CL-12888   7.141   0.835   0.418  0.2050  0.0514  0.1408
 8689ION    CL-12889   2.139   8.693   0.784 -0.2300 -0.1356  0.4210
 8690ION    CL-12890   0.996   4.727   3.408 -0.0740 -0.3017 -0.1333
 8691ION    CL-12891   1.675   3.760   0.236 -0.0359  0.0172  0.0696
 8692ION    CL-12892   1.531   7.428   9.946 -0.3674 -0.2608  0.0016
 8693ION    CL-12893   1.001   1.880   9.745  0.1997 -0.1643  0.1330
 8694ION    CL-12894   8.065   1.677   9.751 -0.1081  0.3024  0.1014
 8695ION    CL-12895   8.138   7.280  11.168  0.2088 -0.2352  0.0542
 8696ION    CL-12896   2.819   3.421  10.197  0.1409 -0.0048 -0.0031
 8697ION    CL-12897   2.594   2.351  12.810 -0.1324  0.0872  0.0699
 8698ION    CL-12898   8.974   6.491   8.965 -0.0850 -0.1310  0.0906
 8699ION    CL-12899   3.743   5.648  12.853  0.1860  0.1328 -0.0750
 8700ION    CL-12900   6.389   9.344  13.344 -0.0750 -0.0141  0.0428
 8701ION    CL-12901   5.146   5.523  12.985  0.1508 -0.1898  0.1722
 8702ION    CL-12902   7.441   2.455   1.021  0.1167 -0.1140  0.1826
 8703ION    CL-12903   9.665   8.423  10.688 -0.2889  0.1269 -0.0728
 8704ION    CL-12904   2.268   7.296   9.484  0.0666 -0.3420  0.1276
 8705ION    CL-12905   9.143   1.426  12.093  0.1524  0.0905 -0.3181
 8706ION    CL-12906   1.311   0.054   1.128  0.0973 -0.4076  0.0194
 8707ION    CL-12907   8.904   2.106   9.649  0.3251 -0.0324  0.2802
 8708ION    CL-12908   8.850   9.872   1.204 -0.3115  0.2796 -0.1159
 8709ION    CL-12909   5.762   6.877   9.662  0.0096  0.4037  0.3470
 8710ION    CL-12910   4.694   5.785  12.165 -0.4111 -0.1665  0.0836
 8711ION    CL-12911   8.809   7.581   1.537 -0.2097 -0.2118  0.2977
 8712ION    CL-12912   7.242   7.132   0.235 -0.1470  0.0364 -0.0737
 8713ION    CL-12913   6.861   3.568   9.099 -0.0700  0.2596  0.2629
 8714ION    CL-12914  10.457   1.130   9.831  0.2552  0.1219  0.0353
  10.48058  10.48058  13.44946
