Protein in INSANE! Membrane UpperLeaflet>POPC=1.0 LowerLeaflet>POPC=1.0
10365
    1AU     AUC    1   5.063   5.014   5.917
    1AU     AUC    2   5.346   4.880   5.799
    1AU     AUC    3   5.599   5.087   5.878
    1AU     AUC    4   4.722   5.067   5.992
    1AU     AUC    5   4.677   5.533   6.154
    1AU     AUC    6   4.799   5.246   5.756
    1AU     AUC    7   5.135   4.995   5.644
    1AU     AUC    8   4.989   5.024   6.277
    1AU     AUC    9   5.370   4.993   6.116
    1AU     AUC   10   5.409   5.297   6.214
    1AU     AUC   11   5.038   5.626   5.744
    1AU     AUC   12   5.009   4.857   6.037
    1AU     AUC   13   4.964   4.920   5.733
    1AU     AUC   14   5.556   4.628   5.734
    1AU     AUC   15   5.708   4.921   5.725
    1AU     AUC   16   5.808   5.253   5.754
    1AU     AUC   17   4.404   5.051   5.861
    1AU     AUC   18   4.478   5.481   6.063
    1AU     AUC   19   4.663   5.716   6.265
    1AU     AUC   20   4.654   5.356   5.672
    1AU     AUC   21   4.914   5.294   5.439
    1AU     AUC   22   5.283   5.122   5.333
    1AU     AUC   23   4.899   5.073   6.454
    1AU     AUC   24   5.247   4.916   6.435
    1AU     AUC   25   5.582   4.884   6.272
    1AU     AUC   26   5.442   5.494   6.408
    1AU     AUC   27   5.363   5.701   6.069
    1AU     AUC   28   5.192   5.751   5.767
    1AU     AUC   29   4.926   4.542   6.028
    1AU     AUC   30   4.849   4.595   5.794
    1AU     AUC   31   4.817   4.690   5.506
    1AU     AUC   32   5.643   5.362   6.075
    1AU     AUC   33   5.580   5.629   5.680
    1AU     AUC   34   5.277   4.608   5.908
    1AU     AUC   35   5.203   4.573   5.589
    1AU     AUC   36   5.058   5.677   6.404
    1AU     AUC   37   4.878   5.790   6.100
    1AU     AUC   38   4.626   4.796   6.023
    1AU     AUC   39   4.616   4.836   5.780
    1AU     AUC   40   5.440   4.849   5.470
    1AU     AUC   41   5.586   5.178   5.472
    1AU     AUC   42   4.470   5.268   5.855
    1AU     AUC   43   4.624   5.504   5.999
    1AU     AUC   44   5.648   4.691   6.026
    1AU     AUC   45   5.784   5.075   6.058
    1AU     AUC   46   4.641   5.096   6.209
    1AU     AUC   47   4.763   5.441   6.424
    1AU     AUC   48   4.889   5.572   5.736
    1AU     AUC   49   5.204   5.476   5.407
    1AU     AUC   50   5.190   5.264   6.504
    1AU     AUC   51   5.565   5.180   6.384
    1AU     AUC   52   4.692   5.085   5.501
    1AU     AUC   53   5.046   4.897   5.427
    1AU     AUC   54   4.913   4.733   6.260
    1AU     AUC   55   5.278   4.639   6.157
    1AU    AUSL   56   5.763   5.507   5.934
    1AU    AUSL   57   5.829   5.162   6.496
    1AU     AUL   58   6.101   5.155   6.430
    1AU       S   59   6.300   5.538   6.580
    1AU     LIG   60   6.186   5.475   7.044
    1AU     LIG   61   5.900   5.312   7.368
    1AU     LIG   62   5.518   5.334   7.616
    1AU       S   63   6.064   5.776   5.469
    1AU     LIG   64   6.393   6.057   5.623
    1AU     LIG   65   6.358   6.485   5.496
    1AU     LIG   66   6.050   6.815   5.424
    1AU    AUSL   67   5.610   5.808   6.205
    1AU    AUSL   68   5.210   5.911   6.035
    1AU     AUL   69   5.497   6.163   6.143
    1AU       S   70   5.907   6.094   5.626
    1AU     LIG   71   5.953   5.839   5.003
    1AU     LIG   72   5.855   5.447   4.610
    1AU     LIG   73   5.570   5.045   4.309
    1AU       S   74   4.669   5.059   6.841
    1AU     LIG   75   3.959   4.964   7.164
    1AU     LIG   76   3.673   5.160   7.378
    1AU     LIG   77   3.579   5.018   7.789
    1AU    AUSL   78   5.536   5.862   5.757
    1AU    AUSL   79   5.695   5.505   5.513
    1AU     AUL   80   5.952   5.730   5.895
    1AU       S   81   5.704   5.969   5.391
    1AU     LIG   82   5.434   5.547   4.852
    1AU     LIG   83   5.333   5.479   4.418
    1AU     LIG   84   4.956   5.356   4.150
    1AU       S   85   4.804   4.916   4.862
    1AU     LIG   86   4.845   5.746   4.636
    1AU     LIG   87   5.194   5.954   4.564
    1AU     LIG   88   5.647   5.915   4.535
    1AU    AUSL   89   5.364   4.450   5.686
    1AU    AUSL   90   5.035   4.554   5.406
    1AU     AUL   91   4.988   4.383   5.190
    1AU       S   92   5.848   4.268   5.510
    1AU     LIG   93   6.391   4.934   5.450
    1AU     LIG   94   6.461   5.405   5.678
    1AU     LIG   95   6.670   5.810   5.952
    1AU       S   96   5.052   4.296   6.381
    1AU     LIG   97   3.960   4.440   6.173
    1AU     LIG   98   3.484   4.730   6.341
    1AU     LIG   99   3.359   5.241   6.493
    1AU    AUSL  100   4.922   4.448   5.886
    1AU    AUSL  101   5.684   4.481   6.280
    1AU     AUL  102   5.517   4.316   6.372
    1AU       S  103   5.270   4.166   6.768
    1AU     LIG  104   5.236   4.297   7.171
    1AU     LIG  105   5.671   4.489   7.456
    1AU     LIG  106   5.968   4.805   7.266
    1AU       S  107   5.462   3.957   5.658
    1AU     LIG  108   5.853   3.812   5.880
    1AU     LIG  109   5.832   3.398   6.105
    1AU     LIG  110   5.491   3.150   6.368
    1AU    AUSL  111   5.021   4.185   5.583
    1AU    AUSL  112   4.495   4.376   5.872
    1AU     AUL  113   4.739   4.144   5.657
    1AU       S  114   4.241   4.282   6.503
    1AU     LIG  115   4.016   4.434   7.041
    1AU     LIG  116   3.937   4.623   7.504
    1AU     LIG  117   4.080   5.052   7.665
    1AU       S  118   5.764   4.191   5.540
    1AU     LIG  119   6.122   4.803   5.044
    1AU     LIG  120   6.300   5.311   5.134
    1AU     LIG  121   6.468   5.771   5.180
    1AU    AUSL  122   4.906   6.021   6.313
    1AU    AUSL  123   4.810   5.923   5.900
    1AU     AUL  124   5.012   6.234   6.011
    1AU       S  125   4.670   5.031   6.879
    1AU     LIG  126   4.441   4.273   7.183
    1AU     LIG  127   4.542   3.856   7.330
    1AU     LIG  128   4.614   3.564   6.998
    1AU       S  129   4.564   5.477   6.904
    1AU     LIG  130   4.658   4.540   6.878
    1AU     LIG  131   4.547   3.945   6.533
    1AU     LIG  132   4.464   3.480   6.470
    1AU    AUSL  133   5.238   5.677   6.382
    1AU    AUSL  134   4.842   5.753   6.606
    1AU     AUL  135   5.182   6.080   6.519
    1AU       S  136   4.890   6.201   6.875
    1AU     LIG  137   4.605   6.399   6.348
    1AU     LIG  138   4.368   6.414   5.836
    1AU     LIG  139   4.360   6.502   5.301
    1AU       S  140   4.749   4.974   6.864
    1AU     LIG  141   4.819   4.108   6.912
    1AU     LIG  142   4.935   3.438   6.658
    1AU     LIG  143   5.059   3.283   6.180
    1AU    AUSL  144   4.390   4.757   6.039
    1AU    AUSL  145   4.691   4.545   6.240
    1AU     AUL  146   4.375   4.423   6.083
    1AU       S  147   4.281   4.604   6.652
    1AU     LIG  148   4.868   4.699   7.248
    1AU     LIG  149   5.216   4.447   7.634
    1AU     LIG  150   5.459   4.032   7.539
    1AU       S  151   3.943   4.920   6.456
    1AU     LIG  152   4.048   5.437   7.044
    1AU     LIG  153   4.374   5.574   7.453
    1AU     LIG  154   4.840   5.336   7.531
    1AU    AUSL  155   4.619   4.672   5.627
    1AU    AUSL  156   4.001   4.874   5.967
    1AU     AUL  157   4.137   4.567   5.711
    1AU       S  158   3.820   4.902   5.546
    1AU     LIG  159   3.665   4.494   5.812
    1AU     LIG  160   3.503   4.249   6.259
    1AU     LIG  161   3.342   4.168   6.693
    1AU       S  162   4.254   4.606   6.492
    1AU     LIG  163   4.381   5.156   7.231
    1AU     LIG  164   4.487   5.270   7.846
    1AU     LIG  165   4.915   5.438   8.029
    1AU    AUSL  166   5.676   4.964   5.138
    1AU    AUSL  167   5.466   4.462   5.285
    1AU     AUL  168   5.719   4.559   5.101
    1AU       S  169   5.384   4.229   5.319
    1AU     LIG  170   5.923   4.535   4.695
    1AU     LIG  171   6.050   4.995   4.439
    1AU     LIG  172   5.854   5.374   4.100
    1AU       S  173   5.597   5.109   4.856
    1AU     LIG  174   5.442   5.952   5.016
    1AU     LIG  175   5.214   6.295   4.951
    1AU     LIG  176   5.188   6.474   4.541
    1AU    AUSL  177   5.692   4.748   5.511
    1AU    AUSL  178   6.030   4.935   5.771
    1AU     AUL  179   6.020   4.688   5.457
    1AU       S  180   5.539   4.788   4.743
    1AU     LIG  181   5.589   4.217   4.784
    1AU     LIG  182   6.149   4.135   4.852
    1AU     LIG  183   6.667   4.189   4.839
    1AU       S  184   6.367   4.594   5.771
    1AU     LIG  185   6.470   4.489   5.240
    1AU     LIG  186   6.442   4.618   4.714
    1AU     LIG  187   6.216   4.531   4.277
    1AU    AUSL  188   5.907   5.154   5.432
    1AU    AUSL  189   5.444   5.302   5.251
    1AU     AUL  190   5.817   5.388   5.153
    1AU       S  191   4.823   4.783   4.843
    1AU     LIG  192   4.633   4.498   4.508
    1AU     LIG  193   4.170   4.613   4.395
    1AU     LIG  194   3.882   4.976   4.345
    1AU       S  195   5.463   5.085   4.769
    1AU     LIG  196   4.586   5.013   4.450
    1AU     LIG  197   3.999   5.044   4.817
    1AU     LIG  198   3.628   4.778   5.106
    1AU    AUSL  199   4.235   5.146   6.202
    1AU    AUSL  200   4.400   5.668   6.522
    1AU     AUL  201   4.130   5.411   6.598
    1AU       S  202   4.682   5.472   7.073
    1AU     LIG  203   4.572   4.895   7.569
    1AU     LIG  204   4.344   4.399   7.664
    1AU     LIG  205   4.055   4.064   7.428
    1AU       S  206   3.574   5.286   5.708
    1AU     LIG  207   3.333   4.844   5.738
    1AU     LIG  208   3.204   4.365   5.868
    1AU     LIG  209   3.360   3.896   5.946
    1AU    AUSL  210   4.160   5.390   5.790
    1AU    AUSL  211   4.398   5.304   5.471
    1AU     AUL  212   3.987   5.257   5.827
    1AU       S  213   3.700   5.494   5.554
    1AU     LIG  214   3.510   5.250   5.143
    1AU     LIG  215   3.472   4.957   4.683
    1AU     LIG  216   3.615   4.562   4.418
    1AU       S  217   4.053   5.258   5.330
    1AU     LIG  218   3.818   5.618   5.037
    1AU     LIG  219   3.432   5.759   5.195
    1AU     LIG  220   3.225   5.638   5.615
    1AU    AUSL  221   4.434   5.734   5.831
    1AU    AUSL  222   4.229   5.546   6.164
    1AU     AUL  223   4.131   5.784   5.867
    1AU       S  224   3.987   5.929   6.291
    1AU     LIG  225   3.905   6.220   5.921
    1AU     LIG  226   4.010   6.174   5.460
    1AU     LIG  227   4.105   6.076   4.995
    1AU       S  228   3.870   5.653   5.515
    1AU     LIG  229   4.288   5.567   4.961
    1AU     LIG  230   4.601   5.949   5.038
    1AU     LIG  231   4.990   6.050   5.351
    1AU    AUSL  232   5.925   4.824   6.195
    1AU    AUSL  233   6.090   5.277   6.013
    1AU     AUL  234   6.248   4.996   6.022
    1AU       S  235   6.378   4.567   6.119
    1AU     LIG  236   6.963   4.574   5.986
    1AU     LIG  237   7.403   4.989   6.086
    1AU     LIG  238   7.320   5.348   6.370
    1AU       S  239   6.328   5.493   6.165
    1AU     LIG  240   6.595   5.183   6.352
    1AU     LIG  241   6.958   4.974   6.264
    1AU     LIG  242   7.126   5.025   5.702
    1AU    AUSL  243   5.853   4.559   5.862
    1AU    AUSL  244   5.589   4.246   5.973
    1AU     AUL  245   5.945   4.359   6.152
    1AU       S  246   6.254   4.518   5.849
    1AU     LIG  247   6.674   4.956   5.857
    1AU     LIG  248   6.925   5.389   6.003
    1AU     LIG  249   7.074   5.782   6.279
    1AU       S  250   5.004   3.880   6.542
    1AU     LIG  251   4.294   3.923   6.902
    1AU     LIG  252   3.800   4.015   6.929
    1AU     LIG  253   3.529   4.445   7.074
    1AU    AUSL  254   4.542   5.296   6.476
    1AU    AUSL  255   4.254   4.977   5.691
    1AU     AUL  256   3.994   5.477   6.191
    1AU       S  257   3.695   5.119   6.166
    1AU     LIG  258   3.219   5.239   6.013
    1AU     LIG  259   2.929   5.235   5.615
    1AU     LIG  260   2.466   5.145   5.594
    1AU       S  261   4.045   5.913   6.444
    1AU     LIG  262   4.078   6.403   6.369
    1AU     LIG  263   4.116   6.760   6.076
    1AU     LIG  264   4.555   6.887   5.901
    1AU    AUSL  265   4.485   5.929   6.231
    1AU    AUSL  266   4.936   5.357   6.658
    1AU     AUL  267   4.733   5.822   6.697
    1AU       S  268   4.939   5.878   7.080
    1AU     LIG  269   4.378   5.915   7.020
    1AU     LIG  270   3.868   5.922   6.988
    1AU     LIG  271   3.452   5.841   6.716
    1AU       S  272   3.972   5.828   6.519
    1AU     LIG  273   4.211   5.043   6.797
    1AU     LIG  274   4.368   4.712   7.189
    1AU     LIG  275   4.813   4.266   7.447
    1AU    AUSL  276   5.295   5.342   5.791
    1AU    AUSL  277   5.019   5.381   6.087
    1AU     AUL  278   5.058   5.404   6.083
    1AU       S  279   5.044   5.150   7.134
    1AU     LIG  280   5.599   4.544   6.989
    1AU     LIG  281   5.989   4.464   6.669
    1AU     LIG  282   6.419   4.242   6.505
    1AU       S  283   4.732   4.114   6.120
    1AU     LIG  284   5.682   4.036   6.684
    1AU     LIG  285   6.014   3.962   6.429
    1AU     LIG  286   6.272   3.697   6.195
    1AU    AUSL  287   4.715   5.595   5.460
    1AU    AUSL  288   5.100   5.177   5.037
    1AU     AUL  289   4.954   5.634   5.072
    1AU       S  290   4.451   4.367   5.399
    1AU     LIG  291   4.380   4.218   4.949
    1AU     LIG  292   4.062   3.970   4.677
    1AU     LIG  293   3.572   4.051   4.601
    1AU       S  294   5.027   5.287   4.759
    1AU     LIG  295   4.352   4.739   4.819
    1AU     LIG  296   3.903   4.417   4.805
    1AU     LIG  297   3.765   3.972   5.070
    1AU    AUSL  298   5.062   5.328   5.420
    1AU    AUSL  299   5.302   5.691   5.410
    1AU     AUL  300   5.323   5.333   5.751
    1AU       S  301   4.744   4.939   4.871
    1AU     LIG  302   4.090   4.612   5.194
    1AU     LIG  303   3.632   4.356   5.343
    1AU     LIG  304   3.146   4.435   5.366
    1AU       S  305   4.679   4.092   6.107
    1AU     LIG  306   3.827   4.409   6.607
    1AU     LIG  307   3.616   4.882   6.818
    1AU     LIG  308   3.588   5.376   6.913
    1AU    AUSL  309   5.476   5.353   6.651
    1AU    AUSL  310   5.892   5.524   6.355
    1AU     AUL  311   5.824   5.469   6.712
    1AU       S  312   5.527   5.272   7.014
    1AU     LIG  313   5.203   5.613   7.356
    1AU     LIG  314   4.675   5.958   7.452
    1AU     LIG  315   4.296   6.265   7.390
    1AU       S  316   6.113   5.648   6.358
    1AU     LIG  317   6.259   6.010   6.172
    1AU     LIG  318   6.168   6.392   5.989
    1AU     LIG  319   5.926   6.765   6.081
    1AU    AUSL  320   5.186   5.033   6.715
    1AU    AUSL  321   5.262   5.688   6.790
    1AU     AUL  322   5.143   5.479   6.878
    1AU       S  323   5.503   5.165   7.082
    1AU     LIG  324   5.669   5.710   7.113
    1AU     LIG  325   6.003   5.934   6.815
    1AU     LIG  326   6.243   6.307   6.591
    1AU       S  327   5.162   5.963   6.985
    1AU     LIG  328   5.152   6.124   7.459
    1AU     LIG  329   4.937   5.942   7.859
    1AU     LIG  330   4.510   5.760   7.931
    1AU    AUSL  331   5.590   4.888   6.690
    1AU    AUSL  332   4.951   4.686   6.577
    1AU     AUL  333   5.202   4.741   6.880
    1AU       S  334   5.419   3.886   6.356
    1AU     LIG  335   5.741   3.561   6.547
    1AU     LIG  336   6.049   3.593   6.788
    1AU     LIG  337   6.211   3.305   7.016
    1AU       S  338   5.632   5.012   6.959
    1AU     LIG  339   5.348   4.881   7.420
    1AU     LIG  340   5.018   4.879   7.768
    1AU     LIG  341   4.780   4.483   7.891
    1AU    AUSL  342   4.846   4.899   5.288
    1AU    AUSL  343   5.295   4.864   5.282
    1AU     AUL  344   5.206   4.758   5.043
    1AU       S  345   5.086   5.009   4.533
    1AU     LIG  346   5.122   4.436   4.683
    1AU     LIG  347   4.979   3.961   4.942
    1AU     LIG  348   4.872   3.512   5.176
    1AU       S  349   5.083   4.299   6.393
    1AU     LIG  350   5.337   3.702   6.805
    1AU     LIG  351   5.592   3.252   6.893
    1AU     LIG  352   5.924   3.075   6.594
    1AU    AUSL  353   4.692   5.285   5.172
    1AU    AUSL  354   4.431   4.875   5.318
    1AU     AUL  355   4.438   5.126   5.125
    1AU       S  356   4.883   5.311   4.637
    1AU     LIG  357   4.452   5.509   4.474
    1AU     LIG  358   4.426   5.999   4.546
    1AU     LIG  359   4.729   6.327   4.729
    1AU       S  360   3.996   5.098   5.317
    1AU     LIG  361   4.282   5.750   5.380
    1AU     LIG  362   4.530   6.083   5.514
    1AU     LIG  363   4.810   6.463   5.599
    1AU    AUSL  364   5.133   4.129   6.014
    1AU    AUSL  365   4.581   4.889   6.442
    1AU     AUL  366   4.662   4.420   6.452
    1AU       S  367   3.847   5.071   6.411
    1AU     LIG  368   3.568   5.616   6.063
    1AU     LIG  369   3.548   6.014   5.631
    1AU     LIG  370   3.607   6.227   5.151
    1AU       S  371   5.320   3.732   6.114
    1AU     LIG  372   4.721   3.609   6.047
    1AU     LIG  373   4.540   3.662   5.563
    1AU     LIG  374   4.414   3.694   5.062
    1AU    AUSL  375   5.343   4.684   6.436
    1AU    AUSL  376   5.268   4.517   6.078
    1AU     AUL  377   5.317   4.190   6.024
    1AU       S  378   5.536   3.870   6.253
    1AU     LIG  379   5.493   3.469   5.766
    1AU     LIG  380   5.436   3.100   5.479
    1AU     LIG  381   5.467   2.730   5.188
    1AU       S  382   4.979   3.844   6.391
    1AU     LIG  383   5.045   3.722   5.729
    1AU     LIG  384   5.338   3.645   5.303
    1AU     LIG  385   5.681   3.355   5.097
    2POPC   NC3  386   3.522   1.405   8.107
    2POPC   PO4  387   3.113   0.822   8.207
    2POPC   GL1  388   3.268   0.864   7.763
    2POPC   GL2  389   3.580   1.049   7.717
    2POPC   C1A  390   3.113   0.895   7.304
    2POPC   D2A  391   3.069   0.872   6.826
    2POPC   C3A  392   3.348   0.979   6.457
    2POPC   C4A  393   3.297   0.922   5.979
    2POPC   C1B  394   3.478   1.258   7.322
    2POPC   C2B  395   3.410   1.318   6.861
    2POPC   C3B  396   3.679   1.374   6.485
    2POPC   C4B  397   3.736   1.158   6.090
    3POPC   NC3  398   7.270   0.321   8.119
    3POPC   PO4  399   7.856   9.950   8.004
    3POPC   GL1  400   7.580   0.201   7.719
    3POPC   GL2  401   7.378   0.529   7.673
    3POPC   C1A  402   7.417   0.153   7.313
    3POPC   D2A  403   7.539   0.398   6.950
    3POPC   C3A  404   7.364   0.357   6.546
    3POPC   C4A  405   7.388   0.094   6.168
    3POPC   C1B  406   7.200   0.622   7.279
    3POPC   C2B  407   7.264   0.802   6.893
    3POPC   C3B  408   7.137   0.827   6.466
    3POPC   C4B  409   7.235   0.721   6.047
    4POPC   NC3  410   1.137   1.410   8.148
    4POPC   PO4  411   0.750   0.804   8.065
    4POPC   GL1  412   0.890   1.117   7.780
    4POPC   GL2  413   1.219   1.014   7.822
    4POPC   C1A  414   1.118   1.298   7.399
    4POPC   D2A  415   1.366   1.407   7.006
    4POPC   C3A  416   1.207   1.307   6.579
    4POPC   C4A  417   1.009   1.447   6.176
    4POPC   C1B  418   1.334   0.831   7.462
    4POPC   C2B  419   1.260   0.896   7.051
    4POPC   C3B  420   1.464   0.790   6.689
    4POPC   C4B  421   1.371   0.927   6.296
    5POPC   NC3  422   0.679   5.104   8.079
    5POPC   PO4  423   0.130   4.618   7.940
    5POPC   GL1  424   0.483   4.763   7.618
    5POPC   GL2  425   0.732   5.034   7.590
    5POPC   C1A  426   0.610   4.863   7.137
    5POPC   D2A  427   0.438   4.981   6.698
    5POPC   C3A  428   0.650   4.934   6.283
    5POPC   C4A  429   0.887   4.841   5.896
    5POPC   C1B  430   0.394   5.262   7.416
    5POPC   C2B  431   0.128   5.372   7.077
    5POPC   C3B  432   0.016   5.322   6.651
    5POPC   C4B  433   0.167   5.101   6.273
    6POPC   NC3  434   6.288   7.575   8.591
    6POPC   PO4  435   5.777   7.777   8.137
    6POPC   GL1  436   5.642   8.039   7.728
    6POPC   GL2  437   5.644   8.406   7.788
    6POPC   C1A  438   5.695   8.062   7.245
    6POPC   D2A  439   5.512   8.005   6.813
    6POPC   C3A  440   5.826   7.884   6.502
    6POPC   C4A  441   6.275   7.748   6.513
    6POPC   C1B  442   5.432   8.484   7.387
    6POPC   C2B  443   5.626   8.467   6.952
    6POPC   C3B  444   5.657   8.356   6.465
    6POPC   C4B  445   5.620   8.413   5.974
    7POPC   NC3  446   0.311   8.155   8.224
    7POPC   PO4  447   0.833   7.702   8.157
    7POPC   GL1  448   0.462   7.880   7.827
    7POPC   GL2  449   0.372   8.279   7.735
    7POPC   C1A  450   0.188   7.911   7.432
    7POPC   D2A  451   0.367   7.872   7.008
    7POPC   C3A  452   0.125   7.943   6.619
    7POPC   C4A  453   0.177   7.754   6.199
    7POPC   C1B  454   0.505   8.298   7.278
    7POPC   C2B  455   0.439   8.332   6.802
    7POPC   C3B  456   0.558   8.158   6.394
    7POPC   C4B  457   0.850   8.298   6.033
    8POPC   NC3  458   8.591   6.420   8.132
    8POPC   PO4  459   9.237   6.300   8.339
    8POPC   GL1  460   9.083   6.429   7.920
    8POPC   GL2  461   8.899   6.720   7.831
    8POPC   C1A  462   8.929   6.317   7.494
    8POPC   D2A  463   8.704   6.412   7.113
    8POPC   C3A  464   8.873   6.516   6.700
    8POPC   C4A  465   9.063   6.411   6.300
    8POPC   C1B  466   8.883   6.834   7.347
    8POPC   C2B  467   9.050   7.012   6.929
    8POPC   C3B  468   8.960   6.976   6.475
    8POPC   C4B  469   8.722   6.756   6.146
    9POPC   NC3  470   2.552   6.274   8.079
    9POPC   PO4  471   2.673   6.908   8.137
    9POPC   GL1  472   2.629   6.667   7.735
    9POPC   GL2  473   2.898   6.402   7.729
    9POPC   C1A  474   2.521   6.671   7.281
    9POPC   D2A  475   2.542   6.501   6.834
    9POPC   C3A  476   2.425   6.757   6.466
    9POPC   C4A  477   2.752   6.863   6.121
    9POPC   C1B  478   3.043   6.664   7.389
    9POPC   C2B  479   3.116   6.899   6.985
    9POPC   C3B  480   2.993   6.748   6.573
    9POPC   C4B  481   2.793   6.399   6.377
   10POPC   NC3  482   7.534   9.605   7.992
   10POPC   PO4  483   6.950   9.897   8.142
   10POPC   GL1  484   7.151   9.858   7.715
   10POPC   GL2  485   7.189   9.486   7.637
   10POPC   C1A  486   7.027   9.811   7.267
   10POPC   D2A  487   7.114   0.070   6.901
   10POPC   C3A  488   7.056   9.919   6.509
   10POPC   C4A  489   6.819   9.965   6.127
   10POPC   C1B  490   7.488   9.600   7.295
   10POPC   C2B  491   7.341   9.601   6.859
   10POPC   C3B  492   7.448   9.566   6.421
   10POPC   C4B  493   7.671   9.669   6.006
   11POPC   NC3  494   8.065   4.819   8.098
   11POPC   PO4  495   8.048   4.135   8.346
   11POPC   GL1  496   8.182   4.323   7.901
   11POPC   GL2  497   8.505   4.376   7.787
   11POPC   C1A  498   8.211   4.162   7.435
   11POPC   D2A  499   8.230   3.988   6.991
   11POPC   C3A  500   8.200   4.183   6.552
   11POPC   C4A  501   7.874   4.217   6.192
   11POPC   C1B  502   8.588   4.532   7.352
   11POPC   C2B  503   8.637   4.370   6.922
   11POPC   C3B  504   8.603   4.521   6.496
   11POPC   C4B  505   8.308   4.536   6.186
   12POPC   NC3  506   3.356   2.067   8.178
   12POPC   PO4  507   3.787   2.532   8.114
   12POPC   GL1  508   3.649   2.223   7.802
   12POPC   GL2  509   3.571   1.849   7.736
   12POPC   C1A  510   3.542   2.247   7.394
   12POPC   D2A  511   3.394   2.449   7.053
   12POPC   C3A  512   3.242   2.188   6.752
   12POPC   C4A  513   3.301   2.174   6.296
   12POPC   C1B  514   3.772   1.698   7.309
   12POPC   C2B  515   3.973   1.646   6.854
   12POPC   C3B  516   3.698   1.876   6.544
   12POPC   C4B  517   3.265   1.725   6.515
   13POPC   NC3  518   9.239   5.943   8.054
   13POPC   PO4  519   9.503   5.354   8.151
   13POPC   GL1  520   9.228   5.480   7.834
   13POPC   GL2  521   9.452   5.702   7.646
   13POPC   C1A  522   8.928   5.509   7.485
   13POPC   D2A  523   8.967   5.344   7.053
   13POPC   C3A  524   8.998   5.654   6.730
   13POPC   C4A  525   9.143   5.894   6.362
   13POPC   C1B  526   9.243   5.811   7.237
   13POPC   C2B  527   8.796   5.898   7.132
   13POPC   C3B  528   8.631   6.041   6.731
   13POPC   C4B  529   8.640   6.127   6.307
   14POPC   NC3  530   2.009   4.406   8.324
   14POPC   PO4  531   1.432   4.240   8.006
   14POPC   GL1  532   1.710   4.328   7.706
   14POPC   GL2  533   1.939   4.553   7.826
   14POPC   C1A  534   1.724   4.380   7.263
   14POPC   D2A  535   1.675   4.185   6.836
   14POPC   C3A  536   1.785   4.407   6.458
   14POPC   C4A  537   1.821   4.186   6.050
   14POPC   C1B  538   2.175   4.280   7.517
   14POPC   C2B  539   2.145   4.121   7.068
   14POPC   C3B  540   2.233   4.274   6.631
   14POPC   C4B  541   2.241   4.715   6.406
   15POPC   NC3  542   4.362   9.049   8.116
   15POPC   PO4  543   3.913   8.542   8.219
   15POPC   GL1  544   3.888   8.778   7.766
   15POPC   GL2  545   4.036   9.118   7.704
   15POPC   C1A  546   3.766   8.943   7.307
   15POPC   D2A  547   3.989   8.809   6.899
   15POPC   C3A  548   4.096   9.013   6.490
   15POPC   C4A  549   4.189   9.242   6.041
   15POPC   C1B  550   4.264   8.872   7.363
   15POPC   C2B  551   4.512   8.651   7.073
   15POPC   C3B  552   4.545   8.858   6.673
   15POPC   C4B  553   4.483   8.832   6.210
   16POPC   NC3  554   0.374   1.141   7.896
   16POPC   PO4  555   0.716   1.646   8.050
   16POPC   GL1  556   0.466   1.609   7.655
   16POPC   GL2  557   0.154   1.416   7.536
   16POPC   C1A  558   0.610   1.381   7.278
   16POPC   D2A  559   0.872   1.216   6.949
   16POPC   C3A  560   0.699   1.187   6.522
   16POPC   C4A  561   0.401   1.429   6.306
   16POPC   C1B  562   0.215   1.027   7.279
   16POPC   C2B  563   0.344   1.129   6.883
   16POPC   C3B  564   0.176   1.014   6.496
   16POPC   C4B  565   0.215   0.988   6.050
   17POPC   NC3  566   7.970   5.768   8.132
   17POPC   PO4  567   8.640   5.886   8.062
   17POPC   GL1  568   8.335   5.791   7.765
   17POPC   GL2  569   8.189   6.149   7.819
   17POPC   C1A  570   8.416   5.595   7.345
   17POPC   D2A  571   8.506   5.514   6.890
   17POPC   C3A  572   8.164   5.486   6.577
   17POPC   C4A  573   8.046   5.602   6.130
   17POPC   C1B  574   8.345   6.112   7.354
   17POPC   C2B  575   8.186   5.918   6.930
   17POPC   C3B  576   8.148   6.023   6.448
   17POPC   C4B  577   7.934   6.128   6.033
   18POPC   NC3  578   5.754   0.421   8.322
   18POPC   PO4  579   6.230   9.928   8.335
   18POPC   GL1  580   6.057   0.308   7.926
   18POPC   GL2  581   5.765   0.555   7.840
   18POPC   C1A  582   5.870   0.263   7.447
   18POPC   D2A  583   6.012   0.036   7.074
   18POPC   C3A  584   6.072   0.153   6.649
   18POPC   C4A  585   5.909   0.027   6.282
   18POPC   C1B  586   5.580   0.678   7.418
   18POPC   C2B  587   5.798   0.692   7.011
   18POPC   C3B  588   5.704   0.512   6.593
   18POPC   C4B  589   5.946   0.545   6.219
   19POPC   NC3  590   9.548   6.577   8.115
   19POPC   PO4  591   0.218   6.250   8.155
   19POPC   GL1  592   9.962   6.513   7.790
   19POPC   GL2  593   9.773   6.805   7.731
   19POPC   C1A  594   9.799   6.553   7.291
   19POPC   D2A  595   9.841   6.429   6.825
   19POPC   C3A  596   9.876   6.595   6.381
   19POPC   C4A  597   9.965   6.383   5.903
   19POPC   C1B  598   9.376   6.787   7.483
   19POPC   C2B  599   9.263   6.567   7.080
   19POPC   C3B  600   9.389   6.660   6.628
   19POPC   C4B  601   9.403   6.911   6.234
   20POPC   NC3  602   9.600   0.936   8.445
   20POPC   PO4  603   9.984   1.377   8.024
   20POPC   GL1  604   9.667   1.318   7.707
   20POPC   GL2  605   9.340   1.267   7.860
   20POPC   C1A  606   9.717   1.224   7.275
   20POPC   D2A  607   9.830   0.974   6.910
   20POPC   C3A  608   9.686   1.115   6.491
   20POPC   C4A  609   9.743   0.808   6.168
   20POPC   C1B  610   9.215   1.161   7.417
   20POPC   C2B  611   9.310   1.147   6.947
   20POPC   C3B  612   9.379   1.497   6.625
   20POPC   C4B  613   9.485   1.540   6.179
   21POPC   NC3  614   1.834   8.058   7.982
   21POPC   PO4  615   2.286   7.579   8.036
   21POPC   GL1  616   2.185   7.797   7.625
   21POPC   GL2  617   1.858   8.013   7.484
   21POPC   C1A  618   2.273   7.941   7.217
   21POPC   D2A  619   2.045   7.896   6.852
   21POPC   C3A  620   2.320   7.979   6.516
   21POPC   C4A  621   2.462   8.090   6.087
   21POPC   C1B  622   1.495   8.300   7.377
   21POPC   C2B  623   1.364   8.323   6.940
   21POPC   C3B  624   1.673   8.193   6.610
   21POPC   C4B  625   1.970   8.229   6.269
   22POPC   NC3  626   4.170   1.498   8.197
   22POPC   PO4  627   4.720   1.094   8.394
   22POPC   GL1  628   4.614   1.353   7.972
   22POPC   GL2  629   4.297   1.198   7.813
   22POPC   C1A  630   4.622   1.341   7.455
   22POPC   D2A  631   4.397   1.270   7.010
   22POPC   C3A  632   4.530   1.053   6.589
   22POPC   C4A  633   4.587   1.032   6.103
   22POPC   C1B  634   4.020   1.268   7.455
   22POPC   C2B  635   3.889   1.170   7.008
   22POPC   C3B  636   3.990   0.981   6.591
   22POPC   C4B  637   4.180   1.265   6.265
   23POPC   NC3  638   7.815   7.043   8.051
   23POPC   PO4  639   8.347   7.505   8.117
   23POPC   GL1  640   8.087   7.340   7.784
   23POPC   GL2  641   8.201   7.478   7.564
   23POPC   C1A  642   7.921   7.116   7.373
   23POPC   D2A  643   8.117   7.221   6.947
   23POPC   C3A  644   7.934   7.071   6.533
   23POPC   C4A  645   7.676   6.998   6.166
   23POPC   C1B  646   8.290   7.697   7.211
   23POPC   C2B  647   8.398   7.717   6.783
   23POPC   C3B  648   8.310   7.616   6.379
   23POPC   C4B  649   8.303   7.419   5.970
   24POPC   NC3  650   9.244   3.492   8.036
   24POPC   PO4  651   8.763   3.949   8.023
   24POPC   GL1  652   8.876   3.662   7.711
   24POPC   GL2  653   8.821   3.278   7.835
   24POPC   C1A  654   9.155   3.747   7.333
   24POPC   D2A  655   9.358   3.618   6.943
   24POPC   C3A  656   9.070   3.746   6.624
   24POPC   C4A  657   8.832   3.558   6.294
   24POPC   C1B  658   9.058   3.266   7.440
   24POPC   C2B  659   8.936   3.350   7.013
   24POPC   C3B  660   9.042   3.215   6.602
   24POPC   C4B  661   8.789   3.046   6.278
   25POPC   NC3  662   0.217   1.772   8.106
   25POPC   PO4  663   0.480   2.205   8.440
   25POPC   GL1  664   0.424   2.139   7.857
   25POPC   GL2  665   0.710   2.071   7.652
   25POPC   C1A  666   0.203   2.061   7.453
   25POPC   D2A  667   9.969   2.186   7.062
   25POPC   C3A  668   0.115   2.036   6.662
   25POPC   C4A  669   0.199   2.011   6.217
   25POPC   C1B  670   0.640   1.935   7.235
   25POPC   C2B  671   0.605   2.094   6.820
   25POPC   C3B  672   0.686   1.961   6.407
   25POPC   C4B  673   0.608   1.763   6.002
   26POPC   NC3  674   9.878   4.339   8.203
   26POPC   PO4  675   9.382   4.715   7.868
   26POPC   GL1  676   9.716   4.522   7.656
   26POPC   GL2  677   9.824   4.155   7.730
   26POPC   C1A  678   9.662   4.631   7.226
   26POPC   D2A  679   9.451   4.644   6.825
   26POPC   C3A  680   9.572   4.470   6.426
   26POPC   C4A  681   9.543   4.652   6.009
   26POPC   C1B  682   9.911   4.187   7.294
   26POPC   C2B  683   9.898   4.349   6.884
   26POPC   C3B  684   0.004   4.176   6.521
   26POPC   C4B  685   9.957   3.868   6.213
   27POPC   NC3  686   7.295   0.968   8.106
   27POPC   PO4  687   7.678   1.442   7.785
   27POPC   GL1  688   7.236   1.341   7.653
   27POPC   GL2  689   7.125   0.993   7.629
   27POPC   C1A  690   7.123   1.253   7.201
   27POPC   D2A  691   7.343   1.281   6.783
   27POPC   C3A  692   7.055   1.323   6.440
   27POPC   C4A  693   7.005   1.173   5.995
   27POPC   C1B  694   7.537   0.975   7.364
   27POPC   C2B  695   7.766   0.916   6.969
   27POPC   C3B  696   7.648   0.896   6.543
   27POPC   C4B  697   7.486   1.152   6.211
   28POPC   NC3  698   9.280   4.961   8.239
   28POPC   PO4  699   8.602   4.925   8.086
   28POPC   GL1  700   8.883   4.757   7.713
   28POPC   GL2  701   9.091   5.038   7.606
   28POPC   C1A  702   9.064   4.689   7.229
   28POPC   D2A  703   8.962   4.769   6.755
   28POPC   C3A  704   9.165   4.841   6.324
   28POPC   C4A  705   9.100   4.786   5.819
   28POPC   C1B  706   8.684   5.066   7.381
   28POPC   C2B  707   8.563   4.991   6.967
   28POPC   C3B  708   8.714   5.185   6.545
   28POPC   C4B  709   8.622   5.598   6.343
   29POPC   NC3  710   6.008   8.872   8.437
   29POPC   PO4  711   5.473   9.278   8.267
   29POPC   GL1  712   5.693   9.245   7.865
   29POPC   GL2  713   5.862   8.916   7.838
   29POPC   C1A  714   5.788   9.226   7.422
   29POPC   D2A  715   5.975   9.134   7.014
   29POPC   C3A  716   5.742   9.181   6.626
   29POPC   C4A  717   5.424   9.162   6.297
   29POPC   C1B  718   5.897   8.718   7.420
   29POPC   C2B  719   6.131   8.646   7.056
   29POPC   C3B  720   5.964   8.710   6.665
   29POPC   C4B  721   5.765   8.800   6.275
   30POPC   NC3  722   5.041   8.906   8.184
   30POPC   PO4  723   4.457   8.651   7.918
   30POPC   GL1  724   4.857   8.748   7.711
   30POPC   GL2  725   4.909   9.137   7.715
   30POPC   C1A  726   4.964   8.822   7.271
   30POPC   D2A  727   4.852   9.241   7.157
   30POPC   C3A  728   4.817   9.299   6.736
   30POPC   C4A  729   4.968   9.004   6.460
   30POPC   C1B  730   5.343   8.994   7.552
   30POPC   C2B  731   5.496   8.924   7.100
   30POPC   C3B  732   5.392   8.790   6.653
   30POPC   C4B  733   5.244   8.645   6.232
   31POPC   NC3  734   5.889   9.672   8.094
   31POPC   PO4  735   5.384   0.077   8.307
   31POPC   GL1  736   5.612   0.035   7.846
   31POPC   GL2  737   5.767   9.742   7.589
   31POPC   C1A  738   5.389   0.048   7.417
   31POPC   D2A  739   5.523   0.236   7.006
   31POPC   C3A  740   5.471   0.023   6.582
   31POPC   C4A  741   5.566   9.648   6.315
   31POPC   C1B  742   6.120   9.573   7.261
   31POPC   C2B  743   6.256   9.580   6.835
   31POPC   C3B  744   6.037   9.548   6.431
   31POPC   C4B  745   5.897   9.262   6.096
   32POPC   NC3  746   7.168   2.439   8.183
   32POPC   PO4  747   7.224   3.121   8.216
   32POPC   GL1  748   7.428   2.875   7.912
   32POPC   GL2  749   7.674   3.047   7.735
   32POPC   C1A  750   7.309   2.703   7.506
   32POPC   D2A  751   7.312   2.655   7.040
   32POPC   C3A  752   7.199   2.960   6.700
   32POPC   C4A  753   7.217   3.048   6.232
   32POPC   C1B  754   7.796   2.769   7.362
   32POPC   C2B  755   7.818   2.603   6.919
   32POPC   C3B  756   7.613   2.698   6.508
   32POPC   C4B  757   7.688   2.863   6.078
   33POPC   NC3  758   8.979   9.275   8.337
   33POPC   PO4  759   9.217   8.573   8.295
   33POPC   GL1  760   9.085   8.846   7.908
   33POPC   GL2  761   8.734   8.831   7.995
   33POPC   C1A  762   9.095   8.963   7.410
   33POPC   D2A  763   9.160   8.762   7.007
   33POPC   C3A  764   9.145   9.001   6.641
   33POPC   C4A  765   8.955   8.964   6.272
   33POPC   C1B  766   8.594   8.920   7.567
   33POPC   C2B  767   8.676   8.912   7.097
   33POPC   C3B  768   8.692   8.731   6.660
   33POPC   C4B  769   8.454   8.660   6.252
   34POPC   NC3  770   5.042   0.389   8.197
   34POPC   PO4  771   4.649   0.860   7.913
   34POPC   GL1  772   4.907   0.555   7.704
   34POPC   GL2  773   4.798   0.203   7.668
   34POPC   C1A  774   5.090   0.491   7.285
   34POPC   D2A  775   5.290   0.684   6.925
   34POPC   C3A  776   5.177   0.569   6.492
   34POPC   C4A  777   5.083   0.560   6.025
   34POPC   C1B  778   4.751   0.108   7.214
   34POPC   C2B  779   5.022   0.203   6.819
   34POPC   C3B  780   5.020   0.115   6.324
   34POPC   C4B  781   4.866   0.117   5.864
   35POPC   NC3  782   0.309   6.762   8.221
   35POPC   PO4  783   0.849   6.602   8.111
   35POPC   GL1  784   0.787   6.437   7.722
   35POPC   GL2  785   0.467   6.451   7.764
   35POPC   C1A  786   0.767   6.603   7.322
   35POPC   D2A  787   0.716   6.917   7.001
   35POPC   C3A  788   0.781   6.713   6.621
   35POPC   C4A  789   0.708   6.813   6.203
   35POPC   C1B  790   0.283   6.490   7.383
   35POPC   C2B  791   0.437   6.429   6.961
   35POPC   C3B  792   0.327   6.466   6.552
   35POPC   C4B  793   0.166   6.144   6.289
   36POPC   NC3  794   7.621   8.624   7.953
   36POPC   PO4  795   7.831   9.254   8.058
   36POPC   GL1  796   7.525   9.106   7.761
   36POPC   GL2  797   7.195   8.986   7.901
   36POPC   C1A  798   7.599   9.080   7.303
   36POPC   D2A  799   7.832   9.121   6.901
   36POPC   C3A  800   7.637   9.036   6.503
   36POPC   C4A  801   7.525   9.185   6.066
   36POPC   C1B  802   7.213   8.783   7.484
   36POPC   C2B  803   7.273   8.709   7.051
   36POPC   C3B  804   7.016   8.689   6.670
   36POPC   C4B  805   7.208   8.847   6.300
   37POPC   NC3  806   1.922   8.751   8.134
   37POPC   PO4  807   2.199   8.262   7.779
   37POPC   GL1  808   1.897   8.549   7.656
   37POPC   GL2  809   2.021   8.924   7.667
   37POPC   C1A  810   1.871   8.651   7.235
   37POPC   D2A  811   2.051   8.932   6.951
   37POPC   C3A  812   2.026   8.743   6.544
   37POPC   C4A  813   1.658   8.646   6.289
   37POPC   C1B  814   2.200   9.269   7.379
   37POPC   C2B  815   2.406   9.307   6.950
   37POPC   C3B  816   2.210   9.248   6.537
   37POPC   C4B  817   1.910   9.121   6.212
   38POPC   NC3  818   0.698   6.178   8.157
   38POPC   PO4  819   0.470   5.556   7.996
   38POPC   GL1  820   0.525   5.931   7.754
   38POPC   GL2  821   0.878   5.912   7.705
   38POPC   C1A  822   0.555   6.070   7.340
   38POPC   D2A  823   0.454   5.807   6.980
   38POPC   C3A  824   0.548   5.963   6.579
   38POPC   C4A  825   0.732   6.280   6.309
   38POPC   C1B  826   0.761   5.599   7.357
   38POPC   C2B  827   0.653   5.348   6.976
   38POPC   C3B  828   0.592   5.437   6.513
   38POPC   C4B  829   0.235   5.633   6.275
   39POPC   NC3  830   2.100   7.164   8.134
   39POPC   PO4  831   1.512   7.680   8.086
   39POPC   GL1  832   1.753   7.556   7.689
   39POPC   GL2  833   2.025   7.306   7.659
   39POPC   C1A  834   1.924   7.545   7.223
   39POPC   D2A  835   1.759   7.435   6.785
   39POPC   C3A  836   1.923   7.671   6.417
   39POPC   C4A  837   2.032   7.600   5.966
   39POPC   C1B  838   2.272   7.132   7.330
   39POPC   C2B  839   2.133   7.093   6.907
   39POPC   C3B  840   2.208   7.257   6.508
   39POPC   C4B  841   2.277   7.146   6.069
   40POPC   NC3  842   6.531   0.117   8.018
   40POPC   PO4  843   6.964   0.657   7.988
   40POPC   GL1  844   6.902   0.322   7.715
   40POPC   GL2  845   6.590   0.482   7.667
   40POPC   C1A  846   6.845   0.282   7.273
   40POPC   D2A  847   6.835   0.517   6.876
   40POPC   C3A  848   6.868   0.400   6.418
   40POPC   C4A  849   6.712   0.661   6.089
   40POPC   C1B  850   6.352   0.346   7.360
   40POPC   C2B  851   6.299   0.480   6.967
   40POPC   C3B  852   6.401   0.572   6.553
   40POPC   C4B  853   6.379   0.293   6.232
   41POPC   NC3  854   8.928   7.361   8.145
   41POPC   PO4  855   8.463   6.863   8.183
   41POPC   GL1  856   8.610   7.155   7.802
   41POPC   GL2  857   9.007   7.191   7.670
   41POPC   C1A  858   8.687   7.482   7.453
   41POPC   D2A  859   8.642   7.342   7.040
   41POPC   C3A  860   8.837   7.441   6.669
   41POPC   C4A  861   8.766   7.445   6.236
   41POPC   C1B  862   9.185   7.397   7.274
   41POPC   C2B  863   9.315   7.582   6.848
   41POPC   C3B  864   9.205   7.686   6.390
   41POPC   C4B  865   9.270   7.740   5.920
   42POPC   NC3  866   2.438   3.719   8.185
   42POPC   PO4  867   1.826   3.992   8.378
   42POPC   GL1  868   1.815   3.865   7.917
   42POPC   GL2  869   1.873   3.491   7.820
   42POPC   C1A  870   1.781   3.874   7.458
   42POPC   D2A  871   2.034   3.627   7.168
   42POPC   C3A  872   1.937   3.659   6.715
   42POPC   C4A  873   1.657   3.830   6.400
   42POPC   C1B  874   1.681   3.343   7.408
   42POPC   C2B  875   1.557   3.166   6.999
   42POPC   C3B  876   1.711   3.155   6.562
   42POPC   C4B  877   1.990   3.348   6.270
   43POPC   NC3  878   1.036   3.068   8.084
   43POPC   PO4  879   0.753   2.498   7.955
   43POPC   GL1  880   0.969   2.747   7.671
   43POPC   GL2  881   1.331   2.767   7.765
   43POPC   C1A  882   0.869   2.751   7.249
   43POPC   D2A  883   0.791   2.563   6.876
   43POPC   C3A  884   0.909   2.779   6.538
   43POPC   C4A  885   1.081   2.714   6.109
   43POPC   C1B  886   1.509   2.750   7.343
   43POPC   C2B  887   1.298   2.713   6.946
   43POPC   C3B  888   1.425   2.701   6.539
   43POPC   C4B  889   1.561   2.868   6.171
   44POPC   NC3  890   9.419   1.835   7.968
   44POPC   PO4  891   9.980   2.231   8.058
   44POPC   GL1  892   9.752   2.157   7.686
   44POPC   GL2  893   9.858   1.804   7.710
   44POPC   C1A  894   9.511   2.260   7.286
   44POPC   D2A  895   9.469   2.497   6.871
   44POPC   C3A  896   9.782   2.428   6.496
   44POPC   C4A  897   9.776   2.272   6.005
   44POPC   C1B  898   9.844   1.727   7.260
   44POPC   C2B  899   9.920   1.480   6.862
   44POPC   C3B  900   9.927   1.579   6.433
   44POPC   C4B  901   9.699   1.947   6.372
   45POPC   NC3  902   0.335   2.538   8.172
   45POPC   PO4  903   0.517   3.164   8.105
   45POPC   GL1  904   0.370   2.908   7.724
   45POPC   GL2  905   0.135   2.596   7.695
   45POPC   C1A  906   0.261   2.991   7.270
   45POPC   D2A  907   0.539   3.008   6.905
   45POPC   C3A  908   0.513   3.080   6.462
   45POPC   C4A  909   0.588   2.815   6.124
   45POPC   C1B  910   0.393   2.505   7.304
   45POPC   C2B  911   0.286   2.533   6.855
   45POPC   C3B  912   0.409   2.442   6.435
   45POPC   C4B  913   0.218   2.506   6.005
   46POPC   NC3  914   8.200   7.166   8.384
   46POPC   PO4  915   7.930   6.590   8.067
   46POPC   GL1  916   8.174   6.838   7.753
   46POPC   GL2  917   8.424   6.615   7.678
   46POPC   C1A  918   8.406   7.013   7.355
   46POPC   D2A  919   8.541   6.864   6.917
   46POPC   C3A  920   8.454   7.092   6.522
   46POPC   C4A  921   8.248   6.950   6.128
   46POPC   C1B  922   8.127   6.582   7.319
   46POPC   C2B  923   8.249   6.430   6.907
   46POPC   C3B  924   8.371   6.544   6.509
   46POPC   C4B  925   7.988   6.552   6.305
   47POPC   NC3  926   5.010   1.456   8.392
   47POPC   PO4  927   4.503   1.834   8.155
   47POPC   GL1  928   4.770   1.819   7.821
   47POPC   GL2  929   5.070   1.828   8.018
   47POPC   C1A  930   4.800   1.824   7.363
   47POPC   D2A  931   4.995   1.942   6.946
   47POPC   C3A  932   4.720   2.074   6.579
   47POPC   C4A  933   4.856   2.414   6.300
   47POPC   C1B  934   5.246   1.973   7.605
   47POPC   C2B  935   5.455   2.097   7.205
   47POPC   C3B  936   5.443   2.167   6.740
   47POPC   C4B  937   5.204   1.978   6.410
   48POPC   NC3  938   2.650   4.572   7.982
   48POPC   PO4  939   2.749   5.225   8.076
   48POPC   GL1  940   2.558   5.148   7.673
   48POPC   GL2  941   2.443   4.786   7.551
   48POPC   C1A  942   2.600   5.196   7.226
   48POPC   D2A  943   2.417   5.015   6.864
   48POPC   C3A  944   2.649   5.035   6.473
   48POPC   C4A  945   2.756   5.067   6.052
   48POPC   C1B  946   2.412   4.577   7.120
   48POPC   C2B  947   2.650   4.565   6.690
   48POPC   C3B  948   2.733   4.582   6.208
   48POPC   C4B  949   2.836   4.677   5.738
   49POPC   NC3  950   4.322   2.267   8.190
   49POPC   PO4  951   3.777   1.784   8.209
   49POPC   GL1  952   4.064   1.940   7.888
   49POPC   GL2  953   4.255   1.698   7.724
   49POPC   C1A  954   4.040   2.122   7.455
   49POPC   D2A  955   3.886   2.113   6.992
   49POPC   C3A  956   4.174   2.064   6.574
   49POPC   C4A  957   4.384   2.256   6.195
   49POPC   C1B  958   4.285   1.701   7.293
   49POPC   C2B  959   4.485   1.784   6.938
   49POPC   C3B  960   4.446   1.595   6.566
   49POPC   C4B  961   4.340   1.745   6.176
   50POPC   NC3  962   6.390   7.302   7.983
   50POPC   PO4  963   6.827   7.095   8.423
   50POPC   GL1  964   6.816   7.149   7.793
   50POPC   GL2  965   7.046   7.393   7.654
   50POPC   C1A  966   6.640   7.266   7.335
   50POPC   D2A  967   6.416   7.343   6.904
   50POPC   C3A  968   6.609   7.352   6.490
   50POPC   C4A  969   6.698   7.145   6.100
   50POPC   C1B  970   7.043   7.529   7.234
   50POPC   C2B  971   6.981   7.295   6.874
   50POPC   C3B  972   7.074   7.532   6.516
   50POPC   C4B  973   6.848   7.626   6.087
   51POPC   NC3  974   9.729   2.619   8.061
   51POPC   PO4  975   9.185   3.064   8.220
   51POPC   GL1  976   9.371   2.943   7.758
   51POPC   GL2  977   9.608   2.663   7.597
   51POPC   C1A  978   9.317   2.871   7.272
   51POPC   D2A  979   9.449   3.105   6.934
   51POPC   C3A  980   9.516   2.903   6.550
   51POPC   C4A  981   9.308   2.965   6.187
   51POPC   C1B  982   9.855   2.660   7.224
   51POPC   C2B  983   9.944   2.914   6.856
   51POPC   C3B  984   0.059   2.854   6.425
   51POPC   C4B  985   9.782   2.762   6.082
   52POPC   NC3  986   6.690   1.863   8.317
   52POPC   PO4  987   7.092   1.385   8.151
   52POPC   GL1  988   6.803   1.581   7.891
   52POPC   GL2  989   6.771   1.963   7.808
   52POPC   C1A  990   6.765   1.577   7.458
   52POPC   D2A  991   6.595   1.361   7.143
   52POPC   C3A  992   6.642   1.503   6.709
   52POPC   C4A  993   6.854   1.779   6.364
   52POPC   C1B  994   6.478   2.036   7.435
   52POPC   C2B  995   6.316   1.937   6.987
   52POPC   C3B  996   6.380   1.903   6.518
   52POPC   C4B  997   6.665   2.241   6.242
   53POPC   NC3  998   0.235   3.471   7.902
   53POPC   PO4  999   9.893   2.997   8.273
   53POPC   GL1 1000   9.872   3.075   7.812
   53POPC   GL2 1001   9.702   3.416   7.767
   53POPC   C1A 1002   9.781   3.152   7.352
   53POPC   D2A 1003   0.018   3.398   7.031
   53POPC   C3A 1004   9.777   3.394   6.646
   53POPC   C4A 1005   9.765   3.232   6.232
   53POPC   C1B 1006   9.712   3.696   7.357
   53POPC   C2B 1007   9.810   3.847   6.907
   53POPC   C3B 1008   9.557   3.856   6.514
   53POPC   C4B 1009   9.354   3.478   6.298
   54POPC   NC3 1010   7.001   8.760   8.455
   54POPC   PO4 1011   6.429   9.025   8.332
   54POPC   GL1 1012   6.438   8.936   7.858
   54POPC   GL2 1013   6.750   8.709   7.793
   54POPC   C1A 1014   6.330   9.064   7.394
   54POPC   D2A 1015   6.529   9.129   6.953
   54POPC   C3A 1016   6.268   9.114   6.596
   54POPC   C4A 1017   6.271   8.824   6.277
   54POPC   C1B 1018   6.835   9.114   7.553
   54POPC   C2B 1019   7.089   9.248   7.166
   54POPC   C3B 1020   7.080   9.188   6.692
   54POPC   C4B 1021   6.734   9.013   6.405
   55POPC   NC3 1022   9.695   0.339   7.810
   55POPC   PO4 1023   9.278   0.687   8.187
   55POPC   GL1 1024   9.541   0.810   7.771
   55POPC   GL2 1025   9.923   0.815   7.686
   55POPC   C1A 1026   9.508   0.751   7.301
   55POPC   D2A 1027   9.599   0.519   6.906
   55POPC   C3A 1028   9.395   0.707   6.559
   55POPC   C4A 1029   9.254   0.646   6.139
   55POPC   C1B 1030   9.967   0.537   7.281
   55POPC   C2B 1031   0.012   0.206   6.939
   55POPC   C3B 1032   9.950   0.396   6.535
   55POPC   C4B 1033   9.605   0.304   6.305
   56POPC   NC3 1034   0.086   5.818   8.011
   56POPC   PO4 1035   9.562   6.179   7.806
   56POPC   GL1 1036   9.971   6.056   7.570
   56POPC   GL2 1037   0.132   5.714   7.502
   56POPC   C1A 1038   0.068   6.093   7.139
   56POPC   D2A 1039   0.001   5.888   6.738
   56POPC   C3A 1040   9.674   6.079   6.491
   56POPC   C4A 1041   9.703   5.981   6.091
   56POPC   C1B 1042   9.757   5.690   7.230
   56POPC   C2B 1043   9.561   5.598   6.828
   56POPC   C3B 1044   9.635   5.571   6.385
   56POPC   C4B 1045   9.358   5.627   5.977
   57POPC   NC3 1046   8.155   9.582   8.094
   57POPC   PO4 1047   8.646   0.018   7.969
   57POPC   GL1 1048   8.289   9.857   7.657
   57POPC   GL2 1049   8.295   9.452   7.618
   57POPC   C1A 1050   7.924   0.001   7.351
   57POPC   D2A 1051   7.719   9.931   6.924
   57POPC   C3A 1052   7.821   9.936   6.452
   57POPC   C4A 1053   8.152   9.849   6.137
   57POPC   C1B 1054   8.022   9.502   7.233
   57POPC   C2B 1055   8.062   9.575   6.768
   57POPC   C3B 1056   7.949   9.428   6.356
   57POPC   C4B 1057   8.092   9.383   5.902
   58POPC   NC3 1058   3.881   7.447   7.997
   58POPC   PO4 1059   3.504   6.953   7.982
   58POPC   GL1 1060   3.609   7.257   7.589
   58POPC   GL2 1061   3.542   7.607   7.552
   58POPC   C1A 1062   3.793   7.455   7.154
   58POPC   D2A 1063   3.612   7.587   6.742
   58POPC   C3A 1064   3.321   7.279   6.590
   58POPC   C4A 1065   3.269   7.019   6.228
   58POPC   C1B 1066   3.272   7.644   7.182
   58POPC   C2B 1067   3.134   7.765   6.758
   58POPC   C3B 1068   3.276   7.751   6.353
   58POPC   C4B 1069   3.665   7.637   6.164
   59POPC   NC3 1070   8.829   2.230   7.863
   59POPC   PO4 1071   9.013   1.611   8.065
   59POPC   GL1 1072   9.092   1.647   7.609
   59POPC   GL2 1073   8.791   1.808   7.552
   59POPC   C1A 1074   9.341   1.646   7.203
   59POPC   D2A 1075   9.521   1.946   6.868
   59POPC   C3A 1076   9.224   2.001   6.503
   59POPC   C4A 1077   9.012   1.716   6.243
   59POPC   C1B 1078   9.026   2.076   7.252
   59POPC   C2B 1079   8.966   2.269   6.849
   59POPC   C3B 1080   8.699   2.101   6.521
   59POPC   C4B 1081   8.527   1.718   6.384
   60POPC   NC3 1082   6.724   1.066   8.169
   60POPC   PO4 1083   6.099   0.772   8.228
   60POPC   GL1 1084   6.326   0.887   7.828
   60POPC   GL2 1085   6.606   1.097   7.669
   60POPC   C1A 1086   6.224   0.835   7.369
   60POPC   D2A 1087   6.313   0.986   6.938
   60POPC   C3A 1088   6.038   0.922   6.596
   60POPC   C4A 1089   6.220   0.976   6.198
   60POPC   C1B 1090   6.742   0.872   7.277
   60POPC   C2B 1091   6.823   1.023   6.843
   60POPC   C3B 1092   6.643   1.029   6.460
   60POPC   C4B 1093   6.543   1.388   6.210
   61POPC   NC3 1094   1.058   4.040   7.852
   61POPC   PO4 1095   0.930   4.671   7.929
   61POPC   GL1 1096   0.881   4.438   7.562
   61POPC   GL2 1097   1.237   4.371   7.510
   61POPC   C1A 1098   0.863   4.420   7.083
   61POPC   D2A 1099   0.846   4.659   6.704
   61POPC   C3A 1100   0.938   4.510   6.313
   61POPC   C4A 1101   1.074   4.371   5.868
   61POPC   C1B 1102   1.264   4.102   7.151
   61POPC   C2B 1103   1.171   4.199   6.697
   61POPC   C3B 1104   1.356   4.233   6.289
   61POPC   C4B 1105   1.372   3.965   5.946
   62POPC   NC3 1106   7.631   3.325   8.210
   62POPC   PO4 1107   7.170   3.784   8.021
   62POPC   GL1 1108   7.441   3.515   7.772
   62POPC   GL2 1109   7.203   3.277   7.694
   62POPC   C1A 1110   7.619   3.347   7.357
   62POPC   D2A 1111   7.600   3.078   6.995
   62POPC   C3A 1112   7.602   3.235   6.558
   62POPC   C4A 1113   7.815   3.357   6.185
   62POPC   C1B 1114   7.141   3.517   7.331
   62POPC   C2B 1115   7.292   3.474   6.926
   62POPC   C3B 1116   7.121   3.440   6.541
   62POPC   C4B 1117   7.238   3.556   6.117
   63POPC   NC3 1118   1.928   2.869   8.207
   63POPC   PO4 1119   2.492   3.257   8.250
   63POPC   GL1 1120   2.296   3.071   7.829
   63POPC   GL2 1121   2.143   2.738   7.742
   63POPC   C1A 1122   2.130   3.095   7.360
   63POPC   D2A 1123   2.068   3.186   6.915
   63POPC   C3A 1124   2.218   2.964   6.535
   63POPC   C4A 1125   2.163   2.905   6.072
   63POPC   C1B 1126   2.021   2.595   7.304
   63POPC   C2B 1127   1.861   2.708   6.864
   63POPC   C3B 1128   1.932   2.562   6.422
   63POPC   C4B 1129   1.867   2.501   5.969
   64POPC   NC3 1130   8.080   7.839   7.917
   64POPC   PO4 1131   8.272   8.418   8.274
   64POPC   GL1 1132   8.402   8.471   7.808
   64POPC   GL2 1133   8.331   8.144   7.612
   64POPC   C1A 1134   8.400   8.518   7.315
   64POPC   D2A 1135   8.396   8.174   7.033
   64POPC   C3A 1136   8.396   8.301   6.634
   64POPC   C4A 1137   8.398   8.137   6.246
   64POPC   C1B 1138   7.970   8.097   7.292
   64POPC   C2B 1139   7.916   7.845   6.884
   64POPC   C3B 1140   7.932   7.974   6.468
   64POPC   C4B 1141   8.020   7.876   6.045
   65POPC   NC3 1142   4.247   9.783   8.176
   65POPC   PO4 1143   4.762   9.301   8.208
   65POPC   GL1 1144   4.459   9.457   7.833
   65POPC   GL2 1145   4.401   9.841   7.704
   65POPC   C1A 1146   4.415   9.369   7.400
   65POPC   D2A 1147   4.452   9.623   7.017
   65POPC   C3A 1148   4.365   9.458   6.564
   65POPC   C4A 1149   4.639   9.327   6.233
   65POPC   C1B 1150   4.038   9.695   7.487
   65POPC   C2B 1151   3.956   9.832   7.069
   65POPC   C3B 1152   4.178   9.928   6.649
   65POPC   C4B 1153   4.056   9.870   6.189
   66POPC   NC3 1154   2.081   1.256   8.102
   66POPC   PO4 1155   1.558   0.849   8.159
   66POPC   GL1 1156   1.760   0.999   7.784
   66POPC   GL2 1157   2.128   0.996   7.652
   66POPC   C1A 1158   1.664   1.210   7.404
   66POPC   D2A 1159   1.745   1.062   7.002
   66POPC   C3A 1160   1.718   1.214   6.566
   66POPC   C4A 1161   1.982   1.078   6.213
   66POPC   C1B 1162   2.162   1.272   7.276
   66POPC   C2B 1163   2.129   1.363   6.828
   66POPC   C3B 1164   2.037   1.598   6.436
   66POPC   C4B 1165   1.993   1.574   5.972
   67POPC   NC3 1166   7.377   4.200   8.032
   67POPC   PO4 1167   7.609   4.774   7.985
   67POPC   GL1 1168   7.733   4.419   7.676
   67POPC   GL2 1169   7.795   4.022   7.747
   67POPC   C1A 1170   7.755   4.278   7.235
   67POPC   D2A 1171   7.752   4.123   6.810
   67POPC   C3A 1172   7.485   4.328   6.532
   67POPC   C4A 1173   7.447   4.514   6.150
   67POPC   C1B 1174   7.538   3.855   7.405
   67POPC   C2B 1175   7.277   3.978   7.067
   67POPC   C3B 1176   7.218   3.916   6.642
   67POPC   C4B 1177   7.583   3.756   6.459
   68POPC   NC3 1178   2.095   5.387   8.150
   68POPC   PO4 1179   2.269   4.768   8.189
   68POPC   GL1 1180   2.086   5.031   7.808
   68POPC   GL2 1181   1.758   5.091   7.726
   68POPC   C1A 1182   2.111   5.137   7.346
   68POPC   D2A 1183   1.992   5.333   6.943
   68POPC   C3A 1184   2.164   5.252   6.511
   68POPC   C4A 1185   2.285   5.193   6.110
   68POPC   C1B 1186   1.620   4.959   7.300
   68POPC   C2B 1187   1.573   5.065   6.841
   68POPC   C3B 1188   1.755   4.949   6.430
   68POPC   C4B 1189   1.871   4.699   6.051
   69POPC   NC3 1190   7.942   2.766   8.040
   69POPC   PO4 1191   8.485   2.460   8.036
   69POPC   GL1 1192   8.373   2.700   7.701
   69POPC   GL2 1193   8.192   2.996   7.671
   69POPC   C1A 1194   8.291   2.654   7.264
   69POPC   D2A 1195   8.435   2.397   6.918
   69POPC   C3A 1196   8.164   2.425   6.563
   69POPC   C4A 1197   7.940   2.428   6.185
   69POPC   C1B 1198   8.119   3.178   7.291
   69POPC   C2B 1199   8.080   3.065   6.867
   69POPC   C3B 1200   8.046   2.983   6.461
   69POPC   C4B 1201   8.242   2.837   6.123
   70POPC   NC3 1202   1.130   7.330   8.167
   70POPC   PO4 1203   1.680   6.793   8.161
   70POPC   GL1 1204   1.561   7.091   7.733
   70POPC   GL2 1205   1.274   7.357   7.689
   70POPC   C1A 1206   1.493   7.284   7.252
   70POPC   D2A 1207   1.230   7.169   6.879
   70POPC   C3A 1208   1.385   7.263   6.444
   70POPC   C4A 1209   1.769   7.236   6.216
   70POPC   C1B 1210   0.995   7.472   7.310
   70POPC   C2B 1211   0.908   7.539   6.864
   70POPC   C3B 1212   0.859   7.235   6.493
   70POPC   C4B 1213   0.985   7.227   6.028
   71POPC   NC3 1214   0.666   9.657   8.227
   71POPC   PO4 1215   1.256   9.266   8.134
   71POPC   GL1 1216   1.336   9.414   7.710
   71POPC   GL2 1217   1.017   9.593   7.729
   71POPC   C1A 1218   1.236   9.349   7.249
   71POPC   D2A 1219   0.950   9.124   6.933
   71POPC   C3A 1220   0.937   9.259   6.482
   71POPC   C4A 1221   0.918   9.292   6.024
   71POPC   C1B 1222   1.284   9.838   7.443
   71POPC   C2B 1223   1.315   9.922   7.003
   71POPC   C3B 1224   0.990   9.984   6.698
   71POPC   C4B 1225   0.878   9.850   6.304
   72POPC   NC3 1226   6.698   6.794   8.119
   72POPC   PO4 1227   6.186   6.955   7.740
   72POPC   GL1 1228   6.546   6.800   7.483
   72POPC   GL2 1229   6.818   6.629   7.648
   72POPC   C1A 1230   6.616   6.856   7.006
   72POPC   D2A 1231   6.766   6.870   6.580
   72POPC   C3A 1232   6.469   6.722   6.267
   72POPC   C4A 1233   6.365   6.866   5.840
   72POPC   C1B 1234   6.843   6.442   7.223
   72POPC   C2B 1235   6.737   6.380   6.764
   72POPC   C3B 1236   6.697   6.256   6.307
   72POPC   C4B 1237   6.672   6.423   5.888
   73POPC   NC3 1238   7.558   6.335   7.950
   73POPC   PO4 1239   7.145   6.834   7.998
   73POPC   GL1 1240   7.258   6.901   7.633
   73POPC   GL2 1241   7.604   6.793   7.675
   73POPC   C1A 1242   7.062   6.915   7.231
   73POPC   D2A 1243   7.184   6.643   6.880
   73POPC   C3A 1244   7.115   6.523   6.437
   73POPC   C4A 1245   7.015   6.744   6.091
   73POPC   C1B 1246   7.587   6.732   7.259
   73POPC   C2B 1247   7.835   6.747   6.909
   73POPC   C3B 1248   7.587   6.649   6.556
   73POPC   C4B 1249   7.533   6.220   6.340
   74POPC   NC3 1250   6.204   2.669   8.048
   74POPC   PO4 1251   6.711   2.309   8.193
   74POPC   GL1 1252   6.817   2.522   7.811
   74POPC   GL2 1253   6.922   2.865   7.798
   74POPC   C1A 1254   6.745   2.525   7.386
   74POPC   D2A 1255   6.371   2.463   7.119
   74POPC   C3A 1256   6.360   2.375   6.655
   74POPC   C4A 1257   6.173   2.272   6.206
   74POPC   C1B 1258   6.964   3.001   7.305
   74POPC   C2B 1259   6.810   2.723   6.917
   74POPC   C3B 1260   6.773   2.832   6.449
   74POPC   C4B 1261   6.676   2.885   5.996
   75POPC   NC3 1262   3.561   0.550   8.154
   75POPC   PO4 1263   3.914   1.092   8.139
   75POPC   GL1 1264   4.002   0.764   7.785
   75POPC   GL2 1265   3.718   0.542   7.680
   75POPC   C1A 1266   3.971   0.767   7.318
   75POPC   D2A 1267   3.564   0.784   7.069
   75POPC   C3A 1268   3.583   0.578   6.670
   75POPC   C4A 1269   3.714   0.679   6.240
   75POPC   C1B 1270   3.348   0.449   7.442
   75POPC   C2B 1271   3.190   0.412   7.033
   75POPC   C3B 1272   3.205   0.225   6.638
   75POPC   C4B 1273   3.224   0.514   6.281
   76POPC   NC3 1274   2.534   2.073   8.220
   76POPC   PO4 1275   3.085   2.502   8.285
   76POPC   GL1 1276   3.065   2.336   7.814
   76POPC   GL2 1277   2.859   2.030   7.796
   76POPC   C1A 1278   3.010   2.216   7.325
   76POPC   D2A 1279   2.711   2.089   6.954
   76POPC   C3A 1280   2.807   2.105   6.495
   76POPC   C4A 1281   2.836   2.129   6.029
   76POPC   C1B 1282   2.685   1.827   7.419
   76POPC   C2B 1283   2.474   1.647   7.065
   76POPC   C3B 1284   2.534   1.625   6.601
   76POPC   C4B 1285   2.833   1.662   6.238
   77POPC   NC3 1286   1.417   4.691   7.917
   77POPC   PO4 1287   1.415   5.239   8.066
   77POPC   GL1 1288   1.225   5.100   7.695
   77POPC   GL2 1289   1.115   5.427   7.667
   77POPC   C1A 1290   1.113   4.820   7.315
   77POPC   D2A 1291   1.342   4.598   6.997
   77POPC   C3A 1292   1.343   4.686   6.568
   77POPC   C4A 1293   1.352   4.774   6.124
   77POPC   C1B 1294   1.232   5.292   7.228
   77POPC   C2B 1295   1.068   5.081   6.875
   77POPC   C3B 1296   1.086   5.133   6.447
   77POPC   C4B 1297   1.332   5.308   6.124
   78POPC   NC3 1298   8.043   0.865   8.146
   78POPC   PO4 1299   8.029   1.527   8.226
   78POPC   GL1 1300   8.125   1.240   7.828
   78POPC   GL2 1301   8.433   1.140   7.789
   78POPC   C1A 1302   8.078   1.071   7.368
   78POPC   D2A 1303   8.309   1.023   6.958
   78POPC   C3A 1304   8.164   0.856   6.541
   78POPC   C4A 1305   7.949   0.947   6.102
   78POPC   C1B 1306   8.376   1.488   7.462
   78POPC   C2B 1307   8.081   1.530   7.106
   78POPC   C3B 1308   7.942   1.348   6.700
   78POPC   C4B 1309   8.187   1.327   6.323
   79POPC   NC3 1310   1.938   0.596   8.113
   79POPC   PO4 1311   1.922   9.949   8.106
   79POPC   GL1 1312   1.697   0.130   7.740
   79POPC   GL2 1313   1.592   0.501   7.749
   79POPC   C1A 1314   1.905   0.173   7.335
   79POPC   D2A 1315   2.210   0.273   6.989
   79POPC   C3A 1316   2.033   0.222   6.587
   79POPC   C4A 1317   2.042   0.192   6.162
   79POPC   C1B 1318   1.846   0.687   7.376
   79POPC   C2B 1319   2.169   0.806   7.037
   79POPC   C3B 1320   1.995   0.772   6.626
   79POPC   C4B 1321   1.727   0.568   6.286
   80POPC   NC3 1322   5.150   9.624   8.335
   80POPC   PO4 1323   4.633   0.097   8.213
   80POPC   GL1 1324   4.832   9.775   7.960
   80POPC   GL2 1325   5.136   9.878   7.879
   80POPC   C1A 1326   4.838   9.665   7.483
   80POPC   D2A 1327   5.002   9.718   7.026
   80POPC   C3A 1328   4.749   9.804   6.650
   80POPC   C4A 1329   4.583   9.849   6.240
   80POPC   C1B 1330   5.304   9.521   7.638
   80POPC   C2B 1331   5.354   9.399   7.196
   80POPC   C3B 1332   5.307   9.433   6.724
   80POPC   C4B 1333   5.073   9.558   6.330
   81POPC   NC3 1334   1.023   8.849   8.120
   81POPC   PO4 1335   1.533   8.411   8.071
   81POPC   GL1 1336   1.502   8.863   7.840
   81POPC   GL2 1337   1.175   8.948   7.653
   81POPC   C1A 1338   1.607   9.050   7.421
   81POPC   D2A 1339   1.369   8.830   7.078
   81POPC   C3A 1340   1.289   8.846   6.614
   81POPC   C4A 1341   1.362   9.063   6.187
   81POPC   C1B 1342   1.049   8.602   7.410
   81POPC   C2B 1343   0.884   8.560   7.001
   81POPC   C3B 1344   0.733   8.750   6.634
   81POPC   C4B 1345   0.940   8.764   6.249
   82POPC   NC3 1346   9.524   8.923   8.222
   82POPC   PO4 1347   9.952   8.455   8.152
   82POPC   GL1 1348   9.818   8.706   7.816
   82POPC   GL2 1349   9.508   8.538   7.838
   82POPC   C1A 1350   9.987   8.882   7.394
   82POPC   D2A 1351   9.968   9.198   7.026
   82POPC   C3A 1352   9.842   9.012   6.607
   82POPC   C4A 1353   9.842   8.755   6.158
   82POPC   C1B 1354   9.508   8.669   7.398
   82POPC   C2B 1355   9.661   8.686   6.971
   82POPC   C3B 1356   9.487   8.669   6.507
   82POPC   C4B 1357   9.462   9.091   6.216
   83POPC   NC3 1358   2.513   5.610   7.954
   83POPC   PO4 1359   1.944   5.728   8.401
   83POPC   GL1 1360   1.815   5.701   7.869
   83POPC   GL2 1361   2.081   5.547   7.659
   83POPC   C1A 1362   1.894   5.984   7.452
   83POPC   D2A 1363   2.202   6.069   7.074
   83POPC   C3A 1364   2.012   5.857   6.728
   83POPC   C4A 1365   1.676   5.980   6.479
   83POPC   C1B 1366   1.699   5.498   7.369
   83POPC   C2B 1367   1.564   5.595   6.911
   83POPC   C3B 1368   1.724   5.483   6.465
   83POPC   C4B 1369   2.116   5.697   6.238
   84POPC   NC3 1370   7.510   5.218   8.042
   84POPC   PO4 1371   7.550   5.878   8.001
   84POPC   GL1 1372   7.797   5.530   7.695
   84POPC   GL2 1373   7.796   5.124   7.644
   84POPC   C1A 1374   7.775   5.424   7.231
   84POPC   D2A 1375   7.662   5.373   6.789
   84POPC   C3A 1376   7.684   5.717   6.472
   84POPC   C4A 1377   7.548   5.771   6.034
   84POPC   C1B 1378   7.647   4.864   7.314
   84POPC   C2B 1379   7.596   4.659   6.924
   84POPC   C3B 1380   7.532   4.900   6.559
   84POPC   C4B 1381   7.798   5.203   6.335
   85POPC   NC3 1382   1.259   6.647   8.291
   85POPC   PO4 1383   0.746   7.081   8.322
   85POPC   GL1 1384   0.915   7.007   7.823
   85POPC   GL2 1385   1.196   6.762   7.801
   85POPC   C1A 1386   1.118   6.962   7.358
   85POPC   D2A 1387   1.201   6.659   6.995
   85POPC   C3A 1388   1.278   6.769   6.542
   85POPC   C4A 1389   1.141   6.556   6.169
   85POPC   C1B 1390   1.513   6.587   7.541
   85POPC   C2B 1391   1.625   6.407   7.159
   85POPC   C3B 1392   1.619   6.431   6.723
   85POPC   C4B 1393   1.617   6.467   6.289
   86POPC   NC3 1394   0.297   8.733   8.023
   86POPC   PO4 1395   0.306   9.351   8.116
   86POPC   GL1 1396   0.689   9.162   7.870
   86POPC   GL2 1397   0.682   8.808   7.702
   86POPC   C1A 1398   0.770   9.232   7.424
   86POPC   D2A 1399   0.479   9.279   7.062
   86POPC   C3A 1400   0.412   9.161   6.644
   86POPC   C4A 1401   0.533   9.049   6.233
   86POPC   C1B 1402   0.507   8.809   7.275
   86POPC   C2B 1403   0.213   8.765   6.921
   86POPC   C3B 1404   0.243   8.704   6.471
   86POPC   C4B 1405   0.434   8.563   6.109
   87POPC   NC3 1406   0.446   7.425   8.242
   87POPC   PO4 1407   9.917   7.022   8.211
   87POPC   GL1 1408   0.075   7.200   7.822
   87POPC   GL2 1409   9.961   7.535   7.747
   87POPC   C1A 1410   0.135   6.979   7.393
   87POPC   D2A 1411   0.120   6.841   6.949
   87POPC   C3A 1412   0.345   7.003   6.580
   87POPC   C4A 1413   0.395   7.268   6.229
   87POPC   C1B 1414   0.332   7.438   7.429
   87POPC   C2B 1415   0.419   7.356   6.965
   87POPC   C3B 1416   0.509   7.616   6.577
   87POPC   C4B 1417   0.867   7.742   6.325
   88POPC   NC3 1418   8.228   0.280   7.978
   88POPC   PO4 1419   7.645   0.625   8.118
   88POPC   GL1 1420   7.832   0.739   7.713
   88POPC   GL2 1421   8.183   0.681   7.660
   88POPC   C1A 1422   7.834   0.528   7.332
   88POPC   D2A 1423   8.085   0.511   6.950
   88POPC   C3A 1424   7.884   0.423   6.582
   88POPC   C4A 1425   7.694   0.519   6.188
   88POPC   C1B 1426   8.345   0.341   7.357
   88POPC   C2B 1427   8.285   0.016   7.000
   88POPC   C3B 1428   8.318   0.081   6.553
   88POPC   C4B 1429   8.205   0.381   6.197
   89POPC   NC3 1430   5.043   1.036   8.047
   89POPC   PO4 1431   5.459   1.549   8.213
   89POPC   GL1 1432   5.413   1.520   7.744
   89POPC   GL2 1433   5.076   1.412   7.710
   89POPC   C1A 1434   5.253   1.574   7.272
   89POPC   D2A 1435   4.887   1.447   7.018
   89POPC   C3A 1436   4.954   1.556   6.598
   89POPC   C4A 1437   5.342   1.456   6.398
   89POPC   C1B 1438   5.093   1.067   7.407
   89POPC   C2B 1439   4.852   0.936   7.076
   89POPC   C3B 1440   5.026   1.055   6.689
   89POPC   C4B 1441   5.067   1.016   6.269
   90POPC   NC3 1442   5.349   7.955   8.143
   90POPC   PO4 1443   4.908   8.453   8.262
   90POPC   GL1 1444   4.799   8.251   7.859
   90POPC   GL2 1445   5.146   8.261   7.778
   90POPC   C1A 1446   4.846   8.324   7.385
   90POPC   D2A 1447   5.118   8.329   7.014
   90POPC   C3A 1448   4.928   8.511   6.673
   90POPC   C4A 1449   4.701   8.373   6.326
   90POPC   C1B 1450   5.224   7.968   7.429
   90POPC   C2B 1451   5.077   7.817   7.022
   90POPC   C3B 1452   4.936   7.947   6.634
   90POPC   C4B 1453   5.202   8.163   6.404
   91POPC   NC3 1454   9.647   7.459   8.230
   91POPC   PO4 1455   9.227   7.019   8.093
   91POPC   GL1 1456   9.508   7.229   7.806
   91POPC   GL2 1457   9.400   7.555   7.746
   91POPC   C1A 1458   9.681   7.220   7.402
   91POPC   D2A 1459   9.598   6.967   7.033
   91POPC   C3A 1460   9.587   7.164   6.635
   91POPC   C4A 1461   9.886   7.113   6.280
   91POPC   C1B 1462   9.644   7.739   7.375
   91POPC   C2B 1463   9.950   7.574   7.075
   91POPC   C3B 1464   0.014   7.454   6.635
   91POPC   C4B 1465   9.700   7.591   6.301
   92POPC   NC3 1466   7.903   1.823   7.898
   92POPC   PO4 1467   7.635   2.418   7.999
   92POPC   GL1 1468   7.970   2.379   7.660
   92POPC   GL2 1469   8.315   2.178   7.633
   92POPC   C1A 1470   7.999   2.228   7.229
   92POPC   D2A 1471   7.772   1.964   6.953
   92POPC   C3A 1472   7.679   2.189   6.588
   92POPC   C4A 1473   7.524   2.083   6.205
   92POPC   C1B 1474   8.441   1.969   7.220
   92POPC   C2B 1475   8.258   1.914   6.796
   92POPC   C3B 1476   8.085   1.946   6.377
   92POPC   C4B 1477   8.392   2.113   6.060
   93POPC   NC3 1478   1.214   8.045   8.117
   93POPC   PO4 1479   0.681   8.496   8.112
   93POPC   GL1 1480   0.886   8.222   7.731
   93POPC   GL2 1481   1.007   7.841   7.698
   93POPC   C1A 1482   0.993   8.106   7.266
   93POPC   D2A 1483   0.863   8.046   6.835
   93POPC   C3A 1484   1.027   8.330   6.542
   93POPC   C4A 1485   1.323   8.268   6.246
   93POPC   C1B 1486   1.382   7.791   7.409
   93POPC   C2B 1487   1.389   7.778   6.945
   93POPC   C3B 1488   1.379   7.785   6.472
   93POPC   C4B 1489   1.625   7.895   6.088
   94POPC   NC3 1490   0.820   2.094   8.154
   94POPC   PO4 1491   1.417   1.794   8.208
   94POPC   GL1 1492   1.162   1.869   7.824
   94POPC   GL2 1493   1.182   2.243   7.791
   94POPC   C1A 1494   1.126   1.822   7.339
   94POPC   D2A 1495   0.965   1.710   6.886
   94POPC   C3A 1496   1.205   1.823   6.490
   94POPC   C4A 1497   1.072   1.973   6.062
   94POPC   C1B 1498   1.158   2.345   7.347
   94POPC   C2B 1499   1.131   2.195   6.908
   94POPC   C3B 1500   1.085   2.313   6.465
   94POPC   C4B 1501   1.427   2.336   6.148
   95POPC   NC3 1502   8.312   3.850   8.085
   95POPC   PO4 1503   8.068   3.214   8.113
   95POPC   GL1 1504   7.991   3.487   7.779
   95POPC   GL2 1505   8.352   3.490   7.728
   95POPC   C1A 1506   8.025   3.681   7.364
   95POPC   D2A 1507   7.788   3.634   6.976
   95POPC   C3A 1508   8.015   3.528   6.633
   95POPC   C4A 1509   8.102   3.759   6.302
   95POPC   C1B 1510   8.544   3.526   7.352
   95POPC   C2B 1511   8.384   3.493   6.973
   95POPC   C3B 1512   8.483   3.320   6.593
   95POPC   C4B 1513   8.342   3.334   6.177
   96POPC   NC3 1514   8.210   8.886   8.152
   96POPC   PO4 1515   7.904   8.269   7.908
   96POPC   GL1 1516   7.959   8.587   7.577
   96POPC   GL2 1517   8.011   8.929   7.686
   96POPC   C1A 1518   7.800   8.606   7.168
   96POPC   D2A 1519   7.921   8.350   6.831
   96POPC   C3A 1520   7.947   8.521   6.424
   96POPC   C4A 1521   7.650   8.681   6.107
   96POPC   C1B 1522   8.163   8.980   7.281
   96POPC   C2B 1523   8.224   8.770   6.887
   96POPC   C3B 1524   8.237   9.026   6.542
   96POPC   C4B 1525   8.045   8.968   6.178
   97POPC   NC3 1526   3.323   8.143   8.175
   97POPC   PO4 1527   3.439   7.543   8.039
   97POPC   GL1 1528   3.727   7.938   7.894
   97POPC   GL2 1529   3.615   8.305   7.799
   97POPC   C1A 1530   3.885   7.967   7.467
   97POPC   D2A 1531   3.680   7.968   7.078
   97POPC   C3A 1532   3.873   8.028   6.668
   97POPC   C4A 1533   3.629   8.126   6.341
   97POPC   C1B 1534   3.381   8.089   7.494
   97POPC   C2B 1535   3.200   8.150   7.090
   97POPC   C3B 1536   3.247   8.269   6.647
   97POPC   C4B 1537   3.230   8.415   6.207
   98POPC   NC3 1538   2.280   9.657   8.086
   98POPC   PO4 1539   2.921   9.968   8.126
   98POPC   GL1 1540   2.937   9.587   7.819
   98POPC   GL2 1541   2.588   9.500   7.687
   98POPC   C1A 1542   3.072   9.608   7.380
   98POPC   D2A 1543   2.812   9.635   6.987
   98POPC   C3A 1544   2.811   9.839   6.572
   98POPC   C4A 1545   2.482   9.972   6.285
   98POPC   C1B 1546   2.733   9.217   7.345
   98POPC   C2B 1547   2.918   9.123   6.939
   98POPC   C3B 1548   2.923   9.341   6.558
   98POPC   C4B 1549   2.592   9.474   6.267
   99POPC   NC3 1550   3.259   9.642   8.218
   99POPC   PO4 1551   3.939   9.383   8.128
   99POPC   GL1 1552   3.763   9.752   7.917
   99POPC   GL2 1553   3.484   9.569   7.775
   99POPC   C1A 1554   3.598   9.985   7.515
   99POPC   D2A 1555   3.420   9.946   7.080
   99POPC   C3A 1556   3.680   0.059   6.700
   99POPC   C4A 1557   3.609   0.193   6.286
   99POPC   C1B 1558   3.584   9.475   7.344
   99POPC   C2B 1559   3.326   9.449   6.959
   99POPC   C3B 1560   3.303   9.697   6.606
   99POPC   C4B 1561   3.556   9.706   6.252
  100POPC   NC3 1562   8.888   4.424   8.100
  100POPC   PO4 1563   9.489   4.550   8.355
  100POPC   GL1 1564   9.338   4.226   7.913
  100POPC   GL2 1565   9.008   4.239   7.662
  100POPC   C1A 1566   9.414   4.191   7.399
  100POPC   D2A 1567   9.389   4.138   6.928
  100POPC   C3A 1568   9.098   4.285   6.581
  100POPC   C4A 1569   9.104   4.389   6.119
  100POPC   C1B 1570   8.713   4.038   7.376
  100POPC   C2B 1571   8.745   3.849   7.000
  100POPC   C3B 1572   8.557   3.839   6.608
  100POPC   C4B 1573   8.720   4.075   6.266
  101POPC   NC3 1574   7.547   1.523   8.217
  101POPC   PO4 1575   7.153   2.016   8.372
  101POPC   GL1 1576   7.268   1.878   7.912
  101POPC   GL2 1577   7.241   2.209   7.727
  101POPC   C1A 1578   7.227   1.801   7.410
  101POPC   D2A 1579   7.057   1.698   6.956
  101POPC   C3A 1580   7.337   1.752   6.563
  101POPC   C4A 1581   7.290   1.623   6.102
  101POPC   C1B 1582   7.487   2.251   7.331
  101POPC   C2B 1583   7.293   2.154   6.926
  101POPC   C3B 1584   7.129   2.232   6.510
  101POPC   C4B 1585   7.202   2.530   6.189
  102POPC   NC3 1586   1.173   0.592   8.138
  102POPC   PO4 1587   0.971   0.000   8.085
  102POPC   GL1 1588   1.141   0.239   7.746
  102POPC   GL2 1589   0.959   0.549   7.668
  102POPC   C1A 1590   1.340   0.336   7.336
  102POPC   D2A 1591   1.134   0.415   6.942
  102POPC   C3A 1592   1.330   0.329   6.538
  102POPC   C4A 1593   1.309   0.104   6.162
  102POPC   C1B 1594   0.823   0.856   7.348
  102POPC   C2B 1595   0.743   0.743   6.920
  102POPC   C3B 1596   0.974   0.765   6.586
  102POPC   C4B 1597   0.885   0.846   6.179
  103POPC   NC3 1598   1.818   2.069   8.220
  103POPC   PO4 1599   2.328   1.646   8.155
  103POPC   GL1 1600   2.326   1.940   7.767
  103POPC   GL2 1601   2.069   2.207   7.766
  103POPC   C1A 1602   2.241   2.074   7.305
  103POPC   D2A 1603   2.030   2.020   6.898
  103POPC   C3A 1604   2.294   2.081   6.554
  103POPC   C4A 1605   2.384   1.890   6.168
  103POPC   C1B 1606   1.675   2.281   7.532
  103POPC   C2B 1607   1.609   2.310   7.078
  103POPC   C3B 1608   1.595   2.214   6.632
  103POPC   C4B 1609   1.869   2.071   6.284
  104POPC   NC3 1610   7.776   8.040   8.296
  104POPC   PO4 1611   7.219   8.471   8.170
  104POPC   GL1 1612   7.325   8.162   7.828
  104POPC   GL2 1613   7.503   8.344   7.547
  104POPC   C1A 1614   7.345   7.882   7.443
  104POPC   D2A 1615   7.514   8.095   7.057
  104POPC   C3A 1616   7.412   7.944   6.602
  104POPC   C4A 1617   7.294   7.837   6.186
  104POPC   C1B 1618   7.084   8.302   7.350
  104POPC   C2B 1619   7.070   8.239   6.895
  104POPC   C3B 1620   7.443   8.437   6.629
  104POPC   C4B 1621   7.191   8.337   6.297
  105POPC   NC3 1622   3.098   7.174   8.076
  105POPC   PO4 1623   2.957   7.867   8.130
  105POPC   GL1 1624   2.789   7.558   7.828
  105POPC   GL2 1625   3.063   7.431   7.625
  105POPC   C1A 1626   2.559   7.546   7.412
  105POPC   D2A 1627   2.406   7.513   6.971
  105POPC   C3A 1628   2.660   7.646   6.625
  105POPC   C4A 1629   2.485   7.591   6.214
  105POPC   C1B 1630   2.805   7.112   7.383
  105POPC   C2B 1631   2.631   7.035   6.948
  105POPC   C3B 1632   2.708   7.161   6.544
  105POPC   C4B 1633   2.936   7.374   6.270
  106POPC   NC3 1634   3.148   5.439   8.006
  106POPC   PO4 1635   2.833   5.932   7.991
  106POPC   GL1 1636   2.628   5.952   7.623
  106POPC   GL2 1637   2.443   6.200   7.567
  106POPC   C1A 1638   2.526   5.717   7.259
  106POPC   D2A 1639   2.421   5.564   6.834
  106POPC   C3A 1640   2.602   5.537   6.413
  106POPC   C4A 1641   3.017   5.627   6.246
  106POPC   C1B 1642   2.747   6.222   7.228
  106POPC   C2B 1643   2.707   6.008   6.853
  106POPC   C3B 1644   2.462   6.014   6.510
  106POPC   C4B 1645   2.664   5.979   6.128
  107POPC   NC3 1646   0.542   4.474   8.100
  107POPC   PO4 1647   0.221   3.884   8.143
  107POPC   GL1 1648   0.512   4.062   7.807
  107POPC   GL2 1649   0.323   4.260   7.640
  107POPC   C1A 1650   0.682   4.031   7.342
  107POPC   D2A 1651   0.821   3.909   6.950
  107POPC   C3A 1652   0.659   4.119   6.610
  107POPC   C4A 1653   0.418   4.031   6.255
  107POPC   C1B 1654   0.355   4.432   7.256
  107POPC   C2B 1655   0.392   4.477   6.838
  107POPC   C3B 1656   0.353   4.544   6.424
  107POPC   C4B 1657   0.024   4.542   6.131
  108POPC   NC3 1658   7.138   7.284   8.150
  108POPC   PO4 1659   7.754   7.568   8.180
  108POPC   GL1 1660   7.645   7.626   7.765
  108POPC   GL2 1661   7.552   7.317   7.716
  108POPC   C1A 1662   7.763   7.615   7.316
  108POPC   D2A 1663   7.464   7.586   6.943
  108POPC   C3A 1664   7.587   7.457   6.499
  108POPC   C4A 1665   7.672   7.505   6.038
  108POPC   C1B 1666   7.439   7.231   7.305
  108POPC   C2B 1667   7.460   7.083   6.882
  108POPC   C3B 1668   7.251   7.028   6.508
  108POPC   C4B 1669   7.202   7.229   6.149
  109POPC   NC3 1670   6.578   9.619   8.286
  109POPC   PO4 1671   6.208   9.853   7.815
  109POPC   GL1 1672   6.563   9.913   7.557
  109POPC   GL2 1673   6.695   9.626   7.734
  109POPC   C1A 1674   6.520   9.943   7.104
  109POPC   D2A 1675   6.596   0.093   6.723
  109POPC   C3A 1676   6.440   9.840   6.433
  109POPC   C4A 1677   6.293   9.824   6.009
  109POPC   C1B 1678   6.636   9.491   7.282
  109POPC   C2B 1679   6.799   9.597   6.839
  109POPC   C3B 1680   6.810   9.503   6.377
  109POPC   C4B 1681   6.430   9.366   6.186
  110POPC   NC3 1682   3.784   2.966   7.966
  110POPC   PO4 1683   4.314   2.729   8.228
  110POPC   GL1 1684   4.205   2.562   7.798
  110POPC   GL2 1685   3.921   2.613   7.610
  110POPC   C1A 1686   4.376   2.495   7.376
  110POPC   D2A 1687   4.377   2.305   6.963
  110POPC   C3A 1688   4.472   2.587   6.588
  110POPC   C4A 1689   4.823   2.910   6.450
  110POPC   C1B 1690   3.899   2.583   7.165
  110POPC   C2B 1691   3.941   2.531   6.698
  110POPC   C3B 1692   4.025   2.657   6.259
  110POPC   C4B 1693   4.050   2.980   5.901
  111POPC   NC3 1694   1.550   9.666   8.095
  111POPC   PO4 1695   2.154   9.214   8.083
  111POPC   GL1 1696   1.890   9.446   7.761
  111POPC   GL2 1697   2.075   9.750   7.630
  111POPC   C1A 1698   1.725   9.573   7.319
  111POPC   D2A 1699   1.839   9.852   6.932
  111POPC   C3A 1700   1.613   9.877   6.505
  111POPC   C4A 1701   1.711   9.838   6.016
  111POPC   C1B 1702   2.308   9.776   7.221
  111POPC   C2B 1703   2.327   9.796   6.757
  111POPC   C3B 1704   2.073   9.705   6.376
  111POPC   C4B 1705   2.162   9.529   5.967
  112POPC   NC3 1706   9.496   8.181   8.251
  112POPC   PO4 1707   0.026   7.753   8.250
  112POPC   GL1 1708   9.929   8.034   7.881
  112POPC   GL2 1709   9.604   8.017   7.799
  112POPC   C1A 1710   9.882   8.310   7.482
  112POPC   D2A 1711   9.876   8.144   7.046
  112POPC   C3A 1712   9.903   8.388   6.650
  112POPC   C4A 1713   9.907   8.232   6.218
  112POPC   C1B 1714   9.354   8.178   7.462
  112POPC   C2B 1715   9.332   8.102   7.022
  112POPC   C3B 1716   9.521   8.042   6.610
  112POPC   C4B 1717   9.359   8.170   6.208
  113POPC   NC3 1718   0.051   9.701   7.976
  113POPC   PO4 1719   0.470   0.054   8.391
  113POPC   GL1 1720   0.489   9.936   7.854
  113POPC   GL2 1721   0.497   9.611   7.714
  113POPC   C1A 1722   0.759   9.973   7.454
  113POPC   D2A 1723   0.854   9.666   7.115
  113POPC   C3A 1724   0.630   9.622   6.707
  113POPC   C4A 1725   0.461   9.569   6.283
  113POPC   C1B 1726   0.200   9.547   7.375
  113POPC   C2B 1727   0.193   9.707   6.955
  113POPC   C3B 1728   0.031   9.512   6.598
  113POPC   C4B 1729   0.078   9.231   6.229
  114POPC   NC3 1730   3.649   8.981   8.161
  114POPC   PO4 1731   3.100   8.540   8.113
  114POPC   GL1 1732   3.331   8.724   7.755
  114POPC   GL2 1733   3.443   9.068   7.712
  114POPC   C1A 1734   3.412   8.579   7.327
  114POPC   D2A 1735   3.620   8.454   6.932
  114POPC   C3A 1736   3.619   8.660   6.501
  114POPC   C4A 1737   3.466   8.848   6.100
  114POPC   C1B 1738   3.257   9.079   7.325
  114POPC   C2B 1739   3.404   8.938   6.917
  114POPC   C3B 1740   3.408   9.161   6.514
  114POPC   C4B 1741   3.738   9.245   6.239
  115POPC   NC3 1742   3.481   2.720   8.391
  115POPC   PO4 1743   3.470   3.302   8.048
  115POPC   GL1 1744   3.209   2.947   7.801
  115POPC   GL2 1745   3.428   2.683   7.703
  115POPC   C1A 1746   3.043   2.725   7.368
  115POPC   D2A 1747   2.882   2.579   6.934
  115POPC   C3A 1748   3.038   2.587   6.488
  115POPC   C4A 1749   3.132   2.563   6.036
  115POPC   C1B 1750   3.499   2.902   7.273
  115POPC   C2B 1751   3.352   2.880   6.791
  115POPC   C3B 1752   3.502   2.775   6.338
  115POPC   C4B 1753   3.534   2.903   5.870
  116POPC   NC3 1754   3.243   3.700   8.082
  116POPC   PO4 1755   2.691   4.098   8.043
  116POPC   GL1 1756   2.814   3.669   7.811
  116POPC   GL2 1757   2.785   3.285   7.853
  116POPC   C1A 1758   2.954   3.411   7.404
  116POPC   D2A 1759   2.963   3.168   7.005
  116POPC   C3A 1760   2.941   3.444   6.593
  116POPC   C4A 1761   3.005   3.570   6.136
  116POPC   C1B 1762   2.452   3.461   7.530
  116POPC   C2B 1763   2.502   3.429   7.068
  116POPC   C3B 1764   2.412   3.435   6.605
  116POPC   C4B 1765   2.546   3.276   6.190
  117POPC   NC3 1766   5.695   1.971   8.139
  117POPC   PO4 1767   6.273   1.552   8.144
  117POPC   GL1 1768   5.927   1.615   7.833
  117POPC   GL2 1769   6.028   1.962   7.743
  117POPC   C1A 1770   5.756   1.678   7.377
  117POPC   D2A 1771   5.804   1.845   6.930
  117POPC   C3A 1772   5.744   1.765   6.482
  117POPC   C4A 1773   5.836   1.744   6.013
  117POPC   C1B 1774   5.970   2.149   7.329
  117POPC   C2B 1775   5.916   2.339   6.927
  117POPC   C3B 1776   5.834   2.443   6.516
  117POPC   C4B 1777   5.653   2.183   6.187
  118POPC   NC3 1778   2.741   2.852   8.252
  118POPC   PO4 1779   2.181   2.414   8.214
  118POPC   GL1 1780   2.533   2.435   7.844
  118POPC   GL2 1781   2.714   2.742   7.765
  118POPC   C1A 1782   2.555   2.480   7.350
  118POPC   D2A 1783   2.331   2.447   6.923
  118POPC   C3A 1784   2.517   2.540   6.515
  118POPC   C4A 1785   2.667   2.769   6.127
  118POPC   C1B 1786   2.622   2.996   7.404
  118POPC   C2B 1787   2.504   2.925   6.974
  118POPC   C3B 1788   2.735   2.990   6.582
  118POPC   C4B 1789   3.066   3.062   6.232
  119POPC   NC3 1790   2.749   1.125   8.063
  119POPC   PO4 1791   3.130   1.682   8.065
  119POPC   GL1 1792   2.895   1.472   7.717
  119POPC   GL2 1793   2.504   1.411   7.713
  119POPC   C1A 1794   2.957   1.400   7.272
  119POPC   D2A 1795   2.952   1.584   6.880
  119POPC   C3A 1796   2.930   1.274   6.535
  119POPC   C4A 1797   2.846   0.862   6.328
  119POPC   C1B 1798   2.600   1.066   7.410
  119POPC   C2B 1799   2.605   1.142   6.941
  119POPC   C3B 1800   2.425   1.108   6.508
  119POPC   C4B 1801   2.411   1.367   6.168
  120POPC   NC3 1802   1.512   5.623   8.270
  120POPC   PO4 1803   1.213   6.185   8.238
  120POPC   GL1 1804   1.251   6.248   7.815
  120POPC   GL2 1805   1.406   5.956   7.702
  120POPC   C1A 1806   1.148   6.269   7.352
  120POPC   D2A 1807   1.309   6.083   6.927
  120POPC   C3A 1808   1.201   6.193   6.516
  120POPC   C4A 1809   1.361   6.068   6.100
  120POPC   C1B 1810   1.246   5.777   7.322
  120POPC   C2B 1811   1.057   5.642   6.910
  120POPC   C3B 1812   1.230   5.657   6.509
  120POPC   C4B 1813   0.940   5.808   6.260
  121POPC   NC3 1814   4.610   7.328   8.282
  121POPC   PO4 1815   5.180   7.518   8.166
  121POPC   GL1 1816   4.840   7.726   7.874
  121POPC   GL2 1817   4.560   7.498   7.772
  121POPC   C1A 1818   4.735   7.788   7.389
  121POPC   D2A 1819   4.610   7.614   6.929
  121POPC   C3A 1820   4.647   7.547   6.450
  121POPC   C4A 1821   4.632   7.435   5.990
  121POPC   C1B 1822   4.250   7.615   7.437
  121POPC   C2B 1823   4.163   7.807   7.040
  121POPC   C3B 1824   4.119   7.542   6.679
  121POPC   C4B 1825   3.845   7.227   6.445
  122POPC   NC3 1826   1.662   6.289   8.139
  122POPC   PO4 1827   2.210   5.956   8.021
  122POPC   GL1 1828   2.038   6.373   7.806
  122POPC   GL2 1829   2.012   6.777   7.755
  122POPC   C1A 1830   2.070   6.467   7.368
  122POPC   D2A 1831   2.061   6.594   6.937
  122POPC   C3A 1832   2.087   6.352   6.537
  122POPC   C4A 1833   2.318   6.371   6.139
  122POPC   C1B 1834   1.825   6.910   7.320
  122POPC   C2B 1835   1.661   6.913   6.891
  122POPC   C3B 1836   1.893   6.838   6.495
  122POPC   C4B 1837   1.925   6.756   6.020
  123POPC   NC3 1838   4.377   8.296   8.197
  123POPC   PO4 1839   4.273   7.611   8.174
  123POPC   GL1 1840   4.289   7.955   7.821
  123POPC   GL2 1841   4.109   8.297   7.782
  123POPC   C1A 1842   4.375   8.136   7.392
  123POPC   D2A 1843   4.595   8.137   6.970
  123POPC   C3A 1844   4.399   7.970   6.569
  123POPC   C4A 1845   4.515   7.957   6.116
  123POPC   C1B 1846   3.941   8.456   7.382
  123POPC   C2B 1847   4.102   8.319   7.016
  123POPC   C3B 1848   4.274   8.440   6.664
  123POPC   C4B 1849   4.068   8.407   6.341
  124POPC   NC3 1850   0.660   0.338   8.069
  124POPC   PO4 1851   0.014   0.143   8.071
  124POPC   GL1 1852   0.205   0.333   7.709
  124POPC   GL2 1853   0.435   0.638   7.692
  124POPC   C1A 1854   0.264   0.060   7.356
  124POPC   D2A 1855   0.555   0.094   6.980
  124POPC   C3A 1856   0.390   0.062   6.560
  124POPC   C4A 1857   0.029   9.945   6.324
  124POPC   C1B 1858   0.460   0.517   7.273
  124POPC   C2B 1859   0.257   0.635   6.868
  124POPC   C3B 1860   0.454   0.592   6.467
  124POPC   C4B 1861   0.807   0.347   6.356
  125POPC   NC3 1862   5.947   1.210   8.168
  125POPC   PO4 1863   5.399   0.739   8.168
  125POPC   GL1 1864   5.513   1.025   7.797
  125POPC   GL2 1865   5.864   1.044   7.707
  125POPC   C1A 1866   5.591   1.192   7.328
  125POPC   D2A 1867   5.594   1.354   6.887
  125POPC   C3A 1868   5.527   1.007   6.592
  125POPC   C4A 1869   5.521   0.810   6.194
  125POPC   C1B 1870   6.136   1.326   7.452
  125POPC   C2B 1871   6.114   1.455   7.011
  125POPC   C3B 1872   6.137   1.423   6.555
  125POPC   C4B 1873   5.812   1.284   6.257
  126POPC   NC3 1874   4.297   0.781   8.204
  126POPC   PO4 1875   3.821   0.266   8.429
  126POPC   GL1 1876   4.043   0.237   7.985
  126POPC   GL2 1877   4.369   0.396   7.865
  126POPC   C1A 1878   4.055   0.210   7.509
  126POPC   D2A 1879   3.788   0.320   7.145
  126POPC   C3A 1880   4.063   0.442   6.799
  126POPC   C4A 1881   4.106   0.353   6.361
  126POPC   C1B 1882   4.456   0.517   7.402
  126POPC   C2B 1883   4.581   0.512   6.962
  126POPC   C3B 1884   4.566   0.283   6.592
  126POPC   C4B 1885   4.630   0.520   6.263
  127POPC   NC3 1886   9.764   4.902   8.044
  127POPC   PO4 1887   0.396   4.848   8.344
  127POPC   GL1 1888   0.209   5.108   7.889
  127POPC   GL2 1889   9.924   5.353   7.825
  127POPC   C1A 1890   0.004   4.966   7.439
  127POPC   D2A 1891   0.102   4.837   7.044
  127POPC   C3A 1892   9.922   4.803   6.642
  127POPC   C4A 1893   9.662   5.028   6.363
  127POPC   C1B 1894   9.604   5.256   7.480
  127POPC   C2B 1895   9.650   5.122   7.043
  127POPC   C3B 1896   9.330   5.137   6.739
  127POPC   C4B 1897   9.195   5.345   6.391
  128POPC   NC3 1898   9.721   9.946   8.374
  128POPC   PO4 1899   9.384   9.372   8.165
  128POPC   GL1 1900   9.610   9.522   7.838
  128POPC   GL2 1901   9.864   9.245   7.818
  128POPC   C1A 1902   9.723   9.750   7.435
  128POPC   D2A 1903   9.698   9.642   7.017
  128POPC   C3A 1904   9.643   9.919   6.670
  128POPC   C4A 1905   9.318   9.838   6.367
  128POPC   C1B 1906   9.586   9.198   7.445
  128POPC   C2B 1907   9.459   9.180   7.017
  128POPC   C3B 1908   9.478   9.411   6.616
  128POPC   C4B 1909   9.693   9.559   6.217
  129POPC   NC3 1910   2.530   7.990   7.980
  129POPC   PO4 1911   2.303   8.543   8.301
  129POPC   GL1 1912   2.633   8.483   7.796
  129POPC   GL2 1913   2.929   8.254   7.741
  129POPC   C1A 1914   2.618   8.343   7.283
  129POPC   D2A 1915   2.282   8.358   6.906
  129POPC   C3A 1916   2.439   8.462   6.466
  129POPC   C4A 1917   2.738   8.577   6.163
  129POPC   C1B 1918   2.908   7.915   7.458
  129POPC   C2B 1919   2.756   7.884   7.076
  129POPC   C3B 1920   2.751   8.170   6.765
  129POPC   C4B 1921   2.872   8.079   6.360
  130POPC   NC3 1922   9.053   9.758   7.941
  130POPC   PO4 1923   8.539   9.297   8.185
  130POPC   GL1 1924   8.793   9.323   7.813
  130POPC   GL2 1925   9.151   9.325   7.722
  130POPC   C1A 1926   8.767   9.377   7.368
  130POPC   D2A 1927   8.972   9.337   6.972
  130POPC   C3A 1928   8.696   9.260   6.624
  130POPC   C4A 1929   8.446   9.554   6.405
  130POPC   C1B 1930   9.256   9.581   7.332
  130POPC   C2B 1931   9.189   9.829   6.940
  130POPC   C3B 1932   8.884   9.758   6.616
  130POPC   C4B 1933   8.934   9.508   6.216
  131POPC   NC3 1934   8.768   2.808   8.154
  131POPC   PO4 1935   9.279   2.294   7.915
  131POPC   GL1 1936   9.111   2.509   7.559
  131POPC   GL2 1937   8.897   2.771   7.675
  131POPC   C1A 1938   8.829   2.588   7.218
  131POPC   D2A 1939   8.994   2.805   6.878
  131POPC   C3A 1940   9.058   2.633   6.491
  131POPC   C4A 1941   9.335   2.426   6.224
  131POPC   C1B 1942   8.628   3.024   7.419
  131POPC   C2B 1943   8.555   3.015   7.011
  131POPC   C3B 1944   8.510   2.808   6.628
  131POPC   C4B 1945   8.604   2.532   6.290
  132POPC   NC3 1946   2.699   8.756   8.202
  132POPC   PO4 1947   3.207   9.194   8.170
  132POPC   GL1 1948   2.919   9.038   7.802
  132POPC   GL2 1949   2.534   8.995   7.773
  132POPC   C1A 1950   2.909   8.737   7.434
  132POPC   D2A 1951   3.008   8.598   6.991
  132POPC   C3A 1952   3.074   8.766   6.560
  132POPC   C4A 1953   2.998   9.018   6.174
  132POPC   C1B 1954   2.402   8.800   7.361
  132POPC   C2B 1955   2.541   8.786   6.929
  132POPC   C3B 1956   2.601   8.945   6.515
  132POPC   C4B 1957   2.472   9.020   6.076
  133POPC   NC3 1958   2.864   0.431   8.111
  133POPC   PO4 1959   2.338   0.864   8.094
  133POPC   GL1 1960   2.460   0.595   7.806
  133POPC   GL2 1961   2.808   0.649   7.652
  133POPC   C1A 1962   2.380   0.532   7.403
  133POPC   D2A 1963   2.686   0.663   7.110
  133POPC   C3A 1964   2.548   0.664   6.715
  133POPC   C4A 1965   2.348   0.588   6.326
  133POPC   C1B 1966   2.828   0.253   7.368
  133POPC   C2B 1967   2.722   0.204   6.894
  133POPC   C3B 1968   2.778   0.337   6.410
  133POPC   C4B 1969   2.959   0.173   5.992
  134POPC   NC3 1970   5.803   3.072   8.302
  134POPC   PO4 1971   5.804   2.434   8.088
  134POPC   GL1 1972   5.816   2.785   7.765
  134POPC   GL2 1973   6.076   2.595   7.548
  134POPC   C1A 1974   5.958   3.054   7.410
  134POPC   D2A 1975   6.010   2.835   7.031
  134POPC   C3A 1976   6.338   2.857   6.761
  134POPC   C4A 1977   6.287   2.760   6.330
  134POPC   C1B 1978   5.664   2.588   7.293
  134POPC   C2B 1979   5.536   2.707   6.824
  134POPC   C3B 1980   5.370   2.621   6.359
  134POPC   C4B 1981   5.091   2.768   5.994
  135POPC   NC3 1982   8.617   5.403   8.057
  135POPC   PO4 1983   7.962   5.293   8.125
  135POPC   GL1 1984   8.269   5.212   7.750
  135POPC   GL2 1985   8.325   4.850   7.672
  135POPC   C1A 1986   8.189   5.148   7.292
  135POPC   D2A 1987   7.990   5.002   6.921
  135POPC   C3A 1988   8.255   4.943   6.575
  135POPC   C4A 1989   8.269   5.107   6.215
  135POPC   C1B 1990   8.096   4.651   7.362
  135POPC   C2B 1991   8.121   4.509   6.937
  135POPC   C3B 1992   7.917   4.591   6.528
  135POPC   C4B 1993   7.879   4.764   6.101
  136POPC   NC3 1994   6.824   8.229   8.054
  136POPC   PO4 1995   6.756   7.592   8.054
  136POPC   GL1 1996   6.833   7.884   7.661
  136POPC   GL2 1997   6.583   8.193   7.606
  136POPC   C1A 1998   6.740   7.939   7.208
  136POPC   D2A 1999   6.733   7.748   6.823
  136POPC   C3A 2000   6.805   7.979   6.446
  136POPC   C4A 2001   6.474   7.982   6.112
  136POPC   C1B 2002   6.216   8.121   7.290
  136POPC   C2B 2003   6.033   8.178   6.855
  136POPC   C3B 2004   6.181   8.285   6.445
  136POPC   C4B 2005   6.597   8.445   6.451
  137POPC   NC3 2006   8.890   0.421   8.083
  137POPC   PO4 2007   9.448   9.990   8.005
  137POPC   GL1 2008   9.218   0.267   7.698
  137POPC   GL2 2009   8.897   0.247   7.594
  137POPC   C1A 2010   9.301   0.251   7.241
  137POPC   D2A 2011   9.097   0.411   6.853
  137POPC   C3A 2012   9.079   0.272   6.439
  137POPC   C4A 2013   9.230   0.158   6.000
  137POPC   C1B 2014   8.791   0.145   7.181
  137POPC   C2B 2015   8.587   0.410   6.883
  137POPC   C3B 2016   8.607   0.506   6.466
  137POPC   C4B 2017   8.784   0.465   6.044
  138POPC   NC3 2018   5.589   7.354   8.079
  138POPC   PO4 2019   6.115   7.214   8.344
  138POPC   GL1 2020   5.973   7.420   7.795
  138POPC   GL2 2021   6.066   7.764   7.707
  138POPC   C1A 2022   6.145   7.465   7.328
  138POPC   D2A 2023   5.992   7.680   6.960
  138POPC   C3A 2024   5.923   7.384   6.603
  138POPC   C4A 2025   6.190   7.174   6.263
  138POPC   C1B 2026   5.664   7.603   7.434
  138POPC   C2B 2027   5.504   7.528   6.978
  138POPC   C3B 2028   5.380   7.617   6.508
  138POPC   C4B 2029   5.410   7.421   6.075
  139POPC   NC3 2030   0.406   3.511   8.395
  139POPC   PO4 2031   0.989   3.661   8.097
  139POPC   GL1 2032   0.861   3.413   7.757
  139POPC   GL2 2033   0.620   3.621   7.615
  139POPC   C1A 2034   0.699   3.199   7.400
  139POPC   D2A 2035   0.544   3.488   7.086
  139POPC   C3A 2036   0.754   3.472   6.693
  139POPC   C4A 2037   0.664   3.585   6.297
  139POPC   C1B 2038   0.241   3.804   7.366
  139POPC   C2B 2039   0.293   3.989   6.980
  139POPC   C3B 2040   0.282   3.729   6.647
  139POPC   C4B 2041   0.192   3.438   6.340
  140POPC   NC3 2042   8.740   8.306   8.287
  140POPC   PO4 2043   9.239   7.757   8.225
  140POPC   GL1 2044   9.077   7.968   7.853
  140POPC   GL2 2045   9.045   8.322   7.871
  140POPC   C1A 2046   8.842   7.994   7.438
  140POPC   D2A 2047   8.861   7.819   7.015
  140POPC   C3A 2048   8.791   7.964   6.565
  140POPC   C4A 2049   8.850   7.946   6.102
  140POPC   C1B 2050   8.906   8.500   7.478
  140POPC   C2B 2051   8.863   8.360   7.041
  140POPC   C3B 2052   9.080   8.380   6.640
  140POPC   C4B 2053   8.902   8.434   6.235
  141POPC   NC3 2054   6.884   3.402   8.085
  141POPC   PO4 2055   6.227   3.125   8.144
  141POPC   GL1 2056   6.403   2.994   7.712
  141POPC   GL2 2057   6.639   3.255   7.652
  141POPC   C1A 2058   6.475   2.958   7.250
  141POPC   D2A 2059   6.697   3.205   6.845
  141POPC   C3A 2060   6.382   3.300   6.509
  141POPC   C4A 2061   6.277   3.189   6.066
  141POPC   C1B 2062   6.636   3.468   7.277
  141POPC   C2B 2063   6.825   3.695   6.928
  141POPC   C3B 2064   6.698   3.749   6.505
  141POPC   C4B 2065   6.790   3.862   6.079
  142POPC   NC3 2066   1.441   3.759   8.250
  142POPC   PO4 2067   1.511   3.078   8.173
  142POPC   GL1 2068   1.374   3.304   7.801
  142POPC   GL2 2069   1.361   3.650   7.721
  142POPC   C1A 2070   1.206   3.145   7.412
  142POPC   D2A 2071   1.023   3.173   7.006
  142POPC   C3A 2072   1.206   3.192   6.609
  142POPC   C4A 2073   0.989   3.194   6.246
  142POPC   C1B 2074   1.094   3.631   7.320
  142POPC   C2B 2075   1.254   3.634   6.878
  142POPC   C3B 2076   1.143   3.732   6.445
  142POPC   C4B 2077   0.913   4.021   6.189
  143POPC   NC3 2078   8.701   1.299   8.197
  143POPC   PO4 2079   8.472   0.684   8.080
  143POPC   GL1 2080   8.691   0.716   7.682
  143POPC   GL2 2081   9.034   0.777   7.725
  143POPC   C1A 2082   8.688   1.070   7.354
  143POPC   D2A 2083   8.666   1.408   7.029
  143POPC   C3A 2084   8.614   1.256   6.591
  143POPC   C4A 2085   8.706   1.319   6.125
  143POPC   C1B 2086   8.997   0.672   7.278
  143POPC   C2B 2087   8.833   0.864   6.882
  143POPC   C3B 2088   8.921   0.890   6.435
  143POPC   C4B 2089   9.211   1.137   6.250
  144POPC   NC3 2090   2.027   3.833   3.761
  144POPC   PO4 2091   1.979   3.106   3.849
  144POPC   GL1 2092   2.035   3.437   4.119
  144POPC   GL2 2093   1.712   3.586   4.239
  144POPC   C1A 2094   2.253   3.412   4.497
  144POPC   D2A 2095   2.317   3.531   4.931
  144POPC   C3A 2096   2.296   3.285   5.323
  144POPC   C4A 2097   2.238   3.377   5.793
  144POPC   C1B 2098   1.844   3.673   4.689
  144POPC   C2B 2099   1.835   3.412   5.062
  144POPC   C3B 2100   1.864   3.518   5.486
  144POPC   C4B 2101   1.798   3.676   5.924
  145POPC   NC3 2102   2.569   2.060   3.983
  145POPC   PO4 2103   2.544   1.460   3.741
  145POPC   GL1 2104   2.415   1.562   4.169
  145POPC   GL2 2105   2.728   1.731   4.329
  145POPC   C1A 2106   2.334   1.727   4.605
  145POPC   D2A 2107   2.677   1.614   4.887
  145POPC   C3A 2108   2.668   1.612   5.335
  145POPC   C4A 2109   2.552   1.624   5.763
  145POPC   C1B 2110   2.944   1.978   4.642
  145POPC   C2B 2111   3.024   1.966   5.096
  145POPC   C3B 2112   2.943   2.014   5.524
  145POPC   C4B 2113   3.065   1.683   5.789
  146POPC   NC3 2114   7.341   7.042   3.832
  146POPC   PO4 2115   7.691   6.625   4.042
  146POPC   GL1 2116   7.415   6.728   4.354
  146POPC   GL2 2117   7.094   6.925   4.273
  146POPC   C1A 2118   7.470   6.622   4.785
  146POPC   D2A 2119   7.502   6.863   5.160
  146POPC   C3A 2120   7.575   6.638   5.502
  146POPC   C4A 2121   7.484   6.571   5.971
  146POPC   C1B 2122   6.988   6.782   4.707
  146POPC   C2B 2123   7.067   6.594   5.154
  146POPC   C3B 2124   7.112   6.463   5.614
  146POPC   C4B 2125   7.129   6.205   6.000
  147POPC   NC3 2126   5.659   9.235   4.016
  147POPC   PO4 2127   5.380   8.639   3.913
  147POPC   GL1 2128   5.680   8.773   4.256
  147POPC   GL2 2129   6.004   8.814   4.393
  147POPC   C1A 2130   5.659   8.914   4.716
  147POPC   D2A 2131   5.866   8.990   5.105
  147POPC   C3A 2132   5.680   8.764   5.447
  147POPC   C4A 2133   5.492   8.889   5.843
  147POPC   C1B 2134   6.094   8.616   4.735
  147POPC   C2B 2135   6.255   8.670   5.098
  147POPC   C3B 2136   6.272   8.711   5.503
  147POPC   C4B 2137   6.008   8.826   5.831
  148POPC   NC3 2138   0.987   5.102   3.839
  148POPC   PO4 2139   1.607   5.355   3.996
  148POPC   GL1 2140   1.188   5.312   4.263
  148POPC   GL2 2141   1.236   4.978   4.394
  148POPC   C1A 2142   0.935   5.253   4.696
  148POPC   D2A 2143   0.930   5.067   5.136
  148POPC   C3A 2144   1.009   5.217   5.581
  148POPC   C4A 2145   0.832   5.343   6.015
  148POPC   C1B 2146   1.405   5.132   4.801
  148POPC   C2B 2147   1.419   5.112   5.259
  148POPC   C3B 2148   1.495   5.045   5.695
  148POPC   C4B 2149   1.802   5.195   5.991
  149POPC   NC3 2150   6.517   8.123   3.935
  149POPC   PO4 2151   6.145   8.630   3.968
  149POPC   GL1 2152   6.321   8.345   4.360
  149POPC   GL2 2153   6.436   7.959   4.405
  149POPC   C1A 2154   6.484   8.257   4.811
  149POPC   D2A 2155   6.300   8.186   5.220
  149POPC   C3A 2156   6.493   8.241   5.599
  149POPC   C4A 2157   6.353   8.451   5.953
  149POPC   C1B 2158   6.766   7.850   4.755
  149POPC   C2B 2159   6.780   8.009   5.172
  149POPC   C3B 2160   6.856   7.870   5.604
  149POPC   C4B 2161   6.886   8.173   5.936
  150POPC   NC3 2162   8.970   2.435   3.923
  150POPC   PO4 2163   8.963   3.066   3.948
  150POPC   GL1 2164   8.997   3.003   4.347
  150POPC   GL2 2165   9.069   2.651   4.374
  150POPC   C1A 2166   8.767   3.172   4.690
  150POPC   D2A 2167   8.520   3.034   5.041
  150POPC   C3A 2168   8.742   3.010   5.432
  150POPC   C4A 2169   8.583   3.075   5.814
  150POPC   C1B 2170   9.133   2.822   4.802
  150POPC   C2B 2171   8.920   2.631   5.133
  150POPC   C3B 2172   8.955   2.518   5.554
  150POPC   C4B 2173   8.948   2.713   5.947
  151POPC   NC3 2174   8.050   2.211   3.985
  151POPC   PO4 2175   8.672   2.125   4.118
  151POPC   GL1 2176   8.499   1.816   4.391
  151POPC   GL2 2177   8.164   1.933   4.400
  151POPC   C1A 2178   8.444   1.785   4.822
  151POPC   D2A 2179   8.650   1.749   5.204
  151POPC   C3A 2180   8.334   1.724   5.523
  151POPC   C4A 2181   8.290   1.621   5.932
  151POPC   C1B 2182   8.054   2.232   4.741
  151POPC   C2B 2183   8.114   2.079   5.161
  151POPC   C3B 2184   8.145   2.183   5.585
  151POPC   C4B 2185   7.930   2.016   5.902
  152POPC   NC3 2186   8.812   4.162   4.008
  152POPC   PO4 2187   8.986   4.814   3.811
  152POPC   GL1 2188   9.011   4.579   4.255
  152POPC   GL2 2189   9.141   4.258   4.388
  152POPC   C1A 2190   9.124   4.616   4.735
  152POPC   D2A 2191   9.282   4.573   5.167
  152POPC   C3A 2192   8.917   4.480   5.450
  152POPC   C4A 2193   8.668   4.432   5.843
  152POPC   C1B 2194   8.907   4.080   4.785
  152POPC   C2B 2195   8.830   3.982   5.257
  152POPC   C3B 2196   8.934   4.007   5.731
  152POPC   C4B 2197   9.176   3.908   6.138
  153POPC   NC3 2198   7.338   7.775   4.204
  153POPC   PO4 2199   7.648   7.340   3.682
  153POPC   GL1 2200   7.522   7.234   4.248
  153POPC   GL2 2201   7.617   7.521   4.555
  153POPC   C1A 2202   7.383   7.120   4.685
  153POPC   D2A 2203   7.532   7.352   5.051
  153POPC   C3A 2204   7.225   7.254   5.353
  153POPC   C4A 2205   7.333   7.017   5.724
  153POPC   C1B 2206   7.248   7.696   4.814
  153POPC   C2B 2207   7.241   7.795   5.220
  153POPC   C3B 2208   7.527   7.654   5.498
  153POPC   C4B 2209   7.239   7.544   5.772
  154POPC   NC3 2210   1.153   3.500   3.860
  154POPC   PO4 2211   0.571   3.689   4.027
  154POPC   GL1 2212   0.853   3.677   4.375
  154POPC   GL2 2213   1.136   3.429   4.376
  154POPC   C1A 2214   0.927   3.651   4.828
  154POPC   D2A 2215   1.036   3.325   5.145
  154POPC   C3A 2216   0.911   3.523   5.515
  154POPC   C4A 2217   1.001   3.607   5.933
  154POPC   C1B 2218   1.386   3.459   4.775
  154POPC   C2B 2219   1.405   3.659   5.205
  154POPC   C3B 2220   1.400   3.565   5.650
  154POPC   C4B 2221   1.432   3.419   6.147
  155POPC   NC3 2222   0.211   4.952   4.183
  155POPC   PO4 2223   0.756   4.636   3.865
  155POPC   GL1 2224   0.833   4.679   4.283
  155POPC   GL2 2225   0.705   5.012   4.319
  155POPC   C1A 2226   0.814   4.775   4.727
  155POPC   D2A 2227   0.451   4.921   5.030
  155POPC   C3A 2228   0.544   5.006   5.475
  155POPC   C4A 2229   0.368   4.834   5.853
  155POPC   C1B 2230   0.432   5.278   4.661
  155POPC   C2B 2231   0.116   5.360   5.022
  155POPC   C3B 2232   0.183   5.508   5.454
  155POPC   C4B 2233   0.346   5.348   5.847
  156POPC   NC3 2234   9.069   8.147   3.745
  156POPC   PO4 2235   8.605   7.782   3.861
  156POPC   GL1 2236   8.736   7.931   4.242
  156POPC   GL2 2237   9.075   7.871   4.239
  156POPC   C1A 2238   8.526   8.052   4.652
  156POPC   D2A 2239   8.414   8.343   5.020
  156POPC   C3A 2240   8.726   8.334   5.388
  156POPC   C4A 2241   8.574   8.351   5.819
  156POPC   C1B 2242   9.066   8.181   4.564
  156POPC   C2B 2243   9.317   8.305   4.921
  156POPC   C3B 2244   9.275   8.363   5.360
  156POPC   C4B 2245   9.084   8.273   5.767
  157POPC   NC3 2246   7.602   2.675   3.900
  157POPC   PO4 2247   7.032   2.293   3.901
  157POPC   GL1 2248   7.204   2.418   4.295
  157POPC   GL2 2249   7.244   2.726   4.258
  157POPC   C1A 2250   7.115   2.509   4.733
  157POPC   D2A 2251   6.928   2.465   5.149
  157POPC   C3A 2252   7.249   2.565   5.433
  157POPC   C4A 2253   7.264   2.821   5.781
  157POPC   C1B 2254   7.600   2.621   4.567
  157POPC   C2B 2255   7.583   2.581   5.016
  157POPC   C3B 2256   7.695   2.326   5.385
  157POPC   C4B 2257   7.563   2.404   5.818
  158POPC   NC3 2258   5.045   0.580   4.049
  158POPC   PO4 2259   5.158   9.944   3.936
  158POPC   GL1 2260   5.246   0.168   4.382
  158POPC   GL2 2261   5.317   0.547   4.495
  158POPC   C1A 2262   5.164   0.233   4.855
  158POPC   D2A 2263   5.356   0.480   5.218
  158POPC   C3A 2264   5.402   0.254   5.635
  158POPC   C4A 2265   5.510   0.297   6.105
  158POPC   C1B 2266   4.991   0.745   4.729
  158POPC   C2B 2267   4.850   0.589   5.105
  158POPC   C3B 2268   4.936   0.518   5.521
  158POPC   C4B 2269   4.622   0.617   5.781
  159POPC   NC3 2270   1.365   6.735   3.996
  159POPC   PO4 2271   0.879   6.237   3.875
  159POPC   GL1 2272   1.002   6.408   4.237
  159POPC   GL2 2273   1.344   6.358   4.373
  159POPC   C1A 2274   0.852   6.627   4.597
  159POPC   D2A 2275   0.961   6.854   4.991
  159POPC   C3A 2276   1.137   6.635   5.357
  159POPC   C4A 2277   0.954   6.747   5.750
  159POPC   C1B 2278   1.351   6.741   4.658
  159POPC   C2B 2279   1.501   6.907   5.078
  159POPC   C3B 2280   1.659   6.752   5.486
  159POPC   C4B 2281   1.472   6.454   5.777
  160POPC   NC3 2282   0.585   5.833   3.803
  160POPC   PO4 2283   0.514   5.154   3.875
  160POPC   GL1 2284   0.655   5.494   4.194
  160POPC   GL2 2285   0.376   5.691   4.268
  160POPC   C1A 2286   0.723   5.695   4.642
  160POPC   D2A 2287   0.617   5.512   5.077
  160POPC   C3A 2288   0.768   5.659   5.477
  160POPC   C4A 2289   0.613   5.800   5.893
  160POPC   C1B 2290   0.209   5.760   4.692
  160POPC   C2B 2291   0.342   5.973   5.058
  160POPC   C3B 2292   0.387   6.001   5.481
  160POPC   C4B 2293   0.124   5.898   5.821
  161POPC   NC3 2294   0.557   7.569   3.872
  161POPC   PO4 2295   0.045   7.074   3.856
  161POPC   GL1 2296   0.218   7.332   4.178
  161POPC   GL2 2297   0.511   7.113   4.216
  161POPC   C1A 2298   0.299   7.485   4.608
  161POPC   D2A 2299   0.172   7.661   5.043
  161POPC   C3A 2300   0.359   7.520   5.463
  161POPC   C4A 2301   0.608   7.586   5.873
  161POPC   C1B 2302   0.693   7.156   4.645
  161POPC   C2B 2303   0.685   7.395   5.052
  161POPC   C3B 2304   0.808   7.281   5.497
  161POPC   C4B 2305   0.541   7.076   5.783
  162POPC   NC3 2306   4.036   3.628   3.903
  162POPC   PO4 2307   4.270   4.114   3.955
  162POPC   GL1 2308   4.290   3.744   4.313
  162POPC   GL2 2309   4.424   3.421   4.293
  162POPC   C1A 2310   4.058   3.445   4.658
  162POPC   D2A 2311   4.109   3.274   5.114
  162POPC   C3A 2312   3.743   3.208   5.457
  162POPC   C4A 2313   3.347   3.361   5.732
  162POPC   C1B 2314   4.503   3.202   4.720
  162POPC   C2B 2315   4.567   3.028   5.151
  162POPC   C3B 2316   4.456   2.847   5.582
  162POPC   C4B 2317   4.516   2.761   6.060
  163POPC   NC3 2318   8.122   7.047   3.876
  163POPC   PO4 2319   7.764   7.621   4.100
  163POPC   GL1 2320   8.130   7.369   4.273
  163POPC   GL2 2321   8.459   7.516   4.322
  163POPC   C1A 2322   8.340   7.113   4.638
  163POPC   D2A 2323   8.430   6.966   5.083
  163POPC   C3A 2324   8.056   6.921   5.363
  163POPC   C4A 2325   7.847   7.163   5.692
  163POPC   C1B 2326   8.207   7.609   4.704
  163POPC   C2B 2327   8.099   7.358   5.056
  163POPC   C3B 2328   8.310   7.367   5.446
  163POPC   C4B 2329   8.022   7.644   5.608
  164POPC   NC3 2330   8.161   7.804   3.983
  164POPC   PO4 2331   7.541   8.141   3.931
  164POPC   GL1 2332   7.764   8.075   4.311
  164POPC   GL2 2333   8.032   8.295   4.228
  164POPC   C1A 2334   7.998   8.075   4.715
  164POPC   D2A 2335   8.005   7.902   5.139
  164POPC   C3A 2336   8.277   8.077   5.457
  164POPC   C4A 2337   8.458   7.869   5.791
  164POPC   C1B 2338   7.783   8.509   4.564
  164POPC   C2B 2339   7.890   8.505   5.006
  164POPC   C3B 2340   8.019   8.525   5.453
  164POPC   C4B 2341   8.072   8.405   5.927
  165POPC   NC3 2342   6.387   0.524   3.902
  165POPC   PO4 2343   6.107   1.060   4.083
  165POPC   GL1 2344   6.386   0.821   4.334
  165POPC   GL2 2345   6.658   0.568   4.326
  165POPC   C1A 2346   6.503   0.852   4.742
  165POPC   D2A 2347   6.410   0.587   5.062
  165POPC   C3A 2348   6.318   0.777   5.435
  165POPC   C4A 2349   6.259   0.631   5.827
  165POPC   C1B 2350   6.631   0.312   4.681
  165POPC   C2B 2351   6.604   0.093   5.075
  165POPC   C3B 2352   6.667   0.316   5.412
  165POPC   C4B 2353   6.539   0.207   5.776
  166POPC   NC3 2354   3.177   8.760   3.956
  166POPC   PO4 2355   3.800   8.964   3.995
  166POPC   GL1 2356   3.459   8.923   4.359
  166POPC   GL2 2357   3.392   9.252   4.541
  166POPC   C1A 2358   3.288   8.850   4.807
  166POPC   D2A 2359   3.390   9.174   5.116
  166POPC   C3A 2360   3.253   9.165   5.565
  166POPC   C4A 2361   3.341   9.351   5.951
  166POPC   C1B 2362   3.794   9.126   4.704
  166POPC   C2B 2363   3.823   8.907   5.065
  166POPC   C3B 2364   3.658   8.805   5.443
  166POPC   C4B 2365   3.732   9.093   5.738
  167POPC   NC3 2366   7.163   9.304   3.850
  167POPC   PO4 2367   6.946   9.915   3.888
  167POPC   GL1 2368   7.094   9.648   4.266
  167POPC   GL2 2369   7.460   9.512   4.208
  167POPC   C1A 2370   7.113   9.419   4.719
  167POPC   D2A 2371   7.329   9.316   5.122
  167POPC   C3A 2372   7.136   9.459   5.535
  167POPC   C4A 2373   7.166   9.604   5.996
  167POPC   C1B 2374   7.454   9.780   4.585
  167POPC   C2B 2375   7.569   9.793   5.017
  167POPC   C3B 2376   7.596   9.666   5.420
  167POPC   C4B 2377   7.385   9.944   5.683
  168POPC   NC3 2378   9.010   7.506   3.903
  168POPC   PO4 2379   8.564   7.112   4.012
  168POPC   GL1 2380   8.785   7.063   4.375
  168POPC   GL2 2381   8.954   7.360   4.372
  168POPC   C1A 2382   8.818   7.195   4.824
  168POPC   D2A 2383   8.805   7.371   5.224
  168POPC   C3A 2384   8.843   7.043   5.542
  168POPC   C4A 2385   9.047   7.132   5.951
  168POPC   C1B 2386   8.901   7.693   4.687
  168POPC   C2B 2387   8.906   7.991   5.040
  168POPC   C3B 2388   8.957   7.865   5.482
  168POPC   C4B 2389   8.810   7.522   5.733
  169POPC   NC3 2390   3.908   8.082   4.037
  169POPC   PO4 2391   3.266   7.837   3.815
  169POPC   GL1 2392   3.419   8.084   4.214
  169POPC   GL2 2393   3.598   8.438   4.233
  169POPC   C1A 2394   3.376   8.196   4.666
  169POPC   D2A 2395   3.223   8.080   5.098
  169POPC   C3A 2396   3.427   8.160   5.486
  169POPC   C4A 2397   3.361   7.997   5.911
  169POPC   C1B 2398   3.703   8.584   4.669
  169POPC   C2B 2399   3.781   8.400   5.108
  169POPC   C3B 2400   3.911   8.376   5.572
  169POPC   C4B 2401   3.674   8.408   5.928
  170POPC   NC3 2402   7.276   0.916   3.952
  170POPC   PO4 2403   7.392   1.569   3.922
  170POPC   GL1 2404   7.365   1.268   4.296
  170POPC   GL2 2405   7.696   1.268   4.437
  170POPC   C1A 2406   7.381   1.041   4.750
  170POPC   D2A 2407   7.450   1.185   5.197
  170POPC   C3A 2408   7.265   0.906   5.520
  170POPC   C4A 2409   6.873   0.728   5.612
  170POPC   C1B 2410   7.365   1.549   4.709
  170POPC   C2B 2411   7.081   1.524   5.063
  170POPC   C3B 2412   7.198   1.549   5.490
  170POPC   C4B 2413   7.479   1.322   5.714
  171POPC   NC3 2414   2.260   6.260   3.935
  171POPC   PO4 2415   1.620   6.354   3.962
  171POPC   GL1 2416   1.890   6.155   4.291
  171POPC   GL2 2417   1.960   5.789   4.334
  171POPC   C1A 2418   2.127   6.154   4.683
  171POPC   D2A 2419   2.070   5.812   4.999
  171POPC   C3A 2420   2.064   5.922   5.420
  171POPC   C4A 2421   2.314   5.988   5.782
  171POPC   C1B 2422   1.678   5.903   4.696
  171POPC   C2B 2423   1.508   5.995   5.133
  171POPC   C3B 2424   1.592   5.977   5.608
  171POPC   C4B 2425   1.662   5.680   5.963
  172POPC   NC3 2426   0.709   4.136   3.889
  172POPC   PO4 2427   1.345   3.855   3.658
  172POPC   GL1 2428   1.286   3.902   4.160
  172POPC   GL2 2429   1.035   4.165   4.277
  172POPC   C1A 2430   1.332   3.952   4.652
  172POPC   D2A 2431   1.137   4.157   5.042
  172POPC   C3A 2432   1.094   4.011   5.477
  172POPC   C4A 2433   0.696   3.980   5.720
  172POPC   C1B 2434   1.209   4.460   4.599
  172POPC   C2B 2435   1.236   4.672   5.005
  172POPC   C3B 2436   1.192   4.673   5.454
  172POPC   C4B 2437   1.535   4.509   5.723
  173POPC   NC3 2438   2.160   7.319   3.829
  173POPC   PO4 2439   2.437   6.669   3.823
  173POPC   GL1 2440   2.202   6.593   4.325
  173POPC   GL2 2441   1.792   6.643   4.390
  173POPC   C1A 2442   2.061   6.746   4.793
  173POPC   D2A 2443   1.995   7.034   5.163
  173POPC   C3A 2444   2.291   7.058   5.518
  173POPC   C4A 2445   2.381   6.739   5.792
  173POPC   C1B 2446   1.692   6.399   4.784
  173POPC   C2B 2447   1.878   6.361   5.200
  173POPC   C3B 2448   1.992   6.381   5.653
  173POPC   C4B 2449   1.884   6.135   6.023
  174POPC   NC3 2450   7.147   4.614   3.970
  174POPC   PO4 2451   7.519   4.092   3.944
  174POPC   GL1 2452   7.467   4.255   4.346
  174POPC   GL2 2453   7.568   3.947   4.453
  174POPC   C1A 2454   7.331   4.220   4.822
  174POPC   D2A 2455   7.328   4.123   5.283
  174POPC   C3A 2456   7.085   4.111   5.700
  174POPC   C4A 2457   7.260   4.056   6.134
  174POPC   C1B 2458   7.845   4.227   4.692
  174POPC   C2B 2459   8.002   4.357   5.078
  174POPC   C3B 2460   7.731   4.419   5.353
  174POPC   C4B 2461   7.576   4.247   5.742
  175POPC   NC3 2462   4.126   7.357   4.145
  175POPC   PO4 2463   3.969   6.776   4.147
  175POPC   GL1 2464   3.937   7.022   4.559
  175POPC   GL2 2465   3.902   7.406   4.601
  175POPC   C1A 2466   4.046   7.011   5.035
  175POPC   D2A 2467   4.203   6.952   5.485
  175POPC   C3A 2468   4.172   7.211   5.858
  175POPC   C4A 2469   4.340   7.147   6.314
  175POPC   C1B 2470   4.008   7.522   4.992
  175POPC   C2B 2471   4.011   7.453   5.423
  175POPC   C3B 2472   4.265   7.692   5.732
  175POPC   C4B 2473   4.173   7.601   6.187
  176POPC   NC3 2474   8.653   4.918   4.118
  176POPC   PO4 2475   8.305   5.419   3.718
  176POPC   GL1 2476   8.236   5.227   4.117
  176POPC   GL2 2477   8.079   4.887   4.023
  176POPC   C1A 2478   8.363   5.274   4.573
  176POPC   D2A 2479   8.261   5.248   5.019
  176POPC   C3A 2480   8.308   5.288   5.466
  176POPC   C4A 2481   8.445   5.405   5.874
  176POPC   C1B 2482   8.010   4.903   4.488
  176POPC   C2B 2483   7.963   4.848   4.952
  176POPC   C3B 2484   8.076   4.826   5.382
  176POPC   C4B 2485   8.282   4.853   5.776
  177POPC   NC3 2486   0.315   4.765   3.721
  177POPC   PO4 2487   0.221   4.107   3.895
  177POPC   GL1 2488   0.402   4.412   4.208
  177POPC   GL2 2489   0.498   4.107   4.357
  177POPC   C1A 2490   0.405   4.489   4.712
  177POPC   D2A 2491   0.731   4.488   5.115
  177POPC   C3A 2492   0.676   4.497   5.558
  177POPC   C4A 2493   0.581   4.410   5.985
  177POPC   C1B 2494   0.763   4.121   4.707
  177POPC   C2B 2495   0.638   3.994   5.141
  177POPC   C3B 2496   0.286   4.232   5.363
  177POPC   C4B 2497   0.180   4.146   5.817
  178POPC   NC3 2498   8.669   9.748   4.083
  178POPC   PO4 2499   9.275   9.440   3.863
  178POPC   GL1 2500   9.103   9.600   4.263
  178POPC   GL2 2501   9.098   9.967   4.330
  178POPC   C1A 2502   8.989   9.547   4.683
  178POPC   D2A 2503   9.149   9.369   5.049
  178POPC   C3A 2504   8.976   9.485   5.466
  178POPC   C4A 2505   9.066   9.210   5.827
  178POPC   C1B 2506   8.866   0.038   4.744
  178POPC   C2B 2507   8.960   9.948   5.214
  178POPC   C3B 2508   8.900   9.953   5.703
  178POPC   C4B 2509   8.728   9.988   6.182
  179POPC   NC3 2510   3.519   7.458   3.647
  179POPC   PO4 2511   4.028   7.697   3.792
  179POPC   GL1 2512   3.666   7.618   4.126
  179POPC   GL2 2513   3.611   7.269   4.219
  179POPC   C1A 2514   3.457   7.677   4.557
  179POPC   D2A 2515   3.239   7.594   4.957
  179POPC   C3A 2516   3.450   7.634   5.384
  179POPC   C4A 2517   3.307   7.470   5.819
  179POPC   C1B 2518   3.451   7.170   4.639
  179POPC   C2B 2519   3.586   7.227   5.077
  179POPC   C3B 2520   3.619   7.129   5.526
  179POPC   C4B 2521   3.687   7.150   5.970
  180POPC   NC3 2522   9.940   2.633   3.785
  180POPC   PO4 2523   9.930   3.220   4.155
  180POPC   GL1 2524   9.786   3.040   4.454
  180POPC   GL2 2525   9.544   2.805   4.394
  180POPC   C1A 2526   9.762   2.904   4.834
  180POPC   D2A 2527   9.579   3.089   5.101
  180POPC   C3A 2528   9.748   2.915   5.465
  180POPC   C4A 2529   9.557   3.144   5.787
  180POPC   C1B 2530   9.490   2.478   4.700
  180POPC   C2B 2531   9.441   2.573   5.141
  180POPC   C3B 2532   9.252   2.894   5.438
  180POPC   C4B 2533   9.413   2.638   5.770
  181POPC   NC3 2534   1.009   1.249   3.992
  181POPC   PO4 2535   0.861   0.692   3.652
  181POPC   GL1 2536   1.173   0.790   4.129
  181POPC   GL2 2537   1.431   1.027   4.287
  181POPC   C1A 2538   1.036   0.975   4.597
  181POPC   D2A 2539   1.212   1.248   4.933
  181POPC   C3A 2540   1.191   1.169   5.378
  181POPC   C4A 2541   1.171   1.087   5.823
  181POPC   C1B 2542   1.623   1.335   4.655
  181POPC   C2B 2543   1.644   1.513   5.131
  181POPC   C3B 2544   1.621   1.381   5.609
  181POPC   C4B 2545   1.541   1.346   6.087
  182POPC   NC3 2546   2.175   1.620   3.495
  182POPC   PO4 2547   1.915   1.781   4.099
  182POPC   GL1 2548   1.815   2.062   4.429
  182POPC   GL2 2549   1.702   2.402   4.324
  182POPC   C1A 2550   1.912   1.918   4.852
  182POPC   D2A 2551   2.334   1.957   5.072
  182POPC   C3A 2552   2.382   2.033   5.501
  182POPC   C4A 2553   2.056   2.046   5.812
  182POPC   C1B 2554   1.756   2.568   4.745
  182POPC   C2B 2555   1.981   2.363   5.117
  182POPC   C3B 2556   1.856   2.009   5.355
  182POPC   C4B 2557   1.577   2.193   5.652
  183POPC   NC3 2558   7.757   1.258   3.918
  183POPC   PO4 2559   8.360   1.538   3.675
  183POPC   GL1 2560   8.169   1.470   4.163
  183POPC   GL2 2561   8.407   1.266   4.332
  183POPC   C1A 2562   8.120   1.412   4.692
  183POPC   D2A 2563   8.280   1.396   5.149
  183POPC   C3A 2564   7.996   1.324   5.573
  183POPC   C4A 2565   7.809   1.529   6.016
  183POPC   C1B 2566   8.491   1.049   4.766
  183POPC   C2B 2567   8.451   0.929   5.227
  183POPC   C3B 2568   8.468   1.134   5.680
  183POPC   C4B 2569   8.457   0.879   6.113
  184POPC   NC3 2570   8.254   8.961   3.884
  184POPC   PO4 2571   7.589   9.109   3.845
  184POPC   GL1 2572   7.901   9.188   4.168
  184POPC   GL2 2573   7.983   8.868   4.292
  184POPC   C1A 2574   8.060   9.270   4.615
  184POPC   D2A 2575   7.851   9.353   5.015
  184POPC   C3A 2576   8.031   9.241   5.409
  184POPC   C4A 2577   7.832   8.964   5.711
  184POPC   C1B 2578   8.219   8.768   4.661
  184POPC   C2B 2579   8.241   8.894   5.074
  184POPC   C3B 2580   8.461   8.755   5.419
  184POPC   C4B 2581   8.312   8.816   5.787
  185POPC   NC3 2582   8.132   9.505   3.707
  185POPC   PO4 2583   8.371   0.126   3.950
  185POPC   GL1 2584   8.230   9.854   4.280
  185POPC   GL2 2585   7.952   9.684   4.219
  185POPC   C1A 2586   8.444   9.684   4.683
  185POPC   D2A 2587   8.634   9.592   5.065
  185POPC   C3A 2588   8.511   9.760   5.446
  185POPC   C4A 2589   8.536   9.640   5.881
  185POPC   C1B 2590   7.955   9.782   4.696
  185POPC   C2B 2591   8.084   9.773   5.162
  185POPC   C3B 2592   8.033   9.817   5.627
  185POPC   C4B 2593   7.835   0.131   5.895
  186POPC   NC3 2594   5.024   2.251   3.945
  186POPC   PO4 2595   5.203   1.488   4.088
  186POPC   GL1 2596   5.039   1.702   4.429
  186POPC   GL2 2597   5.048   2.021   4.408
  186POPC   C1A 2598   4.945   1.757   4.876
  186POPC   D2A 2599   5.191   1.796   5.264
  186POPC   C3A 2600   4.981   1.970   5.635
  186POPC   C4A 2601   4.799   1.951   6.062
  186POPC   C1B 2602   4.916   2.251   4.789
  186POPC   C2B 2603   4.927   2.295   5.228
  186POPC   C3B 2604   5.176   2.444   5.569
  186POPC   C4B 2605   5.202   2.264   5.980
  187POPC   NC3 2606   3.400   2.882   3.821
  187POPC   PO4 2607   4.045   3.162   3.960
  187POPC   GL1 2608   3.756   2.970   4.236
  187POPC   GL2 2609   3.498   2.697   4.288
  187POPC   C1A 2610   3.591   3.066   4.642
  187POPC   D2A 2611   3.289   2.865   4.907
  187POPC   C3A 2612   3.290   2.960   5.347
  187POPC   C4A 2613   3.040   2.923   5.713
  187POPC   C1B 2614   3.665   2.542   4.693
  187POPC   C2B 2615   3.505   2.480   5.151
  187POPC   C3B 2616   3.388   2.490   5.581
  187POPC   C4B 2617   3.630   2.415   5.964
  188POPC   NC3 2618   2.875   8.085   3.762
  188POPC   PO4 2619   2.269   7.858   3.896
  188POPC   GL1 2620   2.526   8.085   4.238
  188POPC   GL2 2621   2.900   8.205   4.249
  188POPC   C1A 2622   2.397   8.164   4.687
  188POPC   D2A 2623   2.200   8.022   5.073
  188POPC   C3A 2624   2.437   8.116   5.425
  188POPC   C4A 2625   2.483   8.451   5.728
  188POPC   C1B 2626   2.892   8.028   4.652
  188POPC   C2B 2627   2.795   8.326   4.988
  188POPC   C3B 2628   2.894   8.331   5.422
  188POPC   C4B 2629   2.918   8.232   5.841
  189POPC   NC3 2630   9.355   5.094   3.933
  189POPC   PO4 2631   9.994   5.354   4.159
  189POPC   GL1 2632   9.678   5.033   4.332
  189POPC   GL2 2633   9.518   4.679   4.301
  189POPC   C1A 2634   9.522   4.968   4.752
  189POPC   D2A 2635   9.634   5.102   5.130
  189POPC   C3A 2636   9.509   4.904   5.531
  189POPC   C4A 2637   9.425   5.142   5.938
  189POPC   C1B 2638   9.671   4.497   4.722
  189POPC   C2B 2639   9.940   4.645   5.097
  189POPC   C3B 2640   0.033   4.965   5.431
  189POPC   C4B 2641   9.897   4.990   5.858
  190POPC   NC3 2642   8.737   1.245   3.719
  190POPC   PO4 2643   9.331   1.418   3.928
  190POPC   GL1 2644   8.916   1.309   4.199
  190POPC   GL2 2645   8.743   0.939   4.175
  190POPC   C1A 2646   8.826   1.432   4.639
  190POPC   D2A 2647   9.074   1.490   5.035
  190POPC   C3A 2648   8.898   1.378   5.447
  190POPC   C4A 2649   9.144   1.408   5.821
  190POPC   C1B 2650   8.939   0.914   4.540
  190POPC   C2B 2651   8.995   0.980   4.977
  190POPC   C3B 2652   8.927   0.877   5.407
  190POPC   C4B 2653   8.908   0.932   5.864
  191POPC   NC3 2654   0.769   2.747   4.079
  191POPC   PO4 2655   1.380   2.423   3.911
  191POPC   GL1 2656   1.286   2.783   4.192
  191POPC   GL2 2657   1.411   3.095   4.045
  191POPC   C1A 2658   1.100   2.957   4.610
  191POPC   D2A 2659   0.926   2.837   5.031
  191POPC   C3A 2660   1.210   2.711   5.341
  191POPC   C4A 2661   1.513   2.714   5.679
  191POPC   C1B 2662   1.589   3.094   4.475
  191POPC   C2B 2663   1.504   2.994   4.940
  191POPC   C3B 2664   1.490   3.144   5.376
  191POPC   C4B 2665   1.200   3.116   5.769
  192POPC   NC3 2666   1.915   9.767   3.812
  192POPC   PO4 2667   1.331   9.663   4.094
  192POPC   GL1 2668   1.753   9.619   4.259
  192POPC   GL2 2669   2.092   9.793   4.287
  192POPC   C1A 2670   1.855   9.491   4.642
  192POPC   D2A 2671   1.784   9.376   5.039
  192POPC   C3A 2672   1.905   9.535   5.469
  192POPC   C4A 2673   1.665   9.366   5.828
  192POPC   C1B 2674   2.265   9.754   4.694
  192POPC   C2B 2675   2.400   9.978   4.994
  192POPC   C3B 2676   2.241   0.141   5.357
  192POPC   C4B 2677   2.103   9.976   5.715
  193POPC   NC3 2678   7.952   6.255   4.067
  193POPC   PO4 2679   8.363   6.646   3.772
  193POPC   GL1 2680   8.270   6.729   4.247
  193POPC   GL2 2681   7.942   6.913   4.370
  193POPC   C1A 2682   8.267   6.599   4.701
  193POPC   D2A 2683   8.432   6.462   5.136
  193POPC   C3A 2684   8.467   6.645   5.579
  193POPC   C4A 2685   8.350   6.433   5.987
  193POPC   C1B 2686   7.887   6.929   4.825
  193POPC   C2B 2687   7.905   6.531   5.079
  193POPC   C3B 2688   8.023   6.392   5.495
  193POPC   C4B 2689   7.954   6.677   5.821
  194POPC   NC3 2690   7.826   5.394   3.822
  194POPC   PO4 2691   7.533   4.804   3.831
  194POPC   GL1 2692   7.594   4.742   4.244
  194POPC   GL2 2693   7.304   4.931   4.349
  194POPC   C1A 2694   7.573   4.657   4.693
  194POPC   D2A 2695   7.470   4.808   5.127
  194POPC   C3A 2696   7.711   5.163   5.358
  194POPC   C4A 2697   7.905   5.207   5.803
  194POPC   C1B 2698   7.053   4.658   4.656
  194POPC   C2B 2699   7.008   4.523   5.107
  194POPC   C3B 2700   7.231   4.568   5.517
  194POPC   C4B 2701   7.607   4.775   5.679
  195POPC   NC3 2702   3.554   1.890   3.963
  195POPC   PO4 2703   3.692   2.514   3.838
  195POPC   GL1 2704   3.745   2.251   4.265
  195POPC   GL2 2705   3.384   2.165   4.355
  195POPC   C1A 2706   3.854   1.893   4.598
  195POPC   D2A 2707   4.039   1.721   5.012
  195POPC   C3A 2708   3.840   1.653   5.436
  195POPC   C4A 2709   3.974   1.560   5.865
  195POPC   C1B 2710   3.427   2.096   4.791
  195POPC   C2B 2711   3.541   1.980   5.191
  195POPC   C3B 2712   3.467   1.976   5.643
  195POPC   C4B 2713   3.539   1.799   6.050
  196POPC   NC3 2714   4.749   1.452   4.039
  196POPC   PO4 2715   4.007   1.566   3.871
  196POPC   GL1 2716   4.210   1.470   4.247
  196POPC   GL2 2717   4.353   1.163   4.174
  196POPC   C1A 2718   4.092   1.311   4.674
  196POPC   D2A 2719   4.098   1.182   5.127
  196POPC   C3A 2720   4.316   1.477   5.398
  196POPC   C4A 2721   4.528   1.458   5.784
  196POPC   C1B 2722   4.527   1.015   4.575
  196POPC   C2B 2723   4.588   1.020   5.015
  196POPC   C3B 2724   4.520   1.005   5.459
  196POPC   C4B 2725   4.148   1.109   5.719
  197POPC   NC3 2726   7.402   7.727   3.735
  197POPC   PO4 2727   6.901   7.969   4.120
  197POPC   GL1 2728   7.077   8.133   4.455
  197POPC   GL2 2729   7.330   8.378   4.365
  197POPC   C1A 2730   7.014   8.372   4.800
  197POPC   D2A 2731   7.234   8.564   5.125
  197POPC   C3A 2732   7.112   8.295   5.443
  197POPC   C4A 2733   7.314   8.054   5.723
  197POPC   C1B 2734   7.483   8.165   4.787
  197POPC   C2B 2735   7.582   8.171   5.243
  197POPC   C3B 2736   7.791   8.104   5.638
  197POPC   C4B 2737   7.638   8.189   6.097
  198POPC   NC3 2738   9.011   3.435   3.670
  198POPC   PO4 2739   9.299   3.935   4.020
  198POPC   GL1 2740   9.164   3.720   4.364
  198POPC   GL2 2741   8.917   3.506   4.215
  198POPC   C1A 2742   9.109   3.584   4.811
  198POPC   D2A 2743   9.074   3.267   5.108
  198POPC   C3A 2744   8.993   3.469   5.490
  198POPC   C4A 2745   9.060   3.308   5.898
  198POPC   C1B 2746   8.673   3.662   4.569
  198POPC   C2B 2747   8.628   3.556   5.022
  198POPC   C3B 2748   8.483   3.471   5.450
  198POPC   C4B 2749   8.630   3.610   5.849
  199POPC   NC3 2750   1.863   9.118   3.779
  199POPC   PO4 2751   2.354   9.496   3.954
  199POPC   GL1 2752   2.153   9.276   4.274
  199POPC   GL2 2753   2.143   8.919   4.226
  199POPC   C1A 2754   2.280   9.209   4.704
  199POPC   D2A 2755   2.102   8.938   5.016
  199POPC   C3A 2756   1.920   9.030   5.379
  199POPC   C4A 2757   2.101   9.078   5.740
  199POPC   C1B 2758   1.846   8.945   4.585
  199POPC   C2B 2759   1.587   8.835   4.987
  199POPC   C3B 2760   1.522   8.708   5.438
  199POPC   C4B 2761   1.665   8.857   5.822
  200POPC   NC3 2762   7.940   0.385   4.128
  200POPC   PO4 2763   7.684   0.828   3.757
  200POPC   GL1 2764   8.019   0.895   4.161
  200POPC   GL2 2765   8.321   0.655   4.324
  200POPC   C1A 2766   8.011   0.914   4.626
  200POPC   D2A 2767   7.923   1.052   5.045
  200POPC   C3A 2768   7.900   0.710   5.356
  200POPC   C4A 2769   8.032   0.572   5.759
  200POPC   C1B 2770   8.319   0.222   4.616
  200POPC   C2B 2771   8.445   0.116   5.030
  200POPC   C3B 2772   8.243   0.230   5.406
  200POPC   C4B 2773   8.409   0.146   5.803
  201POPC   NC3 2774   8.928   9.244   3.617
  201POPC   PO4 2775   8.400   9.371   4.057
  201POPC   GL1 2776   8.689   9.278   4.344
  201POPC   GL2 2777   8.976   9.118   4.153
  201POPC   C1A 2778   8.594   9.169   4.774
  201POPC   D2A 2779   8.739   9.108   5.203
  201POPC   C3A 2780   8.545   9.227   5.602
  201POPC   C4A 2781   8.532   9.165   6.083
  201POPC   C1B 2782   9.088   9.042   4.614
  201POPC   C2B 2783   9.092   8.790   5.018
  201POPC   C3B 2784   9.076   8.819   5.476
  201POPC   C4B 2785   8.814   8.777   5.826
  202POPC   NC3 2786   7.429   3.655   3.999
  202POPC   PO4 2787   7.683   3.121   3.769
  202POPC   GL1 2788   7.472   3.168   4.208
  202POPC   GL2 2789   7.406   3.440   4.440
  202POPC   C1A 2790   7.278   3.018   4.659
  202POPC   D2A 2791   7.151   2.924   5.074
  202POPC   C3A 2792   7.307   3.163   5.410
  202POPC   C4A 2793   7.509   3.263   5.799
  202POPC   C1B 2794   7.267   3.680   4.785
  202POPC   C2B 2795   7.322   3.618   5.206
  202POPC   C3B 2796   7.433   3.734   5.619
  202POPC   C4B 2797   7.682   3.799   5.966
  203POPC   NC3 2798   5.608   0.026   3.515
  203POPC   PO4 2799   5.513   0.538   4.048
  203POPC   GL1 2800   5.928   0.558   4.228
  203POPC   GL2 2801   5.879   0.817   4.469
  203POPC   C1A 2802   6.151   0.434   4.628
  203POPC   D2A 2803   6.112   0.132   4.982
  203POPC   C3A 2804   6.170   0.252   5.414
  203POPC   C4A 2805   5.984   0.202   5.819
  203POPC   C1B 2806   5.712   0.633   4.799
  203POPC   C2B 2807   5.892   0.579   5.149
  203POPC   C3B 2808   5.785   0.582   5.542
  203POPC   C4B 2809   5.409   0.771   5.685
  204POPC   NC3 2810   4.397   7.936   3.679
  204POPC   PO4 2811   4.125   7.775   4.306
  204POPC   GL1 2812   3.842   7.985   4.538
  204POPC   GL2 2813   4.043   8.257   4.496
  204POPC   C1A 2814   3.686   7.910   4.958
  204POPC   D2A 2815   3.941   7.942   5.307
  204POPC   C3A 2816   3.793   7.860   5.700
  204POPC   C4A 2817   4.009   8.037   6.017
  204POPC   C1B 2818   4.492   8.280   4.630
  204POPC   C2B 2819   4.545   8.320   5.079
  204POPC   C3B 2820   4.405   8.194   5.516
  204POPC   C4B 2821   4.353   8.420   5.909
  205POPC   NC3 2822   5.760   8.360   3.925
  205POPC   PO4 2823   6.152   7.816   3.956
  205POPC   GL1 2824   5.920   7.961   4.341
  205POPC   GL2 2825   5.800   8.303   4.414
  205POPC   C1A 2826   6.016   8.110   4.799
  205POPC   D2A 2827   5.829   8.388   5.128
  205POPC   C3A 2828   5.956   8.304   5.584
  205POPC   C4A 2829   5.996   8.076   5.998
  205POPC   C1B 2830   5.530   8.013   4.686
  205POPC   C2B 2831   5.417   8.092   5.145
  205POPC   C3B 2832   5.506   8.046   5.607
  205POPC   C4B 2833   5.514   7.921   6.071
  206POPC   NC3 2834   9.614   9.179   4.028
  206POPC   PO4 2835   0.017   8.684   3.903
  206POPC   GL1 2836   9.986   8.955   4.267
  206POPC   GL2 2837   9.700   8.780   4.369
  206POPC   C1A 2838   9.982   9.104   4.696
  206POPC   D2A 2839   0.207   9.189   5.073
  206POPC   C3A 2840   0.053   9.341   5.459
  206POPC   C4A 2841   9.796   9.257   5.822
  206POPC   C1B 2842   9.551   8.841   4.791
  206POPC   C2B 2843   9.563   8.809   5.242
  206POPC   C3B 2844   9.563   8.825   5.685
  206POPC   C4B 2845   9.297   8.668   6.012
  207POPC   NC3 2846   2.884   1.343   4.047
  207POPC   PO4 2847   2.299   0.985   3.945
  207POPC   GL1 2848   2.632   0.968   4.305
  207POPC   GL2 2849   2.750   1.254   4.512
  207POPC   C1A 2850   2.584   0.862   4.781
  207POPC   D2A 2851   2.671   1.146   5.114
  207POPC   C3A 2852   2.547   1.125   5.549
  207POPC   C4A 2853   2.469   0.916   5.958
  207POPC   C1B 2854   3.078   1.293   4.795
  207POPC   C2B 2855   3.180   1.097   5.155
  207POPC   C3B 2856   3.060   1.174   5.578
  207POPC   C4B 2857   2.857   1.227   5.961
  208POPC   NC3 2858   6.386   9.023   4.138
  208POPC   PO4 2859   6.921   8.914   3.793
  208POPC   GL1 2860   6.790   8.792   4.313
  208POPC   GL2 2861   6.690   9.140   4.560
  208POPC   C1A 2862   6.643   8.718   4.776
  208POPC   D2A 2863   6.716   8.514   5.200
  208POPC   C3A 2864   6.782   8.660   5.612
  208POPC   C4A 2865   6.804   8.655   6.060
  208POPC   C1B 2866   6.318   9.125   4.821
  208POPC   C2B 2867   6.391   9.143   5.230
  208POPC   C3B 2868   6.664   9.158   5.527
  208POPC   C4B 2869   6.500   8.998   5.869
  209POPC   NC3 2870   2.991   5.792   3.892
  209POPC   PO4 2871   2.332   5.782   3.951
  209POPC   GL1 2872   2.473   5.981   4.313
  209POPC   GL2 2873   2.846   6.036   4.342
  209POPC   C1A 2874   2.520   5.830   4.725
  209POPC   D2A 2875   2.526   5.982   5.142
  209POPC   C3A 2876   2.495   5.637   5.443
  209POPC   C4A 2877   2.615   5.544   5.888
  209POPC   C1B 2878   3.016   5.927   4.777
  209POPC   C2B 2879   2.935   5.715   5.196
  209POPC   C3B 2880   2.843   5.960   5.609
  209POPC   C4B 2881   3.146   6.037   5.955
  210POPC   NC3 2882   1.240   7.485   3.900
  210POPC   PO4 2883   0.925   6.890   3.969
  210POPC   GL1 2884   1.058   7.168   4.278
  210POPC   GL2 2885   0.863   7.494   4.280
  210POPC   C1A 2886   1.206   7.223   4.707
  210POPC   D2A 2887   1.177   7.300   5.157
  210POPC   C3A 2888   1.291   7.097   5.555
  210POPC   C4A 2889   1.428   6.936   5.975
  210POPC   C1B 2890   0.936   7.663   4.692
  210POPC   C2B 2891   1.200   7.799   5.060
  210POPC   C3B 2892   1.271   7.676   5.493
  210POPC   C4B 2893   1.444   7.468   5.879
  211POPC   NC3 2894   2.144   7.654   4.291
  211POPC   PO4 2895   1.681   7.320   3.891
  211POPC   GL1 2896   1.818   7.158   4.263
  211POPC   GL2 2897   2.145   7.102   4.314
  211POPC   C1A 2898   1.728   7.125   4.674
  211POPC   D2A 2899   1.604   7.452   4.935
  211POPC   C3A 2900   1.675   7.386   5.364
  211POPC   C4A 2901   1.843   7.179   5.716
  211POPC   C1B 2902   2.231   7.230   4.737
  211POPC   C2B 2903   2.099   7.522   5.030
  211POPC   C3B 2904   2.163   7.583   5.448
  211POPC   C4B 2905   2.476   7.707   5.715
  212POPC   NC3 2906   9.483   1.859   3.942
  212POPC   PO4 2907   9.584   2.463   4.031
  212POPC   GL1 2908   9.688   2.127   4.360
  212POPC   GL2 2909   9.886   1.801   4.307
  212POPC   C1A 2910   9.724   2.044   4.816
  212POPC   D2A 2911   9.833   2.171   5.231
  212POPC   C3A 2912   9.520   2.157   5.561
  212POPC   C4A 2913   9.351   1.975   5.952
  212POPC   C1B 2914   9.710   1.557   4.676
  212POPC   C2B 2915   9.562   1.648   5.137
  212POPC   C3B 2916   9.562   1.624   5.595
  212POPC   C4B 2917   9.850   1.775   5.915
  213POPC   NC3 2918   2.071   5.387   4.002
  213POPC   PO4 2919   2.474   4.864   4.078
  213POPC   GL1 2920   2.132   5.035   4.387
  213POPC   GL2 2921   1.765   4.974   4.346
  213POPC   C1A 2922   1.876   5.370   4.661
  213POPC   D2A 2923   1.649   5.515   5.042
  213POPC   C3A 2924   1.789   5.442   5.477
  213POPC   C4A 2925   2.114   5.517   5.756
  213POPC   C1B 2926   1.708   4.732   4.765
  213POPC   C2B 2927   1.717   4.688   5.254
  213POPC   C3B 2928   1.988   4.904   5.595
  213POPC   C4B 2929   2.349   4.742   5.879
  214POPC   NC3 2930   1.340   8.473   4.016
  214POPC   PO4 2931   0.928   7.889   3.942
  214POPC   GL1 2932   1.087   8.104   4.320
  214POPC   GL2 2933   1.470   8.102   4.341
  214POPC   C1A 2934   0.980   8.162   4.776
  214POPC   D2A 2935   0.722   7.963   5.153
  214POPC   C3A 2936   0.874   8.043   5.572
  214POPC   C4A 2937   1.145   7.902   5.925
  214POPC   C1B 2938   1.446   8.405   4.692
  214POPC   C2B 2939   1.308   8.348   5.122
  214POPC   C3B 2940   1.392   8.201   5.537
  214POPC   C4B 2941   1.668   8.347   5.859
  215POPC   NC3 2942   5.140   8.561   3.521
  215POPC   PO4 2943   4.799   9.012   3.986
  215POPC   GL1 2944   4.885   8.896   4.372
  215POPC   GL2 2945   5.196   8.812   4.373
  215POPC   C1A 2946   4.847   8.663   4.735
  215POPC   D2A 2947   4.693   8.822   5.099
  215POPC   C3A 2948   4.710   8.620   5.489
  215POPC   C4A 2949   4.839   8.643   5.901
  215POPC   C1B 2950   5.191   9.090   4.735
  215POPC   C2B 2951   5.067   9.193   5.142
  215POPC   C3B 2952   5.064   9.006   5.544
  215POPC   C4B 2953   5.041   9.096   5.982
  216POPC   NC3 2954   2.886   6.651   3.860
  216POPC   PO4 2955   3.349   7.077   3.856
  216POPC   GL1 2956   3.114   6.916   4.259
  216POPC   GL2 2957   2.897   6.567   4.366
  216POPC   C1A 2958   3.028   6.898   4.730
  216POPC   D2A 2959   2.843   6.618   5.067
  216POPC   C3A 2960   2.805   6.798   5.491
  216POPC   C4A 2961   3.152   6.954   5.743
  216POPC   C1B 2962   2.619   6.341   4.677
  216POPC   C2B 2963   2.368   6.448   5.055
  216POPC   C3B 2964   2.500   6.360   5.478
  216POPC   C4B 2965   2.757   6.403   5.854
  217POPC   NC3 2966   2.853   3.717   3.418
  217POPC   PO4 2967   2.849   4.076   4.019
  217POPC   GL1 2968   2.809   4.257   4.446
  217POPC   GL2 2969   2.697   4.608   4.472
  217POPC   C1A 2970   3.020   4.194   4.864
  217POPC   D2A 2971   3.196   3.945   5.226
  217POPC   C3A 2972   2.968   3.953   5.640
  217POPC   C4A 2973   2.875   4.091   6.116
  217POPC   C1B 2974   2.598   4.484   4.898
  217POPC   C2B 2975   2.660   4.211   5.274
  217POPC   C3B 2976   2.555   4.244   5.720
  217POPC   C4B 2977   2.320   4.288   6.105
  218POPC   NC3 2978   3.121   7.465   4.063
  218POPC   PO4 2979   2.505   7.446   4.123
  218POPC   GL1 2980   2.708   7.235   4.409
  218POPC   GL2 2981   2.608   6.942   4.216
  218POPC   C1A 2982   2.755   7.420   4.833
  218POPC   D2A 2983   2.742   7.814   5.113
  218POPC   C3A 2984   2.972   7.813   5.517
  218POPC   C4A 2985   2.909   7.756   5.966
  218POPC   C1B 2986   2.534   6.832   4.652
  218POPC   C2B 2987   2.534   7.015   5.072
  218POPC   C3B 2988   2.696   7.340   5.367
  218POPC   C4B 2989   2.732   7.274   5.813
  219POPC   NC3 2990   2.522   4.412   4.043
  219POPC   PO4 2991   1.969   4.059   4.151
  219POPC   GL1 2992   2.271   4.215   4.451
  219POPC   GL2 2993   2.177   4.530   4.593
  219POPC   C1A 2994   2.306   4.072   4.898
  219POPC   D2A 2995   2.090   3.889   5.243
  219POPC   C3A 2996   2.165   3.916   5.716
  219POPC   C4A 2997   2.173   3.822   6.227
  219POPC   C1B 2998   1.830   4.234   4.757
  219POPC   C2B 2999   1.627   4.100   5.116
  219POPC   C3B 3000   1.699   4.055   5.546
  219POPC   C4B 3001   2.036   4.393   5.640
  220POPC   NC3 3002   5.604   0.001   4.045
  220POPC   PO4 3003   6.267   0.088   3.910
  220POPC   GL1 3004   6.033   0.035   4.334
  220POPC   GL2 3005   5.834   9.736   4.402
  220POPC   C1A 3006   5.699   0.142   4.674
  220POPC   D2A 3007   5.573   0.034   5.101
  220POPC   C3A 3008   5.811   9.879   5.442
  220POPC   C4A 3009   5.811   9.718   5.862
  220POPC   C1B 3010   5.914   9.683   4.837
  220POPC   C2B 3011   6.017   9.476   5.215
  220POPC   C3B 3012   5.749   9.278   5.548
  220POPC   C4B 3013   5.420   9.391   5.837
  221POPC   NC3 3014   9.749   4.068   3.905
  221POPC   PO4 3015   9.910   4.704   3.942
  221POPC   GL1 3016   9.918   4.343   4.290
  221POPC   GL2 3017   9.630   4.116   4.385
  221POPC   C1A 3018   0.046   4.126   4.689
  221POPC   D2A 3019   9.794   4.137   5.069
  221POPC   C3A 3020   9.812   4.033   5.487
  221POPC   C4A 3021   9.856   4.493   5.634
  221POPC   C1B 3022   9.413   4.006   4.763
  221POPC   C2B 3023   9.331   4.002   5.231
  221POPC   C3B 3024   9.369   4.276   5.619
  221POPC   C4B 3025   9.610   4.156   5.990
  222POPC   NC3 3026   9.417   3.183   4.102
  222POPC   PO4 3027   9.881   3.343   3.660
  222POPC   GL1 3028   9.673   3.625   4.138
  222POPC   GL2 3029   9.966   3.718   4.397
  222POPC   C1A 3030   9.567   3.530   4.619
  222POPC   D2A 3031   9.683   3.627   5.046
  222POPC   C3A 3032   9.505   3.491   5.405
  222POPC   C4A 3033   9.374   3.749   5.713
  222POPC   C1B 3034   0.036   3.400   4.761
  222POPC   C2B 3035   0.082   3.220   5.142
  222POPC   C3B 3036   9.998   3.339   5.541
  222POPC   C4B 3037   9.828   3.578   5.838
  223POPC   NC3 3038   1.227   0.129   4.074
  223POPC   PO4 3039   0.721   0.619   4.164
  223POPC   GL1 3040   1.084   0.416   4.481
  223POPC   GL2 3041   1.450   0.440   4.418
  223POPC   C1A 3042   1.371   0.259   4.871
  223POPC   D2A 3043   1.165   0.199   5.235
  223POPC   C3A 3044   1.256   0.122   5.642
  223POPC   C4A 3045   0.901   0.215   5.883
  223POPC   C1B 3046   1.460   0.744   4.721
  223POPC   C2B 3047   1.220   0.727   5.093
  223POPC   C3B 3048   1.268   0.648   5.533
  223POPC   C4B 3049   1.258   0.564   5.972
  224POPC   NC3 3050   8.095   3.052   3.559
  224POPC   PO4 3051   8.579   3.507   3.817
  224POPC   GL1 3052   8.290   3.562   4.257
  224POPC   GL2 3053   7.900   3.570   4.308
  224POPC   C1A 3054   8.243   3.364   4.686
  224POPC   D2A 3055   8.116   3.513   5.106
  224POPC   C3A 3056   7.839   3.396   5.429
  224POPC   C4A 3057   8.027   3.141   5.770
  224POPC   C1B 3058   7.780   3.612   4.750
  224POPC   C2B 3059   7.754   3.899   5.095
  224POPC   C3B 3060   7.921   3.933   5.506
  224POPC   C4B 3061   8.122   3.633   5.797
  225POPC   NC3 3062   6.551   9.685   3.988
  225POPC   PO4 3063   6.038   9.309   4.255
  225POPC   GL1 3064   6.363   9.546   4.444
  225POPC   GL2 3065   6.529   9.901   4.428
  225POPC   C1A 3066   6.451   9.639   4.856
  225POPC   D2A 3067   6.650   9.596   5.225
  225POPC   C3A 3068   6.360   9.770   5.494
  225POPC   C4A 3069   6.211   9.403   5.711
  225POPC   C1B 3070   6.913   9.882   4.712
  225POPC   C2B 3071   7.084   9.849   5.153
  225POPC   C3B 3072   6.888   9.890   5.570
  225POPC   C4B 3073   6.700   9.570   5.817
  226POPC   NC3 3074   9.944   5.819   4.014
  226POPC   PO4 3075   9.380   5.527   3.740
  226POPC   GL1 3076   9.512   5.510   4.177
  226POPC   GL2 3077   9.474   5.806   4.277
  226POPC   C1A 3078   9.616   5.477   4.666
  226POPC   D2A 3079   9.618   5.644   5.124
  226POPC   C3A 3080   9.676   5.394   5.538
  226POPC   C4A 3081   9.856   5.483   5.942
  226POPC   C1B 3082   9.498   5.980   4.688
  226POPC   C2B 3083   9.853   6.113   4.932
  226POPC   C3B 3084   9.901   6.034   5.353
  226POPC   C4B 3085   9.629   5.886   5.612
  227POPC   NC3 3086   9.035   5.773   3.971
  227POPC   PO4 3087   9.271   6.412   3.905
  227POPC   GL1 3088   9.137   6.181   4.328
  227POPC   GL2 3089   8.975   5.857   4.458
  227POPC   C1A 3090   9.051   6.214   4.794
  227POPC   D2A 3091   9.134   5.824   5.040
  227POPC   C3A 3092   9.137   5.887   5.486
  227POPC   C4A 3093   9.247   6.107   5.865
  227POPC   C1B 3094   8.752   5.576   4.754
  227POPC   C2B 3095   8.733   5.438   5.169
  227POPC   C3B 3096   8.694   5.660   5.536
  227POPC   C4B 3097   8.863   5.791   5.932
  228POPC   NC3 3098   8.475   3.139   4.065
  228POPC   PO4 3099   8.067   2.649   3.802
  228POPC   GL1 3100   7.991   2.743   4.226
  228POPC   GL2 3101   7.984   3.084   4.183
  228POPC   C1A 3102   8.142   2.761   4.665
  228POPC   D2A 3103   8.070   2.728   5.119
  228POPC   C3A 3104   8.419   2.602   5.372
  228POPC   C4A 3105   8.494   2.542   5.796
  228POPC   C1B 3106   7.788   3.118   4.596
  228POPC   C2B 3107   7.666   3.101   5.037
  228POPC   C3B 3108   7.699   2.861   5.459
  228POPC   C4B 3109   7.998   2.643   5.705
  229POPC   NC3 3110   5.929   2.789   3.972
  229POPC   PO4 3111   5.283   2.649   3.970
  229POPC   GL1 3112   5.565   2.745   4.342
  229POPC   GL2 3113   5.715   2.453   4.389
  229POPC   C1A 3114   5.817   2.780   4.791
  229POPC   D2A 3115   6.083   2.843   5.199
  229POPC   C3A 3116   5.924   3.017   5.644
  229POPC   C4A 3117   5.851   2.887   6.110
  229POPC   C1B 3118   5.955   2.271   4.726
  229POPC   C2B 3119   5.982   2.351   5.157
  229POPC   C3B 3120   5.813   2.529   5.506
  229POPC   C4B 3121   5.583   2.562   5.853
  230POPC   NC3 3122   1.305   6.049   3.864
  230POPC   PO4 3123   0.979   5.580   3.787
  230POPC   GL1 3124   1.042   5.830   4.223
  230POPC   GL2 3125   1.427   5.802   4.274
  230POPC   C1A 3126   1.061   6.069   4.652
  230POPC   D2A 3127   0.860   6.003   5.064
  230POPC   C3A 3128   1.091   6.082   5.446
  230POPC   C4A 3129   0.956   6.198   5.844
  230POPC   C1B 3130   1.277   5.612   4.655
  230POPC   C2B 3131   1.134   5.554   5.061
  230POPC   C3B 3132   1.304   5.597   5.436
  230POPC   C4B 3133   1.160   5.695   5.820
  231POPC   NC3 3134   4.932   8.555   4.010
  231POPC   PO4 3135   5.439   8.029   3.889
  231POPC   GL1 3136   5.316   8.292   4.277
  231POPC   GL2 3137   4.993   8.270   4.423
  231POPC   C1A 3138   5.373   8.490   4.725
  231POPC   D2A 3139   5.178   8.638   5.141
  231POPC   C3A 3140   5.251   8.506   5.580
  231POPC   C4A 3141   5.123   8.228   5.911
  231POPC   C1B 3142   4.991   8.185   4.879
  231POPC   C2B 3143   4.943   8.159   5.359
  231POPC   C3B 3144   4.813   7.876   5.712
  231POPC   C4B 3145   5.006   7.767   6.137
  232POPC   NC3 3146   7.108   1.884   3.678
  232POPC   PO4 3147   7.601   2.175   4.034
  232POPC   GL1 3148   7.660   2.109   4.401
  232POPC   GL2 3149   7.695   1.751   4.311
  232POPC   C1A 3150   7.450   2.133   4.800
  232POPC   D2A 3151   7.378   1.938   5.197
  232POPC   C3A 3152   7.058   2.083   5.506
  232POPC   C4A 3153   7.060   2.068   5.974
  232POPC   C1B 3154   7.811   1.785   4.752
  232POPC   C2B 3155   7.800   1.578   5.117
  232POPC   C3B 3156   7.795   1.777   5.481
  232POPC   C4B 3157   7.477   1.905   5.723
  233POPC   NC3 3158   0.470   0.901   3.894
  233POPC   PO4 3159   0.689   1.591   3.933
  233POPC   GL1 3160   0.526   1.278   4.242
  233POPC   GL2 3161   0.166   1.219   4.207
  233POPC   C1A 3162   0.500   1.019   4.653
  233POPC   D2A 3163   0.771   0.990   5.060
  233POPC   C3A 3164   0.738   0.894   5.524
  233POPC   C4A 3165   0.661   1.186   5.884
  233POPC   C1B 3166   0.205   1.437   4.612
  233POPC   C2B 3167   0.474   1.414   4.978
  233POPC   C3B 3168   0.420   1.311   5.416
  233POPC   C4B 3169   0.243   1.464   5.813
  234POPC   NC3 3170   3.036   3.667   3.914
  234POPC   PO4 3171   2.462   3.930   3.572
  234POPC   GL1 3172   2.431   3.805   4.072
  234POPC   GL2 3173   2.602   3.486   4.134
  234POPC   C1A 3174   2.564   3.813   4.550
  234POPC   D2A 3175   2.757   3.769   4.998
  234POPC   C3A 3176   2.551   3.724   5.434
  234POPC   C4A 3177   2.575   3.749   5.921
  234POPC   C1B 3178   2.807   3.366   4.541
  234POPC   C2B 3179   3.014   3.310   4.949
  234POPC   C3B 3180   3.005   3.469   5.366
  234POPC   C4B 3181   2.785   3.350   5.726
  235POPC   NC3 3182   0.364   3.202   3.985
  235POPC   PO4 3183   0.422   2.520   3.834
  235POPC   GL1 3184   0.207   2.784   4.208
  235POPC   GL2 3185   9.992   2.560   4.373
  235POPC   C1A 3186   0.245   2.939   4.681
  235POPC   D2A 3187   0.418   2.827   5.119
  235POPC   C3A 3188   0.250   2.808   5.568
  235POPC   C4A 3189   0.171   3.079   5.950
  235POPC   C1B 3190   0.035   2.456   4.825
  235POPC   C2B 3191   0.352   2.280   5.125
  235POPC   C3B 3192   0.696   2.466   5.383
  235POPC   C4B 3193   0.798   2.810   5.649
  236POPC   NC3 3194   1.885   1.304   4.037
  236POPC   PO4 3195   1.661   0.604   4.012
  236POPC   GL1 3196   1.887   0.829   4.347
  236POPC   GL2 3197   2.205   0.747   4.436
  236POPC   C1A 3198   1.914   0.944   4.806
  236POPC   D2A 3199   1.652   1.001   5.145
  236POPC   C3A 3200   1.773   0.765   5.485
  236POPC   C4A 3201   1.639   0.887   5.871
  236POPC   C1B 3202   2.257   1.218   4.582
  236POPC   C2B 3203   2.174   1.450   4.996
  236POPC   C3B 3204   2.130   1.519   5.447
  236POPC   C4B 3205   2.068   1.139   5.715
  237POPC   NC3 3206   2.723   9.810   3.945
  237POPC   PO4 3207   3.104   9.214   4.104
  237POPC   GL1 3208   2.906   9.407   4.490
  237POPC   GL2 3209   2.614   9.585   4.395
  237POPC   C1A 3210   2.691   9.519   4.912
  237POPC   D2A 3211   2.335   9.395   5.185
  237POPC   C3A 3212   2.498   9.336   5.592
  237POPC   C4A 3213   2.842   9.352   5.828
  237POPC   C1B 3214   2.865   9.904   4.622
  237POPC   C2B 3215   2.911   0.003   5.062
  237POPC   C3B 3216   2.659   9.783   5.388
  237POPC   C4B 3217   2.593   9.807   5.827
  238POPC   NC3 3218   7.815   4.433   3.884
  238POPC   PO4 3219   8.459   4.479   4.022
  238POPC   GL1 3220   8.130   4.423   4.299
  238POPC   GL2 3221   8.027   4.072   4.236
  238POPC   C1A 3222   8.295   4.521   4.701
  238POPC   D2A 3223   8.592   4.417   5.025
  238POPC   C3A 3224   8.401   4.456   5.414
  238POPC   C4A 3225   8.063   4.406   5.729
  238POPC   C1B 3226   8.270   3.967   4.661
  238POPC   C2B 3227   8.326   3.973   5.131
  238POPC   C3B 3228   8.430   3.985   5.571
  238POPC   C4B 3229   8.322   4.063   5.980
  239POPC   NC3 3230   9.613   6.709   3.951
  239POPC   PO4 3231   9.960   6.203   4.266
  239POPC   GL1 3232   9.718   6.545   4.426
  239POPC   GL2 3233   9.909   6.886   4.330
  239POPC   C1A 3234   9.491   6.488   4.820
  239POPC   D2A 3235   9.419   6.235   5.205
  239POPC   C3A 3236   9.553   6.424   5.603
  239POPC   C4A 3237   9.514   6.444   6.096
  239POPC   C1B 3238   9.707   6.961   4.722
  239POPC   C2B 3239   9.705   6.833   5.138
  239POPC   C3B 3240   9.833   7.016   5.505
  239POPC   C4B 3241   9.755   6.838   5.876
  240POPC   NC3 3242   5.641   1.000   4.077
  240POPC   PO4 3243   5.936   1.438   3.652
  240POPC   GL1 3244   5.902   1.476   4.219
  240POPC   GL2 3245   5.600   1.433   4.358
  240POPC   C1A 3246   5.902   1.260   4.700
  240POPC   D2A 3247   6.107   1.046   5.032
  240POPC   C3A 3248   5.879   1.081   5.426
  240POPC   C4A 3249   5.855   0.971   5.852
  240POPC   C1B 3250   5.432   1.549   4.753
  240POPC   C2B 3251   5.580   1.453   5.160
  240POPC   C3B 3252   5.571   1.479   5.605
  240POPC   C4B 3253   5.398   1.238   5.936
  241POPC   NC3 3254   2.124   0.554   3.955
  241POPC   PO4 3255   1.714   0.174   3.593
  241POPC   GL1 3256   1.729   0.120   4.108
  241POPC   GL2 3257   1.958   0.300   4.333
  241POPC   C1A 3258   1.692   9.988   4.576
  241POPC   D2A 3259   1.857   9.934   5.008
  241POPC   C3A 3260   1.701   0.249   5.327
  241POPC   C4A 3261   1.689   0.331   5.793
  241POPC   C1B 3262   1.877   0.428   4.763
  241POPC   C2B 3263   2.112   0.584   5.117
  241POPC   C3B 3264   2.309   0.644   5.521
  241POPC   C4B 3265   2.070   0.637   5.904
  242POPC   NC3 3266   6.332   3.251   3.421
  242POPC   PO4 3267   6.092   3.230   4.063
  242POPC   GL1 3268   6.450   3.183   4.401
  242POPC   GL2 3269   6.855   3.192   4.373
  242POPC   C1A 3270   6.314   3.145   4.822
  242POPC   D2A 3271   6.204   3.322   5.227
  242POPC   C3A 3272   6.423   3.154   5.573
  242POPC   C4A 3273   6.539   3.529   5.783
  242POPC   C1B 3274   6.876   3.312   4.849
  242POPC   C2B 3275   6.846   3.352   5.326
  242POPC   C3B 3276   6.970   3.265   5.782
  242POPC   C4B 3277   6.773   3.335   6.197
  243POPC   NC3 3278   3.497   0.426   3.794
  243POPC   PO4 3279   3.186   1.000   3.941
  243POPC   GL1 3280   3.461   0.731   4.240
  243POPC   GL2 3281   3.674   0.399   4.254
  243POPC   C1A 3282   3.477   0.555   4.691
  243POPC   D2A 3283   3.420   0.161   4.980
  243POPC   C3A 3284   3.232   0.233   5.411
  243POPC   C4A 3285   3.363   0.442   5.801
  243POPC   C1B 3286   3.908   0.307   4.647
  243POPC   C2B 3287   3.826   0.475   5.074
  243POPC   C3B 3288   3.745   0.302   5.464
  243POPC   C4B 3289   3.884   0.317   5.885
  244POPC   NC3 3290   8.722   1.710   3.946
  244POPC   PO4 3291   9.184   2.105   3.705
  244POPC   GL1 3292   9.178   2.125   4.248
  244POPC   GL2 3293   9.065   1.795   4.313
  244POPC   C1A 3294   8.979   2.260   4.705
  244POPC   D2A 3295   8.605   2.236   5.041
  244POPC   C3A 3296   8.647   2.140   5.522
  244POPC   C4A 3297   8.886   2.200   5.965
  244POPC   C1B 3298   9.273   1.838   4.700
  244POPC   C2B 3299   9.244   2.053   5.114
  244POPC   C3B 3300   9.091   1.864   5.509
  244POPC   C4B 3301   8.759   1.733   5.804
  245POPC   NC3 3302   0.337   9.862   4.000
  245POPC   PO4 3303   0.733   9.347   3.863
  245POPC   GL1 3304   0.613   9.470   4.269
  245POPC   GL2 3305   0.318   9.344   4.395
  245POPC   C1A 3306   0.652   9.530   4.736
  245POPC   D2A 3307   0.519   9.574   5.156
  245POPC   C3A 3308   0.778   9.373   5.480
  245POPC   C4A 3309   0.467   9.314   5.794
  245POPC   C1B 3310   0.145   9.596   4.757
  245POPC   C2B 3311   0.073   9.829   5.136
  245POPC   C3B 3312   0.281   9.804   5.549
  245POPC   C4B 3313   0.114   9.655   5.918
  246POPC   NC3 3314   7.314   8.726   3.912
  246POPC   PO4 3315   6.782   9.291   4.113
  246POPC   GL1 3316   7.165   9.112   4.321
  246POPC   GL2 3317   7.475   8.956   4.341
  246POPC   C1A 3318   7.136   8.891   4.723
  246POPC   D2A 3319   6.921   8.989   5.114
  246POPC   C3A 3320   7.172   8.955   5.499
  246POPC   C4A 3321   7.010   9.113   5.917
  246POPC   C1B 3322   7.654   8.953   4.773
  246POPC   C2B 3323   7.646   8.892   5.233
  246POPC   C3B 3324   7.533   8.577   5.561
  246POPC   C4B 3325   7.239   8.564   5.850
  247POPC   NC3 3326   5.694   7.647   3.952
  247POPC   PO4 3327   6.122   7.110   3.960
  247POPC   GL1 3328   6.037   7.449   4.292
  247POPC   GL2 3329   5.700   7.397   4.401
  247POPC   C1A 3330   5.925   7.623   4.775
  247POPC   D2A 3331   5.886   7.866   5.226
  247POPC   C3A 3332   5.893   7.693   5.665
  247POPC   C4A 3333   5.907   7.579   6.117
  247POPC   C1B 3334   6.042   7.133   4.672
  247POPC   C2B 3335   6.354   7.190   5.037
  247POPC   C3B 3336   6.310   7.251   5.476
  247POPC   C4B 3337   5.972   7.194   5.787
  248POPC   NC3 3338   2.733   0.907   3.802
  248POPC   PO4 3339   2.592   0.253   3.911
  248POPC   GL1 3340   2.930   0.553   4.149
  248POPC   GL2 3341   3.144   0.314   4.358
  248POPC   C1A 3342   3.052   0.804   4.566
  248POPC   D2A 3343   3.091   0.603   5.010
  248POPC   C3A 3344   2.888   0.735   5.397
  248POPC   C4A 3345   2.885   0.660   5.844
  248POPC   C1B 3346   2.757   0.394   4.647
  248POPC   C2B 3347   2.611   0.429   5.095
  248POPC   C3B 3348   2.711   0.272   5.524
  248POPC   C4B 3349   2.478   0.322   5.905
  249POPC   NC3 3350   8.827   6.737   3.912
  249POPC   PO4 3351   8.658   6.119   4.096
  249POPC   GL1 3352   8.751   6.515   4.362
  249POPC   GL2 3353   9.124   6.682   4.328
  249POPC   C1A 3354   8.765   6.668   4.780
  249POPC   D2A 3355   9.056   6.626   5.128
  249POPC   C3A 3356   8.939   6.370   5.454
  249POPC   C4A 3357   8.796   6.295   5.858
  249POPC   C1B 3358   9.206   6.893   4.697
  249POPC   C2B 3359   9.257   7.087   5.124
  249POPC   C3B 3360   9.337   6.905   5.534
  249POPC   C4B 3361   9.143   6.654   5.838
  250POPC   NC3 3362   4.830   9.546   3.920
  250POPC   PO4 3363   5.552   9.614   3.774
  250POPC   GL1 3364   5.349   9.583   4.236
  250POPC   GL2 3365   5.045   9.378   4.338
  250POPC   C1A 3366   5.383   9.677   4.698
  250POPC   D2A 3367   5.491   9.517   5.136
  250POPC   C3A 3368   5.292   9.752   5.491
  250POPC   C4A 3369   5.297   9.866   5.949
  250POPC   C1B 3370   4.767   9.372   4.721
  250POPC   C2B 3371   4.836   9.671   5.047
  250POPC   C3B 3372   4.753   9.760   5.466
  250POPC   C4B 3373   4.887   9.570   5.846
  251POPC   NC3 3374   7.219   1.936   4.168
  251POPC   PO4 3375   6.629   1.866   3.804
  251POPC   GL1 3376   6.684   1.802   4.222
  251POPC   GL2 3377   6.350   1.780   4.365
  251POPC   C1A 3378   6.805   1.717   4.659
  251POPC   D2A 3379   6.831   1.965   5.046
  251POPC   C3A 3380   6.720   1.710   5.409
  251POPC   C4A 3381   6.818   1.628   5.843
  251POPC   C1B 3382   6.349   1.911   4.829
  251POPC   C2B 3383   6.368   2.045   5.271
  251POPC   C3B 3384   6.540   2.088   5.701
  251POPC   C4B 3385   6.371   1.831   6.019
  252POPC   NC3 3386   1.579   2.012   3.865
  252POPC   PO4 3387   1.434   1.427   3.983
  252POPC   GL1 3388   1.431   1.721   4.329
  252POPC   GL2 3389   1.304   2.065   4.304
  252POPC   C1A 3390   1.334   1.795   4.795
  252POPC   D2A 3391   1.082   1.683   5.197
  252POPC   C3A 3392   1.252   1.756   5.626
  252POPC   C4A 3393   1.546   1.829   5.986
  252POPC   C1B 3394   1.209   2.407   4.577
  252POPC   C2B 3395   0.975   2.321   4.951
  252POPC   C3B 3396   1.154   2.192   5.332
  252POPC   C4B 3397   1.113   2.382   5.734
  253POPC   NC3 3398   0.134   3.619   3.941
  253POPC   PO4 3399   0.817   3.221   3.990
  253POPC   GL1 3400   0.663   3.168   4.388
  253POPC   GL2 3401   0.398   3.414   4.423
  253POPC   C1A 3402   0.653   3.217   4.810
  253POPC   D2A 3403   0.542   3.466   5.131
  253POPC   C3A 3404   0.495   3.240   5.486
  253POPC   C4A 3405   0.650   3.248   5.885
  253POPC   C1B 3406   0.412   3.740   4.706
  253POPC   C2B 3407   0.166   3.796   5.081
  253POPC   C3B 3408   0.290   3.744   5.492
  253POPC   C4B 3409   0.337   3.643   5.902
  254POPC   NC3 3410   3.908   9.754   3.593
  254POPC   PO4 3411   4.369   9.437   3.817
  254POPC   GL1 3412   4.477   9.361   4.255
  254POPC   GL2 3413   4.590   9.701   4.377
  254POPC   C1A 3414   4.229   9.446   4.652
  254POPC   D2A 3415   4.321   9.613   5.098
  254POPC   C3A 3416   4.089   9.394   5.459
  254POPC   C4A 3417   3.842   9.569   5.826
  254POPC   C1B 3418   4.280   9.950   4.678
  254POPC   C2B 3419   4.020   0.013   5.083
  254POPC   C3B 3420   4.086   9.921   5.539
  254POPC   C4B 3421   4.373   9.666   5.807
  255POPC   NC3 3422   2.642   9.158   4.127
  255POPC   PO4 3423   2.732   8.525   3.874
  255POPC   GL1 3424   2.614   8.650   4.278
  255POPC   GL2 3425   2.920   8.812   4.412
  255POPC   C1A 3426   2.410   8.678   4.679
  255POPC   D2A 3427   2.346   8.521   5.124
  255POPC   C3A 3428   2.449   8.850   5.413
  255POPC   C4A 3429   2.809   8.860   5.702
  255POPC   C1B 3430   2.766   9.027   4.789
  255POPC   C2B 3431   2.867   9.095   5.207
  255POPC   C3B 3432   3.145   8.749   5.308
  255POPC   C4B 3433   3.256   8.596   5.710
  256POPC   NC3 3434   0.323   9.079   3.898
  256POPC   PO4 3435   0.957   8.736   4.057
  256POPC   GL1 3436   0.657   8.943   4.262
  256POPC   GL2 3437   0.418   8.697   4.234
  256POPC   C1A 3438   0.516   8.978   4.675
  256POPC   D2A 3439   0.710   9.107   5.030
  256POPC   C3A 3440   0.555   8.930   5.397
  256POPC   C4A 3441   0.724   8.857   5.798
  256POPC   C1B 3442   0.136   8.623   4.606
  256POPC   C2B 3443   0.238   8.690   5.036
  256POPC   C3B 3444   0.049   8.806   5.421
  256POPC   C4B 3445   0.189   8.914   5.824
  257POPC   NC3 3446   6.356   1.252   3.752
  257POPC   PO4 3447   6.805   0.761   3.873
  257POPC   GL1 3448   6.842   1.058   4.230
  257POPC   GL2 3449   6.552   1.297   4.234
  257POPC   C1A 3450   6.900   1.201   4.667
  257POPC   D2A 3451   6.953   1.026   5.106
  257POPC   C3A 3452   6.816   1.215   5.484
  257POPC   C4A 3453   6.540   1.070   5.809
  257POPC   C1B 3454   6.403   1.359   4.641
  257POPC   C2B 3455   6.553   1.382   5.046
  257POPC   C3B 3456   6.320   1.365   5.434
  257POPC   C4B 3457   6.146   1.387   5.850
  258POPC   NC3 3458   5.215   1.474   3.634
  258POPC   PO4 3459   4.799   0.958   3.916
  258POPC   GL1 3460   5.152   1.015   4.262
  258POPC   GL2 3461   4.979   1.201   4.458
  258POPC   C1A 3462   5.422   1.034   4.666
  258POPC   D2A 3463   5.475   0.962   5.110
  258POPC   C3A 3464   5.092   0.985   5.340
  258POPC   C4A 3465   4.954   0.998   5.763
  258POPC   C1B 3466   5.023   1.251   4.896
  258POPC   C2B 3467   4.826   1.417   5.270
  258POPC   C3B 3468   5.031   1.476   5.650
  258POPC   C4B 3469   4.925   1.461   6.093
  259POPC   NC3 3470   6.434   7.451   3.934
  259POPC   PO4 3471   7.076   7.410   3.964
  259POPC   GL1 3472   7.040   7.417   4.402
  259POPC   GL2 3473   6.735   7.536   4.347
  259POPC   C1A 3474   6.895   7.317   4.829
  259POPC   D2A 3475   6.774   7.514   5.223
  259POPC   C3A 3476   6.790   7.338   5.628
  259POPC   C4A 3477   6.834   6.894   5.643
  259POPC   C1B 3478   6.416   7.502   4.638
  259POPC   C2B 3479   6.349   7.721   5.034
  259POPC   C3B 3480   6.374   7.753   5.495
  259POPC   C4B 3481   6.373   7.523   5.909
  260POPC   NC3 3482   6.136   1.774   3.885
  260POPC   PO4 3483   6.109   2.339   4.050
  260POPC   GL1 3484   5.888   1.987   4.273
  260POPC   GL2 3485   5.540   1.949   4.358
  260POPC   C1A 3486   5.899   1.758   4.655
  260POPC   D2A 3487   5.844   1.870   5.073
  260POPC   C3A 3488   5.985   1.779   5.491
  260POPC   C4A 3489   6.031   2.144   5.743
  260POPC   C1B 3490   5.432   2.068   4.787
  260POPC   C2B 3491   5.485   2.210   5.223
  260POPC   C3B 3492   5.528   2.033   5.645
  260POPC   C4B 3493   5.329   1.763   5.967
  261POPC   NC3 3494   0.696   8.310   4.016
  261POPC   PO4 3495   0.186   7.845   3.900
  261POPC   GL1 3496   0.447   7.892   4.254
  261POPC   GL2 3497   0.293   8.213   4.331
  261POPC   C1A 3498   0.489   7.944   4.705
  261POPC   D2A 3499   0.252   8.178   5.026
  261POPC   C3A 3500   0.217   8.013   5.460
  261POPC   C4A 3501   0.426   8.060   5.882
  261POPC   C1B 3502   0.593   8.450   4.659
  261POPC   C2B 3503   0.703   8.483   5.111
  261POPC   C3B 3504   0.498   8.445   5.537
  261POPC   C4B 3505   0.091   8.421   5.772
  262POPC   NC3 3506   9.925   8.234   3.923
  262POPC   PO4 3507   9.388   7.825   3.802
  262POPC   GL1 3508   9.567   7.984   4.191
  262POPC   GL2 3509   9.885   7.842   4.299
  262POPC   C1A 3510   9.463   7.863   4.643
  262POPC   D2A 3511   9.693   7.920   5.048
  262POPC   C3A 3512   9.502   7.911   5.476
  262POPC   C4A 3513   9.778   7.853   5.862
  262POPC   C1B 3514   9.847   8.197   4.595
  262POPC   C2B 3515   9.807   8.432   4.964
  262POPC   C3B 3516   9.797   8.336   5.375
  262POPC   C4B 3517   9.597   8.324   5.784
  263POPC   NC3 3518   9.620   0.615   4.055
  263POPC   PO4 3519   0.043   0.121   3.728
  263POPC   GL1 3520   9.889   0.196   4.196
  263POPC   GL2 3521   9.571   0.179   4.386
  263POPC   C1A 3522   9.985   0.154   4.670
  263POPC   D2A 3523   9.814   0.286   5.106
  263POPC   C3A 3524   9.989   0.245   5.545
  263POPC   C4A 3525   0.053   0.406   6.014
  263POPC   C1B 3526   9.651   0.547   4.686
  263POPC   C2B 3527   9.427   0.678   5.054
  263POPC   C3B 3528   9.658   0.702   5.425
  263POPC   C4B 3529   9.609   0.474   5.804
  264POPC   NC3 3530   4.319   8.984   3.904
  264POPC   PO4 3531   4.562   8.354   3.795
  264POPC   GL1 3532   4.463   8.618   4.233
  264POPC   GL2 3533   4.107   8.728   4.334
  264POPC   C1A 3534   4.455   8.977   4.599
  264POPC   D2A 3535   4.288   9.113   5.022
  264POPC   C3A 3536   4.588   9.256   5.353
  264POPC   C4A 3537   4.596   9.110   5.762
  264POPC   C1B 3538   4.183   8.630   4.822
  264POPC   C2B 3539   4.225   8.658   5.273
  264POPC   C3B 3540   4.176   8.845   5.654
  264POPC   C4B 3541   3.979   8.788   6.048
  265POPC   NC3 3542   8.392   5.846   3.855
  265POPC   PO4 3543   7.798   5.827   3.963
  265POPC   GL1 3544   8.107   5.706   4.296
  265POPC   GL2 3545   8.476   5.722   4.349
  265POPC   C1A 3546   8.182   5.711   4.774
  265POPC   D2A 3547   8.282   5.737   5.228
  265POPC   C3A 3548   7.976   5.873   5.579
  265POPC   C4A 3549   7.576   6.151   5.672
  265POPC   C1B 3550   8.559   6.055   4.721
  265POPC   C2B 3551   8.692   6.030   5.151
  265POPC   C3B 3552   8.460   6.118   5.532
  265POPC   C4B 3553   8.379   5.919   5.918
  266POPC   NC3 3554   8.759   0.432   3.761
  266POPC   PO4 3555   9.336   0.279   3.949
  266POPC   GL1 3556   9.067   0.499   4.204
  266POPC   GL2 3557   8.739   0.355   4.294
  266POPC   C1A 3558   9.160   0.458   4.624
  266POPC   D2A 3559   9.344   0.171   4.912
  266POPC   C3A 3560   9.355   0.252   5.373
  266POPC   C4A 3561   9.139   0.514   5.660
  266POPC   C1B 3562   8.677   0.541   4.732
  266POPC   C2B 3563   8.928   0.456   5.086
  266POPC   C3B 3564   8.731   0.353   5.432
  266POPC   C4B 3565   8.516   0.633   5.656
  267POPC   NC3 3566   6.558   2.342   3.884
  267POPC   PO4 3567   6.243   2.842   3.621
  267POPC   GL1 3568   6.408   2.783   4.098
  267POPC   GL2 3569   6.726   2.683   4.262
  267POPC   C1A 3570   6.279   2.691   4.567
  267POPC   D2A 3571   6.446   2.448   4.943
  267POPC   C3A 3572   6.432   2.531   5.418
  267POPC   C4A 3573   6.239   2.641   5.820
  267POPC   C1B 3574   6.739   2.837   4.712
  267POPC   C2B 3575   6.631   2.918   5.135
  267POPC   C3B 3576   6.833   2.851   5.504
  267POPC   C4B 3577   6.860   2.484   5.768
  268POPC   NC3 3578   1.095   9.221   4.118
  268POPC   PO4 3579   1.578   9.457   3.661
  268POPC   GL1 3580   1.582   9.166   4.178
  268POPC   GL2 3581   1.404   8.851   4.335
  268POPC   C1A 3582   1.437   9.225   4.655
  268POPC   D2A 3583   1.205   9.276   5.006
  268POPC   C3A 3584   1.423   9.221   5.371
  268POPC   C4A 3585   1.201   9.058   5.684
  268POPC   C1B 3586   1.107   8.815   4.724
  268POPC   C2B 3587   1.088   8.815   5.186
  268POPC   C3B 3588   1.019   8.556   5.521
  268POPC   C4B 3589   1.235   8.598   5.884
  269POPC   NC3 3590   1.756   2.705   3.923
  269POPC   PO4 3591   2.376   2.443   3.819
  269POPC   GL1 3592   2.229   2.569   4.259
  269POPC   GL2 3593   2.064   2.895   4.305
  269POPC   C1A 3594   2.268   2.575   4.755
  269POPC   D2A 3595   2.409   2.653   5.217
  269POPC   C3A 3596   2.220   2.504   5.602
  269POPC   C4A 3597   2.354   2.384   6.048
  269POPC   C1B 3598   2.025   3.034   4.741
  269POPC   C2B 3599   1.963   2.894   5.149
  269POPC   C3B 3600   1.974   2.958   5.572
  269POPC   C4B 3601   1.746   3.177   5.838
  270POPC   NC3 3602   0.552   6.608   3.916
  270POPC   PO4 3603   0.203   6.094   3.732
  270POPC   GL1 3604   0.454   6.190   4.173
  270POPC   GL2 3605   0.331   6.545   4.367
  270POPC   C1A 3606   0.555   6.179   4.632
  270POPC   D2A 3607   0.574   6.464   5.005
  270POPC   C3A 3608   0.667   6.415   5.454
  270POPC   C4A 3609   0.470   6.338   5.880
  270POPC   C1B 3610   0.093   6.574   4.787
  270POPC   C2B 3611   0.098   6.489   5.240
  270POPC   C3B 3612   0.231   6.705   5.613
  270POPC   C4B 3613   0.230   6.787   6.075
  271POPC   NC3 3614   9.800   7.477   3.889
  271POPC   PO4 3615   9.264   7.036   3.964
  271POPC   GL1 3616   9.435   7.156   4.321
  271POPC   GL2 3617   9.445   7.497   4.248
  271POPC   C1A 3618   9.310   7.382   4.723
  271POPC   D2A 3619   9.258   7.626   5.099
  271POPC   C3A 3620   9.281   7.424   5.512
  271POPC   C4A 3621   9.537   7.299   5.879
  271POPC   C1B 3622   9.784   7.446   4.584
  271POPC   C2B 3623   9.720   7.377   5.050
  271POPC   C3B 3624   9.831   7.523   5.465
  271POPC   C4B 3625   0.050   7.371   5.857
  272POPC   NC3 3626   7.026   0.356   3.958
  272POPC   PO4 3627   7.554   0.631   4.230
  272POPC   GL1 3628   7.162   0.654   4.369
  272POPC   GL2 3629   7.107   0.284   4.455
  272POPC   C1A 3630   6.986   0.683   4.741
  272POPC   D2A 3631   7.033   0.336   4.994
  272POPC   C3A 3632   7.174   0.318   5.396
  272POPC   C4A 3633   7.045   0.305   5.838
  272POPC   C1B 3634   7.483   0.260   4.748
  272POPC   C2B 3635   7.876   0.218   4.984
  272POPC   C3B 3636   7.735   0.193   5.399
  272POPC   C4B 3637   7.529   0.484   5.703
  273POPC   NC3 3638   9.615   9.927   3.869
  273POPC   PO4 3639   0.010   9.425   4.016
  273POPC   GL1 3640   9.898   9.706   4.340
  273POPC   GL2 3641   9.589   9.653   4.299
  273POPC   C1A 3642   9.666   9.794   4.782
  273POPC   D2A 3643   9.466   9.759   5.194
  273POPC   C3A 3644   9.745   9.761   5.542
  273POPC   C4A 3645   9.721   9.987   5.922
  273POPC   C1B 3646   9.513   9.343   4.644
  273POPC   C2B 3647   9.675   9.295   5.074
  273POPC   C3B 3648   9.452   9.314   5.474
  273POPC   C4B 3649   9.333   9.641   5.834
  274POPC   NC3 3650   0.581   2.059   3.910
  274POPC   PO4 3651   0.555   2.474   4.382
  274POPC   GL1 3652   0.718   2.054   4.430
  274POPC   GL2 3653   0.453   1.804   4.342
  274POPC   C1A 3654   0.729   1.849   4.841
  274POPC   D2A 3655   0.550   1.821   5.279
  274POPC   C3A 3656   0.772   2.021   5.617
  274POPC   C4A 3657   0.686   2.305   6.000
  274POPC   C1B 3658   0.226   1.950   4.702
  274POPC   C2B 3659   0.061   1.711   5.035
  274POPC   C3B 3660   0.050   1.749   5.444
  274POPC   C4B 3661   0.258   2.064   5.708
  275POPC   NC3 3662   9.550   1.062   3.731
  275POPC   PO4 3663   8.965   0.852   3.748
  275POPC   GL1 3664   9.275   0.966   4.164
  275POPC   GL2 3665   9.643   1.106   4.225
  275POPC   C1A 3666   9.325   1.220   4.597
  275POPC   D2A 3667   9.566   1.165   4.983
  275POPC   C3A 3668   9.369   1.169   5.378
  275POPC   C4A 3669   9.404   0.966   5.779
  275POPC   C1B 3670   9.895   1.017   4.601
  275POPC   C2B 3671   0.079   1.078   5.032
  275POPC   C3B 3672   9.899   1.228   5.447
  275POPC   C4B 3673   9.795   1.254   5.909
  276POPC   NC3 3674   3.655   1.179   3.957
  276POPC   PO4 3675   3.158   1.703   4.077
  276POPC   GL1 3676   3.440   1.567   4.400
  276POPC   GL2 3677   3.310   1.242   4.358
  276POPC   C1A 3678   3.544   1.523   4.880
  276POPC   D2A 3679   3.308   1.559   5.315
  276POPC   C3A 3680   3.486   1.399   5.719
  276POPC   C4A 3681   3.284   1.386   6.153
  276POPC   C1B 3682   3.626   1.060   4.606
  276POPC   C2B 3683   3.644   0.944   5.012
  276POPC   C3B 3684   3.470   0.737   5.378
  276POPC   C4B 3685   3.730   0.790   5.737
  277POPC   NC3 3686   2.401   2.905   3.788
  277POPC   PO4 3687   3.042   3.185   3.893
  277POPC   GL1 3688   2.741   2.984   4.145
  277POPC   GL2 3689   2.744   2.630   4.117
  277POPC   C1A 3690   2.526   2.946   4.527
  277POPC   D2A 3691   2.771   2.834   4.890
  277POPC   C3A 3692   2.751   3.020   5.303
  277POPC   C4A 3693   2.491   2.942   5.673
  277POPC   C1B 3694   2.698   2.437   4.515
  277POPC   C2B 3695   2.698   2.325   4.945
  277POPC   C3B 3696   2.935   2.504   5.289
  277POPC   C4B 3697   2.743   2.495   5.686
  278POPC   NC3 3698   0.515   0.398   3.812
  278POPC   PO4 3699   9.967   0.882   3.866
  278POPC   GL1 3700   0.163   0.647   4.254
  278POPC   GL2 3701   0.366   0.293   4.304
  278POPC   C1A 3702   0.187   0.613   4.732
  278POPC   D2A 3703   0.387   0.638   5.158
  278POPC   C3A 3704   0.232   0.725   5.590
  278POPC   C4A 3705   0.522   0.597   5.946
  278POPC   C1B 3706   0.464   0.016   4.668
  278POPC   C2B 3707   0.528   0.098   5.123
  278POPC   C3B 3708   0.499   0.263   5.566
  278POPC   C4B 3709   0.430   0.081   6.025
  279POPC   NC3 3710   4.101   2.711   3.944
  279POPC   PO4 3711   4.550   2.283   3.908
  279POPC   GL1 3712   4.631   2.650   4.185
  279POPC   GL2 3713   4.401   2.919   4.282
  279POPC   C1A 3714   4.575   2.654   4.676
  279POPC   D2A 3715   4.286   2.611   5.041
  279POPC   C3A 3716   4.422   2.366   5.386
  279POPC   C4A 3717   4.698   2.380   5.772
  279POPC   C1B 3718   4.084   2.887   4.645
  279POPC   C2B 3719   3.832   2.859   5.058
  279POPC   C3B 3720   3.879   2.691   5.487
  279POPC   C4B 3721   4.157   2.489   5.799
  280POPC   NC3 3722   4.299   1.918   3.761
  280POPC   PO4 3723   4.912   1.803   3.767
  280POPC   GL1 3724   4.597   1.884   4.198
  280POPC   GL2 3725   4.572   2.201   4.409
  280POPC   C1A 3726   4.402   1.782   4.613
  280POPC   D2A 3727   4.454   2.074   4.948
  280POPC   C3A 3728   4.601   1.891   5.312
  280POPC   C4A 3729   4.400   1.956   5.712
  280POPC   C1B 3730   4.160   2.328   4.603
  280POPC   C2B 3731   3.947   2.235   5.016
  280POPC   C3B 3732   3.927   2.165   5.489
  280POPC   C4B 3733   3.968   2.051   5.967
  281POPC   NC3 3734   3.576   9.353   4.088
  281POPC   PO4 3735   3.534   9.960   3.746
  281POPC   GL1 3736   3.580   9.880   4.208
  281POPC   GL2 3737   3.288   9.735   4.366
  281POPC   C1A 3738   3.763   9.760   4.642
  281POPC   D2A 3739   3.783   9.535   5.047
  281POPC   C3A 3740   3.586   9.789   5.388
  281POPC   C4A 3741   3.529   9.966   5.812
  281POPC   C1B 3742   3.271   9.648   4.841
  281POPC   C2B 3743   3.112   9.574   5.267
  281POPC   C3B 3744   3.092   9.767   5.676
  281POPC   C4B 3745   3.042   9.704   6.146
  282POPC   NC3 3746   8.707   5.030   3.522
  282POPC   PO4 3747   8.932   5.324   4.083
  282POPC   GL1 3748   9.122   5.360   4.455
  282POPC   GL2 3749   9.142   5.032   4.446
  282POPC   C1A 3750   9.189   5.331   4.900
  282POPC   D2A 3751   9.114   5.079   5.243
  282POPC   C3A 3752   9.118   5.357   5.586
  282POPC   C4A 3753   8.929   5.299   5.986
  282POPC   C1B 3754   8.788   5.034   4.782
  282POPC   C2B 3755   8.613   4.912   5.201
  282POPC   C3B 3756   8.717   5.021   5.618
  282POPC   C4B 3757   8.693   4.872   6.103
  283POPC   NC3 3758   3.610   6.601   3.941
  283POPC   PO4 3759   3.099   6.234   3.941
  283POPC   GL1 3760   3.348   6.370   4.350
  283POPC   GL2 3761   3.520   6.697   4.446
  283POPC   C1A 3762   3.221   6.403   4.795
  283POPC   D2A 3763   3.099   6.201   5.222
  283POPC   C3A 3764   3.212   6.433   5.605
  283POPC   C4A 3765   3.201   6.541   6.069
  283POPC   C1B 3766   3.628   6.724   4.903
  283POPC   C2B 3767   3.790   6.662   5.355
  283POPC   C3B 3768   3.651   6.664   5.804
  283POPC   C4B 3769   3.657   6.705   6.278
  284POPC   NC3 3770   1.117   9.549   3.690
  284POPC   PO4 3771   0.787   0.049   3.947
  284POPC   GL1 3772   0.887   9.893   4.373
  284POPC   GL2 3773   1.089   9.581   4.514
  284POPC   C1A 3774   0.952   9.980   4.798
  284POPC   D2A 3775   0.988   9.721   5.135
  284POPC   C3A 3776   0.827   9.881   5.481
  284POPC   C4A 3777   0.733   9.731   5.847
  284POPC   C1B 3778   1.401   9.709   4.850
  284POPC   C2B 3779   1.461   9.750   5.309
  284POPC   C3B 3780   1.228   9.605   5.696
  284POPC   C4B 3781   1.298   9.584   6.167
  285POPC   NC3 3782   4.384   0.923   3.707
  285POPC   PO4 3783   3.823   0.758   3.832
  285POPC   GL1 3784   4.054   0.752   4.262
  285POPC   GL2 3785   4.438   0.655   4.222
  285POPC   C1A 3786   4.095   0.784   4.745
  285POPC   D2A 3787   4.322   0.597   5.129
  285POPC   C3A 3788   4.166   0.606   5.555
  285POPC   C4A 3789   4.181   0.720   6.027
  285POPC   C1B 3790   4.532   0.469   4.665
  285POPC   C2B 3791   4.581   0.153   5.037
  285POPC   C3B 3792   4.504   0.213   5.480
  285POPC   C4B 3793   4.367   0.197   5.924
  286POPC   NC3 3794   2.294   8.309   3.826
  286POPC   PO4 3795   1.741   8.705   3.952
  286POPC   GL1 3796   1.834   8.490   4.336
  286POPC   GL2 3797   2.012   8.167   4.354
  286POPC   C1A 3798   1.954   8.476   4.783
  286POPC   D2A 3799   1.829   8.375   5.201
  286POPC   C3A 3800   2.024   8.565   5.559
  286POPC   C4A 3801   2.112   8.646   6.021
  286POPC   C1B 3802   1.785   7.993   4.750
  286POPC   C2B 3803   1.686   7.885   5.185
  286POPC   C3B 3804   1.756   7.851   5.599
  286POPC   C4B 3805   2.078   8.076   5.778
  287W        W 3806   8.802   1.886   0.252
  288W        W 3807   4.556   0.981  10.760
  289W        W 3808   8.974   1.363   2.265
  290W        W 3809   0.017   7.994   1.675
  291W        W 3810   8.843   3.445   9.120
  292W        W 3811   7.129   7.386   9.525
  293W        W 3812   0.700   0.183   0.941
  294W        W 3813   3.481   7.656  11.195
  295W        W 3814   1.664   8.408   1.946
  296W        W 3815   8.627   1.690   3.272
  297W        W 3816   6.933   2.020  11.730
  298W        W 3817   2.164   0.754   8.960
  299W        W 3818   7.965   3.974   3.697
  300W        W 3819   4.496   3.648   8.949
  301W        W 3820   1.225   0.970   9.540
  302W        W 3821   5.660   6.368   2.414
  303W        W 3822   6.734   9.075  11.837
  304W        W 3823   8.671   2.622   2.464
  305W        W 3824   6.195   8.203   9.232
  306W        W 3825   4.678   6.788   9.513
  307W        W 3826   4.071   6.707   3.631
  308W        W 3827   5.107   4.655   0.942
  309W        W 3828   0.440   8.529   2.606
  310W        W 3829   7.290   5.992   1.940
  311W        W 3830   8.097   6.346  10.500
  312W        W 3831   4.489   1.868   0.442
  313W        W 3832   6.133   2.725  10.923
  314W        W 3833   2.746   3.197   3.485
  315W        W 3834   6.462   3.015  11.856
  316W        W 3835   7.052   6.909   2.786
  317W        W 3836   8.242   2.022   3.520
  318W        W 3837   5.496   0.544   1.669
  319W        W 3838   4.918   5.182  10.507
  320W        W 3839   2.755   4.709   9.471
  321W        W 3840   5.435   2.288  11.456
  322W        W 3841   2.276   9.326  10.381
  323W        W 3842   9.283   8.884   3.749
  324W        W 3843   3.674   0.548   3.317
  325W        W 3844   6.368   8.388   1.274
  326W        W 3845   8.749   4.499  11.074
  327W        W 3846   4.585   4.168  11.815
  328W        W 3847   9.510   0.667   9.555
  329W        W 3848   5.229   6.600  11.834
  330W        W 3849   8.709   2.199   3.339
  331W        W 3850   6.982   9.240   9.980
  332W        W 3851   3.373   4.599   0.973
  333W        W 3852   9.288   5.203   9.604
  334W        W 3853   5.857   7.991   3.582
  335W        W 3854   2.682   6.933   3.381
  336W        W 3855   2.644   6.665   9.554
  337W        W 3856   5.221   1.193   2.306
  338W        W 3857   1.408   2.096  10.573
  339W        W 3858   4.562   5.089   9.500
  340W        W 3859   0.457   5.930   1.674
  341W        W 3860   8.341   8.515   8.786
  342W        W 3861   6.897   2.794   0.127
  343W        W 3862   3.559   9.101   0.336
  344W        W 3863   4.049   1.859   9.465
  345W        W 3864   1.573   5.160   3.491
  346W        W 3865   0.367   3.436   2.191
  347W        W 3866   9.460   6.267   0.280
  348W        W 3867   3.098   4.738   8.642
  349W        W 3868   3.312   4.195   2.838
  350W        W 3869   2.901   0.433  11.522
  351W        W 3870   5.375   9.889   9.680
  352W        W 3871   8.020   2.396   0.486
  353W        W 3872   4.867   7.700   8.557
  354W        W 3873   4.724   0.916   0.694
  355W        W 3874   9.934   3.327  10.432
  356W        W 3875   9.353   0.601  10.043
  357W        W 3876   5.072   3.306   9.548
  358W        W 3877   7.273   3.632   9.715
  359W        W 3878   0.862   7.485   0.186
  360W        W 3879   3.081   4.164   1.774
  361W        W 3880   8.969   7.362  10.009
  362W        W 3881   0.344   0.885   8.865
  363W        W 3882   3.563   2.373  10.916
  364W        W 3883   4.718   5.122   3.102
  365W        W 3884   9.390   8.515   1.294
  366W        W 3885   1.412   3.574  11.543
  367W        W 3886   4.910   7.087   9.158
  368W        W 3887   0.135   1.063   8.427
  369W        W 3888   4.708   7.820   1.860
  370W        W 3889   9.474   9.644  11.216
  371W        W 3890   5.998   3.248   2.433
  372W        W 3891   5.526   1.739  10.782
  373W        W 3892   5.476   9.860   1.454
  374W        W 3893   2.277   3.978  11.463
  375W        W 3894   4.532   5.070   0.071
  376W        W 3895   2.645   2.211   9.236
  377W        W 3896   2.564   1.096   2.437
  378W        W 3897   5.991   8.125   1.027
  379W        W 3898   2.202   7.928  11.591
  380W        W 3899   4.602   6.124   0.323
  381W        W 3900   8.435   0.198   0.208
  382W        W 3901   3.714   3.372   2.696
  383W        W 3902   2.317   8.111   1.307
  384W        W 3903   3.964   6.441   1.329
  385W        W 3904   7.128   4.696  11.041
  386W        W 3905   9.637   2.393   9.691
  387W        W 3906   4.185   9.934   8.664
  388W        W 3907   6.895   1.513   2.735
  389W        W 3908   4.755   2.671   8.485
  390W        W 3909   3.544   8.103   9.842
  391W        W 3910   9.305   7.591   1.298
  392W        W 3911   1.164   7.321   1.490
  393W        W 3912   3.956   2.806   8.567
  394W        W 3913   2.418   1.564  11.300
  395W        W 3914   8.728   4.835   0.483
  396W        W 3915   2.513   2.488   8.794
  397W        W 3916   0.592   9.603  11.548
  398W        W 3917   7.923   9.885  11.400
  399W        W 3918   1.883   2.970   9.922
  400W        W 3919   5.240   2.686  11.212
  401W        W 3920   0.404   8.649  11.161
  402W        W 3921   4.980   5.646   8.993
  403W        W 3922   2.739   8.081   3.005
  404W        W 3923   0.369   3.251   1.105
  405W        W 3924   3.858   4.611  11.082
  406W        W 3925   1.669   0.469  10.593
  407W        W 3926   6.728   4.716   8.722
  408W        W 3927   4.832   2.433   1.109
  409W        W 3928   7.944   5.156   2.494
  410W        W 3929   4.104   6.123   0.187
  411W        W 3930   8.484   2.112   9.247
  412W        W 3931   6.025   7.472   3.575
  413W        W 3932   5.568   7.340  10.219
  414W        W 3933   2.737   6.638   8.993
  415W        W 3934   8.021   2.391  11.967
  416W        W 3935   3.233   3.060   9.495
  417W        W 3936   5.071   4.515   0.366
  418W        W 3937   8.796   1.631   1.232
  419W        W 3938   0.318   4.581   3.176
  420W        W 3939   1.891   5.352   2.720
  421W        W 3940   2.886   2.575   0.718
  422W        W 3941   3.652   3.979   9.006
  423W        W 3942   0.378   5.542   9.482
  424W        W 3943   4.236   2.816   2.590
  425W        W 3944   1.790   2.532   0.133
  426W        W 3945   5.461   0.125   9.221
  427W        W 3946   1.909   4.241   8.823
  428W        W 3947   2.811   7.636   3.245
  429W        W 3948   3.313   8.591   9.077
  430W        W 3949   6.498   5.132   8.510
  431W        W 3950   9.400   2.856   3.691
  432W        W 3951   9.785   7.783   0.683
  433W        W 3952   3.059   2.215   2.028
  434W        W 3953   0.469   7.453  11.838
  435W        W 3954   8.360   0.695   8.974
  436W        W 3955   4.954   3.575   0.281
  437W        W 3956   8.799   8.976  11.184
  438W        W 3957   4.210   9.923   3.210
  439W        W 3958   6.181   7.584   2.585
  440W        W 3959   3.574   3.638   1.222
  441W        W 3960   2.097   7.454   1.939
  442W        W 3961   6.166   1.445   1.888
  443W        W 3962   8.130   7.388   9.705
  444W        W 3963   9.700   2.934   0.932
  445W        W 3964   2.860   0.952   2.814
  446W        W 3965   8.042   5.570  11.460
  447W        W 3966   7.138   6.734   0.840
  448W        W 3967   9.199   7.411  11.494
  449W        W 3968   7.961   1.649   0.844
  450W        W 3969   6.879   9.532   0.177
  451W        W 3970   0.731   6.604   0.008
  452W        W 3971   4.242   2.056   0.897
  453W        W 3972   8.452   1.346   2.912
  454W        W 3973   2.241   8.087   2.284
  455W        W 3974   1.787   4.923   8.232
  456W        W 3975   9.808   3.646   3.103
  457W        W 3976   6.474   8.348  10.761
  458W        W 3977   3.989   6.183   0.859
  459W        W 3978   4.052   5.163   1.573
  460W        W 3979   8.492   4.638  10.097
  461W        W 3980   8.189   3.683   9.176
  462W        W 3981   3.295   2.001   0.890
  463W        W 3982   5.461   7.492  11.621
  464W        W 3983   0.843   4.506   9.208
  465W        W 3984   6.954   1.272  11.897
  466W        W 3985   0.539   4.422   0.911
  467W        W 3986   9.560   1.884   9.556
  468W        W 3987   8.923   7.034  10.436
  469W        W 3988   0.021   1.211   9.065
  470W        W 3989   5.201   3.499  11.847
  471W        W 3990   9.065   9.075   8.964
  472W        W 3991   3.201   7.369  11.512
  473W        W 3992   1.396   1.384  11.401
  474W        W 3993   1.759   5.996   3.334
  475W        W 3994   4.471   4.528   2.768
  476W        W 3995   9.397   7.705   9.960
  477W        W 3996   9.825   6.100   8.964
  478W        W 3997   6.625   2.152  10.408
  479W        W 3998   7.090   7.952  11.286
  480W        W 3999   7.535   2.585  11.883
  481W        W 4000   6.665   4.329   3.664
  482W        W 4001   7.289   5.631   2.601
  483W        W 4002   4.127   5.711   1.045
  484W        W 4003   0.535   2.723  10.755
  485W        W 4004   6.125   3.190   0.738
  486W        W 4005   8.588   1.083   0.069
  487W        W 4006   6.499   6.831   2.063
  488W        W 4007   6.651   9.751   0.929
  489W        W 4008   8.563   0.590  10.511
  490W        W 4009   0.763   8.409   8.951
  491W        W 4010   1.632   1.466   1.787
  492W        W 4011   5.444   6.625  11.340
  493W        W 4012   5.259   2.970   1.688
  494W        W 4013   6.679   0.008   9.957
  495W        W 4014   3.988   7.951   0.212
  496W        W 4015   4.142   1.693  11.641
  497W        W 4016   7.300   0.362   9.178
  498W        W 4017   6.971   4.168   9.343
  499W        W 4018   3.873   1.767   1.409
  500W        W 4019   2.301   4.619   8.699
  501W        W 4020   2.873   4.152  10.560
  502W        W 4021   5.476   5.190  11.811
  503W        W 4022   2.918   1.166   0.011
  504W        W 4023   9.516   5.071   9.164
  505W        W 4024   4.911   4.195  10.517
  506W        W 4025   4.159   1.523  10.766
  507W        W 4026   2.622   3.967   0.894
  508W        W 4027   3.746   8.823  11.952
  509W        W 4028   6.339   6.155   9.826
  510W        W 4029   9.680   4.534   3.118
  511W        W 4030   4.737   4.940   2.629
  512W        W 4031   2.971   0.788   0.401
  513W        W 4032   4.929   3.627   3.604
  514W        W 4033   8.355   3.921   1.826
  515W        W 4034   1.574   5.024   2.986
  516W        W 4035   2.948   1.393   2.274
  517W        W 4036   9.140   0.830   1.569
  518W        W 4037   2.470   5.296   0.701
  519W        W 4038   3.170   7.530   8.887
  520W        W 4039   3.317   2.086  11.926
  521W        W 4040   8.885   6.363   1.572
  522W        W 4041   0.424   5.429   1.647
  523W        W 4042   8.465   9.808  11.135
  524W        W 4043   3.222   0.984  10.873
  525W        W 4044   6.916   2.514   3.042
  526W        W 4045   4.517   5.575  10.552
  527W        W 4046   3.783   5.362   8.913
  528W        W 4047   1.380   1.672   3.514
  529W        W 4048   0.319   9.710  11.994
  530W        W 4049   5.072   2.953  10.217
  531W        W 4050   5.899   2.462   3.586
  532W        W 4051   9.558   9.780   8.850
  533W        W 4052   9.233   3.731   9.336
  534W        W 4053   7.354   7.203  11.922
  535W        W 4054   2.356   7.394   3.345
  536W        W 4055   1.236   6.446  11.395
  537W        W 4056   0.550   0.297   9.912
  538W        W 4057   1.250   5.370  11.677
  539W        W 4058   5.574   8.637   0.234
  540W        W 4059   4.225   3.962   8.355
  541W        W 4060   1.376   3.545   1.526
  542W        W 4061   1.443   8.647   3.530
  543W        W 4062   2.643   5.374   4.028
  544W        W 4063   2.697   2.672  10.790
  545W        W 4064   8.401   2.674   1.630
  546W        W 4065   6.165   6.366   1.331
  547W        W 4066   6.732   5.732   1.357
  548W        W 4067   4.960   9.598   1.740
  549W        W 4068   8.054   0.186  11.858
  550W        W 4069   7.955   9.678   0.985
  551W        W 4070   1.460   3.529  11.005
  552W        W 4071   1.741   3.288   1.967
  553W        W 4072   7.604   2.311   1.295
  554W        W 4073   7.115   5.538   2.130
  555W        W 4074   9.661   5.328   1.948
  556W        W 4075   1.686   2.768  11.692
  557W        W 4076   8.505   1.491  10.011
  558W        W 4077   3.645   8.851   2.119
  559W        W 4078   5.061   8.067   0.097
  560W        W 4079   7.629   4.649   1.289
  561W        W 4080   2.386   7.046   2.033
  562W        W 4081   7.040   0.649   0.785
  563W        W 4082   5.947   9.963  10.437
  564W        W 4083   8.112   5.148   9.049
  565W        W 4084   5.826   7.561   9.813
  566W        W 4085   0.957   9.514   1.892
  567W        W 4086   1.952   3.124   2.871
  568W        W 4087   9.467   3.408   9.721
  569W        W 4088   6.577   8.841   1.213
  570W        W 4089   7.777   6.192   2.034
  571W        W 4090   5.129   7.028   1.388
  572W        W 4091   0.449   0.800   9.844
  573W        W 4092   4.502   3.429   3.796
  574W        W 4093   1.372   6.069   2.523
  575W        W 4094   6.992   4.502   1.806
  576W        W 4095   9.584   2.965  11.057
  577W        W 4096   1.137   4.617   9.625
  578W        W 4097   0.346   9.592  11.082
  579W        W 4098   6.568   4.310   9.047
  580W        W 4099   4.289   1.139   2.447
  581W        W 4100   9.476   2.944   1.459
  582W        W 4101   9.732   9.381   1.273
  583W        W 4102   9.638   6.103  11.054
  584W        W 4103   0.266   0.502  11.752
  585W        W 4104   6.938   5.107  11.255
  586W        W 4105   4.952   2.313   2.127
  587W        W 4106   1.366   6.446   1.439
  588W        W 4107   5.784   0.190   9.943
  589W        W 4108   6.119   0.898   2.765
  590W        W 4109   5.108   3.141  11.486
  591W        W 4110   8.199   7.210  11.499
  592W        W 4111   1.662   4.548   2.692
  593W        W 4112   3.568   6.591   2.262
  594W        W 4113   2.263   2.420  11.065
  595W        W 4114   8.994   4.707   0.915
  596W        W 4115   6.581   5.140   4.268
  597W        W 4116   1.234   5.287   8.559
  598W        W 4117   3.619   7.292  10.356
  599W        W 4118   2.845   0.901   1.749
  600W        W 4119   8.389   2.179   2.495
  601W        W 4120   2.244   8.827   0.725
  602W        W 4121   9.955   6.192   1.912
  603W        W 4122   5.795   5.915   1.278
  604W        W 4123   7.073   3.750   3.244
  605W        W 4124   4.730   3.231   3.326
  606W        W 4125   4.270   2.724   1.902
  607W        W 4126   9.994   4.647  10.477
  608W        W 4127   3.249   5.547   0.846
  609W        W 4128   4.159   0.548   8.656
  610W        W 4129   0.431   4.187   2.869
  611W        W 4130   0.828   4.278  11.728
  612W        W 4131   1.666   2.267  11.449
  613W        W 4132   1.214   8.038  11.236
  614W        W 4133   3.979   0.326  10.929
  615W        W 4134   5.581   7.987   2.920
  616W        W 4135   0.193   0.047   2.194
  617W        W 4136   1.281   1.197   2.031
  618W        W 4137   2.131   3.727  10.401
  619W        W 4138   8.426   2.916   2.110
  620W        W 4139   5.543   5.699   3.161
  621W        W 4140   8.304   8.480  10.630
  622W        W 4141   6.443   2.526   3.286
  623W        W 4142   9.914   5.727   1.005
  624W        W 4143   6.746   1.837  11.062
  625W        W 4144   5.318   2.016   1.954
  626W        W 4145   5.895   5.953   9.977
  627W        W 4146   7.607   8.257   9.392
  628W        W 4147   2.220   6.013   9.225
  629W        W 4148   7.278   0.746  11.790
  630W        W 4149   4.925   4.026   1.987
  631W        W 4150   3.818   5.522   0.131
  632W        W 4151   7.906   4.997   2.966
  633W        W 4152   7.171   0.002  10.983
  634W        W 4153   6.111   6.915   3.116
  635W        W 4154   5.025   7.410  10.254
  636W        W 4155   0.769   7.406   0.687
  637W        W 4156   9.447   9.984  10.809
  638W        W 4157   7.997   1.155  10.129
  639W        W 4158   5.294   6.882   3.685
  640W        W 4159   4.748   3.840   9.873
  641W        W 4160   5.283   5.478   0.682
  642W        W 4161   7.434   1.223  11.019
  643W        W 4162   2.103   7.985   0.468
  644W        W 4163   9.855   1.497  10.498
  645W        W 4164   5.312   0.994   1.849
  646W        W 4165   2.914   8.307  10.899
  647W        W 4166   6.108   8.536  10.418
  648W        W 4167   0.032   9.394   9.536
  649W        W 4168   9.341   6.068   0.741
  650W        W 4169   7.031   0.909   1.221
  651W        W 4170   4.666   4.608   1.219
  652W        W 4171   8.356   2.018   2.990
  653W        W 4172   9.467   8.481   9.742
  654W        W 4173   1.752   3.659   0.241
  655W        W 4174   7.197   3.527  11.979
  656W        W 4175   6.955   0.437   0.332
  657W        W 4176   4.228   3.504  11.970
  658W        W 4177   9.312   3.557   0.305
  659W        W 4178   8.759   6.640   9.174
  660W        W 4179   3.686   5.452   1.341
  661W        W 4180   2.910   9.398   3.271
  662W        W 4181   9.720   1.902   9.042
  663W        W 4182   2.328   7.651  11.049
  664W        W 4183   7.010   5.177   3.973
  665W        W 4184   5.542   9.455   1.147
  666W        W 4185   9.218   3.271   1.791
  667W        W 4186   4.577   6.026   3.019
  668W        W 4187   0.353   7.082   9.751
  669W        W 4188   1.999   6.346   1.745
  670W        W 4189   2.042   0.392  10.963
  671W        W 4190   2.703   0.390   1.166
  672W        W 4191   3.859   2.930  11.259
  673W        W 4192   5.698   9.125   9.245
  674W        W 4193   5.510   7.194   0.435
  675W        W 4194   8.055   6.651  11.870
  676W        W 4195   6.042   7.569  10.316
  677W        W 4196   7.629   6.104   0.273
  678W        W 4197   3.005   1.292   3.569
  679W        W 4198   6.601   1.501   0.918
  680W        W 4199   3.624   3.329   3.733
  681W        W 4200   9.455   5.313   1.439
  682W        W 4201   3.614   0.732   1.320
  683W        W 4202   5.002   2.328   1.603
  684W        W 4203   5.692   7.187   3.152
  685W        W 4204   9.885   0.851  11.755
  686W        W 4205   5.215   7.510   0.085
  687W        W 4206   6.575   5.555   9.273
  688W        W 4207   2.322   9.103   0.282
  689W        W 4208   2.168   5.523  11.670
  690W        W 4209   8.807   9.066   2.801
  691W        W 4210   6.788   4.493  10.035
  692W        W 4211   4.003   9.393   2.764
  693W        W 4212   8.373   8.473   3.300
  694W        W 4213   2.290   7.584   2.389
  695W        W 4214   6.424   2.201  10.934
  696W        W 4215   4.272   1.409  10.252
  697W        W 4216   6.403   1.557   2.893
  698W        W 4217   4.642   0.752   1.179
  699W        W 4218   4.152   9.824   1.415
  700W        W 4219   5.424   7.058  11.926
  701W        W 4220   5.152   2.787  10.702
  702W        W 4221   0.086   9.562  11.541
  703W        W 4222   7.953   5.083   0.004
  704W        W 4223   4.271   5.103   2.750
  705W        W 4224   4.528   6.526   3.127
  706W        W 4225   3.907   3.930  10.357
  707W        W 4226   3.945   4.604   3.975
  708W        W 4227   0.872   9.891   9.743
  709W        W 4228   9.412   1.338   0.298
  710W        W 4229   9.781   3.788   0.661
  711W        W 4230   2.759   0.047  10.503
  712W        W 4231   3.173   4.898   8.139
  713W        W 4232   9.984   6.983   9.015
  714W        W 4233   2.398   8.369   9.038
  715W        W 4234   8.826   7.875   3.401
  716W        W 4235   4.241   3.851  11.602
  717W        W 4236   9.374   7.001  10.695
  718W        W 4237   5.691   6.455   1.103
  719W        W 4238   3.391   5.403   0.381
  720W        W 4239   5.614   7.832  10.408
  721W        W 4240   8.953   7.448   2.336
  722W        W 4241   8.573   4.825   3.068
  723W        W 4242   9.851   1.512   3.067
  724W        W 4243   2.816   1.464  11.615
  725W        W 4244   7.693   3.136   3.231
  726W        W 4245   5.155   5.393   3.039
  727W        W 4246   4.436   0.096   2.398
  728W        W 4247   9.477   0.196   9.730
  729W        W 4248   9.760   2.383  10.867
  730W        W 4249   7.624   5.301  11.663
  731W        W 4250   3.127   6.949   1.232
  732W        W 4251   8.861   6.246   0.819
  733W        W 4252   5.123   2.038   1.186
  734W        W 4253   4.344   5.782   3.409
  735W        W 4254   6.700   1.229   3.158
  736W        W 4255   3.827   4.612   0.063
  737W        W 4256   8.370   3.847   2.346
  738W        W 4257   8.140   5.895   1.153
  739W        W 4258   4.474   2.592   1.441
  740W        W 4259   7.180   7.250   0.779
  741W        W 4260   3.868   3.642   9.868
  742W        W 4261   8.940   4.605   0.052
  743W        W 4262   3.581   7.887  10.322
  744W        W 4263   4.058   8.236   1.512
  745W        W 4264   9.049   8.320   2.130
  746W        W 4265   7.527   8.935  10.510
  747W        W 4266   9.062   4.194   0.872
  748W        W 4267   0.302   2.937   3.569
  749W        W 4268   4.774   2.752  11.420
  750W        W 4269   1.755   0.728   2.256
  751W        W 4270   7.808   1.233  10.632
  752W        W 4271   2.800   3.337   2.989
  753W        W 4272   4.108   0.861  11.035
  754W        W 4273   2.779   8.014   1.600
  755W        W 4274   3.644   4.448   9.348
  756W        W 4275   7.513   4.437   3.103
  757W        W 4276   7.884   4.657   0.305
  758W        W 4277   9.809   7.669   2.011
  759W        W 4278   8.371   4.566  11.465
  760W        W 4279   1.515   0.547   9.396
  761W        W 4280   5.145   2.724   2.676
  762W        W 4281   8.711   6.114  11.948
  763W        W 4282   0.079   5.646   9.055
  764W        W 4283   8.950   7.051   9.468
  765W        W 4284   3.293   9.240   1.399
  766W        W 4285   0.448   6.611   9.913
  767W        W 4286   4.696   5.735   2.267
  768W        W 4287   7.892   1.863   1.336
  769W        W 4288   3.206   3.548  11.934
  770W        W 4289   7.056   6.405   8.262
  771W        W 4290   2.325   2.114  10.120
  772W        W 4291   6.998   6.383   8.767
  773W        W 4292   5.021   9.870   9.200
  774W        W 4293   2.318   1.912  10.909
  775W        W 4294   8.804   6.220  10.582
  776W        W 4295   7.328   3.187   2.715
  777W        W 4296   5.190   3.929  10.154
  778W        W 4297   2.627   7.984  11.290
  779W        W 4298   5.917   2.262  11.029
  780W        W 4299   9.165   9.297  11.519
  781W        W 4300   7.180   6.555   3.931
  782W        W 4301   8.483   7.944  11.048
  783W        W 4302   9.882   1.238  10.055
  784W        W 4303   1.687   3.757   0.748
  785W        W 4304   0.962   8.878   3.568
  786W        W 4305   1.977   3.321   3.370
  787W        W 4306   9.532   8.127   2.000
  788W        W 4307   9.398   4.853  11.816
  789W        W 4308   3.088   3.728   0.921
  790W        W 4309   2.238   3.774   1.832
  791W        W 4310   8.340   8.784   0.220
  792W        W 4311   5.153   8.721  10.944
  793W        W 4312   6.196   9.878   0.289
  794W        W 4313   5.892   1.633   8.470
  795W        W 4314   2.753   4.403   2.126
  796W        W 4315   2.754   2.089   0.948
  797W        W 4316   0.354   6.179   3.236
  798W        W 4317   6.541   9.228   2.369
  799W        W 4318   9.611   7.521  11.777
  800W        W 4319   4.148   8.907   8.866
  801W        W 4320   2.910   0.432   9.347
  802W        W 4321   8.724   6.422  11.221
  803W        W 4322   2.727   3.666  10.609
  804W        W 4323   5.428   0.855  11.068
  805W        W 4324   5.628   1.700   2.272
  806W        W 4325   5.151   8.873  10.446
  807W        W 4326   1.408   0.275   8.945
  808W        W 4327   6.060   7.925   3.119
  809W        W 4328   6.970   2.569   9.817
  810W        W 4329   3.472   4.587   3.816
  811W        W 4330   3.820   1.426   8.703
  812W        W 4331   9.888   6.836   9.965
  813W        W 4332   3.941   8.052   9.083
  814W        W 4333   6.835   2.786  10.248
  815W        W 4334   1.815   5.670   9.579
  816W        W 4335   8.865   0.859   8.961
  817W        W 4336   0.483   1.673   9.838
  818W        W 4337   3.322   8.451  10.620
  819W        W 4338   4.752   7.563   2.331
  820W        W 4339   3.836   9.795  11.843
  821W        W 4340   2.682   3.639   0.051
  822W        W 4341   5.054   6.365   0.245
  823W        W 4342   3.478   0.666   2.237
  824W        W 4343   5.217   5.676   1.154
  825W        W 4344   8.253   4.340   2.362
  826W        W 4345   6.654   8.489   1.759
  827W        W 4346   3.412   9.354   8.605
  828W        W 4347   7.226   1.977   1.460
  829W        W 4348   3.736   9.030   1.621
  830W        W 4349   8.964   9.905  10.931
  831W        W 4350   3.190   8.253   3.183
  832W        W 4351   0.011   1.779   2.652
  833W        W 4352   6.811   5.945   8.951
  834W        W 4353   0.314   0.030  11.586
  835W        W 4354   4.850   1.843   1.812
  836W        W 4355   6.571   8.756  10.453
  837W        W 4356   1.171   0.378  10.725
  838W        W 4357   6.421   2.756  10.519
  839W        W 4358   2.777   9.214  10.647
  840W        W 4359   6.242   3.681   0.841
  841W        W 4360   0.451   1.354  11.268
  842W        W 4361   4.486   9.236   2.748
  843W        W 4362   6.413   9.236   2.851
  844W        W 4363   5.853   4.600  10.470
  845W        W 4364   9.640   1.757   0.105
  846W        W 4365   6.104   9.065  11.167
  847W        W 4366   2.221   3.859   8.997
  848W        W 4367   7.630   2.567  11.370
  849W        W 4368   2.677   6.774   2.875
  850W        W 4369   1.360   3.842   9.279
  851W        W 4370   0.861   2.889  11.513
  852W        W 4371   2.129   0.989   0.820
  853W        W 4372   6.212   5.935   1.644
  854W        W 4373   0.620   2.843   9.528
  855W        W 4374   4.248   2.827   9.535
  856W        W 4375   9.631   0.560   3.563
  857W        W 4376   7.958   7.395   0.403
  858W        W 4377   9.432   8.618  10.256
  859W        W 4378   5.268   5.539   0.158
  860W        W 4379   2.827   3.363   9.631
  861W        W 4380   8.638   3.445   3.303
  862W        W 4381   8.296   1.972   1.686
  863W        W 4382   4.059   8.539   3.806
  864W        W 4383   8.300   3.214  11.451
  865W        W 4384   9.559   3.041   0.252
  866W        W 4385   3.954   2.394  11.273
  867W        W 4386   8.041   5.991   9.555
  868W        W 4387   3.279   4.285   4.187
  869W        W 4388   7.400   4.797   0.411
  870W        W 4389   5.181   2.288   0.200
  871W        W 4390   3.907   7.871   9.559
  872W        W 4391   7.781   1.618  10.285
  873W        W 4392   0.960   9.235   9.552
  874W        W 4393   4.965   6.002   8.351
  875W        W 4394   9.486   1.562   9.974
  876W        W 4395   6.578   2.423   0.935
  877W        W 4396   7.092   6.566   1.340
  878W        W 4397   7.583   3.765   1.958
  879W        W 4398   9.084   9.778  10.410
  880W        W 4399   9.915   4.752   0.889
  881W        W 4400   2.150   9.633   2.165
  882W        W 4401   0.365   4.561   1.765
  883W        W 4402   7.265   2.153   3.244
  884W        W 4403   2.176   3.018  11.441
  885W        W 4404   7.793   3.640   9.571
  886W        W 4405   1.353   9.467   2.637
  887W        W 4406   6.396   6.033   4.146
  888W        W 4407   8.634   5.062  10.378
  889W        W 4408   9.029   4.303  10.641
  890W        W 4409   4.504   7.682  11.374
  891W        W 4410   6.555   1.131   2.672
  892W        W 4411   7.960   0.198   0.981
  893W        W 4412   8.393   3.651  10.216
  894W        W 4413   8.974   4.700  10.284
  895W        W 4414   3.199   6.684  10.876
  896W        W 4415   6.409   7.132   3.487
  897W        W 4416   9.296   2.572  10.827
  898W        W 4417   9.949   9.803   9.230
  899W        W 4418   0.683   4.657  10.891
  900W        W 4419   4.204   4.301  10.608
  901W        W 4420   4.741   2.313   9.010
  902W        W 4421   0.261   3.941   2.233
  903W        W 4422   7.110   2.782  10.686
  904W        W 4423   1.778   6.164   1.258
  905W        W 4424   0.205   5.522   8.438
  906W        W 4425   2.476   3.182   0.196
  907W        W 4426   4.766   6.596   2.003
  908W        W 4427   1.504   8.585   2.818
  909W        W 4428   5.095   0.916   3.316
  910W        W 4429   0.791   7.971   0.015
  911W        W 4430   9.305   7.547   2.719
  912W        W 4431   6.584   7.101   2.969
  913W        W 4432   5.066   4.000  11.965
  914W        W 4433   3.135   7.401   2.934
  915W        W 4434   6.878   3.002   2.852
  916W        W 4435   7.577   1.208   0.503
  917W        W 4436   7.699   9.978   0.373
  918W        W 4437   3.207   7.889   2.801
  919W        W 4438   4.251   6.891   1.484
  920W        W 4439   6.056   3.344   9.186
  921W        W 4440   2.609   8.695   2.397
  922W        W 4441   0.940   7.597  11.675
  923W        W 4442   5.158   8.882   9.106
  924W        W 4443   1.028   5.653  10.869
  925W        W 4444   4.394   4.073   1.965
  926W        W 4445   6.227   5.169   9.390
  927W        W 4446   3.819   9.856   1.016
  928W        W 4447   5.613   0.631   0.762
  929W        W 4448   0.596   7.456  10.892
  930W        W 4449   6.674   9.945   0.462
  931W        W 4450   6.719   0.314   3.568
  932W        W 4451   6.201   4.202   8.271
  933W        W 4452   6.460   4.598   0.489
  934W        W 4453   0.526   3.527  11.761
  935W        W 4454   2.594   0.718   0.775
  936W        W 4455   2.009   2.656   9.545
  937W        W 4456   0.182   0.577  10.748
  938W        W 4457   3.379   2.135   3.530
  939W        W 4458   5.724   2.096  10.447
  940W        W 4459   9.993   2.155  11.474
  941W        W 4460   9.778   1.398   8.654
  942W        W 4461   3.259   3.665  11.094
  943W        W 4462   1.231   3.816   1.960
  944W        W 4463   4.750   2.833   0.815
  945W        W 4464   5.004   9.823   1.259
  946W        W 4465   3.995   3.414  10.407
  947W        W 4466   2.570   3.341  11.607
  948W        W 4467   0.114   6.512   8.861
  949W        W 4468   3.312   1.367   9.991
  950W        W 4469   5.294   6.454   0.718
  951W        W 4470   9.382   2.602  11.354
  952W        W 4471   9.658   7.013   3.538
  953W        W 4472   1.729   2.223   2.411
  954W        W 4473   3.334   3.079   2.400
  955W        W 4474   5.737   1.846   2.739
  956W        W 4475   0.350   0.932   3.376
  957W        W 4476   4.718   5.522   2.752
  958W        W 4477   4.375   7.696   1.102
  959W        W 4478   6.167   7.218  11.426
  960W        W 4479   8.653   2.411   9.644
  961W        W 4480   1.401   9.334   9.811
  962W        W 4481   4.954   9.383  10.497
  963W        W 4482   5.835   0.921   1.755
  964W        W 4483   6.601   3.831   3.478
  965W        W 4484   2.731   0.867  10.629
  966W        W 4485   1.868   6.970   0.861
  967W        W 4486   3.003   7.049   2.605
  968W        W 4487   9.831   4.352   1.275
  969W        W 4488   8.497   4.675   1.422
  970W        W 4489   2.251   1.308  10.900
  971W        W 4490   5.810   5.013   1.336
  972W        W 4491   7.531   6.304   1.600
  973W        W 4492   0.654   5.793   3.131
  974W        W 4493   2.891   0.650  11.061
  975W        W 4494   4.129   1.365   1.622
  976W        W 4495   7.348   6.200   9.546
  977W        W 4496   8.997   6.232   2.685
  978W        W 4497   0.534   7.643   3.179
  979W        W 4498   9.789   0.341   2.187
  980W        W 4499   1.952   9.905  11.994
  981W        W 4500   2.194   5.030   1.850
  982W        W 4501   9.214   7.263   3.524
  983W        W 4502   5.768   6.694   2.799
  984W        W 4503   1.705   2.286   1.431
  985W        W 4504   1.661   5.190   1.073
  986W        W 4505   7.418   2.994  11.556
  987W        W 4506   9.410   5.743   1.134
  988W        W 4507   0.816   7.885   8.850
  989W        W 4508   1.759   5.248  11.771
  990W        W 4509   3.262   8.251   0.440
  991W        W 4510   3.036   7.820  11.023
  992W        W 4511   9.578   5.028  10.435
  993W        W 4512   1.857   8.187   2.918
  994W        W 4513   6.079   1.434   2.405
  995W        W 4514   3.375   3.841  11.547
  996W        W 4515   8.848   3.304  10.479
  997W        W 4516   2.931   2.844   3.121
  998W        W 4517   3.069   9.474   2.323
  999W        W 4518   2.770   1.243  10.996
 1000W        W 4519   1.312   3.311   9.305
 1001W        W 4520   7.016   7.983   0.205
 1002W        W 4521   2.399   8.945  11.342
 1003W        W 4522   3.077   6.603   9.854
 1004W        W 4523   6.650   1.306   1.749
 1005W        W 4524   6.958   4.228   2.247
 1006W        W 4525   9.881   8.275   0.839
 1007W        W 4526   4.989   3.667   8.741
 1008W        W 4527   2.088   1.790   0.396
 1009W        W 4528   4.287   8.422   8.901
 1010W        W 4529   7.872   1.753   3.800
 1011W        W 4530   0.625   0.756   1.170
 1012W        W 4531   6.070   8.522   8.853
 1013W        W 4532   3.140   8.539   2.599
 1014W        W 4533   2.995   1.865   0.493
 1015W        W 4534   9.344   7.918   0.020
 1016W        W 4535   9.937   8.438  11.543
 1017W        W 4536   5.719   8.097   1.828
 1018W        W 4537   1.264   4.053  11.487
 1019W        W 4538   9.110   5.199  10.309
 1020W        W 4539   1.278   0.229   2.589
 1021W        W 4540   2.362   6.690   1.684
 1022W        W 4541   4.127   1.855  11.172
 1023W        W 4542   3.927   8.053   3.436
 1024W        W 4543   8.427   1.198   0.538
 1025W        W 4544   9.839   4.580  11.802
 1026W        W 4545   5.677   0.768  11.912
 1027W        W 4546   3.978   4.862   8.802
 1028W        W 4547   6.547   4.717   2.858
 1029W        W 4548   6.259   5.208   3.862
 1030W        W 4549   8.945   6.469   9.625
 1031W        W 4550   9.058   8.569  10.967
 1032W        W 4551   2.749   2.705   0.213
 1033W        W 4552   9.426   4.755   2.742
 1034W        W 4553   8.625   6.068   1.240
 1035W        W 4554   3.027   6.864  11.443
 1036W        W 4555   7.995   2.797   2.966
 1037W        W 4556   2.165   4.538   1.311
 1038W        W 4557   5.544   3.206   0.071
 1039W        W 4558   5.549   2.274   0.543
 1040W        W 4559   9.819   5.247   0.954
 1041W        W 4560   1.133   5.574   3.191
 1042W        W 4561   6.049   3.531  11.394
 1043W        W 4562   2.224   2.849   9.117
 1044W        W 4563   5.498   4.376  10.768
 1045W        W 4564   4.661   8.181   8.634
 1046W        W 4565   0.770   8.574   1.801
 1047W        W 4566   8.716   9.946   2.023
 1048W        W 4567   1.258   9.993   0.822
 1049W        W 4568   3.561   2.036  11.320
 1050W        W 4569   5.643   5.204   3.119
 1051W        W 4570   4.148   8.614  11.172
 1052W        W 4571   6.783   9.394   1.930
 1053W        W 4572   3.445   2.602   0.620
 1054W        W 4573   0.213   4.311  11.514
 1055W        W 4574   5.121   7.947   2.122
 1056W        W 4575   7.514   7.558   2.294
 1057W        W 4576   7.860   0.632   0.746
 1058W        W 4577   4.203   4.255   2.426
 1059W        W 4578   4.278   3.650   1.675
 1060W        W 4579   4.152   9.883  10.680
 1061W        W 4580   7.870   2.986  10.232
 1062W        W 4581   3.181   9.067   9.782
 1063W        W 4582   6.939   6.942   3.306
 1064W        W 4583   8.259   6.400  11.009
 1065W        W 4584   9.415   4.111   0.526
 1066W        W 4585   5.328   4.410  10.289
 1067W        W 4586   7.044   9.524   0.655
 1068W        W 4587   3.816   9.277   2.327
 1069W        W 4588   3.590   1.891   8.673
 1070W        W 4589   9.828   3.881  11.076
 1071W        W 4590   4.879   5.381  11.863
 1072W        W 4591   6.974   8.604  10.775
 1073W        W 4592   9.687   3.880   0.150
 1074W        W 4593   4.191   2.681  10.893
 1075W        W 4594   1.214   6.707  10.580
 1076W        W 4595   0.967   3.267   0.441
 1077W        W 4596   1.727   8.475  11.802
 1078W        W 4597   1.299   9.726   9.525
 1079W        W 4598   5.626   8.970   0.944
 1080W        W 4599   0.194   7.277  11.166
 1081W        W 4600   0.231   5.907  11.761
 1082W        W 4601   7.599   4.681   1.808
 1083W        W 4602   9.774   5.627  11.791
 1084W        W 4603   4.506   2.260  11.643
 1085W        W 4604   8.269   4.658  10.999
 1086W        W 4605   3.518   5.924   3.065
 1087W        W 4606   4.200   6.863   9.703
 1088W        W 4607   5.186   0.573  11.444
 1089W        W 4608   1.038   1.549   1.736
 1090W        W 4609   5.314   1.199   9.269
 1091W        W 4610   6.783   8.342  11.166
 1092W        W 4611   1.888   2.292   9.918
 1093W        W 4612   8.877   5.699  10.438
 1094W        W 4613   7.116   3.543   0.871
 1095W        W 4614   9.455   8.384  10.711
 1096W        W 4615   8.030   5.001  11.480
 1097W        W 4616   5.582   0.680  10.078
 1098W        W 4617   2.390   3.613   3.180
 1099W        W 4618   7.637   3.899  10.805
 1100W        W 4619   6.134   4.662   9.534
 1101W        W 4620   9.321   9.505   0.891
 1102W        W 4621   4.700   8.644  10.485
 1103W        W 4622   6.990   8.011   2.700
 1104W        W 4623   9.779   7.362   1.053
 1105W        W 4624   6.956   5.319   0.235
 1106W        W 4625   0.674   6.578   2.139
 1107W        W 4626   3.734   2.453   2.710
 1108W        W 4627   7.521   1.567   1.521
 1109W        W 4628   1.962   9.572   3.347
 1110W        W 4629   3.674   8.514   1.731
 1111W        W 4630   3.747   4.189  10.807
 1112W        W 4631   3.542   8.950   2.624
 1113W        W 4632   6.521   6.642   3.199
 1114W        W 4633   8.904   6.487  11.696
 1115W        W 4634   0.389   8.484   9.338
 1116W        W 4635   3.163   9.896   2.665
 1117W        W 4636   0.547   0.446   3.311
 1118W        W 4637   1.148   8.856   0.347
 1119W        W 4638   8.509   5.450  10.748
 1120W        W 4639   6.073   5.531   3.207
 1121W        W 4640   3.719   9.605   8.960
 1122W        W 4641   0.837   8.815  11.450
 1123W        W 4642   4.221   0.641  10.568
 1124W        W 4643   2.063   6.495  11.413
 1125W        W 4644   1.036   4.985  10.515
 1126W        W 4645   6.458   8.172  11.505
 1127W        W 4646   3.763   5.941  10.736
 1128W        W 4647   9.798   4.065  11.675
 1129W        W 4648   0.609   7.602   2.688
 1130W        W 4649   3.184   7.345   0.917
 1131W        W 4650   0.050   5.400   2.913
 1132W        W 4651   1.451   2.956   0.181
 1133W        W 4652   3.701   5.950   0.471
 1134W        W 4653   8.544   8.932   9.021
 1135W        W 4654   9.748   6.537   9.222
 1136W        W 4655   9.110   5.740   2.812
 1137W        W 4656   8.485   2.741  11.473
 1138W        W 4657   6.862   4.972  10.218
 1139W        W 4658   1.646   3.503  10.533
 1140W        W 4659   8.613   3.947   0.916
 1141W        W 4660   7.410   9.453  11.734
 1142W        W 4661   0.350   2.600   9.948
 1143W        W 4662   5.588   7.096   1.136
 1144W        W 4663   8.909   1.263   3.246
 1145W        W 4664   9.954   0.112   8.795
 1146W        W 4665   4.888   3.424   1.540
 1147W        W 4666   4.834   3.102   4.007
 1148W        W 4667   2.965   6.289   2.293
 1149W        W 4668   7.968   3.932   1.429
 1150W        W 4669   3.165   3.394   2.024
 1151W        W 4670   0.625   9.777   2.201
 1152W        W 4671   1.366   9.324   2.161
 1153W        W 4672   1.176   4.591  10.831
 1154W        W 4673   2.304   9.224   3.526
 1155W        W 4674   4.775   3.723  10.385
 1156W        W 4675   2.139   7.111  10.408
 1157W        W 4676   6.264   6.463   2.353
 1158W        W 4677   1.117   7.156  10.350
 1159W        W 4678   6.893   9.518  11.668
 1160W        W 4679   8.568   7.609   9.839
 1161W        W 4680   2.694   7.847   2.167
 1162W        W 4681   6.198   3.224   1.365
 1163W        W 4682   3.015   9.310   1.845
 1164W        W 4683   4.923   2.198  10.807
 1165W        W 4684   8.943   6.675   1.132
 1166W        W 4685   1.186   6.138  10.985
 1167W        W 4686   6.500   2.700   9.567
 1168W        W 4687   1.820   5.265   9.233
 1169W        W 4688   3.205   5.198   2.411
 1170W        W 4689   6.847   7.189  11.876
 1171W        W 4690   7.412   9.862  11.414
 1172W        W 4691   0.589   6.179  10.178
 1173W        W 4692   6.089   0.036   2.591
 1174W        W 4693   9.239   3.663   0.818
 1175W        W 4694   7.559   7.635   0.169
 1176W        W 4695   3.023   2.844   1.406
 1177W        W 4696   0.781   2.612   0.802
 1178W        W 4697   3.764   6.710   8.815
 1179W        W 4698   5.512   4.560   0.613
 1180W        W 4699   3.852   4.046   0.855
 1181W        W 4700   4.632   8.217   0.380
 1182W        W 4701   9.863   9.131   0.294
 1183W        W 4702   1.955   8.693   3.015
 1184W        W 4703   8.820   3.911   3.148
 1185W        W 4704   7.683   1.464   2.938
 1186W        W 4705   4.650   3.989  11.343
 1187W        W 4706   4.876   2.176   2.604
 1188W        W 4707   3.666   3.464   2.186
 1189W        W 4708   3.244   3.148   3.410
 1190W        W 4709   9.781   1.503   3.615
 1191W        W 4710   0.409   9.427   9.162
 1192W        W 4711   2.604   0.594   2.559
 1193W        W 4712   3.120   7.575  11.973
 1194W        W 4713   2.549   6.164   1.665
 1195W        W 4714   7.234   8.949   9.618
 1196W        W 4715   5.627   8.343  10.341
 1197W        W 4716   6.897   4.629  11.500
 1198W        W 4717   8.492   3.489   0.186
 1199W        W 4718   4.528   8.286   2.751
 1200W        W 4719   3.720   8.263  11.909
 1201W        W 4720   7.110   8.689  11.827
 1202W        W 4721   7.776   9.163   8.738
 1203W        W 4722   2.098   6.533  10.049
 1204W        W 4723   3.752   8.111   0.635
 1205W        W 4724   1.636   4.630   1.271
 1206W        W 4725   1.810   1.682   8.582
 1207W        W 4726   5.234   3.187   2.406
 1208W        W 4727   3.762   6.257   7.933
 1209W        W 4728   5.168   8.016  10.186
 1210W        W 4729   9.595   3.327   0.655
 1211W        W 4730   8.177   5.374   1.867
 1212W        W 4731   1.269   0.769  10.375
 1213W        W 4732   8.756   6.497   3.435
 1214W        W 4733   8.799   3.787   9.930
 1215W        W 4734   9.435   8.020   0.989
 1216W        W 4735   6.451   6.023  11.982
 1217W        W 4736   4.135   4.905  11.416
 1218W        W 4737   0.417   6.214   2.709
 1219W        W 4738   3.585   4.072   0.278
 1220W        W 4739   0.814   2.584   9.120
 1221W        W 4740   8.649   7.430  11.913
 1222W        W 4741   8.395   1.380   1.010
 1223W        W 4742   6.032   0.051  11.303
 1224W        W 4743   2.719   9.681  10.846
 1225W        W 4744   9.065   4.138   9.077
 1226W        W 4745   9.284   7.379   8.660
 1227W        W 4746   6.329   1.716   0.310
 1228W        W 4747   6.644   1.663  10.078
 1229W        W 4748   1.038   4.169   0.200
 1230W        W 4749   2.691   0.401   1.684
 1231W        W 4750   1.850   1.294  11.892
 1232W        W 4751   8.544   7.086   2.511
 1233W        W 4752   1.446   1.790   1.460
 1234W        W 4753   8.546   4.980   1.823
 1235W        W 4754   0.492   2.947   2.309
 1236W        W 4755   9.834   8.017  11.287
 1237W        W 4756   3.488   6.298   0.802
 1238W        W 4757   4.985   0.263  11.852
 1239W        W 4758   7.861   4.514  11.366
 1240W        W 4759   4.172   6.974   0.482
 1241W        W 4760   9.033   2.408  10.422
 1242W        W 4761   6.496   9.768   2.356
 1243W        W 4762   7.484   1.924   0.992
 1244W        W 4763   0.117   2.417  10.452
 1245W        W 4764   2.199   2.458   2.520
 1246W        W 4765   5.813   6.474   9.983
 1247W        W 4766   7.373   8.828   1.396
 1248W        W 4767   2.731   1.672  10.695
 1249W        W 4768   0.707   2.584  10.315
 1250W        W 4769   9.054   1.706  10.878
 1251W        W 4770   4.876   7.058   2.289
 1252W        W 4771   5.730   6.473  11.757
 1253W        W 4772   9.064   5.532   0.326
 1254W        W 4773   6.995   7.686   1.632
 1255W        W 4774   4.624   6.818   8.419
 1256W        W 4775   5.553   3.300   9.054
 1257W        W 4776   8.880   4.955   9.388
 1258W        W 4777   7.408   0.299   1.914
 1259W        W 4778   5.627   8.894  11.062
 1260W        W 4779   3.076   6.067   2.800
 1261W        W 4780   1.656   6.760  11.998
 1262W        W 4781   7.571   3.602   2.503
 1263W        W 4782   2.038   7.804   3.237
 1264W        W 4783   9.212   6.749   3.533
 1265W        W 4784   3.168   8.980   2.265
 1266W        W 4785   8.675   8.400   0.278
 1267W        W 4786   2.604   0.875   1.273
 1268W        W 4787   4.781   8.756   2.682
 1269W        W 4788   4.020   8.022  10.963
 1270W        W 4789   2.687   6.224   9.305
 1271W        W 4790   5.423   5.983   9.077
 1272W        W 4791   0.425   8.995   9.470
 1273W        W 4792   9.112   0.936   9.406
 1274W        W 4793   7.649   6.262   3.660
 1275W        W 4794   3.858   3.979   2.143
 1276W        W 4795   0.397   5.140   2.622
 1277W        W 4796   8.962   8.500  10.448
 1278W        W 4797   9.850   0.422  11.482
 1279W        W 4798   2.736   1.321   8.885
 1280W        W 4799   2.693   8.810   9.132
 1281W        W 4800   8.667   9.454  11.427
 1282W        W 4801   8.732   0.329   9.109
 1283W        W 4802   5.571   3.185   0.574
 1284W        W 4803   8.048   7.107  10.960
 1285W        W 4804   6.213   4.513  10.844
 1286W        W 4805   9.706   8.159  10.209
 1287W        W 4806   3.047   9.030   2.763
 1288W        W 4807   1.438   1.762  11.043
 1289W        W 4808   0.403   3.369  11.279
 1290W        W 4809   9.730   1.236   0.930
 1291W        W 4810   6.928   0.422   1.276
 1292W        W 4811   2.025   5.160   3.188
 1293W        W 4812   2.132   2.303   0.453
 1294W        W 4813   4.377   9.416   8.537
 1295W        W 4814   0.260   1.478   3.403
 1296W        W 4815   1.827   5.199   9.768
 1297W        W 4816   9.994   5.110  10.724
 1298W        W 4817   6.973   2.079   1.034
 1299W        W 4818   2.236   6.522   9.148
 1300W        W 4819   3.924   4.227   2.950
 1301W        W 4820   3.822   2.127   9.079
 1302W        W 4821   0.630   7.195  10.449
 1303W        W 4822   7.494   7.156   0.388
 1304W        W 4823   8.116   3.317   9.907
 1305W        W 4824   0.232   2.913  10.365
 1306W        W 4825   5.243   0.698   2.483
 1307W        W 4826   8.968   0.170   0.930
 1308W        W 4827   3.816   8.552   9.079
 1309W        W 4828   7.137   3.996   1.750
 1310W        W 4829   2.813   1.771   1.961
 1311W        W 4830   8.354   7.105   2.985
 1312W        W 4831   7.335   9.844  10.534
 1313W        W 4832   3.769   0.586   2.658
 1314W        W 4833   9.398   0.610  11.682
 1315W        W 4834   3.147   4.912  11.634
 1316W        W 4835   4.646   3.133   8.164
 1317W        W 4836   3.245   4.128   3.699
 1318W        W 4837   6.975   3.688  10.126
 1319W        W 4838   6.452   9.014   9.932
 1320W        W 4839   9.982   6.503  10.911
 1321W        W 4840   5.104   2.695   9.770
 1322W        W 4841   7.845   8.540   3.557
 1323W        W 4842   6.915   3.333   2.440
 1324W        W 4843   3.876   7.140   3.774
 1325W        W 4844   1.776   9.643  10.518
 1326W        W 4845   6.694   1.696   1.403
 1327W        W 4846   2.162   7.479   8.844
 1328W        W 4847   4.940   9.042   0.422
 1329W        W 4848   9.852   0.391   0.583
 1330W        W 4849   8.887   7.673  11.194
 1331W        W 4850   5.630   9.822  11.511
 1332W        W 4851   5.055   3.035  11.991
 1333W        W 4852   7.629   0.667   3.254
 1334W        W 4853   4.000   3.224   1.851
 1335W        W 4854   7.391   3.056   0.067
 1336W        W 4855   0.726   0.560   8.998
 1337W        W 4856   2.546   1.364   9.371
 1338W        W 4857   9.258   1.452   9.536
 1339W        W 4858   0.825   1.802  11.737
 1340W        W 4859   7.033   9.738   9.710
 1341W        W 4860   0.288   9.912   9.601
 1342W        W 4861   6.132   8.035   9.716
 1343W        W 4862   3.251   9.012  10.746
 1344W        W 4863   1.576   0.779   1.353
 1345W        W 4864   8.479   3.549   2.800
 1346W        W 4865   1.412   7.063   9.092
 1347W        W 4866   0.673   7.474   2.190
 1348W        W 4867   8.496   3.619  11.220
 1349W        W 4868   3.500   5.510  11.690
 1350W        W 4869   2.311   3.177  10.113
 1351W        W 4870   0.842   6.364   1.442
 1352W        W 4871   3.462   5.737   9.774
 1353W        W 4872   8.942   1.366   2.762
 1354W        W 4873   2.619   8.483  11.307
 1355W        W 4874   1.824   9.319   2.425
 1356W        W 4875   4.518   2.394  10.113
 1357W        W 4876   7.827   3.206   2.714
 1358W        W 4877   2.251   3.793  10.912
 1359W        W 4878   1.414   9.324  11.885
 1360W        W 4879   7.345   7.968  11.814
 1361W        W 4880   4.715   1.389   0.201
 1362W        W 4881   7.470   8.393   1.636
 1363W        W 4882   4.063   2.897  10.429
 1364W        W 4883   5.633   4.170   1.545
 1365W        W 4884   3.693   0.374   0.738
 1366W        W 4885   1.706   0.016  10.856
 1367W        W 4886   9.013   6.986   8.900
 1368W        W 4887   1.003   4.065   9.001
 1369W        W 4888   9.424   0.402   0.886
 1370W        W 4889   6.503   8.029   2.528
 1371W        W 4890   2.139   0.373  10.450
 1372W        W 4891   5.212   8.972  11.423
 1373W        W 4892   2.892   3.839   8.428
 1374W        W 4893   1.880   5.427  10.789
 1375W        W 4894   2.284   3.546   1.369
 1376W        W 4895   4.345   4.010   0.652
 1377W        W 4896   4.048   6.066   3.081
 1378W        W 4897   9.096   4.991  11.219
 1379W        W 4898   1.949   7.008   9.034
 1380W        W 4899   6.606   5.515   2.265
 1381W        W 4900   8.541   3.778  11.710
 1382W        W 4901   7.024   1.889  10.606
 1383W        W 4902   5.788   2.663  11.326
 1384W        W 4903   7.435   8.140   2.933
 1385W        W 4904   6.284   6.165  10.319
 1386W        W 4905   6.452   5.762  11.086
 1387W        W 4906   3.078   2.167  11.451
 1388W        W 4907   4.077   7.583   3.259
 1389W        W 4908   7.712   4.626   0.785
 1390W        W 4909   6.657   4.129   1.622
 1391W        W 4910   4.014   2.288   1.796
 1392W        W 4911   4.747   9.601   2.463
 1393W        W 4912   0.979   1.219  10.389
 1394W        W 4913   4.474   7.363   1.947
 1395W        W 4914   4.725   7.584   3.896
 1396W        W 4915   9.398   9.695  11.760
 1397W        W 4916   4.688   2.326   0.639
 1398W        W 4917   5.330   3.443   1.846
 1399W        W 4918   1.212   0.958   0.489
 1400W        W 4919   8.286   5.633   2.496
 1401W        W 4920   0.010   0.225   1.722
 1402W        W 4921   3.475   7.064   2.434
 1403W        W 4922   1.342   4.589   0.325
 1404W        W 4923   2.976   4.672  10.532
 1405W        W 4924   8.721   7.245  11.441
 1406W        W 4925   0.744   2.109  11.102
 1407W        W 4926   1.132   2.978   3.100
 1408W        W 4927   1.060   8.386   9.373
 1409W        W 4928   1.906   7.125   2.275
 1410W        W 4929   4.566   4.120   9.181
 1411W        W 4930   6.047   7.142   0.884
 1412W        W 4931   9.222   5.227   2.767
 1413W        W 4932   4.148   6.359   9.573
 1414W        W 4933   2.465   1.668   1.134
 1415W        W 4934   4.304   3.758   9.595
 1416W        W 4935   5.937   9.420   2.989
 1417W        W 4936   8.476   6.578   1.338
 1418W        W 4937   1.392   7.116   9.915
 1419W        W 4938   3.129   9.505  10.026
 1420W        W 4939   4.174   0.409   9.161
 1421W        W 4940   3.272   1.125   1.335
 1422W        W 4941   3.128   6.526   9.345
 1423W        W 4942   8.906   4.631   9.783
 1424W        W 4943   2.193   0.123   0.429
 1425W        W 4944   3.255   1.767   2.708
 1426W        W 4945   0.408   4.002  11.868
 1427W        W 4946   5.494   5.748  10.273
 1428W        W 4947   8.858   7.918   0.208
 1429W        W 4948   2.550   9.952   1.346
 1430W        W 4949   5.442   3.997   3.299
 1431W        W 4950   3.503   0.861   0.790
 1432W        W 4951   0.160   3.283   3.215
 1433W        W 4952   5.541   1.202  10.679
 1434W        W 4953   7.776   7.477   1.275
 1435W        W 4954   4.704   3.914   1.553
 1436W        W 4955   4.031   8.146   9.991
 1437W        W 4956   8.603   5.374   0.631
 1438W        W 4957   5.053   4.655  10.702
 1439W        W 4958   9.766   8.625   2.846
 1440W        W 4959   9.017   5.490  11.345
 1441W        W 4960   9.994   3.084  11.965
 1442W        W 4961   2.276   1.250   1.457
 1443W        W 4962   6.949   6.851  10.202
 1444W        W 4963   7.642   8.848   1.835
 1445W        W 4964   2.040   1.283   0.390
 1446W        W 4965   1.626   2.740   3.088
 1447W        W 4966   5.859   0.503   8.938
 1448W        W 4967   7.867   0.798   1.226
 1449W        W 4968   1.867   5.706   0.421
 1450W        W 4969   1.770   9.846   8.790
 1451W        W 4970   2.288   2.105   1.337
 1452W        W 4971   4.926   2.780   8.950
 1453W        W 4972   2.211   1.688   9.864
 1454W        W 4973   9.297   3.115   2.832
 1455W        W 4974   2.667   9.482   9.792
 1456W        W 4975   6.957   5.958   2.358
 1457W        W 4976   6.386   6.770  11.023
 1458W        W 4977   8.337   2.876  10.058
 1459W        W 4978   0.166   9.139   1.139
 1460W        W 4979   8.190   9.316   9.131
 1461W        W 4980   3.691   1.613   2.452
 1462W        W 4981   3.686   9.032   9.848
 1463W        W 4982   2.001   8.650   3.525
 1464W        W 4983   3.931   9.242   3.588
 1465W        W 4984   6.053   6.024   2.563
 1466W        W 4985   7.469   6.075   2.416
 1467W        W 4986   5.682   7.012   9.812
 1468W        W 4987   1.767   1.811  10.119
 1469W        W 4988   9.772   9.859   2.012
 1470W        W 4989   7.834   1.599  11.886
 1471W        W 4990   8.568   5.567   1.115
 1472W        W 4991   4.897   2.687   0.325
 1473W        W 4992   2.598   1.958   8.780
 1474W        W 4993   6.242   5.918   0.448
 1475W        W 4994   8.413   3.227   8.972
 1476W        W 4995   6.105   5.452   0.274
 1477W        W 4996   9.315   3.766   3.172
 1478W        W 4997   3.041   1.078   0.878
 1479W        W 4998   8.590   8.387   1.925
 1480W        W 4999   8.481   0.047   9.672
 1481W        W 5000   9.435   1.410  11.257
 1482W        W 5001   6.839   0.221   9.519
 1483W        W 5002   7.051   4.875   3.562
 1484W        W 5003   1.402   1.483   1.047
 1485W        W 5004   8.495   0.318  11.659
 1486W        W 5005   2.315   6.042  10.091
 1487W        W 5006   5.786   7.284  10.676
 1488W        W 5007   2.716   8.865   0.549
 1489W        W 5008   6.659   4.133   0.351
 1490W        W 5009   3.779   4.736   1.707
 1491W        W 5010   6.923   3.425   3.641
 1492W        W 5011   3.203   4.181   9.625
 1493W        W 5012   0.905   9.353   2.386
 1494W        W 5013   7.403   6.546   2.074
 1495W        W 5014   9.294   3.187   9.290
 1496W        W 5015   7.161   6.099   3.697
 1497W        W 5016   2.214   4.986  11.529
 1498W        W 5017   6.491   4.853  11.227
 1499W        W 5018   9.450   8.991   0.575
 1500W        W 5019   5.070   6.731   8.691
 1501W        W 5020   1.226   2.869   0.679
 1502W        W 5021   7.111   2.500   1.345
 1503W        W 5022   1.065   7.357   3.024
 1504W        W 5023   8.109   3.808   0.951
 1505W        W 5024   7.557   0.764  10.827
 1506W        W 5025   8.537   9.847   3.019
 1507W        W 5026   7.734   4.679   2.331
 1508W        W 5027   9.409   0.462  10.644
 1509W        W 5028   0.013   3.056   2.134
 1510W        W 5029   8.526   2.312  10.524
 1511W        W 5030   3.056   5.038   3.275
 1512W        W 5031   4.844   6.060   1.448
 1513W        W 5032   4.028   3.909   1.311
 1514W        W 5033   3.548   3.747   8.516
 1515W        W 5034   3.646   0.038   1.491
 1516W        W 5035   8.487   7.044  10.110
 1517W        W 5036   5.115   5.248   1.879
 1518W        W 5037   3.349   0.889   1.783
 1519W        W 5038   9.496   2.416   1.742
 1520W        W 5039   8.271   6.663   9.053
 1521W        W 5040   8.824   3.083   2.661
 1522W        W 5041   1.749   6.334   2.767
 1523W        W 5042   4.967   0.666  10.962
 1524W        W 5043   8.936   7.097   0.798
 1525W        W 5044   4.000   4.340   0.475
 1526W        W 5045   1.603   6.903   3.564
 1527W        W 5046   9.201   6.069   1.858
 1528W        W 5047   1.301   6.679   0.352
 1529W        W 5048   7.458   0.912   0.890
 1530W        W 5049   9.805   3.188   2.860
 1531W        W 5050   4.050   3.217  10.876
 1532W        W 5051   5.439   2.303   9.946
 1533W        W 5052   8.106   8.414   9.429
 1534W        W 5053   7.640   2.338   2.230
 1535W        W 5054   7.542   1.108   8.537
 1536W        W 5055   6.105   6.734   9.657
 1537W        W 5056   7.425   8.531   9.854
 1538W        W 5057   9.251   4.485  11.106
 1539W        W 5058   3.329   7.985   0.876
 1540W        W 5059   4.162   2.571   3.023
 1541W        W 5060   0.225   1.808  10.282
 1542W        W 5061   9.185   3.137   0.830
 1543W        W 5062   3.481   1.223  10.479
 1544W        W 5063   5.932   2.732  10.321
 1545W        W 5064   4.286   4.446   8.572
 1546W        W 5065   7.398   9.564   0.237
 1547W        W 5066   4.998   6.605  10.625
 1548W        W 5067   7.861   6.352   3.162
 1549W        W 5068   1.718   5.785   9.095
 1550W        W 5069   6.396   1.370  11.515
 1551W        W 5070   0.007   5.874   0.188
 1552W        W 5071   1.850   9.207   9.595
 1553W        W 5072   5.406   8.504  11.349
 1554W        W 5073   1.866   4.707  11.255
 1555W        W 5074   4.719   1.430   0.706
 1556W        W 5075   9.632   7.494   3.371
 1557W        W 5076   5.515   2.236   1.544
 1558W        W 5077   6.925   5.531   8.455
 1559W        W 5078   9.641   6.452   8.642
 1560W        W 5079   1.352   8.451   0.117
 1561W        W 5080   6.498   7.795   9.454
 1562W        W 5081   8.485   6.973   1.026
 1563W        W 5082   9.578   4.081   2.861
 1564W        W 5083   5.051   6.406  11.089
 1565W        W 5084   5.870   1.877   1.275
 1566W        W 5085   4.563   3.553   8.460
 1567W        W 5086   8.094   9.446  11.201
 1568W        W 5087   4.056   3.302   9.538
 1569W        W 5088   9.870   1.302  11.465
 1570W        W 5089   0.220   1.035   1.021
 1571W        W 5090   6.362   3.732   0.344
 1572W        W 5091   2.614   1.950  11.576
 1573W        W 5092   7.693   2.108  11.706
 1574W        W 5093   5.198   6.955  10.013
 1575W        W 5094   3.769   1.733   0.908
 1576W        W 5095   4.183   3.168  10.001
 1577W        W 5096   0.309   3.748  10.929
 1578W        W 5097   8.527   6.609   0.078
 1579W        W 5098   1.244   1.590  11.918
 1580W        W 5099   9.516   3.140   2.372
 1581W        W 5100   2.860   0.148  11.050
 1582W        W 5101   7.535   1.174  11.980
 1583W        W 5102   2.917   4.377   0.848
 1584W        W 5103   0.897   0.086   8.907
 1585W        W 5104   7.054   5.467   1.630
 1586W        W 5105   8.875   6.996   3.240
 1587W        W 5106   8.075   0.064  10.922
 1588W        W 5107   7.244   4.635  10.183
 1589W        W 5108   4.764   3.690   9.382
 1590W        W 5109   6.743   5.181   8.961
 1591W        W 5110   5.455   7.643   1.862
 1592W        W 5111   5.762   6.171  10.416
 1593W        W 5112   7.826   6.633  10.868
 1594W        W 5113   7.477   1.857   1.988
 1595W        W 5114   9.120   3.053   9.909
 1596W        W 5115   1.123   5.724   2.218
 1597W        W 5116   2.122   2.577   1.329
 1598W        W 5117   8.764   4.314   0.491
 1599W        W 5118   8.090   2.830   8.882
 1600W        W 5119   3.576   3.649   0.706
 1601W        W 5120   3.389   0.339  11.062
 1602W        W 5121   9.671   8.578   8.568
 1603W        W 5122   0.219   0.007   0.836
 1604W        W 5123   7.024   9.036  10.475
 1605W        W 5124   4.924   3.958   3.215
 1606W        W 5125   7.126   5.961  11.502
 1607W        W 5126   3.283   0.762  11.385
 1608W        W 5127   5.202   0.058  11.343
 1609W        W 5128   3.834   8.307  10.525
 1610W        W 5129   1.811   3.120   9.387
 1611W        W 5130   9.853   8.031  10.707
 1612W        W 5131   7.375   7.502   9.986
 1613W        W 5132   4.947   5.348   1.407
 1614W        W 5133   7.540   5.595  10.235
 1615W        W 5134   4.953   7.522  11.621
 1616W        W 5135   5.166   0.722  11.947
 1617W        W 5136   9.057   3.170   8.734
 1618W        W 5137   3.066   7.863  11.532
 1619W        W 5138   4.025   2.178  10.801
 1620W        W 5139   9.353   9.960   0.657
 1621W        W 5140   9.522   6.488   2.730
 1622W        W 5141   2.278   0.136   1.891
 1623W        W 5142   8.699   1.834  11.719
 1624W        W 5143   3.868   3.632   8.146
 1625W        W 5144   8.494   0.328   0.775
 1626W        W 5145   6.627   3.231  10.454
 1627W        W 5146   7.833   6.100  10.869
 1628W        W 5147   3.203   2.917   0.309
 1629W        W 5148   2.780   6.424  11.044
 1630W        W 5149   3.644   0.975   3.032
 1631W        W 5150   7.741   8.473  11.291
 1632W        W 5151   3.686   8.797  10.578
 1633W        W 5152   9.829   9.982  11.759
 1634W        W 5153   4.611   3.263  10.255
 1635W        W 5154   1.043   9.675   0.478
 1636W        W 5155   6.659   7.512   3.270
 1637W        W 5156   1.064   2.837  10.705
 1638W        W 5157   5.426   2.751   0.292
 1639W        W 5158   3.187   8.279  10.151
 1640W        W 5159   3.573   4.241  11.282
 1641W        W 5160   0.672   4.922   0.914
 1642W        W 5161   3.566   5.917   9.204
 1643W        W 5162   4.186   0.067   1.858
 1644W        W 5163   1.810   5.843   2.745
 1645W        W 5164   0.420   9.261   8.640
 1646W        W 5165   4.192   2.188   2.675
 1647W        W 5166   3.747   6.374  10.445
 1648W        W 5167   3.769   6.098  10.011
 1649W        W 5168   2.051   1.498   0.875
 1650W        W 5169   9.637   1.018   1.400
 1651W        W 5170   4.526   7.009   3.291
 1652W        W 5171   2.690   8.986   9.625
 1653W        W 5172   6.761   9.963   1.373
 1654W        W 5173   5.214   4.946   3.304
 1655W        W 5174   3.366   1.095   0.325
 1656W        W 5175   4.304   9.102  11.244
 1657W        W 5176   3.757   9.220   1.126
 1658W        W 5177   0.482   4.195   9.536
 1659W        W 5178   1.991   2.712   2.126
 1660W        W 5179   2.334   8.849   8.763
 1661W        W 5180   1.299   7.611   9.967
 1662W        W 5181   9.996   8.078   2.230
 1663W        W 5182   8.128   5.419   0.852
 1664W        W 5183   0.937   0.873   9.988
 1665W        W 5184   1.350   4.926  11.948
 1666W        W 5185   4.181   8.524   0.668
 1667W        W 5186   5.211   5.947   0.463
 1668W        W 5187   2.614   6.447  10.046
 1669W        W 5188   0.862   7.211   9.527
 1670W        W 5189   7.872   6.801   2.114
 1671W        W 5190   0.024   2.173   9.403
 1672W        W 5191   1.688   0.008   9.303
 1673W        W 5192   8.854   0.903   2.554
 1674W        W 5193   4.534   5.144   1.790
 1675W        W 5194   7.493   9.425   0.912
 1676W        W 5195   5.599   3.828  11.810
 1677W        W 5196   6.465   6.006   2.273
 1678W        W 5197   7.444   0.308   0.071
 1679W        W 5198   6.341   0.477   9.240
 1680W        W 5199   0.598   9.049   9.975
 1681W        W 5200   7.916   0.195   2.550
 1682W        W 5201   2.882   5.526   3.220
 1683W        W 5202   7.290   1.789   2.889
 1684W        W 5203   6.136   4.572   3.115
 1685W        W 5204   0.901   2.498   9.863
 1686W        W 5205   2.893   9.591   1.438
 1687W        W 5206   5.110   4.968   0.079
 1688W        W 5207   9.559   0.074   3.376
 1689W        W 5208   5.593   2.576   9.556
 1690W        W 5209   7.423   8.859  11.051
 1691W        W 5210   6.690   4.392   4.175
 1692W        W 5211   6.912   8.210  11.732
 1693W        W 5212   6.121   7.643  10.816
 1694W        W 5213   6.404   6.937   8.712
 1695W        W 5214   3.527   7.586   0.599
 1696W        W 5215   8.009   9.528   1.632
 1697W        W 5216   7.228   6.157  10.079
 1698W        W 5217   0.872   3.973   2.976
 1699W        W 5218   4.465   6.728   2.395
 1700W        W 5219   6.673   0.564  10.464
 1701W        W 5220   8.591   9.059   9.850
 1702W        W 5221   4.304   8.729   2.913
 1703W        W 5222   7.883   8.865   0.456
 1704W        W 5223   3.361   9.192   3.163
 1705W        W 5224   9.797   6.707  10.478
 1706W        W 5225   8.657   3.156  11.824
 1707W        W 5226   2.104   1.493   1.936
 1708W        W 5227   7.193   7.067  11.467
 1709W        W 5228   0.114   7.049   3.292
 1710W        W 5229   3.096   6.285   8.528
 1711W        W 5230   0.701   7.946  10.960
 1712W        W 5231   1.213   3.106  11.159
 1713W        W 5232   1.577   1.221   8.735
 1714W        W 5233   9.760   7.466   8.966
 1715W        W 5234   5.928   9.507  11.801
 1716W        W 5235   4.050   7.173  10.634
 1717W        W 5236   3.345   0.425  10.116
 1718W        W 5237   0.845   8.499   1.275
 1719W        W 5238   8.081   0.183   9.981
 1720W        W 5239   9.559   9.242   3.476
 1721W        W 5240   4.909   8.465  11.346
 1722W        W 5241   2.684   8.298  10.381
 1723W        W 5242   5.990   9.251   1.274
 1724W        W 5243   8.171   7.469   2.668
 1725W        W 5244   0.867   4.089   1.175
 1726W        W 5245   2.078   0.789   1.280
 1727W        W 5246   9.826   8.346   3.268
 1728W        W 5247   5.252   7.995   9.562
 1729W        W 5248   8.368   1.739   0.552
 1730W        W 5249   0.473   5.664   0.328
 1731W        W 5250   0.281   7.977   0.738
 1732W        W 5251   6.299   5.897   1.154
 1733W        W 5252   8.684   8.854  10.702
 1734W        W 5253   4.377   9.732   0.593
 1735W        W 5254   5.325   7.491  10.680
 1736W        W 5255   6.543   0.246   2.118
 1737W        W 5256   3.922   5.106  10.957
 1738W        W 5257   1.727   2.656   9.112
 1739W        W 5258   7.606   0.351  10.112
 1740W        W 5259   1.621   8.039  10.482
 1741W        W 5260   4.438   5.998   3.918
 1742W        W 5261   2.131   2.525  11.563
 1743W        W 5262   0.158   7.511   3.507
 1744W        W 5263   1.434   5.364   0.180
 1745W        W 5264   7.096   7.830   3.219
 1746W        W 5265   2.284   7.407  11.552
 1747W        W 5266   5.797   9.604   8.586
 1748W        W 5267   8.652   3.273  10.002
 1749W        W 5268   4.418   7.835  10.018
 1750W        W 5269   4.589   9.520   1.364
 1751W        W 5270   3.021   1.842   9.943
 1752W        W 5271   6.341   5.064   1.480
 1753W        W 5272   4.444   5.120  10.788
 1754W        W 5273   3.386   6.805   0.806
 1755W        W 5274   9.591   1.813  11.531
 1756W        W 5275   4.833   5.522   8.525
 1757W        W 5276   3.143   5.985   1.081
 1758W        W 5277   5.123   0.124   1.715
 1759W        W 5278   1.374   0.199   2.072
 1760W        W 5279   9.102   6.705   2.522
 1761W        W 5280   7.182   0.821   2.144
 1762W        W 5281   7.731   4.542   9.497
 1763W        W 5282   3.788   4.438  10.347
 1764W        W 5283   8.454   2.636   0.502
 1765W        W 5284   1.257   3.344   2.181
 1766W        W 5285   2.783   8.865   1.950
 1767W        W 5286   1.402   9.404  10.865
 1768W        W 5287   3.278   3.194   2.900
 1769W        W 5288   2.865   5.564   8.844
 1770W        W 5289   8.420   4.506   8.324
 1771W        W 5290   1.335   6.153   2.025
 1772W        W 5291   2.008   0.497   9.453
 1773W        W 5292   1.876   9.170  10.654
 1774W        W 5293   0.002   6.514   1.401
 1775W        W 5294   9.127   6.567   3.054
 1776W        W 5295   8.806   3.130  11.327
 1777W        W 5296   5.754   4.039   3.710
 1778W        W 5297   7.260   9.051   8.790
 1779W        W 5298   0.438   5.679   2.658
 1780W        W 5299   7.663   9.856   1.840
 1781W        W 5300   0.665   5.166   2.010
 1782W        W 5301   6.402   9.748   2.883
 1783W        W 5302   7.088   1.422   1.254
 1784W        W 5303   6.851   0.075  10.566
 1785W        W 5304   1.149   3.318  10.652
 1786W        W 5305   5.426   8.934   1.904
 1787W        W 5306   1.364   4.020   1.362
 1788W        W 5307   5.109   1.734   2.350
 1789W        W 5308   7.868   9.788   3.293
 1790W        W 5309   3.252   0.868   9.874
 1791W        W 5310   6.138   0.214   0.666
 1792W        W 5311   9.876   2.743   1.752
 1793W        W 5312   5.977   6.468   3.313
 1794W        W 5313   6.368   9.044   0.189
 1795W        W 5314   4.178   7.993   8.604
 1796W        W 5315   3.137   6.030   9.502
 1797W        W 5316   8.001   1.428   0.359
 1798W        W 5317   7.526   9.838   9.498
 1799W        W 5318   1.706   7.455   0.805
 1800W        W 5319   6.108   3.697  11.878
 1801W        W 5320   5.679   0.527   3.574
 1802W        W 5321   4.649   1.375   9.877
 1803W        W 5322   2.905   1.728  11.192
 1804W        W 5323   8.043   6.986   2.547
 1805W        W 5324   2.969   5.571   9.694
 1806W        W 5325   2.775   3.057   0.580
 1807W        W 5326   4.024   1.784   9.970
 1808W        W 5327   2.678   9.307   8.187
 1809W        W 5328   5.280   6.276   8.690
 1810W        W 5329   8.045   8.889  10.418
 1811W        W 5330   1.331   4.067  10.980
 1812W        W 5331   5.136   4.398   3.405
 1813W        W 5332   8.221   4.405   3.575
 1814W        W 5333   5.624   6.209   8.310
 1815W        W 5334   8.639   0.822  11.649
 1816W        W 5335   1.279   6.506   2.815
 1817W        W 5336   3.591   5.269  10.532
 1818W        W 5337   6.655   8.125   0.532
 1819W        W 5338   6.568   6.490   8.512
 1820W        W 5339   4.495   9.264  10.781
 1821W        W 5340   9.953   9.002   8.614
 1822W        W 5341   8.857   7.383   1.800
 1823W        W 5342   8.435   4.727   9.583
 1824W        W 5343   8.822   5.785  10.957
 1825W        W 5344   3.719   5.468   2.838
 1826W        W 5345   1.248   2.217  11.108
 1827W        W 5346   6.502   2.062   9.161
 1828W        W 5347   0.993   1.708   1.233
 1829W        W 5348   1.471   4.974  11.452
 1830W        W 5349   2.806   3.155   2.476
 1831W        W 5350   9.999   3.872   1.136
 1832W        W 5351   3.390   0.258   1.124
 1833W        W 5352   3.813   1.216   1.240
 1834W        W 5353   9.133   3.705   8.797
 1835W        W 5354   3.746   6.935   1.449
 1836W        W 5355   0.456   1.863   9.371
 1837W        W 5356   4.544   8.728   0.348
 1838W        W 5357   4.672   6.883  10.015
 1839W        W 5358   3.703   0.764  11.832
 1840W        W 5359   0.166   8.039   0.251
 1841W        W 5360   3.984   0.328   2.252
 1842W        W 5361   7.586   9.776   2.757
 1843W        W 5362   4.996   6.082   0.939
 1844W        W 5363   4.791   8.329  10.885
 1845W        W 5364   6.073   1.355  10.772
 1846W        W 5365   6.032   2.291   3.133
 1847W        W 5366   5.937   4.096   8.697
 1848W        W 5367   0.687   3.596  10.611
 1849W        W 5368   4.785   6.896   2.796
 1850W        W 5369   7.565   4.883   9.870
 1851W        W 5370   5.091   6.044  10.276
 1852W        W 5371   7.307   1.160  10.516
 1853W        W 5372   9.804   7.161   1.939
 1854W        W 5373   2.535   5.975  11.686
 1855W        W 5374   6.374   7.873   3.506
 1856W        W 5375   8.694   3.515   8.584
 1857W        W 5376   2.633   4.051   0.384
 1858W        W 5377   8.246   1.464  10.459
 1859W        W 5378   8.877   5.462   9.487
 1860W        W 5379   1.210   3.736   0.470
 1861W        W 5380   8.373   5.220   2.794
 1862W        W 5381   2.726   4.025   8.876
 1863W        W 5382   0.584   0.205   0.048
 1864W        W 5383   6.866   2.859   8.877
 1865W        W 5384   1.317   5.480   9.070
 1866W        W 5385   3.691   4.298   2.508
 1867W        W 5386   0.024   1.962  10.721
 1868W        W 5387   6.053   6.516   8.654
 1869W        W 5388   5.752   8.462   0.696
 1870W        W 5389   9.727   3.260   1.754
 1871W        W 5390   4.031   9.577   1.908
 1872W        W 5391   9.334   5.697  10.997
 1873W        W 5392   2.589   8.535   0.973
 1874W        W 5393   2.428   0.341   9.211
 1875W        W 5394   8.523   6.087   2.493
 1876W        W 5395   6.887   2.067   2.776
 1877W        W 5396   0.655   3.548   0.737
 1878W        W 5397   9.016   5.334  10.808
 1879W        W 5398   5.824   5.168  10.262
 1880W        W 5399   8.904   0.189   0.413
 1881W        W 5400   2.667   3.432   1.028
 1882W        W 5401   1.955   2.604  10.712
 1883W        W 5402   7.478   1.261  10.031
 1884W        W 5403   9.502   3.673   3.639
 1885W        W 5404   6.838   5.623   2.838
 1886W        W 5405   3.303   9.002   0.908
 1887W        W 5406   7.278   5.490  11.319
 1888W        W 5407   3.852   2.463   9.498
 1889W        W 5408   9.880   9.326  11.071
 1890W        W 5409   0.038   3.617  11.856
 1891W        W 5410   6.314   9.684   1.343
 1892W        W 5411   4.706   1.463  10.542
 1893W        W 5412   5.664   4.719   2.936
 1894W        W 5413   1.840   7.808   2.567
 1895W        W 5414   2.357   4.622   2.375
 1896W        W 5415   0.890   6.546  10.975
 1897W        W 5416   9.932   5.229  11.205
 1898W        W 5417   2.226   9.669   9.988
 1899W        W 5418   3.758   2.637   1.043
 1900W        W 5419   2.371   7.030   0.691
 1901W        W 5420   8.535   6.227   0.412
 1902W        W 5421   3.890   6.693   0.877
 1903W        W 5422   0.486   4.075   9.044
 1904W        W 5423   4.231   8.850  10.686
 1905W        W 5424   3.203   0.711   3.205
 1906W        W 5425   0.339   2.074   1.316
 1907W        W 5426   9.452   9.348  10.772
 1908W        W 5427   8.014   1.993   2.196
 1909W        W 5428   6.458   9.298   1.038
 1910W        W 5429   8.506   6.815  11.606
 1911W        W 5430   2.375   8.443   0.427
 1912W        W 5431   6.786   9.781   9.256
 1913W        W 5432   7.486   2.028  10.360
 1914W        W 5433   2.569   6.997  11.312
 1915W        W 5434   4.609   4.725   9.862
 1916W        W 5435   4.602   1.286   2.995
 1917W        W 5436   0.238   0.415   9.096
 1918W        W 5437   9.434   5.851  11.472
 1919W        W 5438   1.359   9.212   1.665
 1920W        W 5439   3.570   9.248  10.297
 1921W        W 5440   4.759   9.504   0.871
 1922W        W 5441   8.575   8.179  11.524
 1923W        W 5442   0.150   3.755   9.791
 1924W        W 5443   8.532   8.550   9.735
 1925W        W 5444   8.781   5.614  11.785
 1926W        W 5445   8.929   2.602   2.022
 1927W        W 5446   4.139   7.583   9.199
 1928W        W 5447   8.473   8.002  10.525
 1929W        W 5448   7.894   5.918   1.610
 1930W        W 5449   3.208   4.212   9.094
 1931W        W 5450   8.150   6.653   8.533
 1932W        W 5451   2.680   5.272   1.174
 1933W        W 5452   5.389   9.746   1.960
 1934W        W 5453   8.025   0.660   2.326
 1935W        W 5454   0.210   6.010   8.634
 1936W        W 5455   4.592   8.474   1.481
 1937W        W 5456   8.579   8.420   9.238
 1938W        W 5457   1.599   6.768   8.703
 1939W        W 5458   2.323   3.247   0.712
 1940W        W 5459   6.660   4.533  11.979
 1941W        W 5460   0.778   2.297   2.508
 1942W        W 5461   5.038   0.869   8.986
 1943W        W 5462   4.610   2.684   3.252
 1944W        W 5463   8.073   7.700   3.120
 1945W        W 5464   8.439   4.170   1.349
 1946W        W 5465   9.978   6.844   0.516
 1947W        W 5466   1.300   6.327   9.535
 1948W        W 5467   6.410   1.003   0.850
 1949W        W 5468   1.572   7.502   2.264
 1950W        W 5469   4.189   3.601   2.183
 1951W        W 5470   1.221   8.504   9.966
 1952W        W 5471   4.766   2.017   9.447
 1953W        W 5472   5.673   9.701  10.066
 1954W        W 5473   1.929   3.923   9.809
 1955W        W 5474   9.117   6.181  10.982
 1956W        W 5475   5.950   4.431   0.379
 1957W        W 5476   8.837   7.774   1.444
 1958W        W 5477   7.376   0.782   9.870
 1959W        W 5478   0.044   9.645   0.460
 1960W        W 5479   5.166   6.590   2.312
 1961W        W 5480   7.102   1.092   1.704
 1962W        W 5481   1.203   7.098   8.615
 1963W        W 5482   4.701   7.966   1.371
 1964W        W 5483   0.691   3.895  11.393
 1965W        W 5484   0.467   2.381  11.444
 1966W        W 5485   5.864   9.398  10.815
 1967W        W 5486   5.569   1.882   0.874
 1968W        W 5487   7.351   7.670   2.770
 1969W        W 5488   4.371   3.127   2.192
 1970W        W 5489   8.885   9.222   0.939
 1971W        W 5490   0.972   5.783   2.736
 1972W        W 5491   1.602   5.016   2.483
 1973W        W 5492   5.081   2.528   4.415
 1974W        W 5493   4.674   6.969   1.192
 1975W        W 5494   2.084   3.510  11.405
 1976W        W 5495   8.317   3.811   3.210
 1977W        W 5496   6.425   8.920   3.587
 1978W        W 5497   1.399   8.092   2.733
 1979W        W 5498   3.569   4.093   8.132
 1980W        W 5499   6.227   5.706   3.690
 1981W        W 5500   8.382   4.528   0.235
 1982W        W 5501   0.030   9.813  10.247
 1983W        W 5502   5.242   3.560   0.758
 1984W        W 5503   5.608   7.945   2.312
 1985W        W 5504   5.771   7.399   0.034
 1986W        W 5505   2.707   8.590   2.892
 1987W        W 5506   2.941   1.813   3.632
 1988W        W 5507   4.477   2.329  10.614
 1989W        W 5508   5.193   9.258   3.134
 1990W        W 5509   6.897   8.991   1.566
 1991W        W 5510   8.461   7.153  10.640
 1992W        W 5511   0.133   4.097   1.744
 1993W        W 5512   9.818   1.011   3.288
 1994W        W 5513   4.997   9.226   2.673
 1995W        W 5514   1.172   8.484  10.485
 1996W        W 5515   9.587   2.391   3.507
 1997W        W 5516   0.886   0.618   0.266
 1998W        W 5517   1.584   9.055   1.241
 1999W        W 5518   5.540   7.303   3.623
 2000W        W 5519   7.483   1.089   1.370
 2001W        W 5520   6.200   0.758   0.021
 2002W        W 5521   7.801   0.370  10.582
 2003W        W 5522   0.497   1.591   1.346
 2004W        W 5523   5.502   5.072  11.311
 2005W        W 5524   2.339   4.395   0.776
 2006W        W 5525   7.635   7.606  10.422
 2007W        W 5526   4.836   9.964   0.622
 2008W        W 5527   7.286   2.121   9.054
 2009W        W 5528   7.289   5.655   3.990
 2010W        W 5529   1.204   2.215   1.314
 2011W        W 5530   4.286   5.275   3.335
 2012W        W 5531   3.535   5.769   7.912
 2013W        W 5532   1.075   7.037   3.508
 2014W        W 5533   0.461   3.503   3.566
 2015W        W 5534   8.912   7.797  11.690
 2016W        W 5535   5.486   4.231  11.493
 2017W        W 5536   2.609   7.936  10.743
 2018W        W 5537   5.580   1.052   3.576
 2019W        W 5538   4.293   4.668   1.824
 2020W        W 5539   4.990   6.804   3.271
 2021W        W 5540   9.411   7.968  11.009
 2022W        W 5541   9.322   8.983  11.149
 2023W        W 5542   6.004   8.814   0.446
 2024W        W 5543   0.392   7.601   0.411
 2025W        W 5544   8.194   2.895   9.580
 2026W        W 5545   6.169   7.931   0.592
 2027W        W 5546   2.753   7.474  11.289
 2028W        W 5547   0.357   2.665   1.911
 2029W        W 5548   6.883   6.276  11.850
 2030W        W 5549   6.818   7.352   9.070
 2031W        W 5550   2.707   9.757   8.963
 2032W        W 5551   6.742   3.579   8.538
 2033W        W 5552   1.760   8.786   9.322
 2034W        W 5553   5.649   3.822   9.933
 2035W        W 5554   5.956   7.561   1.807
 2036W        W 5555   6.267   4.086   3.892
 2037W        W 5556   6.629   7.321   9.537
 2038W        W 5557   2.289   2.784   0.448
 2039W        W 5558   8.018   2.266   9.069
 2040W        W 5559   9.113   8.178   1.658
 2041W        W 5560   0.774   5.177  11.515
 2042W        W 5561   4.945   0.546   2.950
 2043W        W 5562   6.094   7.407   0.438
 2044W        W 5563   6.333   0.853  11.541
 2045W        W 5564   3.023   6.464   0.933
 2046W        W 5565   9.962   2.138   2.121
 2047W        W 5566   8.707   3.830   9.426
 2048W        W 5567   0.857   7.099  11.832
 2049W        W 5568   2.515   3.533   2.259
 2050W        W 5569   0.904   7.006   9.045
 2051W        W 5570   1.340   7.442   9.468
 2052W        W 5571   2.963   7.056   9.217
 2053W        W 5572   2.815   3.853   9.761
 2054W        W 5573   7.172   3.192   3.223
 2055W        W 5574   5.184   7.084  11.458
 2056W        W 5575   7.184   8.700   0.695
 2057W        W 5576   6.675   3.846   2.941
 2058W        W 5577   0.010   9.522   8.815
 2059W        W 5578   0.256   7.220   2.813
 2060W        W 5579   9.733   7.724   2.511
 2061W        W 5580   2.737   3.618   1.816
 2062W        W 5581   9.251   1.805   0.488
 2063W        W 5582   9.341   2.079  10.647
 2064W        W 5583   0.177   6.586   2.136
 2065W        W 5584   3.259   4.193   8.580
 2066W        W 5585   2.881   5.977  11.309
 2067W        W 5586   8.206   5.406   0.312
 2068W        W 5587   4.533   8.542   2.304
 2069W        W 5588   4.175   7.201  11.396
 2070W        W 5589   9.671   9.097   2.998
 2071W        W 5590   5.000   8.348   1.202
 2072W        W 5591   5.260   5.277   8.766
 2073W        W 5592   1.633   8.215   1.031
 2074W        W 5593   2.625   9.041   1.024
 2075W        W 5594   9.363   5.510   2.380
 2076W        W 5595   1.760   1.333   3.532
 2077W        W 5596   0.951   6.776   3.089
 2078W        W 5597   7.043   0.822   3.110
 2079W        W 5598   0.307   2.799   3.067
 2080W        W 5599   7.977   2.148   0.920
 2081W        W 5600   1.550   7.649   1.277
 2082W        W 5601   9.214   0.385   1.351
 2083W        W 5602   6.253   3.674   3.135
 2084W        W 5603   5.168   4.472   2.039
 2085W        W 5604   5.528   3.146   3.185
 2086W        W 5605   4.893   7.410   1.015
 2087W        W 5606   6.485   9.853   3.499
 2088W        W 5607   5.184   7.279   3.252
 2089W        W 5608   3.316   2.973  11.195
 2090W        W 5609   1.173   5.799   8.643
 2091W        W 5610   0.813   1.146   0.810
 2092W        W 5611   5.444   1.383  11.144
 2093W        W 5612   9.272   7.085   1.202
 2094W        W 5613   3.590   3.439   0.249
 2095W        W 5614   2.646   4.366   1.272
 2096W        W 5615   7.765   8.423   2.652
 2097W        W 5616   9.014   2.235  11.516
 2098W        W 5617   0.694   2.625   3.404
 2099W        W 5618   6.449   7.629   1.745
 2100W        W 5619   8.302   1.255   8.572
 2101W        W 5620   0.658   4.153   1.777
 2102W        W 5621   7.449   4.918  11.372
 2103W        W 5622   9.028   1.347  10.111
 2104W        W 5623   3.237   2.483   1.073
 2105W        W 5624   6.007   8.129  10.719
 2106W        W 5625   0.463   1.385   9.230
 2107W        W 5626   2.854   6.435  10.544
 2108W        W 5627   7.149   7.372   3.479
 2109W        W 5628   7.479   1.807   9.911
 2110W        W 5629   4.896   8.376   1.924
 2111W        W 5630   7.896   8.855   2.309
 2112W        W 5631   4.002   3.143   8.974
 2113W        W 5632   9.585   4.839  11.340
 2114W        W 5633   1.799   2.159  10.958
 2115W        W 5634   0.511   1.239  10.101
 2116W        W 5635   0.074   9.312   3.222
 2117W        W 5636   4.099   4.148   0.011
 2118W        W 5637   7.338   2.691   0.413
 2119W        W 5638   9.415   6.922  10.191
 2120W        W 5639   2.142   6.163   3.023
 2121W        W 5640   5.441   7.194   8.534
 2122W        W 5641   7.206   2.108   0.566
 2123W        W 5642   8.257   3.096   0.418
 2124W        W 5643   3.538   4.064   1.530
 2125W        W 5644   9.923   2.215   1.586
 2126W        W 5645   0.793   2.872   1.706
 2127W        W 5646   5.129   3.834  11.488
 2128W        W 5647   2.483   2.794   2.253
 2129W        W 5648   5.108   8.243   0.702
 2130W        W 5649   2.787   1.341   1.377
 2131W        W 5650   6.396   7.527   0.827
 2132W        W 5651   5.728   5.610  11.961
 2133W        W 5652   8.898   2.204  10.882
 2134W        W 5653   1.684   6.589   9.748
 2135W        W 5654   6.451   3.709  10.487
 2136W        W 5655   0.825   5.378   2.443
 2137W        W 5656   0.821   1.264  11.748
 2138W        W 5657   0.361   5.097   3.154
 2139W        W 5658   9.055   5.679   9.067
 2140W        W 5659   5.655   9.857  10.996
 2141W        W 5660   5.225   4.975   0.559
 2142W        W 5661   4.263   7.780   1.618
 2143W        W 5662   2.042   4.861   2.777
 2144W        W 5663   1.834   7.014   2.766
 2145W        W 5664   8.098   8.702   0.896
 2146W        W 5665   8.287   9.182   8.629
 2147W        W 5666   1.869   5.219  11.245
 2148W        W 5667   5.397   8.398   2.107
 2149W        W 5668   3.509   2.405   8.783
 2150W        W 5669   4.795   8.455   9.050
 2151W        W 5670   1.866   9.584  11.083
 2152W        W 5671   8.979   7.142   2.761
 2153W        W 5672   2.775   3.044  10.438
 2154W        W 5673   6.608   4.296   3.161
 2155W        W 5674   9.108   4.884   3.150
 2156W        W 5675   5.889   5.885   4.052
 2157W        W 5676   8.822   7.870   1.937
 2158W        W 5677   0.796   6.101   0.853
 2159W        W 5678   1.231   2.560  10.308
 2160W        W 5679   7.253   9.872   9.026
 2161W        W 5680   0.267   9.272   1.614
 2162W        W 5681   1.575   8.903  10.943
 2163W        W 5682   3.238   5.679   1.492
 2164W        W 5683   3.335   0.394   9.050
 2165W        W 5684   3.304   9.733   3.137
 2166W        W 5685   7.221   1.545   8.632
 2167W        W 5686   2.360   4.876   9.178
 2168W        W 5687   8.546   4.863   9.002
 2169W        W 5688   0.257   8.843   0.167
 2170W        W 5689   9.826   4.154   9.788
 2171W        W 5690   5.903   1.909   0.495
 2172W        W 5691   3.536   0.180   2.426
 2173W        W 5692   4.186   0.218   0.791
 2174W        W 5693   9.361   9.032   1.072
 2175W        W 5694   3.627   9.568   9.886
 2176W        W 5695   1.043   4.738  11.571
 2177W        W 5696   7.999   6.377   1.271
 2178W        W 5697   1.335   4.249  10.502
 2179W        W 5698   9.362   2.685   0.555
 2180W        W 5699   3.860   1.226   0.735
 2181W        W 5700   2.345   5.395   1.542
 2182W        W 5701   0.579   8.118   2.932
 2183W        W 5702   4.148   1.924   8.532
 2184W        W 5703   9.531   0.574   3.071
 2185W        W 5704   0.912   6.381   9.853
 2186W        W 5705   6.158   9.970  11.791
 2187W        W 5706   6.235   6.664  10.179
 2188W        W 5707   9.256   7.124   0.391
 2189W        W 5708   2.241   9.625   0.346
 2190W        W 5709   6.565   3.323   1.702
 2191W        W 5710   8.234   4.798   0.649
 2192W        W 5711   4.535   7.654   9.518
 2193W        W 5712   7.955   1.395   9.211
 2194W        W 5713   7.075   2.614  11.675
 2195W        W 5714   3.445   6.435   3.093
 2196W        W 5715   7.016   5.142   2.735
 2197W        W 5716   7.126   2.652  11.179
 2198W        W 5717   9.846   9.425   8.345
 2199W        W 5718   8.899   4.534   8.710
 2200W        W 5719   6.200   8.294   1.827
 2201W        W 5720   3.555   7.494   2.677
 2202W        W 5721   6.472   3.175   2.234
 2203W        W 5722   6.536   5.006   0.190
 2204W        W 5723   5.968   5.649  10.404
 2205W        W 5724   9.913   0.776   9.851
 2206W        W 5725   2.177   0.632   0.472
 2207W        W 5726   2.602   8.230  11.764
 2208W        W 5727   1.237   6.836   9.525
 2209W        W 5728   2.665   9.113   1.516
 2210W        W 5729   7.548   4.273  10.460
 2211W        W 5730   8.299   1.001   1.385
 2212W        W 5731   6.297   7.406  11.915
 2213W        W 5732   0.941   2.197   0.046
 2214W        W 5733   2.743   5.018   3.670
 2215W        W 5734   5.076   8.528  10.059
 2216W        W 5735   0.272   7.405   8.863
 2217W        W 5736   7.420   2.317   9.943
 2218W        W 5737   9.213   3.773   1.741
 2219W        W 5738   0.079   1.749   1.660
 2220W        W 5739   2.484   7.953   3.451
 2221W        W 5740   9.885   2.143   1.037
 2222W        W 5741   5.514   8.783  10.070
 2223W        W 5742   5.338   4.304   2.895
 2224W        W 5743   1.150   6.949  11.290
 2225W        W 5744   3.753   5.020   0.390
 2226W        W 5745   3.566   3.091  10.359
 2227W        W 5746   8.385   0.913   9.897
 2228W        W 5747   7.602   6.066   1.158
 2229W        W 5748   2.592   6.478  11.510
 2230W        W 5749   8.937   7.942   9.751
 2231W        W 5750   7.156   9.703   1.701
 2232W        W 5751   4.661   9.733  10.802
 2233W        W 5752   4.853   9.879   9.678
 2234W        W 5753   5.499   6.728   3.245
 2235W        W 5754   9.437   7.395   2.214
 2236W        W 5755   0.002   2.991   0.514
 2237W        W 5756   4.566   6.516  10.910
 2238W        W 5757   5.321   6.194  10.698
 2239W        W 5758   3.068   2.241   3.924
 2240W        W 5759   4.514   5.112   1.273
 2241W        W 5760   1.021   5.638   0.891
 2242W        W 5761   9.438   7.034  11.770
 2243W        W 5762   2.260   0.747  11.552
 2244W        W 5763   6.845   7.758   3.670
 2245W        W 5764   4.440   8.215  11.314
 2246W        W 5765   1.654   3.930  10.230
 2247W        W 5766   3.614   9.391  10.790
 2248W        W 5767   0.968   0.876  10.782
 2249W        W 5768   5.872   9.807   9.557
 2250W        W 5769   9.566   8.883   8.962
 2251W        W 5770   7.586   6.762   9.499
 2252W        W 5771   5.479   8.483   1.108
 2253W        W 5772   7.499   2.790   1.119
 2254W        W 5773   7.385   1.852   0.038
 2255W        W 5774   8.859   3.774   0.486
 2256W        W 5775   3.526   5.057   4.001
 2257W        W 5776   0.533   9.472   9.676
 2258W        W 5777   7.375   9.346  10.791
 2259W        W 5778   8.007   3.565   1.798
 2260W        W 5779   8.049   8.197  10.968
 2261W        W 5780   7.843   9.369  10.371
 2262W        W 5781   2.796   0.971  11.447
 2263W        W 5782   0.434   8.829   8.951
 2264W        W 5783   3.607   3.105   0.653
 2265W        W 5784   1.710   5.110   2.009
 2266W        W 5785   6.696   7.131   0.773
 2267W        W 5786   9.871   8.943   2.012
 2268W        W 5787   0.820   9.723   9.276
 2269W        W 5788   2.045   4.239  11.073
 2270W        W 5789   9.474   0.142  10.254
 2271W        W 5790   4.823   4.854   2.110
 2272W        W 5791   5.857   3.206   3.578
 2273W        W 5792   1.084   3.562   8.924
 2274W        W 5793   8.198   8.033   8.616
 2275W        W 5794   2.207   9.142  11.772
 2276W        W 5795   1.267   8.842   2.042
 2277W        W 5796   1.169   8.894   3.080
 2278W        W 5797   9.817   9.283   0.789
 2279W        W 5798   8.626   1.638  11.214
 2280W        W 5799   8.685   5.230   0.149
 2281W        W 5800   5.795   1.552  10.397
 2282W        W 5801   1.009   8.988  10.499
 2283W        W 5802   7.170   4.587   9.656
 2284W        W 5803   1.372   5.314   9.560
 2285W        W 5804   0.998   1.814  10.754
 2286W        W 5805   4.752   4.754   3.479
 2287W        W 5806   2.704   3.784   2.720
 2288W        W 5807   2.331   6.835  11.756
 2289W        W 5808   8.329   8.421   1.306
 2290W        W 5809   4.241   7.730   2.198
 2291W        W 5810   2.825   2.320  11.888
 2292W        W 5811   0.903   3.150   0.942
 2293W        W 5812   6.043   2.311   8.946
 2294W        W 5813   9.273   5.510  11.854
 2295W        W 5814   1.758   0.783  11.744
 2296W        W 5815   0.965   9.288   0.155
 2297W        W 5816   8.951   2.642   3.455
 2298W        W 5817   6.234   1.251   8.587
 2299W        W 5818   5.768   5.423   3.595
 2300W        W 5819   3.536   4.581   8.349
 2301W        W 5820   8.019   9.189   0.837
 2302W        W 5821   2.339   4.435   0.238
 2303W        W 5822   9.072   8.341   2.618
 2304W        W 5823   4.136   6.280  11.136
 2305W        W 5824   5.581   7.985  11.429
 2306W        W 5825   2.695   7.311  10.226
 2307W        W 5826   6.734   0.529   9.930
 2308W        W 5827   7.742   7.844   9.050
 2309W        W 5828   2.473   8.530   9.539
 2310W        W 5829   1.012   6.005   3.440
 2311W        W 5830   7.929   3.772  10.061
 2312W        W 5831   6.784   8.299  10.357
 2313W        W 5832   3.276   7.050  10.051
 2314W        W 5833   0.202   8.983   0.655
 2315W        W 5834   8.303   3.764   9.713
 2316W        W 5835   8.560   4.326   3.199
 2317W        W 5836   8.506   6.646  10.611
 2318W        W 5837   5.311   7.440   9.799
 2319W        W 5838   9.013   7.936   2.895
 2320W        W 5839   4.169   2.518  11.997
 2321W        W 5840   7.851   9.160  10.846
 2322W        W 5841   1.291   4.052   0.871
 2323W        W 5842   3.458   5.828   3.605
 2324W        W 5843   6.056   8.610  10.925
 2325W        W 5844   6.505   2.950   1.052
 2326W        W 5845   8.928   6.722   8.392
 2327W        W 5846   6.674   3.640  11.060
 2328W        W 5847   9.751   3.959   2.363
 2329W        W 5848   8.449   3.143  10.946
 2330W        W 5849   1.423   7.023   2.120
 2331W        W 5850   3.151   3.714   3.002
 2332W        W 5851   2.411   6.204  10.693
 2333W        W 5852   0.268   7.506   0.933
 2334W        W 5853   7.852   6.973   9.878
 2335W        W 5854   9.895   8.564   9.991
 2336W        W 5855   3.230   6.137  10.022
 2337W        W 5856   5.992   8.965  10.166
 2338W        W 5857   3.838   3.813  11.312
 2339W        W 5858   7.417   4.935   9.390
 2340W        W 5859   0.351   0.227   1.337
 2341W        W 5860   3.270   0.372   8.533
 2342W        W 5861   5.349   5.777   8.598
 2343W        W 5862   7.481   1.336   9.021
 2344W        W 5863   5.674   5.550   8.910
 2345W        W 5864   9.452   7.061   2.597
 2346W        W 5865   9.912   3.465   2.424
 2347W        W 5866   7.111   6.911   1.720
 2348W        W 5867   3.698   1.268  10.936
 2349W        W 5868   7.915   6.155  11.860
 2350W        W 5869   4.427   5.349  11.251
 2351W        W 5870   6.925   6.898   9.449
 2352W        W 5871   8.459   7.478   8.810
 2353W        W 5872   4.440   2.279  11.136
 2354W        W 5873   9.536   8.752   0.131
 2355W        W 5874   4.603   9.001   1.411
 2356W        W 5875   2.857   5.273   1.653
 2357W        W 5876   1.538   0.422  11.105
 2358W        W 5877   0.238   4.568   0.520
 2359W        W 5878   3.381   5.828   0.082
 2360W        W 5879   6.008   3.700   2.688
 2361W        W 5880   1.734   8.223   3.403
 2362W        W 5881   1.970   4.893  10.777
 2363W        W 5882   3.284   1.771   2.188
 2364W        W 5883   8.428   9.227  10.428
 2365W        W 5884   4.298   8.402   3.366
 2366W        W 5885   1.891   4.199   0.982
 2367W        W 5886   8.816   1.089   0.888
 2368W        W 5887   1.602   8.887   9.931
 2369W        W 5888   5.867   0.777   3.179
 2370W        W 5889   5.560   5.352  10.648
 2371W        W 5890   7.605   9.722   1.347
 2372W        W 5891   9.410   8.018   9.529
 2373W        W 5892   0.724   5.726  10.442
 2374W        W 5893   2.034   4.214   1.986
 2375W        W 5894   3.795   1.219  10.079
 2376W        W 5895   7.356   5.127  10.300
 2377W        W 5896   7.889   0.704   9.841
 2378W        W 5897   0.626   0.205   9.374
 2379W        W 5898   9.890   8.365   1.336
 2380W        W 5899   9.456   9.847   9.357
 2381W        W 5900   8.119   7.545  11.920
 2382W        W 5901   9.472   4.507   0.921
 2383W        W 5902   0.094   3.506   1.472
 2384W        W 5903   9.873   7.873   9.798
 2385W        W 5904   8.040   5.817   9.074
 2386W        W 5905   0.440   0.166  10.421
 2387W        W 5906   5.605   4.574   9.441
 2388W        W 5907   5.644   3.537  10.801
 2389W        W 5908   9.106   7.547   9.510
 2390W        W 5909   6.633   4.812   3.871
 2391W        W 5910   1.615   1.395   3.050
 2392W        W 5911   2.613   2.306   2.251
 2393W        W 5912   0.101   6.395  10.211
 2394W        W 5913   4.917   3.180   2.008
 2395W        W 5914   8.632   0.738   1.674
 2396W        W 5915   2.053   1.362   9.492
 2397W        W 5916   5.085   4.682   9.667
 2398W        W 5917   7.293   6.579   9.140
 2399W        W 5918   2.983   1.318  10.398
 2400W        W 5919   3.650   4.694  11.576
 2401W        W 5920   3.711   1.529   9.660
 2402W        W 5921   1.969   2.131  11.868
 2403W        W 5922   4.026   5.003   3.674
 2404W        W 5923   8.057   4.100  11.080
 2405W        W 5924   7.559   3.995   2.849
 2406W        W 5925   6.191   2.971  11.405
 2407W        W 5926   9.733   7.525  10.749
 2408W        W 5927   8.755   1.722   1.741
 2409W        W 5928   7.485   5.663   1.439
 2410W        W 5929   3.006   8.278   1.135
 2411W        W 5930   4.530   1.551   8.574
 2412W        W 5931   3.119   9.971   2.159
 2413W        W 5932   0.984   2.888   2.173
 2414W        W 5933   7.061   3.940   3.727
 2415W        W 5934   5.595   1.728   3.904
 2416W        W 5935   6.928   5.582  10.921
 2417W        W 5936   7.259   5.692   3.120
 2418W        W 5937   9.278   4.173   8.617
 2419W        W 5938   7.246   3.712   9.216
 2420W        W 5939   8.571   9.798   9.233
 2421W        W 5940   9.738   5.197   2.549
 2422W        W 5941   5.141   0.999  10.407
 2423W        W 5942   8.992   6.065   3.202
 2424W        W 5943   5.113   9.619   3.506
 2425W        W 5944   1.267   8.308   3.184
 2426W        W 5945   8.567   5.693   9.836
 2427W        W 5946   7.441   7.800   9.542
 2428W        W 5947   9.313   9.291  10.240
 2429W        W 5948   3.696   7.259  11.589
 2430W        W 5949   4.373   3.594   7.990
 2431W        W 5950   4.455   7.979   9.088
 2432W        W 5951   5.959   6.004   3.068
 2433W        W 5952   6.584   9.823   8.761
 2434W        W 5953   1.518   5.782  10.889
 2435W        W 5954   0.898   1.974   9.764
 2436W        W 5955   3.574   5.728  10.306
 2437W        W 5956   2.356   9.341   0.733
 2438W        W 5957   1.113   1.065   2.485
 2439W        W 5958   1.775   3.605   2.796
 2440W        W 5959   1.873   0.820  11.203
 2441W        W 5960   4.665   4.607   9.364
 2442W        W 5961   0.767   9.306   3.359
 2443W        W 5962   6.519   7.134   0.283
 2444W        W 5963   1.405   7.072   0.647
 2445W        W 5964   1.812   7.636  11.773
 2446W        W 5965   2.065   6.998  11.298
 2447W        W 5966   3.771   1.807   1.923
 2448W        W 5967   3.087   7.713   1.883
 2449W        W 5968   2.173   8.398  10.381
 2450W        W 5969   7.470   8.988   8.324
 2451W        W 5970   7.428   9.865  10.022
 2452W        W 5971   1.473   6.651  11.002
 2453W        W 5972   7.721   9.311   2.539
 2454W        W 5973   1.651   9.765   2.245
 2455W        W 5974   8.176   6.612  10.043
 2456W        W 5975   7.627   6.984   0.834
 2457W        W 5976   8.432   5.218   9.457
 2458W        W 5977   6.101   1.023   1.319
 2459W        W 5978   5.890   7.627   0.907
 2460W        W 5979   4.079   4.151   9.372
 2461W        W 5980   7.699   9.361   2.029
 2462W        W 5981   9.360   0.424   0.362
 2463W        W 5982   5.423   3.394   8.562
 2464W        W 5983   1.448   2.190  11.913
 2465W        W 5984   6.913   1.851   0.232
 2466W        W 5985   7.208   4.057   0.707
 2467W        W 5986   6.969   7.936   9.318
 2468W        W 5987   9.394   2.208   1.303
 2469W        W 5988   1.753   3.857  11.236
 2470W        W 5989   3.666   9.746  10.409
 2471W        W 5990   2.191   6.117   2.519
 2472W        W 5991   7.450   8.693   0.226
 2473W        W 5992   1.226   4.615   2.958
 2474W        W 5993   9.346   3.844  11.774
 2475W        W 5994   6.262   0.500   2.468
 2476W        W 5995   4.727   7.577   3.356
 2477W        W 5996   3.696   2.914   0.183
 2478W        W 5997   9.467   1.077  10.339
 2479W        W 5998   7.298   7.079   9.162
 2480W        W 5999   3.565   6.285   9.572
 2481W        W 6000   5.512   6.233   3.209
 2482W        W 6001   1.485   3.914   8.779
 2483W        W 6002   6.465   4.347  11.518
 2484W        W 6003   5.992   0.537   1.487
 2485W        W 6004   6.302   4.368   9.912
 2486W        W 6005   1.897   7.013   9.976
 2487W        W 6006   2.724   5.734   1.435
 2488W        W 6007   3.345   6.960   9.557
 2489W        W 6008   2.701   9.586  10.307
 2490W        W 6009   8.422   8.969   3.127
 2491W        W 6010   9.761   6.984   9.480
 2492W        W 6011   6.212   9.365   3.790
 2493W        W 6012   5.682   8.744   3.526
 2494W        W 6013   4.936   5.897  11.987
 2495W        W 6014   4.586   1.185   1.476
 2496W        W 6015   7.123   4.372   3.443
 2497W        W 6016   3.551   4.181   3.303
 2498W        W 6017   8.814   3.461   1.034
 2499W        W 6018   5.455   8.461   9.683
 2500W        W 6019   2.632   2.231   0.450
 2501W        W 6020   3.174   0.720  11.903
 2502W        W 6021   6.068   6.902   0.411
 2503W        W 6022   8.705   9.121   0.203
 2504W        W 6023   8.467   7.518   2.266
 2505W        W 6024   0.251   6.893  10.320
 2506W        W 6025   1.493   2.854   2.133
 2507W        W 6026   0.004   3.834   3.517
 2508W        W 6027   8.585   1.227   1.898
 2509W        W 6028   9.008   6.038   0.361
 2510W        W 6029   1.118   6.544   9.111
 2511W        W 6030   5.899   3.547   8.717
 2512W        W 6031   4.074   8.927   0.326
 2513W        W 6032   8.366   1.895   1.149
 2514W        W 6033   8.713   8.238  10.093
 2515W        W 6034   8.025   2.343   3.184
 2516W        W 6035   6.888   3.388   9.470
 2517W        W 6036   0.917   6.674   8.652
 2518W        W 6037   7.941   5.001   9.518
 2519W        W 6038   8.150   0.845  11.511
 2520W        W 6039   2.716   3.571   0.553
 2521W        W 6040   0.659   8.850   0.463
 2522W        W 6041   7.409   2.200  10.822
 2523W        W 6042   4.660   3.600   1.990
 2524W        W 6043   7.219   5.980   8.527
 2525W        W 6044   1.180   7.424   0.989
 2526W        W 6045   0.565   0.844  11.972
 2527W        W 6046   1.472   3.394   8.623
 2528W        W 6047   8.983   8.188   1.174
 2529W        W 6048   4.000   3.817   2.609
 2530W        W 6049   7.247   7.546   1.184
 2531W        W 6050   9.472   8.369  11.796
 2532W        W 6051   4.965   7.956   9.033
 2533W        W 6052   4.717   3.676   0.731
 2534W        W 6053   6.350   5.701  10.083
 2535W        W 6054   5.231   1.826  11.367
 2536W        W 6055   0.746   8.096   1.592
 2537W        W 6056   3.414   7.700   9.327
 2538W        W 6057   5.853   2.336   2.689
 2539W        W 6058   8.008   4.415  10.664
 2540W        W 6059   2.685   6.115   0.639
 2541W        W 6060   7.765   9.350   3.045
 2542W        W 6061   4.510   5.256   2.304
 2543W        W 6062   3.098   1.375   1.780
 2544W        W 6063   4.959   0.050   8.618
 2545W        W 6064   7.500   2.935  11.027
 2546W        W 6065   2.340   6.661  11.001
 2547W        W 6066   1.369   7.189  11.683
 2548W        W 6067   9.513   6.914   8.815
 2549W        W 6068   6.484   1.155   2.184
 2550W        W 6069   0.647   7.139  11.349
 2551W        W 6070   2.111   8.795  10.946
 2552W        W 6071   4.481   7.385   2.945
 2553W        W 6072   5.631   4.024  10.419
 2554W        W 6073   8.027   7.328  10.222
 2555W        W 6074   0.612   8.987   0.945
 2556W        W 6075   2.654   3.128   9.212
 2557W        W 6076   5.428   0.669   2.962
 2558W        W 6077   6.030   2.799   1.123
 2559W        W 6078   7.374   3.259   2.190
 2560W        W 6079   9.265   0.896   3.358
 2561W        W 6080   5.467   4.084   9.311
 2562W        W 6081   1.052   4.538   1.003
 2563W        W 6082   6.979   2.083   1.906
 2564W        W 6083   4.218   2.310   0.457
 2565W        W 6084   6.470   5.303   0.592
 2566W        W 6085   6.510   7.988   1.000
 2567W        W 6086   5.985   8.291   0.265
 2568W        W 6087   2.560   1.242   0.873
 2569W        W 6088   6.363   6.677   3.684
 2570W        W 6089   5.912   4.838   9.091
 2571W        W 6090   5.390   0.354   8.753
 2572W        W 6091   8.379   6.332  11.618
 2573W        W 6092   6.468   9.769  10.444
 2574W        W 6093   7.187   5.653   0.537
 2575W        W 6094   0.358   6.937  11.772
 2576W        W 6095   7.071   1.600   1.775
 2577W        W 6096   8.107   1.122   2.129
 2578W        W 6097   5.733   3.082   9.505
 2579W        W 6098   8.857   9.570   2.714
 2580W        W 6099   4.103   3.608   3.063
 2581W        W 6100   9.358   4.013  10.315
 2582W        W 6101   4.139   3.333  11.472
 2583W        W 6102   6.655   7.125   2.463
 2584W        W 6103   1.815   3.083   8.852
 2585W        W 6104   8.171   2.232  10.920
 2586W        W 6105   2.255   6.981   3.042
 2587W        W 6106   7.796   1.233  11.512
 2588W        W 6107   0.406   1.153   2.032
 2589W        W 6108   8.979   1.264  11.127
 2590W        W 6109   3.676   3.165   9.864
 2591W        W 6110   3.523   4.357   1.967
 2592W        W 6111   1.306   6.627  10.088
 2593W        W 6112   2.164   8.934   2.601
 2594W        W 6113   4.355   1.144   1.000
 2595W        W 6114   1.282   2.899   8.990
 2596W        W 6115   6.992   6.489   3.068
 2597W        W 6116   5.475   6.112  11.178
 2598W        W 6117   8.522   5.935   3.376
 2599W        W 6118   7.540   3.421  10.935
 2600W        W 6119   7.079   2.546   0.835
 2601W        W 6120   3.664   2.108   2.325
 2602W        W 6121   5.657   3.610   9.456
 2603W        W 6122   4.323   3.666  10.104
 2604W        W 6123   0.778   7.902   0.522
 2605W        W 6124   6.644   2.123   2.336
 2606W        W 6125   6.530   7.902  11.033
 2607W        W 6126   9.837   4.187  10.296
 2608W        W 6127   9.741   1.182   9.544
 2609W        W 6128   9.432   2.220   0.785
 2610W        W 6129   5.217   9.252   0.809
 2611W        W 6130   1.139   0.187   9.374
 2612W        W 6131   1.170   4.736   1.448
 2613W        W 6132   9.909   8.294   9.498
 2614W        W 6133   9.920   2.626  11.306
 2615W        W 6134   3.873   5.049   3.090
 2616W        W 6135   7.023   5.934   8.049
 2617W        W 6136   9.390   7.918  11.519
 2618W        W 6137   4.727   6.112   3.519
 2619W        W 6138   4.587   2.072   1.377
 2620W        W 6139   7.576   1.740   0.513
 2621W        W 6140   3.012   5.723  11.742
 2622W        W 6141   2.128   7.906   9.148
 2623W        W 6142   6.894   1.441   3.885
 2624W        W 6143   2.551   2.831  11.739
 2625W        W 6144   3.132   3.329   1.244
 2626W        W 6145   1.834   5.902   3.847
 2627W        W 6146   1.582   4.830   9.480
 2628W        W 6147   9.917   1.482   0.460
 2629W        W 6148   1.357   9.785  10.048
 2630W        W 6149   1.335   5.821   9.568
 2631W        W 6150   9.574   3.923   8.994
 2632W        W 6151   0.981   8.461   2.768
 2633W        W 6152   7.861   5.197  10.148
 2634W        W 6153   8.296   6.098   8.394
 2635W        W 6154   7.073   6.552   9.782
 2636W        W 6155   7.459   7.072   3.198
 2637W        W 6156   0.534   7.086   3.686
 2638W        W 6157   9.754   0.645  10.332
 2639W        W 6158   2.632   7.478   1.818
 2640W        W 6159   1.712   6.154   0.200
 2641W        W 6160   2.635   5.529  11.470
 2642W        W 6161   3.177   9.473   9.030
 2643W        W 6162   1.988   5.950  10.881
 2644W        W 6163   9.024   8.375   9.506
 2645W        W 6164   3.040   7.780   0.477
 2646W        W 6165   1.299   8.818   9.532
 2647W        W 6166   9.378   3.971  11.268
 2648W        W 6167   0.270   9.385  10.126
 2649W        W 6168   1.773   3.965  10.725
 2650W        W 6169   0.231   6.604   9.415
 2651W        W 6170   7.640   0.826  10.317
 2652W        W 6171   7.780   5.102   2.029
 2653W        W 6172   5.512   1.143   3.088
 2654W        W 6173   9.914   0.767   9.276
 2655W        W 6174   3.302   2.210   3.005
 2656W        W 6175   7.485   1.685   3.393
 2657W        W 6176   2.673   0.074   2.686
 2658W        W 6177   7.791   5.350   3.321
 2659W        W 6178   8.090   8.069  11.455
 2660W        W 6179   5.336   6.165   1.319
 2661W        W 6180   4.025   7.075   3.277
 2662W        W 6181   0.355   7.698   1.424
 2663W        W 6182   5.169   3.168   3.608
 2664W        W 6183   7.494   3.163   0.738
 2665W        W 6184   2.201   7.378   1.035
 2666W        W 6185   6.740   9.313   9.546
 2667W        W 6186   1.386   1.474   2.574
 2668W        W 6187   3.556   7.796  11.684
 2669W        W 6188   9.874   9.666   3.532
 2670W        W 6189   5.621   8.814   8.832
 2671W        W 6190   4.952   6.493  10.145
 2672W        W 6191   0.527   0.195   1.849
 2673W        W 6192   2.100   8.721   0.051
 2674W        W 6193   9.753   4.968   9.657
 2675W        W 6194   9.886   7.350   9.856
 2676W        W 6195   5.659   2.659   9.068
 2677W        W 6196   7.466   1.625  10.683
 2678W        W 6197   9.259   7.496  10.892
 2679W        W 6198   7.575   5.775   9.350
 2680W        W 6199   7.736   6.507   2.508
 2681W        W 6200   0.849   6.140   1.905
 2682W        W 6201   1.688   1.936   1.032
 2683W        W 6202   2.343   7.556  10.522
 2684W        W 6203   1.024   5.396  10.166
 2685W        W 6204   6.967   7.791  10.309
 2686W        W 6205   0.972   1.763   8.487
 2687W        W 6206   5.900   1.066   0.848
 2688W        W 6207   6.535   9.814   1.808
 2689W        W 6208   2.653   9.808  11.363
 2690W        W 6209   0.929   9.994  10.243
 2691W        W 6210   6.141   6.640   0.888
 2692W        W 6211   9.399   4.392  11.574
 2693W        W 6212   8.087   3.915  10.560
 2694W        W 6213   7.978   3.691   2.823
 2695W        W 6214   0.557   3.761   2.607
 2696W        W 6215   9.305   9.738   9.941
 2697W        W 6216   0.284   1.174  11.708
 2698W        W 6217   6.728   7.019  10.646
 2699W        W 6218   8.945   4.231  10.112
 2700W        W 6219   3.148   2.392  10.566
 2701W        W 6220   4.222   0.644   0.001
 2702W        W 6221   4.377   4.012   2.895
 2703W        W 6222   0.007   9.339  10.558
 2704W        W 6223   2.135   8.589   2.186
 2705W        W 6224   0.536   3.060   9.977
 2706W        W 6225   0.599   4.967   1.537
 2707W        W 6226   5.302   5.280  10.159
 2708W        W 6227   1.228   6.500   3.555
 2709W        W 6228   1.057   5.162   1.677
 2710W        W 6229   3.398   0.298   2.904
 2711W        W 6230   8.870   6.917   1.584
 2712W        W 6231   4.491   9.516  11.785
 2713W        W 6232   0.761   5.336   2.936
 2714W        W 6233   9.650   1.725   0.815
 2715W        W 6234   7.110   7.330   2.497
 2716W        W 6235   8.310   1.913  10.259
 2717W        W 6236   6.071   2.793   2.666
 2718W        W 6237   5.623   8.989   3.054
 2719W        W 6238   6.492   9.437   0.522
 2720W        W 6239   5.667   1.432   1.111
 2721W        W 6240   0.618   2.846   1.229
 2722W        W 6241   2.442   7.010   9.216
 2723W        W 6242   5.468   9.299   8.815
 2724W        W 6243   3.903   1.266  11.816
 2725W        W 6244   7.709   7.136  11.345
 2726W        W 6245   7.295   1.151   9.465
 2727W        W 6246   6.459   5.620  10.583
 2728W        W 6247   6.231   0.828   8.866
 2729W        W 6248   2.758   0.956   3.300
 2730W        W 6249   3.048   8.073  11.996
 2731W        W 6250   2.807   7.445  10.734
 2732W        W 6251   1.120   2.744   1.209
 2733W        W 6252   8.920   4.937   1.377
 2734W        W 6253   2.593   6.003   8.840
 2735W        W 6254   4.067   7.509  10.230
 2736W        W 6255   1.178   8.307   1.895
 2737W        W 6256   6.963   8.502   1.375
 2738W        W 6257   9.577   7.799   8.613
 2739W        W 6258   0.854   0.232   2.284
 2740W        W 6259   6.716   7.222   1.631
 2741W        W 6260   1.065   8.874  10.987
 2742W        W 6261   3.734   0.625   9.281
 2743W        W 6262   5.665   4.463   1.956
 2744W        W 6263   0.079   0.860  11.277
 2745W        W 6264   1.961   3.370  10.923
 2746W        W 6265   0.167   7.753  11.002
 2747W        W 6266   4.484   5.041  10.276
 2748W        W 6267   5.478   9.691  10.529
 2749W        W 6268   9.777   5.424   9.448
 2750W        W 6269   4.694   2.078   8.558
 2751W        W 6270   5.111   0.778   1.426
 2752W        W 6271   3.184   5.591   9.248
 2753W        W 6272   0.589   6.579   0.900
 2754W        W 6273   3.651   1.652   9.165
 2755W        W 6274   9.141   0.400   3.387
 2756W        W 6275   0.775   1.197   0.289
 2757W        W 6276   6.123   5.005  10.667
 2758W        W 6277   0.387   1.439   2.476
 2759W        W 6278   5.513   0.684  10.590
 2760W        W 6279   9.995   6.410   2.950
 2761W        W 6280   9.185   5.558   1.908
 2762W        W 6281   2.827   8.476   0.203
 2763W        W 6282   9.018   6.550   0.203
 2764W        W 6283   0.856   4.128  10.763
 2765W        W 6284   4.952   0.409   0.354
 2766W        W 6285   3.469   5.080   0.805
 2767W        W 6286   4.945   6.924  11.010
 2768W        W 6287   0.244   5.928  10.443
 2769W        W 6288   8.779   2.990   1.720
 2770W        W 6289   7.655   4.272  11.777
 2771W        W 6290   3.088   2.529  11.082
 2772W        W 6291   9.825   7.999  11.827
 2773W        W 6292   6.566   6.499   9.019
 2774W        W 6293   6.145   4.170  10.422
 2775W        W 6294   0.735   8.181  10.485
 2776W        W 6295   2.028   5.496   1.945
 2777W        W 6296   1.509   8.872  10.434
 2778W        W 6297   2.219   7.706   0.055
 2779W        W 6298   9.043   8.757   0.007
 2780W        W 6299   0.852   3.843   3.481
 2781W        W 6300   9.808   7.921   3.548
 2782W        W 6301   1.815   4.204   1.521
 2783W        W 6302   8.356   0.817   0.897
 2784W        W 6303   3.838   5.916   2.658
 2785W        W 6304   4.417   6.008   1.814
 2786W        W 6305   4.561   0.817   8.809
 2787W        W 6306   3.632   5.851   1.018
 2788W        W 6307   0.377   1.356   0.649
 2789W        W 6308   7.554   6.581   1.139
 2790W        W 6309   2.665   6.152   1.147
 2791W        W 6310   0.168   8.961   2.863
 2792W        W 6311   0.567   5.732   8.906
 2793W        W 6312   8.800   1.260   9.658
 2794W        W 6313   2.637   0.200   0.695
 2795W        W 6314   6.717   7.549   1.223
 2796W        W 6315   2.709   6.649   1.311
 2797W        W 6316   6.227   8.760   1.595
 2798W        W 6317   1.781   2.806   1.669
 2799W        W 6318   4.773   2.918   9.427
 2800W        W 6319   0.633   7.540   9.208
 2801W        W 6320   3.384   3.836  10.642
 2802W        W 6321   4.256   5.831  11.396
 2803W        W 6322   6.068   9.361   9.843
 2804W        W 6323   6.229   4.614   1.286
 2805W        W 6324   8.186   5.002   3.414
 2806W        W 6325   7.869   4.395   2.723
 2807W        W 6326   9.290   0.172  11.908
 2808W        W 6327   1.310   6.029   1.070
 2809W        W 6328   4.910   6.098   1.960
 2810W        W 6329   8.875   2.753   0.749
 2811W        W 6330   5.167   6.965   0.858
 2812W        W 6331   8.559   6.937   8.692
 2813W        W 6332   9.917   8.510  10.519
 2814W        W 6333   9.027   6.824  11.338
 2815W        W 6334   6.260   1.974   1.597
 2816W        W 6335   8.136   0.698   1.796
 2817W        W 6336   8.269   0.160  10.455
 2818W        W 6337   8.212   9.262   0.338
 2819W        W 6338   5.750   0.472   2.602
 2820W        W 6339   6.548   6.698   0.573
 2821W        W 6340   4.531   1.871  10.835
 2822W        W 6341   4.487   6.084   0.837
 2823W        W 6342   0.746   4.827   2.927
 2824W        W 6343   2.420   8.856  10.538
 2825W        W 6344   9.791   6.135  10.551
 2826W        W 6345   9.807   4.937   1.359
 2827W        W 6346   9.605   2.737   2.697
 2828W        W 6347   6.901   4.592  10.568
 2829W        W 6348   2.133   2.114   8.636
 2830W        W 6349   1.240   7.716   8.542
 2831W        W 6350   2.146   2.333   9.123
 2832W        W 6351   5.772   6.880  10.343
 2833W        W 6352   9.490   0.537   2.560
 2834W        W 6353   4.161   4.630   9.580
 2835W        W 6354   3.806   1.340   3.405
 2836W        W 6355   2.277   4.873   0.003
 2837W        W 6356   3.751   6.416   2.699
 2838W        W 6357   1.539   4.130   0.424
 2839W        W 6358   2.137   2.675   2.975
 2840W        W 6359   2.355   3.436   3.690
 2841W        W 6360   1.419   8.993   0.756
 2842W        W 6361   2.750   9.292   8.725
 2843W        W 6362   3.370   8.164  11.275
 2844W        W 6363   6.400   9.233   1.580
 2845W        W 6364   2.689   6.229   3.614
 2846W        W 6365   3.788   2.240  11.740
 2847W        W 6366   7.571   2.406   0.774
 2848W        W 6367   5.600   4.523   2.462
 2849W        W 6368   8.590   1.642   9.384
 2850W        W 6369   8.918   2.388   9.193
 2851W        W 6370   8.947   1.357   9.141
 2852W        W 6371   2.212   9.695   1.661
 2853W        W 6372   9.260   1.342   0.780
 2854W        W 6373   5.481   7.499   2.792
 2855W        W 6374   6.624   4.266   2.634
 2856W        W 6375   2.139   0.027   9.595
 2857W        W 6376   2.589   8.009   0.240
 2858W        W 6377   6.454   3.402   2.710
 2859W        W 6378   5.705   5.733   0.463
 2860W        W 6379   3.180   9.494  10.518
 2861W        W 6380   4.643   4.048   8.665
 2862W        W 6381   2.394   4.066   2.330
 2863W        W 6382   0.868   4.528   0.541
 2864W        W 6383   6.387   8.790   2.628
 2865W        W 6384   8.833   8.841   9.440
 2866W        W 6385   0.640   5.587  11.843
 2867W        W 6386   4.033   6.114   8.697
 2868W        W 6387   8.078   7.481   9.186
 2869W        W 6388   6.909   3.363   8.972
 2870W        W 6389   2.881   1.812  11.990
 2871W        W 6390   5.996   6.854   1.330
 2872W        W 6391   6.896   4.098  11.342
 2873W        W 6392   5.394   6.993   8.989
 2874W        W 6393   2.743   9.300  11.189
 2875W        W 6394   5.102   0.546   1.996
 2876W        W 6395   3.769   0.558  11.342
 2877W        W 6396   1.789   8.301   2.431
 2878W        W 6397   7.242   7.649  10.762
 2879W        W 6398   0.859   1.058   1.793
 2880W        W 6399   2.004   4.460   9.544
 2881W        W 6400   3.701   1.051  11.390
 2882W        W 6401   9.560   1.913   2.893
 2883W        W 6402   8.084   1.735   2.667
 2884W        W 6403   0.813   3.467   2.941
 2885W        W 6404   6.875   1.895   8.810
 2886W        W 6405   6.597   1.661  11.876
 2887W        W 6406   2.910   8.729  10.476
 2888W        W 6407   0.662   8.047   9.327
 2889W        W 6408   7.160   4.401  11.878
 2890W        W 6409   8.956   1.446   0.069
 2891W        W 6410   7.566   0.752   0.302
 2892W        W 6411   8.662   7.560   2.764
 2893W        W 6412   5.618   7.863  10.917
 2894W        W 6413   7.861   7.832   3.579
 2895W        W 6414   9.339   5.441   8.677
 2896W        W 6415   9.281   1.162   8.791
 2897W        W 6416   8.916   8.779   2.415
 2898W        W 6417   8.256   9.664  10.224
 2899W        W 6418   8.454   3.165   1.365
 2900W        W 6419   8.613   3.029   3.587
 2901W        W 6420   6.138   6.229   3.746
 2902W        W 6421   1.416   3.146   9.778
 2903W        W 6422   3.977   6.570   3.144
 2904W        W 6423   0.923   3.773   1.567
 2905W        W 6424   1.202   7.910   9.228
 2906W        W 6425   6.952   7.060   1.215
 2907W        W 6426   9.950   5.500   0.521
 2908W        W 6427   6.060   0.912   2.250
 2909W        W 6428   5.302   6.474   2.791
 2910W        W 6429   6.975   9.113   0.983
 2911W        W 6430   5.440   9.355   1.637
 2912W        W 6431   3.804   4.202   8.569
 2913W        W 6432   1.749   1.010   9.207
 2914W        W 6433   6.194   7.491   1.307
 2915W        W 6434   7.108   5.314   9.318
 2916W        W 6435   6.988   1.428  10.825
 2917W        W 6436   9.805   9.898   2.516
 2918W        W 6437   3.959   5.858   1.599
 2919W        W 6438   6.167   3.605  10.900
 2920W        W 6439   1.303   5.917  11.480
 2921W        W 6440   6.489   5.449  11.934
 2922W        W 6441   7.749   8.494  10.278
 2923W        W 6442   3.735   2.360   0.240
 2924W        W 6443   4.781   0.570   3.580
 2925W        W 6444   9.938   6.232   2.458
 2926W        W 6445   3.209   2.226   2.504
 2927W        W 6446   0.280   0.077  10.889
 2928W        W 6447   1.238   2.827   2.611
 2929W        W 6448   0.205   6.909   1.752
 2930W        W 6449   8.579   8.458  11.078
 2931W        W 6450   8.659   4.444   2.695
 2932W        W 6451   9.288   6.055  10.522
 2933W        W 6452   9.748   0.280   9.260
 2934W        W 6453   3.575   3.453   9.437
 2935W        W 6454   8.056   7.237   0.911
 2936W        W 6455   5.571   3.363  11.496
 2937W        W 6456   0.852   5.253   9.680
 2938W        W 6457   4.616   0.028  10.092
 2939W        W 6458   5.810   5.442   9.374
 2940W        W 6459   6.183   6.155   8.319
 2941W        W 6460   6.660   6.604   2.700
 2942W        W 6461   8.565   2.185  11.262
 2943W        W 6462   0.988   0.510   1.879
 2944W        W 6463   0.227   1.247   9.666
 2945W        W 6464   3.113   3.537   2.522
 2946W        W 6465   6.216   6.707   8.213
 2947W        W 6466   3.558   7.617   2.051
 2948W        W 6467   9.405   8.496   0.753
 2949W        W 6468   5.190   4.565   8.652
 2950W        W 6469   8.947   8.884   3.257
 2951W        W 6470   7.988   1.929   0.251
 2952W        W 6471   1.498   5.575  10.007
 2953W        W 6472   6.472   8.123   0.048
 2954W        W 6473   0.903   0.625   0.774
 2955W        W 6474   5.825   9.230   3.485
 2956W        W 6475   6.109   5.755   9.094
 2957W        W 6476   1.845   0.915   9.706
 2958W        W 6477   0.384   6.139   9.689
 2959W        W 6478   5.697   1.233   2.117
 2960W        W 6479   5.408   2.212  10.945
 2961W        W 6480   1.372   2.418   0.872
 2962W        W 6481   5.279   8.985   0.014
 2963W        W 6482   2.688   0.254   2.179
 2964W        W 6483   1.669   5.698   2.259
 2965W        W 6484   9.029   6.504   2.052
 2966W        W 6485   7.033   3.029   0.975
 2967W        W 6486   7.069   9.542  11.188
 2968W        W 6487   6.503   0.220  11.277
 2969W        W 6488   3.746   1.431   0.294
 2970W        W 6489   3.877   5.628   3.284
 2971W        W 6490   8.994   8.621  11.484
 2972W        W 6491   4.439   3.058  11.165
 2973W        W 6492   8.155   5.967   3.002
 2974W        W 6493   0.737   1.152   9.601
 2975W        W 6494   7.032   6.872   2.236
 2976W        W 6495   0.520   9.301   2.056
 2977W        W 6496   2.144   2.038  11.390
 2978W        W 6497   2.632   2.435  11.403
 2979W        W 6498   7.125   4.213  10.851
 2980W        W 6499   7.837   7.109  11.870
 2981W        W 6500   6.000   4.075  11.495
 2982W        W 6501   8.746   1.784   8.908
 2983W        W 6502   1.655   1.841   2.779
 2984W        W 6503   0.245   1.148   0.213
 2985W        W 6504   7.426   3.499   3.528
 2986W        W 6505   1.488   1.234  10.487
 2987W        W 6506   6.668   3.905   8.145
 2988W        W 6507   6.074   8.765   1.069
 2989W        W 6508   8.429   7.683  11.516
 2990W        W 6509   0.249   4.677   1.276
 2991W        W 6510   9.061   1.636   3.564
 2992W        W 6511   4.219   1.130   8.566
 2993W        W 6512   0.460   9.347   2.637
 2994W        W 6513   5.787   1.858   1.797
 2995W        W 6514   7.202   9.459   9.321
 2996W        W 6515   9.777   9.396  10.047
 2997W        W 6516   1.350   5.406  11.183
 2998W        W 6517   2.331   7.175  10.882
 2999W        W 6518   9.652   6.495   0.690
 3000W        W 6519   5.669   9.837   2.836
 3001W        W 6520   4.904   4.322   9.997
 3002W        W 6521   8.383   9.548   9.730
 3003W        W 6522   0.817   3.338   1.919
 3004W        W 6523   0.325   4.830   2.186
 3005W        W 6524   6.611   6.016  11.498
 3006W        W 6525   2.283   7.206   0.095
 3007W        W 6526   3.966   7.675  11.339
 3008W        W 6527   6.039   1.698  11.661
 3009W        W 6528   7.632   6.587  10.381
 3010W        W 6529   7.580   4.216   1.601
 3011W        W 6530   3.297   2.018   9.075
 3012W        W 6531   2.280   5.285   9.494
 3013W        W 6532   9.995   6.253  11.389
 3014W        W 6533   2.152   8.219   0.011
 3015W        W 6534   0.297   9.819   2.623
 3016W        W 6535   9.752   7.374   2.902
 3017W        W 6536   2.537   2.998   8.717
 3018W        W 6537   8.598   6.415   8.705
 3019W        W 6538   9.987   4.866   2.852
 3020W        W 6539   1.293   2.459   0.352
 3021W        W 6540   1.807   4.993   0.214
 3022W        W 6541   3.915   8.057   1.978
 3023W        W 6542   3.225   1.495  10.847
 3024W        W 6543   1.089   4.992   9.272
 3025W        W 6544   7.577   6.724  11.617
 3026W        W 6545   7.376   3.187   9.265
 3027W        W 6546   0.861   5.312   8.917
 3028W        W 6547   2.610   3.664   9.272
 3029W        W 6548   7.272   3.947  11.684
 3030W        W 6549   9.597   1.921   1.851
 3031W        W 6550   0.622   7.149   3.195
 3032W        W 6551   3.068   5.291   0.004
 3033W        W 6552   5.391   7.478   0.867
 3034W        W 6553   4.204   1.794   3.054
 3035W        W 6554   7.437   7.432   1.678
 3036W        W 6555   5.718   2.190   2.220
 3037W        W 6556   1.950   5.269   0.665
 3038W        W 6557   5.748   1.036   9.029
 3039W        W 6558   2.518   2.002   3.431
 3040W        W 6559   5.576   2.758   1.351
 3041W        W 6560   2.251   0.546   2.199
 3042W        W 6561   2.667   7.377   8.910
 3043W        W 6562   4.534   9.951   1.062
 3044W        W 6563   5.227   4.982   2.779
 3045W        W 6564   7.488   5.290   2.912
 3046W        W 6565   2.728   7.809  10.252
 3047W        W 6566   6.291   0.285   8.738
 3048W        W 6567   9.223   9.766   8.455
 3049W        W 6568   0.008   1.716  11.200
 3050W        W 6569   9.934   8.838   3.391
 3051W        W 6570   7.037   4.731   3.081
 3052W        W 6571   5.572   7.880  11.941
 3053W        W 6572   7.741   8.760   9.525
 3054W        W 6573   3.501   9.322   1.948
 3055W        W 6574   8.669   4.973  10.882
 3056W        W 6575   8.759   9.488  10.106
 3057W        W 6576   8.483   4.146  10.290
 3058W        W 6577   0.327   4.605   9.178
 3059W        W 6578   9.078   9.314   0.461
 3060W        W 6579   8.819   5.124   9.884
 3061W        W 6580   1.926   0.383  11.462
 3062W        W 6581   7.542   9.103   9.218
 3063W        W 6582   7.222   0.362  11.351
 3064W        W 6583   2.144   9.930  11.491
 3065W        W 6584   4.661   6.941   0.689
 3066W        W 6585   2.775   5.999  10.301
 3067W        W 6586   6.899   1.740   3.221
 3068W        W 6587   5.285   7.011  10.521
 3069W        W 6588   8.176   9.291   2.304
 3070W        W 6589   0.508   9.972   3.493
 3071W        W 6590   8.364   7.518   1.780
 3072W        W 6591   9.012   9.825  11.447
 3073W        W 6592   4.373   8.233   1.076
 3074W        W 6593   9.136   1.819   2.575
 3075W        W 6594   1.408   7.647  11.477
 3076W        W 6595   8.410   1.122   3.357
 3077W        W 6596   3.251   0.209   3.377
 3078W        W 6597   8.393   9.357   2.757
 3079W        W 6598   7.464   7.926   1.937
 3080W        W 6599   8.174   2.690  10.531
 3081W        W 6600   6.919   1.575  11.464
 3082W        W 6601   2.219   9.893   2.880
 3083W        W 6602   9.339   7.754   9.079
 3084W        W 6603   9.856   3.268   9.384
 3085W        W 6604   8.000   5.490   9.448
 3086W        W 6605   7.932   4.300   1.982
 3087W        W 6606   6.127   2.322   9.472
 3088W        W 6607   9.499   2.280  11.733
 3089W        W 6608   0.963   9.223   0.682
 3090W        W 6609   2.141   2.317   3.330
 3091W        W 6610   2.523   6.337   0.036
 3092W        W 6611   5.587   6.543   9.518
 3093W        W 6612   7.640   0.289  11.599
 3094W        W 6613   8.231   0.212   9.182
 3095W        W 6614   4.146   3.217   8.283
 3096W        W 6615   5.367   9.811   8.791
 3097W        W 6616   0.265   9.117  11.342
 3098W        W 6617   6.364   1.976   1.089
 3099W        W 6618   1.403   4.368   9.229
 3100W        W 6619   2.255   0.348   1.436
 3101W        W 6620   7.009   5.011   8.405
 3102W        W 6621   4.058   9.406  10.523
 3103W        W 6622   3.623   5.981   8.373
 3104W        W 6623   1.362   9.023  11.385
 3105W        W 6624   5.989   1.044   9.880
 3106W        W 6625   1.838   7.901   2.001
 3107W        W 6626   0.185   6.781  11.321
 3108W        W 6627   4.206   6.994  10.196
 3109W        W 6628   7.058   5.244   3.221
 3110W        W 6629   7.126   6.042   1.453
 3111W        W 6630   1.787   8.490  10.700
 3112W        W 6631   7.443   9.403   9.772
 3113W        W 6632   6.129   4.251   1.663
 3114W        W 6633   4.297   9.429   2.313
 3115W        W 6634   7.169   5.906  10.577
 3116W        W 6635   3.302   6.342   1.910
 3117W        W 6636   3.985   2.501   2.267
 3118W        W 6637   0.312   8.161   8.925
 3119W        W 6638   0.735   6.692  10.380
 3120W        W 6639   1.214   4.645   3.500
 3121W        W 6640   0.815   9.971  10.734
 3122W        W 6641   1.057   7.784   1.332
 3123W        W 6642   7.801   0.701  11.861
 3124W        W 6643   9.515   8.966   9.887
 3125W        W 6644   3.299   8.962  11.739
 3126W        W 6645   3.157   2.791  10.185
 3127W        W 6646   9.450   4.530  10.395
 3128W        W 6647   5.234   2.037  10.435
 3129W        W 6648   9.053   5.054   8.916
 3130W        W 6649   3.998   9.826   2.374
 3131W        W 6650   5.686   7.534   1.377
 3132W        W 6651   0.527   5.651   2.126
 3133W        W 6652   4.662   7.872  11.853
 3134W        W 6653   5.095   1.165   9.820
 3135W        W 6654   4.063   9.439  11.545
 3136W        W 6655   7.425   5.180   2.395
 3137W        W 6656   4.577   2.808  10.463
 3138W        W 6657   2.395   6.517   3.279
 3139W        W 6658   0.236   9.750   1.782
 3140W        W 6659   7.807   7.864   2.731
 3141W        W 6660   1.416   2.176  10.040
 3142W        W 6661   8.568   8.598  11.808
 3143W        W 6662   3.531   4.552   0.484
 3144W        W 6663   1.856   6.669   3.140
 3145W        W 6664   8.269   7.957   2.581
 3146W        W 6665   9.214   6.045  11.886
 3147W        W 6666   9.261   0.972   2.875
 3148W        W 6667   0.353   7.800  10.531
 3149W        W 6668   1.885   2.388   0.924
 3150W        W 6669   3.591   2.589  10.342
 3151W        W 6670   6.218   2.692   0.675
 3152W        W 6671   7.616   5.324   9.119
 3153W        W 6672   9.866   7.110   0.056
 3154W        W 6673   7.940   1.626   1.811
 3155W        W 6674   2.933   8.627   9.898
 3156W        W 6675   4.987   1.376  11.363
 3157W        W 6676   4.644   6.526   1.488
 3158W        W 6677   5.671   6.800   0.725
 3159W        W 6678   5.878   0.311   9.435
 3160W        W 6679   2.241   7.925  10.185
 3161W        W 6680   0.026   4.217  10.772
 3162W        W 6681   9.880   3.440   0.285
 3163W        W 6682   8.021   5.771  10.448
 3164W        W 6683   4.710   6.307   9.436
 3165W        W 6684   8.562   0.577  11.220
 3166W        W 6685   8.948   5.733   0.794
 3167W        W 6686   6.098   6.591   9.155
 3168W        W 6687   1.290   3.097  11.675
 3169W        W 6688   4.278   5.546   1.956
 3170W        W 6689   4.120   1.330  11.246
 3171W        W 6690   9.215   4.594   0.477
 3172W        W 6691   4.806   0.898   2.194
 3173W        W 6692   6.923   2.302  10.848
 3174W        W 6693   4.879   1.605   1.363
 3175W        W 6694   5.268   0.246   0.730
 3176W        W 6695   2.226   5.038   3.648
 3177W        W 6696   3.343   6.598  11.745
 3178W        W 6697   4.675   1.738   2.771
 3179W        W 6698   3.592   1.122   9.099
 3180W        W 6699   3.543   4.521   7.838
 3181W        W 6700   2.761   3.782  11.102
 3182W        W 6701   2.639   4.327   9.803
 3183W        W 6702   1.320   2.656  11.358
 3184W        W 6703   3.264   0.805   9.377
 3185W        W 6704   6.264   5.556   4.272
 3186W        W 6705   0.835   6.985   0.362
 3187W        W 6706   1.583   3.039  10.820
 3188W        W 6707   9.219   8.361   0.277
 3189W        W 6708   6.908   5.078   2.253
 3190W        W 6709   5.426   7.115  11.018
 3191W        W 6710   6.010   9.541  11.293
 3192W        W 6711   8.141   2.642   2.462
 3193W        W 6712   5.243   9.985   0.284
 3194W        W 6713   6.955   9.833   2.171
 3195W        W 6714   5.208   5.097  10.911
 3196W        W 6715   3.840   9.004   3.065
 3197W        W 6716   9.377   3.440  11.115
 3198W        W 6717   4.380   7.229   2.458
 3199W        W 6718   0.410   6.430   1.712
 3200W        W 6719   5.704   4.441   3.376
 3201W        W 6720   0.806   1.062   9.078
 3202W        W 6721   5.076   1.445   3.135
 3203W        W 6722   6.597   9.231  11.348
 3204W        W 6723   1.777   4.269  11.525
 3205W        W 6724   8.315   7.075   0.028
 3206W        W 6725   4.537   6.413   9.889
 3207W        W 6726   6.724   3.813   9.675
 3208W        W 6727   8.634   1.082  10.318
 3209W        W 6728   3.371   2.584  11.942
 3210W        W 6729   0.417   9.670  10.569
 3211W        W 6730   1.355   6.010   3.025
 3212W        W 6731   7.385   4.429   9.173
 3213W        W 6732   5.217   1.519  10.419
 3214W        W 6733   3.609   4.952   9.170
 3215W        W 6734   8.585   4.302  11.826
 3216W        W 6735   4.356   4.283   1.455
 3217W        W 6736   9.521   1.878   3.398
 3218W        W 6737   3.076   3.817  10.229
 3219W        W 6738   6.408   6.276  11.091
 3220W        W 6739   5.173   7.677   3.616
 3221W        W 6740   0.429   4.371  10.517
 3222W        W 6741   1.374   0.317   1.578
 3223W        W 6742   1.240   2.404   2.274
 3224W        W 6743   9.963   1.707   9.861
 3225W        W 6744   1.771   7.496   9.775
 3226W        W 6745   2.369   3.371   2.721
 3227W        W 6746   5.225   3.550   3.200
 3228W        W 6747   0.523   2.147  10.057
 3229W        W 6748   1.605   1.026   2.691
 3230W        W 6749   7.543   4.774  11.884
 3231W        W 6750   6.547   7.657   0.339
 3232W        W 6751   6.592   4.764   3.361
 3233W        W 6752   6.849   9.257   3.137
 3234W        W 6753   2.091   9.186   3.043
 3235W        W 6754   0.435   6.388  11.148
 3236W        W 6755   4.171   3.077   3.083
 3237W        W 6756   2.234   5.604  11.154
 3238W        W 6757   5.673   3.586   2.233
 3239W        W 6758   8.997   1.026   0.389
 3240W        W 6759   3.169   7.098  10.543
 3241W        W 6760   4.292   4.637  11.866
 3242W        W 6761   0.690   8.293   0.837
 3243W        W 6762   0.865   7.657  10.492
 3244W        W 6763   0.852   1.553   2.693
 3245W        W 6764   4.299   2.411   8.697
 3246W        W 6765   0.100   0.694   1.424
 3247W        W 6766   0.357   1.842   0.436
 3248W        W 6767   0.239   5.677   3.403
 3249W        W 6768   4.760   1.264   3.510
 3250W        W 6769   9.509   6.637   1.158
 3251W        W 6770   6.931   0.177   1.784
 3252W        W 6771   4.206   1.636   2.553
 3253W        W 6772   5.024   5.893  11.113
 3254W        W 6773   6.672   8.235   9.026
 3255W        W 6774   8.085   9.084   1.852
 3256W        W 6775   4.361   6.239   9.080
 3257W        W 6776   7.113   1.645   9.226
 3258W        W 6777   8.921   3.995  11.052
 3259W        W 6778   2.910   6.437   3.156
 3260W        W 6779   6.054   4.351   9.142
 3261W        W 6780   1.636   3.571   9.608
 3262W        W 6781   9.830   9.525  11.988
 3263W        W 6782   6.900   7.700   0.744
 3264W        W 6783   9.844   6.883   2.880
 3265W        W 6784   2.016   0.841  10.711
 3266W        W 6785   4.150   2.006   2.198
 3267W        W 6786   6.898   7.793   8.811
 3268W        W 6787   9.456   0.741   9.038
 3269W        W 6788   0.624   4.711   9.616
 3270W        W 6789   6.644   6.025   3.704
 3271W        W 6790   8.610   5.763   2.895
 3272W        W 6791   8.494   1.285   2.414
 3273W        W 6792   9.287   2.680   1.063
 3274W        W 6793   5.976   6.127   0.836
 3275W        W 6794   1.973   1.686   1.393
 3276W        W 6795   7.894   9.739   2.323
 3277W        W 6796   7.005   6.981   0.363
 3278W        W 6797   9.344   0.072   2.304
 3279W        W 6798   0.463   0.350   0.517
 3280W        W 6799   3.695   0.754  10.299
 3281W        W 6800   2.372   0.644   3.528
 3282W        W 6801   8.596   4.060   8.478
 3283W        W 6802   6.482   4.599   1.764
 3284W        W 6803   2.500   5.505   8.472
 3285W        W 6804   7.597   2.254   0.266
 3286W        W 6805   0.724   3.990  10.291
 3287W        W 6806   3.693   1.555  11.397
 3288W        W 6807   4.912   7.198   8.656
 3289W        W 6808   1.343   6.323   8.706
 3290W        W 6809   9.556   5.009   0.572
 3291W        W 6810   4.628   2.720  11.906
 3292W        W 6811   8.058   6.509   9.547
 3293W        W 6812   1.801   3.274   1.459
 3294W        W 6813   7.673   9.855  11.870
 3295W        W 6814   7.044   4.867   0.033
 3296W        W 6815   7.585   8.425  11.788
 3297W        W 6816   9.958   0.944   0.578
 3298W        W 6817   6.313   5.332  11.445
 3299W        W 6818   5.154   4.628   9.163
 3300W        W 6819   4.135   4.125   3.397
 3301W        W 6820   4.486   3.151   1.691
 3302W        W 6821   9.947   9.448   2.734
 3303W        W 6822   7.048   8.165   1.770
 3304W        W 6823   7.720   3.070   9.680
 3305W        W 6824   0.838   9.758   0.009
 3306W        W 6825   3.502   3.836   2.513
 3307W        W 6826   5.471   7.878   9.068
 3308W        W 6827   5.879   9.636   1.708
 3309W        W 6828   3.940   2.711   0.569
 3310W        W 6829   5.077   3.324  10.585
 3311W        W 6830   6.572   7.049   4.244
 3312W        W 6831   8.146   8.593   1.781
 3313W        W 6832   3.913   0.290  11.805
 3314W        W 6833   0.342   0.426  11.240
 3315W        W 6834   7.931   1.360   1.261
 3316W        W 6835   0.167   1.724   0.940
 3317W        W 6836   3.521   8.908   3.555
 3318W        W 6837   4.033   6.309   3.940
 3319W        W 6838   6.326   0.152   9.633
 3320W        W 6839   8.064   6.417   0.347
 3321W        W 6840   6.424   4.790   9.122
 3322W        W 6841   0.788   4.847   2.402
 3323W        W 6842   2.925   2.316   3.342
 3324W        W 6843   5.453   1.496   9.685
 3325W        W 6844   6.667   5.575   3.957
 3326W        W 6845   8.522   8.019   3.013
 3327W        W 6846   9.920   9.942  11.258
 3328W        W 6847   2.176   1.037   2.129
 3329W        W 6848   2.413   6.931   9.986
 3330W        W 6849   8.976   3.491   2.924
 3331W        W 6850   7.487   3.736   1.442
 3332W        W 6851   1.071   6.644   1.828
 3333W        W 6852   6.022   2.734   9.790
 3334W        W 6853   8.832   1.491   0.568
 3335W        W 6854   9.054   9.636   2.251
 3336W        W 6855   4.719   7.049  10.508
 3337W        W 6856   3.900   5.865  11.759
 3338W        W 6857   6.098   3.179  10.552
 3339W        W 6858   9.813   8.797   9.479
 3340W        W 6859   9.254   0.867  10.900
 3341W        W 6860   5.607   8.382  11.805
 3342W        W 6861   0.647   8.674  10.695
 3343W        W 6862   7.413   9.127   0.515
 3344W        W 6863   1.164   5.073   1.019
 3345W        W 6864   4.651   1.800   9.001
 3346W        W 6865   2.028   2.631   8.678
 3347W        W 6866   5.633   5.235   0.352
 3348W        W 6867   1.206   6.260   0.070
 3349W        W 6868   5.590   9.374   9.695
 3350W        W 6869   1.757   0.871  10.246
 3351W        W 6870   6.535   2.135   0.071
 3352W        W 6871   2.279   9.922  10.991
 3353W        W 6872   5.799   9.056   0.020
 3354W        W 6873   0.186   1.655   3.902
 3355W        W 6874   3.778   3.762  11.870
 3356W        W 6875   2.190   5.957   2.014
 3357W        W 6876   8.109   7.093   8.866
 3358W        W 6877   4.897   4.052   0.445
 3359W        W 6878   5.117   6.856   0.345
 3360W        W 6879   7.967   5.467   1.358
 3361W        W 6880   6.082   5.600   0.799
 3362W        W 6881   1.009   4.123   9.531
 3363W        W 6882   3.394   0.362   9.578
 3364W        W 6883   6.314   8.665  11.415
 3365W        W 6884   8.436   2.632   9.217
 3366W        W 6885   9.467   0.284   8.786
 3367W        W 6886   7.734   5.103   1.029
 3368W        W 6887   7.969   7.598  11.232
 3369W        W 6888   3.532   6.109   1.470
 3370W        W 6889   0.775   1.700   8.950
 3371W        W 6890   6.834   7.511  11.237
 3372W        W 6891   0.844   9.687   0.953
 3373W        W 6892   4.038   3.063   0.919
 3374W        W 6893   7.846   8.234   9.840
 3375W        W 6894   1.889   7.137  11.762
 3376W        W 6895   0.163   7.853   9.312
 3377W        W 6896   5.381   4.260   9.791
 3378W        W 6897   7.517   5.763   3.540
 3379W        W 6898   8.260   4.194   0.607
 3380W        W 6899   0.963   2.310  11.541
 3381W        W 6900   4.788   6.463   0.683
 3382W        W 6901   4.657   0.871   2.680
 3383W        W 6902   6.344   7.565   9.887
 3384W        W 6903   3.678   0.472   1.793
 3385W        W 6904   9.779   6.741   2.378
 3386W        W 6905   4.747   0.344  11.386
 3387W        W 6906   7.393   8.304  10.941
 3388W        W 6907   3.764   0.042  11.382
 3389W        W 6908   0.529   3.709   1.223
 3390W        W 6909   3.181   5.961   0.563
 3391W        W 6910   7.905   8.168   1.786
 3392W        W 6911   3.913   5.893   9.560
 3393W        W 6912   9.246   5.471   3.237
 3394W        W 6913   8.543   7.465   0.832
 3395W        W 6914   9.635   5.277   0.152
 3396W        W 6915   8.122   0.654  10.289
 3397W        W 6916   2.750   4.386   8.478
 3398W        W 6917   0.477   0.851   0.573
 3399W        W 6918   6.842   6.480   3.555
 3400W        W 6919   9.563   3.380  11.880
 3401W        W 6920   9.218   8.191  10.089
 3402W        W 6921   3.061   4.358   0.363
 3403W        W 6922   4.628   6.610   3.622
 3404W        W 6923   3.662   0.730  10.816
 3405W        W 6924   9.684   1.783   1.320
 3406W        W 6925   9.834   0.251   1.202
 3407W        W 6926   2.648   0.753  11.881
 3408W        W 6927   5.124   6.416   3.637
 3409W        W 6928   8.980   9.921   9.552
 3410W        W 6929   5.707   0.124   1.834
 3411W        W 6930   4.975   9.388  11.920
 3412W        W 6931   0.341   7.972  11.767
 3413W        W 6932   7.767   6.749   9.023
 3414W        W 6933   4.526   7.906  10.897
 3415W        W 6934   8.674   0.315   3.182
 3416W        W 6935   3.056   3.342  11.450
 3417W        W 6936   2.223   5.990   0.921
 3418W        W 6937   9.044   0.763  10.423
 3419W        W 6938   8.391   9.343  11.865
 3420W        W 6939   5.208   1.915   8.532
 3421W        W 6940   0.786   8.076  11.505
 3422W        W 6941   7.927   3.405   1.316
 3423W        W 6942   2.156   4.371   2.816
 3424W        W 6943   8.033   4.657   9.884
 3425W        W 6944   3.787   8.879   0.754
 3426W        W 6945   0.444   4.230  11.067
 3427W        W 6946   5.008   2.077  11.767
 3428W        W 6947   4.988   9.975   2.209
 3429W        W 6948   4.241   8.909   3.386
 3430W        W 6949   0.281   8.781  10.300
 3431W        W 6950   2.543   4.729   2.855
 3432W        W 6951   3.072   2.142   9.515
 3433W        W 6952   6.312   3.010  10.106
 3434W        W 6953   1.415   2.111   3.211
 3435W        W 6954   2.521   2.644   9.496
 3436W        W 6955   6.594   1.775   1.918
 3437W        W 6956   2.850   5.974   0.171
 3438W        W 6957   7.400   2.671   9.576
 3439W        W 6958   3.546   4.542   8.857
 3440W        W 6959   8.476   2.620  10.955
 3441W        W 6960   0.319   5.927   0.739
 3442W        W 6961   1.253   8.064  11.765
 3443W        W 6962   9.266   3.780  10.757
 3444W        W 6963   9.600   1.746  10.907
 3445W        W 6964   1.445   3.052  10.310
 3446W        W 6965   7.235   5.037   8.885
 3447W        W 6966   1.356   9.356  10.339
 3448W        W 6967   6.386   0.982  10.615
 3449W        W 6968   3.126   9.021   9.283
 3450W        W 6969   6.335   1.768   8.714
 3451W        W 6970   3.743   8.555  10.084
 3452W        W 6971   3.737   7.903   2.452
 3453W        W 6972   1.814   1.802   9.581
 3454W        W 6973   8.086   3.056   1.721
 3455W        W 6974   6.044   1.857  10.756
 3456W        W 6975   5.951   3.364  10.005
 3457W        W 6976   6.005   9.528   9.110
 3458W        W 6977   5.995   4.155   1.167
 3459W        W 6978   9.545   5.346  10.018
 3460W        W 6979   6.377   0.172   1.117
 3461W        W 6980   0.464   9.317   0.327
 3462W        W 6981   7.959   3.218   9.249
 3463W        W 6982   1.752   2.716   2.589
 3464W        W 6983   6.903   2.395   9.246
 3465W        W 6984   3.105   9.963   9.242
 3466W        W 6985   3.457   9.452   3.595
 3467W        W 6986   5.317   6.991   2.835
 3468W        W 6987   1.848   3.808  11.742
 3469W        W 6988   8.192   1.444  10.975
 3470W        W 6989   5.057   3.581   8.239
 3471W        W 6990   1.039   2.965   3.629
 3472W        W 6991   8.730   9.331   1.427
 3473W        W 6992   5.289   4.614  11.167
 3474W        W 6993   4.896   7.738   9.861
 3475W        W 6994   7.958   2.238  10.435
 3476W        W 6995   6.000   4.756   1.718
 3477W        W 6996   1.539   4.257   9.718
 3478W        W 6997   6.200   6.420   2.861
 3479W        W 6998   5.477   3.523  10.312
 3480W        W 6999   5.373   2.922   8.754
 3481W        W 7000   7.574   8.448   2.148
 3482W        W 7001   3.591   3.459   8.935
 3483W        W 7002   3.241   4.578   3.379
 3484W        W 7003   4.608   3.560   2.939
 3485W        W 7004   3.486   7.882   0.187
 3486W        W 7005   6.974   4.642   2.600
 3487W        W 7006   2.204   4.668   3.253
 3488W        W 7007   8.464   3.378   1.848
 3489W        W 7008   4.172   7.497   0.318
 3490W        W 7009   0.307   5.425  10.481
 3491W        W 7010   2.337   0.163  10.043
 3492W        W 7011   1.318   2.340   9.059
 3493W        W 7012   7.379   6.180   3.242
 3494W        W 7013   2.725   7.018   0.280
 3495W        W 7014   3.705   5.397   3.679
 3496W        W 7015   2.749   6.905  10.781
 3497W        W 7016   1.738   8.968  11.737
 3498W        W 7017   4.081   8.557  11.682
 3499W        W 7018   5.517   2.880  11.689
 3500W        W 7019   5.468   0.461   0.286
 3501W        W 7020   0.360   4.177   1.312
 3502W        W 7021   9.729   6.106   8.278
 3503W        W 7022   4.465   7.051   8.853
 3504W        W 7023   8.899   9.494  11.895
 3505W        W 7024   6.103   5.107   0.941
 3506W        W 7025   8.961   2.662   2.926
 3507W        W 7026   2.686   3.227   1.488
 3508W        W 7027   5.714   7.103   1.866
 3509W        W 7028   5.134   7.762   3.102
 3510W        W 7029   4.135   7.413   9.727
 3511W        W 7030   3.510   6.848  11.287
 3512W        W 7031   0.876   2.765   0.304
 3513W        W 7032   1.371   1.852   9.306
 3514W        W 7033   4.230   5.577   2.932
 3515W        W 7034   9.368   7.219   9.203
 3516W        W 7035   5.193   9.935   3.117
 3517W        W 7036   6.601   6.724   1.569
 3518W        W 7037   2.142   4.774  10.302
 3519W        W 7038   3.410   0.318  11.644
 3520W        W 7039   3.480   9.460   0.759
 3521W        W 7040   5.545   1.931  11.812
 3522W        W 7041   8.492   6.877  11.097
 3523W        W 7042   8.775   0.063   2.603
 3524W        W 7043   7.309   0.118   1.438
 3525W        W 7044   2.024   8.341   9.380
 3526W        W 7045   1.988   1.418   2.672
 3527W        W 7046   4.430   7.012  10.941
 3528W        W 7047   5.168   1.403   0.451
 3529W        W 7048   9.922   8.451  11.024
 3530W        W 7049   9.974   0.357   2.701
 3531W        W 7050   6.233   6.505  11.938
 3532W        W 7051   2.907   7.769   1.036
 3533W        W 7052   5.614   0.696   2.148
 3534W        W 7053   0.312   6.121   9.164
 3535W        W 7054   1.756   9.506   1.415
 3536W        W 7055   5.081   7.004   8.214
 3537W        W 7056   9.484   8.451   9.231
 3538W        W 7057   6.695   4.445  11.038
 3539W        W 7058   1.007   0.747  11.721
 3540W        W 7059   7.156   6.502   0.380
 3541W        W 7060   8.936   3.596  11.966
 3542W        W 7061   2.358   1.183   9.874
 3543W        W 7062   1.273   8.226   1.405
 3544W        W 7063   9.394   8.589   1.810
 3545W        W 7064   5.581   3.819   8.320
 3546W        W 7065   9.908   0.205  10.529
 3547W        W 7066   8.248   4.760   2.637
 3548W        W 7067   8.953   8.225   0.679
 3549W        W 7068   6.113   0.709   0.515
 3550W        W 7069   5.473   5.064   9.198
 3551W        W 7070   5.890   6.973   8.786
 3552W        W 7071   0.614   7.860  10.090
 3553W        W 7072   6.557   5.658   3.281
 3554W        W 7073   0.347   3.961   0.786
 3555W        W 7074   2.195   1.663  11.759
 3556W        W 7075   5.121   1.587  11.834
 3557W        W 7076   7.895   6.847   3.008
 3558W        W 7077   0.948   1.466   9.937
 3559W        W 7078   0.650   9.825   1.473
 3560W        W 7079   4.352   9.175   9.574
 3561W        W 7080   7.815   3.219  11.318
 3562W        W 7081   6.925   3.778  10.634
 3563W        W 7082   6.944   8.495   0.276
 3564W        W 7083   6.921   1.044   9.908
 3565W        W 7084   1.736   2.625  10.272
 3566W        W 7085   0.924   9.553  11.136
 3567W        W 7086   6.558   8.001  10.006
 3568W        W 7087   6.963   9.699  10.219
 3569W        W 7088   1.788   8.887   1.815
 3570W        W 7089   1.123   5.073   3.225
 3571W        W 7090   9.820   6.023   0.610
 3572W        W 7091   8.571   2.971   3.083
 3573W        W 7092   4.540   7.358  10.046
 3574W        W 7093   4.716   6.992   1.706
 3575W        W 7094   4.525   9.081  10.256
 3576W        W 7095   9.334   7.207   1.702
 3577W        W 7096   8.734   4.465   9.270
 3578W        W 7097   9.792   8.784   1.013
 3579W        W 7098   9.229   0.322   9.280
 3580W        W 7099   1.363   1.171  10.003
 3581W        W 7100   8.071   8.704   9.908
 3582W        W 7101   7.739   6.266   9.222
 3583W        W 7102   4.313   8.365  10.749
 3584W        W 7103   1.751   6.110   0.716
 3585W        W 7104   1.666   0.698   8.808
 3586W        W 7105   4.190   7.772   2.720
 3587W        W 7106   6.721   9.379   3.611
 3588W        W 7107   6.441   0.909  10.112
 3589W        W 7108   4.855   8.086   3.426
 3590W        W 7109   5.251   7.474   2.320
 3591W        W 7110   5.757   7.445   8.893
 3592W        W 7111   1.746   2.033   8.975
 3593W        W 7112   2.786   0.896   9.587
 3594W        W 7113   4.991   7.317   0.521
 3595W        W 7114   9.906   9.761  10.793
 3596W        W 7115   3.236   5.151   9.502
 3597W        W 7116   1.493   9.915   1.268
 3598W        W 7117   0.406   1.701   2.952
 3599W        W 7118   7.170   9.104  11.468
 3600W        W 7119   1.945   0.296   8.976
 3601W        W 7120   7.371   5.276   3.626
 3602W        W 7121   9.581   9.679  10.415
 3603W        W 7122   4.684   0.718   1.696
 3604W        W 7123   6.971   1.315   2.197
 3605W        W 7124   1.731   5.703   1.015
 3606W        W 7125   2.303   1.137   3.430
 3607W        W 7126   6.556   4.885   0.928
 3608W        W 7127   9.523   0.119   2.867
 3609W        W 7128   5.499   8.357   2.599
 3610W        W 7129   1.341   7.621  11.995
 3611W        W 7130   6.645   3.361   0.789
 3612W        W 7131   4.755   1.142   9.369
 3613W        W 7132   2.614   2.179   1.737
 3614W        W 7133   0.673   3.129   3.284
 3615W        W 7134   8.551   8.892   1.162
 3616W        W 7135   6.193   1.182   3.251
 3617W        W 7136   5.190   7.325   4.001
 3618W        W 7137   6.122   4.722  11.534
 3619W        W 7138   2.303   9.844   0.839
 3620W        W 7139   2.402   2.463   0.873
 3621W        W 7140   7.208   2.600   3.506
 3622W        W 7141   5.571   6.612   1.983
 3623W        W 7142   4.789   2.231   3.471
 3624W        W 7143   1.806   0.019   1.698
 3625W        W 7144   6.613   8.277   9.544
 3626W        W 7145   1.322   4.174   2.640
 3627W        W 7146   6.366   3.284   8.759
 3628W        W 7147   3.215   5.566   2.796
 3629W        W 7148   5.388   6.052   3.926
 3630W        W 7149   9.604   5.120   3.096
 3631W        W 7150   5.540   9.079   0.462
 3632W        W 7151   3.619   2.099  10.467
 3633W        W 7152   6.884   7.316   9.977
 3634W        W 7153   2.998   9.406   0.988
 3635W        W 7154   3.310   3.689   9.799
 3636W        W 7155   5.703   9.945   0.997
 3637W        W 7156   8.912   5.966   9.556
 3638W        W 7157   8.599   5.729   0.253
 3639W        W 7158   7.618   3.253   1.734
 3640W        W 7159   5.228   5.792   1.648
 3641W        W 7160   7.741   0.055   9.071
 3642W        W 7161   0.533   9.170  10.496
 3643W        W 7162   1.542   5.066   1.543
 3644W        W 7163   8.329   8.864   2.634
 3645W        W 7164   4.304   0.667   0.531
 3646W        W 7165   5.164   9.336   2.191
 3647W        W 7166   4.709   3.659  11.781
 3648W        W 7167   4.528   1.872   9.890
 3649W        W 7168   8.827   2.178   2.826
 3650W        W 7169   5.488   7.713   8.563
 3651W        W 7170   0.435   1.856  11.428
 3652W        W 7171   1.877   9.063   8.917
 3653W        W 7172   0.412   7.042   0.762
 3654W        W 7173   4.228   3.343   2.635
 3655W        W 7174   8.095   3.713  11.947
 3656W        W 7175   6.776   2.314  11.331
 3657W        W 7176   0.971   2.343  10.701
 3658W        W 7177   2.925   2.736   3.651
 3659W        W 7178   6.113   9.946   2.073
 3660W        W 7179   6.745   4.636   1.337
 3661W        W 7180   6.603   8.782   3.100
 3662W        W 7181   8.129   9.199   9.997
 3663W        W 7182   3.175   7.544  10.221
 3664W        W 7183   9.663   2.813  11.714
 3665W        W 7184   9.657   4.707  10.850
 3666W        W 7185   6.036   9.890   3.219
 3667W        W 7186   1.758   8.067   1.508
 3668W        W 7187   3.597   6.611   9.952
 3669W        W 7188   1.815   1.732   2.289
 3670W        W 7189   0.658   6.006  10.873
 3671W        W 7190   7.071   0.260   3.165
 3672W        W 7191   1.622   7.401   1.757
 3673W        W 7192   4.626   8.738   8.611
 3674W        W 7193   2.329   7.084   2.551
 3675W        W 7194   7.682   7.848  10.889
 3676W        W 7195   1.287   0.435   1.084
 3677W        W 7196   0.569   0.825  11.464
 3678W        W 7197   3.167   4.712   2.054
 3679W        W 7198   7.110   5.279  11.744
 3680W        W 7199   5.130   7.875   1.078
 3681W        W 7200   4.531   0.199  10.567
 3682W        W 7201   4.922   3.102  11.021
 3683W        W 7202   8.406   9.911   1.057
 3684W        W 7203   1.670   4.472  10.832
 3685W        W 7204   8.370   0.355   2.765
 3686W        W 7205   4.013   3.367   1.343
 3687W        W 7206   0.448   1.746  10.918
 3688W        W 7207   5.189   5.691   2.134
 3689W        W 7208   6.772   5.542  11.433
 3690W        W 7209   5.596   2.620   1.869
 3691W        W 7210   0.787   4.351   9.933
 3692W        W 7211   2.999   8.799   1.280
 3693W        W 7212   9.061   9.903   9.005
 3694W        W 7213   2.242   4.447  11.693
 3695W        W 7214   6.254   9.112   9.433
 3696W        W 7215   9.361   5.709   9.562
 3697W        W 7216   8.053   6.255   8.824
 3698W        W 7217   4.255   7.492  10.963
 3699W        W 7218   8.302   6.638   3.237
 3700W        W 7219   7.444   4.013   8.846
 3701W        W 7220   7.820   2.690   9.304
 3702W        W 7221   0.438   4.914  10.530
 3703W        W 7222   3.051   8.416  11.588
 3704W        W 7223   2.245   7.426   9.990
 3705W        W 7224   8.000   7.946   1.319
 3706W        W 7225   2.151   1.955   2.584
 3707W        W 7226   6.159   5.274   9.873
 3708W        W 7227   2.416   0.244   3.204
 3709W        W 7228   0.357   6.410  11.707
 3710W        W 7229   4.787   9.566   3.033
 3711W        W 7230   2.602   0.447   0.262
 3712W        W 7231   3.889   4.631   2.194
 3713W        W 7232   2.289   5.227  10.559
 3714W        W 7233   5.380   1.105   0.845
 3715W        W 7234   9.249   2.017  10.132
 3716W        W 7235   2.287   0.922   9.420
 3717W        W 7236   1.796   8.694   0.896
 3718W        W 7237   7.251   6.834  10.621
 3719W        W 7238   4.066   8.569   2.067
 3720W        W 7239   2.845   4.625  11.040
 3721W        W 7240   4.762   5.628   1.778
 3722W        W 7241   1.697   8.821   2.352
 3723W        W 7242   0.262   8.242  10.235
 3724W        W 7243   6.689   6.673   0.094
 3725W        W 7244   6.710   5.051   9.471
 3726W        W 7245   0.431   2.098  11.892
 3727W        W 7246   7.562   8.904   2.789
 3728W        W 7247   3.678   0.071   9.983
 3729W        W 7248   2.249   6.369   1.307
 3730W        W 7249   5.463   3.653   0.300
 3731W        W 7250   3.565   5.033   2.082
 3732W        W 7251   1.144   4.293   1.716
 3733W        W 7252   5.889   8.408  11.353
 3734W        W 7253   8.712   8.576   2.899
 3735W        W 7254   0.920   7.901   2.063
 3736W        W 7255   3.235   9.933   9.762
 3737W        W 7256   7.503   6.961   2.551
 3738W        W 7257   4.879   5.305   0.395
 3739W        W 7258   2.732   8.415   3.384
 3740W        W 7259   5.477   9.488   0.170
 3741W        W 7260   2.360   4.558   1.822
 3742W        W 7261   3.529   9.300   9.445
 3743W        W 7262   5.638   4.011   2.525
 3744W        W 7263   8.882   9.737   0.657
 3745W        W 7264   3.931   2.624   9.032
 3746W        W 7265   6.011   2.816   1.633
 3747W        W 7266   9.059   0.460   2.830
 3748W        W 7267   1.232   8.199   8.790
 3749W        W 7268   6.773   1.246  10.367
 3750W        W 7269   5.148   8.618   8.680
 3751W        W 7270   9.414   4.618   1.933
 3752W        W 7271   9.770   9.783   0.925
 3753W        W 7272   4.914   0.322   1.272
 3754W        W 7273   0.306   5.534  10.980
 3755W        W 7274   8.122   4.132  11.640
 3756W        W 7275   0.382   4.692  10.078
 3757W        W 7276   2.254   8.431   2.674
 3758W        W 7277   3.969   1.869   0.447
 3759W        W 7278   3.810   2.754  11.724
 3760W        W 7279   1.233   2.094   1.818
 3761W        W 7280   6.370   4.097   9.462
 3762W        W 7281   6.334   6.103   8.807
 3763W        W 7282   6.010   9.412   0.301
 3764W        W 7283   4.898   1.129  11.808
 3765W        W 7284   5.952   5.266   1.811
 3766W        W 7285   2.861   5.977  10.798
 3767W        W 7286   1.387   2.373   2.777
 3768W        W 7287   2.261   0.055   2.397
 3769W        W 7288   7.193   9.133   0.051
 3770W        W 7289   6.903   4.916   0.551
 3771W        W 7290   6.908   5.335   0.837
 3772W        W 7291   9.026   3.877   1.261
 3773W        W 7292   4.174   0.909  11.543
 3774W        W 7293   6.809   8.770  11.412
 3775W        W 7294   6.693   9.047   8.759
 3776W        W 7295   4.562   0.280   8.843
 3777W        W 7296   8.433   8.060   9.637
 3778W        W 7297   8.920   4.408   1.314
 3779W        W 7298   1.795   9.580   2.868
 3780W        W 7299   2.696   9.258  11.708
 3781W        W 7300   2.254   9.513   9.484
 3782W        W 7301   8.006   7.903   0.356
 3783W        W 7302   6.960   4.718   9.184
 3784W        W 7303   0.117   0.116   0.219
 3785W        W 7304   7.604   5.566   1.916
 3786W        W 7305   4.554   0.814   3.194
 3787W        W 7306   4.280   1.840   1.722
 3788W        W 7307   7.198   1.327   3.089
 3789W        W 7308   2.368   9.859   3.556
 3790W        W 7309   6.768   2.910   3.395
 3791W        W 7310   0.061   7.616  11.538
 3792W        W 7311   4.958   1.394   8.921
 3793W        W 7312   7.568   7.095  10.293
 3794W        W 7313   4.806   8.989   0.947
 3795W        W 7314   2.403   0.835  11.066
 3796W        W 7315   5.055   3.131   0.522
 3797W        W 7316   5.627   5.886   9.546
 3798W        W 7317   3.215   9.930  10.774
 3799W        W 7318   1.632   2.394   1.941
 3800W        W 7319   2.262   4.037   1.314
 3801W        W 7320   0.771   8.875   2.233
 3802W        W 7321   2.142   3.161   2.317
 3803W        W 7322   6.058   2.658  11.809
 3804W        W 7323   9.726   4.558   0.428
 3805W        W 7324   1.513   4.490   0.803
 3806W        W 7325   5.162   4.111   2.423
 3807W        W 7326   8.923   7.501   0.477
 3808W        W 7327   3.295   6.615  10.361
 3809W        W 7328   4.529   2.264   1.845
 3810W        W 7329   2.832   1.466   2.769
 3811W        W 7330   5.586   4.329   8.405
 3812W        W 7331   8.353   9.067  11.420
 3813W        W 7332   8.170   1.860  11.271
 3814W        W 7333   0.352   0.699   2.900
 3815W        W 7334   5.836   5.583   2.752
 3816W        W 7335   4.754   4.344  10.988
 3817W        W 7336   1.863   2.266   2.918
 3818W        W 7337   4.409   2.790   0.406
 3819W        W 7338   8.222   3.712   8.627
 3820W        W 7339   1.242   0.633   2.303
 3821W        W 7340   2.117   7.452   2.854
 3822W        W 7341   3.411   4.723   2.506
 3823W        W 7342   7.812   9.512   0.516
 3824W        W 7343   7.619   0.750  11.368
 3825W        W 7344   5.378   8.117   3.396
 3826W        W 7345   1.359   4.425  11.831
 3827W        W 7346   9.526   1.267  10.796
 3828W        W 7347   3.973   7.410   1.823
 3829W        W 7348   6.173   0.346   3.457
 3830W        W 7349   4.651   7.446   1.468
 3831W        W 7350   3.518   3.306  10.837
 3832W        W 7351   7.860   3.999   2.392
 3833W        W 7352   2.420   1.990   0.068
 3834W        W 7353   7.303   7.013   9.843
 3835W        W 7354   3.572   2.038   9.532
 3836W        W 7355   9.263   1.344   1.284
 3837W        W 7356   5.389   9.221  10.725
 3838W        W 7357   3.624   6.398  10.940
 3839W        W 7358   2.248   3.621   0.380
 3840W        W 7359   1.272   0.338  11.519
 3841W        W 7360   3.798   3.265  11.826
 3842W        W 7361   0.393   9.466   0.815
 3843W        W 7362   2.303   3.112   9.600
 3844W        W 7363   4.044   5.885   4.241
 3845W        W 7364   1.395   5.508   2.662
 3846W        W 7365   0.031   1.263  10.950
 3847W        W 7366   6.662   6.648   1.066
 3848W        W 7367   4.545   8.794   1.879
 3849W        W 7368   5.888   4.047  10.866
 3850W        W 7369   1.754   5.697  11.348
 3851W        W 7370   0.868   1.920   2.140
 3852W        W 7371   0.743   7.110   2.693
 3853W        W 7372   6.576   5.199   3.048
 3854W        W 7373   7.744   1.955   3.043
 3855W        W 7374   2.778   5.200   9.259
 3856W        W 7375   7.470   5.229   0.156
 3857W        W 7376   0.378   3.480  10.191
 3858W        W 7377   1.121   7.472   8.985
 3859W        W 7378   0.233   3.883  10.442
 3860W        W 7379   7.433   1.677  11.563
 3861W        W 7380   8.035   2.874   1.229
 3862W        W 7381   8.942   6.983  11.824
 3863W        W 7382   5.493   3.574   3.628
 3864W        W 7383   3.785   4.402   1.239
 3865W        W 7384   2.872   1.740   9.162
 3866W        W 7385   0.203   2.419   3.396
 3867W        W 7386   9.212   5.050   1.782
 3868W        W 7387   3.501   8.742   1.297
 3869W        W 7388   5.587   2.246   3.933
 3870W        W 7389   8.936   8.781   1.923
 3871W        W 7390   1.631   9.075   2.821
 3872W        W 7391   6.672   1.922   0.663
 3873W        W 7392   0.977   2.102  10.265
 3874W        W 7393   3.886   5.476   9.965
 3875W        W 7394   3.214   1.278  11.310
 3876W        W 7395   2.126   5.103   2.334
 3877W        W 7396   3.076   9.262   0.504
 3878W        W 7397   8.280   1.450  11.563
 3879W        W 7398   1.162   8.009   0.866
 3880W        W 7399   6.696   3.800   2.442
 3881W        W 7400   5.628   8.024   9.923
 3882W        W 7401   9.368   1.394  11.761
 3883W        W 7402   4.656   8.123  10.431
 3884W        W 7403   3.708   6.308  11.939
 3885W        W 7404   8.503   7.969   1.096
 3886W        W 7405   0.403   2.845  11.237
 3887W        W 7406   1.845   8.430   0.407
 3888W        W 7407   1.880   3.460  10.050
 3889W        W 7408   8.440   9.489   0.752
 3890W        W 7409   6.988   0.144   0.847
 3891W        W 7410   7.266   8.510   2.610
 3892W        W 7411   8.813   4.091   1.689
 3893W        W 7412   7.928   4.120   3.182
 3894W        W 7413   9.198   3.522  10.167
 3895W        W 7414   4.479   0.408   2.801
 3896W        W 7415   5.559   1.626   3.203
 3897W        W 7416   4.226   4.387   0.962
 3898W        W 7417   2.670   7.633   9.779
 3899W        W 7418   4.394   0.621   2.319
 3900W        W 7419   3.773   3.672   1.725
 3901W        W 7420   4.015   3.650   9.177
 3902W        W 7421   4.743   9.168  11.498
 3903W        W 7422   5.091   8.032  11.581
 3904W        W 7423   3.588   6.856   3.429
 3905W        W 7424   9.866   7.129  11.523
 3906W        W 7425   5.218   9.725   2.611
 3907W        W 7426   9.872   6.393   9.714
 3908W        W 7427   3.276   1.560   0.141
 3909W        W 7428   2.210   7.489   0.533
 3910W        W 7429   1.346   8.450  10.961
 3911W        W 7430   3.680   3.224   8.498
 3912W        W 7431   8.785   8.527   1.482
 3913W        W 7432   7.487   3.095  10.535
 3914W        W 7433   4.327   3.800  10.616
 3915W        W 7434   6.968   8.312   2.254
 3916W        W 7435   2.997   2.326   8.782
 3917W        W 7436   0.460   8.034   2.446
 3918W        W 7437   6.112   8.908   3.144
 3919W        W 7438   7.649   0.747   1.936
 3920W        W 7439   2.711   3.492   8.778
 3921W        W 7440   4.661   9.441   9.880
 3922W        W 7441   8.986   8.677   1.013
 3923W        W 7442   5.167   8.365  10.558
 3924W        W 7443   1.859   7.082   0.359
 3925W        W 7444   9.931   7.858   1.166
 3926W        W 7445   4.135   9.392   9.989
 3927W        W 7446   3.169   5.326   3.706
 3928W        W 7447   4.206   8.940   1.077
 3929W        W 7448   6.254   6.888   2.635
 3930W        W 7449   9.133   3.132  11.997
 3931W        W 7450   3.439   6.109   2.409
 3932W        W 7451   0.141   2.589  11.779
 3933W        W 7452   0.813   6.179   9.366
 3934W        W 7453   3.355   2.646   3.346
 3935W        W 7454   7.159   1.576  10.253
 3936W        W 7455   7.882   9.681   9.884
 3937W        W 7456   5.630   0.371  11.280
 3938W        W 7457   3.772   5.461   1.881
 3939W        W 7458   7.704   3.381  11.818
 3940W        W 7459   4.037   0.169   2.769
 3941W        W 7460   9.593   2.923   9.681
 3942W        W 7461   3.654   7.585   9.907
 3943W        W 7462   2.977   2.680   2.335
 3944W        W 7463   5.630   4.713  11.632
 3945W        W 7464   4.214   4.145  11.090
 3946W        W 7465   7.594   7.992  11.373
 3947W        W 7466   1.986   1.280  10.460
 3948W        W 7467   3.580   9.073   9.005
 3949W        W 7468   5.050   9.320   1.293
 3950W        W 7469   2.916   0.455   9.849
 3951W        W 7470   8.048   4.604  11.839
 3952W        W 7471   2.937   7.017   8.652
 3953W        W 7472   9.526   4.206  10.786
 3954W        W 7473   5.486   0.294  11.776
 3955W        W 7474   9.382   7.039   3.097
 3956W        W 7475   6.528   1.660  10.618
 3957W        W 7476   2.715   4.707   0.538
 3958W        W 7477   3.510   3.237   1.655
 3959W        W 7478   4.744   9.268   3.515
 3960W        W 7479   4.828   5.192   9.921
 3961W        W 7480   1.978   6.202  10.419
 3962W        W 7481   7.268   2.922   1.594
 3963W        W 7482   2.192   6.603   2.698
 3964W        W 7483   0.429   4.137   3.427
 3965W        W 7484   5.407   6.179   9.910
 3966W        W 7485   4.681   9.104   2.276
 3967W        W 7486   0.060   5.070   9.226
 3968W        W 7487   4.438   3.241   9.229
 3969W        W 7488   4.663   7.516   9.007
 3970W        W 7489   5.917   9.128   1.769
 3971W        W 7490   7.620   3.839   0.065
 3972W        W 7491   9.589   5.596   2.846
 3973W        W 7492   6.978   6.399   1.799
 3974W        W 7493   5.418   6.082   0.013
 3975W        W 7494   4.251   9.852   0.109
 3976W        W 7495   9.055   9.968   3.031
 3977W        W 7496   7.750   4.071   0.634
 3978W        W 7497   4.429   1.505   2.077
 3979W        W 7498   6.161   1.236   0.431
 3980W        W 7499   9.281   7.881   0.521
 3981W        W 7500   9.416   8.653   2.329
 3982W        W 7501   0.644   9.351   1.291
 3983W        W 7502   2.825   6.530   0.403
 3984W        W 7503   8.719   4.203   2.211
 3985W        W 7504   3.744   7.812   1.565
 3986W        W 7505   2.531   9.396   1.916
 3987W        W 7506   2.553   2.841   2.764
 3988W        W 7507   6.197   4.577   3.648
 3989W        W 7508   9.775   2.605   2.234
 3990W        W 7509   7.840   5.113   0.523
 3991W        W 7510   5.224   3.858   1.588
 3992W        W 7511   1.373   0.265  10.245
 3993W        W 7512   8.240   8.397   2.810
 3994W        W 7513   4.978   7.377   2.763
 3995W        W 7514   3.838   2.898   3.500
 3996W        W 7515   9.859   5.119  11.720
 3997W        W 7516   6.020   5.479  10.886
 3998W        W 7517   3.977   2.711   9.949
 3999W        W 7518   0.281   2.610   9.205
 4000W        W 7519   6.389   6.155   3.286
 4001W        W 7520   7.054   7.352   3.001
 4002W        W 7521   1.444   6.932   1.621
 4003W        W 7522   2.354   4.612  11.196
 4004W        W 7523   0.369   2.831   0.194
 4005W        W 7524   3.591   3.104   1.172
 4006W        W 7525   8.428   7.568   0.340
 4007W        W 7526   4.961   5.144   9.178
 4008W        W 7527   4.326   4.531   3.645
 4009W        W 7528   1.453   5.653   3.588
 4010W        W 7529   8.499   2.320   1.998
 4011W        W 7530   4.486   7.409   0.704
 4012W        W 7531   5.547   8.002   0.827
 4013W        W 7532   1.952   4.776   0.902
 4014W        W 7533   7.435   8.056   2.431
 4015W        W 7534   4.826   9.068   9.448
 4016W        W 7535   7.608   5.628  10.734
 4017W        W 7536   9.351   4.198   1.503
 4018W        W 7537   4.149   1.719   8.989
 4019W        W 7538   7.006   2.394   8.701
 4020W        W 7539   8.867   2.152   2.304
 4021W        W 7540   7.023   8.016   1.165
 4022W        W 7541   3.105   9.792   0.294
 4023W        W 7542   8.128   4.576   3.110
 4024W        W 7543   3.149   3.380  10.487
 4025W        W 7544   3.159   7.186  11.045
 4026W        W 7545   7.401   6.247  11.816
 4027W        W 7546   0.880   5.646  11.367
 4028W        W 7547   4.275   2.723  11.515
 4029W        W 7548   8.499   8.718  10.223
 4030W        W 7549   6.871   8.815   2.348
 4031W        W 7550   0.257   7.418   1.853
 4032W        W 7551   4.970   9.078   1.765
 4033W        W 7552   3.607   0.259  10.541
 4034W        W 7553   7.040   5.798   9.388
 4035W        W 7554   2.257   6.862   1.173
 4036W        W 7555   7.186   6.488   2.536
 4037W        W 7556   4.364   1.622   1.243
 4038W        W 7557   4.146   8.736   1.553
 4039W        W 7558   1.825   7.480   9.240
 4040W        W 7559   4.202   5.780   0.544
 4041W        W 7560   7.203   0.602   3.544
 4042W        W 7561   5.775   8.606   9.279
 4043W        W 7562   5.080   9.535  11.410
 4044W        W 7563   6.427   6.944  11.765
 4045W        W 7564   1.797   9.394   1.905
 4046W        W 7565   9.423   2.284   9.235
 4047W        W 7566   2.518   4.902   1.480
 4048W        W 7567   8.549   0.447  10.031
 4049W        W 7568   0.828   9.846   2.696
 4050W        W 7569   8.796   2.673  10.064
 4051W        W 7570   5.974   0.046   1.411
 4052W        W 7571   5.431   3.108  11.020
 4053W        W 7572   8.588   5.005   0.976
 4054W        W 7573   5.696   0.033   0.506
 4055W        W 7574   3.051   2.860   8.679
 4056W        W 7575   7.110   9.975   2.709
 4057W        W 7576   0.225   5.077   0.640
 4058W        W 7577   6.550   1.624   2.395
 4059W        W 7578   1.173   3.787  10.510
 4060W        W 7579   2.243   3.347   8.983
 4061W        W 7580   4.074   5.766   9.093
 4062W        W 7581   2.050   8.759   9.730
 4063W        W 7582   6.678   6.482   4.047
 4064W        W 7583   6.659   9.945  11.936
 4065W        W 7584   0.661   0.450  10.813
 4066W        W 7585   7.127   2.344   2.309
 4067W        W 7586   2.646   7.720  11.761
 4068W        W 7587   6.869   0.421  10.951
 4069W        W 7588   6.257   1.744  11.189
 4070W        W 7589   7.068   4.201   2.939
 4071W        W 7590   1.779   4.406  10.334
 4072W        W 7591   7.965   1.134   0.816
 4073W        W 7592   4.088   5.058   9.288
 4074W        W 7593   5.181   1.862   2.858
 4075W        W 7594   0.802   2.162   0.535
 4076W        W 7595   3.927   0.342   1.215
 4077W        W 7596   7.459   3.906  10.104
 4078W        W 7597   6.461   6.250   0.832
 4079W        W 7598   6.435   8.496  10.008
 4080W        W 7599   5.697   5.484   9.873
 4081W        W 7600   0.968   0.247   3.012
 4082W        W 7601   8.627   1.746   2.642
 4083W        W 7602   2.369   6.115  11.205
 4084W        W 7603   4.239   9.914  11.551
 4085W        W 7604   2.410   8.802   3.262
 4086W        W 7605   6.519   4.639   8.264
 4087W        W 7606   6.774   5.905   1.855
 4088W        W 7607   8.001   4.177   0.157
 4089W        W 7608   7.868   6.736   3.538
 4090W        W 7609   9.257   0.867   1.079
 4091W        W 7610   0.844   0.815   3.142
 4092W        W 7611   7.362   8.407   1.090
 4093W        W 7612   9.567   0.910  11.311
 4094W        W 7613   6.944   8.059  10.773
 4095W        W 7614   7.439   2.774   2.049
 4096W        W 7615   6.412   2.576   1.411
 4097W        W 7616   3.286   1.262   2.622
 4098W        W 7617   6.295   2.485  11.341
 4099W        W 7618   7.076   0.516   2.712
 4100W        W 7619   4.234   4.524   9.080
 4101W        W 7620   8.806   9.997  11.907
 4102W        W 7621   3.219   1.775  10.426
 4103W        W 7622   3.695   8.480  11.000
 4104W        W 7623   2.975   5.943   1.871
 4105W        W 7624   3.299   5.006   1.657
 4106W        W 7625   7.520   0.319   3.838
 4107W        W 7626   2.553   3.967  10.196
 4108W        W 7627   6.143   9.713   0.821
 4109W        W 7628   4.088   1.299   2.958
 4110W        W 7629   3.643   3.797   2.992
 4111W        W 7630   9.840   2.908   3.365
 4112W        W 7631   5.391   0.411   9.667
 4113W        W 7632   9.568   5.767   1.613
 4114W        W 7633   7.618   7.505   0.772
 4115W        W 7634   6.680   7.577   2.744
 4116W        W 7635   9.304   6.686   1.626
 4117W        W 7636   1.333   1.199   1.493
 4118W        W 7637   2.341   4.084   8.543
 4119W        W 7638   4.154   0.841   9.516
 4120W        W 7639   3.086   0.280   0.458
 4121W        W 7640   4.446   1.287   9.000
 4122W        W 7641   9.375   6.187   9.722
 4123W        W 7642   8.962   2.309   1.050
 4124W        W 7643   1.285   3.441   0.062
 4125W        W 7644   0.728   3.725   0.249
 4126W        W 7645   4.559   3.351  10.752
 4127W        W 7646   7.236   8.458  11.396
 4128W        W 7647   3.535   3.784   3.973
 4129W        W 7648   6.149   5.739  11.693
 4130W        W 7649   5.400   1.203   0.038
 4131W        W 7650   6.644   4.526   9.536
 4132W        W 7651   0.938   6.965   0.868
 4133W        W 7652   3.814   8.548   3.301
 4134W        W 7653   7.153   3.474   1.748
 4135W        W 7654   6.088   6.713  11.458
 4136W        W 7655   5.111   2.819   3.239
 4137W        W 7656   6.217   7.019  10.575
 4138W        W 7657   8.616   3.889   8.944
 4139W        W 7658   0.721   8.916   2.771
 4140W        W 7659   6.168   4.124   3.387
 4141W        W 7660   5.222   3.660   9.185
 4142W        W 7661   1.147   1.469   0.596
 4143W        W 7662   6.230   1.974   2.650
 4144W        W 7663   8.855   2.927   9.140
 4145W        W 7664   2.829   4.712   0.037
 4146W        W 7665   6.017   4.780  10.021
 4147W        W 7666   1.426   0.365   3.204
 4148W        W 7667   6.057   6.653   1.803
 4149W        W 7668   5.415   6.530  10.313
 4150W        W 7669   8.292   1.286   9.576
 4151W        W 7670   5.662   5.458   1.038
 4152W        W 7671   5.145   6.486   8.242
 4153W        W 7672   7.647   7.316   9.484
 4154W        W 7673   1.640   8.885   0.236
 4155W        W 7674   7.383   6.357  10.806
 4156W        W 7675   8.096   8.417  11.917
 4157W        W 7676   0.728   0.802   2.222
 4158W        W 7677   5.918   6.824   2.274
 4159W        W 7678   8.530   8.935   1.664
 4160W        W 7679   2.179   0.382   2.758
 4161W        W 7680   1.299   7.914   3.574
 4162W        W 7681   5.555   6.686   8.516
 4163W        W 7682   9.323   7.402  10.379
 4164W        W 7683   0.133   6.020  10.926
 4165W        W 7684   2.686   1.515   3.256
 4166W        W 7685   2.868   4.793   2.458
 4167W        W 7686   4.743   5.250   3.608
 4168W        W 7687   4.792   5.964   9.837
 4169W        W 7688   3.178   0.834  10.376
 4170W        W 7689   0.391   3.336   0.225
 4171W        W 7690   9.853   7.004  10.903
 4172W        W 7691   5.329   4.915   2.245
 4173W        W 7692   4.677   1.831  11.349
 4174W        W 7693   5.860   1.312   9.450
 4175W        W 7694   6.383   0.272  10.772
 4176W        W 7695   2.832   1.939   2.990
 4177W        W 7696   7.050   1.021   2.623
 4178W        W 7697   3.856   3.693  10.818
 4179W        W 7698   2.125   8.090   8.662
 4180W        W 7699   5.931   8.368   2.261
 4181W        W 7700   6.974   9.267   8.354
 4182W        W 7701   3.121   6.781   2.180
 4183W        W 7702   9.817   5.612  10.832
 4184W        W 7703   2.861   3.797  11.608
 4185W        W 7704   8.820   1.730  10.393
 4186W        W 7705   9.298   2.590  10.002
 4187W        W 7706   3.738   4.514   9.853
 4188W        W 7707   2.652   5.129   0.268
 4189W        W 7708   6.353   9.638   9.522
 4190W        W 7709   4.521   8.716  11.511
 4191W        W 7710   8.542   8.472   0.822
 4192W        W 7711   5.971   0.433  11.661
 4193W        W 7712   9.729   3.685  10.088
 4194W        W 7713   6.094   1.585   0.849
 4195W        W 7714   9.011   7.846   8.689
 4196W        W 7715   2.288   9.454  11.370
 4197W        W 7716   0.384   4.629   2.643
 4198W        W 7717   0.779   1.959   1.609
 4199W        W 7718   5.910   6.933  11.023
 4200W        W 7719   6.998   2.021  10.034
 4201W        W 7720   8.355   1.495   1.514
 4202W        W 7721   2.132   6.783   9.572
 4203W        W 7722   1.215   0.769   9.061
 4204W        W 7723   2.237   1.796   9.227
 4205W        W 7724   2.638   7.281   2.915
 4206W        W 7725   2.293   6.717   0.300
 4207W        W 7726   0.173   0.425   9.588
 4208W        W 7727   3.613   1.485   2.955
 4209W        W 7728   8.874   9.717   1.150
 4210W        W 7729   4.444   5.946  11.846
 4211W        W 7730   8.790   5.455   2.540
 4212W        W 7731   1.488   2.643   9.826
 4213W        W 7732   9.643   0.577   1.645
 4214W        W 7733   8.044   3.484   3.823
 4215W        W 7734   6.611   8.034   2.014
 4216W        W 7735   0.470   0.201   2.881
 4217W        W 7736   5.587   2.187   9.219
 4218W        W 7737   1.530   3.750   2.367
 4219W        W 7738   5.267   2.391   8.828
 4220W        W 7739   6.461   7.891  10.502
 4221W        W 7740   7.408   7.522  11.213
 4222W        W 7741   3.436   6.996   8.503
 4223W        W 7742   6.750   0.791  11.912
 4224W        W 7743   5.279   5.663  11.640
 4225W        W 7744   3.362   4.133   0.754
 4226W        W 7745   4.259   8.521  10.253
 4227W        W 7746   8.953   0.254  10.507
 4228W        W 7747   4.335   5.488   3.822
 4229W        W 7748   5.990   6.221   9.477
 4230W        W 7749   7.618   5.903   9.847
 4231W        W 7750   1.808   4.733   3.662
 4232W        W 7751   8.205   9.860   1.955
 4233W        W 7752   7.167   4.366   1.329
 4234W        W 7753   5.755   3.629   4.053
 4235W        W 7754   9.933   5.695   2.458
 4236W        W 7755   5.561   3.059  10.504
 4237W        W 7756   6.413   7.661  11.469
 4238W        W 7757   1.055   3.765   2.531
 4239W        W 7758   8.227   8.294  10.157
 4240W        W 7759   0.803   3.332   2.435
 4241W        W 7760   3.899   9.260   8.615
 4242W        W 7761   0.249   2.567   1.425
 4243W        W 7762   8.648   9.303   9.378
 4244W        W 7763   3.129   4.137   1.241
 4245W        W 7764   1.153   1.192   2.964
 4246W        W 7765   9.080   0.975  11.874
 4247W        W 7766   3.241   1.729   3.222
 4248W        W 7767   5.695   0.975   0.382
 4249W        W 7768   8.035   3.560  10.957
 4250W        W 7769   0.848   6.165   8.822
 4251W        W 7770   2.788   7.017   1.663
 4252W        W 7771   4.358   4.761   2.334
 4253W        W 7772   5.950   0.335   0.166
 4254W        W 7773   2.699   5.154   9.766
 4255W        W 7774   0.814   2.415   1.984
 4256W        W 7775   6.258   3.168   9.628
 4257W        W 7776   1.237   1.321  10.909
 4258W        W 7777   3.084   9.519   9.519
 4259W        W 7778   9.024   4.450   3.436
 4260W        W 7779   4.678   7.153  11.386
 4261W        W 7780   8.956   7.748   0.929
 4262W        W 7781   1.240   2.289   9.562
 4263W        W 7782   3.184   3.245   9.990
 4264W        W 7783   1.115   5.759  11.951
 4265W        W 7784   4.170   8.424   0.165
 4266W        W 7785   0.032   9.079   9.117
 4267W        W 7786   6.192   1.694   9.349
 4268W        W 7787   4.680   1.744   3.302
 4269W        W 7788   7.633   0.283  11.067
 4270W        W 7789   0.927   4.337  11.223
 4271W        W 7790   5.000   3.774   1.147
 4272W        W 7791   6.699   6.004   8.451
 4273W        W 7792   4.615   3.059   2.848
 4274W        W 7793   7.819   1.511   2.289
 4275W        W 7794   6.504   4.202   1.150
 4276W        W 7795   2.375   6.664  10.471
 4277W        W 7796   2.131   8.313   0.864
 4278W        W 7797   8.098   8.384   2.255
 4279W        W 7798   1.540   3.279   3.120
 4280W        W 7799   0.888   8.400   0.365
 4281W        W 7800   5.408   1.745   1.457
 4282W        W 7801   8.987   6.095  10.073
 4283W        W 7802   2.979   6.238  11.751
 4284W        W 7803   2.858   9.739  11.817
 4285W        W 7804   4.242   6.722   9.213
 4286W        W 7805   0.901   2.089   9.249
 4287W        W 7806   9.330   0.999   2.386
 4288W        W 7807   8.056   9.999   1.449
 4289W        W 7808   8.379   2.752   0.002
 4290W        W 7809   6.001   8.065   2.643
 4291W        W 7810   4.697   6.630   9.021
 4292W        W 7811   5.987   0.805   9.412
 4293W        W 7812   7.357   9.387  10.280
 4294W        W 7813   1.029   4.219   2.210
 4295W        W 7814   7.380   4.350   2.559
 4296W        W 7815   9.212   9.295   3.029
 4297W        W 7816   1.645   5.534   3.124
 4298W        W 7817   6.909   9.980  11.452
 4299W        W 7818   2.771   9.094  10.134
 4300W        W 7819   5.082   5.886   2.920
 4301W        W 7820   3.793   3.756   3.477
 4302W        W 7821   1.854   0.233   2.174
 4303W        W 7822   5.621   3.092   2.083
 4304W        W 7823   7.827   0.272   9.533
 4305W        W 7824   9.259   1.695   8.842
 4306W        W 7825   1.817   5.219  10.303
 4307W        W 7826   5.217   7.475   8.921
 4308W        W 7827   9.769   7.516   1.539
 4309W        W 7828   3.991   7.301   2.820
 4310W        W 7829   5.498   4.762   9.962
 4311W        W 7830   3.951   0.830   2.209
 4312W        W 7831   7.078   3.983   8.473
 4313W        W 7832   9.974   5.964   9.979
 4314W        W 7833   5.019   9.138   8.634
 4315W        W 7834   3.239   1.655   9.522
 4316W        W 7835   6.787   2.378   0.448
 4317W        W 7836   9.619   9.623   3.097
 4318W        W 7837   5.609   0.869   1.258
 4319W        W 7838   3.459   6.556   1.248
 4320W        W 7839   4.677   0.407   0.809
 4321W        W 7840   1.884   0.524   1.749
 4322W        W 7841   0.743   5.514   8.448
 4323W        W 7842   5.937   7.648  11.629
 4324W        W 7843   1.926   6.959   1.786
 4325W        W 7844   3.717   0.051   3.230
 4326W        W 7845   8.484   6.011  10.237
 4327W        W 7846   9.039   0.209   9.991
 4328W        W 7847   1.707   2.738   0.586
 4329W        W 7848   7.053   7.477   0.269
 4330W        W 7849   5.210   4.033   7.980
 4331W        W 7850   1.393   7.976   2.244
 4332W        W 7851   5.140   6.467   1.678
 4333W        W 7852   9.218   1.779   1.536
 4334W        W 7853   8.467   5.736   9.345
 4335W        W 7854   8.512   4.112  11.321
 4336W        W 7855   2.575   5.591  10.032
 4337W        W 7856   6.536   0.798  11.062
 4338W        W 7857   2.210   9.872   9.110
 4339W        W 7858   6.610   4.182  10.621
 4340W        W 7859   4.604   3.877   2.432
 4341W        W 7860   2.496   1.482   0.145
 4342W        W 7861   0.104   9.515   2.243
 4343W        W 7862   0.559   5.439   0.788
 4344W        W 7863   2.842   0.472   3.506
 4345W        W 7864   8.412   1.567   0.067
 4346W        W 7865   0.324   3.256  10.750
 4347W        W 7866   2.185   4.358   3.668
 4348W        W 7867   9.417   8.855  11.642
 4349W        W 7868   5.456   2.533  10.387
 4350W        W 7869   7.961   0.403   0.306
 4351W        W 7870   2.446   9.544   3.146
 4352W        W 7871   3.724   2.945   9.384
 4353W        W 7872   8.123   9.600  10.720
 4354W        W 7873   9.919   5.741  11.317
 4355W        W 7874   6.891   5.742  11.882
 4356W        W 7875   7.771   4.718  10.312
 4357W        W 7876   0.988   0.197   3.512
 4358W        W 7877   6.618   3.527  11.933
 4359W        W 7878   6.946   5.464  10.375
 4360W        W 7879   8.105   4.732   8.671
 4361W        W 7880   9.907   8.933  11.808
 4362W        W 7881   4.359   1.027   1.939
 4363W        W 7882   3.294   9.734   1.741
 4364W        W 7883   3.323   8.807  10.201
 4365W        W 7884   6.081   3.295   1.905
 4366W        W 7885   7.668   7.306   8.932
 4367W        W 7886   4.302   2.591   0.929
 4368W        W 7887   9.500   3.281   3.293
 4369W        W 7888   7.702   9.554   9.082
 4370W        W 7889   2.089   4.062   3.260
 4371W        W 7890   4.153   4.744   1.316
 4372W        W 7891   6.048   5.686   8.562
 4373W        W 7892   0.716   4.872   3.432
 4374W        W 7893   7.018   4.482   8.330
 4375W        W 7894   0.407   1.114   1.514
 4376W        W 7895   9.748   3.769  10.594
 4377W        W 7896   7.444   7.081   1.292
 4378W        W 7897   3.340   4.680  11.144
 4379W        W 7898   5.451   0.356   1.202
 4380W        W 7899   2.442   4.697  10.707
 4381W        W 7900   4.631   6.679   0.242
 4382W        W 7901   9.504   6.361   2.175
 4383W        W 7902   8.081   0.371  11.347
 4384W        W 7903   7.845   7.976  11.881
 4385W        W 7904   6.582   2.516  11.764
 4386W        W 7905   9.323   7.918   3.315
 4387W        W 7906   9.325   4.697   9.493
 4388W        W 7907   4.718   4.844   0.476
 4389W        W 7908   3.012   4.979   4.107
 4390W        W 7909   2.374   3.092   3.171
 4391W        W 7910   4.386   6.566   1.038
 4392W        W 7911   4.292   1.439   3.443
 4393W        W 7912   7.161   3.751   2.223
 4394W        W 7913   0.031   5.076  10.190
 4395W        W 7914   8.539   7.612   9.343
 4396W        W 7915   5.067   0.772   9.497
 4397W        W 7916   3.622   4.229  11.788
 4398W        W 7917   9.526   4.158   3.436
 4399W        W 7918   2.734   7.209  11.773
 4400W        W 7919   3.169   3.753   8.846
 4401W        W 7920   2.882   3.899   2.220
 4402W        W 7921   1.742   1.253  10.940
 4403W        W 7922   3.081   0.567   0.872
 4404W        W 7923   8.478   1.858  10.772
 4405W        W 7924   0.395   4.534  11.934
 4406W        W 7925   3.049   6.297   1.465
 4407W        W 7926   6.703   0.812   9.108
 4408W        W 7927   8.476   6.221   9.753
 4409W        W 7928   6.110   7.141  10.056
 4410W        W 7929   5.673   5.822   2.297
 4411W        W 7930   5.286   2.981   0.976
 4412W        W 7931   7.866   8.966  11.329
 4413W        W 7932   0.357   8.410   2.111
 4414W        W 7933   0.966   5.495   0.402
 4415W        W 7934   7.582   0.724   9.419
 4416W        W 7935   8.172   3.281   3.103
 4417W        W 7936   0.921   7.016   2.225
 4418W        W 7937   0.328   8.159  11.285
 4419W        W 7938   7.493   3.998   3.414
 4420W        W 7939   8.050   6.882  10.470
 4421W        W 7940   9.778   0.732   1.012
 4422W        W 7941   8.565   6.625   1.864
 4423W        W 7942   8.599   9.740  10.614
 4424W        W 7943   0.352   9.223  11.832
 4425W        W 7944   6.598   6.087   2.789
 4426W        W 7945   3.119   3.264   9.030
 4427W        W 7946   9.068   4.550   2.392
 4428W        W 7947   3.959   4.254   1.737
 4429W        W 7948   2.696   7.402   8.355
 4430W        W 7949   6.425   2.495  10.054
 4431W        W 7950   9.342   0.551   2.069
 4432W        W 7951   4.647   0.699  11.719
 4433W        W 7952   0.839   6.158  11.351
 4434W        W 7953   1.381   3.525  10.108
 4435W        W 7954   6.382   1.354   9.736
 4436W        W 7955   6.482   5.275  10.961
 4437W        W 7956   3.032   7.983   8.618
 4438W        W 7957   7.575   9.376  11.262
 4439W        W 7958   9.395   6.537  11.844
 4440W        W 7959   8.213   6.400   2.165
 4441W        W 7960   7.009   8.334   3.139
 4442W        W 7961   8.238   9.469   3.213
 4443W        W 7962   8.052   6.996   9.383
 4444W        W 7963   4.641   9.974   1.580
 4445W        W 7964   9.777   0.345  10.994
 4446W        W 7965   5.638   6.445   3.677
 4447W        W 7966   5.221   0.389   3.369
 4448W        W 7967   4.576   7.187   0.244
 4449W        W 7968   7.781   1.168   9.644
 4450W        W 7969   4.868   1.302   1.887
 4451W        W 7970   5.454   1.478   8.744
 4452W        W 7971   4.037   5.192   1.048
 4453W        W 7972   9.256   8.789   2.817
 4454W        W 7973   8.088   9.708   0.105
 4455W        W 7974   6.758   7.544  10.731
 4456W        W 7975   2.411   9.482   1.225
 4457W        W 7976   7.429   0.374   0.593
 4458W        W 7977   5.953   2.813   3.206
 4459W        W 7978   8.630   6.580   2.377
 4460W        W 7979   3.951   6.796  11.610
 4461W        W 7980   6.596   0.867   0.394
 4462W        W 7981   3.114   5.150  10.387
 4463W        W 7982   7.377   9.197   3.360
 4464W        W 7983   4.526   5.856  10.986
 4465W        W 7984   4.153   8.199   2.413
 4466W        W 7985   3.068   9.781   3.589
 4467W        W 7986   4.076   7.130  11.982
 4468W        W 7987   0.840   0.646   9.503
 4469W        W 7988   2.571   9.101   2.892
 4470W        W 7989   4.479   7.393  11.798
 4471W        W 7990   7.377   2.810  10.090
 4472W        W 7991   5.197   2.754   2.149
 4473W        W 7992   2.785   9.958   9.974
 4474W        W 7993   8.503   9.772   1.543
 4475W        W 7994   0.927   9.772   3.222
 4476W        W 7995   2.360   9.633  11.850
 4477W        W 7996   1.774   9.695   9.722
 4478W        W 7997   4.525   9.316   1.832
 4479W        W 7998   5.664   4.853  10.876
 4480W        W 7999   2.405   1.202  11.716
 4481W        W 8000   4.755   2.861   2.372
 4482W        W 8001   8.675   6.124   1.998
 4483W        W 8002   0.903   5.178   0.011
 4484W        W 8003   9.026   8.566   9.019
 4485W        W 8004   4.483   2.426   2.315
 4486W        W 8005   2.398   7.001   8.684
 4487W        W 8006   3.984   7.125   9.025
 4488W        W 8007   1.767   0.359   0.341
 4489W        W 8008   3.566   9.813   9.396
 4490W        W 8009   5.121   3.644   2.249
 4491W        W 8010   9.365   4.687   1.428
 4492W        W 8011   6.963   7.782   9.794
 4493W        W 8012   3.658   6.893   2.893
 4494W        W 8013   5.751   3.624   0.753
 4495W        W 8014   4.122   6.415   8.269
 4496W        W 8015   6.076   8.638  11.902
 4497W        W 8016   0.192   9.669   1.254
 4498W        W 8017   7.208   7.309   8.687
 4499W        W 8018   0.477   8.393   0.050
 4500W        W 8019   8.952   3.089   2.175
 4501W        W 8020   2.170   7.843   9.674
 4502W        W 8021   9.161   1.785   2.066
 4503W        W 8022   9.340   4.989   2.294
 4504W        W 8023   9.864   5.600  10.330
 4505W        W 8024   2.407   0.734   3.025
 4506W        W 8025   5.523   6.646  10.816
 4507W        W 8026   7.984   7.571   8.641
 4508W        W 8027   1.816   2.701  11.186
 4509W        W 8028   6.257   3.653   2.238
 4510W        W 8029   1.618   7.946   0.607
 4511W        W 8030   6.085   4.722   2.597
 4512W        W 8031   5.961   2.362   1.354
 4513W        W 8032   2.185   1.991   0.854
 4514W        W 8033   6.148   5.265   8.897
 4515W        W 8034   6.834   6.078   9.743
 4516W        W 8035   4.717   2.651  10.931
 4517W        W 8036   8.416   2.990   0.885
 4518W        W 8037   3.048   8.021   9.132
 4519W        W 8038   9.389   7.202   9.760
 4520W        W 8039   8.580   4.565  10.588
 4521W        W 8040   6.026   6.541  10.650
 4522W        W 8041   1.717   7.977   9.976
 4523W        W 8042   4.610   4.068   1.080
 4524W        W 8043   5.931   1.549   9.908
 4525W        W 8044   8.963   2.304   0.015
 4526W        W 8045   9.346   4.875   9.987
 4527W        W 8046   2.535   6.565   0.830
 4528W        W 8047   3.060   0.105   1.488
 4529W        W 8048   4.192   0.565   1.829
 4530W        W 8049   9.157   9.775   0.220
 4531W        W 8050   2.330   4.024   9.529
 4532W        W 8051   6.648   2.221   9.657
 4533W        W 8052   8.452   2.380   0.947
 4534W        W 8053   0.267   2.343  10.982
 4535W        W 8054   0.515   8.855   1.412
 4536W        W 8055   6.757   8.458   2.708
 4537W        W 8056   8.453   3.341   9.479
 4538W        W 8057   6.698   2.855  11.417
 4539W        W 8058   2.891   7.576   9.325
 4540W        W 8059   9.737   9.026   2.501
 4541W        W 8060   4.421   7.188   9.348
 4542W        W 8061   8.054   9.781   9.406
 4543W        W 8062   3.726   7.311   9.435
 4544W        W 8063   6.462   5.410   1.091
 4545W        W 8064   5.898   3.942   0.282
 4546W        W 8065   9.527   0.872   0.119
 4547W        W 8066   8.437   8.833   2.148
 4548W        W 8067   4.156   9.273   1.481
 4549W        W 8068   9.680   8.170   0.356
 4550W        W 8069   2.115   0.880   2.612
 4551W        W 8070   0.000   6.865   1.027
 4552W        W 8071   6.067   0.466   1.988
 4553W        W 8072   6.269   9.419   8.636
 4554W        W 8073   0.010   4.170   9.285
 4555W        W 8074   0.419   6.177   0.219
 4556W        W 8075   6.174   7.421   3.077
 4557W        W 8076   0.510   1.340   8.691
 4558W        W 8077   3.102   5.635  10.171
 4559W        W 8078   5.543   2.145   3.093
 4560W        W 8079   2.059   9.126   1.091
 4561W        W 8080   0.322   8.269  10.773
 4562W        W 8081   3.423   8.087   1.860
 4563W        W 8082   0.800   0.571   2.667
 4564W        W 8083   4.272   6.470   0.548
 4565W        W 8084   0.680   1.305   3.151
 4566W        W 8085   0.564   0.657   1.658
 4567W        W 8086   7.379   2.758   3.023
 4568W        W 8087   3.423   1.530   3.654
 4569W        W 8088   7.946   2.831  11.681
 4570W        W 8089   7.334   4.390  11.395
 4571W        W 8090   4.246   0.424  11.437
 4572W        W 8091   0.089   2.843   2.608
 4573W        W 8092   3.400   9.952   0.695
 4574W        W 8093   0.029   7.587   0.064
 4575W        W 8094   5.416   6.138   1.992
 4576W        W 8095   3.102   7.254   3.435
 4577W        W 8096   7.156   5.747   1.043
 4578W        W 8097   3.325   5.963  11.039
 4579W        W 8098   4.642   0.297   1.974
 4580W        W 8099   7.597   6.608   0.115
 4581W        W 8100   6.814   0.669   1.769
 4582W        W 8101   2.674   4.935   2.008
 4583W        W 8102   8.313   4.156   9.303
 4584W        W 8103   3.788   0.589   9.818
 4585W        W 8104   3.389   5.076   2.885
 4586W        W 8105   7.040   4.341   8.832
 4587W        W 8106   5.789   6.969   9.297
 4588W        W 8107   5.009   0.375   9.154
 4589W        W 8108   9.947   5.446   1.447
 4590W        W 8109   4.638   8.045   2.314
 4591W        W 8110   6.464   8.905   0.710
 4592W        W 8111   1.899   9.476   8.447
 4593W        W 8112   9.712   0.451   8.328
 4594W        W 8113   3.198   2.888  10.695
 4595W        W 8114   4.452   3.053   1.194
 4596W        W 8115   2.740   4.551   8.967
 4597W        W 8116   2.721   4.217  11.366
 4598W        W 8117   8.855   0.521   0.018
 4599W        W 8118   8.113   4.805   1.138
 4600W        W 8119   2.004   8.869  10.246
 4601W        W 8120   9.761   9.829   1.502
 4602W        W 8121   0.391   6.130   2.184
 4603W        W 8122   0.532   2.124  10.578
 4604W        W 8123   4.576   4.335   3.229
 4605W        W 8124   8.389   7.065   1.522
 4606W        W 8125   4.064   2.300   1.299
 4607W        W 8126   7.547   0.172   3.365
 4608W        W 8127   6.030   2.055   0.025
 4609W        W 8128   3.389   8.702   3.041
 4610W        W 8129   3.694   9.883  10.912
 4611W        W 8130   3.638   6.867  10.678
 4612W        W 8131   7.098   6.516  11.437
 4613W        W 8132   9.059   5.170   0.694
 4614W        W 8133   5.234   7.605  11.179
 4615W        W 8134   1.401   4.505  11.280
 4616W        W 8135   3.720   6.387  11.434
 4617W        W 8136   3.960   5.849   3.735
 4618W        W 8137   6.077   0.840   3.633
 4619W        W 8138   5.701   2.726   0.742
 4620W        W 8139   1.992   1.270  11.407
 4621W        W 8140   3.306   8.539   0.015
 4622W        W 8141   9.489   4.222   9.398
 4623W        W 8142   0.048   5.691   1.894
 4624W        W 8143   2.467   3.366  11.105
 4625W        W 8144   6.867   5.070  10.721
 4626W        W 8145   2.308   7.205   1.536
 4627W        W 8146   4.617   9.150   8.952
 4628W        W 8147   0.421   7.590   9.683
 4629W        W 8148   9.576   6.381  10.149
 4630W        W 8149   6.768   0.257   9.014
 4631W        W 8150   1.695   4.567   3.195
 4632W        W 8151   0.145   6.580   3.516
 4633W        W 8152   5.930   2.464   0.304
 4634W        W 8153   9.550   8.010   1.486
 4635W        W 8154   3.702   2.833  10.788
 4636W        W 8155   4.250   6.166  10.658
 4637W        W 8156   6.849   3.879   8.935
 4638W        W 8157   0.947   7.965   2.578
 4639W        W 8158   1.865   4.132   2.462
 4640W        W 8159   5.979   1.175  11.785
 4641W        W 8160   6.479   3.496  10.007
 4642W        W 8161   3.249   6.498   3.544
 4643W        W 8162   7.555   4.136   1.100
 4644W        W 8163   0.769   6.611   2.640
 4645W        W 8164   8.573   8.413   2.430
 4646W        W 8165   5.778   7.461  11.177
 4647W        W 8166   5.666   9.537   0.655
 4648W        W 8167   0.034   4.903   0.174
 4649W        W 8168   7.930   6.899   0.346
 4650W        W 8169   1.034   1.302   8.678
 4651W        W 8170   3.259   1.697  11.615
 4652W        W 8171   6.527   8.828  10.969
 4653W        W 8172   8.534   4.479   0.940
 4654W        W 8173   3.168   3.358   8.500
 4655W        W 8174   2.078   6.653   2.180
 4656W        W 8175   8.106   2.360  11.450
 4657W        W 8176   5.531   6.744   1.502
 4658W        W 8177   3.213   2.298  10.049
 4659W        W 8178   0.181   0.641   1.986
 4660W        W 8179   5.206   8.120  11.078
 4661W        W 8180   1.828   6.088   9.928
 4662W        W 8181   7.823   9.898  10.378
 4663W        W 8182   6.487   4.879   9.884
 4664W        W 8183   0.863   6.480   0.490
 4665W        W 8184   2.028   7.640   1.472
 4666W        W 8185   4.254   6.269   3.488
 4667W        W 8186   5.867   6.913   3.566
 4668W        W 8187   9.683   6.664  11.301
 4669W        W 8188   6.529   3.092   9.208
 4670W        W 8189   2.020   3.663   2.293
 4671W        W 8190   7.038   0.324   2.259
 4672W        W 8191   4.763   9.887  11.583
 4673W        W 8192   4.471   6.869  11.792
 4674W        W 8193   4.792   7.429  10.946
 4675W        W 8194   0.400   1.940   2.351
 4676W        W 8195   7.441   4.241   2.082
 4677W        W 8196   0.408   6.389  10.630
 4678W        W 8197   9.011   8.159  11.277
 4679W        W 8198   3.864   9.012  10.995
 4680W        W 8199   1.838   4.031   9.305
 4681W        W 8200   0.835   4.029   0.669
 4682W        W 8201   9.220   8.912  10.629
 4683W        W 8202   0.210   7.607   2.347
 4684W        W 8203   0.722   2.961   2.780
 4685W        W 8204   7.587   9.582   3.668
 4686W        W 8205   4.778   2.725   1.844
 4687W        W 8206   8.190   4.902  10.546
 4688W        W 8207   0.383   2.155   1.846
 4689W        W 8208   3.083   6.054   8.996
 4690W        W 8209   3.990   3.765   0.370
 4691W        W 8210   4.065   7.021   8.502
 4692W        W 8211   5.106   9.450   9.598
 4693W        W 8212   0.658   2.584  11.868
 4694W        W 8213   6.069   7.804   0.119
 4695W        W 8214   4.166   4.038   8.874
 4696W        W 8215   0.454   1.977   3.401
 4697W        W 8216   3.349   9.812  11.797
 4698W        W 8217   2.882   5.163   2.817
 4699W        W 8218   3.039   1.253   9.310
 4700W        W 8219   8.899   7.157  10.961
 4701W        W 8220   8.409   0.273   1.754
 4702W        W 8221   4.627   2.471   9.592
 4703W        W 8222   9.379   9.077   2.036
 4704W        W 8223   5.552   2.857   9.993
 4705W        W 8224   9.584   8.213   2.527
 4706W        W 8225   8.961   9.297   1.868
 4707W        W 8226   8.781   1.158   1.405
 4708W        W 8227   9.027   3.106   3.273
 4709W        W 8228   7.464   6.600   2.944
 4710W        W 8229   4.526   9.569  11.260
 4711W        W 8230   9.750   0.419   0.009
 4712W        W 8231   4.690   4.372   2.284
 4713W        W 8232   6.858   3.625   0.390
 4714W        W 8233   4.301   4.777   3.182
 4715W        W 8234   4.692   5.696   1.124
 4716W        W 8235   7.621   7.986   0.940
 4717W        W 8236   7.032   8.900   2.826
 4718W        W 8237   5.860   0.296  10.822
 4719W        W 8238   1.773   0.105   0.804
 4720W        W 8239   3.376   1.492   0.675
 4721W        W 8240   4.013   7.607  11.833
 4722W        W 8241   3.934   8.961   9.370
 4723W        W 8242   2.620   1.640  10.152
 4724W        W 8243   6.226   8.611   9.550
 4725W        W 8244   0.974   3.676  11.022
 4726W        W 8245   1.890   7.468  10.782
 4727W        W 8246   7.915   8.196   3.154
 4728W        W 8247   7.935   1.023   8.863
 4729W        W 8248   8.498   5.898   8.840
 4730W        W 8249   3.392   1.197  11.790
 4731W        W 8250   7.022   1.098   3.538
 4732W        W 8251   6.711   0.716   2.351
 4733W        W 8252   0.940   2.169   3.456
 4734W        W 8253   4.088   4.803  10.569
 4735W        W 8254   8.056   4.914   1.641
 4736W        W 8255   5.468   0.649   9.216
 4737W        W 8256   7.907   0.269   2.028
 4738W        W 8257   2.144   5.112   8.591
 4739W        W 8258   0.730   8.892  11.961
 4740W        W 8259   1.012   4.999  11.104
 4741W        W 8260   3.950   9.369   0.595
 4742W        W 8261   7.119   6.034   0.228
 4743W        W 8262   4.768   9.855   0.105
 4744W        W 8263   3.232   9.910  11.311
 4745W        W 8264   3.325   4.585  11.996
 4746W        W 8265   5.063   2.348   3.044
 4747W        W 8266   6.157   1.904   2.146
 4748W        W 8267   0.004   4.137   3.128
 4749W        W 8268   1.412   7.411   3.420
 4750W        W 8269   9.887   2.034   0.497
 4751W        W 8270   8.088   8.208   0.898
 4752W        W 8271   9.964   3.131  11.428
 4753W        W 8272   4.948   3.173   8.571
 4754W        W 8273   8.294   0.051   3.436
 4755W        W 8274   5.496   3.874   8.824
 4756W        W 8275   0.831   1.714   0.268
 4757W        W 8276   9.451   0.878   0.618
 4758W        W 8277   3.747   6.510   0.417
 4759W        W 8278   4.890   5.598  10.208
 4760W        W 8279   8.460   5.980  11.254
 4761W        W 8280   4.999   4.791  10.186
 4762W        W 8281   9.925   0.258  10.004
 4763W        W 8282   1.303   5.502   1.313
 4764W        W 8283   8.805   7.309   1.258
 4765W        W 8284   1.877   9.351   0.110
 4766W        W 8285   4.817   0.018   2.762
 4767W        W 8286   6.404   2.650   0.215
 4768W        W 8287   0.853   9.066   1.714
 4769W        W 8288   6.309   2.215   0.510
 4770W        W 8289   2.033   9.915   1.248
 4771W        W 8290   9.928   2.155  11.988
 4772W        W 8291   6.654   0.194   2.615
 4773W        W 8292   7.622   5.149   1.538
 4774W        W 8293   1.649   1.158   0.741
 4775W        W 8294   0.973   9.285  11.629
 4776W        W 8295   9.481   5.857  10.091
 4777W        W 8296   1.738   0.647   0.839
 4778W        W 8297   7.045   8.243   3.691
 4779W        W 8298   0.766   3.693   9.332
 4780W        W 8299   5.028   3.443  10.044
 4781W        W 8300   8.514   7.508   3.266
 4782W        W 8301   8.715   0.198   1.360
 4783W        W 8302   6.010   2.343   1.848
 4784W        W 8303   7.272   9.468   2.333
 4785W        W 8304   3.959   6.847   2.467
 4786W        W 8305   0.251   0.928   2.456
 4787W        W 8306   3.125   2.341   0.324
 4788W        W 8307   0.660   3.803   9.822
 4789W        W 8308   5.992   4.602   0.847
 4790W        W 8309   6.794   9.465   1.390
 4791W        W 8310   3.590   7.327   3.164
 4792W        W 8311   8.519   4.842  11.863
 4793W        W 8312   4.088   6.502  10.089
 4794W        W 8313   2.020   2.802   3.449
 4795W        W 8314   0.837   0.490  10.324
 4796W        W 8315   2.276   1.955   2.078
 4797W        W 8316   7.570   3.380  10.059
 4798W        W 8317   8.495   4.116  10.804
 4799W        W 8318   9.904   7.226   2.434
 4800W        W 8319   8.497   8.975   0.667
 4801W        W 8320   7.646   8.989  10.009
 4802W        W 8321   8.497   0.776   2.189
 4803W        W 8322   1.180   1.954   2.566
 4804W        W 8323   9.000   3.604  11.446
 4805W        W 8324   9.863   4.572   1.719
 4806W        W 8325   2.033   4.588   4.106
 4807W        W 8326   0.505   1.637   1.907
 4808W        W 8327   9.085   2.608   1.529
 4809W        W 8328   8.755   1.938   0.795
 4810W        W 8329   6.602   6.299   8.024
 4811W        W 8330   4.703   0.826   0.204
 4812W        W 8331   5.913   0.875  10.879
 4813W        W 8332   3.936   7.961   1.092
 4814W        W 8333   1.635   1.657   0.610
 4815W        W 8334   5.923   7.928   8.831
 4816W        W 8335   0.671   1.065   2.704
 4817W        W 8336   8.986   0.623   0.701
 4818W        W 8337   0.343   9.506   3.602
 4819W        W 8338   6.306   1.179   9.233
 4820W        W 8339   2.466   6.351   2.131
 4821W        W 8340   8.528   4.235   9.768
 4822W        W 8341   2.842   2.421   2.781
 4823W        W 8342   5.251   9.077   3.616
 4824W        W 8343   1.634   6.618   9.222
 4825W        W 8344   5.176   1.577   0.943
 4826W        W 8345   8.393   6.223   9.242
 4827W        W 8346   0.308   3.122   9.151
 4828W        W 8347   7.444   9.984   2.310
 4829W        W 8348   4.880   0.160  10.940
 4830W        W 8349   3.989   7.526   0.800
 4831W        W 8350   5.666   1.988   8.758
 4832W        W 8351   3.561   2.164   1.316
 4833W        W 8352   8.072   6.722   0.807
 4834W        W 8353   5.784   1.945   9.624
 4835W        W 8354   3.675   1.035   9.604
 4836W        W 8355   4.778   8.903  11.934
 4837W        W 8356   3.179   3.361   0.558
 4838W        W 8357   4.754   4.427   1.734
 4839W        W 8358   2.904   4.747   9.964
 4840W        W 8359   5.677   8.816  10.560
 4841W        W 8360   4.913   4.878   1.581
 4842W        W 8361   9.562   1.418   9.137
 4843W        W 8362   2.286   9.455   2.632
 4844W        W 8363   9.341   2.762   8.994
 4845W        W 8364   6.455   3.830  11.517
 4846W        W 8365   9.295   7.703   1.819
 4847W        W 8366   7.485   8.586   3.175
 4848W        W 8367   8.989   2.308   0.520
 4849W        W 8368   6.142   6.216  11.539
 4850W        W 8369   0.681   7.794   1.014
 4851W        W 8370   0.352   7.131   0.243
 4852W        W 8371   6.421   2.039  11.575
 4853W        W 8372   1.253   0.969   1.007
 4854W        W 8373   8.948   0.360   1.798
 4855W        W 8374   5.290   2.947   8.251
 4856W        W 8375   9.342   5.999   8.736
 4857W        W 8376   9.545   9.006   1.557
 4858W        W 8377   1.368   8.815   8.996
 4859W        W 8378   8.025   3.666  11.452
 4860W        W 8379   3.408   6.010  11.586
 4861W        W 8380   3.568   5.568   2.354
 4862W        W 8381   1.022   7.456  11.178
 4863W        W 8382   4.413   9.138   0.663
 4864W        W 8383   0.672   0.009  11.211
 4865W        W 8384   1.626   6.768  11.484
 4866W        W 8385   1.780   0.342   1.259
 4867W        W 8386   3.969   6.782  11.077
 4868W        W 8387   2.286   9.164   9.895
 4869W        W 8388   7.087   7.175  10.966
 4870W        W 8389   1.372   5.824   0.377
 4871W        W 8390   8.213   6.514   2.718
 4872W        W 8391   7.112   2.378  10.371
 4873W        W 8392   1.202   1.693   3.032
 4874W        W 8393   4.019   2.853   1.439
 4875W        W 8394   2.799   2.065  10.368
 4876W        W 8395   2.718   7.315   2.292
 4877W        W 8396   2.823   9.927   3.156
 4878W        W 8397   3.450   1.229   2.148
 4879W        W 8398   5.028   5.287  11.381
 4880W        W 8399   5.033   6.560   1.159
 4881W        W 8400   8.633   9.698   3.572
 4882W        W 8401   0.444   8.908   3.410
 4883W        W 8402   1.690   8.451  10.191
 4884W        W 8403   8.089   1.146  11.928
 4885W        W 8404   0.140   5.299   2.203
 4886W        W 8405   3.728   2.266   9.964
 4887W        W 8406   7.592   4.379  10.961
 4888W        W 8407   6.557   0.500   0.768
 4889W        W 8408   4.063   9.514  11.033
 4890W        W 8409   8.425   2.203   0.231
 4891W        W 8410   4.642   0.939  11.271
 4892W        W 8411   7.705   1.839   9.039
 4893W        W 8412   5.554   6.016   2.755
 4894W        W 8413   5.807   4.318  10.051
 4895W        W 8414   4.385   6.690  11.342
 4896W        W 8415   9.970   7.334   0.551
 4897W        W 8416   6.451   0.367   0.270
 4898W        W 8417   9.060   9.228   9.769
 4899W        W 8418   5.584   1.470  11.625
 4900W        W 8419   9.972   4.396   3.551
 4901W        W 8420   6.995   5.631   3.565
 4902W        W 8421   5.112   2.575  11.762
 4903W        W 8422   1.416   5.506   1.833
 4904W        W 8423   6.929   6.159  11.086
 4905W        W 8424   2.243   4.884   0.501
 4906W        W 8425   5.214   3.779   9.673
 4907W        W 8426   9.790   8.965  10.316
 4908W        W 8427   6.580   6.531  11.506
 4909W        W 8428   2.869   0.246   8.861
 4910W        W 8429   1.843   4.259   0.028
 4911W        W 8430   0.969   0.579  11.196
 4912W        W 8431   3.013   2.629   9.659
 4913W        W 8432   6.893   3.388   1.307
 4914W        W 8433   7.245   8.529  10.345
 4915W        W 8434   8.413   1.951   9.758
 4916W        W 8435   7.290   7.607   9.095
 4917W        W 8436   1.284   8.062   9.710
 4918W        W 8437   1.387   5.053  10.013
 4919W        W 8438   2.186   1.272   8.995
 4920W        W 8439   0.202   2.753   0.944
 4921W        W 8440   0.211   8.023   3.274
 4922W        W 8441   1.964   5.533   3.526
 4923W        W 8442   3.417   9.075  11.247
 4924W        W 8443   9.064   5.581   9.962
 4925W        W 8444   0.923   9.371   2.890
 4926W        W 8445   5.167   6.559   9.184
 4927W        W 8446   9.942   8.566   2.373
 4928W        W 8447   4.411   6.967   3.927
 4929W        W 8448   2.807   8.200   0.664
 4930W        W 8449   5.610   7.662   3.292
 4931W        W 8450   0.763   8.509   3.235
 4932W        W 8451   4.760   1.347   2.460
 4933W        W 8452   3.785   5.083   2.526
 4934W        W 8453   8.969   8.775   0.517
 4935W        W 8454   2.893   5.540   0.445
 4936W        W 8455   8.469   9.418   1.901
 4937W        W 8456   3.687   7.157   0.995
 4938W        W 8457   7.670   8.442   0.675
 4939W        W 8458   4.212   8.073  11.764
 4940W        W 8459   0.461   2.186   8.976
 4941W        W 8460   5.140   6.047   9.479
 4942W        W 8461   1.145   7.428   1.988
 4943W        W 8462   4.132   9.883   9.174
 4944W        W 8463   0.435   6.676   3.074
 4945W        W 8464   7.997   6.100  11.357
 4946W        W 8465   3.525   5.126  11.341
 4947W        W 8466   3.843   0.963   1.740
 4948W        W 8467   8.428   2.516   2.896
 4949W        W 8468   6.318   8.368   2.958
 4950W        W 8469   3.898   8.597   2.608
 4951W        W 8470   2.179   8.653   1.274
 4952W        W 8471   5.661   5.120   2.598
 4953W        W 8472   7.022   7.342   2.008
 4954W        W 8473   1.480   3.306   0.579
 4955W        W 8474   8.487   1.108  11.221
 4956W        W 8475   9.067   3.508   2.432
 4957W        W 8476   9.544   9.511   0.429
 4958W        W 8477   6.637   2.662   2.305
 4959W        W 8478   9.893   8.459   1.864
 4960W        W 8479   4.610   9.761   3.490
 4961W        W 8480   4.632   1.915   2.268
 4962W        W 8481   6.128   7.886   2.159
 4963W        W 8482   3.054   4.297  10.102
 4964W        W 8483   4.711   6.350   8.606
 4965W        W 8484   1.395   5.354  10.585
 4966W        W 8485   1.300   9.768   9.028
 4967W        W 8486   7.153   2.047   9.554
 4968W        W 8487   2.020   5.626  10.048
 4969W        W 8488   4.106   5.586  10.900
 4970W        W 8489   5.332   3.412   1.293
 4971W        W 8490   3.697   8.545   0.375
 4972W        W 8491   7.825   2.153   1.747
 4973W        W 8492   2.368   3.311  10.605
 4974W        W 8493   4.110   3.349   3.492
 4975W        W 8494   2.751   3.811   1.355
 4976W        W 8495   5.126   8.252   2.959
 4977W        W 8496   8.953   2.734  11.691
 4978W        W 8497   6.125   8.903   2.185
 4979W        W 8498   3.249   5.132  10.907
 4980W        W 8499   8.815   4.948   2.637
 4981W        W 8500   5.790   5.456  11.466
 4982W        W 8501   0.749   3.796   2.135
 4983W        W 8502   9.725   1.932  10.288
 4984W        W 8503   6.564   6.524   9.565
 4985W        W 8504   6.352   0.245  10.240
 4986W        W 8505   1.702   7.926   9.460
 4987W        W 8506   1.634   0.280  11.862
 4988W        W 8507   8.971   6.860   9.946
 4989W        W 8508   8.969   8.267  11.845
 4990W        W 8509   3.778   1.124   2.572
 4991W        W 8510   7.438   6.160   4.136
 4992W        W 8511   5.214   4.164   0.818
 4993W        W 8512   0.451   9.643   3.079
 4994W        W 8513   8.644   9.973  10.163
 4995W        W 8514   6.441   7.074   1.212
 4996W        W 8515   1.761   7.572   0.289
 4997W        W 8516   6.274   1.918   9.790
 4998W        W 8517   7.128   2.319   0.086
 4999W        W 8518   0.912   3.399  11.455
 5000W        W 8519   1.385   9.866   3.419
 5001W        W 8520   1.733   5.914   1.772
 5002W        W 8521   1.700   1.757   0.085
 5003W        W 8522   7.603   6.788   1.662
 5004W        W 8523   7.112   0.741  10.294
 5005W        W 8524   8.189   5.878   2.051
 5006W        W 8525   9.805   7.196  10.345
 5007W        W 8526   9.722   6.184   1.088
 5008W        W 8527   6.097   5.137   2.877
 5009W        W 8528   3.762   6.537   1.788
 5010W        W 8529   8.322   3.195  10.444
 5011W        W 8530   5.820   4.474  11.187
 5012W        W 8531   8.048   1.866   9.417
 5013W        W 8532   1.373   7.593  10.472
 5014W        W 8533   1.211   8.723   1.568
 5015W        W 8534   1.436   5.439   0.691
 5016W        W 8535   7.394   8.064  10.499
 5017W        W 8536   3.615   9.546  11.315
 5018W        W 8537   8.758   2.148  10.081
 5019W        W 8538   9.466   6.005   2.549
 5020W        W 8539   0.329   8.418   1.608
 5021W        W 8540   0.788   5.356   1.265
 5022W        W 8541   6.703   1.387   0.411
 5023W        W 8542   5.296   0.232   2.724
 5024W        W 8543   4.639   8.798  11.007
 5025W        W 8544   0.298   2.445   2.369
 5026W        W 8545   2.108   3.569   9.423
 5027W        W 8546   9.384   5.008   1.046
 5028W        W 8547   5.943   6.078   0.048
 5029W        W 8548   0.455   3.682   1.749
 5030W        W 8549   1.820   7.193   1.327
 5031W        W 8550   0.183   7.229   1.358
 5032W        W 8551   1.095   0.216  11.974
 5033W        W 8552   4.171   0.816   2.834
 5034W        W 8553   7.924   7.174   1.717
 5035W        W 8554   6.924   6.014   4.141
 5036W        W 8555   2.538   5.098   3.215
 5037W        W 8556   3.123   4.371   8.118
 5038W        W 8557   9.205   2.256   3.196
 5039W        W 8558   5.171   2.556   0.721
 5040W        W 8559   6.821   6.960   3.802
 5041W        W 8560   0.709   5.280  10.765
 5042W        W 8561   5.098   1.063   2.803
 5043W        W 8562   4.907   6.777   4.016
 5044W        W 8563   0.153   3.454   0.708
 5045W        W 8564   8.007   4.259  10.192
 5046W        W 8565   5.282   6.991   9.493
 5047W        W 8566   8.045   3.467   2.323
 5048W        W 8567   6.459   9.724  11.459
 5049W        W 8568   5.846   9.996   8.908
 5050W        W 8569   9.373   6.888   2.107
 5051W        W 8570   9.238   7.878   2.331
 5052W        W 8571   2.135   6.920   3.509
 5053W        W 8572   4.279   6.496   1.832
 5054W        W 8573   5.368   2.259   2.591
 5055W        W 8574   6.052   5.491   1.377
 5056W        W 8575   7.138   7.553  11.638
 5057W        W 8576   0.993   0.004   1.812
 5058W        W 8577   7.300   6.071   9.039
 5059W        W 8578   8.741   9.400   3.174
 5060W        W 8579   3.866   8.980  11.491
 5061W        W 8580   9.568   7.520   0.292
 5062W        W 8581   1.917   6.451  10.851
 5063W        W 8582   1.302   9.853  10.575
 5064W        W 8583   7.895   9.283   9.548
 5065W        W 8584   8.352   6.321   0.890
 5066W        W 8585   3.187   8.037   2.316
 5067W        W 8586   5.914   1.013  10.383
 5068W        W 8587   1.644   2.769   1.171
 5069W        W 8588   2.692   9.332   9.254
 5070W        W 8589   3.299   4.678   9.665
 5071W        W 8590   5.187   7.886   2.610
 5072W        W 8591   2.247   5.979   3.490
 5073W        W 8592   6.564   9.257  10.398
 5074W        W 8593   6.458   2.445   2.769
 5075W        W 8594   1.313   8.464   2.369
 5076W        W 8595   6.499   5.098   2.545
 5077W        W 8596   0.815   4.411   3.227
 5078W        W 8597   5.834   4.908   2.172
 5079W        W 8598   7.843   2.610   9.887
 5080W        W 8599   6.070   9.456  10.349
 5081W        W 8600   7.873   3.462  10.468
 5082W        W 8601   2.521   2.638   3.342
 5083W        W 8602   9.556   6.759   0.258
 5084W        W 8603   7.763   5.630   2.394
 5085W        W 8604   3.465   0.991   3.520
 5086W        W 8605   9.448   4.340   0.065
 5087W        W 8606   5.612   8.463   3.108
 5088W        W 8607   8.338   7.045   2.040
 5089W        W 8608   8.702   9.249   2.330
 5090W        W 8609   3.545   8.274   2.781
 5091W        W 8610   8.706   2.922   9.625
 5092W        W 8611   3.171   2.961   0.895
 5093W        W 8612   4.814   0.379   9.688
 5094W        W 8613   3.755   7.252  11.053
 5095W        W 8614   4.414   5.507  10.038
 5096W        W 8615   3.552   8.231   1.307
 5097W        W 8616   3.687   5.437   9.416
 5098W        W 8617   1.209   1.935   0.827
 5099W        W 8618   4.288   2.268   9.247
 5100W        W 8619   1.955   1.011   3.083
 5101W        W 8620   9.712   3.590  11.459
 5102W        W 8621   4.537   5.608   0.197
 5103W        W 8622   3.864   8.181  11.411
 5104W        W 8623   8.773   7.045   0.284
 5105W        W 8624   1.121   3.424   3.361
 5106W        W 8625   0.741   0.868   8.568
 5107W        W 8626   9.516   9.401   9.621
 5108W        W 8627   4.047   0.909   3.335
 5109W        W 8628   7.965   8.739   3.064
 5110W        W 8629   7.582   4.371   9.947
 5111W        W 8630   0.512   3.044   0.639
 5112W        W 8631   8.156   6.246   3.571
 5113W        W 8632   0.411   3.356   9.594
 5114W        W 8633   0.921   2.206   8.738
 5115W        W 8634   5.600   8.308   8.769
 5116W        W 8635   1.539   7.426   2.797
 5117W        W 8636   5.834   8.916   9.687
 5118W        W 8637   3.168   4.714   9.175
 5119W        W 8638   8.418   5.717   1.582
 5120W        W 8639   3.994   4.669   2.710
 5121W        W 8640   2.194   6.224   0.442
 5122W        W 8641   6.792   0.590  11.444
 5123W        W 8642   2.922   8.960   0.088
 5124W        W 8643   1.364   0.644   0.082
 5125W        W 8644   9.817   4.863   2.158
 5126W        W 8645   6.343   5.603   2.738
 5127W        W 8646   3.479   0.599   0.314
 5128W        W 8647   2.144   9.204   1.584
 5129W        W 8648   8.645   2.254   1.444
 5130W        W 8649   9.491   5.338  11.427
 5131W        W 8650   4.190   0.852   1.399
 5132W        W 8651   8.455   3.497   0.695
 5133W        W 8652   7.305   0.639   1.557
 5134W        W 8653   9.010   5.878   2.307
 5135W        W 8654   8.575   9.666   0.257
 5136W        W 8655   5.909   3.018   8.805
 5137W        W 8656   0.025   5.467   9.870
 5138W        W 8657   1.052   0.351   9.862
 5139W        W 8658   3.119   6.666   8.183
 5140W        W 8659   8.263   0.648   3.191
 5141W        W 8660   4.471   3.238   0.700
 5142W        W 8661   2.731   5.530  10.988
 5143W        W 8662   1.689   3.178  11.336
 5144W        W 8663   2.134   0.405  11.968
 5145W        W 8664   7.873   3.009   2.191
 5146W        W 8665   5.694   9.807   2.341
 5147W        W 8666   3.498   2.679   1.476
 5148W        W 8667   9.637   9.969   0.236
 5149W        W 8668   8.308   5.102   9.937
 5150W        W 8669   6.163   9.018  10.641
 5151W        W 8670   5.894   6.389  11.113
 5152W        W 8671   0.446   1.561  11.996
 5153W        W 8672   6.171   4.689   0.022
 5154W        W 8673   6.260   4.163   0.688
 5155W        W 8674   9.451   9.290   8.660
 5156W        W 8675   9.433   7.088  11.191
 5157W        W 8676   5.664   1.452   0.588
 5158W        W 8677   4.200   5.059   9.860
 5159W        W 8678   7.701   4.808   8.995
 5160W        W 8679   1.286   7.149   0.168
 5161W        W 8680   2.386   5.241   2.755
 5162W        W 8681   5.421   4.892  10.451
 5163W        W 8682   9.450   5.516   0.684
 5164W        W 8683   2.328   7.893   1.803
 5165W        W 8684   6.711   1.430   8.556
 5166W        W 8685   4.256   6.382   2.715
 5167W        W 8686   6.896   8.751  10.055
 5168W        W 8687   4.218   8.936   2.436
 5169W        W 8688   0.752   6.100  11.842
 5170W        W 8689   9.806   4.629  10.023
 5171W        W 8690   7.633   1.007   2.373
 5172W        W 8691   6.057   2.828   2.140
 5173W        W 8692   7.921   9.419  11.674
 5174W        W 8693   3.744   1.963   2.841
 5175W        W 8694   2.847   5.097  11.269
 5176W        W 8695   3.780   4.176   3.767
 5177W        W 8696   9.011   9.863   1.612
 5178W        W 8697   8.948   8.077  10.765
 5179W        W 8698   8.414   5.185   2.292
 5180W        W 8699   4.492   4.245   9.687
 5181W        W 8700   8.808   3.721   2.045
 5182W        W 8701   5.942   6.937  11.914
 5183W        W 8702   1.051   5.003   0.490
 5184W        W 8703   1.881   7.669  11.263
 5185W        W 8704   3.848   3.010   2.337
 5186W        W 8705   2.943   8.878   3.259
 5187W        W 8706   5.618   7.042   4.050
 5188W        W 8707   5.531   2.633   2.998
 5189W        W 8708   1.776   0.047   2.647
 5190W        W 8709   0.552   3.532   8.900
 5191W        W 8710   8.014   1.206   2.648
 5192W        W 8711   7.660   9.763  10.936
 5193W        W 8712   5.181   3.514   4.034
 5194W        W 8713   3.895   9.892   0.508
 5195W        W 8714   6.953   9.038   9.192
 5196W        W 8715   2.201   3.868   2.770
 5197W        W 8716   7.396   3.617   0.461
 5198W        W 8717   0.006   5.976   1.451
 5199W        W 8718   9.614   1.446   1.684
 5200W        W 8719   6.855   9.773   3.138
 5201W        W 8720   7.883   7.674   1.755
 5202W        W 8721   6.419   7.277  10.991
 5203W        W 8722   1.723   5.402   8.728
 5204W        W 8723   1.820   5.491   1.476
 5205W        W 8724   9.762   8.044   9.058
 5206W        W 8725   1.540   0.172   9.757
 5207W        W 8726   0.695   7.300   1.221
 5208W        W 8727   2.356   4.753   9.812
 5209W        W 8728   2.050   4.067   0.490
 5210W        W 8729   7.191   5.585   8.897
 5211W        W 8730   9.755   0.824  10.838
 5212W        W 8731   8.029   6.125  10.048
 5213W        W 8732   2.200   4.227  10.542
 5214W        W 8733   3.938   5.421  11.409
 5215W        W 8734   1.383   8.428   0.622
 5216W        W 8735   5.521   1.818  10.066
 5217W        W 8736   8.303   2.384  10.056
 5218W        W 8737   9.509   1.426   2.184
 5219W        W 8738   3.769   2.226   0.757
 5220W        W 8739   1.751   1.539   9.112
 5221W        W 8740   3.530   6.228   8.801
 5222W        W 8741   3.072   1.858   8.573
 5223W        W 8742   9.308   6.344  11.402
 5224W        W 8743   0.154   0.640   0.223
 5225W        W 8744   4.568   2.162   3.026
 5226W        W 8745   9.818   9.394   1.796
 5227W        W 8746   8.958   5.116  11.722
 5228W        W 8747   2.181   3.727   0.888
 5229W        W 8748   3.516   1.826  10.020
 5230W        W 8749   4.603   9.557   9.359
 5231W        W 8750   6.261   3.762   1.733
 5232W        W 8751   2.266   8.314   3.183
 5233W        W 8752   7.913   2.260   2.682
 5234W        W 8753   5.303   5.005   1.254
 5235W        W 8754   4.203   5.471   9.559
 5236W        W 8755   4.204   4.582  10.112
 5237W        W 8756   9.352   9.920   1.202
 5238W        W 8757   5.499   2.357   1.053
 5239W        W 8758   2.657   0.489  10.286
 5240W        W 8759   8.513   5.488  11.277
 5241W        W 8760   4.922   7.063  11.896
 5242W        W 8761   6.037   1.783   3.154
 5243W        W 8762   3.961   0.353   0.311
 5244W        W 8763   9.035   5.380   1.157
 5245W        W 8764   1.665   6.196  11.217
 5246W        W 8765   0.415   3.033  11.707
 5247W        W 8766   9.120   9.467   9.288
 5248W        W 8767   3.071   0.382   2.486
 5249W        W 8768   4.998   6.318   3.155
 5250W        W 8769   6.495   3.623   9.231
 5251W        W 8770   1.543   2.986   3.543
 5252W        W 8771   1.683   8.078  10.994
 5253W        W 8772   3.200   5.600  10.683
 5254W        W 8773   8.566   3.378   2.335
 5255W        W 8774   1.400   6.979   1.133
 5256W        W 8775   9.181   4.190   2.023
 5257W        W 8776   1.273   3.092   1.716
 5258W        W 8777   4.182   9.387   9.051
 5259W        W 8778   8.303   7.521   1.280
 5260W        W 8779   3.490   8.194   9.342
 5261W        W 8780   3.109   5.786   8.392
 5262W        W 8781   5.375   6.564   4.088
 5263W        W 8782   6.774   4.037  11.848
 5264W        W 8783   0.699   7.071   1.764
 5265W        W 8784   7.709   5.615   0.435
 5266W        W 8785   2.160   0.908   0.042
 5267W        W 8786   0.055   2.837  10.866
 5268W        W 8787   8.700   9.438   8.872
 5269W        W 8788   5.943   4.029   2.091
 5270W        W 8789   7.628   6.522   0.620
 5271W        W 8790   2.746   7.700   2.656
 5272W        W 8791   5.705   9.311   2.187
 5273W        W 8792   1.325   6.107  10.018
 5274W        W 8793   1.191   6.718  11.817
 5275W        W 8794   3.248   6.654   8.863
 5276W        W 8795   2.695   5.662   2.755
 5277W        W 8796   3.486   8.061   8.849
 5278W        W 8797   8.080   5.660  10.967
 5279W        W 8798   9.371   6.168   9.220
 5280W        W 8799   4.944   1.840   0.242
 5281W        W 8800   7.729   7.324   2.841
 5282W        W 8801   2.689   4.240  11.880
 5283W        W 8802   8.780   3.927   2.643
 5284W        W 8803   4.958   9.222  11.016
 5285W        W 8804   0.269   8.521   3.100
 5286W        W 8805   6.464   4.131   2.107
 5287W        W 8806   4.040   4.347  11.522
 5288W        W 8807   1.414   9.720   1.788
 5289W        W 8808   8.314   3.071   2.644
 5290W        W 8809   3.311   1.860   1.687
 5291W        W 8810   8.426   3.068   8.472
 5292W        W 8811   8.427   4.421   1.850
 5293W        W 8812   7.526   6.406   8.720
 5294W        W 8813   0.731   4.506   1.409
 5295W        W 8814   1.148   8.036  10.208
 5296W        W 8815   2.260   2.930  10.944
 5297W        W 8816   4.298   3.639  11.102
 5298W        W 8817   3.522   0.111   0.173
 5299W        W 8818   5.196   4.101  11.069
 5300W        W 8819   4.520   1.367  11.556
 5301W        W 8820   9.133   2.219   9.675
 5302W        W 8821   1.832   6.251   8.904
 5303W        W 8822   5.473   3.339   9.846
 5304W        W 8823   6.644   2.689  10.959
 5305W        W 8824   6.059   4.953   0.451
 5306W        W 8825   3.188   1.223   3.112
 5307W        W 8826   4.983   8.570   9.518
 5308W        W 8827   0.717   1.674  10.343
 5309W        W 8828   8.857   3.239   0.446
 5310W        W 8829   8.086   9.769   2.806
 5311W        W 8830   9.878   3.382  10.962
 5312W        W 8831   0.011   8.826   1.508
 5313W        W 8832   1.168   8.017  10.730
 5314W        W 8833   0.857   8.409  11.109
 5315W        W 8834   3.694   9.990   1.978
 5316W        W 8835   3.220   2.006  10.904
 5317W        W 8836   4.075   0.906   9.009
 5318W        W 8837   0.059   1.011  10.478
 5319W        W 8838   4.083   5.806  10.341
 5320W        W 8839   9.734   6.992   1.451
 5321W        W 8840   4.324   1.166   0.468
 5322W        W 8841   1.620   7.229  11.241
 5323W        W 8842   8.377   0.256   2.267
 5324W        W 8843   6.146   6.405   0.425
 5325W        W 8844   9.024   2.173   1.784
 5326W        W 8845   8.198   1.945  11.776
 5327W        W 8846   4.988   4.338  11.503
 5328W        W 8847   0.275   2.352   0.316
 5329W        W 8848   2.072   2.055   3.730
 5330W        W 8849   4.836   5.538   9.530
 5331W        W 8850   3.716   9.539   1.516
 5332W        W 8851   9.197   1.874  11.891
 5333W        W 8852   3.875   6.337   4.424
 5334W        W 8853   2.676   7.512   0.221
 5335W        W 8854   1.385   0.851  11.369
 5336W        W 8855   2.710   2.933  11.248
 5337W        W 8856   2.589   8.021   9.400
 5338W        W 8857   2.186   3.467  11.906
 5339W        W 8858   9.145   7.440   0.006
 5340W        W 8859   4.599   3.169  11.671
 5341W        W 8860   3.606   7.393   0.083
 5342W        W 8861   8.114   7.597  10.697
 5343W        W 8862   8.665   6.504  10.141
 5344W        W 8863   3.933   5.405   4.123
 5345W        W 8864   0.990   9.324   9.003
 5346W        W 8865   0.864   2.602  11.117
 5347W        W 8866   4.182   6.327  11.657
 5348W        W 8867   5.057   8.786   2.215
 5349W        W 8868   6.231   4.542   8.698
 5350W        W 8869   1.740   6.665  10.396
 5351W        W 8870   6.768   8.462   0.900
 5352W        W 8871   4.635   8.392  11.893
 5353W        W 8872   8.912   4.604   1.812
 5354W        W 8873   2.342   0.782   1.723
 5355W        W 8874   4.508   5.447   9.134
 5356W        W 8875   8.414   5.844   0.720
 5357W        W 8876   2.438   0.334  11.291
 5358W        W 8877   5.763   6.884   8.090
 5359W        W 8878   7.949   9.084   3.458
 5360W        W 8879   8.972   6.667  10.835
 5361W        W 8880   5.640   2.666  10.836
 5362W        W 8881   6.532   6.552  10.585
 5363W        W 8882   3.338   7.544  10.712
 5364W        W 8883   3.200   4.272   2.346
 5365W        W 8884   7.359   9.712   3.212
 5366W        W 8885   8.537   2.329  11.751
 5367W        W 8886   8.919   1.752   9.798
 5368W        W 8887   3.524   5.021   8.611
 5369W        W 8888   2.298   2.623   9.967
 5370W        W 8889   0.913   7.535   3.504
 5371W        W 8890   8.373   0.864   2.718
 5372W        W 8891   2.960   9.961   1.003
 5373W        W 8892   1.926   0.472   9.970
 5374W        W 8893   1.253   4.639   2.405
 5375W        W 8894   5.979   3.199  11.810
 5376W        W 8895   4.904   6.226   4.058
 5377W        W 8896   5.964   2.268   0.864
 5378W        W 8897   7.505   3.542   3.023
 5379W        W 8898   2.634   2.913   1.044
 5380W        W 8899   1.434   0.760   1.840
 5381W        W 8900   2.516   1.028   0.379
 5382W        W 8901   3.256   1.489   8.892
 5383W        W 8902   1.789   4.718   9.938
 5384W        W 8903   0.042   1.708  11.741
 5385W        W 8904   6.127   6.010  10.760
 5386W        W 8905   8.220   8.573  11.427
 5387W        W 8906   1.466   0.850  10.849
 5388W        W 8907   6.864   9.046   0.427
 5389W        W 8908   0.094   4.797  11.425
 5390W        W 8909   0.424   5.892  11.315
 5391W        W 8910   2.580   1.300   1.919
 5392W        W 8911   6.678   6.432  10.086
 5393W        W 8912   6.716   3.889   0.806
 5394W        W 8913   6.665   5.234   3.561
 5395W        W 8914   6.669   9.844  10.991
 5396W        W 8915   4.537   5.848   8.821
 5397W        W 8916   2.221   5.610   2.421
 5398W        W 8917   7.023   0.708   9.498
 5399W        W 8918   0.326   3.311   2.719
 5400W        W 8919   6.517   2.245   8.670
 5401W        W 8920   6.956   6.228   0.972
 5402W        W 8921   6.185   1.877  10.276
 5403W        W 8922   9.364   9.233   0.017
 5404W        W 8923   6.781   5.930  10.221
 5405W        W 8924   2.169   4.312  10.019
 5406W        W 8925   6.686   5.796   0.832
 5407W        W 8926   8.926   5.996  11.456
 5408W        W 8927   6.622   7.983   3.063
 5409W        W 8928   6.490   0.674   1.282
 5410W        W 8929   2.944   3.277  10.936
 5411W        W 8930   2.321   9.276  10.894
 5412W        W 8931   1.278   6.244   0.610
 5413W        W 8932   7.725   2.674   3.411
 5414W        W 8933   1.662   3.220   2.466
 5415W        W 8934   1.732   1.240   2.244
 5416W        W 8935   5.563   4.467   1.118
 5417W        W 8936   2.044   6.437  11.939
 5418W        W 8937   0.885   8.857   9.195
 5419W        W 8938   8.041   5.623   9.934
 5420W        W 8939   6.951   8.250   8.570
 5421W        W 8940   5.338   1.039  11.551
 5422W        W 8941   5.034   1.697   9.957
 5423W        W 8942   9.447   1.437   2.722
 5424W        W 8943   5.954   0.507  10.373
 5425W        W 8944   8.438   9.728   2.403
 5426W        W 8945   1.239   2.569   3.387
 5427W        W 8946   9.464   6.504  10.794
 5428W        W 8947   6.052   7.947  11.222
 5429W        W 8948   2.299   7.933   2.791
 5430W        W 8949   1.263   1.306   9.142
 5431W        W 8950   5.276   1.978   9.578
 5432W        W 8951   5.728   8.121   9.420
 5433W        W 8952   6.487   2.033   3.087
 5434W        W 8953   1.203   8.952   2.551
 5435W        W 8954   3.531   4.979   3.464
 5436W        W 8955   2.631   6.302   2.694
 5437W        W 8956   9.017   4.183   9.590
 5438W        W 8957   3.365   4.717  10.183
 5439W        W 8958   2.651   9.194   2.379
 5440W        W 8959   2.255   2.173   9.596
 5441W        W 8960   2.708   7.422   0.713
 5442W        W 8961   0.212   1.720   8.911
 5443W        W 8962   5.419   1.453   2.692
 5444W        W 8963   9.206   1.818   1.018
 5445W        W 8964   5.440   1.826   0.304
 5446W        W 8965   6.153   2.330  10.532
 5447W        W 8966   1.532   8.335   9.189
 5448W        W 8967   9.177   6.647   0.676
 5449W        W 8968   0.041   4.800   8.773
 5450W        W 8969   1.889   4.689   9.079
 5451W        W 8970   9.459   2.223   0.262
 5452W        W 8971   0.576   4.655  11.421
 5453W        W 8972   7.762   9.236   1.297
 5454W        W 8973   6.528   1.316  11.021
 5455W        W 8974   0.112   2.880   9.603
 5456W        W 8975   4.651   6.390   8.095
 5457W        W 8976   2.843   6.842  10.252
 5458W        W 8977   3.212   8.754   0.471
 5459W        W 8978   3.657   7.026   1.964
 5460W        W 8979   7.981   4.150   9.701
 5461W        W 8980   2.118   8.343   1.725
 5462W        W 8981   9.474   4.782   3.532
 5463W        W 8982   9.993   3.264   9.909
 5464W        W 8983   2.665   7.164   1.154
 5465W        W 8984   0.027   4.255   0.148
 5466W        W 8985   4.346   5.445  11.748
 5467W        W 8986   8.915   4.624  11.543
 5468W        W 8987   9.618   6.580   3.252
 5469W        W 8988   4.737   3.377   2.465
 5470W        W 8989   2.351   2.786   1.744
 5471W        W 8990   1.883   9.172   0.594
 5472W        W 8991   9.089   1.738  11.401
 5473W        W 8992   5.501   5.978   0.869
 5474W        W 8993   9.846   2.509   0.677
 5475W        W 8994   9.768   5.730   8.608
 5476W        W 8995   9.967   1.081   1.792
 5477W        W 8996   0.348   1.400  10.560
 5478W        W 8997   7.662   7.550  11.660
 5479W        W 8998   2.639   8.494   1.489
 5480W        W 8999   3.948   1.341   2.102
 5481W        W 9000   6.069   8.066  10.214
 5482W        W 9001   1.195   5.138   2.176
 5483W        W 9002   7.093   1.524   9.751
 5484W        W 9003   9.922   4.251   0.781
 5485W        W 9004   1.178   4.025  10.036
 5486W        W 9005   9.857   2.269   2.617
 5487W        W 9006   5.269   5.162   9.662
 5488W        W 9007   6.094   7.945   1.487
 5489W        W 9008   8.126   5.919   0.286
 5490W        W 9009   8.967   0.898   2.038
 5491W        W 9010   4.129   8.812   9.831
 5492W        W 9011   9.510   8.371   3.658
 5493W        W 9012   9.824   1.298  11.981
 5494W        W 9013   2.050   6.489   0.873
 5495W        W 9014   5.584   4.404   8.934
 5496W        W 9015   5.120   0.176  10.041
 5497W        W 9016   9.476   3.596   2.134
 5498W        W 9017   0.892   5.631   1.759
 5499W        W 9018   9.023   7.489   3.133
 5500W        W 9019   5.734   1.825  11.251
 5501W        W 9020   0.752   2.430   1.472
 5502W        W 9021   6.178   5.715   9.600
 5503W        W 9022   5.956   1.492   8.952
 5504W        W 9023   9.847   0.855   2.789
 5505W        W 9024   6.356   3.825   8.781
 5506W        W 9025   9.341   4.420   3.875
 5507W        W 9026   8.884   7.972   9.219
 5508W        W 9027   7.097   0.945   0.293
 5509W        W 9028   3.764   9.514   3.179
 5510W        W 9029   9.933   8.152   8.577
 5511W        W 9030   1.097   7.475   2.503
 5512W        W 9031   5.177   1.916   3.360
 5513W        W 9032   8.458   7.062   3.500
 5514W        W 9033   3.160   4.395  11.545
 5515W        W 9034   4.503   3.841   0.210
 5516W        W 9035   7.470   1.308   1.980
 5517W        W 9036   0.354   5.233   8.829
 5518W        W 9037   7.391   5.696  11.977
 5519W        W 9038   9.038   0.413  11.013
 5520W        W 9039   9.007   5.807   1.462
 5521W        W 9040   3.482   1.946   0.405
 5522W        W 9041   8.355   7.086   0.541
 5523W        W 9042   4.181   7.944  10.471
 5524W        W 9043   0.020   2.209   9.969
 5525W        W 9044   8.168   0.565  10.875
 5526W        W 9045   5.221   8.736   0.739
 5527W        W 9046   7.094   1.650   0.766
 5528W        W 9047   7.874   1.127   1.689
 5529W        W 9048   6.405   4.645  10.365
 5530W        W 9049   6.923   6.301   9.301
 5531W        W 9050   0.181   7.319  10.650
 5532W        W 9051   4.002   7.414   1.320
 5533W        W 9052   9.678   2.866  10.550
 5534W        W 9053   9.802   5.210   3.716
 5535W        W 9054   9.499   5.197  10.924
 5536W        W 9055   5.284   4.464  11.908
 5537W        W 9056   8.369   9.812  11.665
 5538W        W 9057   5.250   9.756   0.829
 5539W        W 9058   0.401   9.923   8.983
 5540W        W 9059   3.741   9.746   8.451
 5541W        W 9060   6.624   4.211   8.558
 5542W        W 9061   1.489   9.365   8.775
 5543W        W 9062   6.011   5.157  11.850
 5544W        W 9063   7.740   1.595  11.151
 5545W        W 9064   7.569   5.381   9.718
 5546W        W 9065   3.476   2.533  11.418
 5547W        W 9066   7.825   8.450   1.280
 5548W        W 9067   6.126   4.194   2.551
 5549W        W 9068   4.173   6.960   2.016
 5550W        W 9069   9.338   3.882   9.819
 5551W        W 9070   5.352   0.274  10.865
 5552W        W 9071   6.620   4.639   2.252
 5553W        W 9072   5.927   8.581   2.734
 5554W        W 9073   2.395   5.738   0.463
 5555W        W 9074   5.787   4.309  11.912
 5556W        W 9075   4.173   0.862  10.069
 5557W        W 9076   3.575   4.613   2.992
 5558W        W 9077   7.304   0.856   9.001
 5559W        W 9078   5.323   8.954   9.590
 5560W        W 9079   1.353   9.877   2.927
 5561W        W 9080   0.124   4.554   9.641
 5562W        W 9081   3.586   6.510   8.363
 5563W        W 9082   2.257   5.194  10.028
 5564W        W 9083   4.346   6.097   1.319
 5565W        W 9084   3.233   7.874   1.420
 5566W        W 9085   6.447   6.329   1.866
 5567W        W 9086   2.462   4.849   0.977
 5568W        W 9087   8.807   5.370   1.630
 5569W        W 9088   7.135   9.735   1.123
 5570W        W 9089   2.389   2.303  10.585
 5571W        W 9090   7.481   8.633   9.063
 5572W        W 9091   2.913   3.131  11.938
 5573W        W 9092   4.385   4.860   0.850
 5574W        W 9093   6.461   0.385  11.762
 5575W        W 9094   3.921   8.510   1.104
 5576W        W 9095   2.478   5.495   3.543
 5577W        W 9096   6.569   8.933   1.957
 5578W        W 9097   1.090   1.204   3.471
 5579W        W 9098   8.689   2.821  10.545
 5580W        W 9099   3.645   4.930   1.264
 5581W        W 9100   7.319   5.191  10.898
 5582W        W 9101   7.414   3.508  11.441
 5583W        W 9102   2.251   3.274   1.821
 5584W        W 9103   3.201   3.687   1.588
 5585W        W 9104   4.374   1.111  11.957
 5586W        W 9105   7.116   7.297  10.428
 5587W        W 9106   0.889   3.475  10.145
 5588W        W 9107   7.992   7.233   3.330
 5589W        W 9108   0.811   2.017   2.967
 5590W        W 9109   4.042   9.389   0.094
 5591W        W 9110   7.652   6.439   9.891
 5592W        W 9111   8.197   5.160  11.019
 5593W        W 9112   4.458   5.377   0.803
 5594W        W 9113   7.903   2.088   9.935
 5595W        W 9114   3.246   5.438   1.950
 5596W        W 9115   4.174   0.434   3.205
 5597W        W 9116   7.694   2.167   3.537
 5598W        W 9117   7.978   0.231   3.073
 5599W        W 9118   7.324   0.289   9.686
 5600W        W 9119   8.839   3.497   1.545
 5601W        W 9120   8.432   1.230   9.076
 5602W        W 9121   4.786   5.734   0.626
 5603W        W 9122   5.750   3.705   1.729
 5604W        W 9123   9.430   3.318  10.616
 5605W        W 9124   6.472   2.582   9.052
 5606W        W 9125   1.443   7.641  10.968
 5607W        W 9126   4.803   4.865  11.122
 5608W        W 9127   4.276   9.028  11.829
 5609W        W 9128   9.392   2.841   1.979
 5610W        W 9129   5.508   5.388   1.531
 5611W        W 9130   2.732   5.695   0.909
 5612W        W 9131   1.133   2.815   9.486
 5613W        W 9132   4.623   5.002  11.584
 5614W        W 9133   5.514   9.321   2.673
 5615W        W 9134   9.013   8.670   9.921
 5616W        W 9135   3.711   1.757  11.909
 5617W        W 9136   6.998   3.893   1.248
 5618W        W 9137   4.732   8.499   3.149
 5619W        W 9138   6.607   1.167   1.285
 5620W        W 9139   5.301   8.366   9.174
 5621W        W 9140   6.089   2.817   9.270
 5622W        W 9141   9.271   6.705   9.259
 5623W        W 9142   3.107   8.488   2.090
 5624W        W 9143   7.076   1.812   2.343
 5625W        W 9144   5.692   7.051  11.483
 5626W        W 9145   5.810   8.630   1.863
 5627W        W 9146   7.609   8.885   0.941
 5628W        W 9147   6.070   8.427   3.411
 5629W        W 9148   5.913   8.469   9.928
 5630W        W 9149   1.737   3.555   9.069
 5631W        W 9150   9.091   1.766   3.074
 5632W        W 9151   1.085   1.898   3.877
 5633W        W 9152   9.046   0.824  11.359
 5634W        W 9153   0.970   3.775  11.809
 5635W        W 9154   7.284   0.371  10.625
 5636W        W 9155   2.332   8.786   1.761
 5637W        W 9156   5.810   6.080   8.774
 5638W        W 9157   1.144   9.797   2.287
 5639W        W 9158   7.287   8.151   8.981
 5640W        W 9159   4.244   7.485   8.692
 5641W        W 9160   9.051   8.946   1.460
 5642W        W 9161   0.287   5.177   1.171
 5643W        W 9162   0.496   9.816  10.062
 5644W        W 9163   5.196   3.546  11.079
 5645W        W 9164   0.855   4.392   2.666
 5646W        W 9165   1.909   2.167  10.447
 5647W        W 9166   7.112   5.124   9.802
 5648W        W 9167   1.427   6.981   3.096
 5649W        W 9168   2.955   4.554   3.811
 5650W        W 9169   5.963   3.658  10.420
 5651W        W 9170   7.405   4.749  10.644
 5652W        W 9171   7.939   3.072  10.785
 5653W        W 9172   1.248   0.860   8.563
 5654W        W 9173   6.732   8.778   9.575
 5655W        W 9174   6.727   7.717  11.866
 5656W        W 9175   3.746   2.353   3.222
 5657W        W 9176   4.045   0.362  10.198
 5658W        W 9177   2.118   2.338   1.781
 5659W        W 9178   1.719   2.263   9.430
 5660W        W 9179   4.801   5.639   3.283
 5661W        W 9180   3.007   0.871   2.271
 5662W        W 9181   6.958   9.088  10.987
 5663W        W 9182   4.907   2.882   1.345
 5664W        W 9183   1.928   6.786   3.937
 5665W        W 9184   3.389   2.524   9.282
 5666W        W 9185   5.032   9.536   0.417
 5667W        W 9186   1.353   1.735   9.805
 5668W        W 9187   4.494   4.955   8.996
 5669W        W 9188   1.635   9.974  11.388
 5670W        W 9189   0.534   4.218   0.311
 5671W        W 9190   7.272   9.317   1.373
 5672W        W 9191   9.771   2.667   9.276
 5673W        W 9192   0.835   5.873   1.309
 5674W        W 9193   1.426   9.348   0.399
 5675W        W 9194   0.129   6.404   0.805
 5676W        W 9195   9.402   8.300   2.993
 5677W        W 9196   3.707   2.879   2.981
 5678W        W 9197   1.075   6.498   1.011
 5679W        W 9198   9.354   8.232   8.771
 5680W        W 9199   3.760   2.776   1.889
 5681W        W 9200   5.437   4.163   0.299
 5682W        W 9201   7.888   8.323   8.953
 5683W        W 9202   9.427   6.687   9.740
 5684W        W 9203   1.723   1.691  10.626
 5685W        W 9204   2.943   4.789   1.185
 5686W        W 9205   0.757   7.577   1.691
 5687W        W 9206   9.556   4.424   2.372
 5688W        W 9207   3.860   4.578   3.421
 5689W        W 9208   8.072   3.723   0.446
 5690W        W 9209   5.178   7.784   0.518
 5691W        W 9210   5.249   7.766   4.278
 5692W        W 9211   5.231   3.818  10.650
 5693W        W 9212   6.206   7.237   2.199
 5694W        W 9213   7.768   0.403   1.541
 5695W        W 9214   0.860   6.155   2.417
 5696W        W 9215   6.839   4.433   0.843
 5697W        W 9216   3.346   4.534   1.490
 5698W        W 9217   9.424   0.132   1.765
 5699W        W 9218   2.729   6.026   9.785
 5700W        W 9219   2.721   4.604   3.334
 5701W        W 9220   9.683   8.867  10.809
 5702W        W 9221   0.894   5.850   9.835
 5703W        W 9222   5.152   5.685  10.653
 5704W        W 9223   5.230   5.683   9.833
 5705W        W 9224   6.688   5.722   0.341
 5706W        W 9225   1.527   4.825  10.465
 5707W        W 9226   6.937   2.593   1.858
 5708W        W 9227   1.108   9.575   1.393
 5709W        W 9228   7.523   0.500   2.391
 5710W        W 9229   1.769   8.549  11.263
 5711W        W 9230   1.386   9.532  11.380
 5712W        W 9231   7.842   0.547   9.025
 5713W        W 9232   1.863   9.574   0.911
 5714W        W 9233   6.071   5.308   2.382
 5715W        W 9234   1.982   0.964   8.507
 5716W        W 9235   1.736   1.740  11.573
 5717W        W 9236   4.301   9.404   3.224
 5718W        W 9237   2.484   1.264  10.447
 5719W        W 9238   3.198   5.232   1.227
 5720W        W 9239   5.954   9.064   2.640
 5721W        W 9240   6.652   6.234   1.398
 5722W        W 9241   1.931   3.091  10.450
 5723W        W 9242   2.249   9.001   9.317
 5724W        W 9243   5.043   9.387   9.088
 5725W        W 9244   6.166   9.839   9.995
 5726W        W 9245   7.132   6.073   2.812
 5727W        W 9246   2.870   4.605   1.662
 5728W        W 9247   6.007   5.052  11.171
 5729W        W 9248   3.245   2.878   1.911
 5730W        W 9249   0.439   6.924   8.717
 5731W        W 9250   7.140   3.990   0.193
 5732W        W 9251   5.119   6.166  11.564
 5733W        W 9252   7.114   8.447   9.412
 5734W        W 9253   9.809   9.814   9.755
 5735W        W 9254   7.554   6.326  11.299
 5736W        W 9255   1.954   0.515   3.229
 5737W        W 9256   8.781   7.585  10.706
 5738W        W 9257   3.259   6.311   0.191
 5739W        W 9258   1.254   6.021   9.111
 5740W        W 9259   5.517   9.388  11.192
 5741W        W 9260   1.554   1.350   9.555
 5742W        W 9261   0.500   6.425   8.548
 5743W        W 9262   9.513   4.009   1.051
 5744W        W 9263   3.284   6.799   1.686
 5745W        W 9264   5.094   3.197   2.884
 5746W        W 9265   5.017   0.464  10.485
 5747W        W 9266   8.390   2.611   3.404
 5748W        W 9267   3.217   6.393  11.299
 5749W        W 9268   3.080   6.001   3.343
 5750W        W 9269   4.916   3.274   9.064
 5751W        W 9270   3.649   3.958   9.532
 5752W        W 9271   7.947   1.007  11.071
 5753W        W 9272   6.968   9.474   8.851
 5754W        W 9273   6.483   0.842   9.597
 5755W        W 9274   8.900   0.833   9.926
 5756W        W 9275   6.127   7.242   9.547
 5757W        W 9276   6.218   1.513   1.358
 5758W        W 9277   8.481   3.987   0.199
 5759W        W 9278   3.521   8.017  10.822
 5760W        W 9279   3.166   6.887   3.083
 5761W        W 9280   1.284   4.180   3.246
 5762W        W 9281   1.706   4.103   2.951
 5763W        W 9282   2.729   5.501  10.493
 5764W        W 9283   1.354   7.838   1.748
 5765W        W 9284   4.647   2.258   0.133
 5766W        W 9285   7.514   1.416   0.966
 5767W        W 9286   3.596   8.365   2.261
 5768W        W 9287   5.426   0.233   2.239
 5769W        W 9288   2.720   8.214   2.512
 5770W        W 9289   7.708   6.930   8.545
 5771W        W 9290   6.799   2.212   3.447
 5772W        W 9291   1.295   8.501  11.472
 5773W        W 9292   2.524   7.639   1.340
 5774W        W 9293   2.741   8.820  10.954
 5775W        W 9294   9.606   5.855   2.097
 5776W        W 9295   5.908   1.371   2.873
 5777W        W 9296   5.878   8.418   1.420
 5778W        W 9297   0.460   6.792   1.330
 5779W        W 9298   3.895   0.176   9.525
 5780W        W 9299   4.514   6.236   2.258
 5781W        W 9300   9.956   6.402   0.248
 5782W        W 9301   4.657   8.274   9.962
 5783W        W 9302   9.025   9.423  11.059
 5784W        W 9303   2.353   3.622   9.859
 5785W        W 9304   3.397   5.442   3.257
 5786W        W 9305   4.756   8.113   9.485
 5787W        W 9306   6.820   5.141   1.298
 5788W        W 9307   4.265   5.977   9.896
 5789W        W 9308   8.351   5.321  11.771
 5790W        W 9309   5.737   8.870  11.556
 5791W        W 9310   2.762   0.952  10.097
 5792W        W 9311   9.148   6.494   8.811
 5793W        W 9312   6.681   6.241   0.378
 5794W        W 9313   6.434   1.618   3.413
 5795W        W 9314   4.212   4.782   0.366
 5796W        W 9315   7.053   8.801   3.331
 5797W        W 9316   6.468   6.065   9.325
 5798W        W 9317   4.864   2.692   3.693
 5799W        W 9318   6.631   8.030   1.499
 5800W        W 9319   0.174   4.666  10.949
 5801W        W 9320   0.296   4.190  10.028
 5802W        W 9321   4.587   1.410  11.045
 5803W        W 9322   3.555   8.579  11.517
 5804W        W 9323   5.602   2.424  11.922
 5805W        W 9324   5.631   6.518   8.992
 5806W        W 9325   5.504   3.887   1.139
 5807W        W 9326   4.835   4.192   2.781
 5808W        W 9327   0.929   0.162   0.466
 5809W        W 9328   4.348   5.902   2.585
 5810W        W 9329   4.487   3.576   1.204
 5811W        W 9330   0.901   9.474  10.080
 5812W        W 9331   9.347   9.684   2.677
 5813W        W 9332   1.440   0.666   9.900
 5814W        W 9333   3.217   9.959  10.271
 5815W        W 9334   9.465   8.445  11.275
 5816W        W 9335   7.046   3.296  10.756
 5817W        W 9336   9.854   6.122   3.376
 5818W        W 9337   8.469   1.761   2.156
 5819W        W 9338   4.217   1.546   0.140
 5820W        W 9339   3.708   7.567   8.922
 5821W        W 9340   1.268   1.666  10.313
 5822W        W 9341   9.248   4.004   2.482
 5823W        W 9342   7.286   5.274   1.182
 5824W        W 9343   5.544   2.814   3.563
 5825W        W 9344   7.146   6.736  11.899
 5826W        W 9345   2.636   9.894   9.466
 5827W        W 9346   4.645   2.575   2.770
 5828W        W 9347   6.956   3.143  11.753
 5829W        W 9348   1.805   3.752   1.265
 5830W        W 9349   0.861   6.245   2.991
 5831W        W 9350   4.105   9.067   1.961
 5832W        W 9351   6.294   9.973   9.154
 5833W        W 9352   9.735   3.764   9.475
 5834W        W 9353   2.593   8.350   1.992
 5835W        W 9354   4.009   8.986  10.262
 5836W        W 9355   4.275   6.885   2.859
 5837W        W 9356   3.129   4.178  11.017
 5838W        W 9357   0.352   3.149   1.727
 5839W        W 9358   1.772   8.175   3.905
 5840W        W 9359   1.023   2.955  10.055
 5841W        W 9360   7.048   3.193  11.245
 5842W        W 9361   0.876   5.990   0.356
 5843W        W 9362   3.130   3.837   0.397
 5844W        W 9363   0.941   1.104  11.265
 5845W        W 9364   0.878   7.035  10.858
 5846W        W 9365   6.707   7.014  11.338
 5847W        W 9366   6.531   3.332  11.450
 5848W        W 9367   3.481   2.599   2.282
 5849W        W 9368   9.119   4.330   2.921
 5850W        W 9369   8.438   7.426  11.067
 5851W        W 9370   8.245   8.859  10.970
 5852W        W 9371   0.183   8.920  10.801
 5853W        W 9372   4.740   3.484  11.299
 5854W        W 9373   3.773   7.083   9.899
 5855W        W 9374   3.785   5.911  11.250
 5856W        W 9375   5.686   5.975  11.608
 5857W        W 9376   1.230   8.860  11.844
 5858W        W 9377   1.269   1.906  11.511
 5859W        W 9378   2.841   7.096   9.751
 5860W        W 9379   4.719   4.137   3.667
 5861W        W 9380   6.085   9.525   2.510
 5862W        W 9381   8.966   4.108  11.558
 5863W        W 9382   3.490   2.692   9.797
 5864W        W 9383   7.880   3.612   3.351
 5865W        W 9384   0.914   7.725   9.630
 5866W        W 9385   4.746   1.957  10.351
 5867W        W 9386   8.680   6.731   2.858
 5868W        W 9387   3.105   0.621   1.400
 5869W        W 9388   4.619   2.863   9.931
 5870W        W 9389   5.061   0.689  10.012
 5871W        W 9390   7.407   6.787  11.107
 5872W        W 9391   4.399   8.225   1.896
 5873W        W 9392   9.898   6.659  11.780
 5874W        W 9393   1.346   1.704   8.820
 5875W        W 9394   4.261   6.588   8.723
 5876W        W 9395   9.058   3.958   3.586
 5877W        W 9396   2.815   2.627   1.843
 5878W        W 9397   0.928   2.519   2.958
 5879W        W 9398   6.009   3.250   2.953
 5880W        W 9399   6.898   6.872   8.903
 5881W        W 9400   9.846   5.943   9.461
 5882W        W 9401   7.407   8.021  10.002
 5883W        W 9402   9.936   2.071   3.708
 5884W        W 9403   0.294   7.426  10.154
 5885W        W 9404   4.627   6.215  11.352
 5886W        W 9405   4.090   3.580   0.858
 5887W        W 9406   3.088   0.414  10.635
 5888W        W 9407   6.791   1.224   9.447
 5889W        W 9408   5.300   2.382   3.510
 5890W        W 9409   5.624   4.769   0.149
 5891W        W 9410   1.842  10.000  10.157
 5892W        W 9411   5.077   4.583   2.529
 5893W        W 9412   7.322   2.659   9.068
 5894W        W 9413   2.859   0.436   2.980
 5895W        W 9414   0.262   8.967   2.366
 5896W        W 9415   7.945   6.908   1.273
 5897W        W 9416   0.841   1.395   2.207
 5898W        W 9417   0.924   8.447  11.825
 5899W        W 9418   7.290   1.183  11.512
 5900W        W 9419   9.135   6.540  10.360
 5901W        W 9420   2.637   9.726   2.313
 5902W        W 9421   2.740   3.119   1.973
 5903W        W 9422   7.148   5.667   9.895
 5904W        W 9423   3.877   4.740   0.825
 5905W        W 9424   2.409   0.617   9.811
 5906W        W 9425   0.401   0.859   9.352
 5907W        W 9426   0.864   1.218   1.304
 5908W        W 9427   3.981   9.516   9.505
 5909W        W 9428   7.528   8.163   0.262
 5910W        W 9429   2.357   5.115  11.060
 5911W        W 9430   0.186   0.639   8.135
 5912W        W 9431   9.860   2.721  10.063
 5913W        W 9432   6.487   5.473   1.749
 5914W        W 9433   5.004   1.573   9.432
 5915W        W 9434   1.335   0.460   0.569
 5916W        W 9435   9.995   1.620   9.371
 5917W        W 9436   0.594   6.553   9.041
 5918W        W 9437   5.119   4.837  11.587
 5919W        W 9438   7.201   4.853   1.486
 5920W        W 9439   6.536   8.575   8.622
 5921W        W 9440   8.146   2.363   9.559
 5922W        W 9441   1.627   7.157  10.385
 5923W        W 9442   6.237   9.435   2.025
 5924W        W 9443   3.127   8.937   8.746
 5925W        W 9444   5.565   8.024   1.337
 5926W        W 9445   5.733   4.127   0.736
 5927W        W 9446   2.816   9.539   2.774
 5928W        W 9447   1.258   5.953   1.574
 5929W        W 9448   1.865   3.314   0.947
 5930W        W 9449   8.572   6.265   2.989
 5931W        W 9450   3.415   5.254   9.987
 5932W        W 9451   8.878   6.154   9.077
 5933W        W 9452   8.129   4.616   9.188
 5934W        W 9453   8.854   2.765   0.221
 5935W        W 9454   6.268   2.109   3.538
 5936W        W 9455   0.541   5.205  10.099
 5937W        W 9456   3.694   8.772   8.626
 5938W        W 9457   5.568   5.353   2.129
 5939W        W 9458   1.702   4.213   3.569
 5940W        W 9459   9.560   6.990   0.775
 5941W        W 9460   1.350   9.480   0.936
 5942W        W 9461   7.645   5.607   0.940
 5943W        W 9462   0.804   3.300   1.413
 5944W        W 9463   9.189   9.652   3.407
 5945W        W 9464   1.254   6.993   2.621
 5946W        W 9465   3.015   4.160   3.242
 5947W        W 9466   3.518   2.925   8.901
 5948W        W 9467   5.284   1.261   1.416
 5949W        W 9468   4.475   0.224   0.362
 5950W        W 9469   2.213   5.638   3.062
 5951W        W 9470   8.985   8.353   3.272
 5952W        W 9471   6.217   9.096  11.684
 5953W        W 9472   7.131   8.676   1.908
 5954W        W 9473   1.382   4.721   1.918
 5955W        W 9474   3.219   7.074  11.913
 5956W        W 9475   5.951   2.272  10.012
 5957W        W 9476   3.000   7.426   1.438
 5958W        W 9477   1.801   6.583   0.451
 5959W        W 9478   4.213   2.220   3.380
 5960W        W 9479   1.071   0.756   1.439
 5961W        W 9480   8.294   0.652  11.984
 5962W        W 9481   4.029   5.078  11.916
 5963W        W 9482   2.665   5.711   9.296
 5964W        W 9483   4.701   4.420   0.742
 5965W        W 9484   5.737   6.288   1.613
 5966W        W 9485   7.499   0.981   2.867
 5967W        W 9486   1.625   7.391   8.754
 5968W        W 9487   1.902   9.115  11.283
 5969W        W 9488   8.485   8.008   0.582
 5970W        W 9489   3.727   6.279   3.513
 5971W        W 9490   6.705   2.852   0.604
 5972W        W 9491   5.633   2.665   2.384
 5973W        W 9492   4.430   2.743   9.068
 5974W        W 9493   6.587   8.372   3.446
 5975W        W 9494   4.130   6.623   0.079
 5976W        W 9495   3.390   5.675   8.791
 5977W        W 9496   2.635   1.817   9.608
 5978W        W 9497   0.337   2.267   2.882
 5979W        W 9498   5.142   1.939   9.061
 5980W        W 9499   1.862   7.598  10.289
 5981W        W 9500   0.008   1.610   2.141
 5982W        W 9501   3.331   9.903   8.762
 5983W        W 9502   5.885   4.137   9.590
 5984W        W 9503   1.956   6.419   3.567
 5985W        W 9504   5.327   1.512   1.898
 5986W        W 9505   4.604   1.776  11.868
 5987W        W 9506   8.596   0.869   9.410
 5988W        W 9507   0.634   9.139  10.994
 5989W        W 9508   2.743   2.174  10.951
 5990W        W 9509   9.161   4.834  10.730
 5991W        W 9510   5.000   7.864  10.684
 5992W        W 9511   9.399   5.548  10.514
 5993W        W 9512   0.713   3.103  10.451
 5994W        W 9513   5.553   1.673   9.219
 5995W        W 9514   3.219   8.633  11.115
 5996W        W 9515   1.504   4.977  10.947
 5997W        W 9516   9.733   6.142  11.829
 5998W        W 9517   4.854   7.151   3.648
 5999W        W 9518   7.973   0.434   3.580
 6000W        W 9519   3.341   4.324  10.531
 6001W        W 9520   4.447   3.088   8.686
 6002W        W 9521   6.415   9.501  11.953
 6003W        W 9522   2.707   2.271   9.841
 6004W        W 9523   3.157   7.531   2.385
 6005W        W 9524   5.128   8.539  11.792
 6006W        W 9525   9.816   8.868  11.301
 6007W        W 9526   7.630   3.977  11.323
 6008W        W 9527   4.477   4.141  10.212
 6009W        W 9528   6.982   8.282   9.890
 6010W        W 9529   9.782   3.416   1.096
 6011W        W 9530   3.676   9.825   2.779
 6012W        W 9531   8.860   3.833  10.454
 6013W        W 9532   9.958   4.880   3.376
 6014W        W 9533   4.734   9.007   3.107
 6015W        W 9534   8.976   0.344  11.527
 6016W        W 9535   2.720   2.948   9.922
 6017W        W 9536   9.079   3.026  10.893
 6018W        W 9537   9.315   2.311   2.702
 6019W        W 9538   1.449   0.999   3.759
 6020W        W 9539   0.359   8.854   1.888
 6021W        W 9540   9.348   2.293   2.199
 6022W        W 9541   3.653   0.691   8.753
 6023W        W 9542   0.388   2.644   8.702
 6024W        W 9543   8.779   0.668   1.181
 6025W        W 9544   6.223   7.130   1.697
 6026W        W 9545   6.473   2.839   1.849
 6027W        W 9546   8.291   0.505   9.593
 6028W        W 9547   7.177   9.975   0.403
 6029W        W 9548   4.937   2.279  11.306
 6030W        W 9549   4.086   5.309  10.444
 6031W        W 9550   4.941   8.045   3.937
 6032W        W 9551   8.001   6.070   2.513
 6033W        W 9552   9.763   6.662   1.847
 6034W        W 9553   7.811   8.614  10.794
 6035W        W 9554   5.659   6.236   0.447
 6036W        W 9555   5.023   1.697  10.908
 6037W        W 9556   7.106   2.839   2.423
 6038W        W 9557   9.788   4.374  11.228
 6039W        W 9558   8.014   5.781   3.480
 6040W        W 9559   6.770   6.421   2.250
 6041W        W 9560   2.627   8.174   9.888
 6042W        W 9561   4.357   5.559   1.466
 6043W        W 9562   4.462   6.495   4.124
 6044W        W 9563   3.797   1.615  10.410
 6045W        W 9564   3.163   7.228   1.965
 6046W        W 9565   2.590   7.889   8.899
 6047W        W 9566   4.696   8.519   0.798
 6048W        W 9567   2.946   1.598   0.945
 6049W        W 9568   4.053   3.234   0.403
 6050W        W 9569   3.519   2.309   1.848
 6051W        W 9570   0.269   8.610   1.030
 6052W        W 9571   1.217   8.012   0.303
 6053W        W 9572   4.521   4.511  11.428
 6054W        W 9573   2.080   2.855   0.902
 6055W        W 9574   0.013   5.906   2.928
 6056W        W 9575   0.897   4.504  10.406
 6057W        W 9576   4.972   4.193   9.486
 6058W        W 9577   3.267   8.870   1.759
 6059W        W 9578   0.362   8.146   1.203
 6060W        W 9579   2.172   5.876   1.465
 6061W        W 9580   0.932   1.590   9.429
 6062W        W 9581   1.431   2.152   8.578
 6063W        W 9582   4.445   8.778   9.262
 6064W        W 9583   5.540   3.137   3.977
 6065W        W 9584   0.825   8.720   9.673
 6066W        W 9585   0.809   8.233   9.812
 6067W        W 9586   8.774   9.039  11.698
 6068W        W 9587   0.389   3.730   3.110
 6069W        W 9588   4.734   3.804   4.057
 6070W        W 9589   5.715   2.556   8.575
 6071W        W 9590   0.538   9.830   0.457
 6072W        W 9591   2.438   1.710   1.633
 6073W        W 9592   6.509   5.600   8.756
 6074W        W 9593   0.032   4.390   2.167
 6075W        W 9594   0.326   8.098   9.730
 6076W        W 9595   6.929   3.079   1.986
 6077W        W 9596   3.069   7.973   9.660
 6078W        W 9597   8.055   0.904   0.365
 6079W        W 9598   7.099   0.236  10.152
 6080W        W 9599   5.517   3.536   2.741
 6081W        W 9600   7.894   2.823   0.730
 6082W        W 9601   2.280   6.294   9.641
 6083W        W 9602   6.733   3.070   9.837
 6084W        W 9603   5.706   3.214   1.575
 6085W        W 9604   0.549   4.368   2.233
 6086W        W 9605   6.517   7.365  10.325
 6087W        W 9606   0.263   5.055   9.700
 6088W        W 9607   9.826   2.616   0.181
 6089W        W 9608   3.729   4.989   9.665
 6090W        W 9609   7.729   2.700   1.607
 6091W        W 9610   3.308   7.756   3.292
 6092W        W 9611   9.103   1.333   1.775
 6093W        W 9612   7.973   7.372   2.190
 6094W        W 9613   9.359   1.066   9.847
 6095W        W 9614   7.942   1.819  10.730
 6096W        W 9615   5.281   2.918   9.294
 6097W        W 9616   3.143   0.431   1.924
 6098W        W 9617   1.486   0.892   3.257
 6099W        W 9618   1.352   9.409   3.176
 6100W        W 9619   5.043   3.723   2.747
 6101W        W 9620   5.706   9.910   0.020
 6102W        W 9621   1.336   1.707   2.127
 6103W        W 9622   6.682   5.467   9.777
 6104W        W 9623   3.776   1.845   3.363
 6105W        W 9624   9.824   5.270   8.805
 6106W        W 9625   2.412   2.226   2.931
 6107W        W 9626   6.585   7.578   2.238
 6108W        W 9627   2.149   8.182  11.163
 6109W        W 9628   5.961   5.868  11.209
 6110W        W 9629   8.077   8.926  11.818
 6111W        W 9630   2.729   9.873   1.827
 6112W        W 9631   0.090   7.358   9.368
 6113W        W 9632   1.916   8.525   8.890
 6114W        W 9633   3.594   1.400   1.671
 6115W        W 9634   0.212   3.813   0.319
 6116W        W 9635   2.545   4.149   3.078
 6117W        W 9636   4.774   4.452   8.373
 6118W        W 9637   1.819   6.675   1.351
 6119W        W 9638   1.506   1.315   0.266
 6120W        W 9639   8.119   2.352   1.366
 6121W        W 9640   6.117   9.031   8.935
 6122W        W 9641   6.736   3.725   1.943
 6123W        W 9642   3.797   5.477   0.689
 6124W        W 9643   5.094   9.666  10.074
 6125W        W 9644   1.494   6.241  10.589
 6126W        W 9645   4.417   7.953   3.163
 6127W        W 9646   0.435   5.065  11.140
 6128W        W 9647   7.903   9.970   3.787
 6129W        W 9648   6.928   3.620  11.528
 6130W        W 9649   6.282   4.170  11.993
 6131W        W 9650   8.032   4.308   1.036
 6132W        W 9651   5.946   1.328  11.269
 6133W        W 9652   4.786   6.384   2.679
 6134W        W 9653   5.642   8.879   1.433
 6135W        W 9654   0.409   6.647   0.406
 6136W        W 9655   1.173   6.555   2.314
 6137W        W 9656   9.597   1.882   2.377
 6138W        W 9657   7.365   6.095   0.706
 6139W        W 9658   3.993   1.092  10.551
 6140W        W 9659   0.889   5.650   9.328
 6141W        W 9660   9.988   1.998   3.170
 6142W        W 9661   0.571   5.088   9.276
 6143W        W 9662   1.727   3.283  11.853
 6144W        W 9663   5.318   5.543   9.334
 6145W        W 9664   6.086   3.659   3.630
 6146W        W 9665   8.798   5.302   3.058
 6147W        W 9666   1.867   4.545   0.448
 6148W        W 9667   2.567   8.745  11.801
 6149W        W 9668   6.553   0.192   3.111
 6150W        W 9669   7.369   3.597  10.485
 6151W        W 9670   9.395   2.747   3.179
 6152W        W 9671   8.898   3.489  10.949
 6153W        W 9672   1.701   8.079  11.505
 6154W        W 9673   7.511   0.291   2.865
 6155W        W 9674   6.496   8.723   9.123
 6156W        W 9675   1.068   9.069   1.194
 6157W        W 9676   9.761   4.360   8.788
 6158W        W 9677   8.036   6.715  11.352
 6159W        W 9678   0.397   5.016  11.804
 6160W        W 9679   1.857   4.642   2.233
 6161W        W 9680   9.943   2.886   8.844
 6162W        W 9681   0.567   0.901  10.474
 6163W        W 9682   4.552   9.770   2.030
 6164W        W 9683   6.266   1.366  10.265
 6165W        W 9684   9.320   2.654   0.039
 6166W        W 9685   1.032   9.879  11.552
 6167W        W 9686   6.430   0.294   1.623
 6168W        W 9687   6.418   5.202  10.301
 6169W        W 9688   9.495   3.590   2.698
 6170W        W 9689   6.412   2.951   3.011
 6171W        W 9690   6.988   1.156   0.771
 6172W        W 9691   6.652   6.068  10.687
 6173W        W 9692   3.058   4.652   2.911
 6174W        W 9693   2.623   9.944   0.223
 6175W        W 9694   1.970   7.841   1.003
 6176W        W 9695   1.212   9.997  11.082
 6177W        W 9696   9.351   7.454   0.790
 6178W        W 9697   3.307   0.768   2.708
 6179W        W 9698   1.870   1.031   1.719
 6180W        W 9699   7.096   3.218  10.237
 6181W        W 9700   8.912   2.627  11.187
 6182W        W 9701   4.396   0.364   1.393
 6183W        W 9702   7.066   4.164  10.339
 6184W        W 9703   5.007   8.350   2.466
 6185W        W 9704   3.491   7.363   1.582
 6186W        W 9705   0.385   6.871  10.842
 6187W        W 9706   4.989   7.400   1.888
 6188W        W 9707   1.783   6.176   9.430
 6189W        W 9708   3.267   6.191   8.052
 6190W        W 9709   0.484   0.928  10.974
 6191W        W 9710   1.932   1.678  11.108
 6192W        W 9711   9.597   9.470   2.291
 6193W        W 9712   9.621   9.369   9.140
 6194W        W 9713   9.297   3.111  11.499
 6195W        W 9714   7.287   5.115   1.907
 6196W        W 9715   3.541   3.579  10.237
 6197W        W 9716   0.777   2.145   1.051
 6198W        W 9717   8.895   5.159   2.147
 6199W        W 9718   7.574   7.231  10.802
 6200W        W 9719   3.440   5.586   4.078
 6201W        W 9720   8.631   5.378   9.010
 6202W        W 9721   4.712   6.374  11.845
 6203W        W 9722   2.038   5.027   1.355
 6204W        W 9723   4.616   9.735   8.885
 6205W        W 9724   7.120   3.707   2.734
 6206W        W 9725   4.596   0.651   9.297
 6207W        W 9726   1.354   1.099  11.832
 6208W        W 9727   7.341   0.623   8.538
 6209W        W 9728   1.851   1.336   9.979
 6210W        W 9729   8.516   9.319  10.933
 6211W        W 9730   2.212   1.734  10.443
 6212W        W 9731   8.523   7.113   9.186
 6213W        W 9732   8.473   3.610  10.708
 6214W        W 9733   2.281   9.379   8.950
 6215W        W 9734   2.649   2.488   1.331
 6216W        W 9735   1.702   3.743   3.314
 6217W        W 9736   4.720   7.818   2.785
 6218W        W 9737   5.142   8.009   1.619
 6219W        W 9738   3.370   3.046  11.729
 6220W        W 9739   5.645   1.000   2.590
 6221W        W 9740   3.725   7.840   2.995
 6222W        W 9741   1.791   6.212   2.238
 6223W        W 9742   7.737   2.102  11.184
 6224W        W 9743   4.568   0.110   9.323
 6225W        W 9744   3.591   3.371  11.369
 6226W        W 9745   8.325   7.990   3.483
 6227W        W 9746   1.536   7.816   3.129
 6228W        W 9747   3.457   7.096   9.043
 6229W        W 9748   0.866   0.296   1.409
 6230W        W 9749   5.776   5.019   9.630
 6231W        W 9750   7.996   8.823   9.063
 6232W        W 9751   5.137   4.074   8.478
 6233W        W 9752   6.236   7.322   9.040
 6234W        W 9753   3.099   2.319   1.531
 6235W        W 9754   7.199   1.449   0.303
 6236W        W 9755   2.832   6.549   1.846
 6237W        W 9756   7.895   0.666   2.808
 6238W        W 9757   4.868   5.720   3.808
 6239W        W 9758   2.235   3.059   1.328
 6240W        W 9759   5.441   4.003   2.020
 6241W        W 9760   8.476   7.537  10.315
 6242W        W 9761   7.559   7.606   3.237
 6243W        W 9762   2.618   6.003   3.129
 6244W        W 9763   4.612   0.859   9.773
 6245W        W 9764   5.230   9.812  11.815
 6246W        W 9765   0.446   7.035   9.235
 6247W        W 9766   6.493   3.698   1.283
 6248W        W 9767   6.159   5.047   3.378
 6249W        W 9768   6.609   4.031  10.129
 6250W        W 9769   5.650   8.796   2.332
 6251W        W 9770   0.717   1.701   0.797
 6252W        W 9771   2.523   0.413  10.780
 6253W        W 9772   4.884   3.288   1.025
 6254W        W 9773   0.902   4.858  10.028
 6255W        W 9774   3.149   8.408   1.591
 6256W        W 9775   0.831   3.155   9.163
 6257W        W 9776   6.138   4.509   2.140
 6258W        W 9777   5.722   0.914   8.543
 6259W        W 9778   9.380   4.378   9.903
 6260W        W 9779   1.904   0.853   3.607
 6261W        W 9780   4.686   8.773   3.566
 6262W        W 9781   9.956   8.460   0.042
 6263W        W 9782   7.613   5.830  11.540
 6264W        W 9783   2.534   1.701   0.619
 6265W        W 9784   6.959   2.881   9.389
 6266W        W 9785   9.443   8.725   3.284
 6267W        W 9786   9.959   4.365   2.678
 6268W        W 9787   1.028   8.348   3.638
 6269W        W 9788   0.439   5.707  10.011
 6270W        W 9789   4.856   7.227   9.680
 6271W        W 9790   9.405   1.379   3.260
 6272W        W 9791   2.535   4.222  10.911
 6273W        W 9792   9.478   6.076   3.045
 6274W        W 9793   4.198   2.241   9.771
 6275W        W 9794   3.522   5.063  11.945
 6276W        W 9795   3.205   6.570   2.658
 6277W        W 9796   3.594   6.079   4.024
 6278W        W 9797   0.373   8.589   9.836
 6279W        W 9798   3.145   9.419  11.517
 6280W        W 9799   4.473   3.750   3.398
 6281W        W 9800   9.235   9.428   1.396
 6282W        W 9801   8.280   1.009  10.676
 6283W        W 9802   0.355   8.708  11.665
 6284W        W 9803   3.292   6.117  10.540
 6285W        W 9804   4.075   5.092   2.078
 6286W        W 9805   7.376   5.912  11.064
 6287W        W 9806   7.861   2.820   0.207
 6288W        W 9807   7.249   9.193   1.872
 6289W        W 9808   1.855   6.958  10.824
 6290W        W 9809   4.239   1.906  10.410
 6291W        W 9810   6.445   3.210   0.328
 6292W        W 9811   8.184   9.921   0.575
 6293W        W 9812   1.738   0.866   0.334
 6294W        W 9813   9.474   1.005   1.895
 6295W        W 9814   5.493   9.607   9.247
 6296W        W 9815   4.547   7.571  10.505
 6297W        W 9816   0.423   7.901   1.952
 6298W        W 9817   5.969   6.178   2.049
 6299W        W 9818   6.593   0.659   2.877
 6300W        W 9819   2.268   9.854  10.476
 6301W        W 9820   3.162   5.522  11.281
 6302W        W 9821   7.647   2.198   9.471
 6303W        W 9822   9.655   4.100   1.890
 6304W        W 9823   3.295   8.461   8.579
 6305W        W 9824   7.264   3.530   8.626
 6306W        W 9825   8.389   5.194   1.395
 6307W        W 9826   8.164   9.766   8.891
 6308W        W 9827   1.383   3.210   1.119
 6309W        W 9828   5.545   7.427   9.351
 6310W        W 9829   7.788   3.316   0.322
 6311W        W 9830   3.162   4.072  11.950
 6312W        W 9831   6.346   5.028   2.041
 6313W        W 9832   8.279   9.366   1.235
 6314W        W 9833   8.276   8.923   9.477
 6315W        W 9834   9.888   1.291   2.525
 6316W        W 9835   7.223   3.131   9.749
 6317W        W 9836   7.952   1.072   3.140
 6318W        W 9837   1.843   9.522  11.627
 6319W        W 9838   2.113   8.300   9.884
 6320W        W 9839   5.066   4.137   8.981
 6321W        W 9840   4.232   1.571   0.756
 6322W        W 9841   2.654   5.126  11.760
 6323W        W 9842   1.667   2.155   0.524
 6324W        W 9843   0.856   4.681   1.911
 6325W        W 9844   7.415   9.491   8.542
 6326W        W 9845   9.345   1.610  10.454
 6327W        W 9846   8.279   0.477   1.294
 6328W        W 9847   1.180   2.641  11.873
 6329W        W 9848   9.071   1.873   9.302
 6330W        W 9849   1.697   2.400   3.515
 6331W        W 9850   2.739   3.454  10.137
 6332W        W 9851   3.516   5.889   1.944
 6333W        W 9852   8.929   7.803  10.268
 6334W        W 9853   6.070   2.151   8.443
 6335W        W 9854   7.249   1.787  11.102
 6336W        W 9855   6.836   9.531   2.666
 6337W        W 9856   5.588   8.398  10.871
 6338W        W 9857   2.907   1.360   0.475
 6339W        W 9858   5.163   9.704  10.933
 6340W        W 9859   0.253   8.566   8.550
 6341W        W 9860   4.363   9.747   2.764
 6342W        W 9861   3.516   9.680   2.314
 6343W        W 9862   0.191   3.813  11.423
 6344W        W 9863   8.864   6.983   2.121
 6345W        W 9864   4.172   1.299   9.761
 6346W        W 9865   7.348   6.646   3.460
 6347W        W 9866   1.277   1.918   0.323
 6348W        W 9867   6.552   9.518   9.973
 6349W        W 9868   4.943   2.202   9.907
 6350W        W 9869   4.915   6.142   9.015
 6351W        W 9870   7.479   0.446   1.095
 6352W        W 9871   8.765   0.814   3.071
 6353W        W 9872   8.095   6.661   1.692
 6354W        W 9873   1.417   9.254   9.291
 6355W        W 9874   1.730   5.762  10.431
 6356W        W 9875   6.887   6.033   3.254
 6357W        W 9876   3.059   5.263   8.487
 6358W        W 9877   6.453   3.164  10.957
 6359W        W 9878   5.499   0.206  10.379
 6360W        W 9879   1.238   3.321   2.709
 6361W        W 9880   5.120   2.037   0.672
 6362W        W 9881   3.248   6.792   0.326
 6363W        W 9882   1.727   3.796   1.837
 6364W        W 9883   0.375   5.687   1.209
 6365W        W 9884   4.644   1.029  10.257
 6366W        W 9885   7.373   5.216   0.680
 6367W        W 9886   1.067   3.627   1.070
 6368W        W 9887   3.447   8.489   0.858
 6369W        W 9888   4.414   2.955   3.635
 6370W        W 9889   2.269   0.838  10.258
 6371W        W 9890   3.099   7.972  10.542
 6372W        W 9891   9.844   8.656   0.511
 6373W        W 9892   2.853   6.708  11.905
 6374W        W 9893   6.133   0.558   9.869
 6375W        W 9894   8.759   0.878  10.861
 6376W        W 9895   8.042   2.555   1.977
 6377W        W 9896   2.531   0.153  11.766
 6378W        W 9897   9.756   2.568   1.267
 6379W        W 9898   2.897   6.935   0.750
 6380W        W 9899   2.295   1.727   3.007
 6381W        W 9900   8.953   3.415   9.615
 6382W        W 9901   0.718   6.473   3.449
 6383W        W 9902   6.043   9.205   0.763
 6384W        W 9903   6.438   9.380  10.886
 6385W        W 9904   5.223   4.005   3.772
 6386W        W 9905   9.962   2.348   8.896
 6387W        W 9906   4.047   8.238   2.939
 6388W        W 9907   0.256   6.723   2.610
 6389W        W 9908   2.167   5.353   0.184
 6390W        W 9909   4.875   6.681  11.476
 6391W        W 9910   0.006   1.377   1.332
 6392W        W 9911   7.991   3.317   0.813
 6393W        W 9912   5.527   1.214  10.110
 6394W        W 9913   8.391   5.980  10.740
 6395W        W 9914   8.584   5.007  11.379
 6396W        W 9915   7.004   6.396  10.479
 6397W        W 9916   8.096   7.721   0.829
 6398W        W 9917   4.790   4.617  11.922
 6399W        W 9918   4.022   1.326   9.290
 6400W        W 9919   7.376   2.359   1.772
 6401W        W 9920   2.448   7.864   0.836
 6402W        W 9921   5.120   2.417   9.338
 6403W        W 9922   8.072   0.889   9.346
 6404W        W 9923   7.153   0.824  11.162
 6405W        W 9924   1.706   0.536   2.770
 6406W        W 9925   0.863   1.669   3.447
 6407W        W 9926   6.587   8.589  11.849
 6408W        W 9927   9.325   8.950   9.408
 6409W        W 9928   3.017   0.209  11.967
 6410W        W 9929   1.593   6.576   1.935
 6411W        W 9930   7.566   1.608   9.469
 6412W        W 9931   1.142   5.063   2.703
 6413W        W 9932   8.653   6.677   0.628
 6414W        W 9933   2.331   2.795  10.446
 6415W        W 9934   9.181   2.900  10.402
 6416W        W 9935   0.969   6.858   1.373
 6417W        W 9936   5.803   0.857  11.416
 6418W        W 9937   3.997   0.765   0.927
 6419W        W 9938   7.383   8.942   2.305
 6420W        W 9939   3.181   9.377   0.019
 6421W        W 9940   1.595   6.297  11.723
 6422W        W 9941   3.119   3.737   9.340
 6423W        W 9942   6.901   6.658  10.972
 6424W        W 9943   2.331   2.479   0.026
 6425W        W 9944   9.789   4.633   9.246
 6426W        W 9945   2.454   8.678  10.048
 6427W        W 9946   4.502   4.367   0.280
 6428W        W 9947   1.315   3.740   2.982
 6429W        W 9948   9.371   2.127  11.161
 6430W        W 9949   5.966   2.952   0.280
 6431W        W 9950   5.653   5.830  10.783
 6432W        W 9951   0.756   3.153  10.981
 6433W        W 9952   2.741   9.673   0.641
 6434W        W 9953   8.436   4.373   8.847
 6435W        W 9954   7.625   6.082  10.393
 6436W        W 9955   0.761   8.607  10.188
 6437W        W 9956   3.278   2.688   2.767
 6438W        W 9957   9.432   0.140  11.371
 6439W        W 9958   2.699   9.427   0.197
 6440W        W 9959   8.237   1.731   8.954
 6441W        W 9960   5.922   3.173  11.037
 6442W        W 9961   9.512   5.772   0.240
 6443W        W 9962   0.021   0.475   3.228
 6444W        W 9963   7.588   1.902   2.502
 6445W        W 9964   8.153   3.207  11.940
 6446W        W 9965   1.637   8.429   9.684
 6447W        W 9966   8.003   1.598   9.842
 6448W        W 9967   1.226   5.815  10.424
 6449W        W 9968   8.405   5.492  10.264
 6450W        W 9969   8.322   5.844  11.781
 6451W        W 9970   9.589   2.409  10.367
 6452W        W 9971   4.682   0.197   3.228
 6453W        W 9972   8.631   5.604   2.062
 6454W        W 9973   8.896   0.448   2.305
 6455W        W 9974   2.884   1.858   1.403
 6456W        W 9975   1.936   3.182   0.369
 6457W        W 9976   3.202   7.448   9.715
 6458W        W 9977   2.095   2.930  11.953
 6459W        W 9978   3.993   4.403   8.129
 6460W        W 9979   5.763   1.985   3.521
 6461W        W 9980   9.558   3.144  10.145
 6462W        W 9981   8.793   1.322  11.603
 6463W        W 9982   0.403   6.209   1.213
 6464W        W 9983   1.265   7.556   0.510
 6465W        W 9984   0.962   6.249  10.525
 6466W        W 9985   8.037   4.436   1.516
 6467W        W 9986   2.406   1.227   2.919
 6468W        W 9987   0.917   1.629  11.244
 6469W        W 9988   0.058   8.210   2.746
 6470W        W 9989   1.538   4.954   0.634
 6471W        W 9990   3.382   9.420   2.723
 6472W        W 9991   7.382   2.302   2.761
 6473W        W 9992   1.527   4.242   2.085
 6474W        W 9993   3.562   7.620   1.128
 6475W        W 9994   9.163   5.045   0.214
 6476W        W 9995   6.908   0.922  10.739
 6477W        W 9996   4.318   9.853   9.698
 6478W        W 9997   3.690   1.782  10.888
 6479W        W 9998   0.746   6.701   9.491
 6480W        W 9999   6.509   9.389   9.087
 6481W        W10000   2.633   4.995  10.287
 6482W        W10001   5.729   5.774   1.779
 6483W        W10002   2.869   8.419   8.854
 6484W        W10003   4.214   7.078   0.990
 6485W        W10004   6.505   2.324   1.899
 6486W        W10005   8.270   7.999   9.128
 6487W        W10006   5.927   2.204  11.552
 6488W        W10007   8.294   4.099   2.801
 6489W        W10008   5.178   7.528   1.433
 6490W        W10009   3.082   5.735   2.337
 6491W        W10010   1.855   7.255   3.242
 6492W        W10011   9.369   9.607   1.851
 6493W        W10012   5.198   6.937   1.896
 6494W        W10013   0.158   5.399   0.038
 6495W        W10014   8.558   0.698   0.421
 6496W        W10015   0.119   5.034   1.751
 6497W        W10016   7.835   1.501   8.689
 6498W        W10017   7.171   8.170   0.668
 6499W        W10018   9.206   6.219   1.210
 6500W        W10019   0.345   8.408   3.612
 6501W        W10020   8.114   7.809  10.033
 6502W        W10021   2.374   7.502   9.346
 6503W        W10022   3.197   5.176   8.963
 6504W        W10023   5.998   7.698   9.310
 6505W        W10024   2.916   8.891  11.433
 6506W        W10025   2.947   5.121   0.768
 6507W        W10026   5.112   0.680   0.929
 6508W        W10027   2.269   3.973  11.999
 6509W        W10028   5.629   4.988   0.847
 6510W        W10029   0.925   9.486  10.616
 6511W        W10030   7.531   1.175   3.432
 6512W        W10031   2.308   4.348   9.138
 6513W        W10032   5.011   9.944  10.491
 6514W        W10033   9.876   7.694  10.289
 6515W        W10034   5.836   1.548   0.111
 6516W        W10035   4.949   2.461  10.360
 6517W        W10036   5.978   3.851   9.147
 6518W        W10037   6.795   1.084  11.428
 6519W        W10038   7.617   3.651   0.935
 6520W        W10039   6.126   0.399   2.951
 6521W        W10040   4.250   7.961   0.648
 6522W        W10041   9.993   3.019   1.352
 6523W        W10042   2.673   0.834   9.092
 6524W        W10043   2.619   5.916   2.326
 6525W        W10044   5.673   7.695   0.437
 6526W        W10045   2.587   5.572   0.002
 6527W        W10046   6.166   9.817  10.873
 6528W        W10047   7.473   8.135   3.428
 6529W        W10048   9.333   4.583   8.989
 6530W        W10049   5.459   7.014   2.343
 6531W        W10050   1.644   7.881   8.940
 6532W        W10051   7.659   5.855   8.750
 6533W        W10052   5.465   9.335  11.690
 6534W        W10053   9.385   7.891  10.504
 6535W        W10054   8.999   4.088   0.090
 6536W        W10055   1.626   8.070   8.460
 6537W        W10056   8.093   8.884   1.373
 6538W        W10057   1.422   3.934  11.967
 6539W        W10058   4.722   4.513   8.873
 6540W        W10059   2.965   8.442   9.419
 6541W        W10060   2.773   4.183   9.345
 6542W        W10061   1.464   2.548  10.799
 6543W        W10062   2.303   5.773   9.653
 6544W        W10063   1.805   4.723  11.775
 6545W        W10064   8.071   2.805  11.189
 6546W        W10065   3.891   0.924   0.300
 6547W        W10066   3.678   3.331   3.215
 6548W        W10067   9.634   7.566   9.465
 6549W        W10068   5.760   5.944   3.553
 6550W        W10069   8.508   6.771   9.632
 6551W        W10070   7.798   6.185   8.369
 6552W        W10071   2.203   0.380   0.927
 6553W        W10072   3.176   9.479  11.019
 6554W        W10073   9.794   0.848   2.255
 6555W        W10074   4.481   0.232  11.854
 6556W        W10075   3.629   9.332  11.794
 6557W        W10076   7.406   3.279   1.245
 6558W        W10077   8.535   3.989   3.621
 6559W        W10078   0.074   9.010   9.864
 6560W        W10079   4.428   6.001   8.356
 6561W        W10080   1.829   9.523   9.185
 6562W        W10081   2.903   2.682   9.145
 6563W        W10082   3.671   7.088   0.488
 6564W        W10083   5.354   5.564   2.609
 6565W        W10084   7.730   5.325  11.155
 6566W        W10085   7.473   7.099   2.060
 6567W        W10086   5.147   6.089   2.444
 6568W        W10087   7.185   3.759  11.075
 6569W        W10088   9.952   3.665   1.944
 6570W        W10089   4.576   0.529  10.172
 6571W        W10090   5.610   3.041   2.702
 6572W        W10091   2.728   2.548  10.266
 6573W        W10092   9.663   9.295  11.548
 6574W        W10093   5.238   5.423   3.540
 6575W        W10094   9.650   7.542  11.249
 6576W        W10095   6.789   5.005   1.775
 6577W        W10096   7.620   2.742   2.563
 6578W        W10097   8.832   0.446   9.592
 6579W        W10098   7.488   7.922   1.433
 6580W        W10099   2.428   8.417  10.818
 6581W        W10100   4.776   3.813  10.888
 6582W        W10101   6.447   1.198   0.002
 6583W        W10102   7.172   9.879  11.895
 6584W        W10103   3.536   5.465   8.350
 6585W        W10104   5.181   0.874   0.436
 6586W        W10105   5.166   8.115   8.595
 6587W        W10106   0.743   0.335  11.589
 6588W        W10107   4.821   6.132  10.700
 6589W        W10108   9.742   5.590   3.337
 6590W        W10109   6.068   0.598   1.002
 6591W        W10110   0.375   7.064   2.242
 6592W        W10111   4.610   3.214   0.194
 6593W        W10112   5.008   5.284   2.382
 6594W        W10113   6.322   9.407   3.305
 6595W        W10114   2.569   5.615   1.928
 6596W        W10115   1.232   2.588   1.696
 6597W        W10116   4.202   3.005  11.960
 6598W        W10117   4.750   5.715  11.497
 6599W        W10118   7.491   4.915   3.283
 6600W        W10119   6.793   2.911   1.461
 6601W        W10120   7.452   4.811   2.753
 6602W        W10121   5.487   8.167   0.351
 6603W        W10122   4.048   4.118   9.901
 6604W        W10123   4.507   9.595  10.345
 6605W        W10124   1.828   9.337  10.106
 6606W        W10125   9.578   6.269   1.571
 6607W        W10126   8.920   7.459   9.042
 6608W        W10127   2.583   4.119   1.732
 6609W        W10128   2.767   4.300   2.636
 6610W        W10129   3.377   3.861   2.030
 6611W        W10130   3.968   0.269   3.649
 6612W        W10131   5.404   5.548  11.125
 6613W        W10132   9.174   2.734   2.452
 6614W        W10133   5.618   3.809  11.243
 6615W        W10134   4.846   0.413   2.439
 6616W        W10135   5.751   1.387   1.602
 6617W        W10136   2.769   5.074  10.768
 6618W        W10137   0.313   8.461   0.531
 6619W        W10138   1.806   1.935   1.819
 6620W        W10139   7.276   2.200  11.399
 6621W        W10140   7.025   4.463   0.368
 6622W        W10141   0.757   6.658  11.489
 6623W        W10142   4.458   5.880   9.427
 6624W        W10143   1.444   9.816  11.846
 6625W        W10144   4.922   1.159   1.088
 6626W        W10145   1.648   5.752  11.875
 6627W        W10146   0.538   2.327   9.545
 6628W        W10147   8.571   0.221  10.860
 6629W        W10148   5.554   9.592   3.258
 6630W        W10149   0.808   7.398  10.011
 6631W        W10150   0.751   1.346  10.836
 6632W        W10151   4.178   2.030   0.016
 6633W        W10152   8.324   5.477   3.218
 6634W        W10153   7.368   1.417   2.529
 6635W        W10154   7.251   4.705   2.194
 6636W        W10155   4.593   4.598  10.484
 6637W        W10156   3.901   7.348   2.320
 6638W        W10157   5.375   8.465   1.608
 6639W        W10158   7.927   8.045  10.479
 6640W        W10159   4.048   3.571   8.657
 6641W        W10160   0.894   6.902   9.941
 6642W        W10161   7.902   6.074   0.729
 6643W        W10162   1.684   9.042   3.318
 6644W        W10163   3.837   7.631  10.696
 6645W        W10164   5.099   6.542   9.681
 6646W        W10165   5.037   1.179  10.879
 6647W        W10166   7.042   7.803   2.220
 6648W        W10167   9.968   8.550   9.012
 6649W        W10168   1.647   3.460   3.739
 6650W        W10169   4.349   7.354   3.620
 6651W        W10170   6.985   8.613   8.937
 6652W        W10171   6.031   8.132  11.751
 6653W        W10172   5.845   4.113   2.988
 6654W        W10173   4.905   5.152   0.919
 6655W        W10174   0.214   3.690   9.272
 6656W        W10175   5.039   8.552   0.290
 6657W        W10176   0.536   7.654  11.360
 6658W        W10177   4.563   9.376   0.254
 6659W        W10178   1.364   7.156  10.817
 6660W        W10179   2.303   9.765   8.603
 6661W        W10180   4.712   1.876   0.926
 6662W        W10181   5.947   3.443   0.305
 6663W        W10182   4.716   3.969   8.160
 6664W        W10183   5.538   0.942   9.645
 6665W        W10184   8.315   6.208   1.653
 6666W        W10185   8.403   3.665   1.349
 6667W        W10186   1.643   6.687   2.437
 6668W        W10187   0.333   2.238   0.809
 6669W        W10188   4.824   5.438  10.949
 6670W        W10189   1.242   0.696   2.844
 6671W        W10190   9.212   9.203   2.508
 6672W        W10191   6.727   2.190   1.466
 6673W        W10192   1.682   8.036   0.079
 6674W        W10193   5.945   3.651   1.263
 6675W        W10194   2.091   7.977  10.689
 6676W        W10195   1.799   1.225   1.239
 6677W        W10196   8.145   8.387   0.438
 6678W        W10197   0.683   5.382   3.440
 6679W        W10198   2.193   5.492   1.076
 6680W        W10199   6.358   4.062  11.074
 6681W        W10200   5.856   7.181   2.672
 6682W        W10201   0.392   0.443   2.413
 6683W        W10202   1.102   8.992  10.010
 6684W        W10203   3.356   9.721   1.203
 6685W        W10204   6.554   0.783   3.405
 6686W        W10205   4.112   9.865  10.171
 6687W        W10206   4.569   6.026  10.285
 6688W        W10207   0.661   8.004   3.522
 6689W        W10208   2.579   4.479  10.276
 6690W        W10209   6.132   5.687   2.077
 6691W        W10210   6.223   2.672   8.576
 6692W        W10211   3.564   4.775  10.674
 6693W        W10212   1.006   7.873   3.105
 6694W        W10213   7.948   5.518   2.866
 6695W        W10214   3.665   6.850   0.033
 6696W        W10215   2.850   1.368   9.786
 6697W        W10216   7.212   4.796   0.965
 6698W        W10217   6.689   1.735   9.542
 6699W        W10218   7.070   3.175   0.455
 6700W        W10219   6.453   6.931   9.266
 6701W        W10220   6.981   0.334  11.831
 6702W        W10221   7.647   5.936   2.878
 6703W        W10222   0.244   0.584  10.238
 6704W        W10223   3.522   4.083  10.054
 6705ION    NA+10224   4.478   0.499  10.985
 6706ION    NA+10225   7.985   4.135   8.823
 6707ION    NA+10226   6.274   8.424   0.731
 6708ION    NA+10227   3.382   1.619   1.235
 6709ION    NA+10228   4.010   6.350   2.238
 6710ION    NA+10229   2.263   5.735  10.502
 6711ION    NA+10230   4.516   6.550  10.397
 6712ION    NA+10231   6.644   5.022  11.694
 6713ION    NA+10232   9.531   3.055   8.560
 6714ION    NA+10233   4.639   8.763   9.821
 6715ION    NA+10234   6.142   3.662   9.612
 6716ION    NA+10235   4.734   7.868   0.760
 6717ION    NA+10236   7.896   5.614  11.952
 6718ION    NA+10237   0.849   3.162  11.955
 6719ION    NA+10238   0.017   9.969   3.058
 6720ION    NA+10239   7.571   8.950  11.755
 6721ION    NA+10240   1.706   7.056   9.504
 6722ION    NA+10241   4.057   2.382  10.334
 6723ION    NA+10242   3.783   0.187   8.887
 6724ION    NA+10243   3.867   8.442   9.583
 6725ION    NA+10244   6.949   1.231   8.963
 6726ION    NA+10245   3.600   5.511  10.997
 6727ION    NA+10246   7.453   4.082   9.558
 6728ION    NA+10247   5.358   9.253  10.159
 6729ION    NA+10248   6.911   9.523  10.685
 6730ION    NA+10249   3.144   0.955   8.916
 6731ION    NA+10250   0.283   5.429  11.511
 6732ION    NA+10251   9.317   3.435   1.320
 6733ION    NA+10252   8.121   1.603   3.195
 6734ION    NA+10253   2.637   5.045   8.770
 6735ION    NA+10254   6.342   0.867   1.762
 6736ION    NA+10255   8.647   1.376  10.758
 6737ION    NA+10256   5.295   8.821   2.677
 6738ION    NA+10257   1.859   4.673   1.725
 6739ION    NA+10258   7.285   9.352   2.846
 6740ION    NA+10259   1.753   9.745   0.441
 6741ION    NA+10260   7.904   7.899   2.228
 6742ION    NA+10261   2.655   6.744   2.366
 6743ION    NA+10262   1.557   6.553   0.910
 6744ION    NA+10263   1.339   8.623   1.101
 6745ION    NA+10264   2.153   5.906   0.029
 6746ION    NA+10265   8.175   4.778   2.116
 6747ION    NA+10266   8.895   9.019  10.258
 6748ION    NA+10267   8.396   7.989  11.986
 6749ION    NA+10268   8.412   8.015   1.622
 6750ION    NA+10269   5.969   6.679   4.015
 6751ION    NA+10270   4.214   9.488   1.016
 6752ION    NA+10271   0.908   3.262   9.660
 6753ION    NA+10272   1.313   0.532   3.704
 6754ION    NA+10273   4.068   5.500   2.415
 6755ION    NA+10274   8.709   2.740   1.228
 6756ION    NA+10275   6.458   8.475   2.242
 6757ION    NA+10276   7.790   4.847  10.971
 6758ION    NA+10277   4.189   5.285   0.388
 6759ION    NA+10278   0.576   4.882   0.295
 6760ION    NA+10279   1.817   0.029   3.161
 6761ION    NA+10280   3.811   4.954  10.174
 6762ION    NA+10281   9.727   7.894   3.004
 6763ION    NA+10282   5.198   5.929   3.459
 6764ION    NA+10283   3.579   9.599   0.252
 6765ION    NA+10284   0.299   0.442   8.600
 6766ION    NA+10285   8.733   7.942   2.414
 6767ION    NA+10286   3.868   6.344   9.158
 6768ION    NA+10287   4.306   0.398   9.738
 6769ION    NA+10288   7.963   7.853   9.523
 6770ION    NA+10289   2.799   1.883   2.466
 6771ION    NA+10290   3.024   2.707  11.584
 6772ION    NA+10291   7.579   2.575  10.476
 6773ION    NA+10292   2.146   5.744   8.824
 6774ION    NA+10293   5.308   4.569   1.553
 6775ION    NA+10294   6.551   6.935   9.866
 6776ION    CL-10295   8.599   4.706   2.243
 6777ION    CL-10296   0.223   1.199   2.926
 6778ION    CL-10297   5.136   8.826   1.320
 6779ION    CL-10298   6.125   0.535  11.183
 6780ION    CL-10299   4.920   4.642   3.009
 6781ION    CL-10300   6.138   3.888   9.995
 6782ION    CL-10301   1.135   3.643   9.688
 6783ION    CL-10302   2.386   5.378   8.972
 6784ION    CL-10303   4.009   5.897   2.195
 6785ION    CL-10304   1.835   1.808   3.267
 6786ION    CL-10305   6.433   8.552   0.334
 6787ION    CL-10306   4.338   8.437   9.613
 6788ION    CL-10307   4.473   1.580   9.433
 6789ION    CL-10308   2.700   5.337   2.346
 6790ION    CL-10309   0.890   4.668   0.057
 6791ION    CL-10310   7.035   1.037   8.537
 6792ION    CL-10311   7.787   4.083   9.236
 6793ION    CL-10312   4.690   7.707   0.343
 6794ION    CL-10313   2.179   8.504  11.570
 6795ION    CL-10314   4.144   6.670  10.611
 6796ION    CL-10315   2.175   9.104   2.124
 6797ION    CL-10316   7.726   9.197   0.094
 6798ION    CL-10317   9.171   2.707   9.504
 6799ION    CL-10318   5.065   4.267   1.314
 6800ION    CL-10319   1.409   0.002   0.321
 6801ION    CL-10320   9.012   3.075   1.289
 6802ION    CL-10321   3.294   3.651   3.516
 6803ION    CL-10322   5.756   7.462   2.267
 6804ION    CL-10323   3.199   4.924   0.373
 6805ION    CL-10324   0.233   0.523   0.930
 6806ION    CL-10325   6.199   2.385   2.325
 6807ION    CL-10326   4.861   4.971   8.638
 6808ION    CL-10327   9.043   1.240  10.611
 6809ION    CL-10328   7.509   4.322   0.265
 6810ION    CL-10329   7.766   5.154  10.649
 6811ION    CL-10330   5.599   6.682   0.224
 6812ION    CL-10331   0.998   8.696   0.813
 6813ION    CL-10332   0.828   8.365   2.278
 6814ION    CL-10333   6.630   1.539   9.078
 6815ION    CL-10334   1.314   4.540  10.092
 6816ION    CL-10335   0.120   7.725   2.864
 6817ION    CL-10336   4.350   4.653  10.973
 6818ION    CL-10337   4.401   0.071  11.093
 6819ION    CL-10338   3.441   8.600   9.648
 6820ION    CL-10339   3.153   7.283   0.403
 6821ION    CL-10340   2.029   6.027  11.617
 6822ION    CL-10341   2.468   1.592   2.385
 6823ION    CL-10342   5.505   4.923   1.760
 6824ION    CL-10343   8.347   7.966   2.085
 6825ION    CL-10344   7.097   4.123   9.837
 6826ION    CL-10345   9.902   0.680   8.737
 6827ION    CL-10346   5.175   8.733   3.103
 6828ION    CL-10347   5.739   3.209   1.065
 6829ION    CL-10348   6.695   3.387   3.180
 6830ION    CL-10349   7.514   9.946   0.860
 6831ION    CL-10350   8.914   9.324  10.582
 6832ION    CL-10351   8.474   9.208   3.568
 6833ION    CL-10352   3.758   6.729   9.361
 6834ION    CL-10353   0.072   3.842   2.721
 6835ION    CL-10354   6.393   7.818   8.958
 6836ION    CL-10355   4.586   3.343   9.730
 6837ION    CL-10356   4.990   9.044   9.979
 6838ION    CL-10357   5.664   0.246   3.128
 6839ION    CL-10358   5.762   3.610   3.199
 6840ION    CL-10359   5.033   7.578   9.374
 6841ION    CL-10360   9.560   5.688   9.092
 6842ION    CL-10361   9.842   2.503   3.066
 6843ION    CL-10362   2.694   4.676  11.546
 6844ION    CL-10363   7.786   2.545  10.867
 6845ION    CL-10364   1.678   8.571   1.406
 6846ION    CL-10365   9.630   3.731   1.475
  10.00000  10.00000  12.00000
